Protein in INSANE! Membrane UpperLeaflet>POPC=1.0 LowerLeaflet>POPC=1.0
247995
    1AU     AUC    1   3.405  44.622   7.498
    1AU     AUC    2   3.673  44.629   7.328
    1AU     AUC    3   3.679  44.628   7.655
    1AU     AUC    4   3.131  44.615   7.336
    1AU     AUC    5   3.136  44.616   7.666
    1AU     AUC    6   3.229  44.878   7.502
    1AU     AUC    7   3.560  44.887   7.496
    1AU     AUC    8   3.248  44.354   7.500
    1AU     AUC    9   3.581  44.361   7.492
    1AU     AUC   10   3.417  44.461   7.760
    1AU     AUC   11   3.405  44.785   7.768
    1AU     AUC   12   3.407  44.461   7.232
    1AU     AUC   13   3.396  44.785   7.231
    1AU     AUC   14   3.934  44.655   7.164
    1AU     AUC   15   3.969  44.635   7.485
    1AU     AUC   16   3.948  44.644   7.804
    1AU     AUC   17   2.871  44.596   7.166
    1AU     AUC   18   2.854  44.600   7.503
    1AU     AUC   19   2.879  44.597   7.836
    1AU     AUC   20   3.055   0.115   7.506
    1AU     AUC   21   3.398   0.153   7.501
    1AU     AUC   22   3.692   0.152   7.491
    1AU     AUC   23   3.109  44.076   7.503
    1AU     AUC   24   3.421  44.078   7.497
    1AU     AUC   25   3.756  44.108   7.486
    1AU     AUC   26   3.444  44.315   8.019
    1AU     AUC   27   3.423  44.619   8.042
    1AU     AUC   28   3.416  44.957   8.022
    1AU     AUC   29   3.422  44.318   6.964
    1AU     AUC   30   3.400  44.615   6.962
    1AU     AUC   31   3.392  44.960   6.983
    1AU     AUC   32   3.687  44.463   7.928
    1AU     AUC   33   3.689  44.797   7.944
    1AU     AUC   34   3.669  44.477   7.036
    1AU     AUC   35   3.681  44.809   7.060
    1AU     AUC   36   3.139  44.462   7.943
    1AU     AUC   37   3.123  44.786   7.941
    1AU     AUC   38   3.127  44.458   7.059
    1AU     AUC   39   3.108  44.781   7.062
    1AU     AUC   40   3.839  44.893   7.330
    1AU     AUC   41   3.844  44.888   7.661
    1AU     AUC   42   2.949  44.880   7.323
    1AU     AUC   43   2.951  44.880   7.676
    1AU     AUC   44   3.853  44.359   7.322
    1AU     AUC   45   3.871  44.357   7.629
    1AU     AUC   46   2.968  44.342   7.328
    1AU     AUC   47   2.979  44.338   7.681
    1AU     AUC   48   3.226   0.055   7.786
    1AU     AUC   49   3.555   0.064   7.775
    1AU     AUC   50   3.265  44.178   7.755
    1AU     AUC   51   3.613  44.197   7.764
    1AU     AUC   52   3.215   0.042   7.211
    1AU     AUC   53   3.544   0.069   7.215
    1AU     AUC   54   3.245  44.184   7.243
    1AU     AUC   55   3.594  44.200   7.219
    1AU    AUSL   56   3.868  44.597   8.124
    1AU    AUSL   57   3.771  44.180   8.072
    1AU     AUL   58   4.146  44.379   8.163
    1AU       S   59   4.077  43.884   8.313
    1AU     LIG   60   4.135  43.518   8.607
    1AU     LIG   61   4.457  43.271   8.848
    1AU       S   62   3.940  44.365   8.627
    1AU     LIG   63   4.077  44.621   8.990
    1AU     LIG   64   4.189  44.535   9.430
    1AU    AUSL   65   3.579  44.432   8.246
    1AU    AUSL   66   3.261  44.773   8.178
    1AU     AUL   67   3.404  44.653   8.523
    1AU       S   68   3.684  44.202   8.602
    1AU     LIG   69   3.793  44.193   9.087
    1AU     LIG   70   3.955  44.070   9.523
    1AU       S   71   2.649  44.340   8.752
    1AU     LIG   72   2.726  44.659   9.127
    1AU     LIG   73   2.628  44.757   9.589
    1AU    AUSL   74   3.594  44.824   8.248
    1AU    AUSL   75   3.995  44.903   7.978
    1AU     AUL   76   3.945  44.810   8.368
    1AU       S   77   3.597   0.151   8.591
    1AU     LIG   78   3.980   0.153   8.876
    1AU     LIG   79   4.075   0.036   9.319
    1AU       S   80   4.350   0.082   8.220
    1AU     LIG   81   4.689   0.172   8.547
    1AU     LIG   82   4.917   0.544   8.708
    1AU    AUSL   83   3.874  44.684   6.829
    1AU    AUSL   84   3.697   0.088   6.897
    1AU     AUL   85   3.694  44.957   6.548
    1AU       S   86   4.085  44.673   6.380
    1AU     LIG   87   4.377  44.777   6.021
    1AU     LIG   88   4.401  44.524   5.613
    1AU       S   89   4.102   0.265   6.625
    1AU     LIG   90   4.362   0.616   6.343
    1AU     LIG   91   4.732   0.887   6.180
    1AU    AUSL   92   3.607  44.449   6.727
    1AU    AUSL   93   3.889  44.408   7.062
    1AU     AUL   94   4.004  44.345   6.755
    1AU       S   95   4.120  43.545   6.705
    1AU     LIG   96   4.547  43.518   6.515
    1AU     LIG   97   4.887  43.323   6.240
    1AU       S   98   3.791  44.414   6.295
    1AU     LIG   99   3.738  44.171   5.886
    1AU     LIG  100   3.950  44.219   5.464
    1AU    AUSL  101   3.541  44.788   6.823
    1AU    AUSL  102   3.250  44.448   6.727
    1AU     AUL  103   3.400  44.701   6.496
    1AU       S  104   2.979  44.450   6.281
    1AU     LIG  105   3.075  44.256   5.844
    1AU     LIG  106   2.742  44.209   5.502
    1AU       S  107   4.087  44.401   6.181
    1AU     LIG  108   3.928  44.638   5.809
    1AU     LIG  109   3.999  44.731   5.350
    1AU    AUSL  110   2.938  44.595   8.154
    1AU    AUSL  111   3.121   0.084   8.089
    1AU     AUL  112   3.067  44.890   8.421
    1AU       S  113   2.655  44.551   8.482
    1AU     LIG  114   2.324  44.710   8.807
    1AU     LIG  115   2.247  44.562   9.268
    1AU       S  116   2.751   0.301   8.317
    1AU     LIG  117   2.728   0.660   8.599
    1AU     LIG  118   2.703   0.721   9.044
    1AU    AUSL  119   3.234  44.429   8.263
    1AU    AUSL  120   2.827  44.308   7.966
    1AU     AUL  121   2.987  44.182   8.283
    1AU       S  122   2.488  44.108   8.201
    1AU     LIG  123   2.064  44.099   8.374
    1AU     LIG  124   1.964  43.681   8.555
    1AU       S  125   2.943  44.449   8.703
    1AU     LIG  126   2.980  44.224   9.128
    1AU     LIG  127   2.686  44.247   9.502
    1AU    AUSL  128   2.927  44.555   6.847
    1AU    AUSL  129   3.141  44.224   6.980
    1AU     AUL  130   3.043  44.159   6.683
    1AU       S  131   2.660  44.482   6.494
    1AU     LIG  132   2.333  44.617   6.148
    1AU     LIG  133   2.301  44.506   5.673
    1AU       S  134   2.601  43.783   6.620
    1AU     LIG  135   2.661  43.322   6.484
    1AU     LIG  136   2.452  43.020   6.193
    1AU    AUSL  137   3.205  44.789   6.835
    1AU    AUSL  138   2.826  44.877   6.993
    1AU     AUL  139   2.984  44.871   6.614
    1AU       S  140   2.522   0.073   6.701
    1AU     LIG  141   2.298   0.454   6.509
    1AU     LIG  142   2.285   0.869   6.269
    1AU       S  143   2.708  44.299   6.209
    1AU     LIG  144   2.759  44.641   5.859
    1AU     LIG  145   2.966  44.674   5.440
    1AU    AUSL  146   4.007   0.086   7.471
    1AU    AUSL  147   3.994  44.939   7.054
    1AU     AUL  148   4.123   0.302   7.196
    1AU       S  149   4.303   0.013   6.775
    1AU     LIG  150   4.791   0.079   6.692
    1AU     LIG  151   4.935   0.479   6.466
    1AU       S  152   4.830  44.970   7.592
    1AU     LIG  153   4.844   0.415   7.660
    1AU     LIG  154   5.203   0.551   7.521
    1AU    AUSL  155   4.174  44.806   7.322
    1AU    AUSL  156   4.204  44.478   7.629
    1AU     AUL  157   4.478  44.584   7.351
    1AU       S  158   4.572   0.077   7.404
    1AU     LIG  159   4.961   0.236   7.178
    1AU     LIG  160   5.410   0.141   7.300
    1AU       S  161   4.635  44.132   7.572
    1AU     LIG  162   4.913  43.911   7.892
    1AU     LIG  163   5.384  43.781   7.986
    1AU    AUSL  164   4.158  44.829   7.682
    1AU    AUSL  165   3.800   0.130   7.742
    1AU     AUL  166   4.131   0.220   7.767
    1AU       S  167   4.370   0.375   8.226
    1AU     LIG  168   4.711   0.609   8.244
    1AU     LIG  169   4.687   1.002   8.453
    1AU       S  170   4.566  44.938   7.760
    1AU     LIG  171   4.895   0.124   8.066
    1AU     LIG  172   5.336   0.144   7.875
    1AU    AUSL  173   2.758   0.073   7.513
    1AU    AUSL  174   2.818  44.884   7.970
    1AU     AUL  175   2.494   0.060   7.766
    1AU       S  176   2.558   0.025   8.288
    1AU     LIG  177   2.280   0.389   8.455
    1AU     LIG  178   2.240   0.720   8.778
    1AU       S  179   2.578   0.527   7.502
    1AU     LIG  180   2.148   0.678   7.303
    1AU     LIG  181   1.704   0.492   7.411
    1AU    AUSL  182   2.686  44.765   7.289
    1AU    AUSL  183   2.897   0.175   7.213
    1AU     AUL  184   2.535   0.061   7.220
    1AU       S  185   2.331  44.636   6.941
    1AU     LIG  186   1.884  44.750   7.033
    1AU     LIG  187   1.527   0.083   7.105
    1AU       S  188   2.619   0.503   6.965
    1AU     LIG  189   2.430   0.868   6.788
    1AU     LIG  190   1.988   0.878   6.689
    1AU    AUSL  191   2.666  44.747   7.692
    1AU    AUSL  192   2.626  44.438   7.342
    1AU     AUL  193   2.392  44.780   7.467
    1AU       S  194   2.153  44.338   7.348
    1AU     LIG  195   1.791  44.229   7.042
    1AU     LIG  196   1.339  44.071   7.025
    1AU       S  197   2.312  44.639   8.031
    1AU     LIG  198   1.887  44.882   7.985
    1AU     LIG  199   1.487   0.153   7.823
    1AU    AUSL  200   4.063  44.161   7.471
    1AU    AUSL  201   3.943  44.395   7.850
    1AU     AUL  202   4.232  44.212   7.846
    1AU       S  203   4.379  43.880   7.459
    1AU     LIG  204   4.740  43.589   7.450
    1AU     LIG  205   5.168  43.652   7.544
    1AU       S  206   4.397  43.771   8.247
    1AU     LIG  207   4.581  43.757   8.694
    1AU     LIG  208   4.717  43.629   9.153
    1AU    AUSL  209   4.150  44.453   7.284
    1AU    AUSL  210   3.881  44.046   7.186
    1AU     AUL  211   4.181  44.210   7.059
    1AU       S  212   4.578  44.071   7.322
    1AU     LIG  213   5.011  44.011   7.218
    1AU     LIG  214   5.389  44.185   7.395
    1AU       S  215   4.133  43.706   6.991
    1AU     LIG  216   4.485  43.386   7.020
    1AU     LIG  217   4.606  43.040   6.728
    1AU    AUSL  218   2.868  44.185   7.499
    1AU    AUSL  219   2.802  44.309   7.069
    1AU     AUL  220   2.591  44.069   7.323
    1AU       S  221   2.532  44.084   6.805
    1AU     LIG  222   2.128  43.885   6.743
    1AU     LIG  223   2.155  43.509   6.473
    1AU       S  224   1.941  44.381   7.498
    1AU     LIG  225   1.708  43.965   7.491
    1AU     LIG  226   1.553  43.534   7.367
    1AU    AUSL  227   2.654  44.407   7.687
    1AU    AUSL  228   2.964  44.018   7.798
    1AU     AUL  229   2.620  44.050   7.705
    1AU       S  230   2.668  43.752   8.112
    1AU     LIG  231   2.566  43.249   8.154
    1AU     LIG  232   2.204  42.913   8.251
    1AU       S  233   2.174  44.328   7.659
    1AU     LIG  234   1.782  44.230   7.939
    1AU     LIG  235   1.318  44.131   7.858
    1AU    AUSL  236   3.424   0.272   7.974
    1AU    AUSL  237   2.925   0.186   7.797
    1AU     AUL  238   3.117   0.450   7.988
    1AU       S  239   2.616   0.486   8.044
    1AU     LIG  240   2.415   0.866   8.257
    1AU     LIG  241   2.043   1.065   8.436
    1AU       S  242   3.477   0.781   8.117
    1AU     LIG  243   3.419   1.220   8.347
    1AU     LIG  244   3.365   1.689   8.382
    1AU    AUSL  245   3.220   0.315   7.663
    1AU    AUSL  246   3.533   0.408   7.319
    1AU     AUL  247   3.192   0.607   7.447
    1AU       S  248   3.291   0.987   7.915
    1AU     LIG  249   3.142   1.416   7.955
    1AU     LIG  250   2.875   1.620   8.239
    1AU       S  251   3.529   0.856   7.132
    1AU     LIG  252   3.662   1.328   7.140
    1AU     LIG  253   3.838   1.658   6.847
    1AU    AUSL  254   3.573   0.386   7.664
    1AU    AUSL  255   3.711   0.097   8.078
    1AU     AUL  256   3.805   0.417   7.946
    1AU       S  257   4.081   0.308   8.370
    1AU     LIG  258   4.372   0.562   8.689
    1AU     LIG  259   4.605   0.877   8.966
    1AU       S  260   3.548   0.829   7.767
    1AU     LIG  261   3.682   1.262   7.784
    1AU     LIG  262   3.793   1.519   8.123
    1AU    AUSL  263   3.465  44.045   7.958
    1AU    AUSL  264   3.902  44.035   7.767
    1AU     AUL  265   3.679  43.788   8.005
    1AU       S  266   3.074  43.263   7.979
    1AU     LIG  267   3.117  42.987   8.335
    1AU     LIG  268   3.077  42.698   8.688
    1AU       S  269   4.191  43.721   7.988
    1AU     LIG  270   4.257  43.284   8.159
    1AU     LIG  271   4.639  43.121   8.368
    1AU    AUSL  272   3.248  43.856   7.683
    1AU    AUSL  273   3.179  44.221   7.990
    1AU     AUL  274   3.191  43.853   8.070
    1AU       S  275   3.002  43.464   7.744
    1AU     LIG  276   2.718  43.050   7.700
    1AU     LIG  277   2.963  42.739   7.917
    1AU       S  278   2.472  43.807   8.339
    1AU     LIG  279   2.436  43.434   8.612
    1AU     LIG  280   2.440  42.976   8.715
    1AU    AUSL  281   3.600  43.913   7.663
    1AU    AUSL  282   3.242  43.850   7.327
    1AU     AUL  283   3.485  43.600   7.508
    1AU       S  284   2.998  43.446   7.249
    1AU     LIG  285   2.686  43.014   7.193
    1AU     LIG  286   2.668  42.824   6.754
    1AU       S  287   3.186  43.180   7.712
    1AU     LIG  288   3.469  42.899   7.934
    1AU     LIG  289   3.762  42.609   8.157
    1AU    AUSL  290   3.411   0.268   7.008
    1AU    AUSL  291   3.771   0.161   7.239
    1AU     AUL  292   3.779   0.423   7.023
    1AU       S  293   3.422   0.698   6.771
    1AU     LIG  294   3.355   1.041   6.432
    1AU     LIG  295   3.453   1.492   6.369
    1AU       S  296   4.344   0.130   6.485
    1AU     LIG  297   4.534   0.492   6.796
    1AU     LIG  298   4.723   0.910   6.701
    1AU    AUSL  299   3.217   0.249   7.326
    1AU    AUSL  300   3.104   0.109   6.927
    1AU     AUL  301   3.105   0.463   7.094
    1AU       S  302   3.321   0.973   6.928
    1AU     LIG  303   3.213   1.386   6.908
    1AU     LIG  304   3.332   1.771   6.763
    1AU       S  305   2.769   0.345   6.702
    1AU     LIG  306   2.756   0.682   6.409
    1AU     LIG  307   2.745   0.959   6.048
    1AU    AUSL  308   3.418  44.056   7.073
    1AU    AUSL  309   2.962  44.016   7.207
    1AU     AUL  310   3.188  43.847   6.935
    1AU       S  311   2.669  43.771   6.915
    1AU     LIG  312   2.421  43.376   6.923
    1AU     LIG  313   2.218  43.036   6.667
    1AU       S  314   2.965  43.324   6.944
    1AU     LIG  315   3.127  43.030   6.632
    1AU     LIG  316   3.467  42.764   6.422
    1AU    AUSL  317   3.603  43.910   7.328
    1AU    AUSL  318   3.695  44.149   6.895
    1AU     AUL  319   3.615  43.778   7.006
    1AU       S  320   3.153  43.175   7.162
    1AU     LIG  321   3.445  42.834   7.037
    1AU     LIG  322   3.699  42.520   6.808
    1AU       S  323   3.987  43.835   6.659
    1AU     LIG  324   4.163  43.752   6.232
    1AU     LIG  325   4.411  43.408   6.018
    2AU     AUC  326  30.763  28.722   7.508
    2AU     AUC  327  31.031  28.730   7.337
    2AU     AUC  328  31.039  28.727   7.665
    2AU     AUC  329  30.488  28.715   7.347
    2AU     AUC  330  30.496  28.716   7.678
    2AU     AUC  331  30.587  28.979   7.513
    2AU     AUC  332  30.917  28.986   7.506
    2AU     AUC  333  30.606  28.455   7.509
    2AU     AUC  334  30.940  28.462   7.499
    2AU     AUC  335  30.777  28.561   7.769
    2AU     AUC  336  30.766  28.884   7.779
    2AU     AUC  337  30.763  28.560   7.240
    2AU     AUC  338  30.752  28.885   7.241
    2AU     AUC  339  31.292  28.759   7.172
    2AU     AUC  340  31.329  28.736   7.494
    2AU     AUC  341  31.310  28.744   7.815
    2AU     AUC  342  30.226  28.696   7.180
    2AU     AUC  343  30.214  28.701   7.516
    2AU     AUC  344  30.241  28.696   7.850
    2AU     AUC  345  30.414  29.216   7.519
    2AU     AUC  346  30.753  29.254   7.511
    2AU     AUC  347  31.048  29.250   7.501
    2AU     AUC  348  30.468  28.174   7.514
    2AU     AUC  349  30.778  28.182   7.501
    2AU     AUC  350  31.117  28.214   7.488
    2AU     AUC  351  30.802  28.412   8.027
    2AU     AUC  352  30.787  28.716   8.053
    2AU     AUC  353  30.779  29.055   8.034
    2AU     AUC  354  30.776  28.416   6.972
    2AU     AUC  355  30.754  28.714   6.972
    2AU     AUC  356  30.745  29.060   6.993
    2AU     AUC  357  31.050  28.560   7.938
    2AU     AUC  358  31.052  28.895   7.955
    2AU     AUC  359  31.026  28.578   7.044
    2AU     AUC  360  31.035  28.910   7.069
    2AU     AUC  361  30.500  28.562   7.954
    2AU     AUC  362  30.486  28.885   7.955
    2AU     AUC  363  30.480  28.556   7.070
    2AU     AUC  364  30.462  28.881   7.076
    2AU     AUC  365  31.194  28.994   7.339
    2AU     AUC  366  31.205  28.985   7.670
    2AU     AUC  367  30.305  28.982   7.337
    2AU     AUC  368  30.311  28.980   7.691
    2AU     AUC  369  31.214  28.462   7.329
    2AU     AUC  370  31.231  28.458   7.639
    2AU     AUC  371  30.325  28.440   7.339
    2AU     AUC  372  30.337  28.437   7.693
    2AU     AUC  373  30.587  29.155   7.798
    2AU     AUC  374  30.913  29.162   7.786
    2AU     AUC  375  30.623  28.278   7.763
    2AU     AUC  376  30.971  28.301   7.771
    2AU     AUC  377  30.569  29.145   7.224
    2AU     AUC  378  30.896  29.170   7.225
    2AU     AUC  379  30.602  28.282   7.251
    2AU     AUC  380  30.952  28.301   7.223
    2AU    AUSL  381  31.235  28.696   8.136
    2AU    AUSL  382  31.123  28.264   8.076
    2AU     AUL  383  31.484  28.435   8.196
    2AU       S  384  31.406  27.928   8.305
    2AU     LIG  385  31.477  27.624   8.698
    2AU     LIG  386  31.762  27.237   8.744
    2AU       S  387  31.278  28.497   8.661
    2AU     LIG  388  31.475  28.640   9.058
    2AU     LIG  389  31.723  28.658   9.470
    2AU    AUSL  390  30.944  28.526   8.251
    2AU    AUSL  391  30.629  28.870   8.188
    2AU     AUL  392  30.768  28.744   8.529
    2AU       S  393  31.043  28.293   8.605
    2AU     LIG  394  31.005  28.377   9.080
    2AU     LIG  395  31.237  28.452   9.485
    2AU       S  396  30.036  28.433   8.790
    2AU     LIG  397  30.135  28.716   9.176
    2AU     LIG  398  30.041  28.808   9.636
    2AU    AUSL  399  30.964  28.919   8.261
    2AU    AUSL  400  31.357  29.009   7.986
    2AU     AUL  401  31.334  28.913   8.367
    2AU       S  402  30.959  29.227   8.614
    2AU     LIG  403  31.280  29.141   8.955
    2AU     LIG  404  31.314  28.987   9.404
    2AU       S  405  31.662  29.286   8.258
    2AU     LIG  406  32.072  29.398   8.464
    2AU     LIG  407  32.274  29.705   8.756
    2AU    AUSL  408  31.231  28.789   6.839
    2AU    AUSL  409  31.047  29.188   6.906
    2AU     AUL  410  31.050  29.056   6.554
    2AU       S  411  31.469  28.796   6.404
    2AU     LIG  412  31.750  28.875   5.992
    2AU     LIG  413  31.838  28.575   5.624
    2AU       S  414  31.467  29.356   6.640
    2AU     LIG  415  31.673  29.609   6.281
    2AU     LIG  416  31.953  29.949   6.100
    2AU    AUSL  417  30.960  28.550   6.735
    2AU    AUSL  418  31.250  28.512   7.071
    2AU     AUL  419  31.353  28.446   6.758
    2AU       S  420  31.471  27.631   6.730
    2AU     LIG  421  31.818  27.481   6.458
    2AU     LIG  422  32.109  27.312   6.125
    2AU       S  423  31.166  28.535   6.294
    2AU     LIG  424  31.218  28.191   5.937
    2AU     LIG  425  31.416  28.208   5.503
    2AU    AUSL  426  30.894  28.887   6.828
    2AU    AUSL  427  30.598  28.545   6.738
    2AU     AUL  428  30.751  28.792   6.502
    2AU       S  429  30.309  28.555   6.296
    2AU     LIG  430  30.353  28.323   5.864
    2AU     LIG  431  30.041  28.342   5.500
    2AU       S  432  31.469  28.533   6.207
    2AU     LIG  433  31.336  28.664   5.775
    2AU     LIG  434  31.449  28.735   5.321
    2AU    AUSL  435  30.302  28.691   8.168
    2AU    AUSL  436  30.486  29.183   8.104
    2AU     AUL  437  30.439  28.983   8.435
    2AU       S  438  30.030  28.644   8.510
    2AU     LIG  439  29.747  28.835   8.851
    2AU     LIG  440  29.641  28.685   9.300
    2AU       S  441  30.121  29.388   8.340
    2AU     LIG  442  30.045  29.736   8.618
    2AU     LIG  443  29.969  30.179   8.716
    2AU    AUSL  444  30.599  28.524   8.274
    2AU    AUSL  445  30.185  28.406   7.980
    2AU     AUL  446  30.343  28.279   8.292
    2AU       S  447  29.837  28.194   8.218
    2AU     LIG  448  29.403  28.120   8.448
    2AU     LIG  449  29.183  27.700   8.498
    2AU       S  450  30.321  28.539   8.720
    2AU     LIG  451  30.431  28.309   9.125
    2AU     LIG  452  30.204  28.305   9.549
    2AU    AUSL  453  30.275  28.657   6.863
    2AU    AUSL  454  30.494  28.319   6.991
    2AU     AUL  455  30.372  28.264   6.699
    2AU       S  456  29.992  28.600   6.520
    2AU     LIG  457  29.682  28.783   6.164
    2AU     LIG  458  29.606  28.704   5.675
    2AU       S  459  29.943  27.867   6.669
    2AU     LIG  460  29.877  27.462   6.449
    2AU     LIG  461  29.666  27.403   6.046
    2AU    AUSL  462  30.558  28.886   6.851
    2AU    AUSL  463  30.179  28.978   7.008
    2AU     AUL  464  30.343  28.971   6.629
    2AU       S  465  29.874  29.151   6.719
    2AU     LIG  466  29.605  29.510   6.587
    2AU     LIG  467  29.494  29.858   6.300
    2AU       S  468  30.022  28.429   6.233
    2AU     LIG  469  30.087  28.749   5.857
    2AU     LIG  470  30.032  28.848   5.391
    2AU    AUSL  471  31.362  29.187   7.479
    2AU    AUSL  472  31.347  29.048   7.066
    2AU     AUL  473  31.455  29.423   7.216
    2AU       S  474  31.654  29.144   6.799
    2AU     LIG  475  31.906  29.145   6.401
    2AU     LIG  476  32.169  29.473   6.195
    2AU       S  477  32.195  29.152   7.509
    2AU     LIG  478  32.249  29.622   7.519
    2AU     LIG  479  32.551  29.977   7.451
    2AU    AUSL  480  31.531  28.909   7.328
    2AU    AUSL  481  31.560  28.577   7.642
    2AU     AUL  482  31.837  28.692   7.387
    2AU       S  483  31.912  29.194   7.375
    2AU     LIG  484  32.181  29.389   7.056
    2AU     LIG  485  32.603  29.503   7.148
    2AU       S  486  31.988  28.227   7.570
    2AU     LIG  487  32.295  27.922   7.759
    2AU     LIG  488  32.726  27.923   7.945
    2AU    AUSL  489  31.522  28.931   7.690
    2AU    AUSL  490  31.155  29.218   7.750
    2AU     AUL  491  31.494  29.318   7.775
    2AU       S  492  31.644  29.610   8.285
    2AU     LIG  493  32.019  29.894   8.332
    2AU     LIG  494  32.192  30.277   8.537
    2AU       S  495  31.948  29.079   7.737
    2AU     LIG  496  32.299  29.344   7.954
    2AU     LIG  497  32.668  29.369   7.658
    2AU    AUSL  498  30.118  29.174   7.530
    2AU    AUSL  499  30.182  28.981   7.988
    2AU     AUL  500  29.854  29.155   7.789
    2AU       S  501  29.927  29.112   8.311
    2AU     LIG  502  29.628  29.463   8.449
    2AU     LIG  503  29.541  29.880   8.642
    2AU       S  504  29.945  29.620   7.531
    2AU     LIG  505  29.509  29.750   7.388
    2AU     LIG  506  29.019  29.707   7.421
    2AU    AUSL  507  30.042  28.868   7.306
    2AU    AUSL  508  30.252  29.276   7.225
    2AU     AUL  509  29.891  29.164   7.239
    2AU       S  510  29.663  28.742   6.980
    2AU     LIG  511  29.193  28.835   7.119
    2AU     LIG  512  28.880  29.223   7.188
    2AU       S  513  29.959  29.597   6.972
    2AU     LIG  514  29.742  29.975   6.781
    2AU     LIG  515  29.404  30.263   6.621
    2AU    AUSL  516  30.029  28.846   7.709
    2AU    AUSL  517  29.985  28.541   7.358
    2AU     AUL  518  29.755  28.890   7.491
    2AU       S  519  29.524  28.445   7.403
    2AU     LIG  520  29.341  28.326   7.038
    2AU     LIG  521  28.921  28.350   7.111
    2AU       S  522  29.680  28.728   8.052
    2AU     LIG  523  29.203  28.761   7.957
    2AU     LIG  524  28.817  29.040   8.020
    2AU    AUSL  525  31.425  28.265   7.479
    2AU    AUSL  526  31.306  28.488   7.868
    2AU     AUL  527  31.596  28.308   7.863
    2AU       S  528  31.742  27.993   7.462
    2AU     LIG  529  31.995  27.624   7.453
    2AU     LIG  530  32.341  27.387   7.239
    2AU       S  531  31.456  27.613   8.201
    2AU     LIG  532  31.878  27.646   8.383
    2AU     LIG  533  32.226  27.478   8.649
    2AU    AUSL  534  31.515  28.557   7.291
    2AU    AUSL  535  31.244  28.149   7.193
    2AU     AUL  536  31.540  28.313   7.063
    2AU       S  537  31.947  28.180   7.317
    2AU     LIG  538  32.347  27.943   7.249
    2AU     LIG  539  32.800  28.047   7.212
    2AU       S  540  31.506  27.800   7.009
    2AU     LIG  541  31.886  27.465   6.976
    2AU     LIG  542  32.220  27.236   6.700
    2AU    AUSL  543  30.228  28.286   7.512
    2AU    AUSL  544  30.156  28.405   7.082
    2AU     AUL  545  29.951  28.171   7.339
    2AU       S  546  29.866  28.165   6.828
    2AU     LIG  547  29.458  27.946   6.703
    2AU     LIG  548  29.368  27.556   6.473
    2AU       S  549  29.271  28.487   7.522
    2AU     LIG  550  29.207  28.028   7.454
    2AU     LIG  551  29.077  27.567   7.334
    2AU    AUSL  552  30.015  28.508   7.701
    2AU    AUSL  553  30.323  28.114   7.808
    2AU     AUL  554  29.978  28.152   7.719
    2AU       S  555  30.029  27.857   8.123
    2AU     LIG  556  29.903  27.390   8.122
    2AU     LIG  557  29.593  27.076   8.357
    2AU       S  558  29.535  28.434   7.673
    2AU     LIG  559  29.235  28.217   7.959
    2AU     LIG  560  28.875  27.917   8.041
    2AU    AUSL  561  30.786  29.371   7.984
    2AU    AUSL  562  30.287  29.284   7.815
    2AU     AUL  563  30.477  29.557   7.999
    2AU       S  564  29.978  29.571   8.075
    2AU     LIG  565  29.845  30.012   8.224
    2AU     LIG  566  29.576  30.350   8.407
    2AU       S  567  30.867  29.845   8.147
    2AU     LIG  568  30.707  30.166   8.458
    2AU     LIG  569  30.595  30.608   8.412
    2AU    AUSL  570  30.578  29.416   7.675
    2AU    AUSL  571  30.891  29.510   7.333
    2AU     AUL  572  30.552  29.714   7.461
    2AU       S  573  30.749  30.112   7.959
    2AU     LIG  574  30.686  30.570   7.894
    2AU     LIG  575  30.755  30.993   8.076
    2AU       S  576  30.943  29.964   7.226
    2AU     LIG  577  31.030  30.445   7.349
    2AU     LIG  578  31.081  30.766   7.007
    2AU    AUSL  579  30.932  29.482   7.674
    2AU    AUSL  580  31.067  29.198   8.090
    2AU     AUL  581  31.178  29.505   7.930
    2AU       S  582  31.368  29.433   8.399
    2AU     LIG  583  31.590  29.596   8.778
    2AU     LIG  584  31.846  29.988   8.823
    2AU       S  585  30.933  29.931   7.782
    2AU     LIG  586  31.179  30.354   7.829
    2AU     LIG  587  31.200  30.791   7.964
    2AU    AUSL  588  30.816  28.143   7.966
    2AU    AUSL  589  31.262  28.132   7.768
    2AU     AUL  590  31.016  27.879   7.981
    2AU       S  591  30.481  27.352   8.075
    2AU     LIG  592  30.779  27.066   8.334
    2AU     LIG  593  31.109  26.726   8.393
    2AU       S  594  31.528  27.801   7.949
    2AU     LIG  595  31.812  27.415   7.927
    2AU     LIG  596  31.978  27.146   8.277
    2AU    AUSL  597  30.611  27.953   7.696
    2AU    AUSL  598  30.534  28.323   7.999
    2AU     AUL  599  30.545  27.959   8.087
    2AU       S  600  30.447  27.529   7.790
    2AU     LIG  601  30.235  27.126   7.707
    2AU     LIG  602  30.362  26.834   8.049
    2AU       S  603  29.763  27.865   8.241
    2AU     LIG  604  29.686  27.535   8.584
    2AU     LIG  605  29.499  27.155   8.860
    2AU    AUSL  606  30.953  28.040   7.660
    2AU    AUSL  607  30.607  27.949   7.339
    2AU     AUL  608  30.872  27.714   7.529
    2AU       S  609  30.418  27.535   7.285
    2AU     LIG  610  30.142  27.154   7.163
    2AU     LIG  611  30.384  26.749   7.048
    2AU       S  612  30.687  27.247   7.866
    2AU     LIG  613  30.897  26.795   7.917
    2AU     LIG  614  31.020  26.339   8.057
    2AU    AUSL  615  30.762  29.374   7.022
    2AU    AUSL  616  31.121  29.260   7.248
    2AU     AUL  617  31.123  29.521   7.019
    2AU       S  618  30.790  29.875   6.862
    2AU     LIG  619  30.635  30.273   6.595
    2AU     LIG  620  30.733  30.749   6.599
    2AU       S  621  31.778  29.469   6.752
    2AU     LIG  622  32.087  29.820   6.591
    2AU     LIG  623  32.266  30.266   6.421
    2AU    AUSL  624  30.569  29.360   7.337
    2AU    AUSL  625  30.458  29.209   6.938
    2AU     AUL  626  30.454  29.568   7.091
    2AU       S  627  30.941  30.150   6.964
    2AU     LIG  628  30.618  30.514   7.057
    2AU     LIG  629  30.350  30.881   6.925
    2AU       S  630  30.110  29.438   6.705
    2AU     LIG  631  30.014  29.783   6.394
    2AU     LIG  632  29.849  30.231   6.314
    2AU    AUSL  633  30.773  28.148   7.071
    2AU    AUSL  634  30.319  28.111   7.223
    2AU     AUL  635  30.529  27.939   6.948
    2AU       S  636  30.010  27.844   6.955
    2AU     LIG  637  29.728  27.431   6.935
    2AU     LIG  638  29.496  27.093   6.664
    2AU       S  639  30.597  27.330   7.081
    2AU     LIG  640  30.643  27.028   6.718
    2AU     LIG  641  30.580  26.594   6.512
    2AU    AUSL  642  30.964  28.013   7.327
    2AU    AUSL  643  31.054  28.252   6.905
    2AU     AUL  644  30.984  27.879   7.008
    2AU       S  645  30.590  27.236   7.361
    2AU     LIG  646  30.862  26.899   7.211
    2AU     LIG  647  30.953  26.637   6.864
    2AU       S  648  31.364  27.931   6.671
    2AU     LIG  649  31.452  27.783   6.225
    2AU     LIG  650  31.610  27.412   5.969
    3AU     AUC  651  13.943   5.000   7.504
    3AU     AUC  652  14.212   5.009   7.337
    3AU     AUC  653  14.216   5.006   7.664
    3AU     AUC  654  13.670   4.992   7.341
    3AU     AUC  655  13.673   4.992   7.670
    3AU     AUC  656  13.767   5.257   7.508
    3AU     AUC  657  14.097   5.265   7.505
    3AU     AUC  658  13.786   4.731   7.504
    3AU     AUC  659  14.119   4.739   7.498
    3AU     AUC  660  13.952   4.837   7.765
    3AU     AUC  661  13.941   5.161   7.775
    3AU     AUC  662  13.947   4.839   7.238
    3AU     AUC  663  13.935   5.163   7.238
    3AU     AUC  664  14.474   5.038   7.175
    3AU     AUC  665  14.508   5.019   7.498
    3AU     AUC  666  14.483   5.023   7.817
    3AU     AUC  667  13.409   4.973   7.169
    3AU     AUC  668  13.392   4.976   7.504
    3AU     AUC  669  13.415   4.971   7.838
    3AU     AUC  670  13.595   5.494   7.512
    3AU     AUC  671  13.935   5.533   7.509
    3AU     AUC  672  14.229   5.530   7.504
    3AU     AUC  673  13.647   4.451   7.505
    3AU     AUC  674  13.958   4.457   7.498
    3AU     AUC  675  14.297   4.490   7.488
    3AU     AUC  676  13.975   4.688   8.024
    3AU     AUC  677  13.955   4.991   8.049
    3AU     AUC  678  13.949   5.330   8.032
    3AU     AUC  679  13.962   4.695   6.970
    3AU     AUC  680  13.940   4.991   6.969
    3AU     AUC  681  13.932   5.338   6.990
    3AU     AUC  682  14.221   4.837   7.935
    3AU     AUC  683  14.222   5.170   7.955
    3AU     AUC  684  14.210   4.855   7.045
    3AU     AUC  685  14.220   5.186   7.068
    3AU     AUC  686  13.673   4.836   7.947
    3AU     AUC  687  13.658   5.161   7.946
    3AU     AUC  688  13.666   4.834   7.062
    3AU     AUC  689  13.647   5.159   7.070
    3AU     AUC  690  14.378   5.275   7.343
    3AU     AUC  691  14.382   5.267   7.674
    3AU     AUC  692  13.488   5.258   7.329
    3AU     AUC  693  13.489   5.256   7.681
    3AU     AUC  694  14.396   4.741   7.330
    3AU     AUC  695  14.410   4.738   7.636
    3AU     AUC  696  13.507   4.718   7.327
    3AU     AUC  697  13.515   4.713   7.682
    3AU     AUC  698  13.763   5.432   7.793
    3AU     AUC  699  14.088   5.440   7.786
    3AU     AUC  700  13.800   4.553   7.759
    3AU     AUC  701  14.147   4.576   7.770
    3AU     AUC  702  13.754   5.424   7.219
    3AU     AUC  703  14.082   5.447   7.224
    3AU     AUC  704  13.786   4.560   7.247
    3AU     AUC  705  14.136   4.578   7.224
    3AU    AUSL  706  14.400   4.965   8.134
    3AU    AUSL  707  14.303   4.550   8.074
    3AU     AUL  708  14.678   4.746   8.173
    3AU       S  709  14.578   4.255   8.323
    3AU     LIG  710  14.738   4.058   8.726
    3AU     LIG  711  14.973   3.648   8.739
    3AU       S  712  14.473   4.719   8.634
    3AU     LIG  713  14.719   4.935   8.973
    3AU     LIG  714  14.939   4.935   9.396
    3AU    AUSL  715  14.110   4.801   8.252
    3AU    AUSL  716  13.793   5.144   8.183
    3AU     AUL  717  13.936   5.020   8.528
    3AU       S  718  14.212   4.570   8.608
    3AU     LIG  719  14.298   4.647   9.099
    3AU     LIG  720  14.542   4.616   9.506
    3AU       S  721  13.189   4.734   8.771
    3AU     LIG  722  13.317   5.091   9.086
    3AU     LIG  723  13.239   5.180   9.532
    3AU    AUSL  724  14.125   5.193   8.258
    3AU    AUSL  725  14.525   5.277   7.999
    3AU     AUL  726  14.471   5.167   8.384
    3AU       S  727  14.120   5.514   8.609
    3AU     LIG  728  14.462   5.435   8.932
    3AU     LIG  729  14.485   5.196   9.346
    3AU       S  730  14.854   5.482   8.265
    3AU     LIG  731  15.300   5.479   8.389
    3AU     LIG  732  15.526   5.752   8.680
    3AU    AUSL  733  14.411   5.061   6.835
    3AU    AUSL  734  14.235   5.463   6.905
    3AU     AUL  735  14.241   5.331   6.553
    3AU       S  736  14.575   4.998   6.343
    3AU     LIG  737  14.923   5.046   6.016
    3AU     LIG  738  14.966   4.805   5.595
    3AU       S  739  14.647   5.631   6.635
    3AU     LIG  740  14.789   5.954   6.314
    3AU     LIG  741  15.180   6.060   6.081
    3AU    AUSL  742  14.149   4.826   6.736
    3AU    AUSL  743  14.436   4.788   7.075
    3AU     AUL  744  14.565   4.743   6.774
    3AU       S  745  14.588   3.980   6.598
    3AU     LIG  746  14.977   4.151   6.406
    3AU     LIG  747  15.289   4.059   6.062
    3AU       S  748  14.304   4.718   6.320
    3AU     LIG  749  14.233   4.499   5.883
    3AU     LIG  750  14.507   4.484   5.487
    3AU    AUSL  751  14.079   5.166   6.827
    3AU    AUSL  752  13.789   4.824   6.732
    3AU     AUL  753  13.950   5.073   6.498
    3AU       S  754  13.522   4.831   6.295
    3AU     LIG  755  13.650   4.665   5.869
    3AU     LIG  756  13.392   4.748   5.489
    3AU       S  757  14.595   4.699   6.184
    3AU     LIG  758  14.489   4.925   5.777
    3AU     LIG  759  14.555   4.967   5.298
    3AU    AUSL  760  13.470   4.967   8.156
    3AU    AUSL  761  13.656   5.460   8.098
    3AU     AUL  762  13.605   5.260   8.428
    3AU       S  763  13.192   4.925   8.488
    3AU     LIG  764  12.891   5.126   8.804
    3AU     LIG  765  12.865   4.919   9.241
    3AU       S  766  13.281   5.664   8.329
    3AU     LIG  767  13.206   5.882   8.726
    3AU     LIG  768  12.983   6.247   8.901
    3AU    AUSL  769  13.764   4.798   8.268
    3AU    AUSL  770  13.358   4.683   7.964
    3AU     AUL  771  13.503   4.553   8.278
    3AU       S  772  12.991   4.476   8.185
    3AU     LIG  773  12.569   4.369   8.461
    3AU     LIG  774  12.422   3.971   8.691
    3AU       S  775  13.483   4.811   8.704
    3AU     LIG  776  13.526   4.631   9.146
    3AU     LIG  777  13.275   4.654   9.542
    3AU    AUSL  778  13.464   4.936   6.852
    3AU    AUSL  779  13.685   4.598   6.984
    3AU     AUL  780  13.561   4.539   6.696
    3AU       S  781  13.197   4.879   6.501
    3AU     LIG  782  12.935   5.114   6.152
    3AU     LIG  783  12.932   5.021   5.664
    3AU       S  784  13.093   4.137   6.648
    3AU     LIG  785  12.923   3.733   6.456
    3AU     LIG  786  12.628   3.396   6.272
    3AU    AUSL  787  13.744   5.163   6.848
    3AU    AUSL  788  13.366   5.254   6.999
    3AU     AUL  789  13.539   5.254   6.621
    3AU       S  790  13.064   5.420   6.707
    3AU     LIG  791  12.704   5.638   6.551
    3AU     LIG  792  12.501   5.914   6.247
    3AU       S  793  13.248   4.730   6.192
    3AU     LIG  794  13.380   5.099   5.893
    3AU     LIG  795  13.387   5.274   5.457
    3AU    AUSL  796  14.545   5.484   7.494
    3AU    AUSL  797  14.534   5.312   7.059
    3AU     AUL  798  14.672   5.666   7.196
    3AU       S  799  14.850   5.378   6.770
    3AU     LIG  800  15.328   5.347   6.598
    3AU     LIG  801  15.517   5.677   6.314
    3AU       S  802  15.215   5.658   7.723
    3AU     LIG  803  15.500   5.940   7.490
    3AU     LIG  804  15.908   5.910   7.305
    3AU    AUSL  805  14.704   5.205   7.342
    3AU    AUSL  806  14.743   4.867   7.646
    3AU     AUL  807  15.008   5.018   7.373
    3AU       S  808  15.113   5.504   7.458
    3AU     LIG  809  15.398   5.570   7.061
    3AU     LIG  810  15.873   5.488   6.997
    3AU       S  811  15.191   4.596   7.614
    3AU     LIG  812  15.601   4.483   7.822
    3AU     LIG  813  16.059   4.332   7.849
    3AU    AUSL  814  14.696   5.216   7.702
    3AU    AUSL  815  14.329   5.497   7.758
    3AU     AUL  816  14.662   5.597   7.807
    3AU       S  817  14.839   5.571   8.574
    3AU     LIG  818  15.080   5.940   8.409
    3AU     LIG  819  15.420   6.257   8.513
    3AU       S  820  15.129   5.342   7.797
    3AU     LIG  821  15.598   5.475   7.976
    3AU     LIG  822  15.962   5.712   7.788
    3AU    AUSL  823  13.300   5.450   7.519
    3AU    AUSL  824  13.354   5.258   7.973
    3AU     AUL  825  13.028   5.429   7.766
    3AU       S  826  13.098   5.384   8.290
    3AU     LIG  827  12.806   5.597   8.565
    3AU     LIG  828  12.580   5.944   8.773
    3AU       S  829  13.132   5.893   7.514
    3AU     LIG  830  12.694   5.937   7.346
    3AU     LIG  831  12.303   6.045   7.561
    3AU    AUSL  832  13.224   5.142   7.295
    3AU    AUSL  833  13.437   5.552   7.216
    3AU     AUL  834  13.076   5.436   7.230
    3AU       S  835  12.846   5.025   6.960
    3AU     LIG  836  12.451   5.322   7.031
    3AU     LIG  837  12.250   5.749   7.086
    3AU       S  838  13.138   5.866   6.959
    3AU     LIG  839  12.846   6.126   6.673
    3AU     LIG  840  12.642   6.417   6.347
    3AU    AUSL  841  13.206   5.121   7.695
    3AU    AUSL  842  13.164   4.814   7.340
    3AU     AUL  843  12.930   5.152   7.474
    3AU       S  844  12.690   4.707   7.378
    3AU     LIG  845  12.365   4.596   7.043
    3AU     LIG  846  11.892   4.518   6.923
    3AU       S  847  12.853   5.007   8.036
    3AU     LIG  848  12.431   5.203   7.898
    3AU     LIG  849  12.251   5.658   7.929
    3AU    AUSL  850  14.607   4.546   7.478
    3AU    AUSL  851  14.477   4.770   7.857
    3AU     AUL  852  14.760   4.582   7.857
    3AU       S  853  14.959   4.308   7.469
    3AU     LIG  854  15.265   4.086   7.691
    3AU     LIG  855  15.692   4.036   7.600
    3AU       S  856  14.672   3.935   8.250
    3AU     LIG  857  15.117   3.975   8.363
    3AU     LIG  858  15.478   3.736   8.564
    3AU    AUSL  859  14.697   4.847   7.297
    3AU    AUSL  860  14.427   4.429   7.187
    3AU     AUL  861  14.734   4.590   7.078
    3AU       S  862  15.148   4.521   7.356
    3AU     LIG  863  15.597   4.542   7.305
    3AU     LIG  864  15.980   4.319   7.276
    3AU       S  865  14.658   4.129   6.873
    3AU     LIG  866  15.022   3.844   6.821
    3AU     LIG  867  15.139   3.656   6.409
    3AU    AUSL  868  13.409   4.564   7.496
    3AU    AUSL  869  13.342   4.683   7.067
    3AU     AUL  870  13.130   4.447   7.317
    3AU       S  871  13.055   4.441   6.804
    3AU     LIG  872  12.613   4.267   6.715
    3AU     LIG  873  12.436   3.851   6.586
    3AU       S  874  12.486   4.753   7.556
    3AU     LIG  875  12.399   4.281   7.462
    3AU     LIG  876  12.109   4.097   7.143
    3AU    AUSL  877  13.191   4.781   7.684
    3AU    AUSL  878  13.497   4.394   7.797
    3AU     AUL  879  13.165   4.423   7.692
    3AU       S  880  13.184   4.145   8.110
    3AU     LIG  881  13.047   3.691   8.129
    3AU     LIG  882  12.614   3.584   8.317
    3AU       S  883  12.723   4.691   7.678
    3AU     LIG  884  12.421   4.439   7.954
    3AU     LIG  885  11.997   4.292   7.819
    3AU    AUSL  886  13.958   5.648   7.985
    3AU    AUSL  887  13.464   5.562   7.806
    3AU     AUL  888  13.651   5.837   7.995
    3AU       S  889  13.148   5.837   8.060
    3AU     LIG  890  12.891   6.086   8.375
    3AU     LIG  891  12.618   6.433   8.567
    3AU       S  892  14.034   6.131   8.169
    3AU     LIG  893  14.065   6.557   8.479
    3AU     LIG  894  14.157   7.044   8.506
    3AU    AUSL  895  13.757   5.695   7.671
    3AU    AUSL  896  14.080   5.783   7.331
    3AU     AUL  897  13.749   5.996   7.459
    3AU       S  898  14.230   6.353   8.051
    3AU     LIG  899  13.841   6.634   8.036
    3AU     LIG  900  13.702   6.999   8.284
    3AU       S  901  14.115   6.230   7.169
    3AU     LIG  902  14.301   6.675   7.171
    3AU     LIG  903  14.281   6.814   6.706
    3AU    AUSL  904  14.111   5.763   7.677
    3AU    AUSL  905  14.238   5.470   8.094
    3AU     AUL  906  14.345   5.783   7.953
    3AU       S  907  14.563   5.678   8.408
    3AU     LIG  908  14.671   6.012   8.726
    3AU     LIG  909  15.101   6.093   8.904
    3AU       S  910  14.112   6.214   7.793
    3AU     LIG  911  14.203   6.699   7.695
    3AU     LIG  912  14.112   7.110   7.963
    3AU    AUSL  913  13.994   4.417   7.970
    3AU    AUSL  914  14.437   4.409   7.765
    3AU     AUL  915  14.206   4.157   7.987
    3AU       S  916  13.658   3.637   8.004
    3AU     LIG  917  13.503   3.341   8.371
    3AU     LIG  918  13.682   2.892   8.498
    3AU       S  919  14.719   4.089   7.986
    3AU     LIG  920  15.012   3.698   7.943
    3AU     LIG  921  15.312   3.429   8.183
    3AU    AUSL  922  13.780   4.230   7.687
    3AU    AUSL  923  13.709   4.594   7.994
    3AU     AUL  924  13.714   4.225   8.072
    3AU       S  925  13.523   3.820   7.759
    3AU     LIG  926  13.315   3.318   7.869
    3AU     LIG  927  13.719   3.093   8.001
    3AU       S  928  12.867   4.178   8.115
    3AU     LIG  929  12.913   3.974   8.534
    3AU     LIG  930  12.782   3.606   8.810
    3AU    AUSL  931  14.127   4.309   7.664
    3AU    AUSL  932  13.788   4.226   7.331
    3AU     AUL  933  14.030   3.982   7.531
    3AU       S  934  13.578   3.823   7.256
    3AU     LIG  935  13.265   3.464   7.358
    3AU     LIG  936  13.260   3.070   7.072
    3AU       S  937  13.697   3.559   7.699
    3AU     LIG  938  14.085   3.351   7.783
    3AU     LIG  939  14.226   2.934   7.958
    3AU    AUSL  940  13.952   5.649   7.018
    3AU    AUSL  941  14.312   5.529   7.249
    3AU     AUL  942  14.328   5.786   7.034
    3AU       S  943  13.988   6.095   6.803
    3AU     LIG  944  13.921   6.463   6.469
    3AU     LIG  945  13.766   6.906   6.470
    3AU       S  946  14.861   5.464   6.455
    3AU     LIG  947  15.141   5.818   6.652
    3AU     LIG  948  15.405   6.196   6.539
    3AU    AUSL  949  13.753   5.642   7.331
    3AU    AUSL  950  13.645   5.488   6.932
    3AU     AUL  951  13.637   5.848   7.084
    3AU       S  952  14.199   6.317   6.856
    3AU     LIG  953  13.841   6.625   6.944
    3AU     LIG  954  13.538   6.987   6.937
    3AU       S  955  13.286   5.710   6.702
    3AU     LIG  956  13.109   5.879   6.308
    3AU     LIG  957  12.897   6.139   5.981
    3AU    AUSL  958  13.961   4.428   7.079
    3AU    AUSL  959  13.505   4.389   7.208
    3AU     AUL  960  13.729   4.222   6.936
    3AU       S  961  13.213   4.126   6.930
    3AU     LIG  962  12.983   3.704   6.966
    3AU     LIG  963  12.641   3.409   6.785
    3AU       S  964  13.543   3.622   6.978
    3AU     LIG  965  13.671   3.186   6.785
    3AU     LIG  966  13.884   2.965   6.415
    3AU    AUSL  967  14.154   4.285   7.332
    3AU    AUSL  968  14.234   4.532   6.902
    3AU     AUL  969  14.167   4.154   7.015
    3AU       S  970  13.737   3.525   7.188
    3AU     LIG  971  14.114   3.305   7.012
    3AU     LIG  972  14.399   2.923   6.946
    3AU       S  973  14.448   4.273   6.590
    3AU     LIG  974  14.553   4.182   6.132
    3AU     LIG  975  14.824   3.840   5.978
    4AU     AUC  976  15.397  17.168   7.513
    4AU     AUC  977  15.669  17.175   7.349
    4AU     AUC  978  15.669  17.173   7.676
    4AU     AUC  979  15.125  17.164   7.347
    4AU     AUC  980  15.125  17.162   7.677
    4AU     AUC  981  15.221  17.426   7.515
    4AU     AUC  982  15.552  17.432   7.515
    4AU     AUC  983  15.238  16.901   7.511
    4AU     AUC  984  15.572  16.906   7.510
    4AU     AUC  985  15.403  17.005   7.775
    4AU     AUC  986  15.393  17.330   7.784
    4AU     AUC  987  15.403  17.007   7.247
    4AU     AUC  988  15.393  17.332   7.247
    4AU     AUC  989  15.935  17.203   7.190
    4AU     AUC  990  15.965  17.183   7.512
    4AU     AUC  991  15.935  17.191   7.832
    4AU     AUC  992  14.866  17.147   7.174
    4AU     AUC  993  14.844  17.149   7.510
    4AU     AUC  994  14.863  17.144   7.843
    4AU     AUC  995  15.049  17.664   7.517
    4AU     AUC  996  15.389  17.701   7.518
    4AU     AUC  997  15.683  17.696   7.513
    4AU     AUC  998  15.097  16.623   7.510
    4AU     AUC  999  15.408  16.624   7.510
    4AU     AUC 1000  15.746  16.654   7.505
    4AU     AUC 1001  15.424  16.855   8.033
    4AU     AUC 1002  15.408  17.162   8.058
    4AU     AUC 1003  15.401  17.501   8.040
    4AU     AUC 1004  15.422  16.863   6.980
    4AU     AUC 1005  15.401  17.161   6.978
    4AU     AUC 1006  15.393  17.508   6.998
    4AU     AUC 1007  15.671  17.005   7.950
    4AU     AUC 1008  15.675  17.341   7.966
    4AU     AUC 1009  15.671  17.022   7.058
    4AU     AUC 1010  15.680  17.354   7.080
    4AU     AUC 1011  15.123  17.006   7.954
    4AU     AUC 1012  15.109  17.331   7.953
    4AU     AUC 1013  15.124  17.007   7.069
    4AU     AUC 1014  15.107  17.331   7.074
    4AU     AUC 1015  15.834  17.438   7.353
    4AU     AUC 1016  15.836  17.431   7.684
    4AU     AUC 1017  14.944  17.430   7.332
    4AU     AUC 1018  14.941  17.427   7.685
    4AU     AUC 1019  15.852  16.906   7.348
    4AU     AUC 1020  15.859  16.903   7.656
    4AU     AUC 1021  14.960  16.891   7.334
    4AU     AUC 1022  14.964  16.885   7.689
    4AU     AUC 1023  15.214  17.601   7.800
    4AU     AUC 1024  15.540  17.609   7.794
    4AU     AUC 1025  15.248  16.723   7.765
    4AU     AUC 1026  15.596  16.739   7.780
    4AU     AUC 1027  15.211  17.593   7.226
    4AU     AUC 1028  15.538  17.616   7.234
    4AU     AUC 1029  15.240  16.730   7.253
    4AU     AUC 1030  15.589  16.746   7.235
    4AU    AUSL 1031  15.851  17.145   8.151
    4AU    AUSL 1032  15.744  16.709   8.091
    4AU     AUL 1033  16.096  16.887   8.223
    4AU       S 1034  16.078  16.369   8.287
    4AU     LIG 1035  16.265  16.142   8.669
    4AU     LIG 1036  16.539  15.755   8.657
    4AU       S 1037  15.885  16.960   8.685
    4AU     LIG 1038  16.072  17.113   9.088
    4AU     LIG 1039  16.256  17.092   9.525
    4AU    AUSL 1040  15.561  16.971   8.262
    4AU    AUSL 1041  15.246  17.316   8.188
    4AU     AUL 1042  15.380  17.192   8.534
    4AU       S 1043  15.663  16.747   8.624
    4AU     LIG 1044  15.779  16.675   9.100
    4AU     LIG 1045  16.018  16.626   9.516
    4AU       S 1046  14.635  16.917   8.797
    4AU     LIG 1047  14.767  17.194   9.172
    4AU     LIG 1048  14.698  17.312   9.627
    4AU    AUSL 1049  15.579  17.366   8.270
    4AU    AUSL 1050  15.981  17.455   8.002
    4AU     AUL 1051  15.948  17.362   8.379
    4AU       S 1052  15.577  17.677   8.619
    4AU     LIG 1053  15.934  17.635   8.931
    4AU     LIG 1054  16.010  17.538   9.386
    4AU       S 1055  16.303  17.710   8.269
    4AU     LIG 1056  16.705  17.840   8.494
    4AU     LIG 1057  17.020  18.154   8.624
    4AU    AUSL 1058  15.878  17.225   6.853
    4AU    AUSL 1059  15.695  17.636   6.918
    4AU     AUL 1060  15.724  17.498   6.571
    4AU       S 1061  16.042  17.156   6.356
    4AU     LIG 1062  16.384  17.218   6.025
    4AU     LIG 1063  16.402  17.011   5.593
    4AU       S 1064  16.109  17.831   6.665
    4AU     LIG 1065  16.222  18.161   6.349
    4AU     LIG 1066  16.443  18.401   5.999
    4AU    AUSL 1067  15.611  16.990   6.750
    4AU    AUSL 1068  15.895  16.954   7.094
    4AU     AUL 1069  16.018  16.901   6.786
    4AU       S 1070  16.124  16.101   6.724
    4AU     LIG 1071  16.533  16.099   6.494
    4AU     LIG 1072  16.786  16.074   6.093
    4AU       S 1073  15.763  16.881   6.330
    4AU     LIG 1074  15.704  16.688   5.874
    4AU     LIG 1075  15.948  16.767   5.462
    4AU    AUSL 1076  15.546  17.334   6.838
    4AU    AUSL 1077  15.252  16.996   6.740
    4AU     AUL 1078  15.421  17.244   6.509
    4AU       S 1079  14.989  17.010   6.295
    4AU     LIG 1080  15.098  16.816   5.884
    4AU     LIG 1081  14.725  16.749   5.629
    4AU       S 1082  16.053  16.869   6.193
    4AU     LIG 1083  15.924  17.145   5.825
    4AU     LIG 1084  16.002  17.277   5.377
    4AU    AUSL 1085  14.921  17.139   8.163
    4AU    AUSL 1086  15.105  17.630   8.103
    4AU     AUL 1087  15.055  17.432   8.432
    4AU       S 1088  14.645  17.098   8.503
    4AU     LIG 1089  14.420  17.376   8.822
    4AU     LIG 1090  14.277  17.292   9.282
    4AU       S 1091  14.731  17.835   8.338
    4AU     LIG 1092  14.619  18.160   8.658
    4AU     LIG 1093  14.439  18.594   8.789
    4AU    AUSL 1094  15.215  16.970   8.274
    4AU    AUSL 1095  14.807  16.853   7.971
    4AU     AUL 1096  14.955  16.729   8.289
    4AU       S 1097  14.458  16.609   8.196
    4AU     LIG 1098  14.035  16.341   8.252
    4AU     LIG 1099  13.748  16.175   8.598
    4AU       S 1100  14.927  16.990   8.715
    4AU     LIG 1101  15.032  16.765   9.117
    4AU     LIG 1102  14.865  16.813   9.558
    4AU    AUSL 1103  14.927  17.109   6.856
    4AU    AUSL 1104  15.139  16.774   6.992
    4AU     AUL 1105  15.031  16.713   6.696
    4AU       S 1106  14.662  17.045   6.497
    4AU     LIG 1107  14.356  17.244   6.155
    4AU     LIG 1108  14.305  17.355   5.676
    4AU       S 1109  14.560  16.379   6.622
    4AU     LIG 1110  14.478  15.955   6.488
    4AU     LIG 1111  14.182  15.662   6.292
    4AU    AUSL 1112  15.210  17.338   6.847
    4AU    AUSL 1113  14.825  17.429   7.002
    4AU     AUL 1114  14.992  17.427   6.627
    4AU       S 1115  14.524  17.619   6.707
    4AU     LIG 1116  14.282  17.991   6.526
    4AU     LIG 1117  14.067  18.178   6.151
    4AU       S 1118  14.703  16.879   6.209
    4AU     LIG 1119  14.771  17.209   5.862
    4AU     LIG 1120  14.748  17.229   5.394
    4AU    AUSL 1121  15.999  17.633   7.500
    4AU    AUSL 1122  15.991  17.486   7.077
    4AU     AUL 1123  16.111  17.851   7.232
    4AU       S 1124  16.287  17.586   6.788
    4AU     LIG 1125  16.471  17.662   6.341
    4AU     LIG 1126  16.723  18.061   6.293
    4AU       S 1127  16.820  17.640   7.610
    4AU     LIG 1128  17.014  18.088   7.587
    4AU     LIG 1129  17.412  18.261   7.413
    4AU    AUSL 1130  16.171  17.360   7.348
    4AU    AUSL 1131  16.187  17.023   7.670
    4AU     AUL 1132  16.470  17.158   7.447
    4AU       S 1133  16.571  17.654   7.418
    4AU     LIG 1134  16.982  17.783   7.166
    4AU     LIG 1135  17.450  17.763   7.290
    4AU       S 1136  16.620  16.682   7.619
    4AU     LIG 1137  16.866  16.371   7.875
    4AU     LIG 1138  17.325  16.303   8.037
    4AU    AUSL 1139  16.156  17.379   7.711
    4AU    AUSL 1140  15.783  17.666   7.763
    4AU     AUL 1141  16.118  17.767   7.793
    4AU       S 1142  16.290  18.028   8.273
    4AU     LIG 1143  16.645  18.318   8.289
    4AU     LIG 1144  16.661  18.781   8.365
    4AU       S 1145  16.584  17.548   7.800
    4AU     LIG 1146  16.973  17.831   8.033
    4AU     LIG 1147  17.424  17.859   7.817
    4AU    AUSL 1148  14.757  17.624   7.518
    4AU    AUSL 1149  14.805  17.428   7.979
    4AU     AUL 1150  14.499  17.620   7.767
    4AU       S 1151  14.545  17.553   8.292
    4AU     LIG 1152  14.240  17.817   8.511
    4AU     LIG 1153  14.124  18.159   8.804
    4AU       S 1154  14.577  18.077   7.510
    4AU     LIG 1155  14.206  18.373   7.401
    4AU     LIG 1156  13.780  18.569   7.502
    4AU    AUSL 1157  14.678  17.315   7.295
    4AU    AUSL 1158  14.896  17.727   7.219
    4AU     AUL 1159  14.534  17.614   7.228
    4AU       S 1160  14.315  17.199   6.952
    4AU     LIG 1161  13.899  17.419   7.117
    4AU     LIG 1162  13.579  17.781   7.110
    4AU       S 1163  14.611  18.054   6.967
    4AU     LIG 1164  14.416  18.445   6.769
    4AU     LIG 1165  14.069  18.597   6.492
    4AU    AUSL 1166  14.654  17.300   7.695
    4AU    AUSL 1167  14.617  16.987   7.346
    4AU     AUL 1168  14.380  17.320   7.470
    4AU       S 1169  14.136  16.874   7.356
    4AU     LIG 1170  13.753  16.694   7.081
    4AU     LIG 1171  13.371  16.410   7.021
    4AU       S 1172  14.268  17.224   8.009
    4AU     LIG 1173  13.955  17.656   8.024
    4AU     LIG 1174  13.544  17.937   8.101
    4AU    AUSL 1175  16.057  16.712   7.502
    4AU    AUSL 1176  15.924  16.935   7.886
    4AU     AUL 1177  16.214  16.758   7.893
    4AU       S 1178  16.386  16.443   7.498
    4AU     LIG 1179  16.730  16.156   7.408
    4AU     LIG 1180  17.035  16.111   7.050
    4AU       S 1181  16.171  16.060   8.177
    4AU     LIG 1182  16.597  16.180   8.287
    4AU     LIG 1183  16.849  16.179   8.644
    4AU    AUSL 1184  16.158  17.006   7.317
    4AU    AUSL 1185  15.881  16.589   7.216
    4AU     AUL 1186  16.181  16.752   7.094
    4AU       S 1187  16.583  16.655   7.367
    4AU     LIG 1188  16.993  16.586   7.253
    4AU     LIG 1189  17.387  16.498   7.067
    4AU       S 1190  16.144  16.250   7.007
    4AU     LIG 1191  16.534  15.944   6.985
    4AU     LIG 1192  16.895  15.705   6.763
    4AU    AUSL 1193  14.857  16.739   7.505
    4AU    AUSL 1194  14.797  16.861   7.072
    4AU     AUL 1195  14.584  16.620   7.323
    4AU       S 1196  14.514  16.646   6.809
    4AU     LIG 1197  14.111  16.403   6.842
    4AU     LIG 1198  13.965  16.030   6.613
    4AU       S 1199  13.901  16.903   7.516
    4AU     LIG 1200  13.792  16.423   7.507
    4AU     LIG 1201  13.781  16.118   7.136
    4AU    AUSL 1202  14.637  16.960   7.693
    4AU    AUSL 1203  14.947  16.562   7.800
    4AU     AUL 1204  14.604  16.606   7.700
    4AU       S 1205  14.645  16.306   8.098
    4AU     LIG 1206  14.434  15.925   8.012
    4AU     LIG 1207  14.458  15.582   8.288
    4AU       S 1208  14.154  16.868   7.663
    4AU     LIG 1209  13.776  16.696   7.948
    4AU     LIG 1210  13.421  16.396   7.943
    4AU    AUSL 1211  15.407  17.818   7.993
    4AU    AUSL 1212  14.912  17.733   7.811
    4AU     AUL 1213  15.094  18.006   7.997
    4AU       S 1214  14.590  18.020   8.082
    4AU     LIG 1215  14.389  18.421   8.286
    4AU     LIG 1216  13.999  18.574   8.536
    4AU       S 1217  15.479  18.284   8.177
    4AU     LIG 1218  15.339  18.709   8.415
    4AU     LIG 1219  15.449  19.183   8.393
    4AU    AUSL 1220  15.209  17.862   7.680
    4AU    AUSL 1221  15.534  17.954   7.341
    4AU     AUL 1222  15.207  18.166   7.475
    4AU       S 1223  15.656  18.525   8.083
    4AU     LIG 1224  15.373  18.893   7.935
    4AU     LIG 1225  15.215  19.324   7.958
    4AU       S 1226  15.559  18.407   7.172
    4AU     LIG 1227  15.772  18.832   7.247
    4AU     LIG 1228  15.751  19.176   6.970
    4AU    AUSL 1229  15.562  17.931   7.685
    4AU    AUSL 1230  15.690  17.643   8.101
    4AU     AUL 1231  15.798  17.951   7.951
    4AU       S 1232  16.009  17.876   8.411
    4AU     LIG 1233  16.290  18.027   8.768
    4AU     LIG 1234  16.583  18.396   8.799
    4AU       S 1235  15.576  18.390   7.804
    4AU     LIG 1236  15.835  18.832   7.747
    4AU     LIG 1237  15.796  19.226   7.995
    4AU    AUSL 1238  15.440  16.585   7.965
    4AU    AUSL 1239  15.885  16.578   7.784
    4AU     AUL 1240  15.651  16.326   8.017
    4AU       S 1241  15.111  15.796   8.034
    4AU     LIG 1242  15.151  15.323   8.133
    4AU     LIG 1243  15.439  14.923   8.123
    4AU       S 1244  16.166  16.245   7.927
    4AU     LIG 1245  16.554  15.940   7.850
    4AU     LIG 1246  16.776  15.672   8.187
    4AU    AUSL 1247  15.233  16.398   7.692
    4AU    AUSL 1248  15.156  16.763   8.002
    4AU     AUL 1249  15.166  16.395   8.077
    4AU       S 1250  15.014  15.973   7.775
    4AU     LIG 1251  14.747  15.523   7.848
    4AU     LIG 1252  14.758  15.031   7.887
    4AU       S 1253  14.519  16.337   8.369
    4AU     LIG 1254  14.339  15.988   8.601
    4AU     LIG 1255  14.316  15.732   9.007
    4AU    AUSL 1256  15.586  16.454   7.675
    4AU    AUSL 1257  15.231  16.399   7.335
    4AU     AUL 1258  15.472  16.144   7.516
    4AU       S 1259  14.992  16.001   7.273
    4AU     LIG 1260  14.944  15.509   7.374
    4AU     LIG 1261  15.081  15.131   7.188
    4AU       S 1262  15.215  15.689   7.765
    4AU     LIG 1263  15.559  15.343   7.824
    4AU     LIG 1264  15.953  15.098   8.031
    4AU    AUSL 1265  15.410  17.819   7.028
    4AU    AUSL 1266  15.764  17.700   7.263
    4AU     AUL 1267  15.779  17.963   7.049
    4AU       S 1268  15.442  18.271   6.812
    4AU     LIG 1269  15.290  18.656   6.542
    4AU     LIG 1270  15.488  19.091   6.530
    4AU       S 1271  16.434  17.904   6.769
    4AU     LIG 1272  16.539  18.365   6.709
    4AU     LIG 1273  16.572  18.716   6.409
    4AU    AUSL 1274  15.210  17.809   7.341
    4AU    AUSL 1275  15.107  17.660   6.939
    4AU     AUL 1276  15.103  18.021   7.100
    4AU       S 1277  15.634  18.535   6.882
    4AU     LIG 1278  15.315  18.887   6.995
    4AU     LIG 1279  15.003  19.122   6.722
    4AU       S 1280  14.768  17.897   6.705
    4AU     LIG 1281  14.714  18.241   6.395
    4AU     LIG 1282  14.445  18.532   6.140
    4AU    AUSL 1283  15.413  16.593   7.072
    4AU    AUSL 1284  14.952  16.566   7.213
    4AU     AUL 1285  15.167  16.394   6.942
    4AU       S 1286  14.645  16.318   6.917
    4AU     LIG 1287  14.326  15.949   6.980
    4AU     LIG 1288  14.077  15.560   6.805
    4AU       S 1289  14.876  15.846   6.995
    4AU     LIG 1290  15.042  15.443   6.783
    4AU     LIG 1291  15.289  15.061   6.695
    4AU    AUSL 1292  15.590  16.463   7.341
    4AU    AUSL 1293  15.704  16.696   6.922
    4AU     AUL 1294  15.626  16.321   7.027
    4AU       S 1295  15.179  15.822   7.078
    4AU     LIG 1296  15.466  15.441   7.104
    4AU     LIG 1297  15.578  14.970   7.101
    4AU       S 1298  15.991  16.394   6.673
    4AU     LIG 1299  16.104  16.250   6.233
    4AU     LIG 1300  16.309  15.850   6.077
    5AU     AUC 1301  17.717  42.363   7.505
    5AU     AUC 1302  17.988  42.368   7.340
    5AU     AUC 1303  17.989  42.372   7.668
    5AU     AUC 1304  17.446  42.355   7.340
    5AU     AUC 1305  17.447  42.357   7.670
    5AU     AUC 1306  17.539  42.620   7.505
    5AU     AUC 1307  17.870  42.626   7.503
    5AU     AUC 1308  17.564  42.094   7.506
    5AU     AUC 1309  17.894  42.103   7.504
    5AU     AUC 1310  17.728  42.206   7.769
    5AU     AUC 1311  17.712  42.529   7.774
    5AU     AUC 1312  17.723  42.199   7.239
    5AU     AUC 1313  17.711  42.523   7.237
    5AU     AUC 1314  18.253  42.392   7.180
    5AU     AUC 1315  18.283  42.377   7.501
    5AU     AUC 1316  18.256  42.394   7.822
    5AU     AUC 1317  17.187  42.335   7.169
    5AU     AUC 1318  17.167  42.336   7.504
    5AU     AUC 1319  17.186  42.335   7.836
    5AU     AUC 1320  17.365  42.855   7.506
    5AU     AUC 1321  17.705  42.895   7.503
    5AU     AUC 1322  18.002  42.891   7.498
    5AU     AUC 1323  17.430  41.810   7.509
    5AU     AUC 1324  17.737  41.818   7.509
    5AU     AUC 1325  18.071  41.854   7.506
    5AU     AUC 1326  17.751  42.065   8.033
    5AU     AUC 1327  17.727  42.369   8.052
    5AU     AUC 1328  17.718  42.703   8.027
    5AU     AUC 1329  17.742  42.052   6.972
    5AU     AUC 1330  17.718  42.352   6.968
    5AU     AUC 1331  17.710  42.696   6.987
    5AU     AUC 1332  17.993  42.214   7.946
    5AU     AUC 1333  17.995  42.546   7.955
    5AU     AUC 1334  17.988  42.214   7.049
    5AU     AUC 1335  17.997  42.543   7.070
    5AU     AUC 1336  17.448  42.208   7.948
    5AU     AUC 1337  17.427  42.530   7.944
    5AU     AUC 1338  17.445  42.198   7.064
    5AU     AUC 1339  17.424  42.521   7.066
    5AU     AUC 1340  18.153  42.629   7.343
    5AU     AUC 1341  18.156  42.628   7.672
    5AU     AUC 1342  17.260  42.619   7.325
    5AU     AUC 1343  17.258  42.617   7.676
    5AU     AUC 1344  18.170  42.100   7.340
    5AU     AUC 1345  18.179  42.105   7.651
    5AU     AUC 1346  17.287  42.080   7.332
    5AU     AUC 1347  17.294  42.076   7.686
    5AU     AUC 1348  17.531  42.797   7.788
    5AU     AUC 1349  17.859  42.806   7.780
    5AU     AUC 1350  17.580  41.922   7.762
    5AU     AUC 1351  17.926  41.944   7.779
    5AU     AUC 1352  17.528  42.784   7.216
    5AU     AUC 1353  17.856  42.806   7.221
    5AU     AUC 1354  17.566  41.918   7.248
    5AU     AUC 1355  17.909  41.939   7.228
    5AU    AUSL 1356  18.171  42.356   8.145
    5AU    AUSL 1357  18.070  41.932   8.100
    5AU     AUL 1358  18.438  42.126   8.203
    5AU       S 1359  18.338  41.649   8.385
    5AU     LIG 1360  18.491  41.453   8.824
    5AU     LIG 1361  18.787  41.109   9.024
    5AU       S 1362  18.224  42.148   8.664
    5AU     LIG 1363  18.448  42.303   9.041
    5AU     LIG 1364  18.640  42.386   9.461
    5AU    AUSL 1365  17.880  42.191   8.262
    5AU    AUSL 1366  17.562  42.522   8.181
    5AU     AUL 1367  17.694  42.415   8.530
    5AU       S 1368  17.973  41.975   8.627
    5AU     LIG 1369  17.960  42.118   9.095
    5AU     LIG 1370  18.228  42.060   9.475
    5AU       S 1371  16.949  42.067   8.750
    5AU     LIG 1372  17.021  42.364   9.128
    5AU     LIG 1373  16.953  42.470   9.581
    5AU    AUSL 1374  17.894  42.582   8.258
    5AU    AUSL 1375  18.304  42.658   7.990
    5AU     AUL 1376  18.253  42.576   8.378
    5AU       S 1377  17.880  42.912   8.592
    5AU     LIG 1378  18.136  42.725   8.951
    5AU     LIG 1379  18.147  42.561   9.381
    5AU       S 1380  18.617  42.906   8.253
    5AU     LIG 1381  18.997  42.891   8.519
    5AU     LIG 1382  19.266  43.220   8.678
    5AU    AUSL 1383  18.193  42.419   6.843
    5AU    AUSL 1384  18.018  42.819   6.909
    5AU     AUL 1385  18.044  42.700   6.561
    5AU       S 1386  18.350  42.347   6.348
    5AU     LIG 1387  18.697  42.423   6.037
    5AU     LIG 1388  18.748  42.201   5.619
    5AU       S 1389  18.477  42.975   6.670
    5AU     LIG 1390  18.737  43.223   6.360
    5AU     LIG 1391  18.781  43.483   5.965
    5AU    AUSL 1392  17.929  42.180   6.742
    5AU    AUSL 1393  18.211  42.147   7.083
    5AU     AUL 1394  18.340  42.094   6.780
    5AU       S 1395  18.431  41.291   6.728
    5AU     LIG 1396  18.819  41.396   6.488
    5AU     LIG 1397  19.140  41.269   6.142
    5AU       S 1398  18.079  42.071   6.330
    5AU     LIG 1399  17.982  41.886   5.897
    5AU     LIG 1400  18.240  41.865   5.499
    5AU    AUSL 1401  17.861  42.524   6.822
    5AU    AUSL 1402  17.568  42.185   6.732
    5AU     AUL 1403  17.734  42.432   6.497
    5AU       S 1404  17.294  42.195   6.288
    5AU     LIG 1405  17.395  41.996   5.856
    5AU     LIG 1406  17.091  41.889   5.501
    5AU       S 1407  18.366  42.062   6.184
    5AU     LIG 1408  18.260  42.304   5.792
    5AU     LIG 1409  18.344  42.355   5.327
    5AU    AUSL 1410  17.241  42.337   8.154
    5AU    AUSL 1411  17.419  42.831   8.089
    5AU     AUL 1412  17.360  42.638   8.419
    5AU       S 1413  16.955  42.285   8.480
    5AU     LIG 1414  16.629  42.451   8.798
    5AU     LIG 1415  16.525  42.361   9.259
    5AU       S 1416  17.028  43.032   8.309
    5AU     LIG 1417  16.852  43.274   8.661
    5AU     LIG 1418  16.612  43.359   9.050
    5AU    AUSL 1419  17.536  42.179   8.272
    5AU    AUSL 1420  17.139  42.045   7.969
    5AU     AUL 1421  17.295  41.924   8.284
    5AU       S 1422  16.794  41.831   8.205
    5AU     LIG 1423  16.435  41.775   8.557
    5AU     LIG 1424  16.185  41.411   8.752
    5AU       S 1425  17.237  42.196   8.697
    5AU     LIG 1426  17.366  41.991   9.090
    5AU     LIG 1427  17.124  41.977   9.488
    5AU    AUSL 1428  17.243  42.300   6.852
    5AU    AUSL 1429  17.463  41.967   6.990
    5AU     AUL 1430  17.336  41.907   6.698
    5AU       S 1431  16.968  42.232   6.501
    5AU     LIG 1432  16.568  42.246   6.227
    5AU     LIG 1433  16.550  42.089   5.778
    5AU       S 1434  16.805  41.694   6.612
    5AU     LIG 1435  16.802  41.397   6.299
    5AU     LIG 1436  16.575  41.195   6.001
    5AU    AUSL 1437  17.525  42.528   6.837
    5AU    AUSL 1438  17.140  42.617   6.997
    5AU     AUL 1439  17.302  42.616   6.620
    5AU       S 1440  16.831  42.800   6.708
    5AU     LIG 1441  16.528  43.026   6.441
    5AU     LIG 1442  16.333  43.208   6.058
    5AU       S 1443  17.019  42.054   6.208
    5AU     LIG 1444  17.009  42.328   5.808
    5AU     LIG 1445  17.092  42.378   5.329
    5AU    AUSL 1446  18.322  42.822   7.482
    5AU    AUSL 1447  18.310  42.675   7.075
    5AU     AUL 1448  18.420  43.054   7.224
    5AU       S 1449  18.634  42.736   6.818
    5AU     LIG 1450  18.914  42.740   6.421
    5AU     LIG 1451  19.243  43.042   6.270
    5AU       S 1452  19.149  42.798   7.540
    5AU     LIG 1453  19.387  43.154   7.397
    5AU     LIG 1454  19.483  43.462   7.072
    5AU    AUSL 1455  18.493  42.540   7.337
    5AU    AUSL 1456  18.502  42.220   7.653
    5AU     AUL 1457  18.796  42.315   7.431
    5AU       S 1458  18.882  42.809   7.337
    5AU     LIG 1459  19.267  42.807   7.048
    5AU     LIG 1460  19.624  42.685   7.332
    5AU       S 1461  18.899  41.810   7.589
    5AU     LIG 1462  19.235  41.690   7.849
    5AU     LIG 1463  19.625  41.969   7.915
    5AU    AUSL 1464  18.476  42.575   7.698
    5AU    AUSL 1465  18.102  42.861   7.741
    5AU     AUL 1466  18.443  42.964   7.776
    5AU       S 1467  18.631  43.210   8.338
    5AU     LIG 1468  19.080  43.277   8.194
    5AU     LIG 1469  19.465  43.538   8.306
    5AU       S 1470  18.896  42.735   7.724
    5AU     LIG 1471  19.238  42.795   8.035
    5AU     LIG 1472  19.667  42.719   7.879
    5AU    AUSL 1473  17.068  42.807   7.512
    5AU    AUSL 1474  17.117  42.621   7.965
    5AU     AUL 1475  16.789  42.781   7.750
    5AU       S 1476  16.851  42.744   8.274
    5AU     LIG 1477  16.516  42.894   8.548
    5AU     LIG 1478  16.217  43.171   8.751
    5AU       S 1479  16.883  43.250   7.510
    5AU     LIG 1480  16.447  43.452   7.489
    5AU     LIG 1481  16.156  43.823   7.363
    5AU    AUSL 1482  16.995  42.498   7.288
    5AU    AUSL 1483  17.210  42.916   7.214
    5AU     AUL 1484  16.847  42.792   7.226
    5AU       S 1485  16.626  42.382   6.942
    5AU     LIG 1486  16.141  42.492   6.858
    5AU     LIG 1487  15.752  42.769   7.031
    5AU       S 1488  16.921  43.232   6.975
    5AU     LIG 1489  16.492  43.342   6.860
    5AU     LIG 1490  16.260  43.487   6.491
    5AU    AUSL 1491  16.974  42.477   7.686
    5AU    AUSL 1492  16.944  42.169   7.344
    5AU     AUL 1493  16.697  42.500   7.464
    5AU       S 1494  16.486  42.050   7.327
    5AU     LIG 1495  16.112  42.006   7.030
    5AU     LIG 1496  15.635  41.960   7.022
    5AU       S 1497  16.597  42.367   8.013
    5AU     LIG 1498  16.129  42.580   8.024
    5AU     LIG 1499  15.722  42.728   7.824
    5AU    AUSL 1500  18.373  41.907   7.500
    5AU    AUSL 1501  18.247  42.146   7.880
    5AU     AUL 1502  18.550  41.987   7.883
    5AU       S 1503  18.650  41.610   7.504
    5AU     LIG 1504  18.927  41.307   7.452
    5AU     LIG 1505  19.320  41.438   7.267
    5AU       S 1506  18.561  41.440   8.332
    5AU     LIG 1507  18.944  41.369   8.588
    5AU     LIG 1508  19.292  41.279   8.886
    5AU    AUSL 1509  18.475  42.190   7.303
    5AU    AUSL 1510  18.203  41.785   7.211
    5AU     AUL 1511  18.500  41.941   7.087
    5AU       S 1512  18.900  41.811   7.351
    5AU     LIG 1513  19.350  41.954   7.418
    5AU     LIG 1514  19.659  41.863   7.139
    5AU       S 1515  18.473  41.437   6.999
    5AU     LIG 1516  18.859  41.112   6.929
    5AU     LIG 1517  19.061  40.941   6.526
    5AU    AUSL 1518  17.196  41.926   7.507
    5AU    AUSL 1519  17.122  42.051   7.072
    5AU     AUL 1520  16.933  41.791   7.333
    5AU       S 1521  16.788  41.896   6.842
    5AU     LIG 1522  16.373  41.922   6.594
    5AU     LIG 1523  16.360  41.757   6.153
    5AU       S 1524  16.361  41.856   7.444
    5AU     LIG 1525  16.105  41.619   7.695
    5AU     LIG 1526  15.952  41.211   7.617
    5AU    AUSL 1527  16.967  42.138   7.688
    5AU    AUSL 1528  17.289  41.754   7.805
    5AU     AUL 1529  16.950  41.780   7.709
    5AU       S 1530  17.003  41.486   8.108
    5AU     LIG 1531  16.795  41.066   8.092
    5AU     LIG 1532  16.490  41.127   8.423
    5AU       S 1533  16.506  42.031   7.640
    5AU     LIG 1534  16.129  42.132   7.800
    5AU     LIG 1535  15.874  42.029   7.477
    5AU    AUSL 1536  17.726  43.010   7.979
    5AU    AUSL 1537  17.229  42.924   7.797
    5AU     AUL 1538  17.411  43.205   7.983
    5AU       S 1539  16.905  43.195   8.035
    5AU     LIG 1540  16.527  43.335   8.264
    5AU     LIG 1541  16.450  43.618   8.624
    5AU       S 1542  17.817  43.389   8.239
    5AU     LIG 1543  17.701  43.724   8.560
    5AU     LIG 1544  17.768  44.190   8.550
    5AU    AUSL 1545  17.521  43.057   7.665
    5AU    AUSL 1546  17.853  43.146   7.322
    5AU     AUL 1547  17.536  43.363   7.461
    5AU       S 1548  17.980  43.665   8.148
    5AU     LIG 1549  17.613  43.961   8.111
    5AU     LIG 1550  17.500  44.411   8.142
    5AU       S 1551  17.864  43.581   7.120
    5AU     LIG 1552  18.008  44.014   7.225
    5AU     LIG 1553  18.000  44.352   6.910
    5AU    AUSL 1554  17.872  43.125   7.669
    5AU    AUSL 1555  18.015  42.848   8.080
    5AU     AUL 1556  18.128  43.150   7.903
    5AU       S 1557  18.309  43.093   8.375
    5AU     LIG 1558  18.444  43.139   8.807
    5AU     LIG 1559  18.847  43.279   8.984
    5AU       S 1560  17.835  43.559   7.873
    5AU     LIG 1561  17.980  43.989   7.756
    5AU     LIG 1562  18.014  44.313   8.084
    5AU    AUSL 1563  17.778  41.795   7.958
    5AU    AUSL 1564  18.215  41.792   7.800
    5AU     AUL 1565  17.991  41.541   8.025
    5AU       S 1566  17.530  41.042   8.229
    5AU     LIG 1567  17.967  40.874   8.471
    5AU     LIG 1568  18.271  40.540   8.740
    5AU       S 1569  18.507  41.506   8.044
    5AU     LIG 1570  18.951  41.277   8.073
    5AU     LIG 1571  18.983  40.915   8.370
    5AU    AUSL 1572  17.576  41.593   7.698
    5AU    AUSL 1573  17.493  41.974   7.995
    5AU     AUL 1574  17.511  41.622   8.094
    5AU       S 1575  17.446  41.155   7.877
    5AU     LIG 1576  17.181  40.755   7.985
    5AU     LIG 1577  17.109  40.289   8.209
    5AU       S 1578  16.749  41.534   8.261
    5AU     LIG 1579  16.975  41.218   8.549
    5AU     LIG 1580  16.835  40.939   8.886
    5AU    AUSL 1581  17.930  41.650   7.675
    5AU    AUSL 1582  17.562  41.582   7.328
    5AU     AUL 1583  17.806  41.344   7.518
    5AU       S 1584  17.502  41.113   7.140
    5AU     LIG 1585  17.261  40.751   7.282
    5AU     LIG 1586  17.041  40.377   7.149
    5AU       S 1587  17.706  41.019   8.038
    5AU     LIG 1588  18.032  40.725   7.944
    5AU     LIG 1589  17.844  40.293   7.663
    5AU    AUSL 1590  17.728  43.004   7.011
    5AU    AUSL 1591  18.081  42.891   7.252
    5AU     AUL 1592  18.103  43.144   7.024
    5AU       S 1593  17.759  43.428   6.771
    5AU     LIG 1594  17.639  43.756   6.451
    5AU     LIG 1595  17.756  44.207   6.454
    5AU       S 1596  18.807  42.992   6.832
    5AU     LIG 1597  19.121  43.276   6.718
    5AU     LIG 1598  19.152  43.557   6.347
    5AU    AUSL 1599  17.528  43.004   7.326
    5AU    AUSL 1600  17.419  42.848   6.931
    5AU     AUL 1601  17.418  43.209   7.084
    5AU       S 1602  17.960  43.693   6.833
    5AU     LIG 1603  17.608  43.989   6.907
    5AU     LIG 1604  17.481  44.431   6.851
    5AU       S 1605  17.062  43.080   6.704
    5AU     LIG 1606  16.842  43.428   6.475
    5AU     LIG 1607  16.636  43.622   6.103
    5AU    AUSL 1608  17.732  41.774   7.058
    5AU    AUSL 1609  17.280  41.756   7.212
    5AU     AUL 1610  17.464  41.591   6.936
    5AU       S 1611  16.931  41.576   6.874
    5AU     LIG 1612  16.717  41.198   6.770
    5AU     LIG 1613  16.666  40.874   6.427
    5AU       S 1614  17.481  40.844   6.855
    5AU     LIG 1615  17.759  40.583   6.567
    5AU     LIG 1616  17.927  40.435   6.135
    5AU    AUSL 1617  17.910  41.670   7.341
    5AU    AUSL 1618  18.023  41.886   6.916
    5AU     AUL 1619  17.958  41.512   7.037
    5AU       S 1620  17.662  41.036   6.844
    5AU     LIG 1621  17.933  40.754   7.069
    5AU     LIG 1622  18.126  40.363   6.910
    5AU       S 1623  18.301  41.584   6.664
    5AU     LIG 1624  18.359  41.368   6.244
    5AU     LIG 1625  18.627  40.990   6.226
    6AU     AUC 1626   2.370  23.374   7.507
    6AU     AUC 1627   2.639  23.381   7.340
    6AU     AUC 1628   2.643  23.380   7.668
    6AU     AUC 1629   2.097  23.367   7.342
    6AU     AUC 1630   2.100  23.368   7.673
    6AU     AUC 1631   2.192  23.632   7.509
    6AU     AUC 1632   2.522  23.638   7.507
    6AU     AUC 1633   2.214  23.106   7.507
    6AU     AUC 1634   2.547  23.113   7.503
    6AU     AUC 1635   2.381  23.213   7.769
    6AU     AUC 1636   2.367  23.537   7.778
    6AU     AUC 1637   2.374  23.211   7.241
    6AU     AUC 1638   2.361  23.537   7.240
    6AU     AUC 1639   2.901  23.410   7.178
    6AU     AUC 1640   2.935  23.390   7.500
    6AU     AUC 1641   2.911  23.399   7.820
    6AU     AUC 1642   1.837  23.347   7.170
    6AU     AUC 1643   1.820  23.351   7.507
    6AU     AUC 1644   1.841  23.347   7.841
    6AU     AUC 1645   2.020  23.869   7.511
    6AU     AUC 1646   2.358  23.908   7.510
    6AU     AUC 1647   2.652  23.903   7.505
    6AU     AUC 1648   2.075  22.827   7.509
    6AU     AUC 1649   2.387  22.831   7.505
    6AU     AUC 1650   2.726  22.862   7.497
    6AU     AUC 1651   2.405  23.066   8.028
    6AU     AUC 1652   2.384  23.371   8.052
    6AU     AUC 1653   2.375  23.708   8.033
    6AU     AUC 1654   2.391  23.065   6.974
    6AU     AUC 1655   2.368  23.364   6.971
    6AU     AUC 1656   2.357  23.712   6.992
    6AU     AUC 1657   2.651  23.215   7.941
    6AU     AUC 1658   2.650  23.549   7.958
    6AU     AUC 1659   2.638  23.228   7.049
    6AU     AUC 1660   2.646  23.560   7.072
    6AU     AUC 1661   2.101  23.213   7.950
    6AU     AUC 1662   2.084  23.537   7.949
    6AU     AUC 1663   2.094  23.207   7.065
    6AU     AUC 1664   2.075  23.532   7.069
    6AU     AUC 1665   2.801  23.646   7.343
    6AU     AUC 1666   2.806  23.639   7.674
    6AU     AUC 1667   1.914  23.633   7.328
    6AU     AUC 1668   1.915  23.631   7.682
    6AU     AUC 1669   2.823  23.112   7.336
    6AU     AUC 1670   2.838  23.112   7.644
    6AU     AUC 1671   1.934  23.092   7.331
    6AU     AUC 1672   1.943  23.089   7.687
    6AU     AUC 1673   2.187  23.808   7.794
    6AU     AUC 1674   2.512  23.815   7.787
    6AU     AUC 1675   2.229  22.930   7.762
    6AU     AUC 1676   2.578  22.950   7.774
    6AU     AUC 1677   2.179  23.799   7.220
    6AU     AUC 1678   2.504  23.822   7.227
    6AU     AUC 1679   2.213  22.932   7.250
    6AU     AUC 1680   2.562  22.951   7.228
    6AU    AUSL 1681   2.831  23.353   8.141
    6AU    AUSL 1682   2.730  22.926   8.082
    6AU     AUL 1683   3.094  23.112   8.196
    6AU       S 1684   3.044  22.607   8.310
    6AU     LIG 1685   3.176  22.360   8.721
    6AU     LIG 1686   3.471  21.994   8.846
    6AU       S 1687   2.877  23.146   8.658
    6AU     LIG 1688   3.049  23.311   9.059
    6AU     LIG 1689   3.263  23.374   9.470
    6AU    AUSL 1690   2.539  23.183   8.253
    6AU    AUSL 1691   2.221  23.525   8.186
    6AU     AUL 1692   2.360  23.406   8.529
    6AU       S 1693   2.633  22.956   8.610
    6AU     LIG 1694   2.574  23.095   9.073
    6AU     LIG 1695   2.799  23.115   9.489
    6AU       S 1696   1.627  23.098   8.785
    6AU     LIG 1697   1.718  23.433   9.128
    6AU     LIG 1698   1.592  23.559   9.570
    6AU    AUSL 1699   2.556  23.575   8.261
    6AU    AUSL 1700   2.956  23.664   7.993
    6AU     AUL 1701   2.920  23.576   8.376
    6AU       S 1702   2.546  23.898   8.604
    6AU     LIG 1703   2.816  23.775   8.967
    6AU     LIG 1704   2.810  23.627   9.408
    6AU       S 1705   3.283  23.918   8.253
    6AU     LIG 1706   3.664  24.064   8.517
    6AU     LIG 1707   3.831  24.397   8.810
    6AU    AUSL 1708   2.843  23.437   6.843
    6AU    AUSL 1709   2.657  23.839   6.908
    6AU     AUL 1710   2.671  23.709   6.560
    6AU       S 1711   3.036  23.405   6.370
    6AU     LIG 1712   3.272  23.524   5.969
    6AU     LIG 1713   3.283  23.251   5.580
    6AU       S 1714   3.077  24.020   6.650
    6AU     LIG 1715   3.228  24.219   6.259
    6AU     LIG 1716   3.405  24.041   5.868
    6AU    AUSL 1717   2.579  23.197   6.741
    6AU    AUSL 1718   2.861  23.160   7.079
    6AU     AUL 1719   2.987  23.110   6.776
    6AU       S 1720   3.068  22.315   6.691
    6AU     LIG 1721   3.446  22.377   6.437
    6AU     LIG 1722   3.737  22.167   6.124
    6AU       S 1723   2.750  23.125   6.319
    6AU     LIG 1724   2.691  22.854   5.923
    6AU     LIG 1725   2.848  22.919   5.480
    6AU    AUSL 1726   2.509  23.537   6.831
    6AU    AUSL 1727   2.219  23.194   6.735
    6AU     AUL 1728   2.377  23.447   6.504
    6AU       S 1729   1.958  23.195   6.286
    6AU     LIG 1730   2.156  22.974   5.904
    6AU     LIG 1731   1.995  22.899   5.457
    6AU       S 1732   3.037  23.129   6.183
    6AU     LIG 1733   2.821  23.336   5.815
    6AU     LIG 1734   2.850  23.426   5.346
    6AU    AUSL 1735   1.897  23.344   8.159
    6AU    AUSL 1736   2.079  23.837   8.097
    6AU     AUL 1737   2.023  23.643   8.425
    6AU       S 1738   1.619  23.299   8.496
    6AU     LIG 1739   1.308  23.479   8.821
    6AU     LIG 1740   1.245  23.296   9.273
    6AU       S 1741   1.694  24.047   8.326
    6AU     LIG 1742   1.553  24.270   8.727
    6AU     LIG 1743   1.392  24.518   9.104
    6AU    AUSL 1744   2.193  23.179   8.271
    6AU    AUSL 1745   1.787  23.056   7.970
    6AU     AUL 1746   1.936  22.930   8.283
    6AU       S 1747   1.440  22.819   8.193
    6AU     LIG 1748   1.128  22.703   8.546
    6AU     LIG 1749   0.890  22.286   8.639
    6AU       S 1750   1.909  23.198   8.706
    6AU     LIG 1751   2.033  23.033   9.120
    6AU     LIG 1752   1.779  23.071   9.509
    6AU    AUSL 1753   1.894  23.305   6.852
    6AU    AUSL 1754   2.109  22.971   6.989
    6AU     AUL 1755   1.997  22.906   6.697
    6AU       S 1756   1.637  23.228   6.483
    6AU     LIG 1757   1.353  23.372   6.113
    6AU     LIG 1758   1.250  23.331   5.634
    6AU       S 1759   1.320  22.570   6.816
    6AU     LIG 1760   1.425  22.280   6.449
    6AU     LIG 1761   1.296  21.931   6.140
    6AU    AUSL 1762   2.173  23.537   6.844
    6AU    AUSL 1763   1.792  23.626   6.997
    6AU     AUL 1764   1.957  23.619   6.619
    6AU       S 1765   1.487  23.798   6.708
    6AU     LIG 1766   1.223  24.140   6.538
    6AU     LIG 1767   1.146  24.398   6.158
    6AU       S 1768   1.707  23.026   6.205
    6AU     LIG 1769   1.735  23.235   5.786
    6AU     LIG 1770   1.747  23.448   5.370
    6AU    AUSL 1771   2.966  23.843   7.486
    6AU    AUSL 1772   2.957  23.696   7.068
    6AU     AUL 1773   3.069  24.068   7.216
    6AU       S 1774   3.258  23.790   6.789
    6AU     LIG 1775   3.480  23.786   6.370
    6AU     LIG 1776   3.747  24.152   6.241
    6AU       S 1777   3.766  23.785   7.594
    6AU     LIG 1778   3.785  24.230   7.603
    6AU     LIG 1779   4.180  24.223   7.542
    6AU    AUSL 1780   3.135  23.566   7.338
    6AU    AUSL 1781   3.169  23.236   7.648
    6AU     AUL 1782   3.443  23.356   7.385
    6AU       S 1783   3.512  23.853   7.417
    6AU     LIG 1784   3.816  23.987   7.126
    6AU     LIG 1785   4.192  23.794   7.258
    6AU       S 1786   3.617  22.911   7.594
    6AU     LIG 1787   4.095  22.809   7.672
    6AU     LIG 1788   4.566  22.730   7.822
    6AU    AUSL 1789   3.121  23.586   7.699
    6AU    AUSL 1790   2.753  23.871   7.753
    6AU     AUL 1791   3.087  23.975   7.782
    6AU       S 1792   3.271  24.242   8.245
    6AU     LIG 1793   3.629  24.531   8.302
    6AU     LIG 1794   3.942  24.832   8.453
    6AU       S 1795   3.536  23.723   7.780
    6AU     LIG 1796   3.877  23.998   8.042
    6AU     LIG 1797   4.353  24.067   8.023
    6AU    AUSL 1798   1.727  23.825   7.516
    6AU    AUSL 1799   1.778  23.633   7.975
    6AU     AUL 1800   1.456  23.805   7.760
    6AU       S 1801   1.512  23.761   8.288
    6AU     LIG 1802   1.168  23.997   8.515
    6AU     LIG 1803   1.029  24.397   8.753
    6AU       S 1804   1.549  24.272   7.510
    6AU     LIG 1805   1.169  24.479   7.286
    6AU     LIG 1806   0.895  24.731   6.971
    6AU    AUSL 1807   1.651  23.518   7.294
    6AU    AUSL 1808   1.863  23.928   7.213
    6AU     AUL 1809   1.503  23.814   7.227
    6AU       S 1810   1.266  23.399   6.972
    6AU     LIG 1811   0.832  23.531   7.222
    6AU     LIG 1812   0.441  23.807   7.328
    6AU       S 1813   1.568  24.246   6.955
    6AU     LIG 1814   1.343  24.610   6.729
    6AU     LIG 1815   1.021  24.820   6.447
    6AU    AUSL 1816   1.634  23.496   7.695
    6AU    AUSL 1817   1.592  23.190   7.346
    6AU     AUL 1818   1.362  23.532   7.476
    6AU       S 1819   1.111  23.095   7.379
    6AU     LIG 1820   0.644  23.052   7.179
    6AU     LIG 1821   0.193  22.968   7.281
    6AU       S 1822   1.254  23.401   8.018
    6AU     LIG 1823   0.827  23.618   7.812
    6AU     LIG 1824   0.530  24.027   7.792
    6AU    AUSL 1825   3.038  22.918   7.488
    6AU    AUSL 1826   2.910  23.147   7.871
    6AU     AUL 1827   3.204  22.970   7.869
    6AU       S 1828   3.378  22.657   7.479
    6AU     LIG 1829   3.775  22.393   7.518
    6AU     LIG 1830   4.038  22.138   7.231
    6AU       S 1831   3.163  22.318   8.223
    6AU     LIG 1832   3.586  22.385   8.411
    6AU     LIG 1833   3.921  22.152   8.646
    6AU    AUSL 1834   3.123  23.212   7.299
    6AU    AUSL 1835   2.855  22.797   7.203
    6AU     AUL 1836   3.155  22.961   7.081
    6AU       S 1837   3.575  22.855   7.332
    6AU     LIG 1838   4.010  22.721   7.177
    6AU     LIG 1839   4.470  22.890   7.108
    6AU       S 1840   3.112  22.465   6.978
    6AU     LIG 1841   3.498  22.175   6.927
    6AU     LIG 1842   3.563  21.887   6.545
    6AU    AUSL 1843   1.836  22.940   7.502
    6AU    AUSL 1844   1.768  23.060   7.071
    6AU     AUL 1845   1.554  22.825   7.322
    6AU       S 1846   1.480  22.847   6.804
    6AU     LIG 1847   1.287  22.781   6.360
    6AU     LIG 1848   1.083  22.429   6.094
    6AU       S 1849   0.915  23.150   7.586
    6AU     LIG 1850   0.839  22.681   7.457
    6AU     LIG 1851   0.477  22.531   7.230
    6AU    AUSL 1852   1.617  23.157   7.691
    6AU    AUSL 1853   1.930  22.769   7.801
    6AU     AUL 1854   1.594  22.798   7.698
    6AU       S 1855   1.625  22.491   8.097
    6AU     LIG 1856   1.437  22.016   8.071
    6AU     LIG 1857   1.128  21.833   8.377
    6AU       S 1858   1.152  23.064   7.676
    6AU     LIG 1859   0.823  22.815   7.943
    6AU     LIG 1860   0.398  22.698   7.727
    6AU    AUSL 1861   2.382  24.022   7.988
    6AU    AUSL 1862   1.887  23.937   7.805
    6AU     AUL 1863   2.074  24.213   7.995
    6AU       S 1864   1.571  24.211   8.045
    6AU     LIG 1865   1.309  24.445   8.308
    6AU     LIG 1866   1.387  24.768   8.620
    6AU       S 1867   2.461  24.478   8.195
    6AU     LIG 1868   2.390  24.932   8.448
    6AU     LIG 1869   2.511  25.417   8.371
    6AU    AUSL 1870   2.180  24.071   7.673
    6AU    AUSL 1871   2.504  24.161   7.337
    6AU     AUL 1872   2.174  24.375   7.461
    6AU       S 1873   2.654  24.702   8.104
    6AU     LIG 1874   2.395  25.093   7.967
    6AU     LIG 1875   2.224  25.553   7.942
    6AU       S 1876   2.583  24.616   7.239
    6AU     LIG 1877   2.704  25.105   7.275
    6AU     LIG 1878   2.702  25.301   6.849
    6AU    AUSL 1879   2.533  24.137   7.680
    6AU    AUSL 1880   2.666  23.851   8.092
    6AU     AUL 1881   2.773  24.155   7.940
    6AU       S 1882   2.994  24.093   8.399
    6AU     LIG 1883   3.276  24.355   8.722
    6AU     LIG 1884   3.495  24.777   8.751
    6AU       S 1885   2.537  24.590   7.816
    6AU     LIG 1886   2.857  24.977   7.758
    6AU     LIG 1887   2.949  25.322   8.078
    6AU    AUSL 1888   2.425  22.796   7.966
    6AU    AUSL 1889   2.870  22.789   7.776
    6AU     AUL 1890   2.641  22.538   8.008
    6AU       S 1891   1.940  22.071   8.068
    6AU     LIG 1892   2.016  21.651   8.233
    6AU     LIG 1893   2.091  21.217   8.368
    6AU       S 1894   3.157  22.465   7.947
    6AU     LIG 1895   3.545  22.144   7.946
    6AU     LIG 1896   3.599  21.881   8.343
    6AU    AUSL 1897   2.216  22.608   7.694
    6AU    AUSL 1898   2.139  22.974   7.997
    6AU     AUL 1899   2.149  22.613   8.084
    6AU       S 1900   1.974  22.208   7.776
    6AU     LIG 1901   1.780  21.727   7.743
    6AU     LIG 1902   1.813  21.288   7.923
    6AU       S 1903   1.311  22.517   8.124
    6AU     LIG 1904   1.401  22.262   8.522
    6AU     LIG 1905   1.252  21.954   8.862
    6AU    AUSL 1906   2.567  22.670   7.671
    6AU    AUSL 1907   2.209  22.600   7.337
    6AU     AUL 1908   2.456  22.354   7.524
    6AU       S 1909   1.988  22.187   7.279
    6AU     LIG 1910   1.667  21.787   7.231
    6AU     LIG 1911   1.804  21.377   7.023
    6AU       S 1912   2.175  21.999   7.897
    6AU     LIG 1913   2.269  21.565   7.784
    6AU     LIG 1914   2.328  21.121   7.910
    6AU    AUSL 1915   2.375  24.027   7.024
    6AU    AUSL 1916   2.729  23.907   7.251
    6AU     AUL 1917   2.737  24.167   7.027
    6AU       S 1918   2.422  24.533   6.874
    6AU     LIG 1919   2.408  24.928   6.553
    6AU     LIG 1920   2.406  25.392   6.418
    6AU       S 1921   3.400  24.108   6.739
    6AU     LIG 1922   3.558  24.536   6.563
    6AU     LIG 1923   3.766  24.991   6.588
    6AU    AUSL 1924   2.176  24.021   7.333
    6AU    AUSL 1925   2.072  23.860   6.931
    6AU     AUL 1926   2.065  24.223   7.078
    6AU       S 1927   2.662  24.740   6.947
    6AU     LIG 1928   2.278  25.010   7.036
    6AU     LIG 1929   2.152  25.398   6.871
    6AU       S 1930   1.721  24.085   6.694
    6AU     LIG 1931   1.635  24.401   6.355
    6AU     LIG 1932   1.468  24.808   6.171
    6AU    AUSL 1933   2.384  22.795   7.071
    6AU    AUSL 1934   1.926  22.764   7.213
    6AU     AUL 1935   2.140  22.586   6.947
    6AU       S 1936   1.617  22.519   6.916
    6AU     LIG 1937   1.382  22.072   6.908
    6AU     LIG 1938   1.077  21.841   6.601
    6AU       S 1939   2.111  21.944   7.075
    6AU     LIG 1940   2.187  21.579   6.744
    6AU     LIG 1941   2.440  21.291   6.423
    6AU    AUSL 1942   2.569  22.667   7.337
    6AU    AUSL 1943   2.669  22.901   6.911
    6AU     AUL 1944   2.597  22.524   7.024
    6AU       S 1945   2.124  21.891   7.384
    6AU     LIG 1946   2.357  21.524   7.238
    6AU     LIG 1947   2.603  21.331   6.907
    6AU       S 1948   2.944  22.608   6.654
    6AU     LIG 1949   2.998  22.487   6.203
    6AU     LIG 1950   3.228  22.107   6.025
    7AU     AUC 1951  43.560  36.763   7.502
    7AU     AUC 1952  43.828  36.772   7.336
    7AU     AUC 1953  43.834  36.767   7.662
    7AU     AUC 1954  43.287  36.757   7.339
    7AU     AUC 1955  43.292  36.756   7.669
    7AU     AUC 1956  43.383  37.021   7.507
    7AU     AUC 1957  43.712  37.028   7.504
    7AU     AUC 1958  43.403  36.495   7.501
    7AU     AUC 1959  43.737  36.501   7.496
    7AU     AUC 1960  43.572  36.600   7.763
    7AU     AUC 1961  43.559  36.924   7.774
    7AU     AUC 1962  43.563  36.603   7.235
    7AU     AUC 1963  43.551  36.928   7.237
    7AU     AUC 1964  44.091  36.802   7.174
    7AU     AUC 1965  44.126  36.778   7.495
    7AU     AUC 1966  44.104  36.785   7.813
    7AU     AUC 1967  43.027  36.738   7.168
    7AU     AUC 1968  43.011  36.740   7.504
    7AU     AUC 1969  43.035  36.734   7.838
    7AU     AUC 1970  43.208  37.257   7.512
    7AU     AUC 1971  43.547  37.298   7.509
    7AU     AUC 1972  43.841  37.293   7.504
    7AU     AUC 1973  43.263  36.217   7.502
    7AU     AUC 1974  43.575  36.219   7.497
    7AU     AUC 1975  43.912  36.249   7.488
    7AU     AUC 1976  43.598  36.450   8.019
    7AU     AUC 1977  43.579  36.755   8.046
    7AU     AUC 1978  43.570  37.094   8.030
    7AU     AUC 1979  43.580  36.460   6.968
    7AU     AUC 1980  43.560  36.759   6.966
    7AU     AUC 1981  43.548  37.105   6.989
    7AU     AUC 1982  43.843  36.599   7.933
    7AU     AUC 1983  43.844  36.934   7.952
    7AU     AUC 1984  43.828  36.622   7.045
    7AU     AUC 1985  43.835  36.954   7.067
    7AU     AUC 1986  43.294  36.600   7.945
    7AU     AUC 1987  43.278  36.923   7.946
    7AU     AUC 1988  43.283  36.600   7.060
    7AU     AUC 1989  43.264  36.924   7.068
    7AU     AUC 1990  43.990  37.036   7.341
    7AU     AUC 1991  43.998  37.027   7.670
    7AU     AUC 1992  43.103  37.022   7.328
    7AU     AUC 1993  43.106  37.019   7.681
    7AU     AUC 1994  44.012  36.502   7.329
    7AU     AUC 1995  44.027  36.498   7.636
    7AU     AUC 1996  43.123  36.483   7.327
    7AU     AUC 1997  43.133  36.477   7.681
    7AU     AUC 1998  43.379  37.195   7.793
    7AU     AUC 1999  43.704  37.203   7.785
    7AU     AUC 2000  43.419  36.317   7.753
    7AU     AUC 2001  43.767  36.334   7.765
    7AU     AUC 2002  43.367  37.189   7.219
    7AU     AUC 2003  43.692  37.214   7.225
    7AU     AUC 2004  43.401  36.325   7.243
    7AU     AUC 2005  43.750  36.342   7.221
    7AU    AUSL 2006  44.025  36.734   8.132
    7AU    AUSL 2007  43.922  36.308   8.073
    7AU     AUL 2008  44.288  36.493   8.182
    7AU       S 2009  44.230  35.987   8.298
    7AU     LIG 2010  44.343  35.735   8.711
    7AU     LIG 2011  44.537  35.336   8.893
    7AU       S 2012  44.074  36.512   8.645
    7AU     LIG 2013  44.242  36.731   9.013
    7AU     LIG 2014  44.505  36.758   9.401
    7AU    AUSL 2015  43.734  36.566   8.245
    7AU    AUSL 2016  43.418  36.908   8.181
    7AU     AUL 2017  43.562  36.788   8.523
    7AU       S 2018  43.825  36.330   8.599
    7AU     LIG 2019  43.780  36.464   9.062
    7AU     LIG 2020  44.007  36.580   9.457
    7AU       S 2021  42.836  36.503   8.796
    7AU     LIG 2022  42.994  36.862   9.091
    7AU     LIG 2023  42.928  37.002   9.529
    7AU    AUSL 2024  43.752  36.958   8.255
    7AU    AUSL 2025  44.149  37.046   7.986
    7AU     AUL 2026  44.112  36.949   8.371
    7AU       S 2027  43.749  37.281   8.601
    7AU     LIG 2028  44.089  37.236   8.920
    7AU     LIG 2029  44.107  37.093   9.366
    7AU       S 2030  44.492  37.262   8.227
    7AU     LIG 2031  44.944  37.422   8.195
    7AU     LIG 2032   0.009  37.645   8.598
    7AU    AUSL 2033  44.032  36.833   6.841
    7AU    AUSL 2034  43.850  37.236   6.911
    7AU     AUL 2035  43.898  37.118   6.565
    7AU       S 2036  44.160  36.744   6.328
    7AU     LIG 2037  44.484  36.834   5.992
    7AU     LIG 2038  44.504  36.611   5.573
    7AU       S 2039  44.311  37.422   6.685
    7AU     LIG 2040  44.539  37.761   6.427
    7AU     LIG 2041  44.751  38.018   6.067
    7AU    AUSL 2042  43.770  36.593   6.739
    7AU    AUSL 2043  44.050  36.553   7.074
    7AU     AUL 2044  44.189  36.522   6.773
    7AU       S 2045  44.244  35.715   6.680
    7AU     LIG 2046  44.632  35.827   6.488
    7AU     LIG 2047  44.966  35.674   6.208
    7AU       S 2048  43.910  36.458   6.332
    7AU     LIG 2049  43.850  36.216   5.913
    7AU     LIG 2050  44.079  36.235   5.493
    7AU    AUSL 2051  43.701  36.940   6.816
    7AU    AUSL 2052  43.409  36.588   6.728
    7AU     AUL 2053  43.579  36.842   6.495
    7AU       S 2054  43.157  36.587   6.292
    7AU     LIG 2055  43.295  36.383   5.883
    7AU     LIG 2056  43.012  36.389   5.500
    7AU       S 2057  44.201  36.457   6.186
    7AU     LIG 2058  44.033  36.678   5.802
    7AU     LIG 2059  44.050  36.738   5.330
    7AU    AUSL 2060  43.095  36.728   8.157
    7AU    AUSL 2061  43.274  37.221   8.098
    7AU     AUL 2062  43.229  37.022   8.427
    7AU       S 2063  42.824  36.678   8.495
    7AU     LIG 2064  42.555  36.911   8.817
    7AU     LIG 2065  42.537  36.737   9.266
    7AU       S 2066  42.894  37.418   8.333
    7AU     LIG 2067  42.769  37.548   8.759
    7AU     LIG 2068  42.588  37.925   8.969
    7AU    AUSL 2069  43.390  36.561   8.265
    7AU    AUSL 2070  42.980  36.446   7.965
    7AU     AUL 2071  43.136  36.312   8.275
    7AU       S 2072  42.634  36.231   8.196
    7AU     LIG 2073  42.187  36.084   8.296
    7AU     LIG 2074  42.027  35.648   8.358
    7AU       S 2075  43.118  36.569   8.700
    7AU     LIG 2076  43.240  36.415   9.119
    7AU     LIG 2077  42.985  36.483   9.498
    7AU    AUSL 2078  43.083  36.701   6.850
    7AU    AUSL 2079  43.300  36.368   6.983
    7AU     AUL 2080  43.165  36.304   6.704
    7AU       S 2081  42.821  36.638   6.486
    7AU     LIG 2082  42.543  36.797   6.107
    7AU     LIG 2083  42.544  36.671   5.630
    7AU       S 2084  42.678  35.966   6.632
    7AU     LIG 2085  42.462  35.587   6.475
    7AU     LIG 2086  42.250  35.368   6.106
    7AU    AUSL 2087  43.366  36.928   6.846
    7AU    AUSL 2088  42.983  37.018   6.996
    7AU     AUL 2089  43.157  37.015   6.618
    7AU       S 2090  42.681  37.179   6.703
    7AU     LIG 2091  42.432  37.439   6.428
    7AU     LIG 2092  42.356  37.752   6.090
    7AU       S 2093  42.888  36.451   6.199
    7AU     LIG 2094  42.989  36.787   5.857
    7AU     LIG 2095  42.972  36.908   5.409
    7AU    AUSL 2096  44.156  37.229   7.484
    7AU    AUSL 2097  44.144  37.093   7.071
    7AU     AUL 2098  44.240  37.474   7.230
    7AU       S 2099  44.470  37.178   6.819
    7AU     LIG 2100  44.736  37.277   6.405
    7AU     LIG 2101   0.029  37.640   6.290
    7AU       S 2102  44.860  37.397   7.596
    7AU     LIG 2103  44.994  37.674   7.274
    7AU     LIG 2104   0.413  37.662   7.096
    7AU    AUSL 2105  44.326  36.954   7.331
    7AU    AUSL 2106  44.358  36.621   7.644
    7AU     AUL 2107  44.634  36.748   7.395
    7AU       S 2108  44.701  37.249   7.369
    7AU     LIG 2109   0.075  37.203   7.127
    7AU     LIG 2110   0.486  37.141   7.285
    7AU       S 2111  44.804  36.291   7.583
    7AU     LIG 2112   0.281  36.194   7.641
    7AU     LIG 2113   0.582  35.955   7.947
    7AU    AUSL 2114  44.317  36.976   7.691
    7AU    AUSL 2115  43.946  37.263   7.751
    7AU     AUL 2116  44.278  37.366   7.781
    7AU       S 2117  44.519  37.421   8.498
    7AU     LIG 2118  44.639  37.819   8.264
    7AU     LIG 2119  44.739  38.273   8.233
    7AU       S 2120  44.741  37.137   7.734
    7AU     LIG 2121   0.223  37.122   7.827
    7AU     LIG 2122   0.691  37.019   7.764
    7AU    AUSL 2123  42.912  37.212   7.519
    7AU    AUSL 2124  42.973  37.017   7.976
    7AU     AUL 2125  42.642  37.183   7.774
    7AU       S 2126  42.718  37.137   8.297
    7AU     LIG 2127  42.368  37.310   8.526
    7AU     LIG 2128  42.189  37.649   8.785
    7AU       S 2129  42.727  37.647   7.518
    7AU     LIG 2130  42.263  37.649   7.374
    7AU     LIG 2131  41.792  37.644   7.463
    7AU    AUSL 2132  42.843  36.906   7.292
    7AU    AUSL 2133  43.049  37.315   7.215
    7AU     AUL 2134  42.690  37.198   7.224
    7AU       S 2135  42.476  36.776   6.952
    7AU     LIG 2136  42.069  37.020   6.994
    7AU     LIG 2137  41.689  37.307   7.051
    7AU       S 2138  42.752  37.625   6.948
    7AU     LIG 2139  42.533  37.908   6.623
    7AU     LIG 2140  42.314  38.215   6.327
    7AU    AUSL 2141  42.826  36.883   7.695
    7AU    AUSL 2142  42.782  36.579   7.343
    7AU     AUL 2143  42.552  36.922   7.473
    7AU       S 2144  42.316  36.482   7.363
    7AU     LIG 2145  42.028  36.461   6.997
    7AU     LIG 2146  41.603  36.281   7.009
    7AU       S 2147  42.481  36.756   8.045
    7AU     LIG 2148  42.055  36.894   7.926
    7AU     LIG 2149  41.688  37.114   8.121
    7AU    AUSL 2150  44.224  36.305   7.478
    7AU    AUSL 2151  44.099  36.529   7.861
    7AU     AUL 2152  44.390  36.346   7.857
    7AU       S 2153  44.561  36.035   7.462
    7AU     LIG 2154  44.933  35.759   7.593
    7AU     LIG 2155   0.402  35.712   7.523
    7AU       S 2156  44.307  35.685   8.212
    7AU     LIG 2157  44.727  35.770   8.375
    7AU     LIG 2158  44.955  35.575   8.711
    7AU    AUSL 2159  44.314  36.601   7.294
    7AU    AUSL 2160  44.040  36.187   7.193
    7AU     AUL 2161  44.342  36.354   7.073
    7AU       S 2162  44.752  36.244   7.332
    7AU     LIG 2163   0.096  36.009   7.178
    7AU     LIG 2164   0.546  36.076   7.174
    7AU       S 2165  44.288  35.864   6.960
    7AU     LIG 2166  44.688  35.628   6.964
    7AU     LIG 2167  44.823  35.339   6.615
    7AU    AUSL 2168  43.025  36.327   7.498
    7AU    AUSL 2169  42.955  36.452   7.065
    7AU     AUL 2170  42.750  36.209   7.321
    7AU       S 2171  42.638  36.227   6.815
    7AU     LIG 2172  42.189  35.951   6.772
    7AU     LIG 2173  41.958  35.661   6.436
    7AU       S 2174  42.078  36.557   7.495
    7AU     LIG 2175  41.946  36.119   7.375
    7AU     LIG 2176  41.910  35.753   7.651
    7AU    AUSL 2177  42.809  36.545   7.686
    7AU    AUSL 2178  43.117  36.157   7.796
    7AU     AUL 2179  42.772  36.193   7.699
    7AU       S 2180  42.820  35.891   8.095
    7AU     LIG 2181  42.581  35.486   7.989
    7AU     LIG 2182  42.251  35.200   8.186
    7AU       S 2183  42.325  36.471   7.658
    7AU     LIG 2184  41.955  36.243   7.866
    7AU     LIG 2185  41.525  36.136   7.682
    7AU    AUSL 2186  43.575  37.410   7.986
    7AU    AUSL 2187  43.078  37.322   7.807
    7AU     AUL 2188  43.264  37.596   7.999
    7AU       S 2189  42.762  37.592   8.064
    7AU     LIG 2190  42.514  37.811   8.402
    7AU     LIG 2191  42.265  38.147   8.624
    7AU       S 2192  43.650  37.882   8.172
    7AU     LIG 2193  43.625  38.291   8.477
    7AU     LIG 2194  43.547  38.774   8.416
    7AU    AUSL 2195  43.370  37.460   7.673
    7AU    AUSL 2196  43.687  37.554   7.335
    7AU     AUL 2197  43.354  37.762   7.461
    7AU       S 2198  43.846  38.110   8.066
    7AU     LIG 2199  43.452  38.381   8.015
    7AU     LIG 2200  43.350  38.812   7.936
    7AU       S 2201  43.746  38.013   7.216
    7AU     LIG 2202  43.960  38.483   7.248
    7AU     LIG 2203  43.989  38.817   6.931
    7AU    AUSL 2204  43.724  37.527   7.678
    7AU    AUSL 2205  43.861  37.236   8.088
    7AU     AUL 2206  43.964  37.548   7.943
    7AU       S 2207  44.199  37.459   8.392
    7AU     LIG 2208  44.319  37.853   8.656
    7AU     LIG 2209  44.744  38.075   8.718
    7AU       S 2210  43.725  37.983   7.795
    7AU     LIG 2211  43.856  38.489   7.743
    7AU     LIG 2212  43.957  38.803   8.072
    7AU    AUSL 2213  43.615  36.181   7.955
    7AU    AUSL 2214  44.056  36.171   7.765
    7AU     AUL 2215  43.825  35.921   7.997
    7AU       S 2216  43.119  35.440   8.046
    7AU     LIG 2217  43.254  34.997   8.174
    7AU     LIG 2218  43.467  34.580   8.089
    7AU       S 2219  44.342  35.840   7.938
    7AU     LIG 2220  44.685  35.465   7.973
    7AU     LIG 2221  44.685  35.244   8.396
    7AU    AUSL 2222  43.401  35.996   7.683
    7AU    AUSL 2223  43.332  36.361   7.987
    7AU     AUL 2224  43.343  35.996   8.072
    7AU       S 2225  43.150  35.603   7.763
    7AU     LIG 2226  42.905  35.164   7.693
    7AU     LIG 2227  43.062  34.754   7.764
    7AU       S 2228  42.658  35.932   8.332
    7AU     LIG 2229  42.518  35.533   8.499
    7AU     LIG 2230  42.284  35.212   8.739
    7AU    AUSL 2231  43.754  36.050   7.660
    7AU    AUSL 2232  43.394  35.993   7.327
    7AU     AUL 2233  43.632  35.737   7.506
    7AU       S 2234  43.127  35.603   7.271
    7AU     LIG 2235  42.804  35.186   7.201
    7AU     LIG 2236  43.091  34.796   7.181
    7AU       S 2237  43.338  35.361   7.837
    7AU     LIG 2238  43.528  34.952   7.717
    7AU     LIG 2239  43.830  34.582   7.717
    7AU    AUSL 2240  43.560  37.419   7.021
    7AU    AUSL 2241  43.913  37.301   7.254
    7AU     AUL 2242  43.922  37.564   7.025
    7AU       S 2243  43.590  37.909   6.851
    7AU     LIG 2244  43.541  38.285   6.524
    7AU     LIG 2245  43.708  38.736   6.494
    7AU       S 2246  44.651  37.442   6.861
    7AU     LIG 2247  44.929  37.793   6.775
    7AU     LIG 2248  44.842  38.185   6.551
    7AU    AUSL 2249  43.362  37.408   7.334
    7AU    AUSL 2250  43.260  37.251   6.930
    7AU     AUL 2251  43.245  37.611   7.083
    7AU       S 2252  43.785  38.149   6.933
    7AU     LIG 2253  43.538  38.562   6.966
    7AU     LIG 2254  43.520  39.035   6.876
    7AU       S 2255  42.907  37.473   6.687
    7AU     LIG 2256  42.853  37.718   6.273
    7AU     LIG 2257  42.726  38.107   6.010
    7AU    AUSL 2258  43.573  36.190   7.065
    7AU    AUSL 2259  43.115  36.160   7.204
    7AU     AUL 2260  43.330  35.985   6.935
    7AU       S 2261  42.806  35.911   6.913
    7AU     LIG 2262  42.478  35.573   6.991
    7AU     LIG 2263  42.073  35.349   6.847
    7AU       S 2264  43.215  35.418   7.053
    7AU     LIG 2265  43.319  35.066   6.801
    7AU     LIG 2266  43.505  34.638   6.805
    7AU    AUSL 2267  43.756  36.053   7.326
    7AU    AUSL 2268  43.857  36.295   6.904
    7AU     AUL 2269  43.777  35.917   7.010
    7AU       S 2270  43.278  35.285   7.324
    7AU     LIG 2271  43.605  34.949   7.213
    7AU     LIG 2272  43.980  34.677   7.047
    7AU       S 2273  44.123  36.019   6.642
    7AU     LIG 2274  44.211  35.935   6.201
    7AU     LIG 2275  44.477  35.599   6.023
    8AU     AUC 2276  27.091  15.017   7.505
    8AU     AUC 2277  27.360  15.023   7.337
    8AU     AUC 2278  27.366  15.021   7.664
    8AU     AUC 2279  26.819  15.010   7.341
    8AU     AUC 2280  26.822  15.011   7.672
    8AU     AUC 2281  26.916  15.274   7.508
    8AU     AUC 2282  27.246  15.280   7.505
    8AU     AUC 2283  26.935  14.749   7.505
    8AU     AUC 2284  27.267  14.756   7.499
    8AU     AUC 2285  27.101  14.856   7.767
    8AU     AUC 2286  27.091  15.178   7.776
    8AU     AUC 2287  27.094  14.854   7.238
    8AU     AUC 2288  27.083  15.180   7.238
    8AU     AUC 2289  27.622  15.050   7.173
    8AU     AUC 2290  27.657  15.030   7.495
    8AU     AUC 2291  27.635  15.038   7.816
    8AU     AUC 2292  26.560  14.992   7.169
    8AU     AUC 2293  26.542  14.995   7.505
    8AU     AUC 2294  26.563  14.991   7.840
    8AU     AUC 2295  26.743  15.511   7.512
    8AU     AUC 2296  27.082  15.549   7.509
    8AU     AUC 2297  27.378  15.544   7.503
    8AU     AUC 2298  26.796  14.470   7.509
    8AU     AUC 2299  27.105  14.475   7.501
    8AU     AUC 2300  27.443  14.506   7.490
    8AU     AUC 2301  27.124  14.708   8.025
    8AU     AUC 2302  27.107  15.011   8.050
    8AU     AUC 2303  27.100  15.348   8.032
    8AU     AUC 2304  27.108  14.709   6.971
    8AU     AUC 2305  27.087  15.009   6.968
    8AU     AUC 2306  27.079  15.355   6.990
    8AU     AUC 2307  27.372  14.856   7.937
    8AU     AUC 2308  27.375  15.189   7.954
    8AU     AUC 2309  27.355  14.871   7.045
    8AU     AUC 2310  27.367  15.202   7.068
    8AU     AUC 2311  26.821  14.857   7.949
    8AU     AUC 2312  26.808  15.178   7.949
    8AU     AUC 2313  26.814  14.850   7.062
    8AU     AUC 2314  26.796  15.177   7.069
    8AU     AUC 2315  27.526  15.286   7.341
    8AU     AUC 2316  27.533  15.278   7.672
    8AU     AUC 2317  26.637  15.277   7.329
    8AU     AUC 2318  26.638  15.274   7.682
    8AU     AUC 2319  27.542  14.754   7.330
    8AU     AUC 2320  27.557  14.752   7.639
    8AU     AUC 2321  26.658  14.736   7.328
    8AU     AUC 2322  26.663  14.734   7.684
    8AU     AUC 2323  26.912  15.448   7.794
    8AU     AUC 2324  27.238  15.456   7.784
    8AU     AUC 2325  26.948  14.573   7.761
    8AU     AUC 2326  27.295  14.595   7.773
    8AU     AUC 2327  26.902  15.442   7.220
    8AU     AUC 2328  27.229  15.464   7.225
    8AU     AUC 2329  26.933  14.576   7.248
    8AU     AUC 2330  27.281  14.592   7.225
    8AU    AUSL 2331  27.553  14.989   8.136
    8AU    AUSL 2332  27.448  14.564   8.075
    8AU     AUL 2333  27.819  14.752   8.185
    8AU       S 2334  27.716  14.265   8.326
    8AU     LIG 2335  27.827  14.078   8.742
    8AU     LIG 2336  28.095  13.693   8.793
    8AU       S 2337  27.599  14.759   8.648
    8AU     LIG 2338  27.724  14.926   9.068
    8AU     LIG 2339  27.962  14.935   9.476
    8AU    AUSL 2340  27.261  14.821   8.249
    8AU    AUSL 2341  26.947  15.163   8.186
    8AU     AUL 2342  27.092  15.041   8.527
    8AU       S 2343  27.350  14.577   8.598
    8AU     LIG 2344  27.306  14.610   9.068
    8AU     LIG 2345  27.533  14.633   9.481
    8AU       S 2346  26.379  14.695   8.780
    8AU     LIG 2347  26.454  15.018   9.135
    8AU     LIG 2348  26.445  15.030   9.598
    8AU    AUSL 2349  27.282  15.215   8.257
    8AU    AUSL 2350  27.681  15.300   7.991
    8AU     AUL 2351  27.645  15.201   8.377
    8AU       S 2352  27.267  15.533   8.603
    8AU     LIG 2353  27.581  15.441   8.945
    8AU     LIG 2354  27.616  15.317   9.396
    8AU       S 2355  27.982  15.569   8.271
    8AU     LIG 2356  28.426  15.631   8.427
    8AU     LIG 2357  28.793  15.901   8.535
    8AU    AUSL 2358  27.559  15.080   6.838
    8AU    AUSL 2359  27.384  15.481   6.908
    8AU     AUL 2360  27.399  15.357   6.558
    8AU       S 2361  27.712  15.013   6.341
    8AU     LIG 2362  28.037  15.101   6.012
    8AU     LIG 2363  28.077  14.900   5.588
    8AU       S 2364  27.816  15.652   6.653
    8AU     LIG 2365  28.021  15.936   6.327
    8AU     LIG 2366  28.250  16.208   6.004
    8AU    AUSL 2367  27.294  14.842   6.738
    8AU    AUSL 2368  27.576  14.803   7.074
    8AU     AUL 2369  27.708  14.762   6.773
    8AU       S 2370  27.753  13.968   6.658
    8AU     LIG 2371  28.140  14.099   6.473
    8AU     LIG 2372  28.477  13.939   6.198
    8AU       S 2373  27.444  14.731   6.325
    8AU     LIG 2374  27.380  14.495   5.912
    8AU     LIG 2375  27.699  14.492   5.568
    8AU    AUSL 2376  27.227  15.185   6.824
    8AU    AUSL 2377  26.933  14.839   6.732
    8AU     AUL 2378  27.097  15.092   6.499
    8AU       S 2379  26.663  14.847   6.297
    8AU     LIG 2380  26.826  14.646   5.904
    8AU     LIG 2381  26.589  14.576   5.508
    8AU       S 2382  27.741  14.721   6.190
    8AU     LIG 2383  27.593  14.950   5.808
    8AU     LIG 2384  27.621  14.969   5.335
    8AU    AUSL 2385  26.620  14.985   8.161
    8AU    AUSL 2386  26.805  15.477   8.100
    8AU     AUL 2387  26.750  15.275   8.429
    8AU       S 2388  26.348  14.933   8.520
    8AU     LIG 2389  26.007  14.997   8.884
    8AU     LIG 2390  26.052  14.755   9.306
    8AU       S 2391  26.427  15.680   8.330
    8AU     LIG 2392  26.231  16.001   8.597
    8AU     LIG 2393  25.912  16.002   8.930
    8AU    AUSL 2394  26.915  14.816   8.271
    8AU    AUSL 2395  26.504  14.704   7.965
    8AU     AUL 2396  26.648  14.571   8.275
    8AU       S 2397  26.146  14.472   8.176
    8AU     LIG 2398  25.847  14.390   8.527
    8AU     LIG 2399  25.748  14.071   8.850
    8AU       S 2400  26.655  14.817   8.712
    8AU     LIG 2401  26.757  14.608   9.134
    8AU     LIG 2402  26.524  14.520   9.539
    8AU    AUSL 2403  26.610  14.956   6.853
    8AU    AUSL 2404  26.833  14.611   6.983
    8AU     AUL 2405  26.694  14.557   6.703
    8AU       S 2406  26.335  14.892   6.498
    8AU     LIG 2407  25.976  14.928   6.152
    8AU     LIG 2408  25.968  14.867   5.668
    8AU       S 2409  26.046  14.203   6.763
    8AU     LIG 2410  25.948  13.835   6.483
    8AU     LIG 2411  25.788  13.418   6.328
    8AU    AUSL 2412  26.892  15.182   6.844
    8AU    AUSL 2413  26.515  15.275   6.999
    8AU     AUL 2414  26.680  15.271   6.620
    8AU       S 2415  26.210  15.446   6.711
    8AU     LIG 2416  25.861  15.701   6.598
    8AU     LIG 2417  25.697  16.029   6.314
    8AU       S 2418  26.399  14.681   6.226
    8AU     LIG 2419  26.430  14.973   5.857
    8AU     LIG 2420  26.414  15.060   5.396
    8AU    AUSL 2421  27.695  15.480   7.485
    8AU    AUSL 2422  27.680  15.334   7.066
    8AU     AUL 2423  27.797  15.703   7.218
    8AU       S 2424  27.989  15.412   6.791
    8AU     LIG 2425  28.225  15.454   6.362
    8AU     LIG 2426  28.509  15.796   6.193
    8AU       S 2427  28.542  15.396   7.525
    8AU     LIG 2428  28.766  15.795   7.482
    8AU     LIG 2429  28.951  16.016   7.106
    8AU    AUSL 2430  27.862  15.203   7.332
    8AU    AUSL 2431  27.886  14.871   7.642
    8AU     AUL 2432  28.164  14.984   7.395
    8AU       S 2433  28.259  15.483   7.377
    8AU     LIG 2434  28.590  15.589   7.046
    8AU     LIG 2435  29.058  15.513   7.082
    8AU       S 2436  28.322  14.516   7.574
    8AU     LIG 2437  28.754  14.332   7.706
    8AU     LIG 2438  29.212  14.482   7.736
    8AU    AUSL 2439  27.851  15.223   7.695
    8AU    AUSL 2440  27.482  15.512   7.749
    8AU     AUL 2441  27.824  15.608   7.785
    8AU       S 2442  28.000  15.892   8.295
    8AU     LIG 2443  28.430  16.126   8.251
    8AU     LIG 2444  28.789  16.418   8.434
    8AU       S 2445  28.281  15.375   7.740
    8AU     LIG 2446  28.669  15.591   7.961
    8AU     LIG 2447  29.058  15.422   7.774
    8AU    AUSL 2448  26.449  15.469   7.519
    8AU    AUSL 2449  26.503  15.273   7.978
    8AU     AUL 2450  26.184  15.448   7.769
    8AU       S 2451  26.240  15.396   8.295
    8AU     LIG 2452  25.901  15.605   8.553
    8AU     LIG 2453  25.514  15.882   8.605
    8AU       S 2454  26.268  15.911   7.528
    8AU     LIG 2455  25.784  15.896   7.593
    8AU     LIG 2456  25.448  15.739   7.317
    8AU    AUSL 2457  26.375  15.160   7.293
    8AU    AUSL 2458  26.585  15.573   7.217
    8AU     AUL 2459  26.224  15.456   7.231
    8AU       S 2460  26.008  15.041   6.947
    8AU     LIG 2461  25.642  15.356   6.947
    8AU     LIG 2462  25.177  15.445   6.968
    8AU       S 2463  26.287  15.887   6.964
    8AU     LIG 2464  25.978  16.184   6.754
    8AU     LIG 2465  25.960  16.467   6.380
    8AU    AUSL 2466  26.356  15.141   7.694
    8AU    AUSL 2467  26.317  14.831   7.339
    8AU     AUL 2468  26.084  15.174   7.470
    8AU       S 2469  25.867  14.731   7.329
    8AU     LIG 2470  25.671  14.437   7.039
    8AU     LIG 2471  25.300  14.317   7.224
    8AU       S 2472  25.982  15.038   8.019
    8AU     LIG 2473  25.598  15.361   7.901
    8AU     LIG 2474  25.307  15.761   7.848
    8AU    AUSL 2475  27.752  14.557   7.479
    8AU    AUSL 2476  27.629  14.784   7.865
    8AU     AUL 2477  27.925  14.608   7.859
    8AU       S 2478  28.069  14.289   7.458
    8AU     LIG 2479  28.391  13.985   7.457
    8AU     LIG 2480  28.698  13.805   7.722
    8AU       S 2481  27.826  13.953   8.254
    8AU     LIG 2482  28.239  14.042   8.428
    8AU     LIG 2483  28.585  13.854   8.681
    8AU    AUSL 2484  27.843  14.851   7.292
    8AU    AUSL 2485  27.569  14.442   7.191
    8AU     AUL 2486  27.870  14.608   7.072
    8AU       S 2487  28.285  14.482   7.315
    8AU     LIG 2488  28.715  14.309   7.204
    8AU     LIG 2489  29.176  14.436   7.226
    8AU       S 2490  27.811  14.124   6.934
    8AU     LIG 2491  28.189  13.871   6.937
    8AU     LIG 2492  28.293  13.602   6.566
    8AU    AUSL 2493  26.563  14.588   7.499
    8AU    AUSL 2494  26.493  14.701   7.068
    8AU     AUL 2495  26.296  14.455   7.322
    8AU       S 2496  26.170  14.513   6.822
    8AU     LIG 2497  25.789  14.569   6.532
    8AU     LIG 2498  25.641  14.215   6.261
    8AU       S 2499  25.677  14.688   7.484
    8AU     LIG 2500  25.704  14.247   7.530
    8AU     LIG 2501  25.401  13.967   7.627
    8AU    AUSL 2502  26.338  14.804   7.684
    8AU    AUSL 2503  26.644  14.414   7.799
    8AU     AUL 2504  26.314  14.450   7.691
    8AU       S 2505  26.320  14.142   8.085
    8AU     LIG 2506  26.095  13.695   7.987
    8AU     LIG 2507  25.767  13.490   8.276
    8AU       S 2508  25.871  14.719   7.650
    8AU     LIG 2509  25.567  14.500   7.957
    8AU     LIG 2510  25.180  14.230   8.013
    8AU    AUSL 2511  27.107  15.663   7.985
    8AU    AUSL 2512  26.611  15.577   7.809
    8AU     AUL 2513  26.795  15.854   7.993
    8AU       S 2514  26.290  15.852   8.066
    8AU     LIG 2515  25.871  16.016   8.229
    8AU     LIG 2516  25.754  16.336   8.559
    8AU       S 2517  27.192  16.089   8.210
    8AU     LIG 2518  27.053  16.479   8.482
    8AU     LIG 2519  27.154  16.942   8.425
    8AU    AUSL 2520  26.903  15.710   7.673
    8AU    AUSL 2521  27.228  15.803   7.331
    8AU     AUL 2522  26.904  16.016   7.467
    8AU       S 2523  27.347  16.355   8.105
    8AU     LIG 2524  26.981  16.669   8.008
    8AU     LIG 2525  26.723  17.040   8.124
    8AU       S 2526  27.265  16.255   7.173
    8AU     LIG 2527  27.491  16.689   7.255
    8AU     LIG 2528  27.474  17.106   7.045
    8AU    AUSL 2529  27.256  15.777   7.676
    8AU    AUSL 2530  27.392  15.492   8.087
    8AU     AUL 2531  27.504  15.799   7.923
    8AU       S 2532  27.686  15.727   8.393
    8AU     LIG 2533  27.908  15.835   8.780
    8AU     LIG 2534  28.329  16.030   8.760
    8AU       S 2535  27.246  16.231   7.834
    8AU     LIG 2536  27.421  16.714   7.772
    8AU     LIG 2537  27.250  17.136   7.949
    8AU    AUSL 2538  27.138  14.436   7.975
    8AU    AUSL 2539  27.588  14.427   7.771
    8AU     AUL 2540  27.349  14.172   7.984
    8AU       S 2541  26.642  13.718   8.088
    8AU     LIG 2542  26.810  13.326   8.304
    8AU     LIG 2543  26.930  12.872   8.224
    8AU       S 2544  27.860  14.119   7.989
    8AU     LIG 2545  28.231  13.837   7.957
    8AU     LIG 2546  28.402  13.549   8.288
    8AU    AUSL 2547  26.931  14.252   7.698
    8AU    AUSL 2548  26.856  14.620   7.992
    8AU     AUL 2549  26.854  14.261   8.088
    8AU       S 2550  26.697  13.857   7.783
    8AU     LIG 2551  26.480  13.420   7.734
    8AU     LIG 2552  26.468  13.063   8.041
    8AU       S 2553  25.984  14.188   8.086
    8AU     LIG 2554  26.041  13.903   8.456
    8AU     LIG 2555  25.923  13.562   8.762
    8AU    AUSL 2556  27.275  14.337   7.667
    8AU    AUSL 2557  26.934  14.240   7.341
    8AU     AUL 2558  27.185  14.005   7.549
    8AU       S 2559  26.738  13.822   7.287
    8AU     LIG 2560  26.464  13.401   7.196
    8AU     LIG 2561  26.487  12.961   7.034
    8AU       S 2562  26.890  13.632   7.917
    8AU     LIG 2563  26.926  13.165   7.790
    8AU     LIG 2564  27.128  12.724   7.741
    8AU    AUSL 2565  27.098  15.667   7.019
    8AU    AUSL 2566  27.455  15.548   7.252
    8AU     AUL 2567  27.469  15.807   7.029
    8AU       S 2568  27.134  16.130   6.818
    8AU     LIG 2569  27.019  16.504   6.520
    8AU     LIG 2570  27.192  16.942   6.466
    8AU       S 2571  28.140  15.700   6.780
    8AU     LIG 2572  28.427  16.029   6.654
    8AU     LIG 2573  28.638  16.320   6.345
    8AU    AUSL 2574  26.901  15.662   7.333
    8AU    AUSL 2575  26.793  15.506   6.932
    8AU     AUL 2576  26.786  15.867   7.085
    8AU       S 2577  27.327  16.390   6.893
    8AU     LIG 2578  27.065  16.790   6.952
    8AU     LIG 2579  26.776  17.108   6.727
    8AU       S 2580  26.434  15.734   6.700
    8AU     LIG 2581  26.226  15.983   6.347
    8AU     LIG 2582  26.042  16.184   5.947
    8AU    AUSL 2583  27.105  14.438   7.080
    8AU    AUSL 2584  26.653  14.407   7.211
    8AU     AUL 2585  26.862  14.226   6.948
    8AU       S 2586  26.329  14.177   6.900
    8AU     LIG 2587  26.129  13.733   6.964
    8AU     LIG 2588  25.733  13.526   6.831
    8AU       S 2589  26.915  13.610   7.120
    8AU     LIG 2590  26.759  13.316   6.785
    8AU     LIG 2591  26.615  12.940   6.536
    8AU    AUSL 2592  27.297  14.297   7.336
    8AU    AUSL 2593  27.380  14.544   6.904
    8AU     AUL 2594  27.306  14.167   7.017
    8AU       S 2595  26.882  13.538   7.413
    8AU     LIG 2596  26.924  13.111   7.263
    8AU     LIG 2597  26.993  12.834   6.892
    8AU       S 2598  27.628  14.270   6.626
    8AU     LIG 2599  27.724  14.188   6.182
    8AU     LIG 2600  27.986  13.829   6.033
    9AU     AUC 2601  38.037  11.947   7.503
    9AU     AUC 2602  38.306  11.953   7.335
    9AU     AUC 2603  38.311  11.950   7.662
    9AU     AUC 2604  37.764  11.943   7.340
    9AU     AUC 2605  37.768  11.943   7.670
    9AU     AUC 2606  37.862  12.206   7.505
    9AU     AUC 2607  38.193  12.210   7.503
    9AU     AUC 2608  37.880  11.681   7.504
    9AU     AUC 2609  38.212  11.684   7.498
    9AU     AUC 2610  38.047  11.785   7.765
    9AU     AUC 2611  38.037  12.109   7.773
    9AU     AUC 2612  38.039  11.786   7.237
    9AU     AUC 2613  38.030  12.111   7.236
    9AU     AUC 2614  38.568  11.979   7.171
    9AU     AUC 2615  38.602  11.958   7.494
    9AU     AUC 2616  38.580  11.966   7.813
    9AU     AUC 2617  37.503  11.924   7.169
    9AU     AUC 2618  37.486  11.929   7.506
    9AU     AUC 2619  37.509  11.926   7.839
    9AU     AUC 2620  37.690  12.444   7.507
    9AU     AUC 2621  38.029  12.479   7.505
    9AU     AUC 2622  38.325  12.473   7.501
    9AU     AUC 2623  37.739  11.404   7.506
    9AU     AUC 2624  38.050  11.403   7.502
    9AU     AUC 2625  38.387  11.430   7.491
    9AU     AUC 2626  38.070  11.638   8.023
    9AU     AUC 2627  38.052  11.942   8.048
    9AU     AUC 2628  38.047  12.280   8.029
    9AU     AUC 2629  38.054  11.642   6.970
    9AU     AUC 2630  38.036  11.940   6.966
    9AU     AUC 2631  38.028  12.286   6.987
    9AU     AUC 2632  38.316  11.784   7.934
    9AU     AUC 2633  38.320  12.117   7.953
    9AU     AUC 2634  38.303  11.801   7.045
    9AU     AUC 2635  38.315  12.133   7.065
    9AU     AUC 2636  37.768  11.787   7.947
    9AU     AUC 2637  37.755  12.112   7.945
    9AU     AUC 2638  37.760  11.786   7.062
    9AU     AUC 2639  37.742  12.108   7.066
    9AU     AUC 2640  38.472  12.216   7.338
    9AU     AUC 2641  38.477  12.208   7.671
    9AU     AUC 2642  37.582  12.208   7.325
    9AU     AUC 2643  37.584  12.208   7.678
    9AU     AUC 2644  38.487  11.681   7.329
    9AU     AUC 2645  38.503  11.680   7.636
    9AU     AUC 2646  37.600  11.672   7.329
    9AU     AUC 2647  37.609  11.667   7.686
    9AU     AUC 2648  37.859  12.382   7.790
    9AU     AUC 2649  38.186  12.386   7.782
    9AU     AUC 2650  37.893  11.504   7.759
    9AU     AUC 2651  38.242  11.519   7.768
    9AU     AUC 2652  37.848  12.371   7.215
    9AU     AUC 2653  38.176  12.394   7.221
    9AU     AUC 2654  37.876  11.511   7.247
    9AU     AUC 2655  38.224  11.523   7.224
    9AU    AUSL 2656  38.496  11.914   8.132
    9AU    AUSL 2657  38.397  11.499   8.076
    9AU     AUL 2658  38.771  11.691   8.176
    9AU       S 2659  38.689  11.199   8.325
    9AU     LIG 2660  38.881  11.014   8.740
    9AU     LIG 2661  39.157  10.642   8.883
    9AU       S 2662  38.554  11.673   8.637
    9AU     LIG 2663  38.730  11.887   9.013
    9AU     LIG 2664  39.004  11.924   9.400
    9AU    AUSL 2665  38.203  11.751   8.249
    9AU    AUSL 2666  37.892  12.098   8.183
    9AU     AUL 2667  38.030  11.970   8.528
    9AU       S 2668  38.294  11.510   8.598
    9AU     LIG 2669  38.292  11.592   9.071
    9AU     LIG 2670  38.539  11.687   9.458
    9AU       S 2671  37.265  11.690   8.761
    9AU     LIG 2672  37.338  11.993   9.125
    9AU     LIG 2673  37.243  12.090   9.576
    9AU    AUSL 2674  38.226  12.141   8.257
    9AU    AUSL 2675  38.626  12.225   7.992
    9AU     AUL 2676  38.585  12.120   8.377
    9AU       S 2677  38.222  12.457   8.606
    9AU     LIG 2678  38.550  12.388   8.938
    9AU     LIG 2679  38.586  12.231   9.380
    9AU       S 2680  38.955  12.453   8.261
    9AU     LIG 2681  39.392  12.532   8.460
    9AU     LIG 2682  39.660  12.850   8.712
    9AU    AUSL 2683  38.509  12.007   6.837
    9AU    AUSL 2684  38.331  12.414   6.905
    9AU     AUL 2685  38.365  12.279   6.556
    9AU       S 2686  38.621  11.899   6.316
    9AU     LIG 2687  38.947  11.925   5.959
    9AU     LIG 2688  38.928  11.665   5.565
    9AU       S 2689  38.750  12.609   6.651
    9AU     LIG 2690  38.932  12.968   6.374
    9AU     LIG 2691  39.311  13.204   6.221
    9AU    AUSL 2692  38.245  11.770   6.740
    9AU    AUSL 2693  38.524  11.728   7.071
    9AU     AUL 2694  38.667  11.697   6.770
    9AU       S 2695  38.695  10.895   6.666
    9AU     LIG 2696  39.092  10.974   6.475
    9AU     LIG 2697  39.429  10.792   6.211
    9AU       S 2698  38.366  11.617   6.339
    9AU     LIG 2699  38.282  11.368   5.921
    9AU     LIG 2700  38.462  11.403   5.479
    9AU    AUSL 2701  38.178  12.117   6.818
    9AU    AUSL 2702  37.885  11.773   6.730
    9AU     AUL 2703  38.051  12.019   6.494
    9AU       S 2704  37.608  11.779   6.290
    9AU     LIG 2705  37.756  11.539   5.907
    9AU     LIG 2706  37.517  11.456   5.511
    9AU       S 2707  38.642  11.599   6.189
    9AU     LIG 2708  38.473  11.825   5.804
    9AU     LIG 2709  38.509  11.910   5.339
    9AU    AUSL 2710  37.565  11.922   8.156
    9AU    AUSL 2711  37.753  12.410   8.093
    9AU     AUL 2712  37.698  12.217   8.423
    9AU       S 2713  37.280  11.884   8.481
    9AU     LIG 2714  36.962  12.089   8.775
    9AU     LIG 2715  36.833  11.991   9.222
    9AU       S 2716  37.371  12.619   8.320
    9AU     LIG 2717  37.155  12.778   8.679
    9AU     LIG 2718  36.863  13.110   8.805
    9AU    AUSL 2719  37.858  11.753   8.269
    9AU    AUSL 2720  37.455  11.635   7.968
    9AU     AUL 2721  37.597  11.508   8.284
    9AU       S 2722  37.092  11.430   8.177
    9AU     LIG 2723  36.637  11.348   8.356
    9AU     LIG 2724  36.513  10.965   8.603
    9AU       S 2725  37.564  11.780   8.704
    9AU     LIG 2726  37.625  11.574   9.127
    9AU     LIG 2727  37.356  11.579   9.519
    9AU    AUSL 2728  37.561  11.884   6.849
    9AU    AUSL 2729  37.773  11.553   6.984
    9AU     AUL 2730  37.663  11.487   6.693
    9AU       S 2731  37.294  11.818   6.497
    9AU     LIG 2732  36.973  11.941   6.149
    9AU     LIG 2733  36.878  11.815   5.692
    9AU       S 2734  37.177  11.203   6.623
    9AU     LIG 2735  36.961  10.858   6.448
    9AU     LIG 2736  36.742  10.613   6.133
    9AU    AUSL 2737  37.843  12.112   6.843
    9AU    AUSL 2738  37.459  12.201   6.995
    9AU     AUL 2739  37.631  12.200   6.618
    9AU       S 2740  37.153  12.362   6.702
    9AU     LIG 2741  36.824  12.661   6.576
    9AU     LIG 2742  36.695  13.013   6.281
    9AU       S 2743  37.337  11.607   6.228
    9AU     LIG 2744  37.374  11.869   5.822
    9AU     LIG 2745  37.281  11.907   5.349
    9AU    AUSL 2746  38.640  12.409   7.486
    9AU    AUSL 2747  38.627  12.266   7.063
    9AU     AUL 2748  38.748  12.631   7.225
    9AU       S 2749  38.942  12.367   6.794
    9AU     LIG 2750  39.386  12.405   6.569
    9AU     LIG 2751  39.599  12.776   6.363
    9AU       S 2752  39.480  12.294   7.558
    9AU     LIG 2753  39.666  12.713   7.509
    9AU     LIG 2754  39.705  12.948   7.117
    9AU    AUSL 2755  38.805  12.133   7.332
    9AU    AUSL 2756  38.836  11.801   7.638
    9AU     AUL 2757  39.107  11.919   7.369
    9AU       S 2758  39.209  12.413   7.414
    9AU     LIG 2759  39.553  12.451   7.079
    9AU     LIG 2760  40.028  12.520   7.150
    9AU       S 2761  39.277  11.471   7.581
    9AU     LIG 2762  39.670  11.251   7.761
    9AU     LIG 2763  40.116  11.109   7.909
    9AU    AUSL 2764  38.794  12.151   7.695
    9AU    AUSL 2765  38.432  12.445   7.754
    9AU     AUL 2766  38.771  12.537   7.787
    9AU       S 2767  38.962  12.769   8.306
    9AU     LIG 2768  39.365  13.017   8.311
    9AU     LIG 2769  39.601  13.392   8.434
    9AU       S 2770  39.222  12.277   7.770
    9AU     LIG 2771  39.651  12.470   7.976
    9AU     LIG 2772  40.022  12.377   7.683
    9AU    AUSL 2773  37.396  12.402   7.511
    9AU    AUSL 2774  37.451  12.212   7.972
    9AU     AUL 2775  37.136  12.392   7.761
    9AU       S 2776  37.188  12.351   8.292
    9AU     LIG 2777  36.785  12.479   8.495
    9AU     LIG 2778  36.478  12.813   8.599
    9AU       S 2779  37.202  12.843   7.495
    9AU     LIG 2780  36.720  12.819   7.358
    9AU     LIG 2781  36.283  12.907   7.512
    9AU    AUSL 2782  37.317  12.092   7.292
    9AU    AUSL 2783  37.530  12.501   7.208
    9AU     AUL 2784  37.169  12.384   7.223
    9AU       S 2785  36.933  11.971   6.965
    9AU     LIG 2786  36.525  12.258   7.069
    9AU     LIG 2787  36.244  12.655   7.066
    9AU       S 2788  37.232  12.810   6.947
    9AU     LIG 2789  36.960  13.136   6.729
    9AU     LIG 2790  36.893  13.493   6.424
    9AU    AUSL 2791  37.300  12.078   7.694
    9AU    AUSL 2792  37.257  11.765   7.348
    9AU     AUL 2793  37.023  12.105   7.474
    9AU       S 2794  36.794  11.652   7.380
    9AU     LIG 2795  36.548  11.326   7.139
    9AU     LIG 2796  36.102  11.292   6.984
    9AU       S 2797  36.926  12.007   8.035
    9AU     LIG 2798  36.612  12.425   8.026
    9AU     LIG 2799  36.187  12.655   7.980
    9AU    AUSL 2800  38.698  11.483   7.479
    9AU    AUSL 2801  38.575  11.714   7.858
    9AU     AUL 2802  38.867  11.533   7.855
    9AU       S 2803  39.037  11.215   7.465
    9AU     LIG 2804  39.411  10.913   7.451
    9AU     LIG 2805  39.789  10.754   7.713
    9AU       S 2806  38.863  10.921   8.252
    9AU     LIG 2807  39.300  10.854   8.438
    9AU     LIG 2808  39.652  10.566   8.617
    9AU    AUSL 2809  38.785  11.778   7.291
    9AU    AUSL 2810  38.513  11.366   7.194
    9AU     AUL 2811  38.816  11.528   7.075
    9AU       S 2812  39.233  11.416   7.325
    9AU     LIG 2813  39.680  11.294   7.245
    9AU     LIG 2814  40.101  11.150   7.398
    9AU       S 2815  38.749  11.047   6.932
    9AU     LIG 2816  39.152  10.825   6.970
    9AU     LIG 2817  39.370  10.530   6.671
    9AU    AUSL 2818  37.505  11.523   7.501
    9AU    AUSL 2819  37.431  11.642   7.070
    9AU     AUL 2820  37.231  11.395   7.321
    9AU       S 2821  37.129  11.443   6.814
    9AU     LIG 2822  36.688  11.292   6.648
    9AU     LIG 2823  36.447  10.982   6.387
    9AU       S 2824  36.664  11.667   7.570
    9AU     LIG 2825  36.556  11.227   7.635
    9AU     LIG 2826  36.210  11.042   7.439
    9AU    AUSL 2827  37.283  11.739   7.694
    9AU    AUSL 2828  37.594  11.346   7.799
    9AU     AUL 2829  37.264  11.379   7.691
    9AU       S 2830  37.283  11.082   8.094
    9AU     LIG 2831  37.049  10.675   7.891
    9AU     LIG 2832  36.663  10.381   7.998
    9AU       S 2833  36.825  11.650   7.717
    9AU     LIG 2834  36.358  11.568   7.949
    9AU     LIG 2835  35.878  11.547   8.016
    9AU    AUSL 2836  38.057  12.596   7.979
    9AU    AUSL 2837  37.559  12.515   7.800
    9AU     AUL 2838  37.749  12.780   7.996
    9AU       S 2839  37.246  12.800   8.052
    9AU     LIG 2840  36.866  12.956   8.282
    9AU     LIG 2841  36.566  13.304   8.420
    9AU       S 2842  38.134  13.091   8.121
    9AU     LIG 2843  38.236  13.523   8.337
    9AU     LIG 2844  38.273  13.938   8.596
    9AU    AUSL 2845  37.855  12.644   7.667
    9AU    AUSL 2846  38.168  12.732   7.330
    9AU     AUL 2847  37.823  12.938   7.449
    9AU       S 2848  37.990  13.321   7.931
    9AU     LIG 2849  37.949  13.777   7.980
    9AU     LIG 2850  37.978  14.154   8.232
    9AU       S 2851  38.205  13.184   7.197
    9AU     LIG 2852  38.223  13.662   7.303
    9AU     LIG 2853  38.135  14.015   7.006
    9AU    AUSL 2854  38.211  12.706   7.671
    9AU    AUSL 2855  38.337  12.418   8.089
    9AU     AUL 2856  38.448  12.730   7.946
    9AU       S 2857  38.663  12.633   8.403
    9AU     LIG 2858  38.889  12.788   8.800
    9AU     LIG 2859  39.252  13.074   8.930
    9AU       S 2860  38.209  13.151   7.763
    9AU     LIG 2861  38.408  13.582   7.820
    9AU     LIG 2862  38.444  13.943   8.111
    9AU    AUSL 2863  38.090  11.369   7.959
    9AU    AUSL 2864  38.531  11.356   7.771
    9AU     AUL 2865  38.301  11.109   8.007
    9AU       S 2866  37.562  10.642   8.045
    9AU     LIG 2867  37.708  10.289   8.306
    9AU     LIG 2868  37.726   9.822   8.314
    9AU       S 2869  38.812  11.042   7.976
    9AU     LIG 2870  39.252  10.844   7.926
    9AU     LIG 2871  39.529  10.510   8.109
    9AU    AUSL 2872  37.877  11.182   7.689
    9AU    AUSL 2873  37.805  11.544   7.999
    9AU     AUL 2874  37.814  11.181   8.078
    9AU       S 2875  37.628  10.787   7.765
    9AU     LIG 2876  37.399  10.335   7.692
    9AU     LIG 2877  37.332  10.055   8.053
    9AU       S 2878  36.997  11.127   8.117
    9AU     LIG 2879  36.929  10.759   8.372
    9AU     LIG 2880  36.702  10.433   8.575
    9AU    AUSL 2881  38.230  11.233   7.667
    9AU    AUSL 2882  37.866  11.178   7.333
    9AU     AUL 2883  38.104  10.921   7.512
    9AU       S 2884  37.592  10.798   7.275
    9AU     LIG 2885  37.267  10.391   7.193
    9AU     LIG 2886  37.481   9.957   7.173
    9AU       S 2887  37.807  10.543   7.872
    9AU     LIG 2888  37.823  10.067   7.829
    9AU     LIG 2889  38.080   9.684   7.956
    9AU    AUSL 2890  38.044  12.598   7.016
    9AU    AUSL 2891  38.402  12.480   7.251
    9AU     AUL 2892  38.413  12.742   7.034
    9AU       S 2893  38.084  13.074   6.829
    9AU     LIG 2894  38.035  13.433   6.487
    9AU     LIG 2895  37.987  13.914   6.501
    9AU       S 2896  39.051  12.692   6.770
    9AU     LIG 2897  39.359  13.047   6.723
    9AU     LIG 2898  39.732  13.305   6.526
    9AU    AUSL 2899  37.844  12.587   7.327
    9AU    AUSL 2900  37.740  12.434   6.926
    9AU     AUL 2901  37.730  12.794   7.074
    9AU       S 2902  38.265  13.333   6.922
    9AU     LIG 2903  37.860  13.585   6.939
    9AU     LIG 2904  37.621  13.995   6.864
    9AU       S 2905  37.378  12.656   6.689
    9AU     LIG 2906  37.211  12.924   6.329
    9AU     LIG 2907  37.065  13.239   5.993
    9AU    AUSL 2908  38.044  11.374   7.073
    9AU    AUSL 2909  37.590  11.348   7.208
    9AU     AUL 2910  37.805  11.170   6.940
    9AU       S 2911  37.280  11.114   6.903
    9AU     LIG 2912  36.936  10.785   6.960
    9AU     LIG 2913  36.594  10.590   6.691
    9AU       S 2914  37.690  10.613   7.060
    9AU     LIG 2915  37.702  10.248   6.810
    9AU     LIG 2916  37.878   9.814   6.781
    9AU    AUSL 2917  38.229  11.237   7.333
    9AU    AUSL 2918  38.326  11.472   6.906
    9AU     AUL 2919  38.245  11.096   7.019
    9AU       S 2920  37.734  10.492   7.336
    9AU     LIG 2921  37.966  10.098   7.245
    9AU     LIG 2922  38.227   9.717   7.157
    9AU       S 2923  38.570  11.201   6.628
    9AU     LIG 2924  38.660  11.085   6.186
    9AU     LIG 2925  38.929  10.746   6.026
   10AU     AUC 2926  32.768   0.365   7.500
   10AU     AUC 2927  33.036   0.373   7.330
   10AU     AUC 2928  33.045   0.372   7.657
   10AU     AUC 2929  32.492   0.357   7.339
   10AU     AUC 2930  32.501   0.359   7.669
   10AU     AUC 2931  32.590   0.621   7.504
   10AU     AUC 2932  32.922   0.629   7.497
   10AU     AUC 2933  32.611   0.098   7.502
   10AU     AUC 2934  32.944   0.105   7.494
   10AU     AUC 2935  32.783   0.205   7.762
   10AU     AUC 2936  32.771   0.528   7.770
   10AU     AUC 2937  32.770   0.204   7.234
   10AU     AUC 2938  32.756   0.528   7.233
   10AU     AUC 2939  33.298   0.402   7.165
   10AU     AUC 2940  33.336   0.381   7.485
   10AU     AUC 2941  33.315   0.392   7.806
   10AU     AUC 2942  32.229   0.336   7.169
   10AU     AUC 2943  32.216   0.341   7.506
   10AU     AUC 2944  32.245   0.338   7.840
   10AU     AUC 2945  32.414   0.855   7.509
   10AU     AUC 2946  32.756   0.895   7.501
   10AU     AUC 2947  33.051   0.893   7.491
   10AU     AUC 2948  32.471  44.820   7.505
   10AU     AUC 2949  32.783  44.821   7.497
   10AU     AUC 2950  33.118  44.852   7.487
   10AU     AUC 2951  32.810   0.056   8.020
   10AU     AUC 2952  32.793   0.363   8.044
   10AU     AUC 2953  32.785   0.701   8.024
   10AU     AUC 2954  32.786   0.062   6.967
   10AU     AUC 2955  32.761   0.357   6.965
   10AU     AUC 2956  32.748   0.702   6.985
   10AU     AUC 2957  33.053   0.206   7.932
   10AU     AUC 2958  33.058   0.542   7.945
   10AU     AUC 2959  33.034   0.221   7.039
   10AU     AUC 2960  33.040   0.553   7.063
   10AU     AUC 2961  32.506   0.206   7.945
   10AU     AUC 2962  32.491   0.528   7.944
   10AU     AUC 2963  32.487   0.200   7.062
   10AU     AUC 2964  32.466   0.521   7.066
   10AU     AUC 2965  33.199   0.638   7.330
   10AU     AUC 2966  33.212   0.631   7.659
   10AU     AUC 2967  32.307   0.620   7.327
   10AU     AUC 2968  32.314   0.621   7.680
   10AU     AUC 2969  33.220   0.105   7.324
   10AU     AUC 2970  33.232   0.102   7.634
   10AU     AUC 2971  32.328   0.084   7.329
   10AU     AUC 2972  32.342   0.081   7.683
   10AU     AUC 2973  32.591   0.796   7.789
   10AU     AUC 2974  32.920   0.807   7.775
   10AU     AUC 2975  32.629  44.921   7.756
   10AU     AUC 2976  32.975  44.939   7.766
   10AU     AUC 2977  32.570   0.785   7.214
   10AU     AUC 2978  32.898   0.813   7.216
   10AU     AUC 2979  32.608  44.928   7.247
   10AU     AUC 2980  32.959  44.944   7.222
   10AU    AUSL 2981  33.239   0.349   8.128
   10AU    AUSL 2982  33.130  44.909   8.072
   10AU     AUL 2983  33.484   0.091   8.195
   10AU       S 2984  33.460  44.575   8.275
   10AU     LIG 2985  33.526  44.284   8.666
   10AU     LIG 2986  33.709  43.846   8.707
   10AU       S 2987  33.277   0.162   8.661
   10AU     LIG 2988  33.412   0.313   9.079
   10AU     LIG 2989  33.646   0.318   9.486
   10AU    AUSL 2990  32.951   0.174   8.244
   10AU    AUSL 2991  32.634   0.517   8.177
   10AU     AUL 2992  32.771   0.394   8.520
   10AU       S 2993  33.049  44.948   8.600
   10AU     LIG 2994  33.005  44.980   9.073
   10AU     LIG 2995  33.251  44.968   9.473
   10AU       S 2996  32.032   0.093   8.781
   10AU     LIG 2997  32.150   0.378   9.160
   10AU     LIG 2998  32.069   0.481   9.617
   10AU    AUSL 2999  32.968   0.568   8.252
   10AU    AUSL 3000  33.366   0.657   7.973
   10AU     AUL 3001  33.340   0.569   8.354
   10AU       S 3002  32.960   0.881   8.598
   10AU     LIG 3003  33.294   0.832   8.925
   10AU     LIG 3004  33.339   0.730   9.381
   10AU       S 3005  33.665   0.945   8.247
   10AU     LIG 3006  34.119   1.029   8.311
   10AU     LIG 3007  34.306   1.180   8.693
   10AU    AUSL 3008  33.238   0.431   6.834
   10AU    AUSL 3009  33.049   0.833   6.900
   10AU     AUL 3010  33.057   0.701   6.550
   10AU       S 3011  33.473   0.439   6.398
   10AU     LIG 3012  33.763   0.519   6.000
   10AU     LIG 3013  33.807   0.217   5.635
   10AU       S 3014  33.476   0.994   6.645
   10AU     LIG 3015  33.615   1.257   6.306
   10AU     LIG 3016  33.834   1.552   6.033
   10AU    AUSL 3017  32.969   0.194   6.728
   10AU    AUSL 3018  33.259   0.155   7.067
   10AU     AUL 3019  33.360   0.087   6.750
   10AU       S 3020  33.459  44.262   6.758
   10AU     LIG 3021  33.906  44.337   6.656
   10AU     LIG 3022  34.326  44.207   6.495
   10AU       S 3023  33.167   0.183   6.288
   10AU     LIG 3024  33.164  44.904   5.882
   10AU     LIG 3025  33.377  44.947   5.454
   10AU    AUSL 3026  32.901   0.530   6.823
   10AU    AUSL 3027  32.611   0.188   6.729
   10AU     AUL 3028  32.759   0.441   6.497
   10AU       S 3029  32.339   0.178   6.284
   10AU     LIG 3030  32.390  44.929   5.861
   10AU     LIG 3031  32.042  44.947   5.544
   10AU       S 3032  33.461   0.178   6.188
   10AU     LIG 3033  33.327   0.376   5.780
   10AU     LIG 3034  33.510   0.562   5.388
   10AU    AUSL 3035  32.309   0.336   8.158
   10AU    AUSL 3036  32.490   0.828   8.093
   10AU     AUL 3037  32.444   0.631   8.424
   10AU       S 3038  32.037   0.287   8.494
   10AU     LIG 3039  31.798   0.541   8.815
   10AU     LIG 3040  31.654   0.442   9.265
   10AU       S 3041  32.114   1.030   8.328
   10AU     LIG 3042  32.070   1.249   8.724
   10AU     LIG 3043  31.833   1.597   8.907
   10AU    AUSL 3044  32.606   0.172   8.264
   10AU    AUSL 3045  32.192   0.052   7.971
   10AU     AUL 3046  32.361  44.925   8.285
   10AU       S 3047  31.856  44.850   8.208
   10AU     LIG 3048  31.481  44.580   8.161
   10AU     LIG 3049  31.478  44.225   8.464
   10AU       S 3050  32.320   0.188   8.708
   10AU     LIG 3051  32.445  44.970   9.112
   10AU     LIG 3052  32.246  44.986   9.548
   10AU    AUSL 3053  32.286   0.294   6.850
   10AU    AUSL 3054  32.505  44.970   6.986
   10AU     AUL 3055  32.400  44.901   6.693
   10AU       S 3056  32.017   0.223   6.498
   10AU     LIG 3057  31.734   0.419   6.136
   10AU     LIG 3058  31.690   0.334   5.650
   10AU       S 3059  31.998  44.517   6.637
   10AU     LIG 3060  31.839  44.205   6.358
   10AU     LIG 3061  31.612  44.108   5.960
   10AU    AUSL 3062  32.565   0.527   6.842
   10AU    AUSL 3063  32.181   0.612   6.996
   10AU     AUL 3064  32.352   0.605   6.616
   10AU       S 3065  31.879   0.774   6.703
   10AU     LIG 3066  31.669   1.037   6.383
   10AU     LIG 3067  31.322   1.330   6.273
   10AU       S 3068  32.051   0.044   6.215
   10AU     LIG 3069  32.158   0.376   5.856
   10AU     LIG 3070  32.129   0.584   5.442
   10AU    AUSL 3071  33.369   0.830   7.466
   10AU    AUSL 3072  33.346   0.694   7.061
   10AU     AUL 3073  33.453   1.075   7.212
   10AU       S 3074  33.659   0.783   6.796
   10AU     LIG 3075  33.920   0.793   6.405
   10AU     LIG 3076  34.124   1.140   6.177
   10AU       S 3077  34.208   0.828   7.411
   10AU     LIG 3078  34.394   1.244   7.323
   10AU     LIG 3079  34.645   1.615   7.119
   10AU    AUSL 3080  33.538   0.552   7.312
   10AU    AUSL 3081  33.555   0.221   7.640
   10AU     AUL 3082  33.835   0.350   7.439
   10AU       S 3083  33.924   0.819   7.253
   10AU     LIG 3084  34.282   0.948   6.924
   10AU     LIG 3085  34.767   1.094   6.984
   10AU       S 3086  33.980  44.867   7.561
   10AU     LIG 3087  34.210  44.608   7.838
   10AU     LIG 3088  34.672  44.585   7.940
   10AU    AUSL 3089  33.535   0.581   7.673
   10AU    AUSL 3090  33.166   0.867   7.739
   10AU     AUL 3091  33.506   0.962   7.762
   10AU       S 3092  33.666   1.273   8.281
   10AU     LIG 3093  34.069   1.543   8.357
   10AU     LIG 3094  34.339   1.910   8.528
   10AU       S 3095  33.981   0.801   7.639
   10AU     LIG 3096  34.428   0.912   7.856
   10AU     LIG 3097  34.872   0.716   7.913
   10AU    AUSL 3098  32.118   0.813   7.520
   10AU    AUSL 3099  32.185   0.623   7.976
   10AU     AUL 3100  31.852   0.788   7.776
   10AU       S 3101  31.933   0.748   8.299
   10AU     LIG 3102  31.651   0.988   8.572
   10AU     LIG 3103  31.410   1.343   8.745
   10AU       S 3104  31.927   1.249   7.520
   10AU     LIG 3105  31.438   1.308   7.527
   10AU     LIG 3106  30.972   1.248   7.634
   10AU    AUSL 3107  32.043   0.507   7.296
   10AU    AUSL 3108  32.250   0.911   7.213
   10AU     AUL 3109  31.892   0.801   7.226
   10AU       S 3110  31.646   0.393   6.975
   10AU     LIG 3111  31.137   0.528   7.012
   10AU     LIG 3112  30.719   0.776   6.860
   10AU       S 3113  31.956   1.224   6.940
   10AU     LIG 3114  31.675   1.487   6.646
   10AU     LIG 3115  31.396   1.822   6.439
   10AU    AUSL 3116  32.033   0.484   7.700
   10AU    AUSL 3117  31.986   0.179   7.346
   10AU     AUL 3118  31.757   0.522   7.482
   10AU       S 3119  31.514   0.079   7.373
   10AU     LIG 3120  31.064   0.035   7.169
   10AU     LIG 3121  30.736  44.802   7.357
   10AU       S 3122  31.680   0.372   8.046
   10AU     LIG 3123  31.217   0.504   7.917
   10AU     LIG 3124  30.831   0.801   7.903
   10AU    AUSL 3125  33.427  44.911   7.475
   10AU    AUSL 3126  33.303   0.135   7.864
   10AU     AUL 3127  33.596  44.961   7.863
   10AU       S 3128  33.746  44.641   7.462
   10AU     LIG 3129  34.068  44.334   7.400
   10AU     LIG 3130  34.266  44.227   7.013
   10AU       S 3131  33.550  44.276   8.168
   10AU     LIG 3132  33.954  44.330   8.383
   10AU     LIG 3133  34.196  44.132   8.722
   10AU    AUSL 3134  33.527   0.200   7.285
   10AU    AUSL 3135  33.244  44.789   7.193
   10AU     AUL 3136  33.537  44.948   7.058
   10AU       S 3137  33.949  44.850   7.317
   10AU     LIG 3138  34.304  44.730   7.099
   10AU     LIG 3139  34.744  44.821   7.033
   10AU       S 3140  33.502  44.433   7.027
   10AU     LIG 3141  33.795  44.014   7.040
   10AU     LIG 3142  34.018  43.799   6.664
   10AU    AUSL 3143  32.230  44.927   7.499
   10AU    AUSL 3144  32.160   0.048   7.069
   10AU     AUL 3145  31.950  44.811   7.320
   10AU       S 3146  31.890  44.790   6.800
   10AU     LIG 3147  31.504  44.527   6.624
   10AU     LIG 3148  31.333  44.119   6.430
   10AU       S 3149  31.345   0.142   7.557
   10AU     LIG 3150  31.183  44.690   7.565
   10AU     LIG 3151  31.001  44.294   7.341
   10AU    AUSL 3152  32.018   0.146   7.691
   10AU    AUSL 3153  32.327  44.765   7.802
   10AU     AUL 3154  31.988  44.787   7.705
   10AU       S 3155  32.021  44.524   8.132
   10AU     LIG 3156  31.767  44.150   8.034
   10AU     LIG 3157  31.562  43.777   8.225
   10AU       S 3158  31.550   0.062   7.685
   10AU     LIG 3159  31.170  44.988   7.988
   10AU     LIG 3160  30.757  44.813   7.887
   10AU    AUSL 3161  32.792   1.018   7.971
   10AU    AUSL 3162  32.289   0.927   7.804
   10AU     AUL 3163  32.482   1.200   7.994
   10AU       S 3164  31.979   1.200   8.059
   10AU     LIG 3165  31.761   1.466   8.375
   10AU     LIG 3166  31.518   1.826   8.558
   10AU       S 3167  32.869   1.519   8.080
   10AU     LIG 3168  32.999   1.857   8.371
   10AU     LIG 3169  32.846   2.240   8.598
   10AU    AUSL 3170  32.585   1.052   7.669
   10AU    AUSL 3171  32.883   1.152   7.322
   10AU     AUL 3172  32.537   1.345   7.468
   10AU       S 3173  32.769   1.772   7.885
   10AU     LIG 3174  32.817   2.191   8.041
   10AU     LIG 3175  32.533   2.476   8.258
   10AU       S 3176  32.900   1.596   7.197
   10AU     LIG 3177  33.074   2.000   7.090
   10AU     LIG 3178  33.277   2.191   6.730
   10AU    AUSL 3179  32.940   1.125   7.660
   10AU    AUSL 3180  33.074   0.843   8.078
   10AU     AUL 3181  33.183   1.151   7.926
   10AU       S 3182  33.380   1.090   8.395
   10AU     LIG 3183  33.649   1.240   8.774
   10AU     LIG 3184  34.000   1.563   8.867
   10AU       S 3185  32.960   1.575   7.729
   10AU     LIG 3186  33.236   1.969   7.854
   10AU     LIG 3187  33.375   2.202   8.242
   10AU    AUSL 3188  32.823  44.782   7.960
   10AU    AUSL 3189  33.265  44.777   7.762
   10AU     AUL 3190  33.041  44.523   7.995
   10AU       S 3191  32.295  44.087   8.055
   10AU     LIG 3192  32.493  43.822   8.379
   10AU     LIG 3193  32.879  43.550   8.468
   10AU       S 3194  33.562  44.447   7.914
   10AU     LIG 3195  33.954  44.106   7.926
   10AU     LIG 3196  34.055  43.818   8.318
   10AU    AUSL 3197  32.607  44.600   7.686
   10AU    AUSL 3198  32.544  44.968   7.989
   10AU     AUL 3199  32.549  44.599   8.073
   10AU       S 3200  32.346  44.209   7.749
   10AU     LIG 3201  32.025  43.814   7.746
   10AU     LIG 3202  32.049  43.640   8.158
   10AU       S 3203  31.913  44.557   8.414
   10AU     LIG 3204  31.994  44.075   8.479
   10AU     LIG 3205  31.858  43.640   8.633
   10AU    AUSL 3206  32.959  44.660   7.662
   10AU    AUSL 3207  32.606  44.595   7.329
   10AU     AUL 3208  32.838  44.338   7.527
   10AU       S 3209  32.362  44.213   7.251
   10AU     LIG 3210  32.032  43.858   7.233
   10AU     LIG 3211  32.207  43.508   7.001
   10AU       S 3212  32.488  43.944   7.878
   10AU     LIG 3213  32.804  43.620   7.964
   10AU     LIG 3214  33.211  43.386   8.092
   10AU    AUSL 3215  32.760   1.015   7.012
   10AU    AUSL 3216  33.121   0.908   7.243
   10AU     AUL 3217  33.121   1.168   7.011
   10AU       S 3218  32.782   1.514   6.844
   10AU     LIG 3219  32.794   1.998   6.646
   10AU     LIG 3220  32.695   2.463   6.455
   10AU       S 3221  33.791   1.096   6.767
   10AU     LIG 3222  34.020   1.465   6.567
   10AU     LIG 3223  34.306   1.663   6.238
   10AU    AUSL 3224  32.565   0.999   7.329
   10AU    AUSL 3225  32.458   0.847   6.927
   10AU     AUL 3226  32.446   1.202   7.082
   10AU       S 3227  32.645   1.726   7.048
   10AU     LIG 3228  32.576   2.118   7.208
   10AU     LIG 3229  32.747   2.415   6.957
   10AU       S 3230  32.110   1.064   6.691
   10AU     LIG 3231  32.076   1.357   6.348
   10AU     LIG 3232  31.746   1.574   6.110
   10AU    AUSL 3233  32.784  44.802   7.078
   10AU    AUSL 3234  32.326  44.759   7.208
   10AU     AUL 3235  32.554  44.597   6.934
   10AU       S 3236  32.038  44.489   6.932
   10AU     LIG 3237  31.733  44.114   6.868
   10AU     LIG 3238  31.367  43.797   6.837
   10AU       S 3239  32.372  44.049   6.933
   10AU     LIG 3240  32.615  43.679   6.735
   10AU     LIG 3241  32.574  43.272   6.518
   10AU    AUSL 3242  32.967  44.644   7.328
   10AU    AUSL 3243  33.062  44.896   6.900
   10AU     AUL 3244  32.980  44.527   7.000
   10AU       S 3245  32.536  43.983   7.156
   10AU     LIG 3246  32.839  43.650   7.193
   10AU     LIG 3247  32.843  43.252   6.989
   10AU       S 3248  33.376  44.565   6.679
   10AU     LIG 3249  33.559  44.377   6.275
   10AU     LIG 3250  33.877  44.027   6.212
   11POPC   NC3 3251  22.111  36.600   9.733
   11POPC   PO4 3252  22.306  37.129   9.541
   11POPC   GL1 3253  22.365  36.858   9.233
   11POPC   GL2 3254  22.028  36.800   9.171
   11POPC   C1A 3255  22.534  36.680   8.865
   11POPC   D2A 3256  22.581  36.815   8.445
   11POPC   C3A 3257  22.251  36.730   8.155
   11POPC   C4A 3258  22.265  36.943   7.741
   11POPC   C1B 3259  22.146  36.957   8.734
   11POPC   C2B 3260  21.968  37.136   8.373
   11POPC   C3B 3261  21.900  37.307   7.979
   11POPC   C4B 3262  21.817  37.129   7.593
   12POPC   NC3 3263   0.960  11.035   9.600
   12POPC   PO4 3264   1.404  11.559   9.415
   12POPC   GL1 3265   1.148  11.273   9.164
   12POPC   GL2 3266   1.010  11.548   9.030
   12POPC   C1A 3267   0.927  11.133   8.753
   12POPC   D2A 3268   1.095  11.225   8.337
   12POPC   C3A 3269   0.954  11.062   7.958
   12POPC   C4A 3270   1.217  11.157   7.641
   12POPC   C1B 3271   1.252  11.560   8.694
   12POPC   C2B 3272   1.417  11.660   8.318
   12POPC   C3B 3273   1.304  11.627   7.892
   12POPC   C4B 3274   1.543  11.536   7.525
   13POPC   NC3 3275  20.216  35.811   9.719
   13POPC   PO4 3276  19.778  35.288   9.535
   13POPC   GL1 3277  19.933  35.170   9.136
   13POPC   GL2 3278  20.042  35.522   9.135
   13POPC   C1A 3279  19.970  35.239   8.695
   13POPC   D2A 3280  19.684  35.383   8.438
   13POPC   C3A 3281  19.797  35.392   8.031
   13POPC   C4A 3282  19.956  35.109   7.740
   13POPC   C1B 3283  20.027  35.743   8.743
   13POPC   C2B 3284  20.149  35.660   8.348
   13POPC   C3B 3285  20.044  35.835   7.952
   13POPC   C4B 3286  20.046  35.587   7.594
   14POPC   NC3 3287  23.001  30.994   9.533
   14POPC   PO4 3288  22.972  30.266   9.604
   14POPC   GL1 3289  22.778  30.514   9.246
   14POPC   GL2 3290  22.845  30.826   9.102
   14POPC   C1A 3291  22.808  30.424   8.801
   14POPC   D2A 3292  22.977  30.453   8.405
   14POPC   C3A 3293  22.879  30.215   8.042
   14POPC   C4A 3294  22.940  30.406   7.659
   14POPC   C1B 3295  22.828  30.961   8.718
   14POPC   C2B 3296  22.608  30.885   8.383
   14POPC   C3B 3297  22.742  30.727   8.023
   14POPC   C4B 3298  22.931  30.919   7.679
   15POPC   NC3 3299  27.064  39.667   9.382
   15POPC   PO4 3300  26.680  39.183   9.666
   15POPC   GL1 3301  26.746  39.269   9.220
   15POPC   GL2 3302  26.407  39.353   9.134
   15POPC   C1A 3303  26.845  39.050   8.808
   15POPC   D2A 3304  26.681  39.052   8.375
   15POPC   C3A 3305  26.826  38.875   8.019
   15POPC   C4A 3306  26.964  39.031   7.640
   15POPC   C1B 3307  26.523  39.440   8.688
   15POPC   C2B 3308  26.713  39.561   8.292
   15POPC   C3B 3309  26.628  39.374   7.904
   15POPC   C4B 3310  26.690  39.461   7.463
   16POPC   NC3 3311   9.446   3.508   9.725
   16POPC   PO4 3312   8.770   3.607   9.504
   16POPC   GL1 3313   8.871   3.491   9.035
   16POPC   GL2 3314   9.236   3.568   8.873
   16POPC   C1A 3315   8.909   3.262   8.647
   16POPC   D2A 3316   8.953   3.296   8.235
   16POPC   C3A 3317   9.243   3.565   8.040
   16POPC   C4A 3318   9.006   3.537   7.725
   16POPC   C1B 3319   8.956   3.775   8.568
   16POPC   C2B 3320   8.790   3.796   8.135
   16POPC   C3B 3321   8.850   4.060   7.774
   16POPC   C4B 3322   9.114   4.083   7.400
   17POPC   NC3 3323  11.104  42.762   9.526
   17POPC   PO4 3324  11.262  42.083   9.489
   17POPC   GL1 3325  11.402  42.393   9.134
   17POPC   GL2 3326  11.720  42.525   9.078
   17POPC   C1A 3327  11.195  42.557   8.743
   17POPC   D2A 3328  11.287  42.630   8.305
   17POPC   C3A 3329  11.331  42.212   8.151
   17POPC   C4A 3330  11.068  41.897   7.929
   17POPC   C1B 3331  11.687  42.441   8.648
   17POPC   C2B 3332  11.780  42.633   8.270
   17POPC   C3B 3333  11.650  42.521   7.905
   17POPC   C4B 3334  11.324  42.323   7.654
   18POPC   NC3 3335  21.921  11.542   9.644
   18POPC   PO4 3336  22.503  11.136   9.494
   18POPC   GL1 3337  22.205  11.305   9.167
   18POPC   GL2 3338  21.875  11.509   9.139
   18POPC   C1A 3339  22.285  11.349   8.722
   18POPC   D2A 3340  22.172  11.077   8.403
   18POPC   C3A 3341  22.079  11.149   8.002
   18POPC   C4A 3342  22.371  11.096   7.713
   18POPC   C1B 3343  21.877  11.668   8.699
   18POPC   C2B 3344  22.150  11.644   8.328
   18POPC   C3B 3345  22.127  11.641   7.885
   18POPC   C4B 3346  21.716  11.498   7.861
   19POPC   NC3 3347  43.175  15.636   9.473
   19POPC   PO4 3348  43.279  14.961   9.447
   19POPC   GL1 3349  43.024  15.242   9.199
   19POPC   GL2 3350  43.198  15.497   8.971
   19POPC   C1A 3351  42.792  15.179   8.859
   19POPC   D2A 3352  42.712  15.137   8.462
   19POPC   C3A 3353  42.999  15.081   8.145
   19POPC   C4A 3354  42.856  14.974   7.743
   19POPC   C1B 3355  43.281  15.051   8.807
   19POPC   C2B 3356  43.256  14.745   8.498
   19POPC   C3B 3357  43.419  14.771   8.113
   19POPC   C4B 3358  43.384  15.051   7.776
   20POPC   NC3 3359  26.784  17.958   9.466
   20POPC   PO4 3360  26.536  17.365   9.685
   20POPC   GL1 3361  26.678  17.510   9.219
   20POPC   GL2 3362  27.027  17.643   9.142
   20POPC   C1A 3363  26.757  17.523   8.728
   20POPC   D2A 3364  27.005  17.433   8.337
   20POPC   C3A 3365  26.802  17.506   7.942
   20POPC   C4A 3366  26.720  17.218   7.631
   20POPC   C1B 3367  27.119  17.901   8.746
   20POPC   C2B 3368  27.016  17.928   8.315
   20POPC   C3B 3369  27.243  17.750   7.929
   20POPC   C4B 3370  27.188  17.471   7.576
   21POPC   NC3 3371  33.127   3.908   9.689
   21POPC   PO4 3372  33.224   3.231   9.537
   21POPC   GL1 3373  33.003   3.368   9.175
   21POPC   GL2 3374  32.756   3.595   9.301
   21POPC   C1A 3375  33.150   3.513   8.753
   21POPC   D2A 3376  33.342   3.622   8.387
   21POPC   C3A 3377  33.155   3.462   8.049
   21POPC   C4A 3378  33.098   3.333   7.648
   21POPC   C1B 3379  32.812   3.854   8.921
   21POPC   C2B 3380  32.941   3.938   8.504
   21POPC   C3B 3381  32.801   3.839   8.133
   21POPC   C4B 3382  32.873   3.830   7.723
   22POPC   NC3 3383   8.677   1.557   9.517
   22POPC   PO4 3384   9.336   1.447   9.368
   22POPC   GL1 3385   9.024   1.306   9.061
   22POPC   GL2 3386   8.704   1.161   9.159
   22POPC   C1A 3387   8.851   1.097   8.675
   22POPC   D2A 3388   8.951   0.875   8.313
   22POPC   C3A 3389   9.009   1.189   8.017
   22POPC   C4A 3390   9.115   1.298   7.589
   22POPC   C1B 3391   8.580   1.508   8.840
   22POPC   C2B 3392   8.513   1.515   8.390
   22POPC   C3B 3393   8.453   1.214   8.056
   22POPC   C4B 3394   8.647   1.114   7.662
   23POPC   NC3 3395  31.306  10.488   9.528
   23POPC   PO4 3396  31.917  10.805   9.451
   23POPC   GL1 3397  31.744  10.571   9.132
   23POPC   GL2 3398  31.544  10.258   9.105
   23POPC   C1A 3399  31.616  10.615   8.728
   23POPC   D2A 3400  31.572  10.318   8.423
   23POPC   C3A 3401  31.428  10.525   8.075
   23POPC   C4A 3402  31.607  10.620   7.713
   23POPC   C1B 3403  31.305  10.032   8.764
   23POPC   C2B 3404  31.126  10.106   8.335
   23POPC   C3B 3405  31.223  10.108   7.887
   23POPC   C4B 3406  31.181  10.348   7.475
   24POPC   NC3 3407  10.890  37.500   9.387
   24POPC   PO4 3408  11.570  37.422   9.510
   24POPC   GL1 3409  11.366  37.518   9.138
   24POPC   GL2 3410  11.255  37.845   9.195
   24POPC   C1A 3411  11.178  37.566   8.717
   24POPC   D2A 3412  10.910  37.459   8.378
   24POPC   C3A 3413  11.010  37.391   7.948
   24POPC   C4A 3414  11.268  37.672   7.707
   24POPC   C1B 3415  11.546  37.923   8.822
   24POPC   C2B 3416  11.469  37.850   8.372
   24POPC   C3B 3417  11.082  37.897   8.133
   24POPC   C4B 3418  10.881  38.078   7.774
   25POPC   NC3 3419   4.904  40.842   9.558
   25POPC   PO4 3420   5.330  40.458   9.285
   25POPC   GL1 3421   5.081  40.761   9.078
   25POPC   GL2 3422   4.781  40.596   9.128
   25POPC   C1A 3423   4.998  40.791   8.650
   25POPC   D2A 3424   4.925  40.471   8.390
   25POPC   C3A 3425   5.102  40.565   8.036
   25POPC   C4A 3426   5.026  40.970   7.901
   25POPC   C1B 3427   4.567  40.483   8.760
   25POPC   C2B 3428   4.423  40.559   8.349
   25POPC   C3B 3429   4.598  40.688   7.981
   25POPC   C4B 3430   4.808  40.546   7.633
   26POPC   NC3 3431  32.733  18.582   9.413
   26POPC   PO4 3432  32.131  18.241   9.371
   26POPC   GL1 3433  32.496  18.200   9.095
   26POPC   GL2 3434  32.231  18.124   8.856
   26POPC   C1A 3435  32.690  18.358   8.743
   26POPC   D2A 3436  32.422  18.458   8.404
   26POPC   C3A 3437  32.602  18.499   8.017
   26POPC   C4A 3438  32.320  18.455   7.696
   26POPC   C1B 3439  32.027  18.548   8.757
   26POPC   C2B 3440  31.970  18.736   8.372
   26POPC   C3B 3441  31.967  18.388   8.092
   26POPC   C4B 3442  31.800  18.380   7.695
   27POPC   NC3 3443  30.759  13.897   9.342
   27POPC   PO4 3444  30.516  13.235   9.296
   27POPC   GL1 3445  30.774  13.482   9.042
   27POPC   GL2 3446  30.959  13.248   8.818
   27POPC   C1A 3447  30.838  13.765   8.723
   27POPC   D2A 3448  30.929  13.618   8.332
   27POPC   C3A 3449  30.942  13.915   8.037
   27POPC   C4A 3450  30.864  13.717   7.675
   27POPC   C1B 3451  30.548  13.376   8.591
   27POPC   C2B 3452  30.463  13.810   8.359
   27POPC   C3B 3453  30.365  13.797   7.923
   27POPC   C4B 3454  30.429  13.413   7.691
   28POPC   NC3 3455   3.800  19.346   9.549
   28POPC   PO4 3456   3.053  19.366   9.450
   28POPC   GL1 3457   3.440  19.282   9.181
   28POPC   GL2 3458   3.548  18.930   9.202
   28POPC   C1A 3459   3.724  19.186   8.797
   28POPC   D2A 3460   3.498  19.248   8.390
   28POPC   C3A 3461   3.719  19.252   7.989
   28POPC   C4A 3462   3.707  19.011   7.632
   28POPC   C1B 3463   3.270  18.972   8.805
   28POPC   C2B 3464   3.053  18.957   8.428
   28POPC   C3B 3465   3.260  18.963   8.013
   28POPC   C4B 3466   3.249  18.744   7.632
   29POPC   NC3 3467  22.627  26.137   9.430
   29POPC   PO4 3468  23.248  25.842   9.593
   29POPC   GL1 3469  23.191  25.764   9.151
   29POPC   GL2 3470  22.822  25.776   9.098
   29POPC   C1A 3471  23.091  25.979   8.744
   29POPC   D2A 3472  22.915  26.111   8.369
   29POPC   C3A 3473  23.176  26.117   7.994
   29POPC   C4A 3474  23.229  26.502   7.774
   29POPC   C1B 3475  22.712  25.626   8.678
   29POPC   C2B 3476  22.797  25.615   8.239
   29POPC   C3B 3477  22.721  25.903   7.890
   29POPC   C4B 3478  22.531  25.826   7.494
   30POPC   NC3 3479   3.275   8.121   9.359
   30POPC   PO4 3480   3.906   8.263   9.515
   30POPC   GL1 3481   3.727   8.068   9.115
   30POPC   GL2 3482   3.632   8.398   9.044
   30POPC   C1A 3483   3.499   8.045   8.671
   30POPC   D2A 3484   3.300   7.930   8.244
   30POPC   C3A 3485   3.606   7.956   7.889
   30POPC   C4A 3486   4.059   7.956   7.759
   30POPC   C1B 3487   3.307   8.530   8.748
   30POPC   C2B 3488   3.233   8.416   8.353
   30POPC   C3B 3489   3.417   8.508   7.997
   30POPC   C4B 3490   3.194   8.687   7.698
   31POPC   NC3 3491  41.846   3.140   9.538
   31POPC   PO4 3492  41.444   2.682   9.554
   31POPC   GL1 3493  41.659   2.621   9.147
   31POPC   GL2 3494  41.869   2.858   9.088
   31POPC   C1A 3495  41.644   2.447   8.718
   31POPC   D2A 3496  41.274   2.535   8.428
   31POPC   C3A 3497  41.290   2.790   8.032
   31POPC   C4A 3498  41.582   2.647   7.691
   31POPC   C1B 3499  41.496   2.918   8.761
   31POPC   C2B 3500  41.708   2.855   8.361
   31POPC   C3B 3501  41.771   3.042   7.965
   31POPC   C4B 3502  41.448   3.222   7.747
   32POPC   NC3 3503  22.918  31.572   9.467
   32POPC   PO4 3504  23.298  31.105   9.187
   32POPC   GL1 3505  23.029  31.394   9.006
   32POPC   GL2 3506  22.672  31.325   9.098
   32POPC   C1A 3507  22.939  31.818   8.807
   32POPC   D2A 3508  22.762  31.871   8.371
   32POPC   C3A 3509  22.941  31.750   7.953
   32POPC   C4A 3510  22.896  31.792   7.482
   32POPC   C1B 3511  22.639  31.435   8.682
   32POPC   C2B 3512  22.843  31.348   8.318
   32POPC   C3B 3513  22.630  31.231   7.969
   32POPC   C4B 3514  22.502  31.540   7.729
   33POPC   NC3 3515  16.453   0.848   9.430
   33POPC   PO4 3516  16.965   1.338   9.642
   33POPC   GL1 3517  16.797   1.259   9.251
   33POPC   GL2 3518  16.884   0.970   9.199
   33POPC   C1A 3519  16.846   1.309   8.788
   33POPC   D2A 3520  16.584   1.134   8.414
   33POPC   C3A 3521  16.641   1.300   7.957
   33POPC   C4A 3522  16.515   1.277   7.504
   33POPC   C1B 3523  16.847   0.810   8.789
   33POPC   C2B 3524  17.035   0.883   8.361
   33POPC   C3B 3525  16.777   0.814   8.031
   33POPC   C4B 3526  16.780   0.886   7.636
   34POPC   NC3 3527   6.066  16.296   9.477
   34POPC   PO4 3528   5.508  15.974   9.475
   34POPC   GL1 3529   5.864  15.796   9.220
   34POPC   GL2 3530   6.194  15.895   9.204
   34POPC   C1A 3531   5.939  15.932   8.778
   34POPC   D2A 3532   5.985  16.049   8.352
   34POPC   C3A 3533   5.636  16.038   8.076
   34POPC   C4A 3534   5.579  15.887   7.671
   34POPC   C1B 3535   6.375  16.166   8.880
   34POPC   C2B 3536   6.523  16.087   8.467
   34POPC   C3B 3537   6.385  16.120   8.045
   34POPC   C4B 3538   6.071  15.963   7.791
   35POPC   NC3 3539   8.775  34.840   9.651
   35POPC   PO4 3540   9.349  34.523   9.364
   35POPC   GL1 3541   9.091  34.662   8.962
   35POPC   GL2 3542   8.794  34.442   8.767
   35POPC   C1A 3543   9.089  34.749   8.506
   35POPC   D2A 3544   9.192  34.980   8.181
   35POPC   C3A 3545   9.164  34.659   7.871
   35POPC   C4A 3546   8.917  34.270   7.907
   35POPC   C1B 3547   8.670  34.926   8.700
   35POPC   C2B 3548   8.666  35.049   8.292
   35POPC   C3B 3549   8.678  34.719   8.032
   35POPC   C4B 3550   8.481  34.695   7.674
   36POPC   NC3 3551  11.587  33.481   9.322
   36POPC   PO4 3552  11.089  33.896   9.532
   36POPC   GL1 3553  11.310  33.910   9.137
   36POPC   GL2 3554  11.207  34.228   9.066
   36POPC   C1A 3555  11.424  33.790   8.703
   36POPC   D2A 3556  11.470  33.554   8.313
   36POPC   C3A 3557  11.132  33.519   8.009
   36POPC   C4A 3558  11.276  33.595   7.565
   36POPC   C1B 3559  11.128  34.213   8.650
   36POPC   C2B 3560  11.151  33.976   8.293
   36POPC   C3B 3561  11.356  33.956   7.935
   36POPC   C4B 3562  11.191  34.107   7.589
   37POPC   NC3 3563  24.016  16.131   9.330
   37POPC   PO4 3564  23.378  15.856   9.363
   37POPC   GL1 3565  23.592  16.053   9.069
   37POPC   GL2 3566  23.337  16.300   9.056
   37POPC   C1A 3567  23.822  15.918   8.689
   37POPC   D2A 3568  23.954  15.707   8.298
   37POPC   C3A 3569  23.728  15.785   7.895
   37POPC   C4A 3570  23.620  15.760   7.434
   37POPC   C1B 3571  23.309  16.060   8.667
   37POPC   C2B 3572  23.518  16.128   8.300
   37POPC   C3B 3573  23.421  16.192   7.889
   37POPC   C4B 3574  23.700  16.255   7.586
   38POPC   NC3 3575  12.831  12.120   9.492
   38POPC   PO4 3576  12.653  11.534   9.229
   38POPC   GL1 3577  12.935  11.850   9.035
   38POPC   GL2 3578  13.121  12.206   9.098
   38POPC   C1A 3579  13.042  11.826   8.645
   38POPC   D2A 3580  12.763  11.759   8.328
   38POPC   C3A 3581  12.886  12.019   7.987
   38POPC   C4A 3582  13.007  11.971   7.597
   38POPC   C1B 3583  12.812  12.287   8.800
   38POPC   C2B 3584  12.730  12.260   8.394
   38POPC   C3B 3585  12.678  12.464   7.985
   38POPC   C4B 3586  12.516  12.566   7.587
   39POPC   NC3 3587  23.945  34.240   9.525
   39POPC   PO4 3588  23.481  33.814   9.288
   39POPC   GL1 3589  23.893  33.731   9.093
   39POPC   GL2 3590  24.061  34.057   9.063
   39POPC   C1A 3591  23.950  33.741   8.634
   39POPC   D2A 3592  23.612  33.618   8.352
   39POPC   C3A 3593  23.706  33.651   7.928
   39POPC   C4A 3594  23.530  33.632   7.517
   39POPC   C1B 3595  23.978  34.265   8.653
   39POPC   C2B 3596  23.778  34.235   8.218
   39POPC   C3B 3597  23.556  34.118   7.802
   39POPC   C4B 3598  23.785  34.044   7.358
   40POPC   NC3 3599  23.880  31.627   9.733
   40POPC   PO4 3600  23.412  31.196   9.701
   40POPC   GL1 3601  23.535  31.519   9.336
   40POPC   GL2 3602  23.883  31.469   9.249
   40POPC   C1A 3603  23.475  31.647   8.849
   40POPC   D2A 3604  23.253  31.696   8.425
   40POPC   C3A 3605  23.461  31.805   8.045
   40POPC   C4A 3606  23.680  31.530   7.793
   40POPC   C1B 3607  23.920  31.339   8.822
   40POPC   C2B 3608  23.757  31.403   8.413
   40POPC   C3B 3609  24.005  31.278   8.073
   40POPC   C4B 3610  24.148  31.364   7.672
   41POPC   NC3 3611  10.406  29.487   9.474
   41POPC   PO4 3612  10.624  28.840   9.521
   41POPC   GL1 3613  10.625  28.935   9.099
   41POPC   GL2 3614  10.728  29.270   9.147
   41POPC   C1A 3615  10.297  29.006   8.765
   41POPC   D2A 3616  10.074  28.927   8.341
   41POPC   C3A 3617  10.326  29.030   7.993
   41POPC   C4A 3618  10.788  29.024   7.930
   41POPC   C1B 3619  10.491  29.492   8.802
   41POPC   C2B 3620  10.417  29.360   8.384
   41POPC   C3B 3621  10.537  29.495   7.966
   41POPC   C4B 3622  10.207  29.663   7.772
   42POPC   NC3 3623  25.482  33.410   9.421
   42POPC   PO4 3624  25.046  33.009   9.785
   42POPC   GL1 3625  25.153  32.948   9.330
   42POPC   GL2 3626  25.118  33.235   9.111
   42POPC   C1A 3627  25.280  32.824   8.877
   42POPC   D2A 3628  25.185  33.019   8.453
   42POPC   C3A 3629  25.211  32.789   8.058
   42POPC   C4A 3630  25.465  32.864   7.695
   42POPC   C1B 3631  25.454  33.308   8.788
   42POPC   C2B 3632  25.669  33.343   8.405
   42POPC   C3B 3633  25.498  33.237   8.024
   42POPC   C4B 3634  25.469  33.406   7.598
   43POPC   NC3 3635  12.379   3.139   9.699
   43POPC   PO4 3636  11.786   3.295   9.530
   43POPC   GL1 3637  12.082   3.515   9.291
   43POPC   GL2 3638  12.042   3.864   9.173
   43POPC   C1A 3639  12.250   3.483   8.872
   43POPC   D2A 3640  12.109   3.623   8.482
   43POPC   C3A 3641  11.856   3.386   8.193
   43POPC   C4A 3642  12.022   3.364   7.775
   43POPC   C1B 3643  11.934   4.109   8.788
   43POPC   C2B 3644  12.075   4.152   8.346
   43POPC   C3B 3645  12.055   3.837   8.021
   43POPC   C4B 3646  11.785   3.818   7.683
   44POPC   NC3 3647  10.355  30.367   9.302
   44POPC   PO4 3648  10.687  30.881   9.484
   44POPC   GL1 3649  10.550  30.791   9.073
   44POPC   GL2 3650  10.250  31.010   9.143
   44POPC   C1A 3651  10.708  30.464   8.762
   44POPC   D2A 3652  10.834  30.299   8.360
   44POPC   C3A 3653  10.637  30.563   8.053
   44POPC   C4A 3654  10.356  30.549   7.718
   44POPC   C1B 3655   9.984  31.046   8.771
   44POPC   C2B 3656   9.968  30.869   8.333
   44POPC   C3B 3657  10.230  30.956   7.987
   44POPC   C4B 3658  10.463  31.179   7.693
   45POPC   NC3 3659  27.025  23.443   9.273
   45POPC   PO4 3660  26.471  23.860   9.441
   45POPC   GL1 3661  26.728  23.817   9.121
   45POPC   GL2 3662  27.095  23.931   9.166
   45POPC   C1A 3663  26.665  23.629   8.719
   45POPC   D2A 3664  26.837  23.580   8.371
   45POPC   C3A 3665  26.640  23.756   8.071
   45POPC   C4A 3666  26.711  23.881   7.688
   45POPC   C1B 3667  27.215  23.803   8.717
   45POPC   C2B 3668  27.330  23.809   8.264
   45POPC   C3B 3669  27.181  24.047   7.868
   45POPC   C4B 3670  27.123  23.944   7.395
   46POPC   NC3 3671  41.824  41.773   9.393
   46POPC   PO4 3672  41.207  41.457   9.529
   46POPC   GL1 3673  41.384  41.378   9.160
   46POPC   GL2 3674  41.399  41.732   9.118
   46POPC   C1A 3675  41.230  41.371   8.738
   46POPC   D2A 3676  41.449  41.553   8.379
   46POPC   C3A 3677  41.491  41.366   7.974
   46POPC   C4A 3678  41.790  41.222   7.643
   46POPC   C1B 3679  41.246  41.886   8.751
   46POPC   C2B 3680  41.252  42.030   8.331
   46POPC   C3B 3681  41.462  41.885   7.946
   46POPC   C4B 3682  41.340  42.032   7.552
   47POPC   NC3 3683  24.159   4.159   9.526
   47POPC   PO4 3684  23.634   4.479   9.491
   47POPC   GL1 3685  23.765   4.290   9.157
   47POPC   GL2 3686  23.453   4.112   9.145
   47POPC   C1A 3687  23.637   4.371   8.749
   47POPC   D2A 3688  23.820   4.257   8.381
   47POPC   C3A 3689  23.712   4.417   8.004
   47POPC   C4A 3690  23.826   4.347   7.589
   47POPC   C1B 3691  23.228   4.070   8.772
   47POPC   C2B 3692  23.406   3.930   8.377
   47POPC   C3B 3693  23.302   3.827   7.966
   47POPC   C4B 3694  23.378   4.148   7.717
   48POPC   NC3 3695   1.460   2.643   9.471
   48POPC   PO4 3696   2.104   2.498   9.491
   48POPC   GL1 3697   2.164   2.624   9.080
   48POPC   GL2 3698   1.834   2.808   9.098
   48POPC   C1A 3699   2.192   2.864   8.699
   48POPC   D2A 3700   2.407   2.987   8.317
   48POPC   C3A 3701   2.121   3.057   7.985
   48POPC   C4A 3702   1.978   2.677   7.832
   48POPC   C1B 3703   1.684   2.902   8.664
   48POPC   C2B 3704   1.669   3.038   8.228
   48POPC   C3B 3705   1.597   2.999   7.781
   48POPC   C4B 3706   1.724   2.644   7.408
   49POPC   NC3 3707   4.909  42.612   9.604
   49POPC   PO4 3708   5.014  41.991   9.333
   49POPC   GL1 3709   5.060  42.205   8.974
   49POPC   GL2 3710   5.098  42.550   9.085
   49POPC   C1A 3711   4.976  42.038   8.550
   49POPC   D2A 3712   4.712  42.049   8.181
   49POPC   C3A 3713   5.011  41.967   7.841
   49POPC   C4A 3714   5.298  42.198   7.563
   49POPC   C1B 3715   5.217  42.531   8.624
   49POPC   C2B 3716   5.412  42.757   8.264
   49POPC   C3B 3717   5.215  42.696   7.856
   49POPC   C4B 3718   5.200  42.772   7.426
   50POPC   NC3 3719  14.041  43.096   9.449
   50POPC   PO4 3720  13.454  42.788   9.478
   50POPC   GL1 3721  13.386  42.950   9.079
   50POPC   GL2 3722  13.232  43.289   9.083
   50POPC   C1A 3723  13.519  43.100   8.700
   50POPC   D2A 3724  13.590  43.310   8.360
   50POPC   C3A 3725  13.448  43.134   8.021
   50POPC   C4A 3726  13.580  43.041   7.618
   50POPC   C1B 3727  13.291  43.571   8.722
   50POPC   C2B 3728  13.420  43.772   8.337
   50POPC   C3B 3729  13.415  43.637   7.886
   50POPC   C4B 3730  13.278  43.414   7.484
   51POPC   NC3 3731  36.182  21.548   9.781
   51POPC   PO4 3732  36.448  21.168   9.282
   51POPC   GL1 3733  36.084  21.418   9.149
   51POPC   GL2 3734  36.029  21.773   9.220
   51POPC   C1A 3735  35.957  21.374   8.708
   51POPC   D2A 3736  35.928  21.192   8.272
   51POPC   C3A 3737  36.288  21.169   8.008
   51POPC   C4A 3738  36.391  21.376   7.610
   51POPC   C1B 3739  35.762  21.839   8.841
   51POPC   C2B 3740  35.775  21.744   8.376
   51POPC   C3B 3741  35.932  21.591   7.946
   51POPC   C4B 3742  35.918  21.606   7.483
   52POPC   NC3 3743  17.609  33.307   9.895
   52POPC   PO4 3744  17.188  33.703   9.505
   52POPC   GL1 3745  17.552  33.771   9.209
   52POPC   GL2 3746  17.449  33.552   8.967
   52POPC   C1A 3747  17.639  34.039   8.816
   52POPC   D2A 3748  17.358  34.197   8.451
   52POPC   C3A 3749  17.357  33.994   8.052
   52POPC   C4A 3750  17.687  33.994   7.734
   52POPC   C1B 3751  17.782  33.550   8.674
   52POPC   C2B 3752  17.939  33.396   8.298
   52POPC   C3B 3753  17.932  33.511   7.862
   52POPC   C4B 3754  17.800  33.618   7.425
   53POPC   NC3 3755  31.588  15.556   9.532
   53POPC   PO4 3756  31.930  15.011   9.530
   53POPC   GL1 3757  31.869  15.279   9.186
   53POPC   GL2 3758  31.510  15.214   9.140
   53POPC   C1A 3759  31.818  15.262   8.745
   53POPC   D2A 3760  31.857  15.051   8.383
   53POPC   C3A 3761  31.825  15.214   7.990
   53POPC   C4A 3762  31.785  15.228   7.579
   53POPC   C1B 3763  31.292  15.316   8.776
   53POPC   C2B 3764  31.338  15.162   8.366
   53POPC   C3B 3765  31.324  14.994   7.960
   53POPC   C4B 3766  31.311  15.332   7.768
   54POPC   NC3 3767  14.979   0.487   9.594
   54POPC   PO4 3768  15.494   0.451   9.170
   54POPC   GL1 3769  15.101   0.471   9.081
   54POPC   GL2 3770  15.017   0.793   9.184
   54POPC   C1A 3771  15.067   0.325   8.653
   54POPC   D2A 3772  15.397   0.464   8.392
   54POPC   C3A 3773  15.359   0.339   7.962
   54POPC   C4A 3774  15.226   0.522   7.543
   54POPC   C1B 3775  15.059   0.827   8.739
   54POPC   C2B 3776  14.920   0.675   8.320
   54POPC   C3B 3777  14.861   0.472   7.931
   54POPC   C4B 3778  14.724   0.649   7.566
   55POPC   NC3 3779  38.129  43.778   9.672
   55POPC   PO4 3780  37.583  44.132   9.419
   55POPC   GL1 3781  37.900  43.914   9.233
   55POPC   GL2 3782  37.737  43.695   9.056
   55POPC   C1A 3783  38.024  43.991   8.786
   55POPC   D2A 3784  37.741  43.949   8.445
   55POPC   C3A 3785  37.855  43.845   8.043
   55POPC   C4A 3786  37.798  44.089   7.673
   55POPC   C1B 3787  37.495  43.438   8.818
   55POPC   C2B 3788  37.585  43.384   8.430
   55POPC   C3B 3789  37.507  43.452   8.027
   55POPC   C4B 3790  37.651  43.575   7.629
   56POPC   NC3 3791  44.304  11.639   9.488
   56POPC   PO4 3792  44.867  11.194   9.435
   56POPC   GL1 3793  44.603  11.406   9.149
   56POPC   GL2 3794  44.400  11.167   9.053
   56POPC   C1A 3795  44.626  11.622   8.739
   56POPC   D2A 3796  44.793  11.642   8.306
   56POPC   C3A 3797  44.594  11.529   7.910
   56POPC   C4A 3798  44.850  11.441   7.550
   56POPC   C1B 3799  44.758  11.138   8.746
   56POPC   C2B 3800  44.715  11.145   8.333
   56POPC   C3B 3801  44.997  11.212   8.021
   56POPC   C4B 3802  44.822  10.963   7.732
   57POPC   NC3 3803  36.233  36.545   9.419
   57POPC   PO4 3804  36.405  35.893   9.295
   57POPC   GL1 3805  36.147  36.175   9.065
   57POPC   GL2 3806  35.778  36.258   9.120
   57POPC   C1A 3807  36.077  36.011   8.657
   57POPC   D2A 3808  36.229  35.705   8.349
   57POPC   C3A 3809  35.963  35.725   8.027
   57POPC   C4A 3810  36.078  36.005   7.743
   57POPC   C1B 3811  35.923  36.518   8.771
   57POPC   C2B 3812  36.144  36.478   8.399
   57POPC   C3B 3813  35.980  36.406   8.015
   57POPC   C4B 3814  36.022  36.536   7.582
   58POPC   NC3 3815  31.204  18.845   9.375
   58POPC   PO4 3816  31.679  19.318   9.434
   58POPC   GL1 3817  31.633  19.024   9.153
   58POPC   GL2 3818  31.323  19.215   9.051
   58POPC   C1A 3819  31.603  18.891   8.751
   58POPC   D2A 3820  31.522  19.146   8.414
   58POPC   C3A 3821  31.558  18.894   8.097
   58POPC   C4A 3822  31.547  19.042   7.746
   58POPC   C1B 3823  31.263  19.492   8.715
   58POPC   C2B 3824  31.008  19.469   8.382
   58POPC   C3B 3825  31.146  19.262   8.043
   58POPC   C4B 3826  31.259  19.437   7.637
   59POPC   NC3 3827  21.870  37.305   9.522
   59POPC   PO4 3828  22.334  37.829   9.529
   59POPC   GL1 3829  22.241  37.480   9.161
   59POPC   GL2 3830  21.915  37.289   9.036
   59POPC   C1A 3831  22.257  37.462   8.688
   59POPC   D2A 3832  22.332  37.456   8.238
   59POPC   C3A 3833  22.427  37.873   8.064
   59POPC   C4A 3834  22.358  38.054   7.666
   59POPC   C1B 3835  21.723  37.451   8.677
   59POPC   C2B 3836  21.898  37.721   8.322
   59POPC   C3B 3837  21.944  37.799   7.855
   59POPC   C4B 3838  21.825  37.606   7.445
   60POPC   NC3 3839  16.844  10.564   9.422
   60POPC   PO4 3840  16.317  10.158   9.712
   60POPC   GL1 3841  16.435  10.185   9.244
   60POPC   GL2 3842  16.805  10.165   9.148
   60POPC   C1A 3843  16.453  10.262   8.776
   60POPC   D2A 3844  16.631  10.540   8.455
   60POPC   C3A 3845  16.532  10.461   8.009
   60POPC   C4A 3846  16.495  10.811   7.722
   60POPC   C1B 3847  17.042  10.427   8.795
   60POPC   C2B 3848  17.134  10.613   8.378
   60POPC   C3B 3849  16.983  10.704   7.966
   60POPC   C4B 3850  17.079  10.514   7.595
   61POPC   NC3 3851  32.968  41.198   9.784
   61POPC   PO4 3852  32.942  40.698   9.323
   61POPC   GL1 3853  32.997  40.887   8.957
   61POPC   GL2 3854  32.771  41.172   8.948
   61POPC   C1A 3855  33.082  40.565   8.658
   61POPC   D2A 3856  33.261  40.400   8.308
   61POPC   C3A 3857  33.108  40.560   7.936
   61POPC   C4A 3858  33.239  40.752   7.555
   61POPC   C1B 3859  32.620  40.827   8.629
   61POPC   C2B 3860  32.837  40.817   8.283
   61POPC   C3B 3861  32.993  41.097   8.033
   61POPC   C4B 3862  32.825  41.033   7.667
   62POPC   NC3 3863  31.205  26.202   9.272
   62POPC   PO4 3864  31.819  25.977   9.412
   62POPC   GL1 3865  31.588  26.006   9.016
   62POPC   GL2 3866  31.204  25.809   8.977
   62POPC   C1A 3867  31.656  26.170   8.619
   62POPC   D2A 3868  31.910  26.175   8.284
   62POPC   C3A 3869  31.659  26.080   7.930
   62POPC   C4A 3870  31.270  26.075   7.694
   62POPC   C1B 3871  31.321  25.768   8.636
   62POPC   C2B 3872  31.308  25.952   8.270
   62POPC   C3B 3873  31.067  25.729   8.000
   62POPC   C4B 3874  31.142  25.569   7.632
   63POPC   NC3 3875  38.880  31.353   9.653
   63POPC   PO4 3876  39.415  31.658   9.399
   63POPC   GL1 3877  39.310  31.402   9.088
   63POPC   GL2 3878  38.966  31.339   9.153
   63POPC   C1A 3879  39.241  31.615   8.719
   63POPC   D2A 3880  39.437  31.759   8.362
   63POPC   C3A 3881  39.304  31.556   7.992
   63POPC   C4A 3882  39.373  31.623   7.550
   63POPC   C1B 3883  38.990  31.132   8.780
   63POPC   C2B 3884  39.159  31.254   8.389
   63POPC   C3B 3885  38.989  31.157   8.024
   63POPC   C4B 3886  38.933  31.370   7.665
   64POPC   NC3 3887  41.456  38.549   9.581
   64POPC   PO4 3888  41.893  38.178   9.346
   64POPC   GL1 3889  41.545  38.512   9.079
   64POPC   GL2 3890  41.228  38.770   9.134
   64POPC   C1A 3891  41.481  38.765   8.672
   64POPC   D2A 3892  41.772  38.876   8.316
   64POPC   C3A 3893  41.654  38.686   7.904
   64POPC   C4A 3894  41.848  38.334   7.646
   64POPC   C1B 3895  40.989  38.621   8.721
   64POPC   C2B 3896  41.085  38.511   8.255
   64POPC   C3B 3897  41.069  38.479   7.777
   64POPC   C4B 3898  41.416  38.553   7.471
   65POPC   NC3 3899  44.819  19.565   9.577
   65POPC   PO4 3900  44.741  18.876   9.497
   65POPC   GL1 3901  44.648  18.990   9.078
   65POPC   GL2 3902  44.401  19.218   9.051
   65POPC   C1A 3903  44.941  19.006   8.724
   65POPC   D2A 3904   0.034  18.699   8.366
   65POPC   C3A 3905  44.773  18.624   8.011
   65POPC   C4A 3906  44.684  18.757   7.569
   65POPC   C1B 3907  44.285  19.365   8.633
   65POPC   C2B 3908  44.610  19.154   8.356
   65POPC   C3B 3909  44.750  19.121   7.938
   65POPC   C4B 3910  44.406  19.167   7.630
   66POPC   NC3 3911  44.353   2.696   9.668
   66POPC   PO4 3912  44.852   2.249   9.366
   66POPC   GL1 3913  44.672   1.998   9.043
   66POPC   GL2 3914  44.698   1.638   9.142
   66POPC   C1A 3915  44.548   2.209   8.652
   66POPC   D2A 3916  44.374   2.223   8.243
   66POPC   C3A 3917  44.694   2.164   7.976
   66POPC   C4A 3918   0.105   2.349   8.005
   66POPC   C1B 3919  44.786   1.635   8.696
   66POPC   C2B 3920  44.564   1.715   8.315
   66POPC   C3B 3921  44.677   1.619   7.887
   66POPC   C4B 3922  44.571   1.653   7.457
   67POPC   NC3 3923  15.768  31.131   9.379
   67POPC   PO4 3924  16.073  30.599   9.523
   67POPC   GL1 3925  15.846  30.675   9.148
   67POPC   GL2 3926  16.126  30.898   9.014
   67POPC   C1A 3927  15.780  30.713   8.695
   67POPC   D2A 3928  15.920  30.435   8.380
   67POPC   C3A 3929  15.750  30.604   8.034
   67POPC   C4A 3930  15.567  30.930   7.821
   67POPC   C1B 3931  16.203  30.435   8.879
   67POPC   C2B 3932  16.285  30.116   8.555
   67POPC   C3B 3933  16.304  30.233   8.093
   67POPC   C4B 3934  16.174  30.585   7.782
   68POPC   NC3 3935  17.000  35.507   9.508
   68POPC   PO4 3936  16.423  35.222   9.552
   68POPC   GL1 3937  16.566  35.451   9.218
   68POPC   GL2 3938  16.813  35.218   9.107
   68POPC   C1A 3939  16.695  35.620   8.814
   68POPC   D2A 3940  16.706  35.383   8.436
   68POPC   C3A 3941  16.814  35.597   8.065
   68POPC   C4A 3942  16.642  35.656   7.633
   68POPC   C1B 3943  16.983  35.028   8.717
   68POPC   C2B 3944  17.189  35.181   8.365
   68POPC   C3B 3945  17.103  35.161   7.957
   68POPC   C4B 3946  16.748  35.173   7.743
   69POPC   NC3 3947  26.377   9.478   9.589
   69POPC   PO4 3948  26.965   9.786   9.492
   69POPC   GL1 3949  26.786   9.746   9.159
   69POPC   GL2 3950  27.022   9.554   8.937
   69POPC   C1A 3951  26.675   9.894   8.802
   69POPC   D2A 3952  26.641   9.757   8.396
   69POPC   C3A 3953  26.805  10.033   8.097
   69POPC   C4A 3954  26.705   9.862   7.713
   69POPC   C1B 3955  27.135   9.756   8.573
   69POPC   C2B 3956  27.284   9.877   8.199
   69POPC   C3B 3957  27.062   9.608   7.964
   69POPC   C4B 3958  27.116   9.558   7.594
   70POPC   NC3 3959  39.759  20.963   9.327
   70POPC   PO4 3960  40.084  21.453   9.809
   70POPC   GL1 3961  40.023  21.443   9.304
   70POPC   GL2 3962  40.258  21.640   9.151
   70POPC   C1A 3963  39.833  21.400   8.871
   70POPC   D2A 3964  39.822  21.120   8.495
   70POPC   C3A 3965  40.054  21.255   8.123
   70POPC   C4A 3966  39.870  21.237   7.706
   70POPC   C1B 3967  40.189  21.752   8.791
   70POPC   C2B 3968  40.320  21.768   8.412
   70POPC   C3B 3969  40.266  21.793   8.015
   70POPC   C4B 3970  40.305  21.497   7.724
   71POPC   NC3 3971  40.786  17.084   9.624
   71POPC   PO4 3972  41.147  16.487   9.473
   71POPC   GL1 3973  41.026  16.538   9.090
   71POPC   GL2 3974  40.726  16.667   9.105
   71POPC   C1A 3975  41.021  16.670   8.683
   71POPC   D2A 3976  40.866  16.564   8.279
   71POPC   C3A 3977  41.028  16.803   7.921
   71POPC   C4A 3978  41.026  16.641   7.505
   71POPC   C1B 3979  40.523  16.575   8.735
   71POPC   C2B 3980  40.380  16.763   8.372
   71POPC   C3B 3981  40.492  16.789   7.931
   71POPC   C4B 3982  40.515  16.589   7.535
   72POPC   NC3 3983   3.079   9.038   9.415
   72POPC   PO4 3984   2.563   8.669   9.567
   72POPC   GL1 3985   2.635   8.920   9.185
   72POPC   GL2 3986   2.341   9.050   9.072
   72POPC   C1A 3987   2.877   8.830   8.801
   72POPC   D2A 3988   3.060   8.892   8.393
   72POPC   C3A 3989   2.849   8.884   8.005
   72POPC   C4A 3990   2.962   9.139   7.631
   72POPC   C1B 3991   2.373   8.758   8.743
   72POPC   C2B 3992   2.552   9.002   8.419
   72POPC   C3B 3993   2.422   9.171   8.046
   72POPC   C4B 3994   2.484   8.988   7.651
   73POPC   NC3 3995  11.622  32.583   9.474
   73POPC   PO4 3996  11.086  32.238   9.470
   73POPC   GL1 3997  11.370  32.292   9.101
   73POPC   GL2 3998  11.658  32.531   8.986
   73POPC   C1A 3999  11.437  32.154   8.676
   73POPC   D2A 4000  11.610  32.068   8.298
   73POPC   C3A 4001  11.360  31.942   8.025
   73POPC   C4A 4002  11.272  32.052   7.649
   73POPC   C1B 4003  11.348  32.650   8.725
   73POPC   C2B 4004  11.191  32.470   8.353
   73POPC   C3B 4005  11.449  32.466   8.002
   73POPC   C4B 4006  11.464  32.726   7.672
   74POPC   NC3 4007  39.478   2.219   9.295
   74POPC   PO4 4008  38.939   2.197   9.769
   74POPC   GL1 4009  39.068   1.880   9.342
   74POPC   GL2 4010  39.398   1.635   9.228
   74POPC   C1A 4011  39.151   1.863   8.838
   74POPC   D2A 4012  39.115   2.176   8.471
   74POPC   C3A 4013  38.923   2.030   8.085
   74POPC   C4A 4014  39.095   2.098   7.680
   74POPC   C1B 4015  39.691   1.675   8.816
   74POPC   C2B 4016  39.638   1.929   8.447
   74POPC   C3B 4017  39.412   1.931   8.075
   74POPC   C4B 4018  39.401   1.710   7.686
   75POPC   NC3 4019  14.202  40.524   9.575
   75POPC   PO4 4020  14.394  41.125   9.297
   75POPC   GL1 4021  14.574  40.878   8.995
   75POPC   GL2 4022  14.443  40.603   9.131
   75POPC   C1A 4023  14.548  40.830   8.560
   75POPC   D2A 4024  14.195  40.948   8.320
   75POPC   C3A 4025  14.359  41.018   7.932
   75POPC   C4A 4026  14.279  40.971   7.482
   75POPC   C1B 4027  14.183  40.589   8.787
   75POPC   C2B 4028  14.259  40.438   8.382
   75POPC   C3B 4029  14.212  40.522   7.975
   75POPC   C4B 4030  14.357  40.324   7.632
   76POPC   NC3 4031  19.391  23.776   9.531
   76POPC   PO4 4032  18.760  23.818   9.599
   76POPC   GL1 4033  19.002  23.964   9.254
   76POPC   GL2 4034  19.069  23.610   9.132
   76POPC   C1A 4035  19.070  24.033   8.817
   76POPC   D2A 4036  19.294  23.982   8.436
   76POPC   C3A 4037  19.145  23.983   8.016
   76POPC   C4A 4038  19.038  23.901   7.591
   76POPC   C1B 4039  19.153  23.510   8.693
   76POPC   C2B 4040  19.049  23.532   8.244
   76POPC   C3B 4041  19.311  23.517   7.870
   76POPC   C4B 4042  19.363  23.509   7.418
   77POPC   NC3 4043  17.162  25.729   9.513
   77POPC   PO4 4044  17.671  26.179   9.433
   77POPC   GL1 4045  17.548  26.266   9.044
   77POPC   GL2 4046  17.190  26.269   9.091
   77POPC   C1A 4047  17.784  26.239   8.687
   77POPC   D2A 4048  17.780  26.048   8.323
   77POPC   C3A 4049  17.447  26.176   8.100
   77POPC   C4A 4050  17.411  25.953   7.773
   77POPC   C1B 4051  17.246  25.932   8.774
   77POPC   C2B 4052  17.328  25.753   8.366
   77POPC   C3B 4053  17.133  25.585   8.010
   77POPC   C4B 4054  16.977  25.773   7.637
   78POPC   NC3 4055  28.652  32.367   9.536
   78POPC   PO4 4056  27.986  32.295   9.481
   78POPC   GL1 4057  28.361  32.180   9.159
   78POPC   GL2 4058  28.462  32.502   9.065
   78POPC   C1A 4059  28.550  32.130   8.732
   78POPC   D2A 4060  28.312  32.319   8.393
   78POPC   C3A 4061  28.382  32.208   7.973
   78POPC   C4A 4062  28.075  32.075   7.695
   78POPC   C1B 4063  28.046  32.449   8.823
   78POPC   C2B 4064  27.916  32.667   8.424
   78POPC   C3B 4065  27.956  32.489   8.004
   78POPC   C4B 4066  28.205  32.602   7.627
   79POPC   NC3 4067  44.173  31.146   9.527
   79POPC   PO4 4068  43.752  31.761   9.547
   79POPC   GL1 4069  43.740  31.709   9.137
   79POPC   GL2 4070  43.960  31.416   9.136
   79POPC   C1A 4071  43.626  31.513   8.759
   79POPC   D2A 4072  43.910  31.282   8.482
   79POPC   C3A 4073  43.725  31.330   8.086
   79POPC   C4A 4074  43.875  31.339   7.671
   79POPC   C1B 4075  44.135  31.647   8.796
   79POPC   C2B 4076  44.366  31.570   8.432
   79POPC   C3B 4077  44.185  31.557   8.017
   79POPC   C4B 4078  44.222  31.773   7.582
   80POPC   NC3 4079  32.019  23.980   9.344
   80POPC   PO4 4080  32.341  23.431   9.578
   80POPC   GL1 4081  32.177  23.436   9.201
   80POPC   GL2 4082  32.385  23.709   9.138
   80POPC   C1A 4083  32.076  23.498   8.775
   80POPC   D2A 4084  32.157  23.710   8.397
   80POPC   C3A 4085  31.991  23.503   8.069
   80POPC   C4A 4086  31.890  23.728   7.714
   80POPC   C1B 4087  32.493  23.859   8.753
   80POPC   C2B 4088  32.683  23.689   8.372
   80POPC   C3B 4089  32.507  23.716   7.957
   80POPC   C4B 4090  32.478  23.733   7.512
   81POPC   NC3 4091  29.392  36.388   9.794
   81POPC   PO4 4092  29.108  36.953   9.723
   81POPC   GL1 4093  29.129  36.995   9.252
   81POPC   GL2 4094  28.908  37.276   9.144
   81POPC   C1A 4095  29.033  36.783   8.863
   81POPC   D2A 4096  29.102  36.858   8.420
   81POPC   C3A 4097  28.870  36.648   8.120
   81POPC   C4A 4098  28.923  36.513   7.716
   81POPC   C1B 4099  29.095  37.263   8.745
   81POPC   C2B 4100  29.000  37.406   8.357
   81POPC   C3B 4101  28.961  37.210   7.970
   81POPC   C4B 4102  29.180  36.984   7.673
   82POPC   NC3 4103  14.863   0.056   9.187
   82POPC   PO4 4104  14.556   0.604   9.380
   82POPC   GL1 4105  14.420   0.349   9.050
   82POPC   GL2 4106  14.030   0.325   9.086
   82POPC   C1A 4107  14.548   0.421   8.643
   82POPC   D2A 4108  14.410   0.793   8.449
   82POPC   C3A 4109  14.500   0.832   8.044
   82POPC   C4A 4110  14.207   0.677   7.757
   82POPC   C1B 4111  14.039   0.471   8.620
   82POPC   C2B 4112  14.253   0.376   8.203
   82POPC   C3B 4113  14.232   0.125   7.814
   82POPC   C4B 4114  14.107  44.949   7.390
   83POPC   NC3 4115  44.486  24.251   9.993
   83POPC   PO4 4116  44.867  23.957   9.456
   83POPC   GL1 4117  44.610  23.849   9.117
   83POPC   GL2 4118  44.586  23.515   9.032
   83POPC   C1A 4119  44.453  23.957   8.740
   83POPC   D2A 4120  44.642  24.047   8.335
   83POPC   C3A 4121  44.602  23.796   7.946
   83POPC   C4A 4122  44.586  23.431   7.705
   83POPC   C1B 4123  44.653  23.413   8.617
   83POPC   C2B 4124  44.756  23.350   8.169
   83POPC   C3B 4125   0.073  23.540   7.832
   83POPC   C4B 4126   0.420  23.349   7.562
   84POPC   NC3 4127  27.197   2.903   9.411
   84POPC   PO4 4128  26.541   2.647   9.460
   84POPC   GL1 4129  26.735   2.919   9.120
   84POPC   GL2 4130  27.004   2.696   8.986
   84POPC   C1A 4131  26.668   2.832   8.651
   84POPC   D2A 4132  26.863   2.507   8.416
   84POPC   C3A 4133  26.842   2.580   7.974
   84POPC   C4A 4134  26.862   3.010   7.789
   84POPC   C1B 4135  27.186   2.886   8.591
   84POPC   C2B 4136  27.285   3.201   8.259
   84POPC   C3B 4137  27.355   3.081   7.806
   84POPC   C4B 4138  27.273   3.130   7.316
   85POPC   NC3 4139  12.788  21.889   9.439
   85POPC   PO4 4140  13.251  22.441   9.546
   85POPC   GL1 4141  13.149  22.224   9.118
   85POPC   GL2 4142  13.130  21.837   9.013
   85POPC   C1A 4143  12.908  22.248   8.718
   85POPC   D2A 4144  12.658  22.190   8.321
   85POPC   C3A 4145  12.794  22.282   7.853
   85POPC   C4A 4146  12.925  22.160   7.389
   85POPC   C1B 4147  12.687  21.791   8.803
   85POPC   C2B 4148  12.564  21.663   8.405
   85POPC   C3B 4149  12.771  21.787   8.032
   85POPC   C4B 4150  12.607  21.843   7.638
   86POPC   NC3 4151  42.460  39.939   9.604
   86POPC   PO4 4152  41.814  39.934   9.524
   86POPC   GL1 4153  42.121  39.768   9.209
   86POPC   GL2 4154  42.480  39.647   9.198
   86POPC   C1A 4155  42.295  39.912   8.812
   86POPC   D2A 4156  42.324  40.139   8.446
   86POPC   C3A 4157  42.119  39.970   8.098
   86POPC   C4A 4158  42.041  40.136   7.719
   86POPC   C1B 4159  42.775  39.932   8.963
   86POPC   C2B 4160  42.827  40.020   8.566
   86POPC   C3B 4161  42.809  39.982   8.143
   86POPC   C4B 4162  42.536  40.015   7.794
   87POPC   NC3 4163  28.821  33.068   9.390
   87POPC   PO4 4164  29.453  33.357   9.630
   87POPC   GL1 4165  29.281  33.222   9.223
   87POPC   GL2 4166  29.011  33.318   8.995
   87POPC   C1A 4167  29.302  32.906   8.868
   87POPC   D2A 4168  29.099  32.825   8.450
   87POPC   C3A 4169  29.281  33.002   8.072
   87POPC   C4A 4170  29.315  32.847   7.643
   87POPC   C1B 4171  29.150  33.330   8.560
   87POPC   C2B 4172  29.121  33.486   8.130
   87POPC   C3B 4173  28.930  33.289   7.755
   87POPC   C4B 4174  29.078  33.214   7.327
   88POPC   NC3 4175  37.029  25.237   9.318
   88POPC   PO4 4176  36.458  25.563   9.546
   88POPC   GL1 4177  36.623  25.453   9.079
   88POPC   GL2 4178  36.734  25.078   8.948
   88POPC   C1A 4179  36.841  25.658   8.694
   88POPC   D2A 4180  37.199  25.700   8.372
   88POPC   C3A 4181  36.990  25.724   7.953
   88POPC   C4A 4182  37.037  25.574   7.495
   88POPC   C1B 4183  37.049  25.190   8.638
   88POPC   C2B 4184  36.914  25.297   8.231
   88POPC   C3B 4185  36.924  25.170   7.823
   88POPC   C4B 4186  37.235  25.032   7.529
   89POPC   NC3 4187  17.357   1.734   9.496
   89POPC   PO4 4188  17.919   2.120   9.707
   89POPC   GL1 4189  17.616   2.194   9.301
   89POPC   GL2 4190  17.358   1.991   9.068
   89POPC   C1A 4191  17.623   2.339   8.861
   89POPC   D2A 4192  17.415   2.090   8.520
   89POPC   C3A 4193  17.475   2.265   8.098
   89POPC   C4A 4194  17.165   2.151   7.777
   89POPC   C1B 4195  17.699   1.787   8.866
   89POPC   C2B 4196  17.749   1.678   8.438
   89POPC   C3B 4197  17.496   1.762   8.080
   89POPC   C4B 4198  17.289   1.670   7.686
   90POPC   NC3 4199  15.680  36.826   9.520
   90POPC   PO4 4200  16.202  37.167   9.424
   90POPC   GL1 4201  15.874  37.057   9.115
   90POPC   GL2 4202  15.971  36.705   9.109
   90POPC   C1A 4203  15.736  36.882   8.714
   90POPC   D2A 4204  15.939  36.873   8.339
   90POPC   C3A 4205  15.611  36.879   8.076
   90POPC   C4A 4206  15.644  36.955   7.709
   90POPC   C1B 4207  16.143  36.527   8.708
   90POPC   C2B 4208  16.179  36.391   8.265
   90POPC   C3B 4209  16.443  36.455   7.874
   90POPC   C4B 4210  16.362  36.516   7.410
   91POPC   NC3 4211   9.253  15.477   9.829
   91POPC   PO4 4212   8.818  15.740   9.353
   91POPC   GL1 4213   8.883  16.041   9.042
   91POPC   GL2 4214   9.223  16.036   8.992
   91POPC   C1A 4215   8.685  15.869   8.694
   91POPC   D2A 4216   8.855  15.511   8.461
   91POPC   C3A 4217   9.070  15.638   8.142
   91POPC   C4A 4218   8.942  15.760   7.759
   91POPC   C1B 4219   9.142  15.971   8.538
   91POPC   C2B 4220   9.070  16.156   8.120
   91POPC   C3B 4221   9.312  16.144   7.721
   91POPC   C4B 4222   9.398  16.053   7.247
   92POPC   NC3 4223  27.068  25.969   9.722
   92POPC   PO4 4224  26.672  25.964   9.218
   92POPC   GL1 4225  26.809  26.176   8.894
   92POPC   GL2 4226  26.583  26.476   8.876
   92POPC   C1A 4227  26.923  26.085   8.520
   92POPC   D2A 4228  26.706  25.957   8.191
   92POPC   C3A 4229  27.021  25.756   7.992
   92POPC   C4A 4230  27.152  25.980   7.685
   92POPC   C1B 4231  26.411  26.221   8.576
   92POPC   C2B 4232  26.302  26.335   8.175
   92POPC   C3B 4233  26.542  26.300   7.825
   92POPC   C4B 4234  26.638  25.894   7.687
   93POPC   NC3 4235   3.325  38.235   9.452
   93POPC   PO4 4236   3.943  38.324   9.216
   93POPC   GL1 4237   3.593  38.295   9.009
   93POPC   GL2 4238   3.421  38.607   9.125
   93POPC   C1A 4239   3.575  38.189   8.586
   93POPC   D2A 4240   3.284  38.345   8.305
   93POPC   C3A 4241   3.347  38.181   7.902
   93POPC   C4A 4242   3.755  38.261   7.835
   93POPC   C1B 4243   3.589  38.823   8.786
   93POPC   C2B 4244   3.345  38.908   8.438
   93POPC   C3B 4245   3.296  38.786   8.004
   93POPC   C4B 4246   3.478  38.761   7.595
   94POPC   NC3 4247  38.381   5.702   9.555
   94POPC   PO4 4248  38.291   6.313   9.273
   94POPC   GL1 4249  38.500   5.964   9.103
   94POPC   GL2 4250  38.728   5.644   9.189
   94POPC   C1A 4251  38.423   6.004   8.655
   94POPC   D2A 4252  38.088   5.875   8.385
   94POPC   C3A 4253  38.168   6.045   7.981
   94POPC   C4A 4254  38.623   6.083   7.870
   94POPC   C1B 4255  38.449   5.542   8.840
   94POPC   C2B 4256  38.500   5.542   8.422
   94POPC   C3B 4257  38.379   5.588   8.031
   94POPC   C4B 4258  38.693   5.564   7.751
   95POPC   NC3 4259  23.994   3.294   9.386
   95POPC   PO4 4260  23.322   3.413   9.395
   95POPC   GL1 4261  23.601   3.526   9.104
   95POPC   GL2 4262  23.844   3.775   9.194
   95POPC   C1A 4263  23.799   3.385   8.738
   95POPC   D2A 4264  23.812   3.197   8.345
   95POPC   C3A 4265  23.615   3.417   8.032
   95POPC   C4A 4266  23.680   3.432   7.575
   95POPC   C1B 4267  23.744   3.882   8.759
   95POPC   C2B 4268  23.901   3.752   8.319
   95POPC   C3B 4269  23.817   3.877   7.869
   95POPC   C4B 4270  23.730   3.898   7.409
   96POPC   NC3 4271  43.724  23.702   9.647
   96POPC   PO4 4272  44.395  23.817   9.707
   96POPC   GL1 4273  44.167  23.671   9.303
   96POPC   GL2 4274  43.875  23.813   9.174
   96POPC   C1A 4275  44.131  23.559   8.807
   96POPC   D2A 4276  44.304  23.663   8.358
   96POPC   C3A 4277  44.149  23.504   8.000
   96POPC   C4A 4278  44.162  23.702   7.622
   96POPC   C1B 4279  43.695  23.881   8.784
   96POPC   C2B 4280  43.813  23.728   8.409
   96POPC   C3B 4281  43.816  23.877   8.004
   96POPC   C4B 4282  43.665  23.594   7.729
   97POPC   NC3 4283  14.991  44.450   9.825
   97POPC   PO4 4284  15.202  43.909   9.506
   97POPC   GL1 4285  15.033  43.744   9.138
   97POPC   GL2 4286  15.253  43.441   9.069
   97POPC   C1A 4287  15.154  43.910   8.763
   97POPC   D2A 4288  15.104  44.129   8.387
   97POPC   C3A 4289  15.000  43.857   8.071
   97POPC   C4A 4290  14.986  43.963   7.654
   97POPC   C1B 4291  14.911  43.385   8.764
   97POPC   C2B 4292  14.840  43.355   8.297
   97POPC   C3B 4293  14.954  43.411   7.836
   97POPC   C4B 4294  15.275  43.482   7.513
   98POPC   NC3 4295  42.286  20.990   9.859
   98POPC   PO4 4296  42.555  20.560   9.397
   98POPC   GL1 4297  42.373  20.623   8.976
   98POPC   GL2 4298  42.040  20.821   8.939
   98POPC   C1A 4299  42.254  20.453   8.620
   98POPC   D2A 4300  42.397  20.195   8.353
   98POPC   C3A 4301  42.277  20.442   8.047
   98POPC   C4A 4302  42.354  20.475   7.637
   98POPC   C1B 4303  42.364  20.983   8.643
   98POPC   C2B 4304  42.596  20.764   8.329
   98POPC   C3B 4305  42.578  20.874   7.904
   98POPC   C4B 4306  42.454  20.922   7.463
   99POPC   NC3 4307  27.478   2.001   9.409
   99POPC   PO4 4308  28.020   2.456   9.510
   99POPC   GL1 4309  27.840   2.268   9.122
   99POPC   GL2 4310  27.857   1.903   9.070
   99POPC   C1A 4311  27.632   2.221   8.755
   99POPC   D2A 4312  27.365   2.371   8.477
   99POPC   C3A 4313  27.478   2.075   8.173
   99POPC   C4A 4314  27.489   2.067   7.742
   99POPC   C1B 4315  27.792   1.716   8.699
   99POPC   C2B 4316  27.624   1.542   8.345
   99POPC   C3B 4317  27.465   1.598   7.966
   99POPC   C4B 4318  27.861   1.726   7.771
  100POPC   NC3 4319  33.161   4.892   9.869
  100POPC   PO4 4320  32.813   5.387   9.636
  100POPC   GL1 4321  32.928   5.323   9.197
  100POPC   GL2 4322  33.146   5.072   9.129
  100POPC   C1A 4323  32.837   5.169   8.734
  100POPC   D2A 4324  32.769   5.305   8.291
  100POPC   C3A 4325  32.982   5.232   7.888
  100POPC   C4A 4326  32.900   5.260   7.422
  100POPC   C1B 4327  33.249   4.835   8.766
  100POPC   C2B 4328  33.197   4.985   8.342
  100POPC   C3B 4329  33.184   4.757   7.953
  100POPC   C4B 4330  33.379   4.692   7.550
  101POPC   NC3 4331  16.006  38.871   9.765
  101POPC   PO4 4332  15.491  38.762   9.361
  101POPC   GL1 4333  15.751  38.795   9.031
  101POPC   GL2 4334  16.067  38.905   9.129
  101POPC   C1A 4335  15.837  38.535   8.694
  101POPC   D2A 4336  15.661  38.238   8.454
  101POPC   C3A 4337  15.753  38.308   8.063
  101POPC   C4A 4338  15.721  38.722   7.898
  101POPC   C1B 4339  16.170  38.936   8.673
  101POPC   C2B 4340  16.200  38.614   8.306
  101POPC   C3B 4341  16.201  38.521   7.842
  101POPC   C4B 4342  16.330  38.640   7.399
  102POPC   NC3 4343  13.377  30.738   9.552
  102POPC   PO4 4344  12.672  30.687   9.515
  102POPC   GL1 4345  12.971  30.823   9.232
  102POPC   GL2 4346  12.696  31.032   9.135
  102POPC   C1A 4347  13.139  30.680   8.842
  102POPC   D2A 4348  13.225  30.837   8.450
  102POPC   C3A 4349  13.099  30.656   8.076
  102POPC   C4A 4350  12.903  30.913   7.785
  102POPC   C1B 4351  12.633  30.713   8.829
  102POPC   C2B 4352  12.740  30.504   8.432
  102POPC   C3B 4353  12.584  30.550   7.990
  102POPC   C4B 4354  12.606  30.571   7.514
  103POPC   NC3 4355   9.537  33.259   9.422
  103POPC   PO4 4356  10.042  32.840   9.481
  103POPC   GL1 4357   9.737  32.879   9.154
  103POPC   GL2 4358   9.580  32.525   9.139
  103POPC   C1A 4359   9.582  33.126   8.765
  103POPC   D2A 4360   9.280  33.444   8.594
  103POPC   C3A 4361   9.302  33.386   8.142
  103POPC   C4A 4362   9.539  33.127   7.799
  103POPC   C1B 4363   9.786  32.644   8.729
  103POPC   C2B 4364   9.930  32.948   8.410
  103POPC   C3B 4365   9.813  32.776   8.017
  103POPC   C4B 4366   9.677  32.614   7.604
  104POPC   NC3 4367   0.943   8.360   9.381
  104POPC   PO4 4368   1.505   8.073   9.122
  104POPC   GL1 4369   1.181   8.242   8.961
  104POPC   GL2 4370   0.957   8.008   9.006
  104POPC   C1A 4371   1.157   8.451   8.604
  104POPC   D2A 4372   1.507   8.413   8.319
  104POPC   C3A 4373   1.305   8.260   7.960
  104POPC   C4A 4374   1.489   8.253   7.554
  104POPC   C1B 4375   1.036   7.955   8.571
  104POPC   C2B 4376   0.794   8.134   8.282
  104POPC   C3B 4377   0.792   8.111   7.857
  104POPC   C4B 4378   1.011   8.104   7.509
  105POPC   NC3 4379  11.600  36.046   9.445
  105POPC   PO4 4380  11.193  36.508   9.518
  105POPC   GL1 4381  11.217  36.229   9.128
  105POPC   GL2 4382  11.219  35.863   9.140
  105POPC   C1A 4383  11.297  36.077   8.694
  105POPC   D2A 4384  11.481  36.258   8.355
  105POPC   C3A 4385  11.187  36.413   8.097
  105POPC   C4A 4386  11.293  36.215   7.737
  105POPC   C1B 4387  11.588  35.683   8.881
  105POPC   C2B 4388  11.724  35.790   8.450
  105POPC   C3B 4389  11.474  35.822   8.052
  105POPC   C4B 4390  11.597  35.811   7.608
  106POPC   NC3 4391  36.755  19.903   9.788
  106POPC   PO4 4392  36.736  20.570   9.605
  106POPC   GL1 4393  36.828  20.587   9.170
  106POPC   GL2 4394  37.186  20.471   9.145
  106POPC   C1A 4395  36.623  20.695   8.751
  106POPC   D2A 4396  36.416  20.779   8.317
  106POPC   C3A 4397  36.692  20.796   7.943
  106POPC   C4A 4398  36.813  20.644   7.508
  106POPC   C1B 4399  36.991  20.331   8.756
  106POPC   C2B 4400  36.845  20.468   8.319
  106POPC   C3B 4401  36.785  20.265   7.917
  106POPC   C4B 4402  37.094  20.209   7.563
  107POPC   NC3 4403  39.322  35.316   9.431
  107POPC   PO4 4404  38.730  35.077   9.326
  107POPC   GL1 4405  38.976  35.252   9.078
  107POPC   GL2 4406  38.935  35.581   9.190
  107POPC   C1A 4407  39.194  35.171   8.729
  107POPC   D2A 4408  39.315  35.215   8.317
  107POPC   C3A 4409  39.105  35.052   7.947
  107POPC   C4A 4410  39.257  35.036   7.534
  107POPC   C1B 4411  38.905  35.598   8.716
  107POPC   C2B 4412  39.232  35.708   8.387
  107POPC   C3B 4413  39.442  35.574   7.981
  107POPC   C4B 4414  39.095  35.720   7.773
  108POPC   NC3 4415  36.882  30.817   9.509
  108POPC   PO4 4416  36.443  30.279   9.420
  108POPC   GL1 4417  36.695  30.586   9.086
  108POPC   GL2 4418  36.753  30.971   9.040
  108POPC   C1A 4419  36.783  30.633   8.648
  108POPC   D2A 4420  36.935  30.323   8.404
  108POPC   C3A 4421  37.016  30.461   8.031
  108POPC   C4A 4422  36.704  30.565   7.788
  108POPC   C1B 4423  37.137  30.948   8.827
  108POPC   C2B 4424  37.026  31.117   8.454
  108POPC   C3B 4425  36.858  31.009   8.062
  108POPC   C4B 4426  37.103  30.878   7.748
  109POPC   NC3 4427  23.948  10.366   9.408
  109POPC   PO4 4428  24.505  10.438   9.686
  109POPC   GL1 4429  24.540  10.519   9.219
  109POPC   GL2 4430  24.256  10.532   9.056
  109POPC   C1A 4431  24.613  10.416   8.738
  109POPC   D2A 4432  24.364  10.343   8.372
  109POPC   C3A 4433  24.518  10.540   8.028
  109POPC   C4A 4434  24.638  10.660   7.631
  109POPC   C1B 4435  24.219  10.748   8.689
  109POPC   C2B 4436  24.021  10.773   8.311
  109POPC   C3B 4437  24.004  10.653   7.912
  109POPC   C4B 4438  24.090  10.869   7.511
  110POPC   NC3 4439   4.851  33.855   9.697
  110POPC   PO4 4440   5.354  34.145   9.593
  110POPC   GL1 4441   5.271  33.871   9.217
  110POPC   GL2 4442   4.944  33.708   9.199
  110POPC   C1A 4443   5.195  33.748   8.772
  110POPC   D2A 4444   5.096  33.512   8.376
  110POPC   C3A 4445   5.035  33.788   8.022
  110POPC   C4A 4446   5.221  33.861   7.615
  110POPC   C1B 4447   4.719  33.585   8.758
  110POPC   C2B 4448   4.577  33.428   8.365
  110POPC   C3B 4449   4.580  33.526   7.931
  110POPC   C4B 4450   4.860  33.506   7.574
  111POPC   NC3 4451  14.649  42.683   9.484
  111POPC   PO4 4452  14.462  43.276   9.549
  111POPC   GL1 4453  14.439  43.060   9.131
  111POPC   GL2 4454  14.257  43.357   9.051
  111POPC   C1A 4455  14.500  43.090   8.649
  111POPC   D2A 4456  14.436  42.903   8.252
  111POPC   C3A 4457  14.445  43.270   7.991
  111POPC   C4A 4458  14.524  43.315   7.601
  111POPC   C1B 4459  14.018  43.095   8.774
  111POPC   C2B 4460  14.083  43.248   8.368
  111POPC   C3B 4461  13.949  43.175   7.961
  111POPC   C4B 4462  14.052  43.198   7.528
  112POPC   NC3 4463   6.346  35.154   9.318
  112POPC   PO4 4464   6.873  35.608   9.420
  112POPC   GL1 4465   6.864  35.356   9.061
  112POPC   GL2 4466   6.542  35.508   8.968
  112POPC   C1A 4467   6.705  35.043   8.743
  112POPC   D2A 4468   6.456  35.121   8.369
  112POPC   C3A 4469   6.718  35.223   8.007
  112POPC   C4A 4470   6.877  35.583   7.756
  112POPC   C1B 4471   6.158  35.409   8.734
  112POPC   C2B 4472   5.971  35.630   8.436
  112POPC   C3B 4473   6.143  35.538   8.090
  112POPC   C4B 4474   6.354  35.494   7.754
  113POPC   NC3 4475  37.568  35.189   9.564
  113POPC   PO4 4476  38.013  35.766   9.440
  113POPC   GL1 4477  37.992  35.631   9.050
  113POPC   GL2 4478  37.772  35.345   9.129
  113POPC   C1A 4479  37.714  35.596   8.701
  113POPC   D2A 4480  37.815  35.471   8.304
  113POPC   C3A 4481  37.613  35.588   7.973
  113POPC   C4A 4482  37.740  35.555   7.551
  113POPC   C1B 4483  37.798  35.025   8.832
  113POPC   C2B 4484  37.859  34.978   8.411
  113POPC   C3B 4485  37.678  35.072   8.003
  113POPC   C4B 4486  37.851  35.090   7.600
  114POPC   NC3 4487  15.741  32.815   9.459
  114POPC   PO4 4488  16.404  32.817   9.610
  114POPC   GL1 4489  16.146  33.084   9.276
  114POPC   GL2 4490  15.842  33.302   9.217
  114POPC   C1A 4491  15.978  32.989   8.845
  114POPC   D2A 4492  16.144  32.905   8.431
  114POPC   C3A 4493  15.888  32.892   8.064
  114POPC   C4A 4494  16.134  33.245   7.905
  114POPC   C1B 4495  15.636  33.387   8.829
  114POPC   C2B 4496  15.633  33.238   8.368
  114POPC   C3B 4497  15.638  33.312   7.894
  114POPC   C4B 4498  15.580  33.329   7.438
  115POPC   NC3 4499   6.775  11.445   9.471
  115POPC   PO4 4500   6.454  10.870   9.615
  115POPC   GL1 4501   6.446  11.118   9.205
  115POPC   GL2 4502   6.245  11.411   9.307
  115POPC   C1A 4503   6.700  11.252   8.818
  115POPC   D2A 4504   6.987  11.354   8.472
  115POPC   C3A 4505   6.832  11.424   8.069
  115POPC   C4A 4506   6.687  11.148   7.789
  115POPC   C1B 4507   6.276  11.537   8.887
  115POPC   C2B 4508   6.140  11.502   8.465
  115POPC   C3B 4509   6.339  11.588   8.075
  115POPC   C4B 4510   6.300  11.462   7.698
  116POPC   NC3 4511  19.547  40.808   9.639
  116POPC   PO4 4512  18.931  40.863   9.962
  116POPC   GL1 4513  19.065  40.763   9.431
  116POPC   GL2 4514  19.263  40.444   9.322
  116POPC   C1A 4515  19.180  40.785   8.920
  116POPC   D2A 4516  19.462  40.940   8.531
  116POPC   C3A 4517  19.404  40.930   8.062
  116POPC   C4A 4518  19.059  40.883   7.761
  116POPC   C1B 4519  19.230  40.285   8.876
  116POPC   C2B 4520  19.252  40.465   8.459
  116POPC   C3B 4521  19.010  40.504   8.092
  116POPC   C4B 4522  18.985  40.271   7.722
  117POPC   NC3 4523  10.854  21.501   9.547
  117POPC   PO4 4524  10.230  21.284   9.427
  117POPC   GL1 4525  10.477  21.582   9.121
  117POPC   GL2 4526  10.798  21.427   9.065
  117POPC   C1A 4527  10.693  21.652   8.645
  117POPC   D2A 4528  10.492  21.556   8.229
  117POPC   C3A 4529  10.627  21.642   7.793
  117POPC   C4A 4530  10.632  21.835   7.382
  117POPC   C1B 4531  10.545  21.199   8.782
  117POPC   C2B 4532  10.492  21.066   8.375
  117POPC   C3B 4533  10.503  21.109   7.922
  117POPC   C4B 4534  10.716  20.954   7.529
  118POPC   NC3 4535  14.953  37.502   9.398
  118POPC   PO4 4536  15.512  37.891   9.435
  118POPC   GL1 4537  15.176  37.882   9.153
  118POPC   GL2 4538  15.336  37.559   9.048
  118POPC   C1A 4539  14.982  37.772   8.750
  118POPC   D2A 4540  15.009  37.476   8.409
  118POPC   C3A 4541  15.027  37.696   8.038
  118POPC   C4A 4542  14.791  38.059   7.916
  118POPC   C1B 4543  15.525  37.849   8.767
  118POPC   C2B 4544  15.375  37.846   8.369
  118POPC   C3B 4545  15.516  37.810   7.958
  118POPC   C4B 4546  15.421  37.419   7.755
  119POPC   NC3 4547  25.805  44.940   9.544
  119POPC   PO4 4548  25.172  44.697   9.431
  119POPC   GL1 4549  25.402  44.488   9.170
  119POPC   GL2 4550  25.619  44.750   9.081
  119POPC   C1A 4551  25.203  44.291   8.816
  119POPC   D2A 4552  25.052  44.454   8.448
  119POPC   C3A 4553  25.099  44.292   8.051
  119POPC   C4A 4554  25.323  44.540   7.778
  119POPC   C1B 4555  25.237  44.813   8.799
  119POPC   C2B 4556  25.158   0.011   8.417
  119POPC   C3B 4557  25.391   0.003   8.034
  119POPC   C4B 4558  25.426   0.238   7.651
  120POPC   NC3 4559  40.718  16.311   9.476
  120POPC   PO4 4560  41.356  15.987   9.557
  120POPC   GL1 4561  41.048  16.003   9.176
  120POPC   GL2 4562  40.695  15.915   9.153
  120POPC   C1A 4563  40.878  16.163   8.751
  120POPC   D2A 4564  40.557  16.170   8.420
  120POPC   C3A 4565  40.732  16.094   8.035
  120POPC   C4A 4566  40.852  16.198   7.642
  120POPC   C1B 4567  40.486  15.775   8.769
  120POPC   C2B 4568  40.267  15.740   8.387
  120POPC   C3B 4569  40.369  15.741   7.970
  120POPC   C4B 4570  40.701  15.678   7.702
  121POPC   NC3 4571  12.099  33.118   9.700
  121POPC   PO4 4572  12.077  32.518   9.468
  121POPC   GL1 4573  11.981  32.886   9.194
  121POPC   GL2 4574  12.097  33.230   9.200
  121POPC   C1A 4575  11.838  32.998   8.769
  121POPC   D2A 4576  11.844  33.204   8.349
  121POPC   C3A 4577  11.878  32.879   8.024
  121POPC   C4A 4578  12.246  32.749   7.830
  121POPC   C1B 4579  12.198  33.405   8.785
  121POPC   C2B 4580  12.341  33.278   8.367
  121POPC   C3B 4581  12.218  33.258   7.932
  121POPC   C4B 4582  12.225  33.368   7.503
  122POPC   NC3 4583   1.555  42.039   9.378
  122POPC   PO4 4584   1.964  42.555   9.499
  122POPC   GL1 4585   1.947  42.378   9.108
  122POPC   GL2 4586   2.009  42.024   9.121
  122POPC   C1A 4587   2.080  42.478   8.688
  122POPC   D2A 4588   2.277  42.353   8.308
  122POPC   C3A 4589   1.992  42.451   7.940
  122POPC   C4A 4590   2.044  42.806   7.643
  122POPC   C1B 4591   1.746  42.078   8.746
  122POPC   C2B 4592   1.787  42.174   8.333
  122POPC   C3B 4593   1.555  42.122   7.952
  122POPC   C4B 4594   1.805  42.055   7.599
  123POPC   NC3 4595  26.551   6.800   9.853
  123POPC   PO4 4596  26.589   7.450   9.486
  123POPC   GL1 4597  26.672   7.322   9.081
  123POPC   GL2 4598  26.399   7.118   8.898
  123POPC   C1A 4599  26.756   7.441   8.696
  123POPC   D2A 4600  26.599   7.274   8.352
  123POPC   C3A 4601  26.613   7.501   7.987
  123POPC   C4A 4602  26.661   7.306   7.602
  123POPC   C1B 4603  26.762   6.929   8.698
  123POPC   C2B 4604  26.975   6.912   8.369
  123POPC   C3B 4605  26.872   7.056   7.987
  123POPC   C4B 4606  27.087   7.028   7.612
  124POPC   NC3 4607  40.585   0.851   9.468
  124POPC   PO4 4608  40.507   1.512   9.448
  124POPC   GL1 4609  40.708   1.236   9.108
  124POPC   GL2 4610  40.744   0.913   9.001
  124POPC   C1A 4611  40.699   1.304   8.685
  124POPC   D2A 4612  40.972   1.215   8.368
  124POPC   C3A 4613  40.730   1.200   8.012
  124POPC   C4A 4614  40.745   1.542   7.710
  124POPC   C1B 4615  41.105   0.884   8.770
  124POPC   C2B 4616  41.312   0.801   8.408
  124POPC   C3B 4617  41.102   0.831   8.038
  124POPC   C4B 4618  41.150   0.793   7.630
  125POPC   NC3 4619   3.829  30.076   9.405
  125POPC   PO4 4620   3.182  30.006   9.635
  125POPC   GL1 4621   3.348  30.075   9.201
  125POPC   GL2 4622   3.416  30.416   9.255
  125POPC   C1A 4623   3.392  29.891   8.766
  125POPC   D2A 4624   3.271  29.951   8.312
  125POPC   C3A 4625   3.555  29.723   8.017
  125POPC   C4A 4626   3.511  29.748   7.563
  125POPC   C1B 4627   3.562  30.399   8.830
  125POPC   C2B 4628   3.556  30.460   8.404
  125POPC   C3B 4629   3.607  30.240   8.033
  125POPC   C4B 4630   3.591  30.354   7.631
  126POPC   NC3 4631   3.373  35.804   9.900
  126POPC   PO4 4632   3.666  36.089   9.380
  126POPC   GL1 4633   3.383  36.056   9.077
  126POPC   GL2 4634   3.264  36.320   9.128
  126POPC   C1A 4635   3.419  35.891   8.686
  126POPC   D2A 4636   3.584  36.099   8.345
  126POPC   C3A 4637   3.654  35.929   7.947
  126POPC   C4A 4638   4.000  35.810   7.724
  126POPC   C1B 4639   3.472  36.435   8.732
  126POPC   C2B 4640   3.377  36.618   8.351
  126POPC   C3B 4641   3.335  36.367   7.995
  126POPC   C4B 4642   3.504  36.288   7.564
  127POPC   NC3 4643  11.478  23.069   9.570
  127POPC   PO4 4644  10.923  22.708   9.386
  127POPC   GL1 4645  11.302  22.833   9.142
  127POPC   GL2 4646  11.279  23.184   9.091
  127POPC   C1A 4647  11.537  22.904   8.734
  127POPC   D2A 4648  11.505  23.120   8.321
  127POPC   C3A 4649  11.410  22.889   7.945
  127POPC   C4A 4650  11.599  22.604   7.681
  127POPC   C1B 4651  11.019  23.014   8.737
  127POPC   C2B 4652  11.024  22.872   8.314
  127POPC   C3B 4653  11.009  23.198   7.995
  127POPC   C4B 4654  11.377  23.372   7.796
  128POPC   NC3 4655   7.103   6.098   9.408
  128POPC   PO4 4656   7.438   5.507   9.553
  128POPC   GL1 4657   7.309   5.700   9.157
  128POPC   GL2 4658   7.406   6.037   8.995
  128POPC   C1A 4659   7.189   5.661   8.728
  128POPC   D2A 4660   7.428   5.858   8.394
  128POPC   C3A 4661   7.253   5.857   7.974
  128POPC   C4A 4662   7.131   5.486   7.745
  128POPC   C1B 4663   7.333   6.328   8.637
  128POPC   C2B 4664   7.361   6.335   8.188
  128POPC   C3B 4665   7.700   6.111   7.986
  128POPC   C4B 4666   7.674   5.873   7.634
  129POPC   NC3 4667  28.805  10.202   9.592
  129POPC   PO4 4668  28.143  10.463   9.575
  129POPC   GL1 4669  28.479  10.573   9.293
  129POPC   GL2 4670  28.174  10.590   9.065
  129POPC   C1A 4671  28.631  10.702   8.884
  129POPC   D2A 4672  28.351  10.531   8.569
  129POPC   C3A 4673  28.344  10.650   8.162
  129POPC   C4A 4674  28.580  10.482   7.829
  129POPC   C1B 4675  27.974  10.258   8.814
  129POPC   C2B 4676  28.029  10.117   8.418
  129POPC   C3B 4677  28.260  10.155   8.076
  129POPC   C4B 4678  28.086  10.419   7.785
  130POPC   NC3 4679   8.845  37.967   9.663
  130POPC   PO4 4680   9.217  37.495   9.436
  130POPC   GL1 4681   8.973  37.614   9.103
  130POPC   GL2 4682   8.744  37.396   8.987
  130POPC   C1A 4683   8.919  37.815   8.703
  130POPC   D2A 4684   9.131  37.742   8.324
  130POPC   C3A 4685   8.935  37.700   7.943
  130POPC   C4A 4686   8.969  37.791   7.519
  130POPC   C1B 4687   8.744  37.372   8.524
  130POPC   C2B 4688   8.511  37.529   8.170
  130POPC   C3B 4689   8.557  37.401   7.716
  130POPC   C4B 4690   8.831  37.343   7.335
  131POPC   NC3 4691  20.213  25.501   9.563
  131POPC   PO4 4692  20.808  25.167   9.435
  131POPC   GL1 4693  20.617  25.262   9.072
  131POPC   GL2 4694  20.413  25.563   9.101
  131POPC   C1A 4695  20.711  25.070   8.687
  131POPC   D2A 4696  20.577  25.155   8.290
  131POPC   C3A 4697  20.842  25.275   7.960
  131POPC   C4A 4698  20.593  25.084   7.715
  131POPC   C1B 4699  20.438  25.534   8.673
  131POPC   C2B 4700  20.549  25.654   8.283
  131POPC   C3B 4701  20.436  25.570   7.887
  131POPC   C4B 4702  20.245  25.419   7.555
  132POPC   NC3 4703   8.686  41.967   9.745
  132POPC   PO4 4704   8.973  42.551   9.443
  132POPC   GL1 4705   8.881  42.467   9.019
  132POPC   GL2 4706   8.669  42.162   9.018
  132POPC   C1A 4707   9.117  42.359   8.636
  132POPC   D2A 4708   9.124  42.163   8.242
  132POPC   C3A 4709   9.086  42.395   7.850
  132POPC   C4A 4710   9.326  42.356   7.452
  132POPC   C1B 4711   8.764  42.000   8.664
  132POPC   C2B 4712   8.604  41.970   8.302
  132POPC   C3B 4713   8.602  42.113   7.941
  132POPC   C4B 4714   8.528  41.756   7.721
  133POPC   NC3 4715   1.554  40.337   9.868
  133POPC   PO4 4716   1.187  39.951   9.412
  133POPC   GL1 4717   1.322  39.909   8.995
  133POPC   GL2 4718   1.006  39.991   8.847
  133POPC   C1A 4719   1.471  39.969   8.580
  133POPC   D2A 4720   1.104  40.112   8.361
  133POPC   C3A 4721   1.024  39.827   8.075
  133POPC   C4A 4722   1.236  39.610   7.754
  133POPC   C1B 4723   1.283  40.403   8.750
  133POPC   C2B 4724   1.455  40.470   8.316
  133POPC   C3B 4725   1.258  40.265   7.904
  133POPC   C4B 4726   0.788  40.265   7.886
  134POPC   NC3 4727  35.500  41.526   9.588
  134POPC   PO4 4728  34.885  41.150   9.426
  134POPC   GL1 4729  35.164  41.280   9.113
  134POPC   GL2 4730  35.346  41.588   9.129
  134POPC   C1A 4731  35.304  41.306   8.704
  134POPC   D2A 4732  35.391  41.168   8.313
  134POPC   C3A 4733  35.550  41.438   8.016
  134POPC   C4A 4734  35.385  41.423   7.606
  134POPC   C1B 4735  35.207  41.809   8.811
  134POPC   C2B 4736  35.425  41.756   8.449
  134POPC   C3B 4737  35.270  41.869   8.092
  134POPC   C4B 4738  35.554  41.894   7.798
  135POPC   NC3 4739  23.602  13.644   9.451
  135POPC   PO4 4740  24.263  13.741   9.300
  135POPC   GL1 4741  23.939  13.946   9.134
  135POPC   GL2 4742  24.087  13.978   8.840
  135POPC   C1A 4743  23.579  13.924   8.862
  135POPC   D2A 4744  23.446  13.858   8.473
  135POPC   C3A 4745  23.527  13.925   8.037
  135POPC   C4A 4746  23.381  13.600   7.774
  135POPC   C1B 4747  23.947  13.607   8.640
  135POPC   C2B 4748  24.054  13.497   8.217
  135POPC   C3B 4749  23.919  13.642   7.817
  135POPC   C4B 4750  24.039  13.476   7.420
  136POPC   NC3 4751   7.945  23.955   9.346
  136POPC   PO4 4752   7.837  23.314   9.509
  136POPC   GL1 4753   7.975  23.492   9.134
  136POPC   GL2 4754   8.329  23.548   9.153
  136POPC   C1A 4755   8.083  23.714   8.743
  136POPC   D2A 4756   8.133  23.486   8.391
  136POPC   C3A 4757   7.955  23.661   8.032
  136POPC   C4A 4758   7.846  23.560   7.625
  136POPC   C1B 4759   8.529  23.386   8.766
  136POPC   C2B 4760   8.711  23.505   8.358
  136POPC   C3B 4761   8.465  23.719   8.080
  136POPC   C4B 4762   8.335  23.643   7.705
  137POPC   NC3 4763  29.805  20.885   9.277
  137POPC   PO4 4764  30.163  20.351   9.444
  137POPC   GL1 4765  30.197  20.510   9.096
  137POPC   GL2 4766  30.280  20.870   9.124
  137POPC   C1A 4767  29.933  20.289   8.774
  137POPC   D2A 4768  29.738  20.215   8.368
  137POPC   C3A 4769  29.884  20.553   8.110
  137POPC   C4A 4770  30.167  20.496   7.819
  137POPC   C1B 4771  30.115  20.778   8.697
  137POPC   C2B 4772  30.255  20.984   8.389
  137POPC   C3B 4773  30.457  20.901   8.061
  137POPC   C4B 4774  30.127  20.982   7.781
  138POPC   NC3 4775  27.415  20.207   9.587
  138POPC   PO4 4776  27.805  19.641   9.716
  138POPC   GL1 4777  27.698  19.653   9.249
  138POPC   GL2 4778  27.617  19.955   9.159
  138POPC   C1A 4779  27.367  19.545   8.905
  138POPC   D2A 4780  27.213  19.442   8.488
  138POPC   C3A 4781  27.243  19.727   8.111
  138POPC   C4A 4782  27.416  19.670   7.681
  138POPC   C1B 4783  27.822  20.213   8.869
  138POPC   C2B 4784  27.744  20.319   8.439
  138POPC   C3B 4785  27.936  20.217   8.053
  138POPC   C4B 4786  27.661  20.147   7.683
  139POPC   NC3 4787  20.815  38.893   9.536
  139POPC   PO4 4788  20.565  39.562   9.450
  139POPC   GL1 4789  20.589  39.371   9.094
  139POPC   GL2 4790  20.489  39.060   9.101
  139POPC   C1A 4791  20.499  39.381   8.667
  139POPC   D2A 4792  20.719  39.638   8.382
  139POPC   C3A 4793  20.555  39.761   8.029
  139POPC   C4A 4794  20.495  39.400   7.822
  139POPC   C1B 4795  20.633  38.866   8.704
  139POPC   C2B 4796  20.470  38.852   8.270
  139POPC   C3B 4797  20.565  38.896   7.818
  139POPC   C4B 4798  20.291  39.033   7.434
  140POPC   NC3 4799  31.105  21.212   9.528
  140POPC   PO4 4800  30.663  21.592   9.762
  140POPC   GL1 4801  30.812  21.530   9.273
  140POPC   GL2 4802  30.538  21.504   9.093
  140POPC   C1A 4803  30.922  21.291   8.823
  140POPC   D2A 4804  30.815  21.132   8.380
  140POPC   C3A 4805  30.908  21.307   8.000
  140POPC   C4A 4806  30.575  21.275   7.710
  140POPC   C1B 4807  30.751  21.786   8.786
  140POPC   C2B 4808  30.808  21.712   8.333
  140POPC   C3B 4809  30.669  21.737   7.895
  140POPC   C4B 4810  30.815  21.710   7.451
  141POPC   NC3 4811   3.637   5.018   9.557
  141POPC   PO4 4812   3.196   5.432   9.164
  141POPC   GL1 4813   3.549   5.229   8.969
  141POPC   GL2 4814   3.702   4.879   9.079
  141POPC   C1A 4815   3.426   5.156   8.519
  141POPC   D2A 4816   3.450   4.995   8.128
  141POPC   C3A 4817   3.678   5.283   7.935
  141POPC   C4A 4818   3.728   5.576   7.663
  141POPC   C1B 4819   3.822   4.887   8.685
  141POPC   C2B 4820   3.980   4.749   8.287
  141POPC   C3B 4821   3.873   4.814   7.902
  141POPC   C4B 4822   3.692   4.951   7.519
  142POPC   NC3 4823   4.867  28.734   9.473
  142POPC   PO4 4824   5.296  29.382   9.467
  142POPC   GL1 4825   5.066  29.118   9.205
  142POPC   GL2 4826   4.890  29.341   9.042
  142POPC   C1A 4827   4.972  28.888   8.815
  142POPC   D2A 4828   4.942  29.113   8.433
  142POPC   C3A 4829   5.125  28.933   8.089
  142POPC   C4A 4830   5.002  29.029   7.689
  142POPC   C1B 4831   5.223  29.400   8.758
  142POPC   C2B 4832   5.267  29.569   8.333
  142POPC   C3B 4833   5.270  29.421   7.896
  142POPC   C4B 4834   5.310  29.324   7.439
  143POPC   NC3 4835   0.398  38.333   9.353
  143POPC   PO4 4836  44.933  38.785   9.450
  143POPC   GL1 4837   0.163  38.703   9.085
  143POPC   GL2 4838  44.945  38.422   9.070
  143POPC   C1A 4839   0.447  38.813   8.694
  143POPC   D2A 4840   0.632  38.928   8.265
  143POPC   C3A 4841   0.497  38.650   7.906
  143POPC   C4A 4842   0.551  38.186   7.893
  143POPC   C1B 4843   0.043  38.493   8.640
  143POPC   C2B 4844   0.223  38.424   8.256
  143POPC   C3B 4845   0.056  38.385   7.830
  143POPC   C4B 4846   0.024  38.491   7.383
  144POPC   NC3 4847  23.127   0.507   9.570
  144POPC   PO4 4848  23.239   0.004   9.134
  144POPC   GL1 4849  22.917   0.296   9.085
  144POPC   GL2 4850  22.949   0.635   9.130
  144POPC   C1A 4851  22.753   0.381   8.683
  144POPC   D2A 4852  22.544   0.604   8.340
  144POPC   C3A 4853  22.680   0.410   7.951
  144POPC   C4A 4854  22.966   0.613   7.620
  144POPC   C1B 4855  23.208   0.654   8.789
  144POPC   C2B 4856  23.097   0.657   8.363
  144POPC   C3B 4857  23.179   0.354   8.023
  144POPC   C4B 4858  23.399   0.286   7.619
  145POPC   NC3 4859  33.772  14.335   9.368
  145POPC   PO4 4860  34.294  14.127   9.740
  145POPC   GL1 4861  34.241  14.362   9.252
  145POPC   GL2 4862  34.049  14.204   8.944
  145POPC   C1A 4863  34.252  14.621   8.789
  145POPC   D2A 4864  33.942  14.565   8.428
  145POPC   C3A 4865  34.109  14.665   8.005
  145POPC   C4A 4866  34.054  14.422   7.620
  145POPC   C1B 4867  33.784  14.040   8.622
  145POPC   C2B 4868  33.500  14.228   8.341
  145POPC   C3B 4869  33.648  14.381   7.973
  145POPC   C4B 4870  33.432  14.254   7.625
  146POPC   NC3 4871  36.133   7.850   9.282
  146POPC   PO4 4872  36.613   7.490   9.691
  146POPC   GL1 4873  36.368   7.346   9.282
  146POPC   GL2 4874  36.003   7.363   9.162
  146POPC   C1A 4875  36.395   7.334   8.793
  146POPC   D2A 4876  36.251   7.025   8.487
  146POPC   C3A 4877  36.324   7.048   8.062
  146POPC   C4A 4878  36.352   7.378   7.845
  146POPC   C1B 4879  35.919   7.485   8.724
  146POPC   C2B 4880  36.157   7.489   8.327
  146POPC   C3B 4881  35.881   7.393   8.021
  146POPC   C4B 4882  35.604   7.503   7.709
  147POPC   NC3 4883  19.263   1.580   9.345
  147POPC   PO4 4884  18.825   2.010   9.581
  147POPC   GL1 4885  18.919   1.982   9.191
  147POPC   GL2 4886  18.776   1.671   9.170
  147POPC   C1A 4887  19.121   2.184   8.799
  147POPC   D2A 4888  19.209   2.011   8.383
  147POPC   C3A 4889  18.930   2.202   8.117
  147POPC   C4A 4890  18.835   2.297   7.702
  147POPC   C1B 4891  18.932   1.725   8.763
  147POPC   C2B 4892  18.766   1.772   8.405
  147POPC   C3B 4893  18.989   1.690   8.030
  147POPC   C4B 4894  18.836   1.802   7.660
  148POPC   NC3 4895  19.642  26.351   9.466
  148POPC   PO4 4896  20.234  25.977   9.544
  148POPC   GL1 4897  19.949  25.775   9.233
  148POPC   GL2 4898  19.856  26.066   9.100
  148POPC   C1A 4899  19.965  25.657   8.801
  148POPC   D2A 4900  20.056  25.780   8.393
  148POPC   C3A 4901  19.852  26.055   8.123
  148POPC   C4A 4902  19.951  25.777   7.774
  148POPC   C1B 4903  19.817  26.148   8.675
  148POPC   C2B 4904  19.496  26.304   8.407
  148POPC   C3B 4905  19.397  26.288   7.979
  148POPC   C4B 4906  19.634  26.144   7.630
  149POPC   NC3 4907  19.325   8.426   9.420
  149POPC   PO4 4908  20.016   8.108   9.431
  149POPC   GL1 4909  20.007   8.293   9.047
  149POPC   GL2 4910  19.705   8.394   9.089
  149POPC   C1A 4911  19.808   8.192   8.623
  149POPC   D2A 4912  19.952   8.348   8.222
  149POPC   C3A 4913  20.038   8.031   7.897
  149POPC   C4A 4914  19.635   7.841   7.986
  149POPC   C1B 4915  19.744   8.673   8.737
  149POPC   C2B 4916  19.480   8.628   8.421
  149POPC   C3B 4917  19.482   8.383   8.054
  149POPC   C4B 4918  19.737   8.381   7.674
  150POPC   NC3 4919  33.471  31.727   9.598
  150POPC   PO4 4920  32.826  31.602   9.457
  150POPC   GL1 4921  33.119  31.619   9.129
  150POPC   GL2 4922  33.353  31.879   9.143
  150POPC   C1A 4923  32.982  31.650   8.697
  150POPC   D2A 4924  32.886  31.304   8.416
  150POPC   C3A 4925  33.005  31.362   7.993
  150POPC   C4A 4926  32.844  31.360   7.589
  150POPC   C1B 4927  33.480  31.690   8.760
  150POPC   C2B 4928  33.381  31.489   8.371
  150POPC   C3B 4929  33.512  31.533   7.953
  150POPC   C4B 4930  33.344  31.545   7.540
  151POPC   NC3 4931  18.844  20.137   9.436
  151POPC   PO4 4932  19.200  19.519   9.425
  151POPC   GL1 4933  19.107  19.795   9.122
  151POPC   GL2 4934  19.228  20.165   9.097
  151POPC   C1A 4935  18.852  19.760   8.762
  151POPC   D2A 4936  18.726  19.576   8.377
  151POPC   C3A 4937  18.850  19.750   7.977
  151POPC   C4A 4938  18.780  19.565   7.551
  151POPC   C1B 4939  19.372  19.951   8.734
  151POPC   C2B 4940  19.200  19.808   8.373
  151POPC   C3B 4941  19.322  19.967   7.997
  151POPC   C4B 4942  19.209  19.843   7.613
  152POPC   NC3 4943   4.487   3.756   9.509
  152POPC   PO4 4944   3.828   3.699   9.589
  152POPC   GL1 4945   4.076   3.665   9.190
  152POPC   GL2 4946   4.132   3.363   9.184
  152POPC   C1A 4947   4.262   3.797   8.757
  152POPC   D2A 4948   4.459   3.608   8.377
  152POPC   C3A 4949   4.331   3.837   8.013
  152POPC   C4A 4950   4.278   3.707   7.595
  152POPC   C1B 4951   4.279   3.275   8.789
  152POPC   C2B 4952   4.126   3.167   8.390
  152POPC   C3B 4953   4.284   3.244   7.989
  152POPC   C4B 4954   4.436   3.202   7.586
  153POPC   NC3 4955  40.705  43.453   9.283
  153POPC   PO4 4956  40.986  42.928   9.527
  153POPC   GL1 4957  40.893  42.993   9.135
  153POPC   GL2 4958  40.543  42.982   9.141
  153POPC   C1A 4959  40.967  43.051   8.723
  153POPC   D2A 4960  40.809  43.313   8.406
  153POPC   C3A 4961  40.942  43.180   8.005
  153POPC   C4A 4962  41.033  42.843   7.686
  153POPC   C1B 4963  40.410  43.127   8.778
  153POPC   C2B 4964  40.210  42.971   8.418
  153POPC   C3B 4965  40.397  43.072   8.048
  153POPC   C4B 4966  40.580  43.065   7.666
  154POPC   NC3 4967  31.945  40.895   9.573
  154POPC   PO4 4968  31.290  40.753   9.525
  154POPC   GL1 4969  31.580  40.712   9.216
  154POPC   GL2 4970  31.334  40.516   9.074
  154POPC   C1A 4971  31.637  40.798   8.777
  154POPC   D2A 4972  31.420  41.033   8.493
  154POPC   C3A 4973  31.492  41.021   8.101
  154POPC   C4A 4974  31.429  41.301   7.848
  154POPC   C1B 4975  31.148  40.640   8.708
  154POPC   C2B 4976  31.303  40.574   8.308
  154POPC   C3B 4977  31.307  40.619   7.865
  154POPC   C4B 4978  31.689  40.547   7.695
  155POPC   NC3 4979   3.335   9.862   9.418
  155POPC   PO4 4980   3.730   9.382   9.557
  155POPC   GL1 4981   3.745   9.720   9.156
  155POPC   GL2 4982   4.039  10.000   9.139
  155POPC   C1A 4983   3.424   9.733   8.770
  155POPC   D2A 4984   3.263   9.780   8.323
  155POPC   C3A 4985   3.603   9.603   8.024
  155POPC   C4A 4986   3.551   9.762   7.610
  155POPC   C1B 4987   3.796  10.100   8.785
  155POPC   C2B 4988   3.729   9.993   8.370
  155POPC   C3B 4989   3.509  10.110   8.002
  155POPC   C4B 4990   3.799  10.196   7.689
  156POPC   NC3 4991  42.440  15.776   9.575
  156POPC   PO4 4992  42.235  16.454   9.461
  156POPC   GL1 4993  42.280  16.049   9.191
  156POPC   GL2 4994  42.176  15.668   9.153
  156POPC   C1A 4995  42.452  16.035   8.794
  156POPC   D2A 4996  42.256  16.256   8.456
  156POPC   C3A 4997  42.378  16.135   8.062
  156POPC   C4A 4998  42.693  15.950   7.817
  156POPC   C1B 4999  41.996  15.834   8.797
  156POPC   C2B 5000  42.211  15.751   8.414
  156POPC   C3B 5001  42.212  15.664   7.983
  156POPC   C4B 5002  42.402  15.621   7.561
  157POPC   NC3 5003  17.789   4.175   9.554
  157POPC   PO4 5004  17.942   4.771   9.310
  157POPC   GL1 5005  17.696   4.475   9.114
  157POPC   GL2 5006  17.519   4.170   9.151
  157POPC   C1A 5007  17.806   4.273   8.750
  157POPC   D2A 5008  17.800   4.497   8.393
  157POPC   C3A 5009  17.587   4.284   8.099
  157POPC   C4A 5010  17.509   4.513   7.783
  157POPC   C1B 5011  17.302   4.147   8.780
  157POPC   C2B 5012  17.134   4.301   8.405
  157POPC   C3B 5013  17.092   4.205   7.958
  157POPC   C4B 5014  17.397   4.030   7.662
  158POPC   NC3 5015  35.078  42.613   9.455
  158POPC   PO4 5016  35.201  41.918   9.498
  158POPC   GL1 5017  35.430  42.155   9.157
  158POPC   GL2 5018  35.280  42.483   9.007
  158POPC   C1A 5019  35.582  42.180   8.724
  158POPC   D2A 5020  35.288  42.283   8.399
  158POPC   C3A 5021  35.433  42.359   8.004
  158POPC   C4A 5022  35.403  42.604   7.693
  158POPC   C1B 5023  35.041  42.759   8.718
  158POPC   C2B 5024  35.192  42.835   8.269
  158POPC   C3B 5025  34.998  42.875   7.847
  158POPC   C4B 5026  35.094  42.871   7.384
  159POPC   NC3 5027  12.649  20.027   9.488
  159POPC   PO4 5028  12.155  19.483   9.498
  159POPC   GL1 5029  12.259  19.765   9.177
  159POPC   GL2 5030  11.907  19.738   9.014
  159POPC   C1A 5031  12.294  19.949   8.770
  159POPC   D2A 5032  12.007  19.805   8.484
  159POPC   C3A 5033  12.103  19.979   8.089
  159POPC   C4A 5034  12.138  20.308   7.813
  159POPC   C1B 5035  11.692  19.437   8.727
  159POPC   C2B 5036  11.678  19.480   8.277
  159POPC   C3B 5037  12.001  19.507   7.984
  159POPC   C4B 5038  12.319  19.680   7.732
  160POPC   NC3 5039  31.856   7.134   9.441
  160POPC   PO4 5040  32.314   7.610   9.735
  160POPC   GL1 5041  32.355   7.424   9.283
  160POPC   GL2 5042  32.109   7.532   9.014
  160POPC   C1A 5043  32.574   7.422   8.891
  160POPC   D2A 5044  32.458   7.681   8.550
  160POPC   C3A 5045  32.342   7.438   8.178
  160POPC   C4A 5046  32.417   7.583   7.752
  160POPC   C1B 5047  32.151   7.256   8.643
  160POPC   C2B 5048  31.953   7.096   8.299
  160POPC   C3B 5049  31.935   7.255   7.889
  160POPC   C4B 5050  31.974   7.481   7.539
  161POPC   NC3 5051   4.261  20.028   9.974
  161POPC   PO4 5052   4.363  19.428   9.591
  161POPC   GL1 5053   4.123  19.670   9.292
  161POPC   GL2 5054   4.322  19.977   9.266
  161POPC   C1A 5055   4.059  19.786   8.856
  161POPC   D2A 5056   4.261  19.698   8.438
  161POPC   C3A 5057   4.028  19.665   8.028
  161POPC   C4A 5058   4.071  19.815   7.599
  161POPC   C1B 5059   4.555  19.959   8.851
  161POPC   C2B 5060   4.523  20.156   8.436
  161POPC   C3B 5061   4.315  20.096   8.021
  161POPC   C4B 5062   4.478  20.125   7.591
  162POPC   NC3 5063  26.339  24.279   9.292
  162POPC   PO4 5064  26.860  24.639   9.538
  162POPC   GL1 5065  26.879  24.676   9.119
  162POPC   GL2 5066  26.806  24.344   9.112
  162POPC   C1A 5067  26.826  24.619   8.667
  162POPC   D2A 5068  26.509  24.417   8.434
  162POPC   C3A 5069  26.606  24.284   8.017
  162POPC   C4A 5070  26.819  24.366   7.637
  162POPC   C1B 5071  26.809  24.118   8.747
  162POPC   C2B 5072  26.927  24.096   8.366
  162POPC   C3B 5073  27.071  24.447   8.177
  162POPC   C4B 5074  27.223  24.619   7.806
  163POPC   NC3 5075   9.885   9.026   9.577
  163POPC   PO4 5076   9.222   8.923   9.569
  163POPC   GL1 5077   9.523   8.874   9.235
  163POPC   GL2 5078   9.603   9.217   9.171
  163POPC   C1A 5079   9.706   8.852   8.820
  163POPC   D2A 5080   9.533   8.747   8.417
  163POPC   C3A 5081   9.826   8.820   8.099
  163POPC   C4A 5082   9.623   8.996   7.787
  163POPC   C1B 5083   9.543   9.368   8.744
  163POPC   C2B 5084   9.676   9.273   8.318
  163POPC   C3B 5085   9.566   9.475   7.945
  163POPC   C4B 5086   9.636   9.391   7.476
  164POPC   NC3 5087  14.304  10.968   9.405
  164POPC   PO4 5088  14.667  11.385   9.836
  164POPC   GL1 5089  14.625  11.357   9.319
  164POPC   GL2 5090  14.310  11.306   9.036
  164POPC   C1A 5091  14.736  11.070   8.939
  164POPC   D2A 5092  14.543  11.193   8.548
  164POPC   C3A 5093  14.794  11.249   8.185
  164POPC   C4A 5094  14.612  11.229   7.785
  164POPC   C1B 5095  13.965  11.184   8.758
  164POPC   C2B 5096  13.849  11.149   8.335
  164POPC   C3B 5097  14.141  11.288   8.014
  164POPC   C4B 5098  14.178  10.962   7.736
  165POPC   NC3 5099  21.042   0.483   9.437
  165POPC   PO4 5100  21.693   0.655   9.493
  165POPC   GL1 5101  21.498   0.319   9.217
  165POPC   GL2 5102  21.741   0.139   9.047
  165POPC   C1A 5103  21.313   0.245   8.789
  165POPC   D2A 5104  21.270   0.403   8.398
  165POPC   C3A 5105  21.210   0.168   8.045
  165POPC   C4A 5106  21.438   0.502   7.889
  165POPC   C1B 5107  21.792   0.192   8.623
  165POPC   C2B 5108  21.726   0.182   8.189
  165POPC   C3B 5109  21.790   0.190   7.745
  165POPC   C4B 5110  21.805   0.108   7.296
  166POPC   NC3 5111  41.347  15.534   9.446
  166POPC   PO4 5112  41.742  14.881   9.469
  166POPC   GL1 5113  41.559  15.110   9.152
  166POPC   GL2 5114  41.712  15.423   9.090
  166POPC   C1A 5115  41.321  15.211   8.800
  166POPC   D2A 5116  41.298  15.432   8.436
  166POPC   C3A 5117  41.389  15.185   8.111
  166POPC   C4A 5118  41.427  15.386   7.763
  166POPC   C1B 5119  41.804  15.374   8.681
  166POPC   C2B 5120  41.781  15.489   8.275
  166POPC   C3B 5121  41.898  15.266   7.933
  166POPC   C4B 5122  41.928  15.463   7.605
  167POPC   NC3 5123  23.259  12.107   9.450
  167POPC   PO4 5124  22.939  11.643   9.676
  167POPC   GL1 5125  22.944  11.854   9.186
  167POPC   GL2 5126  22.702  12.046   9.146
  167POPC   C1A 5127  23.088  12.048   8.775
  167POPC   D2A 5128  23.141  12.259   8.357
  167POPC   C3A 5129  23.043  12.002   8.016
  167POPC   C4A 5130  22.949  12.082   7.580
  167POPC   C1B 5131  22.597  12.240   8.776
  167POPC   C2B 5132  22.649  12.381   8.375
  167POPC   C3B 5133  22.707  12.373   7.950
  167POPC   C4B 5134  22.639  12.489   7.528
  168POPC   NC3 5135  37.410  43.710   9.435
  168POPC   PO4 5136  36.702  43.821   9.435
  168POPC   GL1 5137  36.873  44.028   9.035
  168POPC   GL2 5138  37.172  44.112   9.132
  168POPC   C1A 5139  36.903  44.089   8.584
  168POPC   D2A 5140  36.752  43.771   8.254
  168POPC   C3A 5141  36.838  43.951   7.860
  168POPC   C4A 5142  37.054  44.330   7.783
  168POPC   C1B 5143  37.347  43.921   8.771
  168POPC   C2B 5144  37.267  43.804   8.323
  168POPC   C3B 5145  37.343  43.907   7.885
  168POPC   C4B 5146  37.350  44.013   7.444
  169POPC   NC3 5147  42.603  32.840   9.468
  169POPC   PO4 5148  42.155  33.251   9.653
  169POPC   GL1 5149  42.325  33.131   9.170
  169POPC   GL2 5150  42.633  33.177   9.037
  169POPC   C1A 5151  42.135  33.046   8.734
  169POPC   D2A 5152  42.105  33.293   8.347
  169POPC   C3A 5153  42.103  33.076   7.971
  169POPC   C4A 5154  42.270  33.243   7.600
  169POPC   C1B 5155  42.509  33.393   8.661
  169POPC   C2B 5156  42.650  33.450   8.223
  169POPC   C3B 5157  42.606  33.113   7.965
  169POPC   C4B 5158  42.819  32.777   7.857
  170POPC   NC3 5159  29.373  21.063   9.677
  170POPC   PO4 5160  28.768  21.321   9.687
  170POPC   GL1 5161  29.050  21.233   9.279
  170POPC   GL2 5162  29.345  21.460   9.206
  170POPC   C1A 5163  29.007  21.302   8.802
  170POPC   D2A 5164  28.712  21.366   8.423
  170POPC   C3A 5165  28.809  21.184   7.989
  170POPC   C4A 5166  29.146  20.980   7.784
  170POPC   C1B 5167  29.436  21.655   8.777
  170POPC   C2B 5168  29.278  21.596   8.355
  170POPC   C3B 5169  29.259  21.609   7.897
  170POPC   C4B 5170  29.359  21.889   7.543
  171POPC   NC3 5171  25.822  44.180   9.605
  171POPC   PO4 5172  26.154  43.586   9.476
  171POPC   GL1 5173  26.062  43.788   9.122
  171POPC   GL2 5174  25.802  43.578   9.018
  171POPC   C1A 5175  26.075  44.020   8.739
  171POPC   D2A 5176  25.924  43.994   8.330
  171POPC   C3A 5177  26.088  44.178   7.932
  171POPC   C4A 5178  26.090  44.034   7.497
  171POPC   C1B 5179  25.797  43.517   8.578
  171POPC   C2B 5180  25.676  43.578   8.159
  171POPC   C3B 5181  25.932  43.645   7.820
  171POPC   C4B 5182  25.829  43.578   7.401
  172POPC   NC3 5183  18.846   0.713   9.621
  172POPC   PO4 5184  19.260   0.176   9.473
  172POPC   GL1 5185  18.873   0.347   9.177
  172POPC   GL2 5186  18.832   0.707   9.111
  172POPC   C1A 5187  18.862   0.426   8.681
  172POPC   D2A 5188  19.187   0.337   8.324
  172POPC   C3A 5189  19.007   0.311   7.896
  172POPC   C4A 5190  18.968   0.089   7.497
  172POPC   C1B 5191  19.054   0.888   8.752
  172POPC   C2B 5192  19.155   0.840   8.319
  172POPC   C3B 5193  19.331   0.695   7.962
  172POPC   C4B 5194  19.129   0.823   7.601
  173POPC   NC3 5195  13.212  15.068   9.433
  173POPC   PO4 5196  12.644  15.430   9.502
  173POPC   GL1 5197  12.796  15.273   9.130
  173POPC   GL2 5198  13.101  15.472   9.076
  173POPC   C1A 5199  12.569  15.158   8.755
  173POPC   D2A 5200  12.726  15.143   8.329
  173POPC   C3A 5201  12.763  15.162   7.880
  173POPC   C4A 5202  12.871  14.962   7.466
  173POPC   C1B 5203  12.942  15.492   8.643
  173POPC   C2B 5204  13.049  15.604   8.194
  173POPC   C3B 5205  13.179  15.527   7.749
  173POPC   C4B 5206  13.276  15.256   7.387
  174POPC   NC3 5207  28.719  21.629   9.340
  174POPC   PO4 5208  29.262  22.165   9.477
  174POPC   GL1 5209  29.099  22.210   9.118
  174POPC   GL2 5210  29.076  21.882   9.060
  174POPC   C1A 5211  28.956  22.322   8.759
  174POPC   D2A 5212  29.192  22.160   8.451
  174POPC   C3A 5213  29.184  22.474   8.187
  174POPC   C4A 5214  29.240  22.523   7.805
  174POPC   C1B 5215  28.904  21.792   8.673
  174POPC   C2B 5216  28.845  21.832   8.232
  174POPC   C3B 5217  29.017  22.071   7.903
  174POPC   C4B 5218  28.890  22.085   7.471
  175POPC   NC3 5219   8.453  10.837   9.348
  175POPC   PO4 5220   7.866  10.404   9.386
  175POPC   GL1 5221   8.025  10.654   9.126
  175POPC   GL2 5222   8.290  10.479   9.045
  175POPC   C1A 5223   8.116  10.793   8.690
  175POPC   D2A 5224   8.057  10.622   8.276
  175POPC   C3A 5225   8.381  10.473   7.983
  175POPC   C4A 5226   8.229  10.320   7.561
  175POPC   C1B 5227   8.060  10.280   8.733
  175POPC   C2B 5228   8.173  10.100   8.372
  175POPC   C3B 5229   7.986  10.165   7.993
  175POPC   C4B 5230   7.720  10.118   7.648
  176POPC   NC3 5231  37.623  38.660   9.558
  176POPC   PO4 5232  38.338  38.575   9.641
  176POPC   GL1 5233  38.062  38.549   9.266
  176POPC   GL2 5234  37.744  38.346   9.168
  176POPC   C1A 5235  38.140  38.492   8.840
  176POPC   D2A 5236  37.909  38.299   8.502
  176POPC   C3A 5237  37.918  38.457   8.084
  176POPC   C4A 5238  37.752  38.361   7.689
  176POPC   C1B 5239  37.483  38.370   8.796
  176POPC   C2B 5240  37.442  38.522   8.384
  176POPC   C3B 5241  37.384  38.317   8.028
  176POPC   C4B 5242  37.234  38.446   7.664
  177POPC   NC3 5243   9.825  10.026   9.596
  177POPC   PO4 5244  10.062   9.465   9.614
  177POPC   GL1 5245   9.820   9.673   9.238
  177POPC   GL2 5246   9.472   9.803   9.251
  177POPC   C1A 5247   9.821   9.905   8.849
  177POPC   D2A 5248   9.673   9.773   8.437
  177POPC   C3A 5249   9.917   9.868   8.067
  177POPC   C4A 5250   9.814   9.839   7.665
  177POPC   C1B 5251   9.320   9.869   8.819
  177POPC   C2B 5252   9.282  10.114   8.431
  177POPC   C3B 5253   9.416   9.984   8.026
  177POPC   C4B 5254   9.301   9.780   7.636
  178POPC   NC3 5255  37.362  31.823   9.365
  178POPC   PO4 5256  37.300  31.271   9.718
  178POPC   GL1 5257  37.176  31.286   9.279
  178POPC   GL2 5258  36.901  31.525   9.333
  178POPC   C1A 5259  37.076  31.470   8.856
  178POPC   D2A 5260  37.242  31.594   8.467
  178POPC   C3A 5261  36.999  31.511   8.123
  178POPC   C4A 5262  37.123  31.372   7.741
  178POPC   C1B 5263  36.614  31.628   8.981
  178POPC   C2B 5264  36.671  31.508   8.543
  178POPC   C3B 5265  36.489  31.472   8.149
  178POPC   C4B 5266  36.618  31.378   7.759
  179POPC   NC3 5267  36.554   7.030   9.669
  179POPC   PO4 5268  36.154   6.559   9.461
  179POPC   GL1 5269  36.366   6.589   9.101
  179POPC   GL2 5270  36.272   6.911   9.050
  179POPC   C1A 5271  36.298   6.567   8.662
  179POPC   D2A 5272  36.556   6.599   8.294
  179POPC   C3A 5273  36.334   6.562   7.907
  179POPC   C4A 5274  35.932   6.353   7.758
  179POPC   C1B 5275  35.879   6.961   8.827
  179POPC   C2B 5276  35.805   6.783   8.418
  179POPC   C3B 5277  35.886   6.820   7.980
  179POPC   C4B 5278  35.902   7.080   7.612
  180POPC   NC3 5279  27.378  34.530   9.600
  180POPC   PO4 5280  28.000  34.242   9.402
  180POPC   GL1 5281  27.766  34.341   9.019
  180POPC   GL2 5282  27.439  34.459   9.112
  180POPC   C1A 5283  27.697  34.628   8.670
  180POPC   D2A 5284  27.987  34.753   8.344
  180POPC   C3A 5285  28.000  34.444   8.034
  180POPC   C4A 5286  27.916  34.650   7.691
  180POPC   C1B 5287  27.176  34.665   8.824
  180POPC   C2B 5288  27.225  34.501   8.449
  180POPC   C3B 5289  27.496  34.629   8.155
  180POPC   C4B 5290  27.513  34.384   7.820
  181POPC   NC3 5291  35.641   4.646   9.411
  181POPC   PO4 5292  35.400   5.309   9.504
  181POPC   GL1 5293  35.394   5.044   9.140
  181POPC   GL2 5294  35.086   4.867   9.072
  181POPC   C1A 5295  35.284   5.190   8.726
  181POPC   D2A 5296  35.079   5.078   8.337
  181POPC   C3A 5297  35.202   5.298   7.970
  181POPC   C4A 5298  35.057   5.291   7.582
  181POPC   C1B 5299  35.229   4.689   8.710
  181POPC   C2B 5300  35.499   4.755   8.362
  181POPC   C3B 5301  35.362   4.820   7.953
  181POPC   C4B 5302  35.544   5.019   7.603
  182POPC   NC3 5303  21.209  25.427   9.469
  182POPC   PO4 5304  21.651  24.913   9.320
  182POPC   GL1 5305  21.525  25.257   9.092
  182POPC   GL2 5306  21.784  25.481   8.968
  182POPC   C1A 5307  21.338  25.299   8.725
  182POPC   D2A 5308  21.111  25.166   8.368
  182POPC   C3A 5309  21.360  25.097   7.989
  182POPC   C4A 5310  21.562  25.148   7.564
  182POPC   C1B 5311  21.624  25.729   8.648
  182POPC   C2B 5312  21.545  25.511   8.290
  182POPC   C3B 5313  21.640  25.554   7.885
  182POPC   C4B 5314  21.238  25.524   7.691
  183POPC   NC3 5315   7.808  15.096   9.772
  183POPC   PO4 5316   7.214  15.011   9.447
  183POPC   GL1 5317   7.199  15.157   9.083
  183POPC   GL2 5318   7.329  15.481   9.208
  183POPC   C1A 5319   7.332  15.063   8.658
  183POPC   D2A 5320   7.553  15.071   8.279
  183POPC   C3A 5321   7.355  14.926   7.945
  183POPC   C4A 5322   7.496  15.157   7.598
  183POPC   C1B 5323   7.233  15.542   8.766
  183POPC   C2B 5324   7.396  15.559   8.387
  183POPC   C3B 5325   7.275  15.424   7.987
  183POPC   C4B 5326   7.104  15.495   7.573
  184POPC   NC3 5327  18.215   5.789   9.293
  184POPC   PO4 5328  18.144   5.290   9.760
  184POPC   GL1 5329  18.124   5.270   9.289
  184POPC   GL2 5330  18.406   5.094   9.157
  184POPC   C1A 5331  18.102   5.374   8.816
  184POPC   D2A 5332  18.360   5.456   8.435
  184POPC   C3A 5333  18.200   5.229   8.069
  184POPC   C4A 5334  18.065   5.146   7.640
  184POPC   C1B 5335  18.513   5.044   8.752
  184POPC   C2B 5336  18.673   5.010   8.361
  184POPC   C3B 5337  18.582   4.903   7.946
  184POPC   C4B 5338  18.584   5.153   7.584
  185POPC   NC3 5339  43.263  25.557   9.185
  185POPC   PO4 5340  43.667  25.229   9.600
  185POPC   GL1 5341  43.956  25.309   9.248
  185POPC   GL2 5342  44.277  25.495   9.270
  185POPC   C1A 5343  43.910  25.171   8.828
  185POPC   D2A 5344  43.615  25.265   8.491
  185POPC   C3A 5345  43.774  25.238   8.068
  185POPC   C4A 5346  43.885  24.935   7.771
  185POPC   C1B 5347  44.319  25.478   8.806
  185POPC   C2B 5348  44.189  25.317   8.389
  185POPC   C3B 5349  44.181  25.502   7.963
  185POPC   C4B 5350  43.987  25.400   7.571
  186POPC   NC3 5351  12.095  31.814   9.381
  186POPC   PO4 5352  12.463  31.406   9.660
  186POPC   GL1 5353  12.374  31.445   9.200
  186POPC   GL2 5354  12.225  31.198   9.029
  186POPC   C1A 5355  12.286  31.643   8.783
  186POPC   D2A 5356  12.426  31.438   8.419
  186POPC   C3A 5357  12.243  31.545   8.010
  186POPC   C4A 5358  12.077  31.749   7.673
  186POPC   C1B 5359  11.946  31.276   8.692
  186POPC   C2B 5360  11.743  31.185   8.342
  186POPC   C3B 5361  11.741  31.011   7.964
  186POPC   C4B 5362  11.916  31.238   7.644
  187POPC   NC3 5363  18.136   7.526   9.493
  187POPC   PO4 5364  18.622   7.075   9.524
  187POPC   GL1 5365  18.443   7.291   9.158
  187POPC   GL2 5366  18.678   7.495   9.099
  187POPC   C1A 5367  18.134   7.438   8.813
  187POPC   D2A 5368  18.039   7.206   8.416
  187POPC   C3A 5369  18.201   7.239   8.000
  187POPC   C4A 5370  18.160   7.621   7.785
  187POPC   C1B 5371  18.608   7.522   8.689
  187POPC   C2B 5372  18.406   7.588   8.318
  187POPC   C3B 5373  18.639   7.482   7.976
  187POPC   C4B 5374  18.561   7.467   7.539
  188POPC   NC3 5375  32.848  14.288   9.491
  188POPC   PO4 5376  33.400  14.633   9.354
  188POPC   GL1 5377  33.277  14.245   9.172
  188POPC   GL2 5378  33.007  14.434   9.038
  188POPC   C1A 5379  33.169  14.048   8.747
  188POPC   D2A 5380  32.930  14.067   8.324
  188POPC   C3A 5381  33.075  14.354   8.019
  188POPC   C4A 5382  33.277  14.700   7.840
  188POPC   C1B 5383  32.714  14.316   8.719
  188POPC   C2B 5384  32.605  14.535   8.359
  188POPC   C3B 5385  32.537  14.355   8.001
  188POPC   C4B 5386  32.532  14.225   7.607
  189POPC   NC3 5387  26.220   7.742   9.418
  189POPC   PO4 5388  25.601   7.558   9.378
  189POPC   GL1 5389  25.939   7.480   9.059
  189POPC   GL2 5390  26.266   7.611   8.950
  189POPC   C1A 5391  25.851   7.509   8.632
  189POPC   D2A 5392  25.596   7.219   8.402
  189POPC   C3A 5393  25.785   7.099   8.000
  189POPC   C4A 5394  25.890   7.287   7.600
  189POPC   C1B 5395  26.476   7.852   8.707
  189POPC   C2B 5396  26.308   7.685   8.369
  189POPC   C3B 5397  26.091   7.551   8.026
  189POPC   C4B 5398  26.260   7.637   7.602
  190POPC   NC3 5399  13.548  33.691   9.638
  190POPC   PO4 5400  14.130  33.678   9.350
  190POPC   GL1 5401  13.716  33.642   9.120
  190POPC   GL2 5402  13.348  33.783   9.195
  190POPC   C1A 5403  13.863  33.763   8.712
  190POPC   D2A 5404  13.826  34.129   8.439
  190POPC   C3A 5405  13.748  34.031   8.022
  190POPC   C4A 5406  13.943  33.696   7.860
  190POPC   C1B 5407  13.392  33.887   8.783
  190POPC   C2B 5408  13.474  33.713   8.373
  190POPC   C3B 5409  13.321  33.768   7.949
  190POPC   C4B 5410  13.436  33.996   7.560
  191POPC   NC3 5411  20.169  23.900   9.356
  191POPC   PO4 5412  19.718  23.459   9.602
  191POPC   GL1 5413  19.694  23.550   9.196
  191POPC   GL2 5414  19.998  23.490   9.085
  191POPC   C1A 5415  19.580  23.785   8.835
  191POPC   D2A 5416  19.810  23.963   8.491
  191POPC   C3A 5417  19.652  23.833   8.095
  191POPC   C4A 5418  19.544  23.968   7.672
  191POPC   C1B 5419  20.047  23.510   8.648
  191POPC   C2B 5420  20.306  23.287   8.350
  191POPC   C3B 5421  20.146  23.372   7.938
  191POPC   C4B 5422  19.793  23.515   7.718
  192POPC   NC3 5423  10.562  13.857   9.498
  192POPC   PO4 5424  10.745  13.247   9.448
  192POPC   GL1 5425  10.577  13.503   9.116
  192POPC   GL2 5426  10.908  13.415   8.987
  192POPC   C1A 5427  10.434  13.701   8.704
  192POPC   D2A 5428  10.405  13.911   8.266
  192POPC   C3A 5429  10.506  13.629   7.894
  192POPC   C4A 5430  10.636  13.370   7.486
  192POPC   C1B 5431  10.618  13.214   8.698
  192POPC   C2B 5432  10.426  13.337   8.326
  192POPC   C3B 5433  10.094  13.352   8.061
  192POPC   C4B 5434  10.145  13.404   7.645
  193POPC   NC3 5435  16.119  28.990   9.283
  193POPC   PO4 5436  15.674  29.420   9.308
  193POPC   GL1 5437  15.768  29.160   8.952
  193POPC   GL2 5438  15.648  28.821   9.134
  193POPC   C1A 5439  16.154  29.149   8.640
  193POPC   D2A 5440  16.326  29.336   8.257
  193POPC   C3A 5441  15.964  29.330   8.056
  193POPC   C4A 5442  15.850  29.142   7.714
  193POPC   C1B 5443  15.756  28.705   8.723
  193POPC   C2B 5444  15.788  28.883   8.307
  193POPC   C3B 5445  16.162  28.859   8.051
  193POPC   C4B 5446  16.301  28.727   7.665
  194POPC   NC3 5447  37.198  31.693   9.872
  194POPC   PO4 5448  37.803  31.573   9.534
  194POPC   GL1 5449  37.703  31.529   9.156
  194POPC   GL2 5450  37.828  31.891   9.095
  194POPC   C1A 5451  37.524  31.267   8.861
  194POPC   D2A 5452  37.628  31.114   8.484
  194POPC   C3A 5453  37.420  31.197   8.127
  194POPC   C4A 5454  37.654  31.278   7.753
  194POPC   C1B 5455  37.675  31.746   8.706
  194POPC   C2B 5456  37.744  31.593   8.315
  194POPC   C3B 5457  37.477  31.679   7.988
  194POPC   C4B 5458  37.171  31.886   7.826
  195POPC   NC3 5459  14.211  37.405   9.369
  195POPC   PO4 5460  14.683  37.903   9.427
  195POPC   GL1 5461  14.565  37.662   9.095
  195POPC   GL2 5462  14.246  37.821   9.080
  195POPC   C1A 5463  14.545  37.512   8.691
  195POPC   D2A 5464  14.584  37.792   8.331
  195POPC   C3A 5465  14.546  37.604   7.927
  195POPC   C4A 5466  14.431  37.565   7.477
  195POPC   C1B 5467  14.181  37.917   8.678
  195POPC   C2B 5468  13.966  38.186   8.412
  195POPC   C3B 5469  14.073  37.878   8.150
  195POPC   C4B 5470  14.119  37.836   7.763
  196POPC   NC3 5471  19.531  16.090   9.619
  196POPC   PO4 5472  20.171  15.872   9.711
  196POPC   GL1 5473  19.948  15.949   9.313
  196POPC   GL2 5474  19.624  15.770   9.226
  196POPC   C1A 5475  19.983  15.924   8.859
  196POPC   D2A 5476  19.993  16.154   8.473
  196POPC   C3A 5477  19.964  15.918   8.089
  196POPC   C4A 5478  19.913  16.101   7.695
  196POPC   C1B 5479  19.477  15.892   8.790
  196POPC   C2B 5480  19.480  16.034   8.358
  196POPC   C3B 5481  19.471  15.940   7.911
  196POPC   C4B 5482  19.527  16.021   7.395
  197POPC   NC3 5483  38.130  14.427   9.480
  197POPC   PO4 5484  38.627  14.031   9.514
  197POPC   GL1 5485  38.572  14.337   9.143
  197POPC   GL2 5486  38.557  14.699   9.117
  197POPC   C1A 5487  38.439  14.441   8.696
  197POPC   D2A 5488  38.603  14.416   8.271
  197POPC   C3A 5489  38.308  14.417   7.929
  197POPC   C4A 5490  38.233  14.049   7.653
  197POPC   C1B 5491  38.650  14.935   8.747
  197POPC   C2B 5492  38.811  14.870   8.334
  197POPC   C3B 5493  38.668  14.802   7.902
  197POPC   C4B 5494  38.765  14.639   7.497
  198POPC   NC3 5495  24.200  12.447   9.456
  198POPC   PO4 5496  24.341  11.721   9.467
  198POPC   GL1 5497  24.308  11.985   9.147
  198POPC   GL2 5498  23.983  12.070   9.211
  198POPC   C1A 5499  24.451  12.091   8.751
  198POPC   D2A 5500  24.706  11.993   8.414
  198POPC   C3A 5501  24.476  11.973   8.045
  198POPC   C4A 5502  24.602  12.157   7.677
  198POPC   C1B 5503  24.042  12.410   8.855
  198POPC   C2B 5504  24.159  12.361   8.413
  198POPC   C3B 5505  24.082  12.295   7.987
  198POPC   C4B 5506  24.184  12.460   7.578
  199POPC   NC3 5507  32.474  33.020   9.588
  199POPC   PO4 5508  31.849  32.800   9.657
  199POPC   GL1 5509  32.056  32.920   9.211
  199POPC   GL2 5510  32.293  33.169   9.128
  199POPC   C1A 5511  31.956  33.030   8.753
  199POPC   D2A 5512  32.171  33.088   8.353
  199POPC   C3A 5513  32.191  32.797   8.028
  199POPC   C4A 5514  32.088  32.811   7.598
  199POPC   C1B 5515  32.405  33.322   8.729
  199POPC   C2B 5516  32.636  33.307   8.339
  199POPC   C3B 5517  32.439  33.231   7.910
  199POPC   C4B 5518  31.945  33.219   7.874
  200POPC   NC3 5519  16.996  24.937   9.395
  200POPC   PO4 5520  17.523  25.397   9.559
  200POPC   GL1 5521  17.506  25.401   9.146
  200POPC   GL2 5522  17.551  25.753   9.147
  200POPC   C1A 5523  17.301  25.403   8.754
  200POPC   D2A 5524  17.458  25.258   8.331
  200POPC   C3A 5525  17.378  25.161   7.902
  200POPC   C4A 5526  17.307  25.400   7.510
  200POPC   C1B 5527  17.705  25.709   8.735
  200POPC   C2B 5528  17.883  25.542   8.351
  200POPC   C3B 5529  17.698  25.577   7.946
  200POPC   C4B 5530  17.765  25.705   7.490
  201POPC   NC3 5531  24.725   4.959   9.725
  201POPC   PO4 5532  24.221   5.286   9.439
  201POPC   GL1 5533  24.407   5.045   9.141
  201POPC   GL2 5534  24.697   5.279   9.122
  201POPC   C1A 5535  24.456   4.925   8.711
  201POPC   D2A 5536  24.469   5.146   8.315
  201POPC   C3A 5537  24.458   4.921   7.953
  201POPC   C4A 5538  24.301   4.958   7.545
  201POPC   C1B 5539  24.671   5.455   8.700
  201POPC   C2B 5540  24.918   5.448   8.316
  201POPC   C3B 5541  24.866   5.223   7.964
  201POPC   C4B 5542  24.596   5.367   7.693
  202POPC   NC3 5543  32.103  22.455   9.792
  202POPC   PO4 5544  32.329  21.855   9.638
  202POPC   GL1 5545  32.250  22.064   9.212
  202POPC   GL2 5546  31.998  22.319   9.255
  202POPC   C1A 5547  32.173  21.978   8.736
  202POPC   D2A 5548  32.262  22.038   8.296
  202POPC   C3A 5549  32.021  22.028   7.908
  202POPC   C4A 5550  32.189  22.182   7.523
  202POPC   C1B 5551  32.210  22.475   8.865
  202POPC   C2B 5552  32.130  22.531   8.435
  202POPC   C3B 5553  32.234  22.491   7.997
  202POPC   C4B 5554  32.040  22.668   7.635
  203POPC   NC3 5555  44.842  44.971   9.554
  203POPC   PO4 5556  44.556  44.363   9.548
  203POPC   GL1 5557  44.753  44.556   9.211
  203POPC   GL2 5558  44.947  44.295   9.200
  203POPC   C1A 5559  44.698  44.721   8.792
  203POPC   D2A 5560  44.460  44.730   8.401
  203POPC   C3A 5561  44.545   0.007   8.059
  203POPC   C4A 5562  44.710  44.890   7.658
  203POPC   C1B 5563  44.988  44.282   8.795
  203POPC   C2B 5564  44.908  44.406   8.385
  203POPC   C3B 5565  44.819  44.546   7.998
  203POPC   C4B 5566  44.951  44.416   7.571
  204POPC   NC3 5567  38.523   0.813   9.620
  204POPC   PO4 5568  38.699   1.464   9.464
  204POPC   GL1 5569  38.389   1.391   9.148
  204POPC   GL2 5570  38.428   1.040   9.177
  204POPC   C1A 5571  38.348   1.501   8.697
  204POPC   D2A 5572  38.593   1.572   8.290
  204POPC   C3A 5573  38.336   1.444   7.934
  204POPC   C4A 5574  38.524   1.245   7.567
  204POPC   C1B 5575  38.284   0.882   8.792
  204POPC   C2B 5576  38.560   0.811   8.419
  204POPC   C3B 5577  38.548   0.991   8.033
  204POPC   C4B 5578  38.152   0.986   7.786
  205POPC   NC3 5579  23.984  19.260   9.437
  205POPC   PO4 5580  23.301  19.200   9.488
  205POPC   GL1 5581  23.577  19.059   9.176
  205POPC   GL2 5582  23.670  19.369   9.056
  205POPC   C1A 5583  23.678  18.893   8.764
  205POPC   D2A 5584  23.955  18.603   8.534
  205POPC   C3A 5585  23.894  18.736   8.101
  205POPC   C4A 5586  23.573  18.861   7.761
  205POPC   C1B 5587  23.979  19.335   8.722
  205POPC   C2B 5588  23.864  19.289   8.298
  205POPC   C3B 5589  23.983  19.202   7.892
  205POPC   C4B 5590  24.111  18.887   7.662
  206POPC   NC3 5591  24.343  17.665   9.441
  206POPC   PO4 5592  24.883  17.225   9.525
  206POPC   GL1 5593  24.675  17.330   9.132
  206POPC   GL2 5594  24.319  17.277   9.117
  206POPC   C1A 5595  24.572  17.594   8.756
  206POPC   D2A 5596  24.684  17.421   8.343
  206POPC   C3A 5597  24.702  17.652   7.965
  206POPC   C4A 5598  24.931  17.611   7.591
  206POPC   C1B 5599  24.342  17.130   8.711
  206POPC   C2B 5600  24.181  17.229   8.314
  206POPC   C3B 5601  24.398  17.252   7.923
  206POPC   C4B 5602  24.256  17.583   7.640
  207POPC   NC3 5603  24.091  39.093   9.608
  207POPC   PO4 5604  23.452  39.227   9.652
  207POPC   GL1 5605  23.692  39.091   9.276
  207POPC   GL2 5606  23.888  39.352   9.172
  207POPC   C1A 5607  23.666  39.053   8.811
  207POPC   D2A 5608  23.470  39.174   8.418
  207POPC   C3A 5609  23.612  39.098   8.001
  207POPC   C4A 5610  23.346  39.070   7.623
  207POPC   C1B 5611  24.060  39.402   8.783
  207POPC   C2B 5612  23.964  39.280   8.364
  207POPC   C3B 5613  24.056  39.412   7.935
  207POPC   C4B 5614  24.025  39.412   7.496
  208POPC   NC3 5615  28.456  28.108   9.861
  208POPC   PO4 5616  28.193  28.606   9.508
  208POPC   GL1 5617  28.270  28.355   9.166
  208POPC   GL2 5618  27.988  28.282   8.979
  208POPC   C1A 5619  28.455  28.159   8.803
  208POPC   D2A 5620  28.483  27.979   8.387
  208POPC   C3A 5621  28.435  28.215   8.024
  208POPC   C4A 5622  28.283  28.085   7.653
  208POPC   C1B 5623  28.020  28.194   8.528
  208POPC   C2B 5624  28.052  28.490   8.251
  208POPC   C3B 5625  27.963  28.644   7.911
  208POPC   C4B 5626  28.093  28.546   7.541
  209POPC   NC3 5627  44.414  21.594   9.475
  209POPC   PO4 5628  44.727  21.017   9.604
  209POPC   GL1 5629  44.798  21.299   9.252
  209POPC   GL2 5630  44.469  21.200   9.092
  209POPC   C1A 5631  44.913  21.189   8.832
  209POPC   D2A 5632  44.861  21.014   8.425
  209POPC   C3A 5633  44.682  21.301   8.135
  209POPC   C4A 5634  44.791  21.449   7.722
  209POPC   C1B 5635  44.437  21.271   8.624
  209POPC   C2B 5636  44.249  21.548   8.273
  209POPC   C3B 5637  44.419  21.753   7.911
  209POPC   C4B 5638  44.442  21.707   7.471
  210POPC   NC3 5639  42.738  16.518   9.357
  210POPC   PO4 5640  43.256  16.770   9.731
  210POPC   GL1 5641  43.264  16.598   9.263
  210POPC   GL2 5642  43.397  16.877   9.097
  210POPC   C1A 5643  43.180  16.569   8.759
  210POPC   D2A 5644  43.024  16.707   8.336
  210POPC   C3A 5645  43.204  16.546   7.949
  210POPC   C4A 5646  43.060  16.244   7.647
  210POPC   C1B 5647  43.364  17.043   8.662
  210POPC   C2B 5648  43.194  17.165   8.223
  210POPC   C3B 5649  43.216  17.055   7.794
  210POPC   C4B 5650  43.488  16.881   7.455
  211POPC   NC3 5651  10.245  13.190   9.435
  211POPC   PO4 5652   9.747  12.783   9.580
  211POPC   GL1 5653   9.643  12.945   9.152
  211POPC   GL2 5654   9.487  12.624   9.079
  211POPC   C1A 5655   9.648  12.898   8.678
  211POPC   D2A 5656   9.709  13.139   8.314
  211POPC   C3A 5657   9.547  13.044   7.920
  211POPC   C4A 5658   9.901  12.982   7.703
  211POPC   C1B 5659   9.928  12.570   8.947
  211POPC   C2B 5660   9.882  12.459   8.506
  211POPC   C3B 5661   9.852  12.638   8.101
  211POPC   C4B 5662   9.655  12.551   7.711
  212POPC   NC3 5663  23.601  16.999   9.524
  212POPC   PO4 5664  24.137  16.563   9.444
  212POPC   GL1 5665  23.760  16.595   9.149
  212POPC   GL2 5666  23.477  16.832   9.060
  212POPC   C1A 5667  23.619  16.492   8.704
  212POPC   D2A 5668  23.410  16.626   8.317
  212POPC   C3A 5669  23.743  16.531   8.046
  212POPC   C4A 5670  23.820  16.737   7.697
  212POPC   C1B 5671  23.360  17.164   8.769
  212POPC   C2B 5672  23.173  17.217   8.377
  212POPC   C3B 5673  23.223  17.023   7.992
  212POPC   C4B 5674  23.468  17.120   7.639
  213POPC   NC3 5675  37.379  21.877   9.412
  213POPC   PO4 5676  37.977  22.091   9.135
  213POPC   GL1 5677  37.573  22.039   8.954
  213POPC   GL2 5678  37.395  22.315   9.158
  213POPC   C1A 5679  37.559  22.069   8.483
  213POPC   D2A 5680  37.673  22.446   8.221
  213POPC   C3A 5681  37.914  22.272   7.886
  213POPC   C4A 5682  37.916  21.933   7.607
  213POPC   C1B 5683  37.334  22.435   8.735
  213POPC   C2B 5684  37.162  22.508   8.311
  213POPC   C3B 5685  37.278  22.545   7.863
  213POPC   C4B 5686  37.477  22.223   7.612
  214POPC   NC3 5687   6.555  25.129   9.529
  214POPC   PO4 5688   6.621  25.786   9.475
  214POPC   GL1 5689   6.723  25.456   9.153
  214POPC   GL2 5690   6.481  25.160   9.045
  214POPC   C1A 5691   6.880  25.354   8.739
  214POPC   D2A 5692   6.729  25.059   8.472
  214POPC   C3A 5693   6.766  25.195   8.117
  214POPC   C4A 5694   6.733  25.139   7.757
  214POPC   C1B 5695   6.360  25.325   8.681
  214POPC   C2B 5696   6.284  25.297   8.248
  214POPC   C3B 5697   6.364  25.503   7.840
  214POPC   C4B 5698   6.457  25.537   7.380
  215POPC   NC3 5699  25.289  42.774   9.845
  215POPC   PO4 5700  25.339  42.198   9.517
  215POPC   GL1 5701  25.203  42.450   9.202
  215POPC   GL2 5702  24.934  42.234   9.077
  215POPC   C1A 5703  25.385  42.282   8.826
  215POPC   D2A 5704  25.229  42.246   8.443
  215POPC   C3A 5705  25.484  42.211   8.108
  215POPC   C4A 5706  25.414  42.353   7.735
  215POPC   C1B 5707  24.921  42.587   8.771
  215POPC   C2B 5708  25.055  42.764   8.386
  215POPC   C3B 5709  25.008  42.523   8.004
  215POPC   C4B 5710  24.980  42.527   7.551
  216POPC   NC3 5711  12.105  20.864   9.548
  216POPC   PO4 5712  12.487  20.401   9.712
  216POPC   GL1 5713  12.202  20.444   9.273
  216POPC   GL2 5714  12.127  20.780   9.057
  216POPC   C1A 5715  12.011  20.341   8.864
  216POPC   D2A 5716  12.027  20.344   8.420
  216POPC   C3A 5717  12.147  20.694   8.164
  216POPC   C4A 5718  12.176  20.841   7.741
  216POPC   C1B 5719  11.857  20.832   8.714
  216POPC   C2B 5720  11.834  21.034   8.348
  216POPC   C3B 5721  11.885  21.180   7.955
  216POPC   C4B 5722  11.707  21.033   7.579
  217POPC   NC3 5723  17.592   4.994   9.524
  217POPC   PO4 5724  17.451   5.623   9.392
  217POPC   GL1 5725  17.632   5.255   9.081
  217POPC   GL2 5726  17.418   4.930   9.054
  217POPC   C1A 5727  17.784   4.990   8.695
  217POPC   D2A 5728  17.752   5.048   8.248
  217POPC   C3A 5729  17.580   5.019   7.842
  217POPC   C4A 5730  17.593   5.211   7.426
  217POPC   C1B 5731  17.381   4.672   8.678
  217POPC   C2B 5732  17.157   4.807   8.285
  217POPC   C3B 5733  17.082   4.751   7.837
  217POPC   C4B 5734  17.319   4.811   7.434
  218POPC   NC3 5735   5.585   6.703   9.551
  218POPC   PO4 5736   5.873   6.200   9.217
  218POPC   GL1 5737   5.695   6.572   9.073
  218POPC   GL2 5738   6.037   6.711   9.180
  218POPC   C1A 5739   5.549   6.656   8.649
  218POPC   D2A 5740   5.855   6.453   8.416
  218POPC   C3A 5741   5.972   6.505   8.018
  218POPC   C4A 5742   5.653   6.382   7.764
  218POPC   C1B 5743   6.040   6.784   8.761
  218POPC   C2B 5744   5.961   6.964   8.356
  218POPC   C3B 5745   6.108   6.990   7.924
  218POPC   C4B 5746   5.977   6.770   7.564
  219POPC   NC3 5747  44.229  19.935   9.416
  219POPC   PO4 5748  44.870  20.032   9.529
  219POPC   GL1 5749  44.667  19.779   9.152
  219POPC   GL2 5750  44.900  19.435   9.113
  219POPC   C1A 5751  44.523  19.964   8.759
  219POPC   D2A 5752  44.295  20.294   8.529
  219POPC   C3A 5753  44.420  20.251   8.100
  219POPC   C4A 5754  44.621  19.962   7.808
  219POPC   C1B 5755  44.758  19.503   8.729
  219POPC   C2B 5756  44.637  19.683   8.339
  219POPC   C3B 5757  44.447  19.527   7.995
  219POPC   C4B 5758  44.762  19.526   7.630
  220POPC   NC3 5759  38.596  32.743   9.376
  220POPC   PO4 5760  38.365  33.292   9.500
  220POPC   GL1 5761  38.547  33.166   9.091
  220POPC   GL2 5762  38.194  33.048   9.024
  220POPC   C1A 5763  38.678  33.131   8.615
  220POPC   D2A 5764  38.254  33.068   8.409
  220POPC   C3A 5765  38.114  33.344   8.077
  220POPC   C4A 5766  38.488  33.324   7.826
  220POPC   C1B 5767  38.425  32.739   8.780
  220POPC   C2B 5768  38.631  32.598   8.428
  220POPC   C3B 5769  38.596  32.871   8.092
  220POPC   C4B 5770  38.226  32.899   7.870
  221POPC   NC3 5771   7.872  39.915   9.584
  221POPC   PO4 5772   7.232  40.201   9.417
  221POPC   GL1 5773   7.338  40.076   9.068
  221POPC   GL2 5774   7.627  39.949   9.136
  221POPC   C1A 5775   7.185  40.074   8.685
  221POPC   D2A 5776   7.278  39.866   8.339
  221POPC   C3A 5777   7.335  40.142   8.032
  221POPC   C4A 5778   7.399  39.951   7.674
  221POPC   C1B 5779   7.565  39.726   8.760
  221POPC   C2B 5780   7.784  39.661   8.399
  221POPC   C3B 5781   7.737  39.802   8.015
  221POPC   C4B 5782   7.846  39.665   7.597
  222POPC   NC3 5783  15.263  11.937   9.390
  222POPC   PO4 5784  14.638  12.086   9.509
  222POPC   GL1 5785  14.814  12.028   9.120
  222POPC   GL2 5786  14.838  12.386   9.088
  222POPC   C1A 5787  15.038  11.979   8.732
  222POPC   D2A 5788  15.210  11.689   8.414
  222POPC   C3A 5789  15.199  11.815   8.052
  222POPC   C4A 5790  15.064  11.800   7.698
  222POPC   C1B 5791  14.972  12.490   8.684
  222POPC   C2B 5792  14.921  12.255   8.305
  222POPC   C3B 5793  15.126  12.322   7.940
  222POPC   C4B 5794  14.973  12.447   7.558
  223POPC   NC3 5795   1.012  31.203   9.429
  223POPC   PO4 5796   1.335  31.796   9.586
  223POPC   GL1 5797   1.295  31.607   9.191
  223POPC   GL2 5798   0.955  31.735   9.173
  223POPC   C1A 5799   1.325  31.316   8.834
  223POPC   D2A 5800   1.200  31.299   8.408
  223POPC   C3A 5801   1.463  31.107   8.101
  223POPC   C4A 5802   1.174  31.051   7.776
  223POPC   C1B 5803   1.071  31.771   8.720
  223POPC   C2B 5804   0.854  31.667   8.330
  223POPC   C3B 5805   0.934  31.511   7.918
  223POPC   C4B 5806   1.101  31.739   7.596
  224POPC   NC3 5807   9.971   3.292   9.549
  224POPC   PO4 5808   9.274   3.316   9.345
  224POPC   GL1 5809   9.686   3.393   9.127
  224POPC   GL2 5810  10.010   3.180   9.057
  224POPC   C1A 5811   9.799   3.674   8.788
  224POPC   D2A 5812   9.500   3.772   8.447
  224POPC   C3A 5813   9.682   3.860   8.043
  224POPC   C4A 5814  10.013   3.692   7.783
  224POPC   C1B 5815   9.879   3.190   8.622
  224POPC   C2B 5816   9.901   3.398   8.203
  224POPC   C3B 5817   9.667   3.319   7.786
  224POPC   C4B 5818   9.651   3.384   7.302
  225POPC   NC3 5819  35.843   8.770   9.419
  225POPC   PO4 5820  36.325   8.448   9.718
  225POPC   GL1 5821  36.343   8.750   9.287
  225POPC   GL2 5822  36.515   9.059   9.234
  225POPC   C1A 5823  36.172   8.959   8.848
  225POPC   D2A 5824  35.992   9.169   8.441
  225POPC   C3A 5825  36.097   8.987   7.989
  225POPC   C4A 5826  36.157   9.003   7.536
  225POPC   C1B 5827  36.680   9.001   8.787
  225POPC   C2B 5828  36.504   9.040   8.328
  225POPC   C3B 5829  36.604   9.115   7.838
  225POPC   C4B 5830  36.639   9.070   7.356
  226POPC   NC3 5831   3.353  34.860   9.571
  226POPC   PO4 5832   3.744  34.304   9.415
  226POPC   GL1 5833   3.643  34.464   9.062
  226POPC   GL2 5834   3.323  34.318   9.008
  226POPC   C1A 5835   3.894  34.495   8.674
  226POPC   D2A 5836   3.805  34.626   8.248
  226POPC   C3A 5837   3.762  34.378   7.871
  226POPC   C4A 5838   3.529  34.277   7.480
  226POPC   C1B 5839   3.387  34.551   8.640
  226POPC   C2B 5840   3.280  34.712   8.270
  226POPC   C3B 5841   3.289  34.629   7.850
  226POPC   C4B 5842   3.599  34.859   7.669
  227POPC   NC3 5843  23.364   9.662   9.595
  227POPC   PO4 5844  23.938   9.408   9.662
  227POPC   GL1 5845  23.814   9.549   9.229
  227POPC   GL2 5846  23.678   9.876   9.175
  227POPC   C1A 5847  23.643   9.552   8.789
  227POPC   D2A 5848  23.656   9.794   8.419
  227POPC   C3A 5849  23.734   9.669   8.017
  227POPC   C4A 5850  23.567   9.504   7.658
  227POPC   C1B 5851  23.524  10.090   8.817
  227POPC   C2B 5852  23.352  10.185   8.388
  227POPC   C3B 5853  23.516  10.132   7.954
  227POPC   C4B 5854  23.685   9.992   7.572
  228POPC   NC3 5855   9.995  16.065   9.508
  228POPC   PO4 5856   9.323  15.922   9.673
  228POPC   GL1 5857   9.692  15.831   9.186
  228POPC   GL2 5858  10.040  15.660   9.187
  228POPC   C1A 5859   9.631  15.924   8.734
  228POPC   D2A 5860   9.499  15.639   8.418
  228POPC   C3A 5861   9.539  15.788   8.030
  228POPC   C4A 5862   9.789  16.039   7.778
  228POPC   C1B 5863  10.123  15.882   8.782
  228POPC   C2B 5864   9.962  15.899   8.339
  228POPC   C3B 5865  10.202  15.849   7.974
  228POPC   C4B 5866  10.291  16.160   7.638
  229POPC   NC3 5867  20.275  41.563   9.516
  229POPC   PO4 5868  19.767  41.205   9.533
  229POPC   GL1 5869  19.868  41.382   9.134
  229POPC   GL2 5870  20.187  41.277   9.056
  229POPC   C1A 5871  19.718  41.466   8.680
  229POPC   D2A 5872  19.412  41.408   8.347
  229POPC   C3A 5873  19.655  41.443   8.005
  229POPC   C4A 5874  19.673  41.580   7.597
  229POPC   C1B 5875  20.160  41.676   8.824
  229POPC   C2B 5876  20.191  41.682   8.354
  229POPC   C3B 5877  20.105  41.729   7.882
  229POPC   C4B 5878  20.088  41.782   7.422
  230POPC   NC3 5879  21.206  38.010   9.276
  230POPC   PO4 5880  21.542  38.420   9.689
  230POPC   GL1 5881  21.446  38.510   9.219
  230POPC   GL2 5882  21.123  38.459   9.014
  230POPC   C1A 5883  21.545  38.495   8.759
  230POPC   D2A 5884  21.261  38.612   8.414
  230POPC   C3A 5885  21.440  38.666   7.999
  230POPC   C4A 5886  21.669  38.728   7.625
  230POPC   C1B 5887  21.176  38.150   8.653
  230POPC   C2B 5888  21.013  38.054   8.247
  230POPC   C3B 5889  21.180  38.251   7.855
  230POPC   C4B 5890  20.940  38.384   7.474
  231POPC   NC3 5891  42.205   9.771   9.558
  231POPC   PO4 5892  42.625   9.386   9.261
  231POPC   GL1 5893  42.321   9.692   9.027
  231POPC   GL2 5894  41.960   9.771   9.118
  231POPC   C1A 5895  42.461   9.829   8.602
  231POPC   D2A 5896  42.773   9.758   8.286
  231POPC   C3A 5897  42.582   9.678   7.889
  231POPC   C4A 5898  42.488   9.864   7.548
  231POPC   C1B 5899  41.794   9.737   8.698
  231POPC   C2B 5900  42.004   9.807   8.316
  231POPC   C3B 5901  42.052   9.753   7.876
  231POPC   C4B 5902  42.118   9.511   7.522
  232POPC   NC3 5903   2.319  33.774   9.521
  232POPC   PO4 5904   2.962  33.688   9.511
  232POPC   GL1 5905   2.682  33.657   9.179
  232POPC   GL2 5906   2.631  34.012   9.072
  232POPC   C1A 5907   2.741  33.621   8.752
  232POPC   D2A 5908   2.554  33.604   8.379
  232POPC   C3A 5909   2.790  33.498   8.081
  232POPC   C4A 5910   2.847  33.801   7.786
  232POPC   C1B 5911   2.895  34.209   8.750
  232POPC   C2B 5912   3.162  34.186   8.352
  232POPC   C3B 5913   3.231  34.124   7.902
  232POPC   C4B 5914   3.003  34.243   7.494
  233POPC   NC3 5915  40.267  30.804   9.374
  233POPC   PO4 5916  39.754  30.460   9.493
  233POPC   GL1 5917  40.006  30.369   9.139
  233POPC   GL2 5918  39.880  30.691   9.037
  233POPC   C1A 5919  40.084  30.388   8.684
  233POPC   D2A 5920  39.849  30.558   8.339
  233POPC   C3A 5921  39.981  30.735   7.933
  233POPC   C4A 5922  40.357  30.634   7.730
  233POPC   C1B 5923  40.036  30.927   8.713
  233POPC   C2B 5924  40.074  31.094   8.324
  233POPC   C3B 5925  39.852  31.234   7.965
  233POPC   C4B 5926  40.187  31.216   7.691
  234POPC   NC3 5927  29.135  38.191   9.574
  234POPC   PO4 5928  28.850  38.736   9.395
  234POPC   GL1 5929  28.938  38.582   9.058
  234POPC   GL2 5930  29.247  38.409   9.102
  234POPC   C1A 5931  28.904  38.210   8.823
  234POPC   D2A 5932  29.269  38.177   8.549
  234POPC   C3A 5933  29.156  38.295   8.135
  234POPC   C4A 5934  28.927  38.247   7.755
  234POPC   C1B 5935  29.312  38.651   8.724
  234POPC   C2B 5936  29.574  38.816   8.391
  234POPC   C3B 5937  29.447  38.819   7.976
  234POPC   C4B 5938  29.532  38.416   7.780
  235POPC   NC3 5939  13.206  28.487   9.630
  235POPC   PO4 5940  12.594  28.138   9.539
  235POPC   GL1 5941  12.826  28.361   9.230
  235POPC   GL2 5942  13.144  28.186   9.217
  235POPC   C1A 5943  12.691  28.307   8.796
  235POPC   D2A 5944  12.513  28.489   8.416
  235POPC   C3A 5945  12.712  28.369   8.074
  235POPC   C4A 5946  12.925  28.475   7.735
  235POPC   C1B 5947  13.106  27.991   8.830
  235POPC   C2B 5948  12.997  28.099   8.439
  235POPC   C3B 5949  13.221  28.177   8.087
  235POPC   C4B 5950  13.254  27.858   7.805
  236POPC   NC3 5951  20.296  13.217   9.352
  236POPC   PO4 5952  20.711  13.675   9.663
  236POPC   GL1 5953  20.609  13.633   9.205
  236POPC   GL2 5954  20.379  13.909   9.101
  236POPC   C1A 5955  20.828  13.628   8.774
  236POPC   D2A 5956  20.852  13.329   8.408
  236POPC   C3A 5957  20.897  13.558   8.017
  236POPC   C4A 5958  20.829  13.722   7.611
  236POPC   C1B 5959  20.333  13.577   8.760
  236POPC   C2B 5960  20.366  13.491   8.309
  236POPC   C3B 5961  20.405  13.534   7.859
  236POPC   C4B 5962  20.355  13.735   7.450
  237POPC   NC3 5963  40.331   6.597   9.404
  237POPC   PO4 5964  39.725   6.431   9.510
  237POPC   GL1 5965  39.792   6.647   9.115
  237POPC   GL2 5966  40.070   6.526   8.978
  237POPC   C1A 5967  39.690   6.695   8.682
  237POPC   D2A 5968  39.618   6.432   8.338
  237POPC   C3A 5969  39.705   6.657   7.962
  237POPC   C4A 5970  40.064   6.812   7.756
  237POPC   C1B 5971  40.109   6.397   8.568
  237POPC   C2B 5972  40.185   6.625   8.206
  237POPC   C3B 5973  40.488   6.512   7.894
  237POPC   C4B 5974  40.455   6.145   7.604
  238POPC   NC3 5975  37.946  42.833   9.446
  238POPC   PO4 5976  37.495  43.297   9.628
  238POPC   GL1 5977  37.665  43.210   9.237
  238POPC   GL2 5978  37.998  43.347   9.334
  238POPC   C1A 5979  37.670  42.938   8.833
  238POPC   D2A 5980  37.546  42.866   8.400
  238POPC   C3A 5981  37.658  42.956   7.976
  238POPC   C4A 5982  37.326  43.095   7.727
  238POPC   C1B 5983  38.031  43.289   8.883
  238POPC   C2B 5984  38.022  43.106   8.471
  238POPC   C3B 5985  37.987  43.319   8.100
  238POPC   C4B 5986  38.041  43.268   7.724
  239POPC   NC3 5987  31.899  12.889   9.535
  239POPC   PO4 5988  32.384  12.523   9.249
  239POPC   GL1 5989  32.295  12.941   9.099
  239POPC   GL2 5990  31.926  13.054   9.075
  239POPC   C1A 5991  32.484  12.882   8.682
  239POPC   D2A 5992  32.528  12.578   8.350
  239POPC   C3A 5993  32.444  12.777   7.972
  239POPC   C4A 5994  32.311  12.744   7.559
  239POPC   C1B 5995  31.941  12.779   8.717
  239POPC   C2B 5996  32.000  12.584   8.302
  239POPC   C3B 5997  31.929  12.744   7.893
  239POPC   C4B 5998  32.014  13.132   7.680
  240POPC   NC3 5999   6.865  10.453   9.565
  240POPC   PO4 6000   6.181  10.282   9.473
  240POPC   GL1 6001   6.523  10.278   9.193
  240POPC   GL2 6002   6.902  10.341   9.081
  240POPC   C1A 6003   6.533  10.165   8.784
  240POPC   D2A 6004   6.667  10.347   8.440
  240POPC   C3A 6005   6.474  10.218   8.093
  240POPC   C4A 6006   6.535  10.248   7.699
  240POPC   C1B 6007   6.664  10.689   8.861
  240POPC   C2B 6008   6.712  10.871   8.438
  240POPC   C3B 6009   6.649  10.686   8.004
  240POPC   C4B 6010   6.987  10.501   7.724
  241POPC   NC3 6011  43.400   5.087   9.770
  241POPC   PO4 6012  42.986   5.340   9.253
  241POPC   GL1 6013  43.173   4.994   9.083
  241POPC   GL2 6014  42.893   4.983   8.903
  241POPC   C1A 6015  43.273   4.736   8.695
  241POPC   D2A 6016  43.128   4.680   8.269
  241POPC   C3A 6017  43.050   5.077   8.044
  241POPC   C4A 6018  43.246   5.253   7.689
  241POPC   C1B 6019  42.848   5.025   8.513
  241POPC   C2B 6020  42.539   5.116   8.263
  241POPC   C3B 6021  42.579   5.149   7.864
  241POPC   C4B 6022  42.819   5.046   7.528
  242POPC   NC3 6023  25.124   0.954   9.406
  242POPC   PO4 6024  25.791   1.173   9.477
  242POPC   GL1 6025  25.498   1.215   9.159
  242POPC   GL2 6026  25.234   1.479   9.178
  242POPC   C1A 6027  25.466   1.157   8.751
  242POPC   D2A 6028  25.563   1.345   8.377
  242POPC   C3A 6029  25.565   1.052   8.095
  242POPC   C4A 6030  25.541   1.175   7.687
  242POPC   C1B 6031  24.988   1.328   8.793
  242POPC   C2B 6032  25.082   1.109   8.392
  242POPC   C3B 6033  25.110   1.246   7.969
  242POPC   C4B 6034  25.043   1.169   7.528
  243POPC   NC3 6035  23.176  22.176   9.748
  243POPC   PO4 6036  23.366  22.483   9.146
  243POPC   GL1 6037  22.946  22.396   9.019
  243POPC   GL2 6038  22.652  22.625   9.156
  243POPC   C1A 6039  22.974  22.190   8.590
  243POPC   D2A 6040  23.244  21.873   8.376
  243POPC   C3A 6041  23.253  21.924   7.934
  243POPC   C4A 6042  22.823  21.928   7.788
  243POPC   C1B 6043  22.600  22.516   8.690
  243POPC   C2B 6044  22.688  22.613   8.285
  243POPC   C3B 6045  22.755  22.458   7.867
  243POPC   C4B 6046  23.103  22.338   7.624
  244POPC   NC3 6047  39.707  36.664   9.648
  244POPC   PO4 6048  40.363  36.940   9.599
  244POPC   GL1 6049  40.065  36.908   9.301
  244POPC   GL2 6050  40.312  37.078   9.109
  244POPC   C1A 6051  39.904  36.834   8.886
  244POPC   D2A 6052  39.982  36.958   8.474
  244POPC   C3A 6053  39.830  36.873   8.071
  244POPC   C4A 6054  40.123  36.689   7.798
  244POPC   C1B 6055  40.244  37.311   8.762
  244POPC   C2B 6056  40.343  37.288   8.370
  244POPC   C3B 6057  40.306  37.091   8.036
  244POPC   C4B 6058  40.443  37.207   7.665
  245POPC   NC3 6059  34.193  12.802   9.586
  245POPC   PO4 6060  34.781  13.189   9.284
  245POPC   GL1 6061  34.582  13.126   8.983
  245POPC   GL2 6062  34.380  12.840   9.073
  245POPC   C1A 6063  34.556  13.354   8.625
  245POPC   D2A 6064  34.703  13.109   8.306
  245POPC   C3A 6065  34.404  12.847   8.143
  245POPC   C4A 6066  34.495  12.916   7.776
  245POPC   C1B 6067  34.343  12.678   8.625
  245POPC   C2B 6068  34.272  12.365   8.243
  245POPC   C3B 6069  34.459  12.422   7.842
  245POPC   C4B 6070  34.331  12.544   7.409
  246POPC   NC3 6071  12.295  27.769   9.441
  246POPC   PO4 6072  11.718  27.635   9.716
  246POPC   GL1 6073  11.881  27.534   9.227
  246POPC   GL2 6074  12.224  27.404   9.089
  246POPC   C1A 6075  11.939  27.773   8.791
  246POPC   D2A 6076  11.899  27.793   8.338
  246POPC   C3A 6077  12.192  27.630   8.077
  246POPC   C4A 6078  12.333  27.749   7.714
  246POPC   C1B 6079  12.020  27.270   8.714
  246POPC   C2B 6080  12.078  27.127   8.290
  246POPC   C3B 6081  12.233  27.088   7.917
  246POPC   C4B 6082  12.081  27.304   7.628
  247POPC   NC3 6083  43.957   9.939   9.430
  247POPC   PO4 6084  43.622   9.355   9.336
  247POPC   GL1 6085  43.843   9.547   9.018
  247POPC   GL2 6086  44.166   9.619   9.057
  247POPC   C1A 6087  43.947   9.479   8.588
  247POPC   D2A 6088  44.006   9.363   8.148
  247POPC   C3A 6089  43.641   9.574   7.954
  247POPC   C4A 6090  43.680   9.999   7.828
  247POPC   C1B 6091  44.095   9.961   8.757
  247POPC   C2B 6092  44.011  10.148   8.324
  247POPC   C3B 6093  44.153  10.225   7.871
  247POPC   C4B 6094  44.197  10.132   7.408
  248POPC   NC3 6095  43.631   6.698   9.459
  248POPC   PO4 6096  44.262   6.619   9.645
  248POPC   GL1 6097  44.056   6.629   9.204
  248POPC   GL2 6098  43.811   6.394   9.086
  248POPC   C1A 6099  43.866   6.833   8.814
  248POPC   D2A 6100  44.063   6.917   8.398
  248POPC   C3A 6101  43.903   6.665   8.021
  248POPC   C4A 6102  44.041   6.858   7.618
  248POPC   C1B 6103  43.529   6.434   8.714
  248POPC   C2B 6104  43.353   6.331   8.302
  248POPC   C3B 6105  43.487   6.249   7.875
  248POPC   C4B 6106  43.690   6.488   7.551
  249POPC   NC3 6107  18.021  29.260   9.457
  249POPC   PO4 6108  18.621  29.012   9.521
  249POPC   GL1 6109  18.431  29.156   9.142
  249POPC   GL2 6110  18.228  29.472   9.045
  249POPC   C1A 6111  18.312  28.960   8.771
  249POPC   D2A 6112  18.065  28.947   8.382
  249POPC   C3A 6113  18.333  29.179   8.121
  249POPC   C4A 6114  18.443  29.231   7.707
  249POPC   C1B 6115  18.095  29.409   8.618
  249POPC   C2B 6116  18.036  29.587   8.202
  249POPC   C3B 6117  17.968  29.376   7.794
  249POPC   C4B 6118  17.922  29.346   7.320
  250POPC   NC3 6119  19.783   1.060   9.572
  250POPC   PO4 6120  19.711   1.635   9.310
  250POPC   GL1 6121  19.988   1.346   9.108
  250POPC   GL2 6122  20.084   0.990   9.151
  250POPC   C1A 6123  20.049   1.522   8.716
  250POPC   D2A 6124  19.940   1.406   8.337
  250POPC   C3A 6125  19.546   1.576   8.161
  250POPC   C4A 6126  19.622   1.645   7.724
  250POPC   C1B 6127  19.942   0.998   8.686
  250POPC   C2B 6128  20.109   0.933   8.237
  250POPC   C3B 6129  19.924   1.117   7.838
  250POPC   C4B 6130  19.995   1.269   7.418
  251POPC   NC3 6131  36.282  11.447   9.798
  251POPC   PO4 6132  35.927  11.854   9.784
  251POPC   GL1 6133  35.980  11.984   9.314
  251POPC   GL2 6134  36.317  12.043   9.145
  251POPC   C1A 6135  35.890  12.032   8.846
  251POPC   D2A 6136  35.831  11.883   8.421
  251POPC   C3A 6137  35.969  12.158   8.105
  251POPC   C4A 6138  35.909  11.979   7.743
  251POPC   C1B 6139  36.427  12.118   8.684
  251POPC   C2B 6140  36.444  11.982   8.234
  251POPC   C3B 6141  36.400  12.053   7.760
  251POPC   C4B 6142  36.158  12.378   7.502
  252POPC   NC3 6143  30.547  24.319   9.196
  252POPC   PO4 6144  30.917  24.787   9.457
  252POPC   GL1 6145  30.882  24.697   9.061
  252POPC   GL2 6146  31.068  24.380   9.147
  252POPC   C1A 6147  30.595  24.662   8.669
  252POPC   D2A 6148  30.587  24.433   8.307
  252POPC   C3A 6149  30.724  24.743   8.048
  252POPC   C4A 6150  30.842  24.706   7.622
  252POPC   C1B 6151  31.058  24.392   8.710
  252POPC   C2B 6152  31.093  24.515   8.335
  252POPC   C3B 6153  30.983  24.320   7.967
  252POPC   C4B 6154  31.210  24.356   7.642
  253POPC   NC3 6155  39.319  37.249   9.182
  253POPC   PO4 6156  39.213  36.690   9.566
  253POPC   GL1 6157  39.127  36.759   9.117
  253POPC   GL2 6158  38.898  36.991   9.019
  253POPC   C1A 6159  39.163  36.806   8.625
  253POPC   D2A 6160  39.448  37.084   8.382
  253POPC   C3A 6161  39.385  37.096   7.933
  253POPC   C4A 6162  39.189  36.761   7.668
  253POPC   C1B 6163  38.892  37.274   8.675
  253POPC   C2B 6164  38.988  37.297   8.287
  253POPC   C3B 6165  38.935  36.923   8.103
  253POPC   C4B 6166  38.726  36.947   7.760
  254POPC   NC3 6167  25.434   3.165   9.431
  254POPC   PO4 6168  25.167   3.793   9.482
  254POPC   GL1 6169  25.128   3.785   9.058
  254POPC   GL2 6170  25.177   3.447   9.093
  254POPC   C1A 6171  25.083   3.673   8.625
  254POPC   D2A 6172  25.341   3.521   8.285
  254POPC   C3A 6173  25.308   3.777   7.932
  254POPC   C4A 6174  25.041   3.724   7.550
  254POPC   C1B 6175  25.388   3.267   8.748
  254POPC   C2B 6176  25.296   3.015   8.404
  254POPC   C3B 6177  25.403   3.029   8.012
  254POPC   C4B 6178  25.237   3.303   7.726
  255POPC   NC3 6179   2.195  19.616   9.369
  255POPC   PO4 6180   1.909  20.205   9.593
  255POPC   GL1 6181   2.119  20.100   9.217
  255POPC   GL2 6182   1.817  20.151   9.070
  255POPC   C1A 6183   2.170  19.939   8.784
  255POPC   D2A 6184   1.933  19.726   8.477
  255POPC   C3A 6185   2.183  19.815   8.147
  255POPC   C4A 6186   2.149  19.866   7.724
  255POPC   C1B 6187   1.607  20.141   8.733
  255POPC   C2B 6188   1.729  20.189   8.376
  255POPC   C3B 6189   1.741  20.013   8.009
  255POPC   C4B 6190   1.513  20.114   7.656
  256POPC   NC3 6191  32.597  32.038   9.448
  256POPC   PO4 6192  33.308  32.208   9.541
  256POPC   GL1 6193  33.061  32.365   9.189
  256POPC   GL2 6194  32.887  32.079   9.016
  256POPC   C1A 6195  32.891  32.523   8.779
  256POPC   D2A 6196  32.929  32.258   8.417
  256POPC   C3A 6197  33.167  32.382   8.055
  256POPC   C4A 6198  33.062  32.375   7.641
  256POPC   C1B 6199  33.286  32.172   8.764
  256POPC   C2B 6200  33.413  32.020   8.345
  256POPC   C3B 6201  33.146  31.879   7.968
  256POPC   C4B 6202  32.966  31.865   7.530
  257POPC   NC3 6203  35.943  10.675   9.260
  257POPC   PO4 6204  35.880  10.163   9.631
  257POPC   GL1 6205  35.937  10.089   9.180
  257POPC   GL2 6206  36.269  10.059   9.021
  257POPC   C1A 6207  35.776  10.222   8.795
  257POPC   D2A 6208  35.757  10.158   8.342
  257POPC   C3A 6209  35.793  10.553   8.103
  257POPC   C4A 6210  36.128  10.686   7.816
  257POPC   C1B 6211  36.226  10.261   8.574
  257POPC   C2B 6212  36.294  10.617   8.297
  257POPC   C3B 6213  36.555  10.880   8.017
  257POPC   C4B 6214  36.614  10.719   7.565
  258POPC   NC3 6215  40.540   9.818   9.551
  258POPC   PO4 6216  41.057   9.419   9.425
  258POPC   GL1 6217  40.760   9.562   9.100
  258POPC   GL2 6218  40.688   9.932   9.082
  258POPC   C1A 6219  40.821   9.537   8.646
  258POPC   D2A 6220  41.139   9.597   8.325
  258POPC   C3A 6221  40.956   9.655   7.924
  258POPC   C4A 6222  40.767   9.422   7.589
  258POPC   C1B 6223  40.464   9.903   8.711
  258POPC   C2B 6224  40.640   9.922   8.295
  258POPC   C3B 6225  40.549  10.110   7.903
  258POPC   C4B 6226  40.287  10.170   7.564
  259POPC   NC3 6227  20.089   6.039   9.372
  259POPC   PO4 6228  19.470   5.593   9.374
  259POPC   GL1 6229  19.749   5.743   9.085
  259POPC   GL2 6230  19.660   6.063   8.989
  259POPC   C1A 6231  19.856   5.653   8.678
  259POPC   D2A 6232  19.956   5.569   8.276
  259POPC   C3A 6233  19.741   5.798   7.971
  259POPC   C4A 6234  19.653   5.829   7.533
  259POPC   C1B 6235  20.090   6.112   8.760
  259POPC   C2B 6236  20.263   5.964   8.412
  259POPC   C3B 6237  20.205   6.083   8.016
  259POPC   C4B 6238  19.931   6.206   7.717
  260POPC   NC3 6239  26.482   0.575   9.338
  260POPC   PO4 6240  26.920   0.157   9.773
  260POPC   GL1 6241  26.950   0.392   9.306
  260POPC   GL2 6242  27.021   0.697   9.140
  260POPC   C1A 6243  26.793   0.286   8.851
  260POPC   D2A 6244  26.899   0.264   8.401
  260POPC   C3A 6245  26.688   0.295   7.991
  260POPC   C4A 6246  26.901   0.258   7.616
  260POPC   C1B 6247  26.804   0.824   8.742
  260POPC   C2B 6248  26.693   0.746   8.296
  260POPC   C3B 6249  26.849   0.771   7.891
  260POPC   C4B 6250  27.055   0.947   7.571
  261POPC   NC3 6251  20.416  31.904   9.302
  261POPC   PO4 6252  21.104  31.980   9.371
  261POPC   GL1 6253  20.820  32.152   9.081
  261POPC   GL2 6254  20.553  32.406   9.210
  261POPC   C1A 6255  20.648  32.019   8.677
  261POPC   D2A 6256  20.436  32.047   8.266
  261POPC   C3A 6257  20.726  31.967   7.895
  261POPC   C4A 6258  20.746  32.141   7.463
  261POPC   C1B 6259  20.662  32.552   8.793
  261POPC   C2B 6260  20.525  32.601   8.364
  261POPC   C3B 6261  20.577  32.439   7.952
  261POPC   C4B 6262  20.393  32.483   7.550
  262POPC   NC3 6263  21.679   3.090   9.639
  262POPC   PO4 6264  21.328   2.398   9.518
  262POPC   GL1 6265  21.321   2.732   9.192
  262POPC   GL2 6266  21.609   2.980   9.148
  262POPC   C1A 6267  21.177   2.829   8.796
  262POPC   D2A 6268  20.884   2.794   8.463
  262POPC   C3A 6269  21.076   2.881   8.051
  262POPC   C4A 6270  21.275   2.837   7.652
  262POPC   C1B 6271  21.696   2.802   8.739
  262POPC   C2B 6272  21.441   2.685   8.381
  262POPC   C3B 6273  21.605   2.868   8.029
  262POPC   C4B 6274  21.769   2.665   7.675
  263POPC   NC3 6275  44.225  33.942   9.358
  263POPC   PO4 6276  43.862  33.421   9.593
  263POPC   GL1 6277  43.809  33.590   9.155
  263POPC   GL2 6278  44.091  33.714   8.936
  263POPC   C1A 6279  43.727  33.467   8.699
  263POPC   D2A 6280  43.895  33.779   8.395
  263POPC   C3A 6281  43.666  33.864   8.025
  263POPC   C4A 6282  43.531  33.602   7.667
  263POPC   C1B 6283  44.088  34.124   8.719
  263POPC   C2B 6284  43.977  34.278   8.298
  263POPC   C3B 6285  44.105  34.160   7.895
  263POPC   C4B 6286  43.812  34.076   7.572
  264POPC   NC3 6287  20.352   6.935   9.349
  264POPC   PO4 6288  19.941   6.447   9.599
  264POPC   GL1 6289  19.870   6.508   9.159
  264POPC   GL2 6290  20.167   6.586   8.988
  264POPC   C1A 6291  19.724   6.472   8.706
  264POPC   D2A 6292  19.801   6.190   8.347
  264POPC   C3A 6293  19.756   6.497   8.090
  264POPC   C4A 6294  19.744   6.658   7.708
  264POPC   C1B 6295  19.870   6.939   8.861
  264POPC   C2B 6296  19.910   7.152   8.466
  264POPC   C3B 6297  19.905   6.984   8.082
  264POPC   C4B 6298  19.860   7.145   7.678
  265POPC   NC3 6299   5.639  19.082   9.695
  265POPC   PO4 6300   5.572  18.500   9.326
  265POPC   GL1 6301   5.798  18.940   9.231
  265POPC   GL2 6302   6.139  19.143   9.168
  265POPC   C1A 6303   5.697  19.238   8.905
  265POPC   D2A 6304   5.680  19.125   8.459
  265POPC   C3A 6305   5.888  19.180   8.057
  265POPC   C4A 6306   5.645  19.148   7.680
  265POPC   C1B 6307   6.062  18.927   8.776
  265POPC   C2B 6308   6.196  18.916   8.385
  265POPC   C3B 6309   6.231  18.726   8.003
  265POPC   C4B 6310   6.049  18.860   7.635
  266POPC   NC3 6311  36.874   5.648   9.536
  266POPC   PO4 6312  37.291   6.095   9.395
  266POPC   GL1 6313  36.943   5.913   9.107
  266POPC   GL2 6314  36.750   5.543   9.059
  266POPC   C1A 6315  36.716   5.908   8.707
  266POPC   D2A 6316  36.479   5.831   8.350
  266POPC   C3A 6317  36.746   5.782   8.019
  266POPC   C4A 6318  36.938   5.868   7.643
  266POPC   C1B 6319  37.125   5.562   8.799
  266POPC   C2B 6320  37.136   5.699   8.397
  266POPC   C3B 6321  37.184   5.528   8.020
  266POPC   C4B 6322  37.408   5.653   7.712
  267POPC   NC3 6323   8.209  36.441   9.456
  267POPC   PO4 6324   8.483  37.041   9.421
  267POPC   GL1 6325   8.283  37.031   9.029
  267POPC   GL2 6326   8.360  36.678   9.045
  267POPC   C1A 6327   8.053  36.838   8.687
  267POPC   D2A 6328   7.987  36.873   8.279
  267POPC   C3A 6329   8.182  37.143   8.024
  267POPC   C4A 6330   8.129  36.994   7.671
  267POPC   C1B 6331   8.477  36.479   8.703
  267POPC   C2B 6332   8.297  36.469   8.339
  267POPC   C3B 6333   8.356  36.645   7.974
  267POPC   C4B 6334   8.368  36.530   7.574
  268POPC   NC3 6335  27.006  17.350   9.621
  268POPC   PO4 6336  27.263  17.983   9.451
  268POPC   GL1 6337  27.508  17.820   9.059
  268POPC   GL2 6338  27.783  17.557   9.142
  268POPC   C1A 6339  27.664  17.647   8.666
  268POPC   D2A 6340  27.528  17.409   8.312
  268POPC   C3A 6341  27.711  17.568   7.960
  268POPC   C4A 6342  27.626  17.716   7.527
  268POPC   C1B 6343  27.995  17.283   8.804
  268POPC   C2B 6344  28.000  17.164   8.351
  268POPC   C3B 6345  27.791  17.057   7.945
  268POPC   C4B 6346  27.585  17.158   7.541
  269POPC   NC3 6347   9.256  14.532   9.500
  269POPC   PO4 6348   8.647  14.639   9.247
  269POPC   GL1 6349   8.959  14.403   9.094
  269POPC   GL2 6350   9.152  14.699   8.972
  269POPC   C1A 6351   9.192  14.192   8.782
  269POPC   D2A 6352   9.456  14.075   8.432
  269POPC   C3A 6353   9.213  14.122   8.050
  269POPC   C4A 6354   9.103  14.403   7.655
  269POPC   C1B 6355   8.845  14.563   8.625
  269POPC   C2B 6356   8.909  14.508   8.182
  269POPC   C3B 6357   9.135  14.808   7.946
  269POPC   C4B 6358   8.765  14.843   7.705
  270POPC   NC3 6359   8.186  18.702   9.343
  270POPC   PO4 6360   8.440  18.116   9.387
  270POPC   GL1 6361   8.265  18.265   9.056
  270POPC   GL2 6362   7.946  18.197   9.211
  270POPC   C1A 6363   8.293  18.352   8.622
  270POPC   D2A 6364   8.314  18.340   8.193
  270POPC   C3A 6365   8.322  18.353   7.777
  270POPC   C4A 6366   8.246  18.676   7.456
  270POPC   C1B 6367   7.812  18.308   8.811
  270POPC   C2B 6368   7.849  18.149   8.391
  270POPC   C3B 6369   7.807  18.390   8.029
  270POPC   C4B 6370   7.852  18.340   7.618
  271POPC   NC3 6371  20.046  31.787   9.688
  271POPC   PO4 6372  19.998  31.252   9.373
  271POPC   GL1 6373  19.916  31.500   9.082
  271POPC   GL2 6374  19.568  31.596   9.209
  271POPC   C1A 6375  19.965  31.278   8.691
  271POPC   D2A 6376  19.992  31.529   8.369
  271POPC   C3A 6377  19.910  31.357   7.996
  271POPC   C4A 6378  19.988  31.607   7.690
  271POPC   C1B 6379  19.486  31.358   8.822
  271POPC   C2B 6380  19.478  31.387   8.402
  271POPC   C3B 6381  19.545  31.686   8.096
  271POPC   C4B 6382  19.506  31.457   7.704
  272POPC   NC3 6383  15.655  13.779   9.785
  272POPC   PO4 6384  15.066  13.884   9.535
  272POPC   GL1 6385  15.233  13.684   9.170
  272POPC   GL2 6386  15.273  13.314   9.079
  272POPC   C1A 6387  15.269  13.819   8.742
  272POPC   D2A 6388  15.505  13.922   8.368
  272POPC   C3A 6389  15.379  13.834   7.935
  272POPC   C4A 6390  15.192  13.701   7.524
  272POPC   C1B 6391  15.351  13.332   8.658
  272POPC   C2B 6392  15.198  13.512   8.310
  272POPC   C3B 6393  15.182  13.365   7.908
  272POPC   C4B 6394  15.304  13.168   7.526
  273POPC   NC3 6395  34.964  15.892   9.537
  273POPC   PO4 6396  34.388  15.671   9.202
  273POPC   GL1 6397  34.605  15.815   8.933
  273POPC   GL2 6398  34.764  16.074   9.108
  273POPC   C1A 6399  34.352  15.878   8.564
  273POPC   D2A 6400  34.364  15.560   8.254
  273POPC   C3A 6401  34.212  15.695   7.893
  273POPC   C4A 6402  34.441  15.989   7.677
  273POPC   C1B 6403  34.716  16.237   8.690
  273POPC   C2B 6404  34.927  16.278   8.309
  273POPC   C3B 6405  34.759  16.301   7.909
  273POPC   C4B 6406  34.745  16.370   7.433
  274POPC   NC3 6407  26.651  42.200   9.517
  274POPC   PO4 6408  27.272  42.466   9.456
  274POPC   GL1 6409  27.130  42.420   9.066
  274POPC   GL2 6410  26.821  42.373   9.085
  274POPC   C1A 6411  26.976  42.427   8.601
  274POPC   D2A 6412  26.979  42.658   8.200
  274POPC   C3A 6413  27.008  42.377   7.832
  274POPC   C4A 6414  26.653  42.402   7.534
  274POPC   C1B 6415  26.612  42.105   8.828
  274POPC   C2B 6416  26.403  42.220   8.477
  274POPC   C3B 6417  26.635  42.263   8.136
  274POPC   C4B 6418  26.741  41.958   7.788
  275POPC   NC3 6419  12.828  42.239   9.871
  275POPC   PO4 6420  12.951  42.110   9.251
  275POPC   GL1 6421  12.669  42.346   9.025
  275POPC   GL2 6422  12.957  42.462   8.858
  275POPC   C1A 6423  12.635  42.189   8.598
  275POPC   D2A 6424  12.997  42.301   8.369
  275POPC   C3A 6425  13.135  42.012   8.140
  275POPC   C4A 6426  12.829  41.934   7.859
  275POPC   C1B 6427  13.225  42.688   8.625
  275POPC   C2B 6428  13.133  42.764   8.202
  275POPC   C3B 6429  13.007  42.461   7.856
  275POPC   C4B 6430  13.082  42.406   7.418
  276POPC   NC3 6431  39.731  40.209   9.430
  276POPC   PO4 6432  39.625  39.511   9.435
  276POPC   GL1 6433  39.816  39.745   9.049
  276POPC   GL2 6434  39.835  40.069   8.971
  276POPC   C1A 6435  40.140  39.756   8.709
  276POPC   D2A 6436  40.164  39.581   8.280
  276POPC   C3A 6437  40.147  39.855   7.886
  276POPC   C4A 6438  40.083  40.043   7.478
  276POPC   C1B 6439  40.036  40.294   8.667
  276POPC   C2B 6440  40.179  40.162   8.294
  276POPC   C3B 6441  40.133  40.398   7.912
  276POPC   C4B 6442  40.341  40.500   7.523
  277POPC   NC3 6443  16.580  12.989   9.486
  277POPC   PO4 6444  17.134  12.586   9.471
  277POPC   GL1 6445  16.874  12.524   9.078
  277POPC   GL2 6446  16.590  12.769   9.013
  277POPC   C1A 6447  16.872  12.591   8.622
  277POPC   D2A 6448  16.685  12.934   8.410
  277POPC   C3A 6449  16.711  12.851   7.973
  277POPC   C4A 6450  16.875  12.811   7.557
  277POPC   C1B 6451  16.353  12.593   8.648
  277POPC   C2B 6452  16.253  12.709   8.229
  277POPC   C3B 6453  16.268  12.674   7.781
  277POPC   C4B 6454  16.410  12.983   7.502
  278POPC   NC3 6455  15.116  11.519   9.892
  278POPC   PO4 6456  15.432  11.428   9.376
  278POPC   GL1 6457  15.090  11.546   9.136
  278POPC   GL2 6458  15.379  11.678   8.944
  278POPC   C1A 6459  14.960  11.459   8.757
  278POPC   D2A 6460  15.158  11.145   8.544
  278POPC   C3A 6461  15.314  11.237   8.135
  278POPC   C4A 6462  15.105  11.306   7.717
  278POPC   C1B 6463  15.610  11.467   8.623
  278POPC   C2B 6464  15.685  11.674   8.226
  278POPC   C3B 6465  15.576  11.534   7.813
  278POPC   C4B 6466  15.549  11.085   7.687
  279POPC   NC3 6467   5.715  18.099   9.554
  279POPC   PO4 6468   6.355  18.307   9.605
  279POPC   GL1 6469   6.078  18.217   9.206
  279POPC   GL2 6470   6.005  18.489   9.035
  279POPC   C1A 6471   5.962  18.055   8.738
  279POPC   D2A 6472   5.766  17.873   8.317
  279POPC   C3A 6473   5.899  17.900   7.891
  279POPC   C4A 6474   6.004  18.330   7.803
  279POPC   C1B 6475   5.745  18.533   8.689
  279POPC   C2B 6476   5.849  18.516   8.277
  279POPC   C3B 6477   5.662  18.697   7.915
  279POPC   C4B 6478   5.568  18.684   7.460
  280POPC   NC3 6479  37.578  17.238   9.725
  280POPC   PO4 6480  37.764  17.834   9.511
  280POPC   GL1 6481  37.499  17.652   9.216
  280POPC   GL2 6482  37.558  17.314   9.102
  280POPC   C1A 6483  37.541  17.735   8.784
  280POPC   D2A 6484  37.397  17.689   8.373
  280POPC   C3A 6485  37.657  17.793   8.030
  280POPC   C4A 6486  37.656  17.679   7.602
  280POPC   C1B 6487  37.801  17.269   8.728
  280POPC   C2B 6488  37.740  17.228   8.307
  280POPC   C3B 6489  37.955  17.370   7.962
  280POPC   C4B 6490  37.908  17.234   7.578
  281POPC   NC3 6491  27.063   4.392   9.794
  281POPC   PO4 6492  27.679   4.314   9.521
  281POPC   GL1 6493  27.577   4.257   9.123
  281POPC   GL2 6494  27.251   4.372   9.097
  281POPC   C1A 6495  27.757   4.147   8.740
  281POPC   D2A 6496  27.571   4.266   8.361
  281POPC   C3A 6497  27.711   4.122   7.984
  281POPC   C4A 6498  27.467   4.362   7.728
  281POPC   C1B 6499  27.446   4.606   8.740
  281POPC   C2B 6500  27.526   4.775   8.329
  281POPC   C3B 6501  27.798   4.650   7.990
  281POPC   C4B 6502  27.797   4.642   7.503
  282POPC   NC3 6503  18.985  31.628   9.680
  282POPC   PO4 6504  19.185  31.025   9.525
  282POPC   GL1 6505  19.177  31.205   9.168
  282POPC   GL2 6506  18.944  31.442   9.219
  282POPC   C1A 6507  18.978  31.236   8.764
  282POPC   D2A 6508  18.773  31.249   8.407
  282POPC   C3A 6509  19.105  31.055   8.209
  282POPC   C4A 6510  19.129  31.108   7.762
  282POPC   C1B 6511  19.129  31.714   8.939
  282POPC   C2B 6512  19.046  31.698   8.498
  282POPC   C3B 6513  19.074  31.536   8.100
  282POPC   C4B 6514  19.077  31.696   7.714
  283POPC   NC3 6515  29.998  31.244   9.529
  283POPC   PO4 6516  29.652  31.736   9.541
  283POPC   GL1 6517  29.832  31.583   9.205
  283POPC   GL2 6518  29.668  31.264   9.159
  283POPC   C1A 6519  29.989  31.698   8.867
  283POPC   D2A 6520  29.774  31.887   8.542
  283POPC   C3A 6521  29.753  31.730   8.143
  283POPC   C4A 6522  29.819  31.838   7.742
  283POPC   C1B 6523  29.927  31.202   8.783
  283POPC   C2B 6524  30.077  31.466   8.427
  283POPC   C3B 6525  30.090  31.388   8.000
  283POPC   C4B 6526  30.079  31.409   7.575
  284POPC   NC3 6527  26.675   0.530   9.862
  284POPC   PO4 6528  26.147   0.242   9.400
  284POPC   GL1 6529  25.931   0.203   9.076
  284POPC   GL2 6530  25.596   0.258   9.150
  284POPC   C1A 6531  25.848   0.552   8.799
  284POPC   D2A 6532  25.858   0.524   8.365
  284POPC   C3A 6533  26.244   0.470   8.159
  284POPC   C4A 6534  26.263   0.607   7.734
  284POPC   C1B 6535  25.637   0.093   8.680
  284POPC   C2B 6536  25.871   0.013   8.306
  284POPC   C3B 6537  25.849   0.253   7.935
  284POPC   C4B 6538  25.908   0.324   7.485
  285POPC   NC3 6539  32.174  36.421   9.722
  285POPC   PO4 6540  32.546  35.995   9.350
  285POPC   GL1 6541  32.298  35.898   9.049
  285POPC   GL2 6542  32.046  36.121   9.154
  285POPC   C1A 6543  32.291  35.939   8.636
  285POPC   D2A 6544  32.141  36.135   8.311
  285POPC   C3A 6545  32.372  36.049   7.981
  285POPC   C4A 6546  32.654  36.192   7.745
  285POPC   C1B 6547  31.820  36.019   8.770
  285POPC   C2B 6548  31.739  35.825   8.334
  285POPC   C3B 6549  31.881  35.881   7.910
  285POPC   C4B 6550  32.074  36.167   7.589
  286POPC   NC3 6551  16.624  40.908   9.523
  286POPC   PO4 6552  16.460  40.232   9.517
  286POPC   GL1 6553  16.640  40.312   9.146
  286POPC   GL2 6554  16.921  40.483   9.231
  286POPC   C1A 6555  16.558  40.498   8.797
  286POPC   D2A 6556  16.458  40.417   8.399
  286POPC   C3A 6557  16.339  40.753   8.137
  286POPC   C4A 6558  16.504  40.861   7.693
  286POPC   C1B 6559  17.061  40.495   8.796
  286POPC   C2B 6560  16.888  40.690   8.423
  286POPC   C3B 6561  16.742  40.520   7.990
  286POPC   C4B 6562  16.898  40.582   7.583
  287POPC   NC3 6563  32.492  31.295   9.393
  287POPC   PO4 6564  32.143  31.870   9.435
  287POPC   GL1 6565  32.141  31.556   9.104
  287POPC   GL2 6566  31.946  31.257   9.247
  287POPC   C1A 6567  32.424  31.370   8.734
  287POPC   D2A 6568  32.373  31.165   8.306
  287POPC   C3A 6569  32.439  31.411   7.940
  287POPC   C4A 6570  32.273  31.814   7.869
  287POPC   C1B 6571  31.936  31.223   8.787
  287POPC   C2B 6572  32.012  31.520   8.453
  287POPC   C3B 6573  31.921  31.472   8.029
  287POPC   C4B 6574  32.011  31.069   7.877
  288POPC   NC3 6575  39.796  26.546   9.494
  288POPC   PO4 6576  39.890  27.248   9.528
  288POPC   GL1 6577  39.893  26.950   9.202
  288POPC   GL2 6578  39.592  26.815   9.086
  288POPC   C1A 6579  40.087  26.792   8.822
  288POPC   D2A 6580  40.352  26.548   8.519
  288POPC   C3A 6581  40.270  26.590   8.063
  288POPC   C4A 6582  40.081  26.646   7.622
  288POPC   C1B 6583  39.608  26.622   8.716
  288POPC   C2B 6584  39.829  26.800   8.351
  288POPC   C3B 6585  39.699  26.661   7.950
  288POPC   C4B 6586  39.594  26.633   7.507
  289POPC   NC3 6587  17.816  22.869   9.773
  289POPC   PO4 6588  17.334  23.200   9.474
  289POPC   GL1 6589  17.648  22.961   9.222
  289POPC   GL2 6590  17.425  23.022   8.996
  289POPC   C1A 6591  17.785  22.762   8.784
  289POPC   D2A 6592  17.783  22.581   8.350
  289POPC   C3A 6593  17.633  22.819   7.983
  289POPC   C4A 6594  17.885  23.067   7.711
  289POPC   C1B 6595  17.201  22.780   8.714
  289POPC   C2B 6596  17.272  22.640   8.304
  289POPC   C3B 6597  17.178  22.584   7.864
  289POPC   C4B 6598  17.273  22.872   7.551
  290POPC   NC3 6599  41.769   4.935   9.414
  290POPC   PO4 6600  41.508   5.549   9.244
  290POPC   GL1 6601  41.460   5.210   8.995
  290POPC   GL2 6602  41.379   4.856   9.101
  290POPC   C1A 6603  41.598   5.280   8.550
  290POPC   D2A 6604  41.736   5.336   8.108
  290POPC   C3A 6605  41.397   5.242   7.876
  290POPC   C4A 6606  41.203   4.864   7.823
  290POPC   C1B 6607  41.690   4.831   8.757
  290POPC   C2B 6608  41.549   4.770   8.350
  290POPC   C3B 6609  41.681   4.811   7.976
  290POPC   C4B 6610  41.771   4.954   7.585
  291POPC   NC3 6611  16.883  29.722   9.447
  291POPC   PO4 6612  16.277  30.072   9.508
  291POPC   GL1 6613  16.555  30.051   9.157
  291POPC   GL2 6614  16.491  29.718   9.084
  291POPC   C1A 6615  16.762  30.033   8.738
  291POPC   D2A 6616  16.840  30.280   8.352
  291POPC   C3A 6617  16.780  30.176   7.914
  291POPC   C4A 6618  16.524  30.080   7.586
  291POPC   C1B 6619  16.447  29.630   8.651
  291POPC   C2B 6620  16.594  29.806   8.243
  291POPC   C3B 6621  16.758  29.661   7.815
  291POPC   C4B 6622  16.675  29.523   7.367
  292POPC   NC3 6623  18.824  14.139   9.397
  292POPC   PO4 6624  19.091  14.807   9.581
  292POPC   GL1 6625  19.149  14.531   9.199
  292POPC   GL2 6626  19.308  14.172   9.186
  292POPC   C1A 6627  18.963  14.608   8.784
  292POPC   D2A 6628  19.093  14.504   8.420
  292POPC   C3A 6629  18.953  14.703   8.085
  292POPC   C4A 6630  18.980  14.763   7.650
  292POPC   C1B 6631  19.077  14.114   8.782
  292POPC   C2B 6632  18.818  14.086   8.385
  292POPC   C3B 6633  19.049  14.153   8.019
  292POPC   C4B 6634  19.233  14.286   7.641
  293POPC   NC3 6635  20.422  14.306   9.566
  293POPC   PO4 6636  20.490  15.001   9.560
  293POPC   GL1 6637  20.537  14.691   9.197
  293POPC   GL2 6638  20.670  14.344   9.118
  293POPC   C1A 6639  20.483  14.627   8.731
  293POPC   D2A 6640  20.351  14.526   8.293
  293POPC   C3A 6641  20.717  14.497   8.025
  293POPC   C4A 6642  20.839  14.703   7.666
  293POPC   C1B 6643  20.813  14.173   8.722
  293POPC   C2B 6644  20.719  13.917   8.346
  293POPC   C3B 6645  20.518  14.017   7.944
  293POPC   C4B 6646  20.632  14.197   7.543
  294POPC   NC3 6647   5.680   0.779   9.599
  294POPC   PO4 6648   5.906   1.442   9.504
  294POPC   GL1 6649   5.809   1.291   9.113
  294POPC   GL2 6650   5.864   0.965   9.153
  294POPC   C1A 6651   5.961   1.204   8.692
  294POPC   D2A 6652   6.301   1.442   8.523
  294POPC   C3A 6653   6.312   1.557   8.063
  294POPC   C4A 6654   6.177   1.457   7.646
  294POPC   C1B 6655   5.575   0.883   8.810
  294POPC   C2B 6656   5.689   0.829   8.378
  294POPC   C3B 6657   5.760   1.079   8.000
  294POPC   C4B 6658   5.921   1.003   7.589
  295POPC   NC3 6659  11.096  20.537   9.437
  295POPC   PO4 6660  11.680  20.874   9.356
  295POPC   GL1 6661  11.607  20.532   9.089
  295POPC   GL2 6662  11.311  20.671   8.971
  295POPC   C1A 6663  11.560  20.423   8.627
  295POPC   D2A 6664  11.317  20.731   8.441
  295POPC   C3A 6665  11.433  20.856   8.015
  295POPC   C4A 6666  11.725  20.599   7.836
  295POPC   C1B 6667  11.094  20.295   8.796
  295POPC   C2B 6668  11.080  20.098   8.399
  295POPC   C3B 6669  11.262  20.362   8.083
  295POPC   C4B 6670  11.233  20.511   7.671
  296POPC   NC3 6671  19.562  14.809   9.475
  296POPC   PO4 6672  19.927  14.260   9.539
  296POPC   GL1 6673  20.072  14.431   9.158
  296POPC   GL2 6674  19.717  14.498   9.115
  296POPC   C1A 6675  20.005  14.441   8.701
  296POPC   D2A 6676  19.916  14.182   8.338
  296POPC   C3A 6677  19.920  14.444   7.983
  296POPC   C4A 6678  20.255  14.440   7.768
  296POPC   C1B 6679  19.478  14.671   8.792
  296POPC   C2B 6680  19.600  14.598   8.400
  296POPC   C3B 6681  19.428  14.531   8.044
  296POPC   C4B 6682  19.530  14.700   7.713
  297POPC   NC3 6683  22.923   7.166   9.362
  297POPC   PO4 6684  23.110   7.645   9.739
  297POPC   GL1 6685  22.910   7.661   9.228
  297POPC   GL2 6686  22.634   7.534   9.128
  297POPC   C1A 6687  22.929   7.335   8.760
  297POPC   D2A 6688  23.255   7.162   8.461
  297POPC   C3A 6689  23.271   7.273   8.021
  297POPC   C4A 6690  23.001   7.125   7.669
  297POPC   C1B 6691  22.841   7.821   8.762
  297POPC   C2B 6692  22.957   7.638   8.343
  297POPC   C3B 6693  22.766   7.398   8.032
  297POPC   C4B 6694  22.616   7.516   7.646
  298POPC   NC3 6695   3.242   2.422   9.478
  298POPC   PO4 6696   3.659   2.816   9.734
  298POPC   GL1 6697   3.641   2.723   9.284
  298POPC   GL2 6698   3.879   2.911   9.198
  298POPC   C1A 6699   3.622   2.600   8.826
  298POPC   D2A 6700   3.517   2.278   8.540
  298POPC   C3A 6701   3.395   2.476   8.167
  298POPC   C4A 6702   3.737   2.542   7.879
  298POPC   C1B 6703   3.768   3.066   8.781
  298POPC   C2B 6704   3.524   2.987   8.422
  298POPC   C3B 6705   3.746   3.046   8.035
  298POPC   C4B 6706   3.591   2.987   7.631
  299POPC   NC3 6707  44.711   0.787   9.455
  299POPC   PO4 6708   0.013   0.175   9.185
  299POPC   GL1 6709  44.805   0.511   8.984
  299POPC   GL2 6710  44.483   0.640   9.022
  299POPC   C1A 6711  44.620   0.406   8.582
  299POPC   D2A 6712  44.449   0.544   8.206
  299POPC   C3A 6713  44.815   0.568   7.908
  299POPC   C4A 6714  44.935   0.316   7.548
  299POPC   C1B 6715  44.457   0.914   8.649
  299POPC   C2B 6716  44.455   1.083   8.205
  299POPC   C3B 6717  44.407   0.859   7.797
  299POPC   C4B 6718  44.253   0.766   7.375
  300POPC   NC3 6719  23.474  44.707   9.402
  300POPC   PO4 6720  24.177  44.777   9.379
  300POPC   GL1 6721  23.873  44.545   9.111
  300POPC   GL2 6722  23.745  44.864   9.007
  300POPC   C1A 6723  23.599  44.452   8.735
  300POPC   D2A 6724  23.592  44.214   8.352
  300POPC   C3A 6725  23.677  44.397   7.939
  300POPC   C4A 6726  23.990  44.590   7.723
  300POPC   C1B 6727  23.790  44.915   8.571
  300POPC   C2B 6728  23.539  44.772   8.259
  300POPC   C3B 6729  23.351  44.834   7.872
  300POPC   C4B 6730  23.248  44.743   7.448
  301POPC   NC3 6731  40.465   1.974   9.437
  301POPC   PO4 6732  39.815   1.895   9.394
  301POPC   GL1 6733  40.078   1.994   9.099
  301POPC   GL2 6734  40.254   1.706   9.055
  301POPC   C1A 6735  40.094   2.033   8.686
  301POPC   D2A 6736  40.148   1.938   8.279
  301POPC   C3A 6737  39.871   2.220   8.057
  301POPC   C4A 6738  39.642   2.201   7.678
  301POPC   C1B 6739  40.221   1.513   8.687
  301POPC   C2B 6740  39.926   1.477   8.392
  301POPC   C3B 6741  39.803   1.640   8.005
  301POPC   C4B 6742  40.017   1.862   7.719
  302POPC   NC3 6743  38.281  39.781   9.585
  302POPC   PO4 6744  38.444  40.474   9.559
  302POPC   GL1 6745  38.383  40.205   9.231
  302POPC   GL2 6746  38.657  39.944   9.252
  302POPC   C1A 6747  38.256  40.173   8.811
  302POPC   D2A 6748  38.286  39.948   8.424
  302POPC   C3A 6749  38.603  40.142   8.159
  302POPC   C4A 6750  38.388  40.194   7.772
  302POPC   C1B 6751  38.586  39.753   8.840
  302POPC   C2B 6752  38.746  39.708   8.423
  302POPC   C3B 6753  38.545  39.654   8.010
  302POPC   C4B 6754  38.755  39.847   7.669
  303POPC   NC3 6755  37.218  14.008   9.505
  303POPC   PO4 6756  37.661  14.532   9.587
  303POPC   GL1 6757  37.755  14.682   9.214
  303POPC   GL2 6758  37.396  14.648   9.116
  303POPC   C1A 6759  37.801  14.491   8.819
  303POPC   D2A 6760  37.615  14.627   8.453
  303POPC   C3A 6761  37.874  14.630   8.119
  303POPC   C4A 6762  37.821  14.367   7.739
  303POPC   C1B 6763  37.178  14.697   8.744
  303POPC   C2B 6764  37.174  14.874   8.319
  303POPC   C3B 6765  37.367  14.638   8.003
  303POPC   C4B 6766  37.350  14.567   7.603
  304POPC   NC3 6767  44.898  39.939   9.387
  304POPC   PO4 6768  44.323  40.284   9.544
  304POPC   GL1 6769  44.465  40.163   9.138
  304POPC   GL2 6770  44.228  39.925   9.071
  304POPC   C1A 6771  44.727  40.062   8.752
  304POPC   D2A 6772  44.859  39.751   8.449
  304POPC   C3A 6773  44.853  39.889   8.019
  304POPC   C4A 6774  44.710  39.894   7.612
  304POPC   C1B 6775  44.292  39.795   8.707
  304POPC   C2B 6776  44.390  39.903   8.321
  304POPC   C3B 6777  44.344  39.754   7.933
  304POPC   C4B 6778  44.220  39.996   7.609
  305POPC   NC3 6779  15.937  33.402   9.695
  305POPC   PO4 6780  15.547  33.931   9.810
  305POPC   GL1 6781  15.776  33.800   9.381
  305POPC   GL2 6782  15.878  34.109   9.231
  305POPC   C1A 6783  16.094  33.695   8.970
  305POPC   D2A 6784  16.215  33.892   8.529
  305POPC   C3A 6785  16.085  33.720   8.106
  305POPC   C4A 6786  15.936  33.649   7.672
  305POPC   C1B 6787  15.667  33.925   8.884
  305POPC   C2B 6788  15.712  33.735   8.477
  305POPC   C3B 6789  15.583  33.784   8.064
  305POPC   C4B 6790  15.586  34.027   7.708
  306POPC   NC3 6791   6.903  14.651   9.485
  306POPC   PO4 6792   6.452  14.162   9.413
  306POPC   GL1 6793   6.747  14.280   9.151
  306POPC   GL2 6794   6.574  14.600   9.081
  306POPC   C1A 6795   6.826  14.315   8.740
  306POPC   D2A 6796   6.596  14.432   8.385
  306POPC   C3A 6797   6.631  14.222   7.990
  306POPC   C4A 6798   6.432  14.502   7.717
  306POPC   C1B 6799   6.875  14.831   8.814
  306POPC   C2B 6800   6.995  14.827   8.361
  306POPC   C3B 6801   6.866  14.699   7.963
  306POPC   C4B 6802   6.921  14.449   7.606
  307POPC   NC3 6803   2.995  39.995   9.788
  307POPC   PO4 6804   2.766  40.309   9.266
  307POPC   GL1 6805   2.904  40.116   8.953
  307POPC   GL2 6806   2.962  40.385   8.771
  307POPC   C1A 6807   2.749  39.929   8.594
  307POPC   D2A 6808   2.874  39.748   8.253
  307POPC   C3A 6809   2.804  39.965   7.922
  307POPC   C4A 6810   2.607  39.797   7.605
  307POPC   C1B 6811   2.486  40.355   8.659
  307POPC   C2B 6812   2.415  40.155   8.249
  307POPC   C3B 6813   2.407  40.289   7.810
  307POPC   C4B 6814   2.655  40.277   7.407
  308POPC   NC3 6815   7.983  12.477   9.524
  308POPC   PO4 6816   8.491  13.049   9.524
  308POPC   GL1 6817   8.412  13.109   9.111
  308POPC   GL2 6818   8.130  12.859   9.130
  308POPC   C1A 6819   8.267  13.071   8.681
  308POPC   D2A 6820   8.244  12.830   8.300
  308POPC   C3A 6821   8.419  12.975   7.869
  308POPC   C4A 6822   8.466  12.954   7.360
  308POPC   C1B 6823   7.868  12.777   8.768
  308POPC   C2B 6824   7.710  12.829   8.346
  308POPC   C3B 6825   7.910  12.662   7.965
  308POPC   C4B 6826   8.034  12.677   7.515
  309POPC   NC3 6827  31.229  17.172   9.279
  309POPC   PO4 6828  31.662  16.717   9.537
  309POPC   GL1 6829  31.533  16.795   9.136
  309POPC   GL2 6830  31.782  17.004   9.069
  309POPC   C1A 6831  31.275  16.839   8.727
  309POPC   D2A 6832  31.036  16.589   8.428
  309POPC   C3A 6833  31.302  16.576   8.084
  309POPC   C4A 6834  31.258  16.747   7.717
  309POPC   C1B 6835  31.783  16.696   8.722
  309POPC   C2B 6836  31.670  16.877   8.354
  309POPC   C3B 6837  31.569  17.050   7.987
  309POPC   C4B 6838  31.694  16.929   7.588
  310POPC   NC3 6839  11.729  42.213   9.506
  310POPC   PO4 6840  12.456  42.419   9.591
  310POPC   GL1 6841  12.172  42.353   9.239
  310POPC   GL2 6842  12.001  42.054   9.112
  310POPC   C1A 6843  12.196  42.354   8.786
  310POPC   D2A 6844  12.228  42.422   8.364
  310POPC   C3A 6845  12.536  42.286   8.103
  310POPC   C4A 6846  12.525  42.321   7.681
  310POPC   C1B 6847  11.828  41.950   8.677
  310POPC   C2B 6848  11.843  42.116   8.224
  310POPC   C3B 6849  11.980  42.166   7.772
  310POPC   C4B 6850  11.725  42.011   7.355
  311POPC   NC3 6851  22.199  42.616   9.680
  311POPC   PO4 6852  22.327  43.252   9.756
  311POPC   GL1 6853  22.355  43.246   9.248
  311POPC   GL2 6854  22.404  42.888   9.142
  311POPC   C1A 6855  22.164  43.186   8.809
  311POPC   D2A 6856  21.916  43.056   8.460
  311POPC   C3A 6857  22.196  43.106   8.079
  311POPC   C4A 6858  22.323  43.245   7.647
  311POPC   C1B 6859  22.505  42.590   8.822
  311POPC   C2B 6860  22.362  42.752   8.444
  311POPC   C3B 6861  22.309  42.607   8.060
  311POPC   C4B 6862  22.445  42.744   7.663
  312POPC   NC3 6863  39.587  34.998   9.788
  312POPC   PO4 6864  39.943  35.457   9.625
  312POPC   GL1 6865  39.856  35.413   9.191
  312POPC   GL2 6866  39.686  35.055   9.176
  312POPC   C1A 6867  40.043  35.608   8.781
  312POPC   D2A 6868  39.830  35.608   8.351
  312POPC   C3A 6869  40.045  35.430   7.984
  312POPC   C4A 6870  39.841  35.524   7.564
  312POPC   C1B 6871  39.697  35.228   8.745
  312POPC   C2B 6872  39.797  35.087   8.339
  312POPC   C3B 6873  39.667  35.103   7.893
  312POPC   C4B 6874  40.042  35.064   7.611
  313POPC   NC3 6875  28.902  43.392   9.450
  313POPC   PO4 6876  29.292  42.957   9.734
  313POPC   GL1 6877  29.169  42.958   9.219
  313POPC   GL2 6878  29.206  43.277   9.078
  313POPC   C1A 6879  29.140  43.020   8.684
  313POPC   D2A 6880  29.483  43.032   8.318
  313POPC   C3A 6881  29.270  42.913   7.957
  313POPC   C4A 6882  28.847  42.875   8.016
  313POPC   C1B 6883  29.269  43.570   8.708
  313POPC   C2B 6884  29.297  43.727   8.288
  313POPC   C3B 6885  29.226  43.408   8.035
  313POPC   C4B 6886  29.284  43.309   7.626
  314POPC   NC3 6887  11.811  37.838   9.580
  314POPC   PO4 6888  12.383  37.414   9.464
  314POPC   GL1 6889  12.226  37.544   9.088
  314POPC   GL2 6890  11.887  37.664   9.119
  314POPC   C1A 6891  12.222  37.513   8.690
  314POPC   D2A 6892  11.984  37.658   8.377
  314POPC   C3A 6893  12.211  37.575   8.028
  314POPC   C4A 6894  12.257  37.764   7.624
  314POPC   C1B 6895  11.723  37.432   8.779
  314POPC   C2B 6896  11.561  37.342   8.380
  314POPC   C3B 6897  11.675  37.523   7.981
  314POPC   C4B 6898  11.762  37.678   7.563
  315POPC   NC3 6899  29.744  20.054   9.460
  315POPC   PO4 6900  30.141  19.554   9.573
  315POPC   GL1 6901  29.983  19.516   9.177
  315POPC   GL2 6902  30.313  19.414   9.069
  315POPC   C1A 6903  29.874  19.636   8.748
  315POPC   D2A 6904  29.646  19.599   8.344
  315POPC   C3A 6905  29.749  19.841   7.959
  315POPC   C4A 6906  29.666  19.619   7.575
  315POPC   C1B 6907  30.323  19.825   8.901
  315POPC   C2B 6908  30.195  19.954   8.480
  315POPC   C3B 6909  30.228  19.991   8.049
  315POPC   C4B 6910  30.277  19.647   7.713
  316POPC   NC3 6911  10.189   1.681   9.448
  316POPC   PO4 6912  10.728   2.062   9.548
  316POPC   GL1 6913  10.499   2.006   9.174
  316POPC   GL2 6914  10.359   2.313   8.997
  316POPC   C1A 6915  10.387   1.810   8.794
  316POPC   D2A 6916  10.209   2.068   8.487
  316POPC   C3A 6917  10.520   2.023   8.178
  316POPC   C4A 6918  10.520   1.913   7.754
  316POPC   C1B 6919  10.707   2.187   8.732
  316POPC   C2B 6920  10.979   2.083   8.430
  316POPC   C3B 6921  11.029   2.311   8.072
  316POPC   C4B 6922  10.944   2.195   7.670
  317POPC   NC3 6923  42.409  31.315   9.495
  317POPC   PO4 6924  42.043  31.913   9.491
  317POPC   GL1 6925  42.213  31.827   9.080
  317POPC   GL2 6926  42.481  31.623   9.102
  317POPC   C1A 6927  42.204  31.657   8.643
  317POPC   D2A 6928  42.026  31.274   8.402
  317POPC   C3A 6929  42.023  31.262   7.931
  317POPC   C4A 6930  42.230  31.345   7.505
  317POPC   C1B 6931  42.644  31.407   8.774
  317POPC   C2B 6932  42.627  31.531   8.358
  317POPC   C3B 6933  42.502  31.469   7.948
  317POPC   C4B 6934  42.829  31.334   7.687
  318POPC   NC3 6935  44.837  32.401   9.993
  318POPC   PO4 6936  44.645  32.183   9.392
  318POPC   GL1 6937  44.586  32.246   9.001
  318POPC   GL2 6938  44.705  32.563   8.954
  318POPC   C1A 6939  44.335  32.122   8.678
  318POPC   D2A 6940  44.261  32.041   8.263
  318POPC   C3A 6941  44.571  31.881   7.983
  318POPC   C4A 6942  44.790  32.124   7.654
  318POPC   C1B 6943  44.730  32.448   8.548
  318POPC   C2B 6944  44.865  32.213   8.221
  318POPC   C3B 6945  44.895  32.542   7.952
  318POPC   C4B 6946  44.546  32.751   7.813
  319POPC   NC3 6947  43.588  38.867   9.583
  319POPC   PO4 6948  43.697  39.516   9.576
  319POPC   GL1 6949  43.944  39.460   9.196
  319POPC   GL2 6950  43.741  39.159   9.097
  319POPC   C1A 6951  44.104  39.308   8.776
  319POPC   D2A 6952  44.255  39.124   8.372
  319POPC   C3A 6953  44.139  39.293   7.958
  319POPC   C4A 6954  44.022  39.509   7.553
  319POPC   C1B 6955  43.584  39.278   8.648
  319POPC   C2B 6956  43.609  39.249   8.176
  319POPC   C3B 6957  43.712  39.117   7.765
  319POPC   C4B 6958  43.544  38.807   7.439
  320POPC   NC3 6959   1.711  26.848   9.628
  320POPC   PO4 6960   2.279  26.583   9.665
  320POPC   GL1 6961   2.216  26.740   9.225
  320POPC   GL2 6962   1.936  26.995   9.197
  320POPC   C1A 6963   1.963  26.658   8.841
  320POPC   D2A 6964   1.849  26.844   8.450
  320POPC   C3A 6965   1.955  26.680   8.059
  320POPC   C4A 6966   1.664  26.915   7.824
  320POPC   C1B 6967   2.032  27.170   8.792
  320POPC   C2B 6968   2.249  27.200   8.370
  320POPC   C3B 6969   2.159  27.111   7.892
  320POPC   C4B 6970   1.898  27.296   7.562
  321POPC   NC3 6971  29.853  34.478   9.574
  321POPC   PO4 6972  30.278  34.813   9.437
  321POPC   GL1 6973  30.127  34.525   9.092
  321POPC   GL2 6974  29.768  34.407   9.089
  321POPC   C1A 6975  29.945  34.654   8.682
  321POPC   D2A 6976  29.915  34.942   8.325
  321POPC   C3A 6977  29.958  34.704   7.989
  321POPC   C4A 6978  29.982  34.533   7.635
  321POPC   C1B 6979  29.645  34.222   8.714
  321POPC   C2B 6980  29.638  34.429   8.291
  321POPC   C3B 6981  29.594  34.299   7.856
  321POPC   C4B 6982  29.584  34.368   7.378
  322POPC   NC3 6983  43.620   3.005   9.279
  322POPC   PO4 6984  43.929   2.400   9.342
  322POPC   GL1 6985  44.022   2.555   8.974
  322POPC   GL2 6986  44.133   2.860   9.097
  322POPC   C1A 6987  44.185   2.588   8.585
  322POPC   D2A 6988  43.824   2.714   8.354
  322POPC   C3A 6989  43.848   2.451   8.034
  322POPC   C4A 6990  44.186   2.378   7.785
  322POPC   C1B 6991  44.031   3.059   8.694
  322POPC   C2B 6992  44.239   3.013   8.273
  322POPC   C3B 6993  44.025   2.900   7.905
  322POPC   C4B 6994  43.974   3.013   7.510
  323POPC   NC3 6995   6.904  13.873   9.449
  323POPC   PO4 6996   6.414  13.497   9.556
  323POPC   GL1 6997   6.509  13.686   9.156
  323POPC   GL2 6998   6.227  13.570   8.983
  323POPC   C1A 6999   6.786  13.750   8.806
  323POPC   D2A 7000   6.797  13.935   8.401
  323POPC   C3A 7001   6.931  13.658   8.088
  323POPC   C4A 7002   6.799  13.415   7.747
  323POPC   C1B 7003   6.405  13.366   8.620
  323POPC   C2B 7004   6.461  13.435   8.159
  323POPC   C3B 7005   6.236  13.415   7.755
  323POPC   C4B 7006   6.163  13.314   7.320
  324POPC   NC3 7007  11.774   8.503   9.821
  324POPC   PO4 7008  11.973   7.954   9.475
  324POPC   GL1 7009  11.979   8.001   9.072
  324POPC   GL2 7010  12.168   8.286   9.039
  324POPC   C1A 7011  12.155   7.937   8.674
  324POPC   D2A 7012  12.392   8.276   8.495
  324POPC   C3A 7013  12.288   8.241   8.099
  324POPC   C4A 7014  11.962   8.279   7.803
  324POPC   C1B 7015  11.884   8.353   8.692
  324POPC   C2B 7016  11.865   8.523   8.331
  324POPC   C3B 7017  11.633   8.642   8.020
  324POPC   C4B 7018  11.825   8.735   7.656
  325POPC   NC3 7019   2.271   9.044   9.563
  325POPC   PO4 7020   1.585   8.824   9.555
  325POPC   GL1 7021   1.857   8.960   9.249
  325POPC   GL2 7022   1.880   9.314   9.200
  325POPC   C1A 7023   1.915   8.998   8.824
  325POPC   D2A 7024   2.040   9.000   8.426
  325POPC   C3A 7025   1.808   8.811   8.135
  325POPC   C4A 7026   1.983   8.901   7.750
  325POPC   C1B 7027   2.142   9.431   8.781
  325POPC   C2B 7028   1.935   9.516   8.414
  325POPC   C3B 7029   1.943   9.327   8.036
  325POPC   C4B 7030   2.159   9.368   7.641
  326POPC   NC3 7031  22.541  41.102   9.456
  326POPC   PO4 7032  22.489  40.420   9.448
  326POPC   GL1 7033  22.265  40.759   9.159
  326POPC   GL2 7034  21.906  40.870   9.239
  326POPC   C1A 7035  22.088  40.724   8.708
  326POPC   D2A 7036  22.022  40.556   8.271
  326POPC   C3A 7037  22.083  40.731   7.819
  326POPC   C4A 7038  21.813  40.685   7.404
  326POPC   C1B 7039  21.939  41.165   8.887
  326POPC   C2B 7040  22.032  41.200   8.456
  326POPC   C3B 7041  21.851  41.126   8.071
  326POPC   C4B 7042  21.794  41.339   7.718
  327POPC   NC3 7043  38.775  43.346   9.225
  327POPC   PO4 7044  39.270  42.965   9.530
  327POPC   GL1 7045  39.276  43.158   9.150
  327POPC   GL2 7046  39.418  42.833   9.039
  327POPC   C1A 7047  39.437  43.272   8.753
  327POPC   D2A 7048  39.427  43.091   8.371
  327POPC   C3A 7049  39.422  43.318   8.007
  327POPC   C4A 7050  39.603  42.957   7.795
  327POPC   C1B 7051  39.079  42.903   8.734
  327POPC   C2B 7052  38.918  42.992   8.345
  327POPC   C3B 7053  39.024  42.990   7.922
  327POPC   C4B 7054  38.937  43.409   7.824
  328POPC   NC3 7055  38.588  28.762   9.467
  328POPC   PO4 7056  38.910  28.229   9.306
  328POPC   GL1 7057  38.724  28.507   9.039
  328POPC   GL2 7058  38.384  28.463   9.097
  328POPC   C1A 7059  38.648  28.458   8.622
  328POPC   D2A 7060  38.382  28.349   8.304
  328POPC   C3A 7061  38.589  28.206   8.039
  328POPC   C4A 7062  38.537  28.303   7.672
  328POPC   C1B 7063  38.136  28.501   8.735
  328POPC   C2B 7064  37.898  28.517   8.365
  328POPC   C3B 7065  38.042  28.549   7.939
  328POPC   C4B 7066  38.252  28.744   7.616
  329POPC   NC3 7067  21.892   4.245   9.468
  329POPC   PO4 7068  21.316   4.358   9.617
  329POPC   GL1 7069  21.419   4.250   9.221
  329POPC   GL2 7070  21.634   4.515   9.118
  329POPC   C1A 7071  21.270   4.331   8.806
  329POPC   D2A 7072  21.501   4.469   8.453
  329POPC   C3A 7073  21.244   4.616   8.101
  329POPC   C4A 7074  21.110   4.356   7.751
  329POPC   C1B 7075  21.754   4.136   8.831
  329POPC   C2B 7076  21.714   3.981   8.403
  329POPC   C3B 7077  21.565   4.188   8.015
  329POPC   C4B 7078  21.544   4.116   7.576
  330POPC   NC3 7079  35.386  30.184   9.554
  330POPC   PO4 7080  34.824  30.181   9.296
  330POPC   GL1 7081  35.177  29.964   9.106
  330POPC   GL2 7082  35.438  29.738   9.230
  330POPC   C1A 7083  35.427  30.014   8.749
  330POPC   D2A 7084  35.425  30.175   8.365
  330POPC   C3A 7085  35.277  29.929   8.058
  330POPC   C4A 7086  35.436  30.106   7.714
  330POPC   C1B 7087  35.709  29.616   8.872
  330POPC   C2B 7088  35.652  29.500   8.439
  330POPC   C3B 7089  35.711  29.669   8.026
  330POPC   C4B 7090  35.528  29.631   7.598
  331POPC   NC3 7091  26.473   6.010   9.488
  331POPC   PO4 7092  25.773   5.756   9.416
  331POPC   GL1 7093  26.044   5.981   9.112
  331POPC   GL2 7094  26.327   5.792   9.057
  331POPC   C1A 7095  26.118   5.989   8.643
  331POPC   D2A 7096  26.022   6.235   8.279
  331POPC   C3A 7097  26.223   6.184   7.872
  331POPC   C4A 7098  26.105   5.994   7.445
  331POPC   C1B 7099  26.409   5.477   8.776
  331POPC   C2B 7100  26.349   5.579   8.404
  331POPC   C3B 7101  26.150   5.702   8.098
  331POPC   C4B 7102  26.390   5.727   7.787
  332POPC   NC3 7103   8.526   3.215   9.465
  332POPC   PO4 7104   8.098   3.688   9.554
  332POPC   GL1 7105   7.911   3.629   9.139
  332POPC   GL2 7106   8.216   3.450   9.100
  332POPC   C1A 7107   8.037   3.720   8.707
  332POPC   D2A 7108   8.251   3.655   8.309
  332POPC   C3A 7109   7.966   3.770   8.010
  332POPC   C4A 7110   7.865   3.600   7.626
  332POPC   C1B 7111   7.936   3.225   8.801
  332POPC   C2B 7112   7.854   3.330   8.340
  332POPC   C3B 7113   8.121   3.281   7.964
  332POPC   C4B 7114   8.549   3.370   7.937
  333POPC   NC3 7115  30.619  42.989   9.574
  333POPC   PO4 7116  31.074  43.501   9.560
  333POPC   GL1 7117  30.969  43.157   9.213
  333POPC   GL2 7118  30.797  42.815   9.157
  333POPC   C1A 7119  30.863  43.136   8.746
  333POPC   D2A 7120  30.981  42.946   8.334
  333POPC   C3A 7121  30.916  43.180   7.919
  333POPC   C4A 7122  31.176  43.295   7.553
  333POPC   C1B 7123  30.560  42.731   8.802
  333POPC   C2B 7124  30.458  42.818   8.394
  333POPC   C3B 7125  30.634  42.767   8.000
  333POPC   C4B 7126  30.574  42.751   7.577
  334POPC   NC3 7127  10.807  38.197   9.813
  334POPC   PO4 7128  10.416  38.713   9.732
  334POPC   GL1 7129  10.503  38.546   9.301
  334POPC   GL2 7130  10.563  38.190   9.326
  334POPC   C1A 7131  10.627  38.675   8.873
  334POPC   D2A 7132  10.770  38.823   8.461
  334POPC   C3A 7133  10.796  38.505   8.135
  334POPC   C4A 7134  10.779  38.640   7.727
  334POPC   C1B 7135  10.676  38.125   8.899
  334POPC   C2B 7136  10.591  37.988   8.462
  334POPC   C3B 7137  10.396  38.153   8.102
  334POPC   C4B 7138  10.419  38.289   7.701
  335POPC   NC3 7139  12.528  36.908   9.484
  335POPC   PO4 7140  13.169  36.802   9.556
  335POPC   GL1 7141  12.957  36.851   9.204
  335POPC   GL2 7142  12.861  37.173   9.178
  335POPC   C1A 7143  12.771  36.774   8.839
  335POPC   D2A 7144  12.893  36.889   8.466
  335POPC   C3A 7145  12.821  36.807   8.080
  335POPC   C4A 7146  12.931  36.738   7.664
  335POPC   C1B 7147  12.677  37.294   8.784
  335POPC   C2B 7148  12.515  37.223   8.362
  335POPC   C3B 7149  12.681  37.285   7.955
  335POPC   C4B 7150  12.694  37.193   7.511
  336POPC   NC3 7151  36.639  37.070   9.634
  336POPC   PO4 7152  36.163  37.311   9.381
  336POPC   GL1 7153  36.241  36.970   9.123
  336POPC   GL2 7154  36.551  36.876   9.161
  336POPC   C1A 7155  36.266  36.893   8.696
  336POPC   D2A 7156  36.131  37.079   8.318
  336POPC   C3A 7157  36.148  36.892   7.948
  336POPC   C4A 7158  36.281  37.149   7.629
  336POPC   C1B 7159  36.748  36.746   8.797
  336POPC   C2B 7160  36.638  36.626   8.378
  336POPC   C3B 7161  36.501  36.473   7.971
  336POPC   C4B 7162  36.551  36.733   7.614
  337POPC   NC3 7163  43.737   1.006   9.510
  337POPC   PO4 7164  43.978   1.640   9.521
  337POPC   GL1 7165  43.945   1.443   9.131
  337POPC   GL2 7166  43.601   1.469   9.137
  337POPC   C1A 7167  43.985   1.071   8.847
  337POPC   D2A 7168  43.985   0.908   8.417
  337POPC   C3A 7169  43.889   1.079   8.023
  337POPC   C4A 7170  43.847   0.871   7.640
  337POPC   C1B 7171  43.497   1.189   8.786
  337POPC   C2B 7172  43.546   1.263   8.367
  337POPC   C3B 7173  43.359   1.120   7.989
  337POPC   C4B 7174  43.488   1.239   7.610
  338POPC   NC3 7175  16.571   1.668   9.635
  338POPC   PO4 7176  17.077   2.143   9.463
  338POPC   GL1 7177  16.861   2.087   9.102
  338POPC   GL2 7178  16.842   1.744   9.155
  338POPC   C1A 7179  16.939   1.874   8.686
  338POPC   D2A 7180  16.781   1.609   8.379
  338POPC   C3A 7181  16.902   1.809   8.053
  338POPC   C4A 7182  16.667   2.133   7.870
  338POPC   C1B 7183  16.482   1.635   8.839
  338POPC   C2B 7184  16.247   1.623   8.460
  338POPC   C3B 7185  16.370   1.722   8.047
  338POPC   C4B 7186  16.255   1.896   7.664
  339POPC   NC3 7187  31.500   6.524   9.584
  339POPC   PO4 7188  31.374   7.122   9.397
  339POPC   GL1 7189  31.575   6.784   9.133
  339POPC   GL2 7190  31.435   6.430   9.102
  339POPC   C1A 7191  31.786   6.814   8.713
  339POPC   D2A 7192  31.596   6.716   8.275
  339POPC   C3A 7193  31.824   6.755   7.892
  339POPC   C4A 7194  31.837   6.966   7.473
  339POPC   C1B 7195  31.369   6.528   8.688
  339POPC   C2B 7196  31.243   6.338   8.303
  339POPC   C3B 7197  31.259   6.489   7.884
  339POPC   C4B 7198  31.459   6.640   7.537
  340POPC   NC3 7199  18.641  40.586   9.691
  340POPC   PO4 7200  18.014  40.739   9.682
  340POPC   GL1 7201  18.282  40.708   9.296
  340POPC   GL2 7202  18.637  40.614   9.166
  340POPC   C1A 7203  18.283  40.991   8.950
  340POPC   D2A 7204  18.535  40.984   8.589
  340POPC   C3A 7205  18.427  40.976   8.167
  340POPC   C4A 7206  18.584  41.092   7.770
  340POPC   C1B 7207  18.781  40.539   8.717
  340POPC   C2B 7208  18.552  40.504   8.309
  340POPC   C3B 7209  18.586  40.587   7.833
  340POPC   C4B 7210  18.716  40.760   7.399
  341POPC   NC3 7211   7.976   2.380   9.493
  341POPC   PO4 7212   8.287   1.827   9.381
  341POPC   GL1 7213   8.186   1.953   9.024
  341POPC   GL2 7214   8.220   2.325   9.026
  341POPC   C1A 7215   8.324   1.976   8.607
  341POPC   D2A 7216   8.298   2.132   8.177
  341POPC   C3A 7217   8.267   1.841   7.854
  341POPC   C4A 7218   8.513   1.961   7.514
  341POPC   C1B 7219   7.844   2.235   8.793
  341POPC   C2B 7220   7.710   2.077   8.405
  341POPC   C3B 7221   7.770   2.272   8.018
  341POPC   C4B 7222   8.073   2.300   7.702
  342POPC   NC3 7223  34.776   4.240   9.454
  342POPC   PO4 7224  34.142   4.460   9.509
  342POPC   GL1 7225  34.366   4.391   9.167
  342POPC   GL2 7226  34.340   4.031   9.239
  342POPC   C1A 7227  34.684   4.589   8.885
  342POPC   D2A 7228  34.716   4.720   8.454
  342POPC   C3A 7229  35.017   4.558   8.241
  342POPC   C4A 7230  34.837   4.284   7.974
  342POPC   C1B 7231  34.552   4.052   8.835
  342POPC   C2B 7232  34.554   3.949   8.398
  342POPC   C3B 7233  34.291   4.142   8.130
  342POPC   C4B 7234  34.306   4.467   7.871
  343POPC   NC3 7235  13.996  33.244   9.297
  343POPC   PO4 7236  14.532  32.816   9.570
  343POPC   GL1 7237  14.411  32.960   9.139
  343POPC   GL2 7238  14.060  32.811   9.065
  343POPC   C1A 7239  14.551  33.247   8.786
  343POPC   D2A 7240  14.634  33.473   8.371
  343POPC   C3A 7241  14.385  33.448   7.954
  343POPC   C4A 7242  14.054  33.208   7.724
  343POPC   C1B 7243  14.100  33.057   8.672
  343POPC   C2B 7244  14.269  33.073   8.258
  343POPC   C3B 7245  14.407  32.810   7.914
  343POPC   C4B 7246  14.184  32.755   7.514
  344POPC   NC3 7247  13.363  29.159   9.573
  344POPC   PO4 7248  13.952  29.520   9.480
  344POPC   GL1 7249  13.773  29.206   9.188
  344POPC   GL2 7250  13.438  29.246   9.078
  344POPC   C1A 7251  13.860  29.060   8.756
  344POPC   D2A 7252  13.612  28.956   8.393
  344POPC   C3A 7253  13.692  28.894   7.959
  344POPC   C4A 7254  13.548  28.925   7.481
  344POPC   C1B 7255  13.261  29.004   8.762
  344POPC   C2B 7256  13.120  29.139   8.384
  344POPC   C3B 7257  13.367  29.295   8.067
  344POPC   C4B 7258  13.309  29.353   7.677
  345POPC   NC3 7259  14.432  10.921   9.887
  345POPC   PO4 7260  14.111  11.406   9.486
  345POPC   GL1 7261  13.746  11.390   9.167
  345POPC   GL2 7262  13.586  11.053   9.086
  345POPC   C1A 7263  13.486  11.474   8.775
  345POPC   D2A 7264  13.491  11.736   8.392
  345POPC   C3A 7265  13.527  11.461   8.043
  345POPC   C4A 7266  13.704  11.140   7.807
  345POPC   C1B 7267  13.363  10.953   8.673
  345POPC   C2B 7268  13.375  10.936   8.202
  345POPC   C3B 7269  13.209  11.112   7.827
  345POPC   C4B 7270  13.129  11.023   7.416
  346POPC   NC3 7271  32.647  16.129   9.405
  346POPC   PO4 7272  32.027  15.788   9.480
  346POPC   GL1 7273  32.139  16.048   9.110
  346POPC   GL2 7274  32.436  16.181   8.944
  346POPC   C1A 7275  31.934  16.169   8.731
  346POPC   D2A 7276  31.913  16.003   8.307
  346POPC   C3A 7277  32.301  16.055   8.105
  346POPC   C4A 7278  32.209  16.052   7.667
  346POPC   C1B 7279  32.654  15.796   8.774
  346POPC   C2B 7280  32.653  15.570   8.375
  346POPC   C3B 7281  32.844  15.709   7.983
  346POPC   C4B 7282  32.728  16.151   7.811
  347POPC   NC3 7283  23.547  26.195   9.722
  347POPC   PO4 7284  24.130  26.146   9.472
  347POPC   GL1 7285  23.776  26.042   9.209
  347POPC   GL2 7286  23.476  26.225   9.196
  347POPC   C1A 7287  23.603  25.901   8.804
  347POPC   D2A 7288  23.639  26.084   8.391
  347POPC   C3A 7289  23.636  25.885   7.976
  347POPC   C4A 7290  23.690  25.751   7.555
  347POPC   C1B 7291  23.391  26.378   8.744
  347POPC   C2B 7292  23.332  26.501   8.302
  347POPC   C3B 7293  23.671  26.400   7.978
  347POPC   C4B 7294  23.610  26.248   7.547
  348POPC   NC3 7295  12.448   1.316   9.352
  348POPC   PO4 7296  12.041   0.808   9.416
  348POPC   GL1 7297  12.054   1.038   9.053
  348POPC   GL2 7298  12.373   0.990   8.929
  348POPC   C1A 7299  11.757   1.171   8.725
  348POPC   D2A 7300  11.805   1.308   8.305
  348POPC   C3A 7301  11.836   1.015   7.994
  348POPC   C4A 7302  11.798   1.147   7.564
  348POPC   C1B 7303  12.208   1.398   8.712
  348POPC   C2B 7304  12.296   1.533   8.275
  348POPC   C3B 7305  12.111   1.434   7.877
  348POPC   C4B 7306  12.265   1.332   7.457
  349POPC   NC3 7307  15.855  31.754   9.856
  349POPC   PO4 7308  16.052  31.467   9.252
  349POPC   GL1 7309  15.905  31.603   8.874
  349POPC   GL2 7310  15.561  31.796   8.882
  349POPC   C1A 7311  16.012  31.250   8.605
  349POPC   D2A 7312  16.068  30.925   8.309
  349POPC   C3A 7313  16.062  31.092   7.905
  349POPC   C4A 7314  15.781  31.359   7.654
  349POPC   C1B 7315  15.766  32.011   8.578
  349POPC   C2B 7316  15.996  31.718   8.353
  349POPC   C3B 7317  16.068  31.677   7.938
  349POPC   C4B 7318  15.835  31.879   7.599
  350POPC   NC3 7319  18.034  30.865   9.596
  350POPC   PO4 7320  18.600  30.542   9.475
  350POPC   GL1 7321  18.258  30.559   9.201
  350POPC   GL2 7322  18.226  30.909   9.108
  350POPC   C1A 7323  18.221  30.478   8.754
  350POPC   D2A 7324  18.025  30.617   8.359
  350POPC   C3A 7325  18.293  30.572   8.028
  350POPC   C4A 7326  18.463  30.227   7.835
  350POPC   C1B 7327  18.100  31.030   8.674
  350POPC   C2B 7328  18.298  31.070   8.253
  350POPC   C3B 7329  18.258  31.047   7.803
  350POPC   C4B 7330  18.043  31.039   7.404
  351POPC   NC3 7331  12.507  26.966   9.303
  351POPC   PO4 7332  12.903  26.444   9.382
  351POPC   GL1 7333  13.076  26.644   9.028
  351POPC   GL2 7334  12.761  26.704   8.928
  351POPC   C1A 7335  13.087  27.058   8.799
  351POPC   D2A 7336  12.807  27.081   8.457
  351POPC   C3A 7337  12.888  26.926   8.045
  351POPC   C4A 7338  12.681  27.027   7.641
  351POPC   C1B 7339  12.609  26.290   8.834
  351POPC   C2B 7340  12.713  26.326   8.458
  351POPC   C3B 7341  12.914  26.396   8.086
  351POPC   C4B 7342  12.936  26.554   7.699
  352POPC   NC3 7343  43.975  20.813   9.504
  352POPC   PO4 7344  43.465  20.335   9.594
  352POPC   GL1 7345  43.630  20.478   9.194
  352POPC   GL2 7346  43.671  20.841   9.109
  352POPC   C1A 7347  43.803  20.415   8.769
  352POPC   D2A 7348  43.823  20.196   8.349
  352POPC   C3A 7349  43.988  20.522   8.131
  352POPC   C4A 7350  44.105  20.696   7.769
  352POPC   C1B 7351  44.064  20.878   8.872
  352POPC   C2B 7352  44.221  20.816   8.490
  352POPC   C3B 7353  44.125  21.059   8.149
  352POPC   C4B 7354  44.304  21.224   7.772
  353POPC   NC3 7355  26.669  25.072   9.533
  353POPC   PO4 7356  26.784  25.621   9.785
  353POPC   GL1 7357  26.860  25.510   9.340
  353POPC   GL2 7358  26.512  25.450   9.205
  353POPC   C1A 7359  26.923  25.429   8.873
  353POPC   D2A 7360  26.683  25.566   8.505
  353POPC   C3A 7361  26.716  25.364   8.100
  353POPC   C4A 7362  26.670  25.368   7.661
  353POPC   C1B 7363  26.456  25.221   8.846
  353POPC   C2B 7364  26.609  25.043   8.481
  353POPC   C3B 7365  26.684  24.799   8.126
  353POPC   C4B 7366  26.524  24.765   7.724
  354POPC   NC3 7367  16.799  33.907   9.669
  354POPC   PO4 7368  16.373  33.464   9.548
  354POPC   GL1 7369  16.710  33.594   9.213
  354POPC   GL2 7370  16.868  33.952   9.173
  354POPC   C1A 7371  16.683  33.717   8.761
  354POPC   D2A 7372  16.841  34.010   8.445
  354POPC   C3A 7373  16.576  33.884   8.125
  354POPC   C4A 7374  16.418  33.833   7.717
  354POPC   C1B 7375  17.148  33.926   8.847
  354POPC   C2B 7376  17.278  33.684   8.502
  354POPC   C3B 7377  16.999  33.576   8.177
  354POPC   C4B 7378  16.916  33.675   7.762
  355POPC   NC3 7379  39.918  13.574   9.552
  355POPC   PO4 7380  39.533  14.011   9.446
  355POPC   GL1 7381  39.973  13.929   9.178
  355POPC   GL2 7382  40.153  13.597   9.115
  355POPC   C1A 7383  40.130  13.863   8.703
  355POPC   D2A 7384  40.075  13.588   8.336
  355POPC   C3A 7385  40.055  13.655   7.894
  355POPC   C4A 7386  39.724  13.730   7.584
  355POPC   C1B 7387  40.460  13.472   8.838
  355POPC   C2B 7388  40.437  13.251   8.457
  355POPC   C3B 7389  40.326  13.226   8.024
  355POPC   C4B 7390  40.332  13.347   7.601
  356POPC   NC3 7391  20.994  41.573   9.508
  356POPC   PO4 7392  20.491  41.161   9.456
  356POPC   GL1 7393  20.611  41.515   9.144
  356POPC   GL2 7394  20.907  41.487   9.027
  356POPC   C1A 7395  20.542  41.400   8.687
  356POPC   D2A 7396  20.594  41.132   8.365
  356POPC   C3A 7397  20.403  41.325   8.042
  356POPC   C4A 7398  20.419  41.243   7.647
  356POPC   C1B 7399  21.015  41.234   8.685
  356POPC   C2B 7400  21.079  41.373   8.281
  356POPC   C3B 7401  20.868  41.471   7.884
  356POPC   C4B 7402  20.924  41.479   7.388
  357POPC   NC3 7403  35.984  23.117   9.461
  357POPC   PO4 7404  36.632  22.898   9.476
  357POPC   GL1 7405  36.279  22.888   9.136
  357POPC   GL2 7406  36.306  23.268   9.099
  357POPC   C1A 7407  36.033  22.804   8.719
  357POPC   D2A 7408  35.782  22.757   8.307
  357POPC   C3A 7409  36.012  22.625   7.955
  357POPC   C4A 7410  36.340  22.820   7.800
  357POPC   C1B 7411  36.137  23.359   8.688
  357POPC   C2B 7412  36.178  23.508   8.270
  357POPC   C3B 7413  36.035  23.219   7.976
  357POPC   C4B 7414  35.997  23.153   7.568
  358POPC   NC3 7415  18.297  13.264   9.605
  358POPC   PO4 7416  18.136  13.866   9.423
  358POPC   GL1 7417  18.279  13.642   9.104
  358POPC   GL2 7418  18.561  13.435   9.161
  358POPC   C1A 7419  18.243  13.716   8.698
  358POPC   D2A 7420  18.134  13.822   8.303
  358POPC   C3A 7421  18.383  14.043   8.029
  358POPC   C4A 7422  18.273  14.008   7.581
  358POPC   C1B 7423  18.527  13.289   8.711
  358POPC   C2B 7424  18.539  13.056   8.352
  358POPC   C3B 7425  18.531  13.254   7.952
  358POPC   C4B 7426  18.233  13.572   7.883
  359POPC   NC3 7427   3.915  34.808   9.328
  359POPC   PO4 7428   4.483  34.422   9.466
  359POPC   GL1 7429   4.523  34.570   9.085
  359POPC   GL2 7430   4.449  34.939   9.123
  359POPC   C1A 7431   4.397  34.355   8.708
  359POPC   D2A 7432   4.200  34.230   8.324
  359POPC   C3A 7433   4.280  34.493   7.988
  359POPC   C4A 7434   4.573  34.513   7.630
  359POPC   C1B 7435   4.383  34.855   8.682
  359POPC   C2B 7436   4.245  34.927   8.299
  359POPC   C3B 7437   4.015  34.988   7.953
  359POPC   C4B 7438   4.093  34.757   7.603
  360POPC   NC3 7439   6.528  32.824   9.318
  360POPC   PO4 7440   6.926  33.405   9.498
  360POPC   GL1 7441   6.762  33.255   9.115
  360POPC   GL2 7442   6.943  32.960   9.034
  360POPC   C1A 7443   6.532  33.295   8.663
  360POPC   D2A 7444   6.221  33.350   8.334
  360POPC   C3A 7445   6.336  33.106   8.032
  360POPC   C4A 7446   6.624  32.953   7.767
  360POPC   C1B 7447   7.038  33.245   8.704
  360POPC   C2B 7448   6.899  33.172   8.307
  360POPC   C3B 7449   6.977  32.771   8.163
  360POPC   C4B 7450   6.918  32.484   7.852
  361POPC   NC3 7451  23.384  36.536   9.732
  361POPC   PO4 7452  23.044  36.022   9.432
  361POPC   GL1 7453  22.771  36.074   9.068
  361POPC   GL2 7454  22.964  36.361   9.010
  361POPC   C1A 7455  22.635  36.230   8.653
  361POPC   D2A 7456  22.609  36.273   8.238
  361POPC   C3A 7457  22.716  35.879   8.026
  361POPC   C4A 7458  22.605  35.791   7.626
  361POPC   C1B 7459  23.169  36.080   8.732
  361POPC   C2B 7460  23.082  36.051   8.326
  361POPC   C3B 7461  23.096  36.227   7.936
  361POPC   C4B 7462  23.428  36.047   7.690
  362POPC   NC3 7463  11.759  10.752   9.338
  362POPC   PO4 7464  12.275  10.355   9.442
  362POPC   GL1 7465  12.194  10.590   9.076
  362POPC   GL2 7466  11.903  10.444   8.971
  362POPC   C1A 7467  12.281  10.532   8.644
  362POPC   D2A 7468  12.049  10.413   8.293
  362POPC   C3A 7469  12.081  10.657   7.901
  362POPC   C4A 7470  12.434  10.744   7.576
  362POPC   C1B 7471  11.767  10.113   8.698
  362POPC   C2B 7472  11.589  10.084   8.309
  362POPC   C3B 7473  11.607  10.438   8.051
  362POPC   C4B 7474  11.626  10.506   7.630
  363POPC   NC3 7475  36.523  40.089   9.518
  363POPC   PO4 7476  37.041  39.678   9.445
  363POPC   GL1 7477  36.840  39.928   9.134
  363POPC   GL2 7478  36.883  40.297   9.199
  363POPC   C1A 7479  36.944  40.072   8.719
  363POPC   D2A 7480  37.141  40.129   8.309
  363POPC   C3A 7481  37.008  39.968   7.897
  363POPC   C4A 7482  36.979  39.950   7.430
  363POPC   C1B 7483  36.546  40.371   8.925
  363POPC   C2B 7484  36.569  40.457   8.474
  363POPC   C3B 7485  36.708  40.326   8.077
  363POPC   C4B 7486  36.574  40.105   7.694
  364POPC   NC3 7487  33.361  21.631   9.579
  364POPC   PO4 7488  33.777  21.190   9.827
  364POPC   GL1 7489  33.908  21.367   9.380
  364POPC   GL2 7490  33.632  21.468   9.167
  364POPC   C1A 7491  34.105  21.556   8.957
  364POPC   D2A 7492  33.978  21.777   8.542
  364POPC   C3A 7493  33.894  21.530   8.199
  364POPC   C4A 7494  33.977  21.524   7.773
  364POPC   C1B 7495  33.515  21.595   8.750
  364POPC   C2B 7496  33.452  21.853   8.370
  364POPC   C3B 7497  33.488  21.729   7.939
  364POPC   C4B 7498  33.484  21.397   7.696
  365POPC   NC3 7499   1.627  37.785   9.466
  365POPC   PO4 7500   2.209  37.426   9.279
  365POPC   GL1 7501   2.008  37.649   8.982
  365POPC   GL2 7502   2.150  37.973   8.931
  365POPC   C1A 7503   2.043  37.427   8.587
  365POPC   D2A 7504   2.124  37.296   8.145
  365POPC   C3A 7505   1.769  37.369   7.844
  365POPC   C4A 7506   1.741  37.390   7.382
  365POPC   C1B 7507   1.853  37.957   8.587
  365POPC   C2B 7508   1.819  37.725   8.236
  365POPC   C3B 7509   2.073  37.762   7.891
  365POPC   C4B 7510   2.149  38.136   7.689
  366POPC   NC3 7511  13.177  43.596   9.508
  366POPC   PO4 7512  13.843  43.725   9.506
  366POPC   GL1 7513  13.577  43.693   9.135
  366POPC   GL2 7514  13.733  43.372   9.097
  366POPC   C1A 7515  13.549  44.016   8.768
  366POPC   D2A 7516  13.765  44.216   8.439
  366POPC   C3A 7517  13.668  44.076   8.034
  366POPC   C4A 7518  13.653  44.083   7.624
  366POPC   C1B 7519  13.862  43.598   8.719
  366POPC   C2B 7520  13.949  43.744   8.308
  366POPC   C3B 7521  14.019  43.682   7.864
  366POPC   C4B 7522  13.765  43.619   7.504
  367POPC   NC3 7523   7.446  17.268   9.503
  367POPC   PO4 7524   7.190  17.845   9.578
  367POPC   GL1 7525   7.404  17.648   9.196
  367POPC   GL2 7526   7.766  17.687   9.215
  367POPC   C1A 7527   7.220  17.437   8.859
  367POPC   D2A 7528   6.962  17.517   8.501
  367POPC   C3A 7529   7.126  17.481   8.099
  367POPC   C4A 7530   7.270  17.623   7.718
  367POPC   C1B 7531   7.751  17.467   8.812
  367POPC   C2B 7532   7.488  17.307   8.446
  367POPC   C3B 7533   7.596  17.278   7.998
  367POPC   C4B 7534   7.789  17.507   7.672
  368POPC   NC3 7535  31.854  16.288   9.459
  368POPC   PO4 7536  31.309  15.914   9.531
  368POPC   GL1 7537  31.335  15.729   9.129
  368POPC   GL2 7538  31.698  15.752   9.066
  368POPC   C1A 7539  31.316  16.063   8.837
  368POPC   D2A 7540  31.480  16.280   8.482
  368POPC   C3A 7541  31.443  16.079   8.073
  368POPC   C4A 7542  31.737  16.238   7.754
  368POPC   C1B 7543  31.646  15.722   8.634
  368POPC   C2B 7544  31.586  15.598   8.204
  368POPC   C3B 7545  31.662  15.709   7.762
  368POPC   C4B 7546  31.951  15.664   7.387
  369POPC   NC3 7547  12.496  32.334   9.368
  369POPC   PO4 7548  11.740  32.102   9.409
  369POPC   GL1 7549  12.027  32.191   9.064
  369POPC   GL2 7550  12.228  32.506   8.968
  369POPC   C1A 7551  11.931  32.234   8.657
  369POPC   D2A 7552  11.776  32.548   8.410
  369POPC   C3A 7553  11.955  32.369   8.026
  369POPC   C4A 7554  11.756  32.123   7.743
  369POPC   C1B 7555  12.415  32.141   8.739
  369POPC   C2B 7556  12.342  31.952   8.352
  369POPC   C3B 7557  12.444  32.029   7.926
  369POPC   C4B 7558  12.244  32.216   7.576
  370POPC   NC3 7559  31.417  22.296   9.482
  370POPC   PO4 7560  31.634  21.660   9.533
  370POPC   GL1 7561  31.494  21.909   9.155
  370POPC   GL2 7562  31.123  21.973   9.163
  370POPC   C1A 7563  31.658  21.983   8.725
  370POPC   D2A 7564  31.752  22.189   8.351
  370POPC   C3A 7565  31.494  22.180   7.982
  370POPC   C4A 7566  31.635  22.168   7.570
  370POPC   C1B 7567  31.288  22.294   8.859
  370POPC   C2B 7568  31.221  22.304   8.444
  370POPC   C3B 7569  31.185  22.570   8.119
  370POPC   C4B 7570  31.049  22.558   7.697
  371POPC   NC3 7571  35.858  38.475   9.482
  371POPC   PO4 7572  36.316  38.997   9.544
  371POPC   GL1 7573  36.218  38.695   9.178
  371POPC   GL2 7574  35.921  38.503   8.998
  371POPC   C1A 7575  36.393  38.473   8.816
  371POPC   D2A 7576  36.431  38.631   8.394
  371POPC   C3A 7577  36.400  38.435   7.992
  371POPC   C4A 7578  36.234  38.380   7.541
  371POPC   C1B 7579  35.919  38.622   8.604
  371POPC   C2B 7580  35.931  38.536   8.176
  371POPC   C3B 7581  35.925  38.688   7.790
  371POPC   C4B 7582  35.898  39.103   7.699
  372POPC   NC3 7583  30.259  23.387   9.417
  372POPC   PO4 7584  29.695  23.689   9.650
  372POPC   GL1 7585  29.850  23.628   9.228
  372POPC   GL2 7586  29.784  23.333   9.056
  372POPC   C1A 7587  29.788  23.845   8.864
  372POPC   D2A 7588  29.819  23.676   8.476
  372POPC   C3A 7589  30.044  23.901   8.159
  372POPC   C4A 7590  29.855  24.044   7.809
  372POPC   C1B 7591  30.157  23.446   8.775
  372POPC   C2B 7592  30.258  23.452   8.320
  372POPC   C3B 7593  30.033  23.461   7.917
  372POPC   C4B 7594  30.216  23.278   7.580
  373POPC   NC3 7595  24.493  23.926   9.603
  373POPC   PO4 7596  24.654  23.292   9.504
  373POPC   GL1 7597  24.471  23.564   9.169
  373POPC   GL2 7598  24.503  23.927   9.091
  373POPC   C1A 7599  24.282  23.589   8.763
  373POPC   D2A 7600  24.479  23.796   8.412
  373POPC   C3A 7601  24.298  23.645   8.092
  373POPC   C4A 7602  24.379  23.506   7.702
  373POPC   C1B 7603  24.218  24.082   8.736
  373POPC   C2B 7604  24.053  24.047   8.329
  373POPC   C3B 7605  24.254  24.140   7.951
  373POPC   C4B 7606  24.565  23.986   7.750
  374POPC   NC3 7607   3.956  11.796   9.119
  374POPC   PO4 7608   4.390  11.908   9.545
  374POPC   GL1 7609   4.359  12.118   9.130
  374POPC   GL2 7610   4.701  12.080   9.154
  374POPC   C1A 7611   4.242  12.092   8.656
  374POPC   D2A 7612   3.902  11.919   8.404
  374POPC   C3A 7613   4.022  12.198   8.139
  374POPC   C4A 7614   4.165  12.287   7.763
  374POPC   C1B 7615   4.598  11.777   8.826
  374POPC   C2B 7616   4.644  11.858   8.416
  374POPC   C3B 7617   4.489  12.002   8.058
  374POPC   C4B 7618   4.652  12.129   7.699
  375POPC   NC3 7619  44.299   4.844   9.483
  375POPC   PO4 7620  44.876   5.110   9.493
  375POPC   GL1 7621  44.631   5.104   9.139
  375POPC   GL2 7622  44.927   4.969   8.948
  375POPC   C1A 7623  44.496   5.195   8.724
  375POPC   D2A 7624  44.746   5.009   8.424
  375POPC   C3A 7625  44.641   5.159   8.038
  375POPC   C4A 7626  44.427   5.170   7.652
  375POPC   C1B 7627  44.957   5.395   8.856
  375POPC   C2B 7628  44.866   5.571   8.461
  375POPC   C3B 7629   0.045   5.527   8.059
  375POPC   C4B 7630  44.880   5.417   7.665
  376POPC   NC3 7631  19.924  22.235   9.564
  376POPC   PO4 7632  19.353  22.111   9.295
  376POPC   GL1 7633  19.731  22.022   9.128
  376POPC   GL2 7634  19.979  22.306   9.069
  376POPC   C1A 7635  19.869  21.841   8.767
  376POPC   D2A 7636  20.048  21.810   8.363
  376POPC   C3A 7637  19.827  21.756   7.986
  376POPC   C4A 7638  19.992  21.857   7.595
  376POPC   C1B 7639  19.954  22.542   8.702
  376POPC   C2B 7640  19.900  22.489   8.294
  376POPC   C3B 7641  19.991  22.262   7.934
  376POPC   C4B 7642  20.013  22.367   7.493
  377POPC   NC3 7643  32.698  27.133   9.568
  377POPC   PO4 7644  32.090  26.822   9.574
  377POPC   GL1 7645  32.169  26.701   9.122
  377POPC   GL2 7646  32.052  26.325   9.115
  377POPC   C1A 7647  32.447  26.828   8.739
  377POPC   D2A 7648  32.606  26.705   8.296
  377POPC   C3A 7649  32.382  26.983   8.005
  377POPC   C4A 7650  32.297  27.398   7.794
  377POPC   C1B 7651  32.188  26.400   8.698
  377POPC   C2B 7652  32.113  26.640   8.366
  377POPC   C3B 7653  32.029  26.589   7.958
  377POPC   C4B 7654  31.775  26.908   7.867
  378POPC   NC3 7655  44.678  39.077   9.687
  378POPC   PO4 7656  44.500  39.686   9.438
  378POPC   GL1 7657  44.482  39.448   9.099
  378POPC   GL2 7658  44.365  39.148   9.248
  378POPC   C1A 7659  44.600  39.389   8.682
  378POPC   D2A 7660  44.753  39.240   8.315
  378POPC   C3A 7661  44.657  39.325   7.933
  378POPC   C4A 7662  44.926  39.432   7.622
  378POPC   C1B 7663  44.505  38.926   8.874
  378POPC   C2B 7664  44.641  38.754   8.468
  378POPC   C3B 7665  44.706  38.779   8.030
  378POPC   C4B 7666  44.385  38.874   7.746
  379POPC   NC3 7667  27.685   8.308   9.453
  379POPC   PO4 7668  27.222   7.835   9.397
  379POPC   GL1 7669  27.373   8.093   9.054
  379POPC   GL2 7670  27.281   8.431   9.158
  379POPC   C1A 7671  27.776   8.143   8.781
  379POPC   D2A 7672  27.989   8.394   8.433
  379POPC   C3A 7673  27.862   8.262   8.013
  379POPC   C4A 7674  27.967   7.899   7.752
  379POPC   C1B 7675  27.409   8.536   8.749
  379POPC   C2B 7676  27.512   8.561   8.316
  379POPC   C3B 7677  27.343   8.427   7.914
  379POPC   C4B 7678  27.347   8.006   7.743
  380POPC   NC3 7679  10.476  22.606   9.517
  380POPC   PO4 7680  10.631  21.944   9.587
  380POPC   GL1 7681  10.439  22.101   9.235
  380POPC   GL2 7682  10.678  22.314   9.133
  380POPC   C1A 7683  10.374  22.012   8.795
  380POPC   D2A 7684  10.518  22.045   8.381
  380POPC   C3A 7685  10.300  21.977   8.002
  380POPC   C4A 7686  10.136  22.258   7.731
  380POPC   C1B 7687  10.875  22.124   8.779
  380POPC   C2B 7688  11.026  22.153   8.354
  380POPC   C3B 7689  10.810  22.104   7.942
  380POPC   C4B 7690  10.652  22.366   7.597
  381POPC   NC3 7691   6.379  39.359   9.409
  381POPC   PO4 7692   7.068  39.218   9.328
  381POPC   GL1 7693   6.882  39.031   8.994
  381POPC   GL2 7694   6.525  39.035   9.044
  381POPC   C1A 7695   6.753  39.172   8.605
  381POPC   D2A 7696   6.479  39.406   8.337
  381POPC   C3A 7697   6.752  39.418   8.005
  381POPC   C4A 7698   6.763  39.425   7.571
  381POPC   C1B 7699   6.254  39.057   8.672
  381POPC   C2B 7700   6.214  38.944   8.238
  381POPC   C3B 7701   6.374  39.080   7.819
  381POPC   C4B 7702   6.414  38.904   7.372
  382POPC   NC3 7703  15.729  40.598   9.474
  382POPC   PO4 7704  16.180  41.140   9.510
  382POPC   GL1 7705  15.972  40.914   9.177
  382POPC   GL2 7706  16.251  40.654   9.224
  382POPC   C1A 7707  15.954  40.574   8.817
  382POPC   D2A 7708  15.943  40.431   8.377
  382POPC   C3A 7709  15.672  40.533   8.010
  382POPC   C4A 7710  15.504  40.952   7.851
  382POPC   C1B 7711  16.319  40.926   8.843
  382POPC   C2B 7712  16.006  40.988   8.511
  382POPC   C3B 7713  15.925  41.037   8.101
  382POPC   C4B 7714  16.025  40.739   7.750
  383POPC   NC3 7715   9.283  12.829   9.503
  383POPC   PO4 7716   9.167  13.438   9.331
  383POPC   GL1 7717   8.949  13.084   9.158
  383POPC   GL2 7718   8.823  12.765   9.253
  383POPC   C1A 7719   9.099  12.858   8.803
  383POPC   D2A 7720   9.229  13.027   8.407
  383POPC   C3A 7721   9.293  12.673   8.143
  383POPC   C4A 7722   9.149  12.706   7.739
  383POPC   C1B 7723   8.599  12.706   8.847
  383POPC   C2B 7724   8.638  12.443   8.474
  383POPC   C3B 7725   8.754  12.505   8.027
  383POPC   C4B 7726   8.523  12.525   7.630
  384POPC   NC3 7727  11.188   5.963   9.456
  384POPC   PO4 7728  11.736   6.190   9.123
  384POPC   GL1 7729  11.394   5.935   8.981
  384POPC   GL2 7730  11.397   5.608   9.140
  384POPC   C1A 7731  11.114   5.819   8.645
  384POPC   D2A 7732  11.051   5.613   8.239
  384POPC   C3A 7733  11.158   5.939   7.951
  384POPC   C4A 7734  11.039   6.006   7.542
  384POPC   C1B 7735  11.561   5.431   8.762
  384POPC   C2B 7736  11.553   5.602   8.361
  384POPC   C3B 7737  11.471   5.526   7.941
  384POPC   C4B 7738  11.508   5.816   7.572
  385POPC   NC3 7739  35.013  20.102   9.394
  385POPC   PO4 7740  35.455  19.628   9.568
  385POPC   GL1 7741  35.362  19.788   9.190
  385POPC   GL2 7742  35.450  20.136   9.135
  385POPC   C1A 7743  35.443  19.719   8.799
  385POPC   D2A 7744  35.680  19.714   8.458
  385POPC   C3A 7745  35.454  19.573   8.163
  385POPC   C4A 7746  35.198  19.650   7.797
  385POPC   C1B 7747  35.240  20.176   8.728
  385POPC   C2B 7748  35.256  20.038   8.292
  385POPC   C3B 7749  35.180  20.187   7.844
  385POPC   C4B 7750  34.944  20.125   7.433
  386POPC   NC3 7751  15.777   3.627  10.171
  386POPC   PO4 7752  16.066   3.213   9.713
  386POPC   GL1 7753  16.108   3.360   9.215
  386POPC   GL2 7754  16.225   3.112   9.038
  386POPC   C1A 7755  16.162   3.511   8.711
  386POPC   D2A 7756  16.280   3.606   8.227
  386POPC   C3A 7757  16.081   3.795   7.825
  386POPC   C4A 7758  16.050   3.809   7.326
  386POPC   C1B 7759  15.953   3.041   8.696
  386POPC   C2B 7760  15.798   3.293   8.349
  386POPC   C3B 7761  15.856   3.346   7.914
  386POPC   C4B 7762  15.995   3.329   7.470
  387POPC   NC3 7763  32.936  20.181   9.558
  387POPC   PO4 7764  33.080  19.570   9.865
  387POPC   GL1 7765  33.139  19.695   9.339
  387POPC   GL2 7766  32.942  19.983   9.093
  387POPC   C1A 7767  33.110  19.568   8.863
  387POPC   D2A 7768  33.298  19.776   8.469
  387POPC   C3A 7769  33.116  19.786   8.047
  387POPC   C4A 7770  32.740  19.958   7.901
  387POPC   C1B 7771  33.089  20.202   8.682
  387POPC   C2B 7772  33.265  20.253   8.223
  387POPC   C3B 7773  33.214  20.230   7.739
  387POPC   C4B 7774  33.221  20.396   7.290
  388POPC   NC3 7775   2.548  13.241   9.442
  388POPC   PO4 7776   2.939  12.682   9.385
  388POPC   GL1 7777   2.926  13.000   9.085
  388POPC   GL2 7778   2.583  12.934   9.017
  388POPC   C1A 7779   3.012  12.896   8.642
  388POPC   D2A 7780   2.919  12.540   8.338
  388POPC   C3A 7781   2.807  12.703   7.930
  388POPC   C4A 7782   2.853  13.088   7.705
  388POPC   C1B 7783   2.566  12.586   8.719
  388POPC   C2B 7784   2.371  12.572   8.297
  388POPC   C3B 7785   2.315  12.471   7.860
  388POPC   C4B 7786   2.505  12.674   7.437
  389POPC   NC3 7787  32.507  40.068   9.547
  389POPC   PO4 7788  32.213  39.561   9.485
  389POPC   GL1 7789  32.137  39.961   9.204
  389POPC   GL2 7790  31.806  40.064   9.136
  389POPC   C1A 7791  32.121  40.187   8.762
  389POPC   D2A 7792  32.221  40.346   8.319
  389POPC   C3A 7793  32.090  40.206   7.915
  389POPC   C4A 7794  32.380  39.890   7.757
  389POPC   C1B 7795  31.866  39.713   8.848
  389POPC   C2B 7796  31.847  39.537   8.446
  389POPC   C3B 7797  31.982  39.726   8.064
  389POPC   C4B 7798  32.009  39.573   7.634
  390POPC   NC3 7799   6.438   0.317   9.393
  390POPC   PO4 7800   6.631   0.922   9.504
  390POPC   GL1 7801   6.782   0.635   9.140
  390POPC   GL2 7802   6.787   0.246   9.064
  390POPC   C1A 7803   6.829   0.570   8.687
  390POPC   D2A 7804   6.852   0.746   8.301
  390POPC   C3A 7805   6.926   0.498   7.927
  390POPC   C4A 7806   6.552   0.674   7.785
  390POPC   C1B 7807   6.432   0.274   8.735
  390POPC   C2B 7808   6.578   0.327   8.284
  390POPC   C3B 7809   6.345   0.227   7.905
  390POPC   C4B 7810   6.273   0.009   7.514
  391POPC   NC3 7811   4.502   4.754   9.446
  391POPC   PO4 7812   4.254   4.122   9.342
  391POPC   GL1 7813   4.166   4.463   9.131
  391POPC   GL2 7814   4.520   4.476   9.033
  391POPC   C1A 7815   4.125   4.473   8.695
  391POPC   D2A 7816   4.118   4.187   8.330
  391POPC   C3A 7817   4.123   4.300   7.876
  391POPC   C4A 7818   4.096   4.171   7.440
  391POPC   C1B 7819   4.618   4.671   8.697
  391POPC   C2B 7820   4.462   4.597   8.329
  391POPC   C3B 7821   4.586   4.379   8.031
  391POPC   C4B 7822   4.690   4.639   7.740
  392POPC   NC3 7823   5.932  26.438   9.907
  392POPC   PO4 7824   5.478  26.841   9.729
  392POPC   GL1 7825   5.631  26.858   9.220
  392POPC   GL2 7826   5.618  26.589   8.991
  392POPC   C1A 7827   5.995  26.928   8.891
  392POPC   D2A 7828   6.134  27.018   8.452
  392POPC   C3A 7829   5.940  26.859   8.059
  392POPC   C4A 7830   6.000  27.129   7.692
  392POPC   C1B 7831   5.654  26.685   8.557
  392POPC   C2B 7832   5.430  26.941   8.250
  392POPC   C3B 7833   5.505  27.098   7.822
  392POPC   C4B 7834   5.597  27.036   7.361
  393POPC   NC3 7835  42.577  41.556   9.502
  393POPC   PO4 7836  42.043  41.319   9.336
  393POPC   GL1 7837  42.234  41.645   9.068
  393POPC   GL2 7838  42.559  41.809   9.064
  393POPC   C1A 7839  42.260  41.658   8.608
  393POPC   D2A 7840  42.040  41.440   8.252
  393POPC   C3A 7841  42.088  41.623   7.839
  393POPC   C4A 7842  42.175  41.473   7.415
  393POPC   C1B 7843  42.660  41.424   8.836
  393POPC   C2B 7844  42.607  41.311   8.390
  393POPC   C3B 7845  42.567  41.498   7.995
  393POPC   C4B 7846  42.587  41.736   7.630
  394POPC   NC3 7847  13.966   1.063   9.620
  394POPC   PO4 7848  13.701   1.638   9.749
  394POPC   GL1 7849  13.680   1.361   9.293
  394POPC   GL2 7850  13.965   1.243   9.084
  394POPC   C1A 7851  13.556   1.350   8.792
  394POPC   D2A 7852  13.655   1.275   8.365
  394POPC   C3A 7853  13.346   1.009   8.139
  394POPC   C4A 7854  13.203   1.174   7.742
  394POPC   C1B 7855  13.879   0.956   8.671
  394POPC   C2B 7856  13.899   0.857   8.204
  394POPC   C3B 7857  13.726   1.122   7.851
  394POPC   C4B 7858  13.887   0.998   7.489
  395POPC   NC3 7859  34.420  24.919   9.442
  395POPC   PO4 7860  34.554  24.283   9.727
  395POPC   GL1 7861  34.581  24.305   9.261
  395POPC   GL2 7862  34.848  24.553   9.194
  395POPC   C1A 7863  34.412  24.506   8.863
  395POPC   D2A 7864  34.232  24.714   8.499
  395POPC   C3A 7865  34.375  24.558   8.110
  395POPC   C4A 7866  34.399  24.391   7.675
  395POPC   C1B 7867  34.918  24.511   8.741
  395POPC   C2B 7868  34.824  24.661   8.333
  395POPC   C3B 7869  34.847  24.469   7.913
  395POPC   C4B 7870  34.746  24.746   7.576
  396POPC   NC3 7871  29.899  17.557   9.480
  396POPC   PO4 7872  29.552  17.078   9.418
  396POPC   GL1 7873  29.789  17.309   9.061
  396POPC   GL2 7874  30.110  17.512   9.010
  396POPC   C1A 7875  29.936  17.169   8.693
  396POPC   D2A 7876  30.127  17.425   8.386
  396POPC   C3A 7877  29.872  17.466   8.036
  396POPC   C4A 7878  29.999  17.235   7.706
  396POPC   C1B 7879  30.125  17.848   8.689
  396POPC   C2B 7880  29.994  17.925   8.282
  396POPC   C3B 7881  30.184  17.899   7.908
  396POPC   C4B 7882  30.085  17.715   7.561
  397POPC   NC3 7883  31.390  20.380   9.514
  397POPC   PO4 7884  31.871  20.851   9.292
  397POPC   GL1 7885  31.612  20.550   9.070
  397POPC   GL2 7886  31.257  20.600   9.094
  397POPC   C1A 7887  31.776  20.464   8.671
  397POPC   D2A 7888  31.839  20.779   8.382
  397POPC   C3A 7889  31.466  20.850   8.178
  397POPC   C4A 7890  31.472  20.572   7.832
  397POPC   C1B 7891  31.267  20.545   8.673
  397POPC   C2B 7892  31.336  20.349   8.284
  397POPC   C3B 7893  31.074  20.291   7.864
  397POPC   C4B 7894  30.890  20.356   7.447
  398POPC   NC3 7895  11.657   3.806   9.516
  398POPC   PO4 7896  11.178   3.381   9.684
  398POPC   GL1 7897  11.311   3.475   9.245
  398POPC   GL2 7898  11.584   3.301   9.077
  398POPC   C1A 7899  11.230   3.513   8.775
  398POPC   D2A 7900  11.130   3.358   8.344
  398POPC   C3A 7901  10.923   3.652   8.058
  398POPC   C4A 7902  11.080   3.593   7.669
  398POPC   C1B 7903  11.732   3.637   8.830
  398POPC   C2B 7904  11.647   3.850   8.422
  398POPC   C3B 7905  11.444   3.708   8.053
  398POPC   C4B 7906  11.514   3.372   7.764
  399POPC   NC3 7907  18.986   1.625   9.781
  399POPC   PO4 7908  19.250   0.999   9.492
  399POPC   GL1 7909  18.956   1.192   9.194
  399POPC   GL2 7910  19.206   1.325   8.934
  399POPC   C1A 7911  18.737   1.273   8.784
  399POPC   D2A 7912  19.019   1.324   8.423
  399POPC   C3A 7913  18.887   1.192   8.011
  399POPC   C4A 7914  18.981   1.311   7.599
  399POPC   C1B 7915  19.510   1.256   8.625
  399POPC   C2B 7916  19.598   1.054   8.242
  399POPC   C3B 7917  19.407   1.181   7.862
  399POPC   C4B 7918  19.464   1.258   7.431
  400POPC   NC3 7919  25.321  33.366   9.906
  400POPC   PO4 7920  25.404  33.889   9.419
  400POPC   GL1 7921  25.409  33.762   9.039
  400POPC   GL2 7922  25.188  33.999   8.980
  400POPC   C1A 7923  25.449  33.807   8.590
  400POPC   D2A 7924  25.208  33.540   8.351
  400POPC   C3A 7925  25.197  33.659   7.967
  400POPC   C4A 7926  24.992  33.643   7.626
  400POPC   C1B 7927  24.934  34.152   8.689
  400POPC   C2B 7928  25.188  34.276   8.397
  400POPC   C3B 7929  25.311  34.149   8.045
  400POPC   C4B 7930  25.075  34.131   7.705
  401POPC   NC3 7931  23.620  29.314   9.514
  401POPC   PO4 7932  24.029  28.860   9.255
  401POPC   GL1 7933  23.665  29.046   9.088
  401POPC   GL2 7934  23.872  29.303   9.067
  401POPC   C1A 7935  23.511  29.250   8.731
  401POPC   D2A 7936  23.556  29.053   8.353
  401POPC   C3A 7937  23.453  29.353   8.060
  401POPC   C4A 7938  23.439  29.178   7.682
  401POPC   C1B 7939  24.004  29.169   8.661
  401POPC   C2B 7940  23.931  29.405   8.305
  401POPC   C3B 7941  24.120  29.566   7.937
  401POPC   C4B 7942  24.040  29.337   7.525
  402POPC   NC3 7943  34.340  15.954   9.563
  402POPC   PO4 7944  33.681  16.183   9.615
  402POPC   GL1 7945  33.936  16.021   9.234
  402POPC   GL2 7946  34.229  16.142   9.080
  402POPC   C1A 7947  33.858  15.953   8.756
  402POPC   D2A 7948  33.559  16.021   8.399
  402POPC   C3A 7949  33.735  15.941   7.973
  402POPC   C4A 7950  33.803  15.747   7.589
  402POPC   C1B 7951  34.178  16.358   8.699
  402POPC   C2B 7952  34.051  16.208   8.299
  402POPC   C3B 7953  34.125  16.311   7.888
  402POPC   C4B 7954  34.214  16.363   7.424
  403POPC   NC3 7955  31.494   4.635   9.925
  403POPC   PO4 7956  31.630   5.133   9.505
  403POPC   GL1 7957  31.574   5.073   9.127
  403POPC   GL2 7958  31.776   5.344   9.045
  403POPC   C1A 7959  31.316   5.110   8.784
  403POPC   D2A 7960  31.321   4.949   8.378
  403POPC   C3A 7961  31.289   5.179   8.015
  403POPC   C4A 7962  31.250   4.954   7.650
  403POPC   C1B 7963  31.824   5.081   8.696
  403POPC   C2B 7964  31.913   5.075   8.318
  403POPC   C3B 7965  31.888   5.355   8.039
  403POPC   C4B 7966  31.705   5.203   7.700
  404POPC   NC3 7967   2.698  26.741   9.511
  404POPC   PO4 7968   3.337  27.026   9.494
  404POPC   GL1 7969   3.023  26.933   9.155
  404POPC   GL2 7970   3.168  26.640   9.068
  404POPC   C1A 7971   2.654  26.779   8.878
  404POPC   D2A 7972   2.362  26.742   8.554
  404POPC   C3A 7973   2.495  26.790   8.134
  404POPC   C4A 7974   2.489  26.767   7.693
  404POPC   C1B 7975   3.111  26.768   8.656
  404POPC   C2B 7976   3.000  26.634   8.275
  404POPC   C3B 7977   2.994  26.859   7.910
  404POPC   C4B 7978   2.977  26.610   7.589
  405POPC   NC3 7979   5.373   4.968   9.350
  405POPC   PO4 7980   4.930   5.405   9.700
  405POPC   GL1 7981   4.955   5.240   9.224
  405POPC   GL2 7982   4.854   4.915   9.075
  405POPC   C1A 7983   5.224   5.292   8.800
  405POPC   D2A 7984   5.078   5.449   8.413
  405POPC   C3A 7985   5.345   5.416   8.114
  405POPC   C4A 7986   5.318   5.228   7.763
  405POPC   C1B 7987   5.099   4.821   8.737
  405POPC   C2B 7988   5.228   4.955   8.382
  405POPC   C3B 7989   5.131   4.821   7.990
  405POPC   C4B 7990   5.434   4.684   7.715
  406POPC   NC3 7991  15.415  27.847   9.273
  406POPC   PO4 7992  14.807  27.540   9.335
  406POPC   GL1 7993  15.137  27.400   9.084
  406POPC   GL2 7994  15.358  27.158   9.271
  406POPC   C1A 7995  15.071  27.580   8.700
  406POPC   D2A 7996  14.885  27.536   8.318
  406POPC   C3A 7997  15.234  27.674   8.099
  406POPC   C4A 7998  15.081  27.621   7.712
  406POPC   C1B 7999  15.443  27.073   8.800
  406POPC   C2B 8000  15.308  27.237   8.400
  406POPC   C3B 8001  15.191  27.172   7.972
  406POPC   C4B 8002  15.489  27.170   7.621
  407POPC   NC3 8003  31.058  39.520   9.331
  407POPC   PO4 8004  30.614  39.128   9.682
  407POPC   GL1 8005  30.702  39.124   9.258
  407POPC   GL2 8006  30.576  39.447   9.159
  407POPC   C1A 8007  30.619  38.998   8.827
  407POPC   D2A 8008  30.776  39.217   8.487
  407POPC   C3A 8009  30.812  39.093   8.081
  407POPC   C4A 8010  30.924  39.236   7.697
  407POPC   C1B 8011  30.274  39.412   8.828
  407POPC   C2B 8012  30.267  39.614   8.439
  407POPC   C3B 8013  30.488  39.490   8.081
  407POPC   C4B 8014  30.468  39.461   7.632
  408POPC   NC3 8015  16.203  20.853   9.771
  408POPC   PO4 8016  16.645  20.448   9.442
  408POPC   GL1 8017  16.738  20.621   9.050
  408POPC   GL2 8018  16.776  20.984   9.073
  408POPC   C1A 8019  16.530  20.707   8.676
  408POPC   D2A 8020  16.620  20.463   8.327
  408POPC   C3A 8021  16.517  20.600   7.912
  408POPC   C4A 8022  16.406  20.706   7.483
  408POPC   C1B 8023  16.980  20.931   8.637
  408POPC   C2B 8024  16.862  20.904   8.194
  408POPC   C3B 8025  16.759  21.006   7.753
  408POPC   C4B 8026  16.886  20.807   7.391
  409POPC   NC3 8027  39.471  23.633   9.554
  409POPC   PO4 8028  38.879  23.806   9.537
  409POPC   GL1 8029  39.125  23.769   9.143
  409POPC   GL2 8030  39.387  23.519   9.053
  409POPC   C1A 8031  39.072  24.014   8.753
  409POPC   D2A 8032  38.956  24.017   8.315
  409POPC   C3A 8033  39.294  23.899   8.060
  409POPC   C4A 8034  39.293  23.632   7.732
  409POPC   C1B 8035  39.095  23.423   8.715
  409POPC   C2B 8036  39.062  23.481   8.246
  409POPC   C3B 8037  38.900  23.328   7.831
  409POPC   C4B 8038  39.083  23.365   7.341
  410POPC   NC3 8039  34.220  21.142   9.855
  410POPC   PO4 8040  34.740  21.456   9.603
  410POPC   GL1 8041  34.526  21.333   9.226
  410POPC   GL2 8042  34.297  21.060   9.260
  410POPC   C1A 8043  34.626  21.402   8.790
  410POPC   D2A 8044  34.501  21.577   8.402
  410POPC   C3A 8045  34.786  21.641   8.061
  410POPC   C4A 8046  34.581  21.585   7.698
  410POPC   C1B 8047  34.376  20.926   8.840
  410POPC   C2B 8048  34.536  21.028   8.421
  410POPC   C3B 8049  34.503  21.191   8.004
  410POPC   C4B 8050  34.241  21.139   7.591
  411POPC   NC3 8051  27.435  40.965   9.798
  411POPC   PO4 8052  27.880  40.496   9.529
  411POPC   GL1 8053  27.706  40.906   9.211
  411POPC   GL2 8054  27.344  41.002   9.109
  411POPC   C1A 8055  27.610  40.921   8.721
  411POPC   D2A 8056  27.398  40.907   8.314
  411POPC   C3A 8057  27.503  40.496   8.114
  411POPC   C4A 8058  27.726  40.413   7.732
  411POPC   C1B 8059  27.088  40.770   8.818
  411POPC   C2B 8060  27.098  40.509   8.468
  411POPC   C3B 8061  27.006  40.655   8.070
  411POPC   C4B 8062  27.264  40.721   7.715
  412POPC   NC3 8063  24.858   4.808   9.226
  412POPC   PO4 8064  25.218   5.295   9.515
  412POPC   GL1 8065  25.252   5.119   9.120
  412POPC   GL2 8066  25.372   4.743   9.112
  412POPC   C1A 8067  25.188   5.331   8.741
  412POPC   D2A 8068  25.450   5.402   8.382
  412POPC   C3A 8069  25.354   5.300   7.958
  412POPC   C4A 8070  25.276   4.921   7.732
  412POPC   C1B 8071  25.187   4.788   8.684
  412POPC   C2B 8072  25.246   4.885   8.262
  412POPC   C3B 8073  25.644   4.807   8.089
  412POPC   C4B 8074  25.831   4.841   7.682
  413POPC   NC3 8075   0.617  29.565   9.496
  413POPC   PO4 8076   1.199  29.121   9.494
  413POPC   GL1 8077   1.312  28.981   9.128
  413POPC   GL2 8078   0.987  28.797   9.059
  413POPC   C1A 8079   1.389  29.196   8.742
  413POPC   D2A 8080   1.270  29.090   8.328
  413POPC   C3A 8081   1.550  29.180   7.983
  413POPC   C4A 8082   1.434  29.032   7.554
  413POPC   C1B 8083   0.886  29.215   8.898
  413POPC   C2B 8084   0.802  29.288   8.467
  413POPC   C3B 8085   0.870  29.262   8.039
  413POPC   C4B 8086   0.913  29.055   7.667
  414POPC   NC3 8087  22.444   2.451   9.552
  414POPC   PO4 8088  21.830   2.049   9.495
  414POPC   GL1 8089  22.100   2.050   9.102
  414POPC   GL2 8090  22.341   1.747   9.018
  414POPC   C1A 8091  21.935   1.911   8.718
  414POPC   D2A 8092  22.081   2.037   8.343
  414POPC   C3A 8093  21.877   1.986   7.990
  414POPC   C4A 8094  22.200   1.947   7.702
  414POPC   C1B 8095  22.462   1.977   8.687
  414POPC   C2B 8096  22.508   2.348   8.464
  414POPC   C3B 8097  22.626   2.349   8.056
  414POPC   C4B 8098  22.645   2.232   7.643
  415POPC   NC3 8099  41.413   3.493   9.847
  415POPC   PO4 8100  42.015   3.558   9.630
  415POPC   GL1 8101  41.737   3.530   9.211
  415POPC   GL2 8102  41.552   3.264   9.123
  415POPC   C1A 8103  41.574   3.659   8.751
  415POPC   D2A 8104  41.466   3.442   8.342
  415POPC   C3A 8105  41.380   3.748   8.018
  415POPC   C4A 8106  41.460   3.713   7.634
  415POPC   C1B 8107  41.865   3.258   8.745
  415POPC   C2B 8108  41.964   3.547   8.396
  415POPC   C3B 8109  41.853   3.555   7.953
  415POPC   C4B 8110  41.929   3.493   7.498
  416POPC   NC3 8111   6.656  23.470   9.500
  416POPC   PO4 8112   7.085  23.946   9.322
  416POPC   GL1 8113   6.840  23.649   9.052
  416POPC   GL2 8114   6.437  23.633   9.055
  416POPC   C1A 8115   6.695  23.354   8.738
  416POPC   D2A 8116   6.483  23.356   8.334
  416POPC   C3A 8117   6.681  23.552   7.965
  416POPC   C4A 8118   7.003  23.747   7.719
  416POPC   C1B 8119   6.472  23.817   8.628
  416POPC   C2B 8120   6.796  23.956   8.333
  416POPC   C3B 8121   6.740  24.147   7.939
  416POPC   C4B 8122   6.415  23.924   7.715
  417POPC   NC3 8123   5.907  39.926   9.503
  417POPC   PO4 8124   6.307  40.578   9.364
  417POPC   GL1 8125   6.034  40.279   9.107
  417POPC   GL2 8126   6.006  39.903   9.016
  417POPC   C1A 8127   5.848  40.295   8.693
  417POPC   D2A 8128   5.694  40.160   8.266
  417POPC   C3A 8129   5.894  40.151   7.865
  417POPC   C4A 8130   5.706  40.284   7.479
  417POPC   C1B 8131   5.887  39.798   8.599
  417POPC   C2B 8132   5.519  39.702   8.310
  417POPC   C3B 8133   5.533  39.769   7.886
  417POPC   C4B 8134   5.506  39.420   7.651
  418POPC   NC3 8135  43.210   6.067   9.712
  418POPC   PO4 8136  43.050   5.455   9.734
  418POPC   GL1 8137  43.062   5.818   9.307
  418POPC   GL2 8138  42.808   6.048   9.314
  418POPC   C1A 8139  43.076   5.803   8.795
  418POPC   D2A 8140  43.119   5.460   8.462
  418POPC   C3A 8141  43.370   5.535   8.093
  418POPC   C4A 8142  43.337   5.754   7.700
  418POPC   C1B 8143  42.683   6.146   8.840
  418POPC   C2B 8144  42.760   6.159   8.377
  418POPC   C3B 8145  43.016   6.029   8.005
  418POPC   C4B 8146  42.909   5.952   7.530
  419POPC   NC3 8147   3.731  36.536   9.320
  419POPC   PO4 8148   3.324  37.017   9.529
  419POPC   GL1 8149   3.564  37.059   9.147
  419POPC   GL2 8150   3.351  36.807   9.060
  419POPC   C1A 8151   3.685  36.934   8.681
  419POPC   D2A 8152   3.746  36.944   8.215
  419POPC   C3A 8153   3.569  36.779   7.808
  419POPC   C4A 8154   3.753  36.961   7.413
  419POPC   C1B 8155   3.207  37.122   8.791
  419POPC   C2B 8156   3.037  37.136   8.411
  419POPC   C3B 8157   3.128  36.963   8.052
  419POPC   C4B 8158   3.234  37.127   7.683
  420POPC   NC3 8159  29.713   9.464   9.396
  420POPC   PO4 8160  30.037  10.098   9.345
  420POPC   GL1 8161  29.845   9.850   9.080
  420POPC   GL2 8162  30.079   9.571   9.075
  420POPC   C1A 8163  29.726   9.646   8.715
  420POPC   D2A 8164  29.944   9.399   8.438
  420POPC   C3A 8165  29.836   9.590   8.095
  420POPC   C4A 8166  29.778   9.702   7.700
  420POPC   C1B 8167  30.286   9.769   8.734
  420POPC   C2B 8168  30.271   9.839   8.292
  420POPC   C3B 8169  30.278   9.700   7.861
  420POPC   C4B 8170  30.199   9.946   7.469
  421POPC   NC3 8171   8.331  25.695   9.554
  421POPC   PO4 8172   7.996  25.145   9.527
  421POPC   GL1 8173   8.078  25.427   9.180
  421POPC   GL2 8174   8.410  25.401   9.150
  421POPC   C1A 8175   8.022  25.340   8.759
  421POPC   D2A 8176   8.248  25.293   8.377
  421POPC   C3A 8177   8.075  25.151   8.021
  421POPC   C4A 8178   8.204  24.964   7.679
  421POPC   C1B 8179   8.574  25.321   8.779
  421POPC   C2B 8180   8.711  25.524   8.402
  421POPC   C3B 8181   8.512  25.532   7.978
  421POPC   C4B 8182   8.549  25.316   7.582
  422POPC   NC3 8183  13.062  15.774   9.518
  422POPC   PO4 8184  12.738  16.254   9.305
  422POPC   GL1 8185  12.831  15.924   9.029
  422POPC   GL2 8186  12.550  15.728   9.085
  422POPC   C1A 8187  12.874  15.982   8.568
  422POPC   D2A 8188  12.961  16.247   8.216
  422POPC   C3A 8189  13.054  16.010   7.857
  422POPC   C4A 8190  13.310  16.171   7.480
  422POPC   C1B 8191  12.382  15.649   8.697
  422POPC   C2B 8192  12.545  15.663   8.285
  422POPC   C3B 8193  12.629  15.672   7.846
  422POPC   C4B 8194  12.755  15.475   7.459
  423POPC   NC3 8195  24.765   4.018   9.389
  423POPC   PO4 8196  24.453   4.653   9.474
  423POPC   GL1 8197  24.279   4.499   9.118
  423POPC   GL2 8198  24.586   4.333   9.024
  423POPC   C1A 8199  24.141   4.223   8.793
  423POPC   D2A 8200  24.313   4.084   8.397
  423POPC   C3A 8201  24.185   4.201   8.004
  423POPC   C4A 8202  24.247   4.516   7.765
  423POPC   C1B 8203  24.669   3.952   8.742
  423POPC   C2B 8204  24.807   3.988   8.280
  423POPC   C3B 8205  24.688   4.372   8.011
  423POPC   C4B 8206  24.670   4.411   7.532
  424POPC   NC3 8207  19.498  39.991   9.531
  424POPC   PO4 8208  18.835  40.199   9.496
  424POPC   GL1 8209  19.085  39.939   9.191
  424POPC   GL2 8210  19.425  39.766   9.096
  424POPC   C1A 8211  19.035  39.796   8.778
  424POPC   D2A 8212  19.112  39.679   8.367
  424POPC   C3A 8213  19.153  40.025   8.179
  424POPC   C4A 8214  19.438  40.275   7.995
  424POPC   C1B 8215  19.612  39.957   8.734
  424POPC   C2B 8216  19.661  39.897   8.309
  424POPC   C3B 8217  19.506  39.764   7.926
  424POPC   C4B 8218  19.105  39.749   7.740
  425POPC   NC3 8219   5.251  13.354   9.461
  425POPC   PO4 8220   4.826  13.834   9.372
  425POPC   GL1 8221   5.087  13.647   9.070
  425POPC   GL2 8222   4.892  13.350   9.079
  425POPC   C1A 8223   5.110  13.676   8.631
  425POPC   D2A 8224   4.824  13.876   8.342
  425POPC   C3A 8225   4.950  13.786   7.923
  425POPC   C4A 8226   5.394  13.734   7.768
  425POPC   C1B 8227   4.679  13.328   8.688
  425POPC   C2B 8228   4.849  13.338   8.300
  425POPC   C3B 8229   5.217  13.370   8.095
  425POPC   C4B 8230   5.108  13.338   7.658
  426POPC   NC3 8231   3.898  39.534   9.482
  426POPC   PO4 8232   3.510  38.966   9.484
  426POPC   GL1 8233   3.330  39.159   9.106
  426POPC   GL2 8234   3.243  39.489   9.249
  426POPC   C1A 8235   3.510  39.377   8.766
  426POPC   D2A 8236   3.742  39.434   8.418
  426POPC   C3A 8237   3.677  39.141   8.144
  426POPC   C4A 8238   3.665  39.219   7.752
  426POPC   C1B 8239   3.056  39.581   8.839
  426POPC   C2B 8240   3.021  39.312   8.471
  426POPC   C3B 8241   3.164  39.307   8.033
  426POPC   C4B 8242   3.052  39.518   7.628
  427POPC   NC3 8243  38.134  33.065   9.829
  427POPC   PO4 8244  37.502  33.203   9.415
  427POPC   GL1 8245  37.580  33.223   9.020
  427POPC   GL2 8246  37.363  32.976   8.964
  427POPC   C1A 8247  37.806  33.222   8.648
  427POPC   D2A 8248  37.777  32.941   8.309
  427POPC   C3A 8249  37.673  33.091   7.958
  427POPC   C4A 8250  37.625  33.502   7.812
  427POPC   C1B 8251  37.430  32.694   8.630
  427POPC   C2B 8252  37.433  32.578   8.227
  427POPC   C3B 8253  37.290  32.754   7.867
  427POPC   C4B 8254  37.246  32.613   7.469
  428POPC   NC3 8255  13.723   2.951   9.459
  428POPC   PO4 8256  13.900   2.411   9.218
  428POPC   GL1 8257  13.598   2.643   8.962
  428POPC   GL2 8258  13.513   2.991   8.994
  428POPC   C1A 8259  13.375   2.455   8.645
  428POPC   D2A 8260  13.431   2.418   8.239
  428POPC   C3A 8261  13.794   2.595   8.079
  428POPC   C4A 8262  13.877   2.717   7.661
  428POPC   C1B 8263  13.207   2.950   8.677
  428POPC   C2B 8264  13.251   2.903   8.226
  428POPC   C3B 8265  13.388   2.794   7.809
  428POPC   C4B 8266  13.595   3.085   7.474
  429POPC   NC3 8267  38.200  16.518   9.309
  429POPC   PO4 8268  37.884  17.074   9.421
  429POPC   GL1 8269  37.816  16.807   9.046
  429POPC   GL2 8270  37.732  16.422   9.101
  429POPC   C1A 8271  37.578  16.806   8.648
  429POPC   D2A 8272  37.391  16.779   8.235
  429POPC   C3A 8273  37.706  16.877   7.907
  429POPC   C4A 8274  37.793  16.713   7.487
  429POPC   C1B 8275  37.969  16.424   8.704
  429POPC   C2B 8276  37.849  16.569   8.289
  429POPC   C3B 8277  37.570  16.362   7.998
  429POPC   C4B 8278  37.331  16.567   7.710
  430POPC   NC3 8279  33.451  13.490   9.501
  430POPC   PO4 8280  33.988  13.909   9.323
  430POPC   GL1 8281  33.719  13.702   9.009
  430POPC   GL2 8282  33.801  13.422   9.136
  430POPC   C1A 8283  33.657  13.335   8.665
  430POPC   D2A 8284  33.735  13.387   8.225
  430POPC   C3A 8285  33.816  13.816   8.126
  430POPC   C4A 8286  33.843  13.964   7.738
  430POPC   C1B 8287  34.109  13.253   8.897
  430POPC   C2B 8288  34.136  13.156   8.450
  430POPC   C3B 8289  34.259  13.321   8.049
  430POPC   C4B 8290  33.969  13.449   7.750
  431POPC   NC3 8291  37.002  28.544   9.330
  431POPC   PO4 8292  36.463  28.094   9.482
  431POPC   GL1 8293  36.759  28.154   9.125
  431POPC   GL2 8294  37.075  28.072   9.084
  431POPC   C1A 8295  36.733  28.403   8.729
  431POPC   D2A 8296  36.885  28.408   8.299
  431POPC   C3A 8297  36.799  28.519   7.843
  431POPC   C4A 8298  36.854  28.800   7.491
  431POPC   C1B 8299  37.141  28.099   8.669
  431POPC   C2B 8300  37.077  27.924   8.303
  431POPC   C3B 8301  36.857  28.012   7.950
  431POPC   C4B 8302  37.044  28.137   7.575
  432POPC   NC3 8303  30.943  12.942   9.821
  432POPC   PO4 8304  31.489  13.092   9.478
  432POPC   GL1 8305  31.448  12.853   9.166
  432POPC   GL2 8306  31.655  12.584   9.213
  432POPC   C1A 8307  31.429  12.966   8.754
  432POPC   D2A 8308  31.530  12.813   8.351
  432POPC   C3A 8309  31.673  13.132   8.078
  432POPC   C4A 8310  31.509  13.161   7.701
  432POPC   C1B 8311  31.538  12.430   8.816
  432POPC   C2B 8312  31.409  12.296   8.419
  432POPC   C3B 8313  31.171  12.505   8.110
  432POPC   C4B 8314  31.415  12.672   7.767
  433POPC   NC3 8315  32.277   4.344   9.526
  433POPC   PO4 8316  31.641   4.153   9.308
  433POPC   GL1 8317  31.906   4.399   9.026
  433POPC   GL2 8318  32.249   4.453   9.036
  433POPC   C1A 8319  32.017   4.370   8.613
  433POPC   D2A 8320  32.062   4.121   8.268
  433POPC   C3A 8321  31.985   4.330   7.879
  433POPC   C4A 8322  32.086   4.257   7.422
  433POPC   C1B 8323  32.483   4.210   8.717
  433POPC   C2B 8324  32.586   4.282   8.321
  433POPC   C3B 8325  32.479   4.190   7.915
  433POPC   C4B 8326  32.662   4.289   7.537
  434POPC   NC3 8327  36.172  44.051   9.586
  434POPC   PO4 8328  35.923  43.583   9.203
  434POPC   GL1 8329  36.012  44.019   9.104
  434POPC   GL2 8330  36.373  44.096   9.123
  434POPC   C1A 8331  36.060  44.119   8.698
  434POPC   D2A 8332  36.045  43.779   8.448
  434POPC   C3A 8333  35.957  43.973   8.126
  434POPC   C4A 8334  35.918  44.043   7.732
  434POPC   C1B 8335  36.483  43.870   8.733
  434POPC   C2B 8336  36.437  44.162   8.346
  434POPC   C3B 8337  36.394  44.170   7.938
  434POPC   C4B 8338  36.336  43.725   7.873
  435POPC   NC3 8339  12.609  29.366   9.490
  435POPC   PO4 8340  12.996  28.901   9.688
  435POPC   GL1 8341  12.967  29.085   9.256
  435POPC   GL2 8342  13.147  28.794   9.209
  435POPC   C1A 8343  12.859  29.297   8.832
  435POPC   D2A 8344  12.752  29.519   8.412
  435POPC   C3A 8345  12.858  29.369   7.991
  435POPC   C4A 8346  12.612  29.249   7.620
  435POPC   C1B 8347  12.779  28.796   8.888
  435POPC   C2B 8348  12.632  28.986   8.475
  435POPC   C3B 8349  12.737  28.882   8.046
  435POPC   C4B 8350  13.021  28.952   7.672
  436POPC   NC3 8351  29.829  39.643   9.433
  436POPC   PO4 8352  29.772  38.913   9.416
  436POPC   GL1 8353  29.635  39.247   9.153
  436POPC   GL2 8354  29.483  39.075   8.908
  436POPC   C1A 8355  29.744  39.532   8.800
  436POPC   D2A 8356  29.745  39.591   8.362
  436POPC   C3A 8357  29.821  39.233   8.103
  436POPC   C4A 8358  29.986  39.329   7.692
  436POPC   C1B 8359  29.905  39.053   8.703
  436POPC   C2B 8360  30.252  39.108   8.387
  436POPC   C3B 8361  30.333  39.035   7.932
  436POPC   C4B 8362  30.243  38.926   7.478
  437POPC   NC3 8363   5.420  12.568   9.335
  437POPC   PO4 8364   6.018  12.690   9.787
  437POPC   GL1 8365   6.021  12.802   9.272
  437POPC   GL2 8366   6.015  13.144   9.176
  437POPC   C1A 8367   5.824  12.672   8.825
  437POPC   D2A 8368   5.875  12.421   8.424
  437POPC   C3A 8369   5.786  12.649   8.017
  437POPC   C4A 8370   5.899  12.914   7.632
  437POPC   C1B 8371   5.888  13.184   8.761
  437POPC   C2B 8372   5.658  13.116   8.326
  437POPC   C3B 8373   5.712  13.313   7.891
  437POPC   C4B 8374   5.589  13.260   7.433
  438POPC   NC3 8375   8.582   4.846   9.527
  438POPC   PO4 8376   8.117   5.394   9.570
  438POPC   GL1 8377   8.189   5.081   9.242
  438POPC   GL2 8378   8.498   5.131   9.053
  438POPC   C1A 8379   7.992   5.106   8.832
  438POPC   D2A 8380   8.169   5.048   8.446
  438POPC   C3A 8381   7.941   5.101   8.068
  438POPC   C4A 8382   8.000   5.367   7.701
  438POPC   C1B 8383   8.309   4.722   8.857
  438POPC   C2B 8384   8.300   4.547   8.424
  438POPC   C3B 8385   8.197   4.663   8.018
  438POPC   C4B 8386   8.349   4.995   7.768
  439POPC   NC3 8387  31.772  36.866   9.553
  439POPC   PO4 8388  31.239  36.625   9.520
  439POPC   GL1 8389  31.386  36.865   9.152
  439POPC   GL2 8390  31.666  37.086   9.109
  439POPC   C1A 8391  31.383  36.997   8.705
  439POPC   D2A 8392  31.568  36.787   8.371
  439POPC   C3A 8393  31.285  36.863   8.085
  439POPC   C4A 8394  31.210  36.688   7.738
  439POPC   C1B 8395  31.854  36.866   8.795
  439POPC   C2B 8396  31.964  37.122   8.421
  439POPC   C3B 8397  31.827  37.089   8.008
  439POPC   C4B 8398  31.711  36.762   7.807
  440POPC   NC3 8399  39.043   5.451   9.584
  440POPC   PO4 8400  39.094   4.755   9.482
  440POPC   GL1 8401  39.026   5.090   9.185
  440POPC   GL2 8402  39.313   5.346   9.155
  440POPC   C1A 8403  39.207   4.999   8.768
  440POPC   D2A 8404  39.563   4.924   8.495
  440POPC   C3A 8405  39.403   4.983   8.087
  440POPC   C4A 8406  39.093   4.895   7.796
  440POPC   C1B 8407  39.026   5.481   8.824
  440POPC   C2B 8408  39.034   5.340   8.391
  440POPC   C3B 8409  39.144   5.402   7.950
  440POPC   C4B 8410  39.433   5.256   7.622
  441POPC   NC3 8411  15.672  27.058   9.826
  441POPC   PO4 8412  16.171  26.768   9.515
  441POPC   GL1 8413  15.967  26.887   9.148
  441POPC   GL2 8414  15.632  26.744   9.143
  441POPC   C1A 8415  16.134  27.041   8.749
  441POPC   D2A 8416  16.122  27.244   8.332
  441POPC   C3A 8417  16.157  26.950   7.970
  441POPC   C4A 8418  16.002  26.992   7.539
  441POPC   C1B 8419  15.769  26.593   8.762
  441POPC   C2B 8420  15.896  26.772   8.385
  441POPC   C3B 8421  15.685  27.050   8.109
  441POPC   C4B 8422  15.650  26.716   7.866
  442POPC   NC3 8423   4.834  11.802   9.598
  442POPC   PO4 8424   5.362  12.143   9.566
  442POPC   GL1 8425   5.239  12.062   9.160
  442POPC   GL2 8426   5.452  11.804   9.052
  442POPC   C1A 8427   5.010  12.070   8.754
  442POPC   D2A 8428   4.940  12.260   8.347
  442POPC   C3A 8429   5.033  11.960   8.012
  442POPC   C4A 8430   5.143  12.066   7.584
  442POPC   C1B 8431   5.524  12.147   8.743
  442POPC   C2B 8432   5.449  12.161   8.315
  442POPC   C3B 8433   5.540  12.074   7.898
  442POPC   C4B 8434   5.456  11.639   7.787
  443POPC   NC3 8435  36.377  18.080   9.557
  443POPC   PO4 8436  35.783  18.037   9.215
  443POPC   GL1 8437  35.996  18.297   9.006
  443POPC   GL2 8438  36.315  18.273   9.068
  443POPC   C1A 8439  35.877  18.417   8.633
  443POPC   D2A 8440  35.767  18.197   8.281
  443POPC   C3A 8441  36.123  18.043   8.006
  443POPC   C4A 8442  36.224  18.143   7.572
  443POPC   C1B 8443  36.370  18.547   8.708
  443POPC   C2B 8444  36.275  18.455   8.288
  443POPC   C3B 8445  36.410  18.502   7.874
  443POPC   C4B 8446  36.443  18.571   7.422
  444POPC   NC3 8447  23.897   7.301   9.546
  444POPC   PO4 8448  23.318   7.424   9.275
  444POPC   GL1 8449  23.727   7.542   9.086
  444POPC   GL2 8450  23.853   7.190   9.060
  444POPC   C1A 8451  23.817   7.795   8.678
  444POPC   D2A 8452  23.487   7.707   8.338
  444POPC   C3A 8453  23.596   7.663   7.878
  444POPC   C4A 8454  23.727   7.580   7.448
  444POPC   C1B 8455  23.804   7.302   8.642
  444POPC   C2B 8456  23.960   7.461   8.273
  444POPC   C3B 8457  23.905   7.251   7.891
  444POPC   C4B 8458  23.602   7.096   7.607
  445POPC   NC3 8459  16.330  20.089   9.545
  445POPC   PO4 8460  15.888  19.550   9.507
  445POPC   GL1 8461  16.010  19.808   9.166
  445POPC   GL2 8462  15.911  20.122   9.233
  445POPC   C1A 8463  16.168  19.799   8.738
  445POPC   D2A 8464  16.022  19.800   8.318
  445POPC   C3A 8465  16.260  19.766   7.975
  445POPC   C4A 8466  16.099  19.725   7.595
  445POPC   C1B 8467  15.805  20.203   8.804
  445POPC   C2B 8468  15.687  20.194   8.348
  445POPC   C3B 8469  15.778  20.066   7.890
  445POPC   C4B 8470  15.733  20.049   7.432
  446POPC   NC3 8471  27.295  30.528   9.361
  446POPC   PO4 8472  27.925  30.833   9.417
  446POPC   GL1 8473  27.734  30.711   9.046
  446POPC   GL2 8474  27.461  30.925   9.042
  446POPC   C1A 8475  27.696  30.850   8.595
  446POPC   D2A 8476  27.876  31.187   8.315
  446POPC   C3A 8477  27.774  31.037   7.896
  446POPC   C4A 8478  27.795  30.577   7.900
  446POPC   C1B 8479  27.182  30.967   8.732
  446POPC   C2B 8480  27.192  30.690   8.383
  446POPC   C3B 8481  27.328  30.752   7.963
  446POPC   C4B 8482  27.374  30.506   7.618
  447POPC   NC3 8483  42.818   1.532   9.491
  447POPC   PO4 8484  43.308   1.154   9.407
  447POPC   GL1 8485  43.077   1.343   9.094
  447POPC   GL2 8486  43.134   1.697   9.111
  447POPC   C1A 8487  42.887   1.194   8.738
  447POPC   D2A 8488  43.032   1.039   8.386
  447POPC   C3A 8489  42.821   1.159   8.027
  447POPC   C4A 8490  42.926   1.066   7.645
  447POPC   C1B 8491  43.205   1.574   8.657
  447POPC   C2B 8492  43.121   1.533   8.212
  447POPC   C3B 8493  43.081   1.527   7.767
  447POPC   C4B 8494  43.099   1.425   7.306
  448POPC   NC3 8495  20.706  36.174   9.611
  448POPC   PO4 8496  20.104  36.015   9.333
  448POPC   GL1 8497  20.518  36.082   9.158
  448POPC   GL2 8498  20.621  36.395   9.114
  448POPC   C1A 8499  20.874  36.096   8.825
  448POPC   D2A 8500  20.909  36.344   8.464
  448POPC   C3A 8501  20.767  36.091   8.148
  448POPC   C4A 8502  20.662  36.122   7.748
  448POPC   C1B 8503  20.351  36.237   8.719
  448POPC   C2B 8504  20.269  36.162   8.287
  448POPC   C3B 8505  20.208  36.340   7.866
  448POPC   C4B 8506  20.214  36.059   7.514
  449POPC   NC3 8507  19.336  21.808   9.640
  449POPC   PO4 8508  18.825  21.484   9.442
  449POPC   GL1 8509  19.060  21.436   9.109
  449POPC   GL2 8510  19.350  21.619   9.149
  449POPC   C1A 8511  19.143  21.315   8.712
  449POPC   D2A 8512  18.928  21.559   8.457
  449POPC   C3A 8513  18.982  21.439   8.073
  449POPC   C4A 8514  18.809  21.638   7.753
  449POPC   C1B 8515  19.356  21.777   8.720
  449POPC   C2B 8516  19.406  21.646   8.271
  449POPC   C3B 8517  19.314  21.736   7.813
  449POPC   C4B 8518  19.327  21.770   7.331
  450POPC   NC3 8519  35.716  37.390   9.423
  450POPC   PO4 8520  35.791  36.669   9.436
  450POPC   GL1 8521  35.605  36.776   9.063
  450POPC   GL2 8522  35.760  37.091   9.029
  450POPC   C1A 8523  35.276  37.004   8.829
  450POPC   D2A 8524  35.279  37.231   8.445
  450POPC   C3A 8525  35.228  36.934   8.133
  450POPC   C4A 8526  35.082  36.732   7.776
  450POPC   C1B 8527  35.747  37.005   8.624
  450POPC   C2B 8528  35.696  36.737   8.291
  450POPC   C3B 8529  35.626  36.757   7.850
  450POPC   C4B 8530  35.814  37.007   7.543
  451POPC   NC3 8531  32.831  10.205   9.618
  451POPC   PO4 8532  33.387   9.868   9.546
  451POPC   GL1 8533  33.091   9.973   9.216
  451POPC   GL2 8534  32.942   9.665   9.204
  451POPC   C1A 8535  32.811   9.971   8.818
  451POPC   D2A 8536  33.058  10.017   8.445
  451POPC   C3A 8537  32.900   9.989   8.068
  451POPC   C4A 8538  32.886   9.659   7.845
  451POPC   C1B 8539  33.222   9.677   8.805
  451POPC   C2B 8540  33.104   9.519   8.389
  451POPC   C3B 8541  33.247   9.290   8.048
  451POPC   C4B 8542  33.272   9.435   7.631
  452POPC   NC3 8543  39.224  20.318   9.459
  452POPC   PO4 8544  39.246  20.976   9.545
  452POPC   GL1 8545  39.328  20.751   9.197
  452POPC   GL2 8546  39.037  20.670   9.045
  452POPC   C1A 8547  39.500  20.596   8.836
  452POPC   D2A 8548  39.225  20.569   8.536
  452POPC   C3A 8549  39.325  20.629   8.134
  452POPC   C4A 8550  39.293  20.632   7.716
  452POPC   C1B 8551  38.908  20.944   8.706
  452POPC   C2B 8552  39.040  21.030   8.265
  452POPC   C3B 8553  39.068  21.074   7.793
  452POPC   C4B 8554  38.893  21.124   7.320
  453POPC   NC3 8555  39.436  10.084   9.762
  453POPC   PO4 8556  39.302   9.516   9.608
  453POPC   GL1 8557  39.422   9.501   9.191
  453POPC   GL2 8558  39.682   9.765   9.212
  453POPC   C1A 8559  39.498   9.539   8.768
  453POPC   D2A 8560  39.360   9.696   8.369
  453POPC   C3A 8561  39.506   9.484   7.990
  453POPC   C4A 8562  39.357   9.558   7.556
  453POPC   C1B 8563  39.596  10.063   8.847
  453POPC   C2B 8564  39.702  10.085   8.383
  453POPC   C3B 8565  39.503   9.999   7.959
  453POPC   C4B 8566  39.395  10.071   7.509
  454POPC   NC3 8567  44.652  30.553   9.477
  454POPC   PO4 8568   0.011  31.252   9.377
  454POPC   GL1 8569  44.774  30.934   9.131
  454POPC   GL2 8570  44.941  30.579   9.063
  454POPC   C1A 8571  44.767  30.856   8.685
  454POPC   D2A 8572   0.077  30.635   8.442
  454POPC   C3A 8573  44.871  30.752   8.048
  454POPC   C4A 8574  44.694  30.842   7.647
  454POPC   C1B 8575  44.592  30.379   8.813
  454POPC   C2B 8576  44.630  30.421   8.377
  454POPC   C3B 8577  44.722  30.281   7.961
  454POPC   C4B 8578  44.476  30.363   7.601
  455POPC   NC3 8579   2.185  16.863   9.424
  455POPC   PO4 8580   1.728  16.462   9.400
  455POPC   GL1 8581   1.974  16.566   9.069
  455POPC   GL2 8582   1.967  16.906   8.946
  455POPC   C1A 8583   2.029  16.430   8.694
  455POPC   D2A 8584   2.025  16.692   8.373
  455POPC   C3A 8585   2.047  16.459   8.018
  455POPC   C4A 8586   1.893  16.510   7.608
  455POPC   C1B 8587   2.296  17.080   8.648
  455POPC   C2B 8588   2.427  16.958   8.255
  455POPC   C3B 8589   2.167  16.950   7.897
  455POPC   C4B 8590   2.208  16.905   7.464
  456POPC   NC3 8591  12.154  34.825   9.594
  456POPC   PO4 8592  11.890  34.199   9.412
  456POPC   GL1 8593  12.102  34.297   9.084
  456POPC   GL2 8594  12.236  34.604   9.153
  456POPC   C1A 8595  12.178  34.363   8.678
  456POPC   D2A 8596  12.209  34.171   8.299
  456POPC   C3A 8597  12.108  34.513   8.026
  456POPC   C4A 8598  12.055  34.406   7.597
  456POPC   C1B 8599  12.399  34.852   8.841
  456POPC   C2B 8600  12.188  34.919   8.464
  456POPC   C3B 8601  12.346  35.004   8.089
  456POPC   C4B 8602  12.482  34.997   7.706
  457POPC   NC3 8603  21.662  41.313   9.460
  457POPC   PO4 8604  21.345  41.912   9.477
  457POPC   GL1 8605  21.397  41.656   9.100
  457POPC   GL2 8606  21.374  41.290   9.048
  457POPC   C1A 8607  21.212  41.711   8.684
  457POPC   D2A 8608  21.283  41.952   8.328
  457POPC   C3A 8609  21.122  41.913   7.940
  457POPC   C4A 8610  21.350  41.808   7.561
  457POPC   C1B 8611  21.515  41.273   8.645
  457POPC   C2B 8612  21.640  41.560   8.406
  457POPC   C3B 8613  21.494  41.586   8.031
  457POPC   C4B 8614  21.307  41.248   7.840
  458POPC   NC3 8615  34.643  38.088   9.601
  458POPC   PO4 8616  34.650  38.788   9.673
  458POPC   GL1 8617  34.614  38.787   9.240
  458POPC   GL2 8618  34.347  38.528   9.182
  458POPC   C1A 8619  34.656  38.713   8.798
  458POPC   D2A 8620  34.417  38.484   8.501
  458POPC   C3A 8621  34.538  38.565   8.097
  458POPC   C4A 8622  34.386  38.684   7.690
  458POPC   C1B 8623  34.409  38.154   8.913
  458POPC   C2B 8624  34.639  37.955   8.580
  458POPC   C3B 8625  34.601  38.035   8.135
  458POPC   C4B 8626  34.413  38.196   7.751
  459POPC   NC3 8627   4.486  21.978   9.738
  459POPC   PO4 8628   4.625  21.327   9.701
  459POPC   GL1 8629   4.522  21.258   9.239
  459POPC   GL2 8630   4.138  21.254   9.153
  459POPC   C1A 8631   4.567  21.399   8.808
  459POPC   D2A 8632   4.331  21.425   8.431
  459POPC   C3A 8633   4.489  21.378   8.026
  459POPC   C4A 8634   4.372  21.496   7.602
  459POPC   C1B 8635   4.141  21.054   8.734
  459POPC   C2B 8636   4.094  21.017   8.268
  459POPC   C3B 8637   4.033  21.199   7.832
  459POPC   C4B 8638   3.893  21.486   7.454
  460POPC   NC3 8639  17.263   6.046   9.462
  460POPC   PO4 8640  17.917   6.145   9.292
  460POPC   GL1 8641  17.603   5.993   9.069
  460POPC   GL2 8642  17.403   6.312   9.049
  460POPC   C1A 8643  17.623   5.683   8.725
  460POPC   D2A 8644  17.871   5.543   8.360
  460POPC   C3A 8645  17.736   5.550   7.925
  460POPC   C4A 8646  17.726   5.967   7.756
  460POPC   C1B 8647  17.528   6.188   8.624
  460POPC   C2B 8648  17.408   5.933   8.293
  460POPC   C3B 8649  17.244   6.029   7.908
  460POPC   C4B 8650  17.320   6.167   7.506
  461POPC   NC3 8651   5.590  29.793   9.456
  461POPC   PO4 8652   6.095  30.258   9.308
  461POPC   GL1 8653   6.242  30.093   8.996
  461POPC   GL2 8654   6.098  29.771   9.057
  461POPC   C1A 8655   6.006  30.094   8.650
  461POPC   D2A 8656   5.633  30.131   8.427
  461POPC   C3A 8657   5.957  30.154   8.112
  461POPC   C4A 8658   5.963  30.024   7.713
  461POPC   C1B 8659   5.697  29.714   8.815
  461POPC   C2B 8660   5.767  29.641   8.396
  461POPC   C3B 8661   5.614  29.787   8.010
  461POPC   C4B 8662   5.646  29.647   7.588
  462POPC   NC3 8663  18.010  11.592   9.438
  462POPC   PO4 8664  18.586  11.248   9.448
  462POPC   GL1 8665  18.416  11.313   9.063
  462POPC   GL2 8666  18.090  11.207   9.067
  462POPC   C1A 8667  18.321  11.203   8.615
  462POPC   D2A 8668  18.484  11.394   8.273
  462POPC   C3A 8669  18.349  11.130   7.983
  462POPC   C4A 8670  18.265  11.112   7.567
  462POPC   C1B 8671  18.082  11.605   8.808
  462POPC   C2B 8672  18.013  11.665   8.391
  462POPC   C3B 8673  18.096  11.571   7.970
  462POPC   C4B 8674  17.994  11.533   7.542
  463POPC   NC3 8675  29.318  24.186   9.906
  463POPC   PO4 8676  28.906  24.545   9.472
  463POPC   GL1 8677  29.123  24.295   9.188
  463POPC   GL2 8678  29.490  24.174   9.213
  463POPC   C1A 8679  28.936  24.390   8.787
  463POPC   D2A 8680  28.797  24.643   8.442
  463POPC   C3A 8681  28.952  24.514   8.015
  463POPC   C4A 8682  29.286  24.665   7.790
  463POPC   C1B 8683  29.320  24.065   8.781
  463POPC   C2B 8684  29.146  24.211   8.354
  463POPC   C3B 8685  29.308  24.104   7.913
  463POPC   C4B 8686  29.482  24.126   7.467
  464POPC   NC3 8687   0.622  42.387   9.552
  464POPC   PO4 8688   0.013  42.095   9.442
  464POPC   GL1 8689   0.324  42.361   9.133
  464POPC   GL2 8690   0.712  42.257   9.049
  464POPC   C1A 8691   0.466  42.589   8.756
  464POPC   D2A 8692   0.382  42.464   8.369
  464POPC   C3A 8693   0.558  42.498   8.007
  464POPC   C4A 8694   0.332  42.689   7.717
  464POPC   C1B 8695   0.513  42.072   8.658
  464POPC   C2B 8696   0.501  42.009   8.173
  464POPC   C3B 8697   0.709  42.080   7.737
  464POPC   C4B 8698   0.780  41.930   7.301
  465POPC   NC3 8699  40.931  39.935   9.410
  465POPC   PO4 8700  40.198  40.116   9.388
  465POPC   GL1 8701  40.347  40.303   9.055
  465POPC   GL2 8702  40.678  40.313   9.158
  465POPC   C1A 8703  40.548  40.097   8.712
  465POPC   D2A 8704  40.621  39.717   8.515
  465POPC   C3A 8705  40.619  39.884   8.124
  465POPC   C4A 8706  40.845  39.874   7.764
  465POPC   C1B 8707  41.012  40.346   8.825
  465POPC   C2B 8708  41.025  40.151   8.418
  465POPC   C3B 8709  41.040  40.301   8.036
  465POPC   C4B 8710  40.651  40.350   7.878
  466POPC   NC3 8711  36.624  18.769   9.276
  466POPC   PO4 8712  36.810  18.230   9.656
  466POPC   GL1 8713  36.803  18.222   9.194
  466POPC   GL2 8714  37.074  18.357   8.955
  466POPC   C1A 8715  36.688  18.129   8.749
  466POPC   D2A 8716  36.803  18.372   8.371
  466POPC   C3A 8717  36.750  18.106   8.003
  466POPC   C4A 8718  36.771  18.192   7.552
  466POPC   C1B 8719  37.223  18.128   8.604
  466POPC   C2B 8720  37.248  18.138   8.160
  466POPC   C3B 8721  37.271  18.245   7.740
  466POPC   C4B 8722  37.301  18.043   7.359
  467POPC   NC3 8723  10.465  41.333   9.667
  467POPC   PO4 8724  10.250  41.987   9.530
  467POPC   GL1 8725  10.320  41.675   9.238
  467POPC   GL2 8726  10.620  41.608   9.080
  467POPC   C1A 8727  10.239  41.775   8.794
  467POPC   D2A 8728  10.388  41.936   8.413
  467POPC   C3A 8729  10.292  41.593   8.138
  467POPC   C4A 8730  10.305  41.472   7.688
  467POPC   C1B 8731  10.797  41.677   8.690
  467POPC   C2B 8732  10.784  41.617   8.273
  467POPC   C3B 8733  10.703  41.324   7.959
  467POPC   C4B 8734  10.837  41.573   7.601
  468POPC   NC3 8735   9.410   5.405   9.547
  468POPC   PO4 8736   9.685   4.740   9.549
  468POPC   GL1 8737   9.689   5.050   9.211
  468POPC   GL2 8738  10.014   5.194   9.176
  468POPC   C1A 8739   9.631   5.266   8.800
  468POPC   D2A 8740   9.561   5.159   8.376
  468POPC   C3A 8741   9.838   5.289   8.064
  468POPC   C4A 8742   9.649   5.356   7.682
  468POPC   C1B 8743  10.021   4.939   8.791
  468POPC   C2B 8744   9.839   4.739   8.416
  468POPC   C3B 8745  10.013   4.711   7.982
  468POPC   C4B 8746   9.991   4.981   7.625
  469POPC   NC3 8747  30.650  35.352   9.505
  469POPC   PO4 8748  30.987  35.999   9.698
  469POPC   GL1 8749  30.904  35.758   9.264
  469POPC   GL2 8750  30.533  35.663   9.135
  469POPC   C1A 8751  30.938  35.595   8.840
  469POPC   D2A 8752  30.649  35.697   8.518
  469POPC   C3A 8753  30.618  35.451   8.181
  469POPC   C4A 8754  30.863  35.434   7.839
  469POPC   C1B 8755  30.526  35.294   8.824
  469POPC   C2B 8756  30.450  34.980   8.461
  469POPC   C3B 8757  30.341  35.048   8.008
  469POPC   C4B 8758  30.353  35.415   7.716
  470POPC   NC3 8759  39.256  34.323   9.528
  470POPC   PO4 8760  39.132  34.954   9.697
  470POPC   GL1 8761  39.211  34.809   9.231
  470POPC   GL2 8762  39.405  34.502   9.072
  470POPC   C1A 8763  38.986  34.698   8.832
  470POPC   D2A 8764  38.958  34.845   8.405
  470POPC   C3A 8765  38.914  34.559   8.084
  470POPC   C4A 8766  39.038  34.581   7.681
  470POPC   C1B 8767  39.509  34.750   8.696
  470POPC   C2B 8768  39.443  34.723   8.243
  470POPC   C3B 8769  39.371  34.347   8.046
  470POPC   C4B 8770  39.324  34.138   7.686
  471POPC   NC3 8771  39.498  42.469   9.411
  471POPC   PO4 8772  38.925  42.109   9.573
  471POPC   GL1 8773  39.057  42.297   9.187
  471POPC   GL2 8774  39.059  41.999   9.028
  471POPC   C1A 8775  39.227  42.394   8.740
  471POPC   D2A 8776  39.086  42.526   8.323
  471POPC   C3A 8777  39.356  42.525   7.941
  471POPC   C4A 8778  39.312  42.273   7.515
  471POPC   C1B 8779  39.191  41.841   8.620
  471POPC   C2B 8780  39.221  42.034   8.206
  471POPC   C3B 8781  39.452  41.908   7.844
  471POPC   C4B 8782  39.746  41.998   7.526
  472POPC   NC3 8783   8.622   5.692   9.461
  472POPC   PO4 8784   9.090   6.214   9.440
  472POPC   GL1 8785   8.891   5.954   9.103
  472POPC   GL2 8786   8.901   5.561   9.051
  472POPC   C1A 8787   8.996   5.960   8.666
  472POPC   D2A 8788   9.364   6.044   8.394
  472POPC   C3A 8789   9.221   6.170   7.972
  472POPC   C4A 8790   8.814   6.123   7.722
  472POPC   C1B 8791   8.736   5.477   8.646
  472POPC   C2B 8792   8.795   5.701   8.238
  472POPC   C3B 8793   8.982   5.637   7.820
  472POPC   C4B 8794   9.109   5.534   7.327
  473POPC   NC3 8795  24.937  38.669   9.931
  473POPC   PO4 8796  25.260  38.317   9.442
  473POPC   GL1 8797  25.520  38.506   9.129
  473POPC   GL2 8798  25.203  38.594   9.000
  473POPC   C1A 8799  25.584  38.439   8.686
  473POPC   D2A 8800  25.476  38.099   8.417
  473POPC   C3A 8801  25.226  38.263   8.076
  473POPC   C4A 8802  25.434  38.226   7.673
  473POPC   C1B 8803  25.066  38.261   8.726
  473POPC   C2B 8804  24.777  38.320   8.371
  473POPC   C3B 8805  24.718  38.154   7.975
  473POPC   C4B 8806  24.945  38.312   7.618
  474POPC   NC3 8807  22.778  33.169   9.905
  474POPC   PO4 8808  23.285  32.846   9.449
  474POPC   GL1 8809  23.114  32.918   9.047
  474POPC   GL2 8810  23.190  33.240   9.007
  474POPC   C1A 8811  22.805  32.968   8.709
  474POPC   D2A 8812  22.658  32.839   8.296
  474POPC   C3A 8813  22.996  32.723   7.964
  474POPC   C4A 8814  23.045  32.668   7.504
  474POPC   C1B 8815  23.260  33.213   8.562
  474POPC   C2B 8816  23.018  33.193   8.199
  474POPC   C3B 8817  23.077  33.193   7.754
  474POPC   C4B 8818  22.770  33.480   7.615
  475POPC   NC3 8819   9.199   2.883   9.491
  475POPC   PO4 8820   9.049   2.304   9.312
  475POPC   GL1 8821   8.821   2.664   9.116
  475POPC   GL2 8822   9.056   2.956   9.018
  475POPC   C1A 8823   8.724   2.756   8.678
  475POPC   D2A 8824   9.062   2.823   8.409
  475POPC   C3A 8825   9.003   2.499   8.149
  475POPC   C4A 8826   9.115   2.526   7.741
  475POPC   C1B 8827   9.391   3.106   8.749
  475POPC   C2B 8828   9.443   3.220   8.339
  475POPC   C3B 8829   9.329   2.976   7.966
  475POPC   C4B 8830   9.152   3.048   7.545
  476POPC   NC3 8831  11.706   4.939   9.541
  476POPC   PO4 8832  12.304   4.951   9.635
  476POPC   GL1 8833  12.086   4.931   9.190
  476POPC   GL2 8834  11.840   4.664   9.116
  476POPC   C1A 8835  12.011   5.125   8.756
  476POPC   D2A 8836  11.800   5.146   8.331
  476POPC   C3A 8837  11.917   5.272   7.884
  476POPC   C4A 8838  12.122   5.146   7.457
  476POPC   C1B 8839  12.013   4.605   8.687
  476POPC   C2B 8840  12.043   4.669   8.242
  476POPC   C3B 8841  12.052   4.792   7.822
  476POPC   C4B 8842  12.026   4.611   7.413
  477POPC   NC3 8843  33.816  10.137   9.459
  477POPC   PO4 8844  33.758  10.835   9.354
  477POPC   GL1 8845  33.976  10.527   9.205
  477POPC   GL2 8846  33.629  10.392   9.077
  477POPC   C1A 8847  34.043  10.469   8.810
  477POPC   D2A 8848  33.935  10.310   8.450
  477POPC   C3A 8849  33.799  10.679   8.207
  477POPC   C4A 8850  34.051  10.649   7.862
  477POPC   C1B 8851  33.557  10.586   8.676
  477POPC   C2B 8852  33.453  10.305   8.316
  477POPC   C3B 8853  33.750  10.220   7.970
  477POPC   C4B 8854  33.648  10.469   7.611
  478POPC   NC3 8855  17.437  26.591   9.432
  478POPC   PO4 8856  17.998  26.953   9.476
  478POPC   GL1 8857  17.717  26.954   9.127
  478POPC   GL2 8858  17.383  27.072   9.077
  478POPC   C1A 8859  17.592  26.712   8.772
  478POPC   D2A 8860  17.362  26.599   8.401
  478POPC   C3A 8861  17.543  26.666   7.989
  478POPC   C4A 8862  17.895  26.378   7.933
  478POPC   C1B 8863  17.125  26.917   8.750
  478POPC   C2B 8864  16.920  26.845   8.375
  478POPC   C3B 8865  16.997  26.660   8.000
  478POPC   C4B 8866  17.042  26.874   7.630
  479POPC   NC3 8867  16.650  28.762   9.601
  479POPC   PO4 8868  16.406  29.329   9.413
  479POPC   GL1 8869  16.757  29.279   9.195
  479POPC   GL2 8870  16.883  28.964   9.203
  479POPC   C1A 8871  16.868  29.341   8.783
  479POPC   D2A 8872  16.867  29.378   8.339
  479POPC   C3A 8873  16.736  29.163   7.977
  479POPC   C4A 8874  16.987  29.200   7.612
  479POPC   C1B 8875  16.595  28.918   8.844
  479POPC   C2B 8876  16.594  28.916   8.417
  479POPC   C3B 8877  16.851  28.661   8.148
  479POPC   C4B 8878  16.819  28.720   7.733
  480POPC   NC3 8879  20.229  26.830   9.495
  480POPC   PO4 8880  19.679  27.011   9.143
  480POPC   GL1 8881  19.990  26.965   8.924
  480POPC   GL2 8882  19.992  26.592   9.042
  480POPC   C1A 8883  19.812  27.208   8.531
  480POPC   D2A 8884  19.711  27.439   8.147
  480POPC   C3A 8885  19.743  27.152   7.839
  480POPC   C4A 8886  20.112  26.940   7.736
  480POPC   C1B 8887  19.900  26.636   8.563
  480POPC   C2B 8888  20.117  26.627   8.177
  480POPC   C3B 8889  19.835  26.545   7.883
  480POPC   C4B 8890  19.497  26.718   7.682
  481POPC   NC3 8891  18.768  38.727   9.420
  481POPC   PO4 8892  18.082  38.600   9.491
  481POPC   GL1 8893  18.237  38.402   9.138
  481POPC   GL2 8894  18.562  38.220   9.202
  481POPC   C1A 8895  18.053  38.372   8.731
  481POPC   D2A 8896  18.226  38.515   8.356
  481POPC   C3A 8897  18.175  38.371   7.952
  481POPC   C4A 8898  18.291  38.733   7.710
  481POPC   C1B 8899  18.564  38.430   8.768
  481POPC   C2B 8900  18.693  38.277   8.409
  481POPC   C3B 8901  18.670  38.513   8.064
  481POPC   C4B 8902  18.648  38.368   7.693
  482POPC   NC3 8903  15.946   7.034   9.599
  482POPC   PO4 8904  16.207   6.428   9.675
  482POPC   GL1 8905  15.987   6.640   9.254
  482POPC   GL2 8906  16.136   6.874   8.971
  482POPC   C1A 8907  15.774   6.609   8.791
  482POPC   D2A 8908  16.019   6.785   8.413
  482POPC   C3A 8909  16.011   6.596   7.960
  482POPC   C4A 8910  15.616   6.553   7.654
  482POPC   C1B 8911  16.219   7.204   8.668
  482POPC   C2B 8912  16.266   7.241   8.219
  482POPC   C3B 8913  16.356   7.006   7.830
  482POPC   C4B 8914  16.308   6.843   7.404
  483POPC   NC3 8915   4.348  35.512   9.444
  483POPC   PO4 8916   3.964  35.186   9.070
  483POPC   GL1 8917   4.060  35.622   9.011
  483POPC   GL2 8918   4.436  35.541   8.944
  483POPC   C1A 8919   3.925  35.677   8.602
  483POPC   D2A 8920   4.276  35.422   8.461
  483POPC   C3A 8921   4.378  35.403   8.058
  483POPC   C4A 8922   4.213  35.339   7.652
  483POPC   C1B 8923   4.711  35.233   8.724
  483POPC   C2B 8924   4.750  35.090   8.272
  483POPC   C3B 8925   4.536  34.965   7.870
  483POPC   C4B 8926   4.517  34.995   7.423
  484POPC   NC3 8927  43.915  17.753   9.634
  484POPC   PO4 8928  44.105  18.508   9.515
  484POPC   GL1 8929  44.180  18.218   9.204
  484POPC   GL2 8930  43.859  18.069   9.171
  484POPC   C1A 8931  44.127  18.355   8.787
  484POPC   D2A 8932  43.914  18.519   8.419
  484POPC   C3A 8933  43.901  18.176   8.124
  484POPC   C4A 8934  44.077  18.010   7.750
  484POPC   C1B 8935  43.660  18.043   8.735
  484POPC   C2B 8936  43.530  17.849   8.313
  484POPC   C3B 8937  43.442  17.987   7.908
  484POPC   C4B 8938  43.651  18.209   7.576
  485POPC   NC3 8939   0.924  26.233   9.570
  485POPC   PO4 8940   1.088  25.560   9.497
  485POPC   GL1 8941   1.070  25.833   9.179
  485POPC   GL2 8942   0.811  26.064   9.097
  485POPC   C1A 8943   1.293  25.933   8.826
  485POPC   D2A 8944   1.490  26.028   8.446
  485POPC   C3A 8945   1.271  26.034   8.078
  485POPC   C4A 8946   1.423  25.918   7.697
  485POPC   C1B 8947   0.798  25.821   8.744
  485POPC   C2B 8948   0.987  25.717   8.358
  485POPC   C3B 8949   0.891  25.707   7.897
  485POPC   C4B 8950   0.965  25.834   7.457
  486POPC   NC3 8951   0.592   9.884   9.721
  486POPC   PO4 8952   1.303   9.780   9.471
  486POPC   GL1 8953   1.210   9.753   9.068
  486POPC   GL2 8954   0.854   9.687   9.098
  486POPC   C1A 8955   1.297   9.633   8.657
  486POPC   D2A 8956   1.203   9.794   8.279
  486POPC   C3A 8957   1.261   9.558   7.963
  486POPC   C4A 8958   0.884   9.509   7.832
  486POPC   C1B 8959   0.875   9.954   8.707
  486POPC   C2B 8960   0.725  10.072   8.293
  486POPC   C3B 8961   0.937  10.024   7.902
  486POPC   C4B 8962   0.930   9.861   7.478
  487POPC   NC3 8963  11.836  30.187   9.495
  487POPC   PO4 8964  12.344  29.747   9.438
  487POPC   GL1 8965  12.248  29.937   9.057
  487POPC   GL2 8966  12.493  30.205   9.053
  487POPC   C1A 8967  12.121  29.867   8.621
  487POPC   D2A 8968  12.313  29.746   8.247
  487POPC   C3A 8969  12.083  29.631   7.875
  487POPC   C4A 8970  12.282  29.603   7.460
  487POPC   C1B 8971  12.294  30.348   8.703
  487POPC   C2B 8972  12.267  30.281   8.305
  487POPC   C3B 8973  12.246  30.144   7.902
  487POPC   C4B 8974  11.931  30.046   7.624
  488POPC   NC3 8975  28.318  30.570   9.462
  488POPC   PO4 8976  28.899  31.078   9.537
  488POPC   GL1 8977  28.444  31.005   9.236
  488POPC   GL2 8978  28.420  30.734   8.987
  488POPC   C1A 8979  28.104  31.066   8.845
  488POPC   D2A 8980  28.209  30.812   8.501
  488POPC   C3A 8981  28.226  30.837   8.063
  488POPC   C4A 8982  28.214  30.675   7.634
  488POPC   C1B 8983  28.564  30.482   8.662
  488POPC   C2B 8984  28.631  30.570   8.244
  488POPC   C3B 8985  28.622  30.489   7.835
  488POPC   C4B 8986  28.781  30.126   7.622
  489POPC   NC3 8987  13.738  42.394   9.487
  489POPC   PO4 8988  13.173  41.934   9.726
  489POPC   GL1 8989  13.446  42.040   9.281
  489POPC   GL2 8990  13.417  42.392   9.094
  489POPC   C1A 8991  13.651  42.032   8.844
  489POPC   D2A 8992  13.514  42.260   8.474
  489POPC   C3A 8993  13.682  42.178   8.068
  489POPC   C4A 8994  13.394  42.111   7.724
  489POPC   C1B 8995  13.714  42.617   8.795
  489POPC   C2B 8996  13.668  42.751   8.320
  489POPC   C3B 8997  13.495  42.615   7.888
  489POPC   C4B 8998  13.551  42.566   7.434
  490POPC   NC3 8999  38.502  35.446   9.495
  490POPC   PO4 9000  38.005  35.033   9.528
  490POPC   GL1 9001  38.239  35.168   9.119
  490POPC   GL2 9002  38.489  35.395   9.010
  490POPC   C1A 9003  38.162  35.331   8.662
  490POPC   D2A 9004  38.328  35.517   8.291
  490POPC   C3A 9005  38.170  35.288   7.959
  490POPC   C4A 9006  38.250  35.417   7.559
  490POPC   C1B 9007  38.663  35.160   8.680
  490POPC   C2B 9008  38.801  35.318   8.280
  490POPC   C3B 9009  38.683  35.415   7.857
  490POPC   C4B 9010  38.871  35.417   7.434
  491POPC   NC3 9011  40.150  39.594   9.383
  491POPC   PO4 9012  40.084  38.945   9.361
  491POPC   GL1 9013  39.894  39.242   9.055
  491POPC   GL2 9014  39.626  39.054   8.936
  491POPC   C1A 9015  39.734  39.428   8.621
  491POPC   D2A 9016  39.620  39.450   8.156
  491POPC   C3A 9017  39.959  39.382   7.844
  491POPC   C4A 9018  40.176  39.521   7.438
  491POPC   C1B 9019  39.970  38.923   8.674
  491POPC   C2B 9020  39.945  39.074   8.289
  491POPC   C3B 9021  39.716  38.960   7.976
  491POPC   C4B 9022  39.912  38.914   7.628
  492POPC   NC3 9023   2.474  17.820   9.386
  492POPC   PO4 9024   2.783  18.499   9.483
  492POPC   GL1 9025   2.745  18.407   9.100
  492POPC   GL2 9026   2.536  18.727   9.071
  492POPC   C1A 9027   2.856  18.103   8.754
  492POPC   D2A 9028   2.689  17.863   8.378
  492POPC   C3A 9029   2.808  17.874   7.964
  492POPC   C4A 9030   2.966  18.232   7.814
  492POPC   C1B 9031   2.654  18.596   8.654
  492POPC   C2B 9032   2.718  18.407   8.256
  492POPC   C3B 9033   2.765  18.667   7.889
  492POPC   C4B 9034   2.611  18.629   7.473
  493POPC   NC3 9035   6.334  26.600   9.438
  493POPC   PO4 9036   7.043  26.563   9.424
  493POPC   GL1 9037   6.911  26.646   9.030
  493POPC   GL2 9038   6.577  26.719   9.012
  493POPC   C1A 9039   6.871  26.846   8.617
  493POPC   D2A 9040   6.591  26.804   8.254
  493POPC   C3A 9041   6.861  26.878   7.885
  493POPC   C4A 9042   6.862  26.788   7.433
  493POPC   C1B 9043   6.258  26.484   8.809
  493POPC   C2B 9044   6.121  26.507   8.423
  493POPC   C3B 9045   6.275  26.452   8.019
  493POPC   C4B 9046   6.391  26.746   7.737
  494POPC   NC3 9047  36.976   3.981   9.485
  494POPC   PO4 9048  36.817   4.613   9.512
  494POPC   GL1 9049  36.803   4.360   9.139
  494POPC   GL2 9050  37.133   4.283   9.081
  494POPC   C1A 9051  36.749   4.567   8.744
  494POPC   D2A 9052  36.690   4.390   8.332
  494POPC   C3A 9053  36.868   4.631   7.980
  494POPC   C4A 9054  36.901   4.520   7.554
  494POPC   C1B 9055  36.981   4.113   8.668
  494POPC   C2B 9056  37.044   3.962   8.227
  494POPC   C3B 9057  37.099   4.067   7.767
  494POPC   C4B 9058  37.154   4.173   7.298
  495POPC   NC3 9059  12.795  26.027   9.511
  495POPC   PO4 9060  12.412  25.566   9.446
  495POPC   GL1 9061  12.727  25.773   9.079
  495POPC   GL2 9062  13.030  26.062   9.058
  495POPC   C1A 9063  12.874  25.847   8.640
  495POPC   D2A 9064  12.770  25.880   8.212
  495POPC   C3A 9065  12.450  26.160   8.073
  495POPC   C4A 9066  12.629  26.139   7.685
  495POPC   C1B 9067  13.188  26.252   8.649
  495POPC   C2B 9068  13.338  26.115   8.218
  495POPC   C3B 9069  13.214  26.107   7.759
  495POPC   C4B 9070  13.343  26.432   7.429
  496POPC   NC3 9071  18.796   8.434   9.872
  496POPC   PO4 9072  19.245   7.931   9.525
  496POPC   GL1 9073  19.294   8.031   9.101
  496POPC   GL2 9074  18.967   8.259   9.113
  496POPC   C1A 9075  19.294   8.188   8.676
  496POPC   D2A 9076  19.022   8.360   8.351
  496POPC   C3A 9077  19.014   8.302   7.877
  496POPC   C4A 9078  19.317   8.061   7.683
  496POPC   C1B 9079  18.842   7.935   8.893
  496POPC   C2B 9080  18.937   7.847   8.483
  496POPC   C3B 9081  18.722   7.971   8.142
  496POPC   C4B 9082  18.571   7.943   7.754
  497POPC   NC3 9083  19.260  27.024   9.341
  497POPC   PO4 9084  18.873  26.476   9.394
  497POPC   GL1 9085  19.012  26.607   9.012
  497POPC   GL2 9086  19.044  26.949   8.904
  497POPC   C1A 9087  18.771  26.618   8.635
  497POPC   D2A 9088  19.028  26.530   8.309
  497POPC   C3A 9089  18.914  26.758   7.990
  497POPC   C4A 9090  18.994  26.613   7.599
  497POPC   C1B 9091  19.241  27.234   8.611
  497POPC   C2B 9092  19.259  27.173   8.139
  497POPC   C3B 9093  19.148  27.105   7.697
  497POPC   C4B 9094  19.282  26.938   7.269
  498POPC   NC3 9095   4.052   9.708   9.583
  498POPC   PO4 9096   4.710   9.571   9.495
  498POPC   GL1 9097   4.370   9.615   9.180
  498POPC   GL2 9098   4.111   9.361   9.145
  498POPC   C1A 9099   4.138   9.706   8.760
  498POPC   D2A 9100   4.262   9.858   8.377
  498POPC   C3A 9101   4.074   9.828   7.963
  498POPC   C4A 9102   4.268  10.008   7.608
  498POPC   C1B 9103   4.450   9.312   8.786
  498POPC   C2B 9104   4.682   9.492   8.433
  498POPC   C3B 9105   4.652   9.320   8.010
  498POPC   C4B 9106   4.432   9.494   7.681
  499POPC   NC3 9107  33.096  29.974   9.694
  499POPC   PO4 9108  32.536  29.994   9.441
  499POPC   GL1 9109  32.936  30.164   9.235
  499POPC   GL2 9110  33.128  29.859   9.190
  499POPC   C1A 9111  33.137  30.200   8.796
  499POPC   D2A 9112  33.117  29.881   8.432
  499POPC   C3A 9113  33.286  29.995   8.051
  499POPC   C4A 9114  33.017  30.123   7.713
  499POPC   C1B 9115  32.780  29.839   8.833
  499POPC   C2B 9116  32.574  29.924   8.396
  499POPC   C3B 9117  32.675  29.800   7.961
  499POPC   C4B 9118  33.048  29.554   7.934
  500POPC   NC3 9119  22.541  23.636   9.664
  500POPC   PO4 9120  22.138  24.040   9.271
  500POPC   GL1 9121  22.407  23.840   9.035
  500POPC   GL2 9122  22.384  23.516   9.154
  500POPC   C1A 9123  22.253  23.888   8.656
  500POPC   D2A 9124  22.207  24.112   8.363
  500POPC   C3A 9125  22.004  23.888   8.058
  500POPC   C4A 9126  22.118  24.017   7.711
  500POPC   C1B 9127  22.452  23.434   8.707
  500POPC   C2B 9128  22.142  23.472   8.336
  500POPC   C3B 9129  22.154  23.427   7.870
  500POPC   C4B 9130  22.549  23.317   7.684
  501POPC   NC3 9131   6.645  32.640   9.800
  501POPC   PO4 9132   6.310  32.059   9.565
  501POPC   GL1 9133   6.392  32.120   9.143
  501POPC   GL2 9134   6.668  32.320   9.188
  501POPC   C1A 9135   6.515  32.035   8.731
  501POPC   D2A 9136   6.658  32.225   8.361
  501POPC   C3A 9137   6.462  32.069   8.004
  501POPC   C4A 9138   6.720  32.038   7.688
  501POPC   C1B 9139   6.737  32.524   8.786
  501POPC   C2B 9140   6.562  32.785   8.475
  501POPC   C3B 9141   6.445  32.608   8.088
  501POPC   C4B 9142   6.447  32.478   7.656
  502POPC   NC3 9143  29.431   6.391   9.627
  502POPC   PO4 9144  28.862   6.228   9.653
  502POPC   GL1 9145  29.103   6.561   9.265
  502POPC   GL2 9146  29.403   6.667   9.082
  502POPC   C1A 9147  29.004   6.728   8.788
  502POPC   D2A 9148  28.943   6.494   8.398
  502POPC   C3A 9149  29.005   6.651   7.986
  502POPC   C4A 9150  28.817   6.535   7.565
  502POPC   C1B 9151  29.454   6.936   8.690
  502POPC   C2B 9152  29.396   6.878   8.235
  502POPC   C3B 9153  29.408   6.849   7.755
  502POPC   C4B 9154  29.302   7.069   7.381
  503POPC   NC3 9155  21.107   7.499   9.486
  503POPC   PO4 9156  21.710   7.179   9.723
  503POPC   GL1 9157  21.544   7.323   9.240
  503POPC   GL2 9158  21.193   7.198   9.104
  503POPC   C1A 9159  21.485   7.437   8.761
  503POPC   D2A 9160  21.439   7.668   8.333
  503POPC   C3A 9161  21.700   7.598   7.949
  503POPC   C4A 9162  21.569   7.397   7.542
  503POPC   C1B 9163  21.043   7.123   8.701
  503POPC   C2B 9164  21.333   6.997   8.388
  503POPC   C3B 9165  21.392   7.169   7.992
  503POPC   C4B 9166  21.094   7.175   7.664
  504POPC   NC3 9167  35.541  14.145   9.432
  504POPC   PO4 9168  35.112  14.666   9.634
  504POPC   GL1 9169  35.264  14.575   9.188
  504POPC   GL2 9170  35.095  14.849   9.088
  504POPC   C1A 9171  35.404  14.283   8.813
  504POPC   D2A 9172  35.232  13.942   8.552
  504POPC   C3A 9173  35.233  13.992   8.103
  504POPC   C4A 9174  35.480  14.188   7.762
  504POPC   C1B 9175  35.266  14.771   8.689
  504POPC   C2B 9176  35.620  14.635   8.465
  504POPC   C3B 9177  35.625  14.652   8.030
  504POPC   C4B 9178  35.286  14.868   7.812
  505POPC   NC3 9179  14.328   8.634   9.572
  505POPC   PO4 9180  14.484   8.091   9.857
  505POPC   GL1 9181  14.419   8.142   9.317
  505POPC   GL2 9182  14.342   8.414   9.140
  505POPC   C1A 9183  14.533   8.072   8.848
  505POPC   D2A 9184  14.515   8.274   8.451
  505POPC   C3A 9185  14.414   8.019   8.118
  505POPC   C4A 9186  14.684   7.930   7.800
  505POPC   C1B 9187  14.238   8.659   8.854
  505POPC   C2B 9188  14.177   8.658   8.470
  505POPC   C3B 9189  14.131   8.666   8.050
  505POPC   C4B 9190  14.344   8.408   7.773
  506POPC   NC3 9191  42.998  18.153   9.636
  506POPC   PO4 9192  42.232  18.274   9.605
  506POPC   GL1 9193  42.188  18.208   9.169
  506POPC   GL2 9194  42.410  18.427   9.003
  506POPC   C1A 9195  42.108  18.174   8.716
  506POPC   D2A 9196  42.290  18.081   8.300
  506POPC   C3A 9197  42.111  18.266   7.905
  506POPC   C4A 9198  42.198  18.114   7.472
  506POPC   C1B 9199  42.621  18.427   8.642
  506POPC   C2B 9200  42.920  18.478   8.342
  506POPC   C3B 9201  42.631  18.435   8.021
  506POPC   C4B 9202  42.491  18.499   7.631
  507POPC   NC3 9203  34.516  44.115   9.603
  507POPC   PO4 9204  35.088  44.075   9.450
  507POPC   GL1 9205  34.778  43.930   9.196
  507POPC   GL2 9206  34.718  44.202   8.992
  507POPC   C1A 9207  34.529  43.752   8.840
  507POPC   D2A 9208  34.607  43.631   8.385
  507POPC   C3A 9209  34.426  43.714   8.002
  507POPC   C4A 9210  34.649  43.704   7.676
  507POPC   C1B 9211  34.684  44.124   8.532
  507POPC   C2B 9212  34.422  44.186   8.182
  507POPC   C3B 9213  34.438  44.179   7.737
  507POPC   C4B 9214  34.600  44.490   7.433
  508POPC   NC3 9215   9.928  34.132   9.716
  508POPC   PO4 9216   9.418  33.694   9.507
  508POPC   GL1 9217   9.714  33.709   9.192
  508POPC   GL2 9218   9.933  33.436   9.150
  508POPC   C1A 9219   9.640  33.775   8.774
  508POPC   D2A 9220   9.644  34.113   8.485
  508POPC   C3A 9221   9.860  34.012   8.132
  508POPC   C4A 9222   9.823  33.962   7.715
  508POPC   C1B 9223  10.031  33.372   8.737
  508POPC   C2B 9224   9.765  33.467   8.388
  508POPC   C3B 9225   9.807  33.510   7.992
  508POPC   C4B 9226  10.075  33.204   7.831
  509POPC   NC3 9227  34.046   4.922   9.472
  509POPC   PO4 9228  33.413   5.141   9.566
  509POPC   GL1 9229  33.647   5.043   9.169
  509POPC   GL2 9230  33.767   5.375   9.055
  509POPC   C1A 9231  33.784   4.922   8.744
  509POPC   D2A 9232  33.841   5.117   8.331
  509POPC   C3A 9233  33.942   4.881   7.952
  509POPC   C4A 9234  33.850   5.031   7.534
  509POPC   C1B 9235  33.447   5.306   8.708
  509POPC   C2B 9236  33.431   5.444   8.268
  509POPC   C3B 9237  33.503   5.161   7.910
  509POPC   C4B 9238  33.388   5.202   7.463
  510POPC   NC3 9239  39.320   8.443   9.502
  510POPC   PO4 9240  39.342   7.759   9.623
  510POPC   GL1 9241  39.217   7.993   9.188
  510POPC   GL2 9242  38.962   8.260   9.198
  510POPC   C1A 9243  39.446   8.037   8.749
  510POPC   D2A 9244  39.586   8.264   8.455
  510POPC   C3A 9245  39.527   8.072   8.070
  510POPC   C4A 9246  39.454   8.441   7.926
  510POPC   C1B 9247  39.040   8.338   8.768
  510POPC   C2B 9248  39.057   8.177   8.336
  510POPC   C3B 9249  38.998   8.172   7.869
  510POPC   C4B 9250  38.739   7.844   7.706
  511POPC   NC3 9251  44.733  22.532   9.343
  511POPC   PO4 9252  44.823  21.843   9.488
  511POPC   GL1 9253  44.597  22.019   9.146
  511POPC   GL2 9254  44.477  21.717   8.980
  511POPC   C1A 9255  44.443  22.211   8.753
  511POPC   D2A 9256  44.411  22.030   8.355
  511POPC   C3A 9257  44.490  22.271   7.965
  511POPC   C4A 9258  44.613  22.196   7.521
  511POPC   C1B 9259  44.758  21.665   8.634
  511POPC   C2B 9260  44.843  21.796   8.216
  511POPC   C3B 9261  44.919  21.909   7.808
  511POPC   C4B 9262  44.915  21.807   7.331
  512POPC   NC3 9263  43.368  22.440   9.265
  512POPC   PO4 9264  43.119  21.854   9.583
  512POPC   GL1 9265  42.954  22.114   9.208
  512POPC   GL2 9266  42.813  22.432   9.124
  512POPC   C1A 9267  42.928  22.115   8.732
  512POPC   D2A 9268  43.252  22.002   8.410
  512POPC   C3A 9269  43.173  22.047   7.951
  512POPC   C4A 9270  43.488  21.789   7.780
  512POPC   C1B 9271  42.900  22.629   8.699
  512POPC   C2B 9272  42.964  22.405   8.294
  512POPC   C3B 9273  42.850  22.487   7.878
  512POPC   C4B 9274  42.908  22.338   7.475
  513POPC   NC3 9275  35.188  19.129   9.546
  513POPC   PO4 9276  35.800  18.970   9.452
  513POPC   GL1 9277  35.622  19.226   9.113
  513POPC   GL2 9278  35.292  19.286   9.093
  513POPC   C1A 9279  35.521  19.245   8.634
  513POPC   D2A 9280  35.356  19.065   8.285
  513POPC   C3A 9281  35.398  19.163   7.861
  513POPC   C4A 9282  35.625  18.800   7.846
  513POPC   C1B 9283  35.031  19.365   8.783
  513POPC   C2B 9284  35.019  19.468   8.378
  513POPC   C3B 9285  34.917  19.178   8.065
  513POPC   C4B 9286  34.868  19.254   7.658
  514POPC   NC3 9287  10.336  10.777   9.504
  514POPC   PO4 9288  10.704  10.231   9.578
  514POPC   GL1 9289  10.585  10.375   9.180
  514POPC   GL2 9290  10.581  10.703   9.070
  514POPC   C1A 9291  10.671  10.329   8.729
  514POPC   D2A 9292  10.414  10.329   8.361
  514POPC   C3A 9293  10.489  10.520   7.969
  514POPC   C4A 9294  10.645  10.350   7.612
  514POPC   C1B 9295  10.379  10.855   8.674
  514POPC   C2B 9296  10.310  10.958   8.206
  514POPC   C3B 9297  10.079  10.808   7.800
  514POPC   C4B 9298  10.300  10.667   7.399
  515POPC   NC3 9299  19.120   9.251   9.396
  515POPC   PO4 9300  18.809   8.624   9.445
  515POPC   GL1 9301  19.001   8.805   9.082
  515POPC   GL2 9302  19.278   8.636   8.952
  515POPC   C1A 9303  18.844   8.866   8.625
  515POPC   D2A 9304  18.831   8.773   8.154
  515POPC   C3A 9305  18.920   8.971   7.763
  515POPC   C4A 9306  19.174   9.325   7.680
  515POPC   C1B 9307  19.322   9.032   8.744
  515POPC   C2B 9308  19.212   9.137   8.339
  515POPC   C3B 9309  19.346   8.898   8.016
  515POPC   C4B 9310  19.317   8.674   7.655
  516POPC   NC3 9311  13.844  23.786   9.502
  516POPC   PO4 9312  13.173  24.099   9.521
  516POPC   GL1 9313  13.407  23.808   9.237
  516POPC   GL2 9314  13.716  24.018   9.081
  516POPC   C1A 9315  13.553  23.614   8.844
  516POPC   D2A 9316  13.699  23.848   8.495
  516POPC   C3A 9317  13.490  23.823   8.101
  516POPC   C4A 9318  13.377  23.557   7.746
  516POPC   C1B 9319  13.972  24.224   8.758
  516POPC   C2B 9320  14.167  24.040   8.372
  516POPC   C3B 9321  13.963  24.056   7.967
  516POPC   C4B 9322  13.625  24.017   7.645
  517POPC   NC3 9323  12.961  27.852   9.573
  517POPC   PO4 9324  12.638  27.400   9.402
  517POPC   GL1 9325  12.858  27.589   9.100
  517POPC   GL2 9326  12.706  27.878   9.121
  517POPC   C1A 9327  12.810  27.574   8.670
  517POPC   D2A 9328  12.455  27.443   8.460
  517POPC   C3A 9329  12.627  27.363   8.049
  517POPC   C4A 9330  12.870  27.514   7.707
  517POPC   C1B 9331  12.430  27.850   8.817
  517POPC   C2B 9332  12.458  27.959   8.413
  517POPC   C3B 9333  12.712  27.858   8.079
  517POPC   C4B 9334  12.751  28.017   7.681
  518POPC   NC3 9335  18.424   9.340   9.576
  518POPC   PO4 9336  18.193   8.748   9.642
  518POPC   GL1 9337  18.233   8.853   9.194
  518POPC   GL2 9338  18.539   9.034   9.160
  518POPC   C1A 9339  18.331   8.679   8.774
  518POPC   D2A 9340  18.155   8.775   8.356
  518POPC   C3A 9341  18.057   8.561   7.980
  518POPC   C4A 9342  18.109   8.712   7.555
  518POPC   C1B 9343  18.437   9.219   8.755
  518POPC   C2B 9344  18.499   9.125   8.318
  518POPC   C3B 9345  18.422   8.966   7.885
  518POPC   C4B 9346  18.526   9.010   7.412
  519POPC   NC3 9347  38.198  33.865   9.570
  519POPC   PO4 9348  38.839  34.151   9.431
  519POPC   GL1 9349  38.706  33.912   9.095
  519POPC   GL2 9350  38.432  33.670   9.156
  519POPC   C1A 9351  38.539  33.883   8.717
  519POPC   D2A 9352  38.323  34.055   8.427
  519POPC   C3A 9353  38.718  34.078   8.231
  519POPC   C4A 9354  38.792  34.145   7.795
  519POPC   C1B 9355  38.309  33.448   8.744
  519POPC   C2B 9356  38.510  33.555   8.324
  519POPC   C3B 9357  38.396  33.804   7.958
  519POPC   C4B 9358  38.117  33.651   7.645
  520POPC   NC3 9359  14.704  22.451   9.573
  520POPC   PO4 9360  15.260  21.998   9.662
  520POPC   GL1 9361  15.154  22.133   9.224
  520POPC   GL2 9362  14.785  22.142   9.134
  520POPC   C1A 9363  15.405  22.174   8.819
  520POPC   D2A 9364  15.539  22.043   8.401
  520POPC   C3A 9365  15.343  22.146   8.021
  520POPC   C4A 9366  15.081  22.432   7.787
  520POPC   C1B 9367  14.911  22.052   8.693
  520POPC   C2B 9368  14.938  21.881   8.265
  520POPC   C3B 9369  14.944  21.906   7.806
  520POPC   C4B 9370  14.992  21.989   7.356
  521POPC   NC3 9371  29.272  17.340   9.661
  521POPC   PO4 9372  29.560  17.957   9.543
  521POPC   GL1 9373  29.427  17.597   9.257
  521POPC   GL2 9374  29.154  17.339   9.167
  521POPC   C1A 9375  29.415  17.603   8.800
  521POPC   D2A 9376  29.152  17.773   8.478
  521POPC   C3A 9377  29.312  17.590   8.121
  521POPC   C4A 9378  29.385  17.456   7.750
  521POPC   C1B 9379  28.925  17.421   8.777
  521POPC   C2B 9380  28.985  17.273   8.351
  521POPC   C3B 9381  28.900  17.309   7.888
  521POPC   C4B 9382  28.728  17.133   7.484
  522POPC   NC3 9383  42.095  20.516   9.358
  522POPC   PO4 9384  41.497  20.621   9.618
  522POPC   GL1 9385  41.478  20.476   9.219
  522POPC   GL2 9386  41.204  20.722   9.185
  522POPC   C1A 9387  41.487  20.583   8.787
  522POPC   D2A 9388  41.688  20.390   8.441
  522POPC   C3A 9389  41.779  20.545   8.051
  522POPC   C4A 9390  41.614  20.729   7.661
  522POPC   C1B 9391  41.079  20.948   8.815
  522POPC   C2B 9392  41.187  20.840   8.394
  522POPC   C3B 9393  41.282  20.610   8.034
  522POPC   C4B 9394  41.184  20.441   7.611
  523POPC   NC3 9395  23.915  20.890   9.509
  523POPC   PO4 9396  23.261  20.832   9.574
  523POPC   GL1 9397  23.537  20.612   9.229
  523POPC   GL2 9398  23.810  20.342   9.209
  523POPC   C1A 9399  23.693  20.661   8.796
  523POPC   D2A 9400  23.456  20.690   8.408
  523POPC   C3A 9401  23.638  20.774   8.029
  523POPC   C4A 9402  23.453  20.515   7.738
  523POPC   C1B 9403  23.999  20.255   8.779
  523POPC   C2B 9404  23.965  20.449   8.377
  523POPC   C3B 9405  23.761  20.244   8.057
  523POPC   C4B 9406  23.915  20.095   7.666
  524POPC   NC3 9407   6.105  10.734   9.334
  524POPC   PO4 9408   5.524  10.711   9.708
  524POPC   GL1 9409   5.653  10.689   9.191
  524POPC   GL2 9410   5.839  10.406   9.055
  524POPC   C1A 9411   5.650  10.761   8.752
  524POPC   D2A 9412   5.720  10.466   8.422
  524POPC   C3A 9413   5.628  10.615   8.020
  524POPC   C4A 9414   5.754  10.810   7.652
  524POPC   C1B 9415   6.154  10.539   8.727
  524POPC   C2B 9416   6.202  10.614   8.279
  524POPC   C3B 9417   6.098  10.465   7.848
  524POPC   C4B 9418   6.153  10.624   7.406
  525POPC   NC3 9419  43.826  27.672   9.684
  525POPC   PO4 9420  44.432  27.502   9.488
  525POPC   GL1 9421  44.202  27.524   9.122
  525POPC   GL2 9422  43.835  27.462   9.177
  525POPC   C1A 9423  44.051  27.492   8.699
  525POPC   D2A 9424  44.192  27.501   8.262
  525POPC   C3A 9425  43.937  27.763   8.053
  525POPC   C4A 9426  43.677  27.816   7.719
  525POPC   C1B 9427  43.597  27.243   8.814
  525POPC   C2B 9428  43.389  27.298   8.391
  525POPC   C3B 9429  43.446  27.309   7.940
  525POPC   C4B 9430  43.846  27.299   7.773
  526POPC   NC3 9431  35.559   8.187   9.526
  526POPC   PO4 9432  34.916   8.042   9.427
  526POPC   GL1 9433  35.239   8.267   9.131
  526POPC   GL2 9434  35.591   8.149   9.044
  526POPC   C1A 9435  35.347   8.461   8.732
  526POPC   D2A 9436  35.084   8.567   8.406
  526POPC   C3A 9437  35.273   8.446   8.037
  526POPC   C4A 9438  35.173   8.179   7.708
  526POPC   C1B 9439  35.646   7.983   8.692
  526POPC   C2B 9440  35.326   7.951   8.419
  526POPC   C3B 9441  35.391   7.844   8.021
  526POPC   C4B 9442  35.698   8.093   7.801
  527POPC   NC3 9443  19.001  30.628   9.686
  527POPC   PO4 9444  18.985  29.890   9.644
  527POPC   GL1 9445  19.066  29.826   9.233
  527POPC   GL2 9446  19.003  30.180   9.227
  527POPC   C1A 9447  19.137  29.612   8.850
  527POPC   D2A 9448  18.973  29.841   8.474
  527POPC   C3A 9449  19.054  29.774   8.051
  527POPC   C4A 9450  19.112  29.610   7.629
  527POPC   C1B 9451  19.062  30.220   8.833
  527POPC   C2B 9452  18.782  30.315   8.538
  527POPC   C3B 9453  18.883  30.277   8.099
  527POPC   C4B 9454  18.907  30.074   7.663
  528POPC   NC3 9455  12.331  28.560   9.488
  528POPC   PO4 9456  11.910  28.047   9.367
  528POPC   GL1 9457  12.212  28.214   9.130
  528POPC   GL2 9458  11.986  28.535   9.111
  528POPC   C1A 9459  12.175  28.272   8.712
  528POPC   D2A 9460  12.007  28.302   8.322
  528POPC   C3A 9461  12.240  28.161   8.002
  528POPC   C4A 9462  12.243  28.255   7.595
  528POPC   C1B 9463  11.716  28.476   8.738
  528POPC   C2B 9464  11.624  28.633   8.349
  528POPC   C3B 9465  11.729  28.570   7.931
  528POPC   C4B 9466  11.944  28.680   7.588
  529POPC   NC3 9467  11.327  31.832   9.480
  529POPC   PO4 9468  11.845  31.415   9.344
  529POPC   GL1 9469  11.432  31.439   9.155
  529POPC   GL2 9470  11.364  31.770   8.990
  529POPC   C1A 9471  11.402  31.323   8.739
  529POPC   D2A 9472  11.363  31.574   8.391
  529POPC   C3A 9473  11.283  31.261   8.088
  529POPC   C4A 9474  11.378  31.151   7.653
  529POPC   C1B 9475  11.751  31.755   8.769
  529POPC   C2B 9476  11.907  31.670   8.367
  529POPC   C3B 9477  11.695  31.563   7.969
  529POPC   C4B 9478  11.600  31.650   7.519
  530POPC   NC3 9479  44.025  29.685   9.610
  530POPC   PO4 9480  43.428  30.120   9.553
  530POPC   GL1 9481  43.648  30.112   9.140
  530POPC   GL2 9482  44.016  30.155   9.212
  530POPC   C1A 9483  43.841  30.192   8.716
  530POPC   D2A 9484  43.906  29.975   8.370
  530POPC   C3A 9485  43.778  30.205   8.045
  530POPC   C4A 9486  43.737  30.035   7.679
  530POPC   C1B 9487  44.253  29.932   8.861
  530POPC   C2B 9488  44.415  29.969   8.437
  530POPC   C3B 9489  44.275  30.040   8.017
  530POPC   C4B 9490  44.005  29.672   7.922
  531POPC   NC3 9491  37.973   4.052   9.450
  531POPC   PO4 9492  37.815   4.628   9.574
  531POPC   GL1 9493  37.662   4.375   9.181
  531POPC   GL2 9494  37.949   4.232   8.983
  531POPC   C1A 9495  37.508   4.234   8.750
  531POPC   D2A 9496  37.625   4.425   8.377
  531POPC   C3A 9497  37.396   4.378   8.035
  531POPC   C4A 9498  37.419   4.502   7.618
  531POPC   C1B 9499  38.021   4.160   8.573
  531POPC   C2B 9500  38.087   3.862   8.263
  531POPC   C3B 9501  37.969   4.223   8.044
  531POPC   C4B 9502  37.928   4.313   7.659
  532POPC   NC3 9503   1.593  40.188   9.334
  532POPC   PO4 9504   1.939  40.733   9.634
  532POPC   GL1 9505   1.983  40.901   9.227
  532POPC   GL2 9506   1.670  40.758   9.080
  532POPC   C1A 9507   2.100  40.776   8.793
  532POPC   D2A 9508   1.813  40.807   8.438
  532POPC   C3A 9509   2.026  40.727   8.038
  532POPC   C4A 9510   2.246  40.812   7.643
  532POPC   C1B 9511   1.764  41.161   8.828
  532POPC   C2B 9512   1.767  41.351   8.437
  532POPC   C3B 9513   1.774  41.176   8.061
  532POPC   C4B 9514   1.801  41.066   7.639
  533POPC   NC3 9515   9.514  39.499   9.456
  533POPC   PO4 9516  10.211  39.481   9.335
  533POPC   GL1 9517   9.958  39.436   9.027
  533POPC   GL2 9518   9.806  39.169   9.156
  533POPC   C1A 9519  10.046  39.380   8.600
  533POPC   D2A 9520  10.029  39.506   8.177
  533POPC   C3A 9521  10.084  39.140   7.939
  533POPC   C4A 9522   9.869  39.369   7.634
  533POPC   C1B 9523   9.638  39.077   8.764
  533POPC   C2B 9524   9.738  38.998   8.358
  533POPC   C3B 9525   9.590  39.213   8.020
  533POPC   C4B 9526   9.614  38.942   7.683
  534POPC   NC3 9527  37.028  40.950   9.579
  534POPC   PO4 9528  36.527  41.239   9.356
  534POPC   GL1 9529  36.646  40.842   9.216
  534POPC   GL2 9530  36.993  40.842   9.096
  534POPC   C1A 9531  36.555  40.865   8.804
  534POPC   D2A 9532  36.736  41.033   8.463
  534POPC   C3A 9533  36.694  40.831   8.104
  534POPC   C4A 9534  36.844  40.925   7.728
  534POPC   C1B 9535  36.982  40.590   8.776
  534POPC   C2B 9536  37.077  40.632   8.389
  534POPC   C3B 9537  37.191  40.650   7.998
  534POPC   C4B 9538  37.035  40.428   7.645
  535POPC   NC3 9539   9.819  21.084   9.398
  535POPC   PO4 9540   9.675  21.696   9.422
  535POPC   GL1 9541   9.819  21.463   9.056
  535POPC   GL2 9542  10.051  21.188   8.952
  535POPC   C1A 9543   9.645  21.424   8.644
  535POPC   D2A 9544   9.493  21.662   8.291
  535POPC   C3A 9545   9.620  21.397   7.993
  535POPC   C4A 9546   9.463  21.088   7.743
  535POPC   C1B 9547  10.160  21.553   8.689
  535POPC   C2B 9548  10.003  21.646   8.281
  535POPC   C3B 9549  10.125  21.471   7.868
  535POPC   C4B 9550  10.057  21.096   7.630
  536POPC   NC3 9551  35.798  19.920   9.498
  536POPC   PO4 9552  36.420  19.618   9.652
  536POPC   GL1 9553  36.252  19.808   9.274
  536POPC   GL2 9554  36.012  19.556   9.219
  536POPC   C1A 9555  36.071  19.980   8.871
  536POPC   D2A 9556  36.199  19.786   8.502
  536POPC   C3A 9557  36.067  19.791   8.106
  536POPC   C4A 9558  36.201  19.981   7.720
  536POPC   C1B 9559  35.952  19.464   8.818
  536POPC   C2B 9560  35.998  19.318   8.412
  536POPC   C3B 9561  35.860  19.322   8.001
  536POPC   C4B 9562  35.714  19.710   7.764
  537POPC   NC3 9563  34.889  12.878   9.603
  537POPC   PO4 9564  35.562  12.675   9.609
  537POPC   GL1 9565  35.257  12.896   9.248
  537POPC   GL2 9566  34.929  12.721   9.125
  537POPC   C1A 9567  35.276  13.039   8.796
  537POPC   D2A 9568  35.240  12.987   8.334
  537POPC   C3A 9569  35.639  12.955   8.048
  537POPC   C4A 9570  35.799  12.770   7.641
  537POPC   C1B 9571  34.833  12.784   8.708
  537POPC   C2B 9572  34.786  12.581   8.338
  537POPC   C3B 9573  34.935  12.732   8.000
  537POPC   C4B 9574  35.306  12.646   7.773
  538POPC   NC3 9575   3.517  32.540   9.657
  538POPC   PO4 9576   3.311  32.077   9.235
  538POPC   GL1 9577   3.323  32.248   8.864
  538POPC   GL2 9578   3.634  32.252   8.882
  538POPC   C1A 9579   3.367  32.267   8.447
  538POPC   D2A 9580   3.564  32.470   8.147
  538POPC   C3A 9581   3.552  32.266   7.800
  538POPC   C4A 9582   3.229  32.304   7.576
  538POPC   C1B 9583   3.812  32.020   8.610
  538POPC   C2B 9584   3.696  31.965   8.215
  538POPC   C3B 9585   3.702  31.780   7.824
  538POPC   C4B 9586   3.687  31.916   7.400
  539POPC   NC3 9587   2.234  32.604   9.281
  539POPC   PO4 9588   2.305  33.276   9.493
  539POPC   GL1 9589   2.067  33.089   9.150
  539POPC   GL2 9590   1.771  32.887   9.297
  539POPC   C1A 9591   1.935  33.278   8.756
  539POPC   D2A 9592   2.064  33.494   8.408
  539POPC   C3A 9593   2.298  33.269   8.088
  539POPC   C4A 9594   2.170  33.105   7.695
  539POPC   C1B 9595   1.701  32.858   8.858
  539POPC   C2B 9596   1.655  32.792   8.428
  539POPC   C3B 9597   1.869  32.904   8.053
  539POPC   C4B 9598   1.750  32.714   7.660
  540POPC   NC3 9599  11.410  41.637   9.549
  540POPC   PO4 9600  10.863  41.513   9.507
  540POPC   GL1 9601  11.129  41.717   9.131
  540POPC   GL2 9602  11.503  41.876   9.103
  540POPC   C1A 9603  11.256  41.457   8.786
  540POPC   D2A 9604  11.074  41.219   8.425
  540POPC   C3A 9605  11.199  41.406   8.040
  540POPC   C4A 9606  11.432  41.426   7.685
  540POPC   C1B 9607  11.318  42.021   8.735
  540POPC   C2B 9608  11.339  41.754   8.389
  540POPC   C3B 9609  11.656  41.650   8.114
  540POPC   C4B 9610  11.558  41.900   7.805
  541POPC   NC3 9611  25.698  42.488   9.430
  541POPC   PO4 9612  26.464  42.635   9.466
  541POPC   GL1 9613  26.300  42.437   9.126
  541POPC   GL2 9614  26.064  42.705   9.101
  541POPC   C1A 9615  26.067  42.132   8.869
  541POPC   D2A 9616  25.767  42.086   8.517
  541POPC   C3A 9617  25.944  41.981   8.097
  541POPC   C4A 9618  26.259  42.186   7.820
  541POPC   C1B 9619  26.044  42.603   8.661
  541POPC   C2B 9620  26.002  42.449   8.244
  541POPC   C3B 9621  25.882  42.527   7.847
  541POPC   C4B 9622  26.083  42.839   7.659
  542POPC   NC3 9623   7.698  21.867   9.311
  542POPC   PO4 9624   7.241  22.372   9.430
  542POPC   GL1 9625   7.330  22.161   9.074
  542POPC   GL2 9626   7.240  21.844   8.900
  542POPC   C1A 9627   7.119  22.344   8.768
  542POPC   D2A 9628   7.249  22.491   8.442
  542POPC   C3A 9629   7.364  22.208   8.110
  542POPC   C4A 9630   7.422  22.355   7.695
  542POPC   C1B 9631   7.511  22.084   8.609
  542POPC   C2B 9632   7.779  22.370   8.381
  542POPC   C3B 9633   7.873  22.218   7.955
  542POPC   C4B 9634   7.688  21.892   7.672
  543POPC   NC3 9635  34.651  18.502   9.576
  543POPC   PO4 9636  35.170  18.740   9.283
  543POPC   GL1 9637  34.830  18.499   9.082
  543POPC   GL2 9638  34.478  18.345   9.130
  543POPC   C1A 9639  34.713  18.372   8.675
  543POPC   D2A 9640  34.575  18.271   8.287
  543POPC   C3A 9641  34.810  18.179   7.913
  543POPC   C4A 9642  34.572  18.515   7.738
  543POPC   C1B 9643  34.384  17.980   8.851
  543POPC   C2B 9644  34.269  17.889   8.396
  543POPC   C3B 9645  34.314  18.045   7.913
  543POPC   C4B 9646  34.458  18.096   7.462
  544POPC   NC3 9647  28.201   5.317   9.412
  544POPC   PO4 9648  28.543   4.797   9.662
  544POPC   GL1 9649  28.598   5.010   9.248
  544POPC   GL2 9650  28.285   4.973   9.020
  544POPC   C1A 9651  28.697   5.188   8.823
  544POPC   D2A 9652  28.474   5.127   8.420
  544POPC   C3A 9653  28.679   5.072   8.037
  544POPC   C4A 9654  28.557   5.092   7.620
  544POPC   C1B 9655  28.184   5.371   8.772
  544POPC   C2B 9656  28.188   5.554   8.374
  544POPC   C3B 9657  28.173   5.327   7.982
  544POPC   C4B 9658  28.055   5.009   7.732
  545POPC   NC3 9659  20.976  16.820   9.501
  545POPC   PO4 9660  21.662  16.557   9.558
  545POPC   GL1 9661  21.395  16.624   9.225
  545POPC   GL2 9662  21.618  16.883   9.103
  545POPC   C1A 9663  21.317  16.596   8.779
  545POPC   D2A 9664  21.360  16.871   8.402
  545POPC   C3A 9665  21.225  16.781   7.977
  545POPC   C4A 9666  21.226  16.981   7.552
  545POPC   C1B 9667  21.823  16.531   8.863
  545POPC   C2B 9668  21.744  16.407   8.431
  545POPC   C3B 9669  21.704  16.545   7.999
  545POPC   C4B 9670  21.501  16.540   7.612
  546POPC   NC3 9671  13.462  12.470   9.422
  546POPC   PO4 9672  13.132  13.010   9.301
  546POPC   GL1 9673  13.542  12.917   9.138
  546POPC   GL2 9674  13.797  13.195   9.216
  546POPC   C1A 9675  13.590  12.674   8.761
  546POPC   D2A 9676  13.456  12.803   8.369
  546POPC   C3A 9677  13.450  12.549   8.033
  546POPC   C4A 9678  13.566  12.736   7.686
  546POPC   C1B 9679  13.890  13.098   8.791
  546POPC   C2B 9680  13.763  13.221   8.405
  546POPC   C3B 9681  13.819  13.009   8.040
  546POPC   C4B 9682  13.994  13.168   7.664
  547POPC   NC3 9683   3.825   8.946   9.488
  547POPC   PO4 9684   3.285   8.613   9.391
  547POPC   GL1 9685   3.479   8.885   9.127
  547POPC   GL2 9686   3.493   9.244   9.144
  547POPC   C1A 9687   3.687   8.861   8.796
  547POPC   D2A 9688   3.563   8.837   8.395
  547POPC   C3A 9689   3.843   8.842   8.073
  547POPC   C4A 9690   3.683   8.792   7.649
  547POPC   C1B 9691   3.270   9.195   8.771
  547POPC   C2B 9692   3.361   9.298   8.370
  547POPC   C3B 9693   3.355   9.098   7.982
  547POPC   C4B 9694   3.463   9.262   7.587
  548POPC   NC3 9695  42.153  23.912   9.332
  548POPC   PO4 9696  42.158  23.180   9.333
  548POPC   GL1 9697  42.258  23.534   9.038
  548POPC   GL2 9698  42.616  23.630   9.109
  548POPC   C1A 9699  42.255  23.948   8.721
  548POPC   D2A 9700  42.538  24.022   8.375
  548POPC   C3A 9701  42.380  23.918   8.000
  548POPC   C4A 9702  42.048  23.675   7.864
  548POPC   C1B 9703  42.568  23.571   8.669
  548POPC   C2B 9704  42.335  23.516   8.295
  548POPC   C3B 9705  42.504  23.421   7.890
  548POPC   C4B 9706  42.734  23.422   7.535
  549POPC   NC3 9707  40.088   4.082   9.299
  549POPC   PO4 9708  40.035   4.557   9.754
  549POPC   GL1 9709  40.163   4.596   9.211
  549POPC   GL2 9710  39.890   4.753   9.000
  549POPC   C1A 9711  40.085   4.360   8.725
  549POPC   D2A 9712  40.074   4.189   8.261
  549POPC   C3A 9713  39.846   4.224   7.870
  549POPC   C4A 9714  40.034   4.385   7.481
  549POPC   C1B 9715  40.281   4.812   8.757
  549POPC   C2B 9716  40.212   4.714   8.351
  549POPC   C3B 9717  40.198   4.630   7.938
  549POPC   C4B 9718  40.169   4.869   7.595
  550POPC   NC3 9719   8.473  35.477   9.439
  550POPC   PO4 9720   9.101  35.138   9.523
  550POPC   GL1 9721   8.911  35.206   9.074
  550POPC   GL2 9722   8.833  35.556   9.094
  550POPC   C1A 9723   8.809  35.410   8.618
  550POPC   D2A 9724   8.841  35.529   8.153
  550POPC   C3A 9725   8.880  35.167   7.839
  550POPC   C4A 9726   8.920  34.901   7.478
  550POPC   C1B 9727   9.204  35.639   8.839
  550POPC   C2B 9728   9.291  35.787   8.426
  550POPC   C3B 9729   9.360  35.468   8.131
  550POPC   C4B 9730   9.257  35.492   7.714
  551POPC   NC3 9731  14.823   8.241   9.595
  551POPC   PO4 9732  15.432   8.082   9.539
  551POPC   GL1 9733  15.134   8.089   9.179
  551POPC   GL2 9734  14.866   8.378   9.126
  551POPC   C1A 9735  15.068   8.108   8.739
  551POPC   D2A 9736  15.318   8.020   8.370
  551POPC   C3A 9737  15.314   8.251   8.036
  551POPC   C4A 9738  15.173   8.144   7.682
  551POPC   C1B 9739  14.791   8.582   8.760
  551POPC   C2B 9740  14.981   8.451   8.376
  551POPC   C3B 9741  14.819   8.371   7.980
  551POPC   C4B 9742  14.756   8.375   7.499
  552POPC   NC3 9743  42.889  23.235   9.356
  552POPC   PO4 9744  43.261  23.751   9.584
  552POPC   GL1 9745  43.144  23.659   9.160
  552POPC   GL2 9746  43.448  23.534   9.047
  552POPC   C1A 9747  43.024  23.761   8.723
  552POPC   D2A 9748  42.864  23.631   8.289
  552POPC   C3A 9749  42.887  23.830   7.945
  552POPC   C4A 9750  43.151  23.549   7.761
  552POPC   C1B 9751  43.396  23.463   8.567
  552POPC   C2B 9752  43.357  23.738   8.183
  552POPC   C3B 9753  43.367  24.021   7.794
  552POPC   C4B 9754  43.436  24.130   7.348
  553POPC   NC3 9755  10.301  11.569   9.834
  553POPC   PO4 9756   9.884  11.127   9.508
  553POPC   GL1 9757   9.710  11.179   9.114
  553POPC   GL2 9758   9.549  10.918   9.062
  553POPC   C1A 9759   9.568  11.358   8.702
  553POPC   D2A 9760   9.719  11.578   8.327
  553POPC   C3A 9761   9.564  11.661   7.899
  553POPC   C4A 9762   9.842  11.497   7.562
  553POPC   C1B 9763   9.807  10.868   8.719
  553POPC   C2B 9764   9.836  11.069   8.349
  553POPC   C3B 9765   9.615  11.171   8.009
  553POPC   C4B 9766   9.599  11.039   7.604
  554POPC   NC3 9767   3.853  27.407   9.140
  554POPC   PO4 9768   3.385  27.712   9.571
  554POPC   GL1 9769   3.436  27.680   9.142
  554POPC   GL2 9770   3.220  27.408   9.121
  554POPC   C1A 9771   3.603  27.946   8.755
  554POPC   D2A 9772   3.819  28.072   8.369
  554POPC   C3A 9773   3.802  27.715   8.151
  554POPC   C4A 9774   3.606  27.569   7.814
  554POPC   C1B 9775   3.155  27.681   8.742
  554POPC   C2B 9776   3.303  27.699   8.354
  554POPC   C3B 9777   3.105  27.489   8.050
  554POPC   C4B 9778   3.182  27.360   7.666
  555POPC   NC3 9779  27.273  18.529   9.471
  555POPC   PO4 9780  26.536  18.348   9.502
  555POPC   GL1 9781  26.632  18.289   9.095
  555POPC   GL2 9782  26.982  18.236   9.106
  555POPC   C1A 9783  26.432  18.382   8.723
  555POPC   D2A 9784  26.377  18.204   8.355
  555POPC   C3A 9785  26.732  18.302   8.139
  555POPC   C4A 9786  26.823  17.997   7.827
  555POPC   C1B 9787  26.954  18.400   8.715
  555POPC   C2B 9788  27.224  18.426   8.408
  555POPC   C3B 9789  27.240  18.284   8.027
  555POPC   C4B 9790  27.084  18.393   7.687
  556POPC   NC3 9791  30.988  25.248   9.479
  556POPC   PO4 9792  30.322  25.385   9.485
  556POPC   GL1 9793  30.566  25.159   9.132
  556POPC   GL2 9794  30.927  25.204   8.991
  556POPC   C1A 9795  30.505  25.183   8.678
  556POPC   D2A 9796  30.463  25.504   8.373
  556POPC   C3A 9797  30.447  25.309   8.004
  556POPC   C4A 9798  30.573  25.495   7.637
  556POPC   C1B 9799  30.997  24.961   8.636
  556POPC   C2B 9800  30.894  25.172   8.285
  556POPC   C3B 9801  30.929  25.182   7.861
  556POPC   C4B 9802  30.922  25.155   7.417
  557POPC   NC3 9803  40.863  26.342   9.671
  557POPC   PO4 9804  40.811  25.669   9.553
  557POPC   GL1 9805  40.940  25.990   9.252
  557POPC   GL2 9806  40.689  26.265   9.200
  557POPC   C1A 9807  41.028  25.821   8.848
  557POPC   D2A 9808  40.802  25.812   8.460
  557POPC   C3A 9809  40.983  25.957   8.032
  557POPC   C4A 9810  40.891  26.229   7.700
  557POPC   C1B 9811  40.539  26.108   8.800
  557POPC   C2B 9812  40.342  26.043   8.424
  557POPC   C3B 9813  40.488  26.079   8.035
  557POPC   C4B 9814  40.400  26.269   7.665
  558POPC   NC3 9815  21.130  13.929   9.623
  558POPC   PO4 9816  21.372  13.293   9.470
  558POPC   GL1 9817  21.466  13.390   9.078
  558POPC   GL2 9818  21.510  13.740   9.150
  558POPC   C1A 9819  21.275  13.394   8.703
  558POPC   D2A 9820  21.302  13.630   8.337
  558POPC   C3A 9821  21.385  13.387   8.030
  558POPC   C4A 9822  21.280  13.475   7.653
  558POPC   C1B 9823  21.753  14.031   8.885
  558POPC   C2B 9824  21.759  14.164   8.458
  558POPC   C3B 9825  21.612  14.059   8.053
  558POPC   C4B 9826  21.458  13.934   7.679
  559POPC   NC3 9827  34.561   7.747   9.489
  559POPC   PO4 9828  34.396   8.433   9.418
  559POPC   GL1 9829  34.572   8.243   9.067
  559POPC   GL2 9830  34.659   7.906   9.017
  559POPC   C1A 9831  34.428   8.134   8.634
  559POPC   D2A 9832  34.129   8.218   8.328
  559POPC   C3A 9833  34.373   8.108   8.026
  559POPC   C4A 9834  34.641   8.294   7.732
  559POPC   C1B 9835  34.931   8.166   8.725
  559POPC   C2B 9836  34.864   8.113   8.279
  559POPC   C3B 9837  34.828   7.851   7.942
  559POPC   C4B 9838  34.863   7.823   7.542
  560POPC   NC3 9839  25.422  35.113   9.584
  560POPC   PO4 9840  25.225  35.797   9.401
  560POPC   GL1 9841  25.092  35.377   9.157
  560POPC   GL2 9842  25.197  34.981   9.146
  560POPC   C1A 9843  25.015  35.195   8.720
  560POPC   D2A 9844  25.166  35.133   8.299
  560POPC   C3A 9845  25.265  35.475   8.060
  560POPC   C4A 9846  24.950  35.399   7.774
  560POPC   C1B 9847  25.515  35.240   8.901
  560POPC   C2B 9848  25.630  35.273   8.485
  560POPC   C3B 9849  25.645  35.126   8.071
  560POPC   C4B 9850  25.396  35.094   7.718
  561POPC   NC3 9851  31.601  30.844   9.352
  561POPC   PO4 9852  32.288  30.871   9.426
  561POPC   GL1 9853  32.303  30.947   9.023
  561POPC   GL2 9854  31.997  30.764   9.003
  561POPC   C1A 9855  32.368  30.767   8.626
  561POPC   D2A 9856  32.227  30.687   8.186
  561POPC   C3A 9857  32.489  30.898   7.858
  561POPC   C4A 9858  32.378  31.155   7.496
  561POPC   C1B 9859  31.859  30.720   8.582
  561POPC   C2B 9860  31.691  30.643   8.165
  561POPC   C3B 9861  31.649  30.710   7.728
  561POPC   C4B 9862  31.517  30.642   7.299
  562POPC   NC3 9863  44.940  40.695   9.513
  562POPC   PO4 9864  44.384  40.968   9.373
  562POPC   GL1 9865  44.606  40.709   9.093
  562POPC   GL2 9866  44.978  40.746   9.019
  562POPC   C1A 9867  44.462  40.508   8.730
  562POPC   D2A 9868  44.643  40.371   8.316
  562POPC   C3A 9869  44.528  40.360   7.867
  562POPC   C4A 9870  44.450  40.704   7.564
  562POPC   C1B 9871  44.869  40.806   8.610
  562POPC   C2B 9872  44.503  40.913   8.387
  562POPC   C3B 9873  44.679  40.861   8.001
  562POPC   C4B 9874   0.038  40.760   7.792
  563POPC   NC3 9875  32.612  39.311   9.465
  563POPC   PO4 9876  32.090  38.918   9.708
  563POPC   GL1 9877  32.181  39.114   9.265
  563POPC   GL2 9878  32.495  38.971   9.103
  563POPC   C1A 9879  32.146  39.269   8.821
  563POPC   D2A 9880  32.416  39.379   8.448
  563POPC   C3A 9881  32.316  39.333   8.008
  563POPC   C4A 9882  32.111  39.049   7.770
  563POPC   C1B 9883  32.443  38.874   8.670
  563POPC   C2B 9884  32.296  38.856   8.255
  563POPC   C3B 9885  32.519  38.768   7.886
  563POPC   C4B 9886  32.513  38.782   7.440
  564POPC   NC3 9887  29.036   0.799   9.456
  564POPC   PO4 9888  28.639   0.175   9.519
  564POPC   GL1 9889  28.965   0.191   9.181
  564POPC   GL2 9890  29.038   0.547   9.012
  564POPC   C1A 9891  29.053   0.121   8.738
  564POPC   D2A 9892  28.960   0.466   8.438
  564POPC   C3A 9893  28.981   0.318   7.992
  564POPC   C4A 9894  28.768   0.062   7.673
  564POPC   C1B 9895  29.174   0.889   8.707
  564POPC   C2B 9896  29.364   0.818   8.284
  564POPC   C3B 9897  29.299   0.779   7.822
  564POPC   C4B 9898  29.358   0.691   7.353
  565POPC   NC3 9899   7.173  24.343   9.552
  565POPC   PO4 9900   7.450  24.934   9.436
  565POPC   GL1 9901   7.422  24.560   9.153
  565POPC   GL2 9902   7.043  24.503   9.081
  565POPC   C1A 9903   7.397  24.347   8.744
  565POPC   D2A 9904   7.511  24.548   8.380
  565POPC   C3A 9905   7.610  24.353   8.007
  565POPC   C4A 9906   7.887  24.574   7.804
  565POPC   C1B 9907   7.087  24.749   8.685
  565POPC   C2B 9908   7.127  24.850   8.245
  565POPC   C3B 9909   7.176  24.637   7.849
  565POPC   C4B 9910   7.195  24.218   7.686
  566POPC   NC3 9911  29.348   7.910   9.583
  566POPC   PO4 9912  28.962   8.430   9.553
  566POPC   GL1 9913  29.032   8.195   9.199
  566POPC   GL2 9914  29.364   8.198   9.136
  566POPC   C1A 9915  28.871   8.220   8.786
  566POPC   D2A 9916  29.101   8.156   8.420
  566POPC   C3A 9917  28.906   8.313   8.104
  566POPC   C4A 9918  28.818   8.101   7.756
  566POPC   C1B 9919  29.503   8.141   8.721
  566POPC   C2B 9920  29.558   7.933   8.308
  566POPC   C3B 9921  29.321   8.028   7.925
  566POPC   C4B 9922  29.372   8.033   7.454
  567POPC   NC3 9923  11.840  10.202   9.536
  567POPC   PO4 9924  12.085   9.632   9.646
  567POPC   GL1 9925  12.084   9.659   9.216
  567POPC   GL2 9926  12.061   9.988   9.119
  567POPC   C1A 9927  11.975   9.599   8.778
  567POPC   D2A 9928  12.056   9.394   8.398
  567POPC   C3A 9929  12.213   9.467   7.985
  567POPC   C4A 9930  12.044   9.643   7.619
  567POPC   C1B 9931  12.271  10.007   8.699
  567POPC   C2B 9932  12.106   9.905   8.283
  567POPC   C3B 9933  11.918  10.068   7.882
  567POPC   C4B 9934  11.736  10.033   7.434
  568POPC   NC3 9935  21.793   9.145   9.247
  568POPC   PO4 9936  22.382   8.972   9.526
  568POPC   GL1 9937  22.191   8.905   9.109
  568POPC   GL2 9938  21.915   8.672   9.054
  568POPC   C1A 9939  22.108   8.992   8.687
  568POPC   D2A 9940  22.223   9.222   8.332
  568POPC   C3A 9941  22.343   9.014   7.975
  568POPC   C4A 9942  22.283   8.816   7.530
  568POPC   C1B 9943  21.697   8.679   8.648
  568POPC   C2B 9944  21.854   8.862   8.247
  568POPC   C3B 9945  21.858   8.954   7.782
  568POPC   C4B 9946  21.780   8.735   7.345
  569POPC   NC3 9947  30.922  38.717   9.586
  569POPC   PO4 9948  30.338  38.239   9.557
  569POPC   GL1 9949  30.515  38.288   9.143
  569POPC   GL2 9950  30.273  38.081   8.988
  569POPC   C1A 9951  30.694  38.450   8.731
  569POPC   D2A 9952  30.574  38.714   8.370
  569POPC   C3A 9953  30.767  38.595   7.982
  569POPC   C4A 9954  30.714  38.774   7.601
  569POPC   C1B 9955  30.246  38.181   8.575
  569POPC   C2B 9956  30.541  38.217   8.256
  569POPC   C3B 9957  30.543  38.165   7.834
  569POPC   C4B 9958  30.379  38.383   7.373
  570POPC   NC3 9959  21.479  34.125   9.376
  570POPC   PO4 9960  21.229  33.552   9.630
  570POPC   GL1 9961  21.336  33.489   9.227
  570POPC   GL2 9962  21.641  33.663   9.182
  570POPC   C1A 9963  21.295  33.637   8.808
  570POPC   D2A 9964  21.305  33.954   8.506
  570POPC   C3A 9965  21.382  33.767   8.135
  570POPC   C4A 9966  21.249  33.860   7.737
  570POPC   C1B 9967  21.748  33.934   8.811
  570POPC   C2B 9968  21.818  34.062   8.373
  570POPC   C3B 9969  21.686  34.117   7.935
  570POPC   C4B 9970  21.714  33.899   7.532
  571POPC   NC3 9971  18.626  25.033   9.505
  571POPC   PO4 9972  19.353  25.038   9.377
  571POPC   GL1 9973  19.136  25.297   9.070
  571POPC   GL2 9974  18.774  25.270   9.063
  571POPC   C1A 9975  19.029  25.455   8.651
  571POPC   D2A 9976  18.982  25.243   8.283
  571POPC   C3A 9977  19.289  25.177   7.958
  571POPC   C4A 9978  19.048  25.296   7.611
  571POPC   C1B 9979  18.825  24.958   8.753
  571POPC   C2B 9980  18.748  24.798   8.367
  571POPC   C3B 9981  18.845  24.903   7.925
  571POPC   C4B 9982  18.713  24.930   7.504
  572POPC   NC3 9983  18.904  27.819   9.359
  572POPC   PO4 9984  18.428  27.421   9.752
  572POPC   GL1 9985  18.385  27.354   9.255
  572POPC   GL2 9986  18.362  27.711   9.199
  572POPC   C1A 9987  18.096  27.240   8.903
  572POPC   D2A 9988  18.045  27.462   8.498
  572POPC   C3A 9989  18.238  27.324   8.137
  572POPC   C4A 9990  18.166  27.188   7.734
  572POPC   C1B 9991  18.466  27.556   8.798
  572POPC   C2B 9992  18.512  27.682   8.402
  572POPC   C3B 9993  18.307  27.872   8.080
  572POPC   C4B 9994  18.431  27.623   7.756
  573POPC   NC3 9995  29.684   4.175   9.409
  573POPC   PO4 9996  30.183   4.590   9.289
  573POPC   GL1 9997  29.942   4.387   9.013
  573POPC   GL2 9998  30.006   4.033   9.036
  573POPC   C1A 9999  29.987   4.292   8.613
  573POPC   D2A10000  29.780   4.322   8.252
  573POPC   C3A10001  29.926   4.487   7.887
  573POPC   C4A10002  30.271   4.286   7.760
  573POPC   C1B10003  29.706   3.861   8.709
  573POPC   C2B10004  29.623   3.840   8.272
  573POPC   C3B10005  29.878   3.943   7.895
  573POPC   C4B10006  29.923   4.041   7.457
  574POPC   NC310007   2.546   2.581   9.435
  574POPC   PO410008   3.150   2.858   9.343
  574POPC   GL110009   2.888   2.654   9.074
  574POPC   GL210010   3.069   2.381   9.005
  574POPC   C1A10011   2.713   2.879   8.725
  574POPC   D2A10012   2.972   3.061   8.398
  574POPC   C3A10013   2.827   2.996   7.987
  574POPC   C4A10014   2.500   2.746   7.862
  574POPC   C1B10015   3.120   2.597   8.617
  574POPC   C2B10016   2.808   2.573   8.291
  574POPC   C3B10017   2.912   2.452   7.917
  574POPC   C4B10018   3.192   2.729   7.743
  575POPC   NC310019  33.821  34.065   9.885
  575POPC   PO410020  34.174  33.714   9.350
  575POPC   GL110021  33.795  33.782   9.176
  575POPC   GL210022  33.585  33.548   9.273
  575POPC   C1A10023  33.729  34.027   8.809
  575POPC   D2A10024  33.828  34.284   8.459
  575POPC   C3A10025  33.824  34.052   8.065
  575POPC   C4A10026  33.627  33.980   7.654
  575POPC   C1B10027  33.639  33.531   8.780
  575POPC   C2B10028  33.786  33.547   8.344
  575POPC   C3B10029  33.756  33.553   7.895
  575POPC   C4B10030  34.117  33.355   7.738
  576POPC   NC310031  11.074  22.164   9.438
  576POPC   PO410032  11.616  21.771   9.613
  576POPC   GL110033  11.584  21.965   9.172
  576POPC   GL210034  11.471  22.331   9.149
  576POPC   C1A10035  11.367  21.981   8.745
  576POPC   D2A10036  11.297  21.712   8.403
  576POPC   C3A10037  11.321  21.901   7.976
  576POPC   C4A10038  11.096  21.863   7.573
  576POPC   C1B10039  11.247  22.484   8.764
  576POPC   C2B10040  11.410  22.532   8.339
  576POPC   C3B10041  11.203  22.423   7.946
  576POPC   C4B10042  11.202  22.347   7.493
  577POPC   NC310043  33.594  23.353   9.504
  577POPC   PO410044  34.031  23.876   9.418
  577POPC   GL110045  33.885  23.613   9.070
  577POPC   GL210046  33.548  23.443   9.023
  577POPC   C1A10047  33.981  23.692   8.638
  577POPC   D2A10048  33.739  23.893   8.307
  577POPC   C3A10049  33.953  23.700   7.987
  577POPC   C4A10050  34.125  23.871   7.632
  577POPC   C1B10051  33.480  23.725   8.730
  577POPC   C2B10052  33.489  23.455   8.353
  577POPC   C3B10053  33.461  23.592   7.901
  577POPC   C4B10054  33.416  23.214   7.670
  578POPC   NC310055  15.992  35.173   9.719
  578POPC   PO410056  16.047  34.509   9.549
  578POPC   GL110057  15.897  34.623   9.151
  578POPC   GL210058  16.176  34.743   8.985
  578POPC   C1A10059  15.940  34.345   8.772
  578POPC   D2A10060  15.672  34.230   8.444
  578POPC   C3A10061  15.894  34.202   8.077
  578POPC   C4A10062  15.816  34.517   7.786
  578POPC   C1B10063  15.929  34.837   8.644
  578POPC   C2B10064  16.086  34.653   8.261
  578POPC   C3B10065  16.198  34.849   7.877
  578POPC   C4B10066  15.824  35.043   7.657
  579POPC   NC310067  20.182  39.262   9.494
  579POPC   PO410068  19.574  38.869   9.412
  579POPC   GL110069  19.977  39.028   9.089
  579POPC   GL210070  20.064  39.371   9.011
  579POPC   C1A10071  20.140  39.009   8.673
  579POPC   D2A10072  19.955  39.081   8.301
  579POPC   C3A10073  20.100  39.073   7.915
  579POPC   C4A10074  20.029  39.413   7.625
  579POPC   C1B10075  19.784  39.461   8.640
  579POPC   C2B10076  19.519  39.371   8.306
  579POPC   C3B10077  19.622  39.266   7.896
  579POPC   C4B10078  19.508  39.524   7.484
  580POPC   NC310079  24.717  25.076   9.472
  580POPC   PO410080  24.169  25.454   9.605
  580POPC   GL110081  24.411  25.419   9.213
  580POPC   GL210082  24.381  25.079   9.038
  580POPC   C1A10083  24.522  25.557   8.810
  580POPC   D2A10084  24.331  25.338   8.494
  580POPC   C3A10085  24.441  25.358   8.095
  580POPC   C4A10086  24.164  25.133   7.883
  580POPC   C1B10087  24.631  24.956   8.645
  580POPC   C2B10088  24.629  24.877   8.191
  580POPC   C3B10089  24.634  25.013   7.757
  580POPC   C4B10090  24.663  25.469   7.641
  581POPC   NC310091  12.789   2.521   9.596
  581POPC   PO410092  13.329   2.742   9.409
  581POPC   GL110093  13.054   2.555   9.060
  581POPC   GL210094  12.718   2.372   9.120
  581POPC   C1A10095  12.878   2.556   8.623
  581POPC   D2A10096  12.938   2.498   8.160
  581POPC   C3A10097  12.861   2.880   7.902
  581POPC   C4A10098  13.039   3.031   7.528
  581POPC   C1B10099  12.453   2.314   8.779
  581POPC   C2B10100  12.454   2.494   8.339
  581POPC   C3B10101  12.508   2.513   7.898
  581POPC   C4B10102  12.597   2.689   7.482
  582POPC   NC310103  18.478  33.305   9.399
  582POPC   PO410104  17.926  32.925   9.502
  582POPC   GL110105  18.163  32.996   9.138
  582POPC   GL210106  18.500  32.816   9.189
  582POPC   C1A10107  18.162  33.188   8.742
  582POPC   D2A10108  18.367  33.123   8.343
  582POPC   C3A10109  18.100  33.007   7.996
  582POPC   C4A10110  18.118  33.074   7.535
  582POPC   C1B10111  18.621  32.938   8.771
  582POPC   C2B10112  18.750  32.785   8.351
  582POPC   C3B10113  18.630  32.892   7.933
  582POPC   C4B10114  18.641  32.884   7.481
  583POPC   NC310115  42.967  10.377   9.500
  583POPC   PO410116  43.331  10.798   9.149
  583POPC   GL110117  43.259  10.370   9.016
  583POPC   GL210118  42.882  10.334   8.991
  583POPC   C1A10119  43.300  10.366   8.564
  583POPC   D2A10120  43.278  10.765   8.316
  583POPC   C3A10121  43.103  10.678   7.905
  583POPC   C4A10122  43.110  10.866   7.511
  583POPC   C1B10123  42.876  10.681   8.685
  583POPC   C2B10124  42.760  10.663   8.272
  583POPC   C3B10125  42.673  10.936   7.944
  583POPC   C4B10126  42.712  11.163   7.612
  584POPC   NC310127  17.587  35.801   9.407
  584POPC   PO410128  17.813  36.537   9.448
  584POPC   GL110129  17.626  36.502   9.038
  584POPC   GL210130  17.406  36.210   9.053
  584POPC   C1A10131  17.583  36.405   8.596
  584POPC   D2A10132  17.391  36.097   8.350
  584POPC   C3A10133  17.501  36.129   7.942
  584POPC   C4A10134  17.543  36.498   7.684
  584POPC   C1B10135  17.647  35.918   8.767
  584POPC   C2B10136  17.929  35.980   8.420
  584POPC   C3B10137  17.964  35.832   8.009
  584POPC   C4B10138  17.672  35.707   7.693
  585POPC   NC310139  19.306   0.583   9.279
  585POPC   PO410140  19.941   0.594   9.518
  585POPC   GL110141  19.768   0.615   9.092
  585POPC   GL210142  19.575   0.960   9.058
  585POPC   C1A10143  19.829   0.312   8.751
  585POPC   D2A10144  19.608   0.030   8.430
  585POPC   C3A10145  19.701   0.112   7.987
  585POPC   C4A10146  20.140   0.151   7.850
  585POPC   C1B10147  19.520   0.716   8.652
  585POPC   C2B10148  19.718   0.545   8.287
  585POPC   C3B10149  19.839   0.607   7.855
  585POPC   C4B10150  19.633   0.799   7.500
  586POPC   NC310151   7.710  21.084   9.567
  586POPC   PO410152   7.287  21.590   9.321
  586POPC   GL110153   7.227  21.282   9.030
  586POPC   GL210154   7.438  21.084   9.131
  586POPC   C1A10155   7.329  21.248   8.627
  586POPC   D2A10156   7.535  21.601   8.470
  586POPC   C3A10157   7.656  21.561   8.063
  586POPC   C4A10158   7.294  21.493   7.829
  586POPC   C1B10159   7.775  21.039   8.812
  586POPC   C2B10160   7.798  21.170   8.387
  586POPC   C3B10161   7.450  21.068   8.142
  586POPC   C4B10162   7.430  20.971   7.730
  587POPC   NC310163   3.804  33.130   9.401
  587POPC   PO410164   3.220  32.871   9.481
  587POPC   GL110165   3.428  32.985   9.089
  587POPC   GL210166   3.616  32.690   9.139
  587POPC   C1A10167   3.667  33.223   8.724
  587POPC   D2A10168   3.686  33.459   8.306
  587POPC   C3A10169   3.643  33.227   7.887
  587POPC   C4A10170   3.266  33.169   7.596
  587POPC   C1B10171   3.526  32.715   8.671
  587POPC   C2B10172   3.764  32.900   8.339
  587POPC   C3B10173   3.931  32.788   7.967
  587POPC   C4B10174   3.618  32.754   7.651
  588POPC   NC310175  35.503  44.252   9.519
  588POPC   PO410176  35.638  44.908   9.508
  588POPC   GL110177  35.419  44.687   9.178
  588POPC   GL210178  35.091  44.531   9.138
  588POPC   C1A10179  35.401  44.782   8.748
  588POPC   D2A10180  35.347  44.656   8.321
  588POPC   C3A10181  35.582  44.807   8.014
  588POPC   C4A10182  35.538   0.053   7.685
  588POPC   C1B10183  35.117  44.357   8.669
  588POPC   C2B10184  35.030  44.308   8.185
  588POPC   C3B10185  35.171  44.583   7.794
  588POPC   C4B10186  35.065  44.864   7.443
  589POPC   NC310187  29.800  44.176   9.445
  589POPC   PO410188  29.567  44.804   9.502
  589POPC   GL110189  29.748  44.607   9.167
  589POPC   GL210190  29.838  44.880   8.995
  589POPC   C1A10191  29.948  44.354   8.817
  589POPC   D2A10192  30.142  44.252   8.413
  589POPC   C3A10193  30.037  44.441   8.009
  589POPC   C4A10194  30.177  44.637   7.626
  589POPC   C1B10195  29.546  44.918   8.647
  589POPC   C2B10196  29.747  44.935   8.225
  589POPC   C3B10197  29.750  44.893   7.793
  589POPC   C4B10198  29.817  44.893   7.359
  590POPC   NC310199  20.335  37.671   9.613
  590POPC   PO410200  20.943  37.780   9.584
  590POPC   GL110201  20.844  37.662   9.163
  590POPC   GL210202  20.490  37.699   9.110
  590POPC   C1A10203  20.801  37.752   8.718
  590POPC   D2A10204  20.469  37.583   8.458
  590POPC   C3A10205  20.561  37.753   8.122
  590POPC   C4A10206  20.542  37.605   7.718
  590POPC   C1B10207  20.291  37.970   8.759
  590POPC   C2B10208  20.131  37.981   8.296
  590POPC   C3B10209  20.232  38.005   7.824
  590POPC   C4B10210  20.177  37.790   7.400
  591POPC   NC310211  43.140   7.011   9.439
  591POPC   PO410212  43.080   7.617   9.569
  591POPC   GL110213  43.157   7.499   9.171
  591POPC   GL210214  42.849   7.503   9.096
  591POPC   C1A10215  43.261   7.400   8.764
  591POPC   D2A10216  43.102   7.169   8.409
  591POPC   C3A10217  43.085   7.402   8.054
  591POPC   C4A10218  43.357   7.398   7.748
  591POPC   C1B10219  42.744   7.371   8.699
  591POPC   C2B10220  42.596   7.331   8.303
  591POPC   C3B10221  42.669   7.184   7.916
  591POPC   C4B10222  42.858   7.380   7.571
  592POPC   NC310223  40.449   4.748   9.618
  592POPC   PO410224  41.182   4.924   9.567
  592POPC   GL110225  40.922   5.065   9.194
  592POPC   GL210226  40.635   4.825   9.162
  592POPC   C1A10227  41.019   5.201   8.749
  592POPC   D2A10228  41.140   5.078   8.341
  592POPC   C3A10229  40.887   5.275   8.049
  592POPC   C4A10230  40.948   5.267   7.642
  592POPC   C1B10231  40.803   4.733   8.795
  592POPC   C2B10232  40.703   4.826   8.451
  592POPC   C3B10233  40.775   4.785   8.091
  592POPC   C4B10234  40.652   4.861   7.749
  593POPC   NC310235  26.146   1.326   9.743
  593POPC   PO410236  26.250   0.655   9.731
  593POPC   GL110237  26.253   1.007   9.352
  593POPC   GL210238  26.175   1.354   9.232
  593POPC   C1A10239  26.195   0.975   8.889
  593POPC   D2A10240  25.912   1.003   8.526
  593POPC   C3A10241  26.062   0.944   8.121
  593POPC   C4A10242  26.046   1.069   7.708
  593POPC   C1B10243  25.921   1.414   8.830
  593POPC   C2B10244  26.053   1.509   8.413
  593POPC   C3B10245  25.917   1.457   8.008
  593POPC   C4B10246  26.211   1.548   7.698
  594POPC   NC310247   1.630  36.154   9.511
  594POPC   PO410248   2.228  35.727   9.570
  594POPC   GL110249   2.040  35.961   9.224
  594POPC   GL210250   2.083  35.649   9.058
  594POPC   C1A10251   1.836  36.122   8.793
  594POPC   D2A10252   1.676  36.024   8.332
  594POPC   C3A10253   1.869  36.287   7.993
  594POPC   C4A10254   1.704  36.507   7.637
  594POPC   C1B10255   2.300  35.924   8.769
  594POPC   C2B10256   2.166  36.001   8.394
  594POPC   C3B10257   2.056  35.811   8.048
  594POPC   C4B10258   2.247  35.871   7.679
  595POPC   NC310259  31.992   7.937   9.793
  595POPC   PO410260  31.563   8.244   9.410
  595POPC   GL110261  31.425   8.087   9.033
  595POPC   GL210262  31.334   8.436   9.006
  595POPC   C1A10263  31.482   8.061   8.579
  595POPC   D2A10264  31.755   8.276   8.256
  595POPC   C3A10265  31.610   8.276   7.823
  595POPC   C4A10266  31.754   8.290   7.415
  595POPC   C1B10267  31.029   8.509   8.768
  595POPC   C2B10268  30.891   8.423   8.375
  595POPC   C3B10269  31.022   8.355   7.966
  595POPC   C4B10270  31.166   8.561   7.616
  596POPC   NC310271  38.862  21.214   9.483
  596POPC   PO410272  39.561  21.469   9.491
  596POPC   GL110273  39.371  21.299   9.170
  596POPC   GL210274  39.371  21.590   8.962
  596POPC   C1A10275  39.382  21.102   8.787
  596POPC   D2A10276  39.357  21.380   8.474
  596POPC   C3A10277  39.488  21.239   8.085
  596POPC   C4A10278  39.382  21.482   7.739
  596POPC   C1B10279  38.957  21.446   8.862
  596POPC   C2B10280  38.784  21.421   8.467
  596POPC   C3B10281  39.003  21.516   8.090
  596POPC   C4B10282  39.019  21.862   7.809
  597POPC   NC310283  39.042  15.440   9.709
  597POPC   PO410284  39.529  16.012   9.570
  597POPC   GL110285  39.275  15.902   9.240
  597POPC   GL210286  38.922  16.029   9.195
  597POPC   C1A10287  39.224  15.733   8.833
  597POPC   D2A10288  39.405  15.654   8.433
  597POPC   C3A10289  39.321  15.954   8.081
  597POPC   C4A10290  39.241  15.807   7.666
  597POPC   C1B10291  39.065  16.236   8.806
  597POPC   C2B10292  38.916  16.367   8.413
  597POPC   C3B10293  39.097  16.419   8.032
  597POPC   C4B10294  39.042  16.261   7.632
  598POPC   NC310295  30.363   1.874   9.417
  598POPC   PO410296  30.907   1.665   9.101
  598POPC   GL110297  30.628   2.070   8.985
  598POPC   GL210298  30.286   2.223   9.066
  598POPC   C1A10299  30.537   2.074   8.523
  598POPC   D2A10300  30.577   1.689   8.221
  598POPC   C3A10301  30.751   1.736   7.782
  598POPC   C4A10302  30.785   2.100   7.481
  598POPC   C1B10303  30.080   2.026   8.733
  598POPC   C2B10304  30.092   1.881   8.295
  598POPC   C3B10305  30.255   1.855   7.857
  598POPC   C4B10306  30.288   2.135   7.487
  599POPC   NC310307  26.754  44.491   9.790
  599POPC   PO410308  27.038  44.918   9.365
  599POPC   GL110309  26.875  44.762   9.068
  599POPC   GL210310  27.055  44.446   9.039
  599POPC   C1A10311  26.993  44.812   8.659
  599POPC   D2A10312  27.248  44.862   8.320
  599POPC   C3A10313  26.930  44.848   8.020
  599POPC   C4A10314  26.671  44.781   7.662
  599POPC   C1B10315  26.664  44.409   8.776
  599POPC   C2B10316  26.608  44.478   8.335
  599POPC   C3B10317  26.772  44.361   7.945
  599POPC   C4B10318  27.056  44.464   7.613
  600POPC   NC310319   0.289  26.575   9.541
  600POPC   PO410320   0.592  27.123   9.436
  600POPC   GL110321   0.483  26.836   9.144
  600POPC   GL210322   0.713  26.556   9.219
  600POPC   C1A10323   0.402  26.631   8.768
  600POPC   D2A10324   0.486  26.565   8.331
  600POPC   C3A10325   0.123  26.632   8.077
  600POPC   C4A10326   0.117  26.856   7.688
  600POPC   C1B10327   0.920  26.785   8.872
  600POPC   C2B10328   0.970  26.728   8.422
  600POPC   C3B10329   0.850  26.812   8.011
  600POPC   C4B10330   0.559  26.609   7.803
  601POPC   NC310331  21.594   1.117   9.536
  601POPC   PO410332  20.871   0.960   9.517
  601POPC   GL110333  21.187   1.100   9.226
  601POPC   GL210334  21.365   0.821   9.154
  601POPC   C1A10335  21.411   1.245   8.813
  601POPC   D2A10336  21.603   1.377   8.377
  601POPC   C3A10337  21.433   1.349   7.924
  601POPC   C4A10338  21.284   1.442   7.470
  601POPC   C1B10339  21.203   0.766   8.767
  601POPC   C2B10340  21.297   0.939   8.374
  601POPC   C3B10341  21.177   0.924   7.962
  601POPC   C4B10342  21.352   0.931   7.570
  602POPC   NC310343  16.787  38.185   9.482
  602POPC   PO410344  16.456  38.753   9.670
  602POPC   GL110345  16.497  38.623   9.198
  602POPC   GL210346  16.791  38.452   9.002
  602POPC   C1A10347  16.352  38.463   8.784
  602POPC   D2A10348  16.681  38.479   8.472
  602POPC   C3A10349  16.622  38.316   8.094
  602POPC   C4A10350  16.704  38.437   7.663
  602POPC   C1B10351  17.066  38.241   8.747
  602POPC   C2B10352  17.140  38.159   8.306
  602POPC   C3B10353  17.018  38.094   7.852
  602POPC   C4B10354  17.039  38.134   7.361
  603POPC   NC310355  30.274  35.999   9.473
  603POPC   PO410356  29.658  36.122   9.529
  603POPC   GL110357  29.874  36.091   9.137
  603POPC   GL210358  29.943  35.742   9.140
  603POPC   C1A10359  29.860  36.163   8.689
  603POPC   D2A10360  29.740  35.914   8.324
  603POPC   C3A10361  29.883  36.165   7.997
  603POPC   C4A10362  29.914  36.551   7.787
  603POPC   C1B10363  30.196  35.779   8.783
  603POPC   C2B10364  30.256  35.988   8.389
  603POPC   C3B10365  30.261  35.817   8.011
  603POPC   C4B10366  30.247  35.930   7.583
  604POPC   NC310367  14.115  25.728   9.483
  604POPC   PO410368  14.458  25.106   9.387
  604POPC   GL110369  14.428  25.342   9.085
  604POPC   GL210370  14.106  25.402   9.107
  604POPC   C1A10371  14.373  25.227   8.692
  604POPC   D2A10372  14.547  24.968   8.403
  604POPC   C3A10373  14.503  25.265   8.090
  604POPC   C4A10374  14.337  25.045   7.766
  604POPC   C1B10375  13.981  25.608   8.753
  604POPC   C2B10376  14.129  25.585   8.347
  604POPC   C3B10377  14.014  25.379   7.968
  604POPC   C4B10378  14.019  25.412   7.526
  605POPC   NC310379  13.860  14.973   9.500
  605POPC   PO410380  13.425  15.482   9.478
  605POPC   GL110381  13.590  15.244   9.136
  605POPC   GL210382  13.532  14.915   9.065
  605POPC   C1A10383  13.742  15.235   8.718
  605POPC   D2A10384  13.581  15.489   8.374
  605POPC   C3A10385  13.651  15.298   8.028
  605POPC   C4A10386  13.712  15.307   7.652
  605POPC   C1B10387  13.262  15.104   8.743
  605POPC   C2B10388  13.226  15.135   8.295
  605POPC   C3B10389  13.261  15.047   7.865
  605POPC   C4B10390  13.581  14.803   7.712
  606POPC   NC310391  36.936  20.986   9.508
  606POPC   PO410392  36.655  21.561   9.708
  606POPC   GL110393  36.955  21.406   9.269
  606POPC   GL210394  37.253  21.510   9.094
  606POPC   C1A10395  36.869  21.363   8.787
  606POPC   D2A10396  36.533  21.317   8.470
  606POPC   C3A10397  36.719  21.411   8.073
  606POPC   C4A10398  36.775  21.668   7.752
  606POPC   C1B10399  37.286  21.674   8.679
  606POPC   C2B10400  37.165  21.433   8.332
  606POPC   C3B10401  37.226  21.409   7.895
  606POPC   C4B10402  37.247  21.734   7.588
  607POPC   NC310403   5.507  20.815   9.407
  607POPC   PO410404   6.050  20.393   9.344
  607POPC   GL110405   5.854  20.288   9.005
  607POPC   GL210406   5.745  20.609   8.991
  607POPC   C1A10407   6.077  20.340   8.634
  607POPC   D2A10408   6.055  20.585   8.292
  607POPC   C3A10409   5.711  20.539   8.055
  607POPC   C4A10410   5.670  20.432   7.632
  607POPC   C1B10411   5.580  20.625   8.566
  607POPC   C2B10412   5.377  20.898   8.245
  607POPC   C3B10413   5.494  20.972   7.846
  607POPC   C4B10414   5.710  20.882   7.446
  608POPC   NC310415  23.427  17.736   9.495
  608POPC   PO410416  24.029  17.313   9.532
  608POPC   GL110417  23.857  17.594   9.216
  608POPC   GL210418  23.601  17.356   9.182
  608POPC   C1A10419  23.631  17.647   8.795
  608POPC   D2A10420  23.661  17.416   8.426
  608POPC   C3A10421  23.489  17.518   8.026
  608POPC   C4A10422  23.781  17.784   7.800
  608POPC   C1B10423  23.866  17.124   8.904
  608POPC   C2B10424  23.785  16.936   8.525
  608POPC   C3B10425  23.713  17.026   8.114
  608POPC   C4B10426  23.903  17.275   7.834
  609POPC   NC310427   9.824  27.092   9.424
  609POPC   PO410428  10.091  27.653   9.431
  609POPC   GL110429   9.855  27.647   9.072
  609POPC   GL210430   9.556  27.868   9.038
  609POPC   C1A10431   9.590  27.374   8.850
  609POPC   D2A10432   9.485  27.267   8.439
  609POPC   C3A10433   9.726  27.440   8.139
  609POPC   C4A10434   9.644  27.328   7.708
  609POPC   C1B10435   9.698  27.835   8.622
  609POPC   C2B10436   9.519  27.935   8.271
  609POPC   C3B10437   9.440  27.777   7.878
  609POPC   C4B10438   9.390  27.971   7.491
  610POPC   NC310439  19.337  33.289   9.749
  610POPC   PO410440  19.067  32.783   9.482
  610POPC   GL110441  18.987  33.021   9.129
  610POPC   GL210442  19.322  32.882   9.056
  610POPC   C1A10443  18.956  33.320   8.770
  610POPC   D2A10444  19.274  33.335   8.471
  610POPC   C3A10445  19.066  33.154   8.125
  610POPC   C4A10446  18.926  33.255   7.718
  610POPC   C1B10447  19.146  32.756   8.680
  610POPC   C2B10448  19.187  32.523   8.308
  610POPC   C3B10449  19.167  32.692   7.896
  610POPC   C4B10450  19.058  32.598   7.471
  611POPC   NC310451  36.977  23.222   9.519
  611POPC   PO410452  37.071  22.512   9.659
  611POPC   GL110453  37.083  22.789   9.219
  611POPC   GL210454  36.819  23.098   9.058
  611POPC   C1A10455  36.976  22.764   8.744
  611POPC   D2A10456  36.916  23.061   8.439
  611POPC   C3A10457  37.021  22.940   8.076
  611POPC   C4A10458  36.839  22.882   7.709
  611POPC   C1B10459  36.517  23.009   8.725
  611POPC   C2B10460  36.361  23.020   8.319
  611POPC   C3B10461  36.559  23.235   7.973
  611POPC   C4B10462  36.494  23.196   7.492
  612POPC   NC310463  33.348  40.941   9.327
  612POPC   PO410464  33.895  40.570   9.592
  612POPC   GL110465  33.739  40.621   9.150
  612POPC   GL210466  33.994  40.796   8.965
  612POPC   C1A10467  33.600  40.572   8.698
  612POPC   D2A10468  33.553  40.836   8.283
  612POPC   C3A10469  33.830  40.830   7.887
  612POPC   C4A10470  33.717  40.802   7.430
  612POPC   C1B10471  33.831  41.115   8.645
  612POPC   C2B10472  33.930  41.238   8.210
  612POPC   C3B10473  33.927  41.322   7.780
  612POPC   C4B10474  34.084  41.163   7.405
  613POPC   NC310475   9.047  42.113   9.345
  613POPC   PO410476   8.887  41.540   9.586
  613POPC   GL110477   8.861  41.434   9.153
  613POPC   GL210478   9.013  41.733   9.041
  613POPC   C1A10479   8.675  41.488   8.756
  613POPC   D2A10480   8.436  41.487   8.405
  613POPC   C3A10481   8.673  41.381   8.063
  613POPC   C4A10482   8.864  41.378   7.659
  613POPC   C1B10483   9.264  41.859   8.686
  613POPC   C2B10484   9.015  41.663   8.356
  613POPC   C3B10485   9.017  41.772   7.934
  613POPC   C4B10486   9.371  41.884   7.660
  614POPC   NC310487  28.525  42.496   9.413
  614POPC   PO410488  28.087  41.985   9.329
  614POPC   GL110489  28.302  42.208   8.976
  614POPC   GL210490  28.646  42.318   8.953
  614POPC   C1A10491  28.260  42.600   8.738
  614POPC   D2A10492  28.009  42.628   8.373
  614POPC   C3A10493  28.149  42.355   8.050
  614POPC   C4A10494  28.081  42.100   7.705
  614POPC   C1B10495  28.847  42.231   8.558
  614POPC   C2B10496  28.636  42.454   8.237
  614POPC   C3B10497  28.597  42.455   7.802
  614POPC   C4B10498  28.537  42.180   7.478
  615POPC   NC310499  44.777  26.125   9.572
  615POPC   PO410500   0.470  26.127   9.482
  615POPC   GL110501   0.298  26.003   9.121
  615POPC   GL210502  44.984  26.180   9.113
  615POPC   C1A10503   0.378  26.124   8.703
  615POPC   D2A10504   0.177  26.144   8.308
  615POPC   C3A10505   0.469  26.138   8.015
  615POPC   C4A10506   0.500  25.920   7.668
  615POPC   C1B10507  44.907  26.340   8.716
  615POPC   C2B10508  44.686  26.254   8.332
  615POPC   C3B10509  44.814  26.264   7.881
  615POPC   C4B10510   0.176  26.346   7.611
  616POPC   NC310511   6.316   8.959   9.626
  616POPC   PO410512   6.994   9.011   9.502
  616POPC   GL110513   6.873   8.832   9.164
  616POPC   GL210514   6.534   8.930   9.170
  616POPC   C1A10515   6.973   8.904   8.767
  616POPC   D2A10516   6.841   9.085   8.422
  616POPC   C3A10517   6.865   8.834   8.083
  616POPC   C4A10518   6.821   9.056   7.731
  616POPC   C1B10519   6.491   9.109   8.802
  616POPC   C2B10520   6.305   9.125   8.405
  616POPC   C3B10521   6.504   9.273   8.064
  616POPC   C4B10522   6.401   9.340   7.642
  617POPC   NC310523  41.878  13.713   9.476
  617POPC   PO410524  41.358  13.376   9.455
  617POPC   GL110525  41.498  13.626   9.115
  617POPC   GL210526  41.783  13.828   9.002
  617POPC   C1A10527  41.520  13.391   8.764
  617POPC   D2A10528  41.301  13.498   8.425
  617POPC   C3A10529  41.545  13.522   8.070
  617POPC   C4A10530  41.333  13.550   7.686
  617POPC   C1B10531  41.782  13.779   8.557
  617POPC   C2B10532  41.493  14.012   8.324
  617POPC   C3B10533  41.396  14.020   7.898
  617POPC   C4B10534  41.781  13.834   7.727
  618POPC   NC310535  30.650   7.199   9.510
  618POPC   PO410536  30.570   6.538   9.507
  618POPC   GL110537  30.678   6.792   9.183
  618POPC   GL210538  31.035   6.734   9.188
  618POPC   C1A10539  30.431   6.783   8.812
  618POPC   D2A10540  30.456   6.494   8.474
  618POPC   C3A10541  30.332   6.688   8.127
  618POPC   C4A10542  30.380   6.589   7.718
  618POPC   C1B10543  30.882   6.535   8.787
  618POPC   C2B10544  30.923   6.712   8.363
  618POPC   C3B10545  30.782   6.483   8.030
  618POPC   C4B10546  30.784   6.285   7.646
  619POPC   NC310547  17.982  20.504   9.499
  619POPC   PO410548  18.242  21.140   9.547
  619POPC   GL110549  18.298  20.820   9.198
  619POPC   GL210550  18.056  20.576   9.013
  619POPC   C1A10551  18.433  20.770   8.760
  619POPC   D2A10552  18.286  20.538   8.400
  619POPC   C3A10553  18.421  20.744   8.066
  619POPC   C4A10554  18.228  20.933   7.727
  619POPC   C1B10555  17.911  20.327   8.664
  619POPC   C2B10556  17.981  20.117   8.274
  619POPC   C3B10557  18.188  20.298   7.917
  619POPC   C4B10558  18.502  20.481   7.635
  620POPC   NC310559  30.202  14.418   9.543
  620POPC   PO410560  29.622  14.643   9.580
  620POPC   GL110561  29.895  14.665   9.186
  620POPC   GL210562  30.238  14.771   9.181
  620POPC   C1A10563  30.097  14.397   8.834
  620POPC   D2A10564  30.239  14.322   8.388
  620POPC   C3A10565  30.043  14.328   7.994
  620POPC   C4A10566  30.156  14.164   7.624
  620POPC   C1B10567  30.065  14.893   8.742
  620POPC   C2B10568  29.967  14.753   8.290
  620POPC   C3B10569  29.861  14.791   7.824
  620POPC   C4B10570  29.558  14.751   7.445
  621POPC   NC310571   7.154  39.682   9.348
  621POPC   PO410572   7.630  39.297   9.533
  621POPC   GL110573   7.539  39.391   9.140
  621POPC   GL210574   7.883  39.511   9.130
  621POPC   C1A10575   7.329  39.243   8.730
  621POPC   D2A10576   7.177  39.161   8.306
  621POPC   C3A10577   7.284  39.477   7.994
  621POPC   C4A10578   7.240  39.290   7.614
  621POPC   C1B10579   7.851  39.295   8.762
  621POPC   C2B10580   7.718  39.136   8.380
  621POPC   C3B10581   7.785  39.281   7.972
  621POPC   C4B10582   7.725  39.164   7.553
  622POPC   NC310583  20.604  34.506   9.451
  622POPC   PO410584  20.753  35.125   9.489
  622POPC   GL110585  20.771  34.894   9.120
  622POPC   GL210586  20.415  34.830   9.092
  622POPC   C1A10587  20.768  34.746   8.674
  622POPC   D2A10588  20.561  34.619   8.265
  622POPC   C3A10589  20.757  34.530   7.843
  622POPC   C4A10590  20.893  34.605   7.395
  622POPC   C1B10591  20.252  34.635   8.738
  622POPC   C2B10592  20.066  34.787   8.359
  622POPC   C3B10593  20.144  34.698   7.937
  622POPC   C4B10594  20.402  34.729   7.530
  623POPC   NC310595  31.658  26.856   9.705
  623POPC   PO410596  31.127  26.598   9.492
  623POPC   GL110597  31.574  26.581   9.258
  623POPC   GL210598  31.699  26.935   9.204
  623POPC   C1A10599  31.750  26.623   8.823
  623POPC   D2A10600  31.637  26.799   8.441
  623POPC   C3A10601  31.529  26.519   8.153
  623POPC   C4A10602  31.383  26.586   7.763
  623POPC   C1B10603  31.356  26.953   8.870
  623POPC   C2B10604  31.311  27.190   8.465
  623POPC   C3B10605  31.333  27.094   8.026
  623POPC   C4B10606  31.177  27.076   7.591
  624POPC   NC310607  21.409  21.537   9.432
  624POPC   PO410608  21.751  21.019   9.691
  624POPC   GL110609  21.713  21.206   9.202
  624POPC   GL210610  21.509  21.144   8.889
  624POPC   C1A10611  21.712  21.589   8.859
  624POPC   D2A10612  21.706  21.438   8.424
  624POPC   C3A10613  21.553  21.624   8.058
  624POPC   C4A10614  21.621  21.508   7.603
  624POPC   C1B10615  21.257  21.153   8.529
  624POPC   C2B10616  21.101  21.460   8.234
  624POPC   C3B10617  21.124  21.457   7.774
  624POPC   C4B10618  21.172  21.738   7.421
  625POPC   NC310619  28.338   3.437   9.740
  625POPC   PO410620  27.773   3.342   9.305
  625POPC   GL110621  28.196   3.532   9.247
  625POPC   GL210622  28.490   3.295   9.267
  625POPC   C1A10623  28.407   3.628   8.861
  625POPC   D2A10624  28.287   3.385   8.488
  625POPC   C3A10625  28.339   3.612   8.109
  625POPC   C4A10626  28.044   3.521   7.836
  625POPC   C1B10627  28.619   3.168   8.832
  625POPC   C2B10628  28.642   3.037   8.388
  625POPC   C3B10629  28.417   3.123   7.982
  625POPC   C4B10630  28.522   3.382   7.620
  626POPC   NC310631  23.213  38.916   9.345
  626POPC   PO410632  22.956  38.425   9.769
  626POPC   GL110633  23.022  38.442   9.300
  626POPC   GL210634  23.337  38.480   9.078
  626POPC   C1A10635  22.865  38.410   8.873
  626POPC   D2A10636  22.629  38.238   8.505
  626POPC   C3A10637  22.731  38.463   8.124
  626POPC   C4A10638  22.598  38.519   7.703
  626POPC   C1B10639  23.473  38.572   8.653
  626POPC   C2B10640  23.399  38.327   8.300
  626POPC   C3B10641  23.375  38.214   7.892
  626POPC   C4B10642  23.098  38.558   7.743
  627POPC   NC310643  40.208  43.711   9.645
  627POPC   PO410644  39.655  43.957   9.721
  627POPC   GL110645  39.851  43.863   9.277
  627POPC   GL210646  40.191  44.013   9.191
  627POPC   C1A10647  39.818  43.899   8.800
  627POPC   D2A10648  40.126  43.931   8.456
  627POPC   C3A10649  40.037  43.781   8.038
  627POPC   C4A10650  40.072  43.983   7.631
  627POPC   C1B10651  40.265  43.667   8.876
  627POPC   C2B10652  40.320  43.478   8.434
  627POPC   C3B10653  40.513  43.552   8.055
  627POPC   C4B10654  40.276  43.469   7.690
  628POPC   NC310655  27.389   0.229   9.561
  628POPC   PO410656  27.789   0.780   9.636
  628POPC   GL110657  27.580   0.725   9.209
  628POPC   GL210658  27.496   0.424   9.126
  628POPC   C1A10659  27.729   0.671   8.753
  628POPC   D2A10660  27.905   0.511   8.394
  628POPC   C3A10661  27.719   0.580   8.012
  628POPC   C4A10662  27.907   0.491   7.627
  628POPC   C1B10663  27.265   0.443   8.767
  628POPC   C2B10664  27.401   0.361   8.376
  628POPC   C3B10665  27.204   0.418   8.015
  628POPC   C4B10666  27.375   0.464   7.645
  629POPC   NC310667  40.034  42.022   9.308
  629POPC   PO410668  39.944  42.663   9.487
  629POPC   GL110669  40.231  42.474   9.176
  629POPC   GL210670  39.932  42.402   8.960
  629POPC   C1A10671  40.392  42.239   8.810
  629POPC   D2A10672  40.210  42.437   8.441
  629POPC   C3A10673  40.297  42.242   8.065
  629POPC   C4A10674  40.230  42.285   7.654
  629POPC   C1B10675  39.933  42.028   8.651
  629POPC   C2B10676  39.876  41.965   8.217
  629POPC   C3B10677  39.794  42.286   7.930
  629POPC   C4B10678  39.753  42.529   7.528
  630POPC   NC310679   0.254  44.059   9.511
  630POPC   PO410680   0.362  43.452   9.699
  630POPC   GL110681   0.498  43.622   9.236
  630POPC   GL210682   0.327  43.916   9.035
  630POPC   C1A10683   0.525  43.520   8.759
  630POPC   D2A10684   0.424  43.467   8.287
  630POPC   C3A10685   0.475  43.756   7.915
  630POPC   C4A10686   0.845  43.920   7.696
  630POPC   C1B10687   0.096  43.801   8.681
  630POPC   C2B10688   0.207  43.985   8.300
  630POPC   C3B10689   0.025  44.050   7.907
  630POPC   C4B10690   0.241  43.970   7.482
  631POPC   NC310691   3.336  29.052   9.590
  631POPC   PO410692   3.641  29.622   9.382
  631POPC   GL110693   3.472  29.326   9.146
  631POPC   GL210694   3.597  28.996   9.139
  631POPC   C1A10695   3.578  29.368   8.746
  631POPC   D2A10696   3.333  29.453   8.435
  631POPC   C3A10697   3.403  29.136   8.181
  631POPC   C4A10698   3.484  29.257   7.808
  631POPC   C1B10699   3.384  28.895   8.724
  631POPC   C2B10700   3.155  28.710   8.377
  631POPC   C3B10701   3.357  28.671   7.961
  631POPC   C4B10702   3.418  28.845   7.519
  632POPC   NC310703  39.888   1.408   9.416
  632POPC   PO410704  40.092   0.674   9.426
  632POPC   GL110705  39.965   0.960   9.140
  632POPC   GL210706  40.216   1.181   9.110
  632POPC   C1A10707  39.817   1.131   8.758
  632POPC   D2A10708  39.846   0.910   8.382
  632POPC   C3A10709  39.828   1.140   8.022
  632POPC   C4A10710  39.446   1.227   7.845
  632POPC   C1B10711  40.310   0.973   8.728
  632POPC   C2B10712  40.326   1.148   8.329
  632POPC   C3B10713  40.273   1.451   8.002
  632POPC   C4B10714  40.288   1.151   7.727
  633POPC   NC310715  16.514  28.141   9.358
  633POPC   PO410716  17.089  28.603   9.526
  633POPC   GL110717  16.988  28.300   9.206
  633POPC   GL210718  16.727  28.484   9.059
  633POPC   C1A10719  17.010  28.154   8.749
  633POPC   D2A10720  16.800  28.134   8.328
  633POPC   C3A10721  17.014  28.048   7.922
  633POPC   C4A10722  17.151  28.353   7.607
  633POPC   C1B10723  16.405  28.406   8.732
  633POPC   C2B10724  16.397  28.461   8.293
  633POPC   C3B10725  16.542  28.315   7.891
  633POPC   C4B10726  16.298  28.256   7.491
  634POPC   NC310727   0.310   4.957   9.521
  634POPC   PO410728   1.018   4.885   9.491
  634POPC   GL110729   0.667   4.931   9.164
  634POPC   GL210730   0.380   5.207   9.089
  634POPC   C1A10731   0.409   4.811   8.794
  634POPC   D2A10732   0.239   5.146   8.506
  634POPC   C3A10733   0.156   5.021   8.069
  634POPC   C4A10734   0.339   5.164   7.677
  634POPC   C1B10735   0.687   5.315   8.812
  634POPC   C2B10736   0.648   5.489   8.434
  634POPC   C3B10737   0.547   5.356   8.089
  634POPC   C4B10738   0.777   5.410   7.752
  635POPC   NC310739  21.986  16.880   9.480
  635POPC   PO410740  22.592  16.464   9.477
  635POPC   GL110741  22.334  16.571   9.173
  635POPC   GL210742  22.449  16.896   9.133
  635POPC   C1A10743  22.464  16.541   8.762
  635POPC   D2A10744  22.243  16.576   8.429
  635POPC   C3A10745  22.468  16.543   8.063
  635POPC   C4A10746  22.199  16.584   7.707
  635POPC   C1B10747  22.115  16.954   8.830
  635POPC   C2B10748  21.877  16.923   8.458
  635POPC   C3B10749  22.053  16.908   8.080
  635POPC   C4B10750  22.023  17.086   7.717
  636POPC   NC310751   8.732  13.454   9.474
  636POPC   PO410752   9.101  14.080   9.486
  636POPC   GL110753   8.950  13.860   9.096
  636POPC   GL210754   8.728  13.570   8.998
  636POPC   C1A10755   9.066  13.704   8.669
  636POPC   D2A10756   8.931  13.461   8.314
  636POPC   C3A10757   9.081  13.625   7.935
  636POPC   C4A10758   8.855  13.953   7.735
  636POPC   C1B10759   8.742  13.219   8.717
  636POPC   C2B10760   8.736  12.957   8.344
  636POPC   C3B10761   8.921  13.103   7.950
  636POPC   C4B10762   8.921  13.127   7.498
  637POPC   NC310763  42.229  24.616   9.546
  637POPC   PO410764  42.600  24.077   9.356
  637POPC   GL110765  42.332  24.355   9.119
  637POPC   GL210766  42.448  24.696   9.071
  637POPC   C1A10767  42.100  24.501   8.758
  637POPC   D2A10768  42.050  24.291   8.381
  637POPC   C3A10769  42.274  24.417   8.040
  637POPC   C4A10770  42.352  24.230   7.618
  637POPC   C1B10771  42.621  24.391   8.726
  637POPC   C2B10772  42.717  24.490   8.318
  637POPC   C3B10773  42.748  24.342   7.920
  637POPC   C4B10774  42.559  24.672   7.666
  638POPC   NC310775  33.889  11.306   9.365
  638POPC   PO410776  34.031  10.852   9.778
  638POPC   GL110777  34.182  10.984   9.147
  638POPC   GL210778  34.061  11.357   8.909
  638POPC   C1A10779  34.145  10.952   8.664
  638POPC   D2A10780  33.900  11.223   8.387
  638POPC   C3A10781  33.992  11.143   7.964
  638POPC   C4A10782  33.744  10.977   7.586
  638POPC   C1B10783  33.696  11.663   8.804
  638POPC   C2B10784  33.439  11.873   8.470
  638POPC   C3B10785  33.542  11.732   8.047
  638POPC   C4B10786  33.706  11.480   7.723
  639POPC   NC310787  13.332   7.902   9.515
  639POPC   PO410788  13.945   8.346   9.494
  639POPC   GL110789  13.548   8.290   9.213
  639POPC   GL210790  13.619   7.954   9.081
  639POPC   C1A10791  13.404   8.305   8.757
  639POPC   D2A10792  13.492   8.043   8.389
  639POPC   C3A10793  13.371   8.167   7.965
  639POPC   C4A10794  13.443   8.142   7.497
  639POPC   C1B10795  13.911   8.242   8.843
  639POPC   C2B10796  14.027   8.142   8.450
  639POPC   C3B10797  13.901   8.213   8.050
  639POPC   C4B10798  13.940   8.136   7.646
  640POPC   NC310799  42.214   0.744   9.367
  640POPC   PO410800  42.352   1.444   9.450
  640POPC   GL110801  42.548   1.324   9.097
  640POPC   GL210802  42.670   0.971   9.154
  640POPC   C1A10803  42.405   1.355   8.694
  640POPC   D2A10804  42.229   1.452   8.313
  640POPC   C3A10805  42.279   1.256   7.923
  640POPC   C4A10806  42.019   0.928   7.756
  640POPC   C1B10807  42.419   0.857   8.765
  640POPC   C2B10808  42.466   0.971   8.336
  640POPC   C3B10809  42.483   0.778   7.916
  640POPC   C4B10810  42.466   0.936   7.458
  641POPC   NC310811  21.334  30.837   9.459
  641POPC   PO410812  21.933  30.478   9.487
  641POPC   GL110813  21.618  30.342   9.172
  641POPC   GL210814  21.237  30.362   9.158
  641POPC   C1A10815  21.505  30.616   8.820
  641POPC   D2A10816  21.599  30.853   8.475
  641POPC   C3A10817  21.547  30.663   8.087
  641POPC   C4A10818  21.507  30.814   7.681
  641POPC   C1B10819  21.041  30.429   8.757
  641POPC   C2B10820  21.107  30.710   8.377
  641POPC   C3B10821  21.054  30.728   7.919
  641POPC   C4B10822  20.848  30.364   7.682
  642POPC   NC310823  41.955  27.439   9.779
  642POPC   PO410824  42.467  27.397   9.362
  642POPC   GL110825  42.255  27.649   9.081
  642POPC   GL210826  42.512  27.915   9.001
  642POPC   C1A10827  42.172  27.611   8.640
  642POPC   D2A10828  42.111  27.844   8.264
  642POPC   C3A10829  42.105  27.534   7.960
  642POPC   C4A10830  42.176  27.669   7.561
  642POPC   C1B10831  42.662  27.612   8.727
  642POPC   C2B10832  42.548  27.578   8.287
  642POPC   C3B10833  42.572  27.754   7.886
  642POPC   C4B10834  42.698  27.760   7.449
  643POPC   NC310835  17.976  34.873   9.267
  643POPC   PO410836  18.556  34.351   9.367
  643POPC   GL110837  18.340  34.570   9.082
  643POPC   GL210838  18.000  34.446   8.965
  643POPC   C1A10839  18.429  34.479   8.682
  643POPC   D2A10840  18.508  34.740   8.373
  643POPC   C3A10841  18.392  34.560   8.002
  643POPC   C4A10842  18.652  34.747   7.740
  643POPC   C1B10843  18.035  34.809   8.641
  643POPC   C2B10844  18.011  34.861   8.211
  643POPC   C3B10845  18.022  34.824   7.749
  643POPC   C4B10846  17.907  34.922   7.313
  644POPC   NC310847   7.168  29.841   9.415
  644POPC   PO410848   7.862  30.126   9.393
  644POPC   GL110849   7.538  30.033   9.133
  644POPC   GL210850   7.654  29.748   8.985
  644POPC   C1A10851   7.340  30.094   8.760
  644POPC   D2A10852   7.549  29.880   8.441
  644POPC   C3A10853   7.448  30.155   8.128
  644POPC   C4A10854   7.484  30.290   7.736
  644POPC   C1B10855   7.269  29.589   8.831
  644POPC   C2B10856   7.217  29.458   8.451
  644POPC   C3B10857   7.158  29.716   8.118
  644POPC   C4B10858   7.218  29.680   7.711
  645POPC   NC310859   9.538   6.307   9.548
  645POPC   PO410860   9.774   5.689   9.663
  645POPC   GL110861   9.768   5.935   9.271
  645POPC   GL210862   9.733   5.612   9.153
  645POPC   C1A10863   9.807   5.976   8.820
  645POPC   D2A10864   9.776   5.703   8.477
  645POPC   C3A10865   9.824   5.972   8.154
  645POPC   C4A10866   9.851   5.815   7.769
  645POPC   C1B10867   9.376   5.707   8.903
  645POPC   C2B10868   9.277   5.570   8.486
  645POPC   C3B10869   9.435   5.651   8.060
  645POPC   C4B10870   9.389   5.828   7.618
  646POPC   NC310871  21.129  31.497   9.480
  646POPC   PO410872  20.456  31.548   9.599
  646POPC   GL110873  20.487  31.404   9.187
  646POPC   GL210874  20.791  31.618   9.115
  646POPC   C1A10875  20.427  31.507   8.757
  646POPC   D2A10876  20.644  31.568   8.396
  646POPC   C3A10877  20.387  31.583   8.047
  646POPC   C4A10878  20.529  31.538   7.681
  646POPC   C1B10879  20.974  31.420   8.793
  646POPC   C2B10880  21.130  31.335   8.392
  646POPC   C3B10881  21.010  31.573   8.039
  646POPC   C4B10882  21.023  31.530   7.638
  647POPC   NC310883  20.363  31.049   9.576
  647POPC   PO410884  20.941  30.595   9.519
  647POPC   GL110885  20.675  30.796   9.248
  647POPC   GL210886  20.897  31.093   9.254
  647POPC   C1A10887  20.505  30.722   8.835
  647POPC   D2A10888  20.642  30.485   8.462
  647POPC   C3A10889  20.584  30.651   8.098
  647POPC   C4A10890  20.452  30.683   7.712
  647POPC   C1B10891  20.989  30.925   8.843
  647POPC   C2B10892  20.718  31.033   8.477
  647POPC   C3B10893  20.698  31.160   8.046
  647POPC   C4B10894  20.796  31.055   7.639
  648POPC   NC310895   8.065  13.225   9.489
  648POPC   PO410896   8.125  13.870   9.434
  648POPC   GL110897   8.230  13.595   9.105
  648POPC   GL210898   7.960  13.372   9.002
  648POPC   C1A10899   8.351  13.580   8.654
  648POPC   D2A10900   8.413  13.350   8.268
  648POPC   C3A10901   8.577  13.523   7.899
  648POPC   C4A10902   8.516  13.438   7.453
  648POPC   C1B10903   7.894  13.794   8.777
  648POPC   C2B10904   8.118  14.002   8.461
  648POPC   C3B10905   8.077  13.737   8.105
  648POPC   C4B10906   8.163  13.727   7.682
  649POPC   NC310907  13.563  27.336   9.457
  649POPC   PO410908  13.401  28.005   9.629
  649POPC   GL110909  13.642  27.865   9.276
  649POPC   GL210910  13.353  27.706   9.164
  649POPC   C1A10911  13.755  27.751   8.847
  649POPC   D2A10912  13.509  27.929   8.481
  649POPC   C3A10913  13.636  27.741   8.123
  649POPC   C4A10914  13.768  27.606   7.734
  649POPC   C1B10915  13.307  27.526   8.736
  649POPC   C2B10916  13.155  27.586   8.285
  649POPC   C3B10917  13.302  27.360   7.917
  649POPC   C4B10918  13.202  27.003   7.639
  650POPC   NC310919  25.977  36.580   9.525
  650POPC   PO410920  26.105  37.187   9.300
  650POPC   GL110921  25.860  36.879   9.090
  650POPC   GL210922  26.073  36.539   9.036
  650POPC   C1A10923  25.764  37.088   8.677
  650POPC   D2A10924  26.057  37.284   8.383
  650POPC   C3A10925  25.932  37.206   7.970
  650POPC   C4A10926  26.125  37.150   7.565
  650POPC   C1B10927  25.868  36.601   8.654
  650POPC   C2B10928  25.893  36.781   8.244
  650POPC   C3B10929  25.979  36.714   7.800
  650POPC   C4B10930  25.943  36.388   7.438
  651POPC   NC310931  33.677  20.741   9.696
  651POPC   PO410932  33.585  20.121   9.453
  651POPC   GL110933  33.791  20.459   9.208
  651POPC   GL210934  33.824  20.845   9.231
  651POPC   C1A10935  33.855  20.595   8.781
  651POPC   D2A10936  33.618  20.626   8.387
  651POPC   C3A10937  33.817  20.560   8.024
  651POPC   C4A10938  33.658  20.501   7.604
  651POPC   C1B10939  33.878  21.100   8.869
  651POPC   C2B10940  34.029  20.959   8.458
  651POPC   C3B10941  34.025  21.037   8.047
  651POPC   C4B10942  33.759  20.987   7.739
  652POPC   NC310943  26.408  30.788   9.542
  652POPC   PO410944  27.111  31.000   9.407
  652POPC   GL110945  26.859  30.679   9.140
  652POPC   GL210946  26.520  30.512   9.134
  652POPC   C1A10947  26.753  30.707   8.706
  652POPC   D2A10948  26.763  30.974   8.364
  652POPC   C3A10949  26.825  30.721   8.008
  652POPC   C4A10950  26.933  30.762   7.594
  652POPC   C1B10951  26.347  30.421   8.751
  652POPC   C2B10952  26.463  30.526   8.304
  652POPC   C3B10953  26.430  30.445   7.843
  652POPC   C4B10954  26.560  30.420   7.406
  653POPC   NC310955  25.257   5.756   9.438
  653POPC   PO410956  25.370   6.361   9.686
  653POPC   GL110957  25.279   6.256   9.228
  653POPC   GL210958  25.526   6.050   9.093
  653POPC   C1A10959  25.257   6.302   8.769
  653POPC   D2A10960  25.498   6.299   8.370
  653POPC   C3A10961  25.276   6.090   8.021
  653POPC   C4A10962  25.124   6.127   7.577
  653POPC   C1B10963  25.506   5.833   8.710
  653POPC   C2B10964  25.717   5.829   8.317
  653POPC   C3B10965  25.742   5.961   7.880
  653POPC   C4B10966  25.423   5.697   7.649
  654POPC   NC310967   4.971  10.053   9.392
  654POPC   PO410968   5.286   9.454   9.556
  654POPC   GL110969   5.181   9.635   9.155
  654POPC   GL210970   4.870   9.529   9.010
  654POPC   C1A10971   5.167   9.899   8.762
  654POPC   D2A10972   5.165   9.727   8.359
  654POPC   C3A10973   5.150   9.891   7.961
  654POPC   C4A10974   5.048   9.513   7.780
  654POPC   C1B10975   4.651   9.868   8.804
  654POPC   C2B10976   4.741  10.036   8.392
  654POPC   C3B10977   4.628   9.837   8.001
  654POPC   C4B10978   4.767   9.872   7.559
  655POPC   NC310979  32.011  20.421   9.356
  655POPC   PO410980  32.641  20.542   9.469
  655POPC   GL110981  32.419  20.586   9.105
  655POPC   GL210982  32.492  20.241   9.072
  655POPC   C1A10983  32.231  20.778   8.737
  655POPC   D2A10984  32.336  20.999   8.359
  655POPC   C3A10985  32.374  20.752   7.991
  655POPC   C4A10986  31.970  20.618   7.891
  655POPC   C1B10987  32.256  20.236   8.705
  655POPC   C2B10988  32.212  20.426   8.346
  655POPC   C3B10989  32.306  20.240   7.980
  655POPC   C4B10990  32.490  20.337   7.651
  656POPC   NC310991  27.046  33.535   9.399
  656POPC   PO410992  27.056  34.204   9.568
  656POPC   GL110993  26.956  33.975   9.133
  656POPC   GL210994  26.623  33.753   9.119
  656POPC   C1A10995  26.897  33.783   8.689
  656POPC   D2A10996  26.599  33.660   8.337
  656POPC   C3A10997  26.797  33.565   7.954
  656POPC   C4A10998  26.806  33.944   7.750
  656POPC   C1B10999  26.386  33.946   8.746
  656POPC   C2B11000  26.314  34.088   8.306
  656POPC   C3B11001  26.297  33.875   7.878
  656POPC   C4B11002  26.379  34.069   7.440
  657POPC   NC311003  10.155  42.449   9.564
  657POPC   PO411004   9.482  42.197   9.520
  657POPC   GL111005   9.519  42.062   9.118
  657POPC   GL211006   9.402  42.356   9.041
  657POPC   C1A11007   9.782  42.054   8.755
  657POPC   D2A11008   9.869  41.894   8.341
  657POPC   C3A11009   9.636  42.140   8.014
  657POPC   C4A11010   9.801  42.236   7.583
  657POPC   C1B11011   9.679  42.587   8.787
  657POPC   C2B11012   9.558  42.473   8.393
  657POPC   C3B11013   9.508  42.642   8.005
  657POPC   C4B11014   9.714  42.735   7.650
  658POPC   NC311015   9.279  15.626   9.324
  658POPC   PO411016   8.950  15.138   9.659
  658POPC   GL111017   8.934  15.187   9.172
  658POPC   GL211018   8.977  15.498   8.947
  658POPC   C1A11019   8.741  15.082   8.756
  658POPC   D2A11020   8.880  15.001   8.341
  658POPC   C3A11021   8.780  15.262   7.980
  658POPC   C4A11022   8.914  15.293   7.514
  658POPC   C1B11023   9.240  15.241   8.676
  658POPC   C2B11024   9.357  15.170   8.252
  658POPC   C3B11025   9.317  15.308   7.839
  658POPC   C4B11026   9.406  15.655   7.562
  659POPC   NC311027  13.201  13.452   9.411
  659POPC   PO411028  13.822  13.722   9.423
  659POPC   GL111029  13.853  13.888   9.057
  659POPC   GL211030  13.504  13.713   9.023
  659POPC   C1A11031  13.688  14.013   8.675
  659POPC   D2A11032  13.476  13.721   8.423
  659POPC   C3A11033  13.682  13.703   8.033
  659POPC   C4A11034  13.468  13.786   7.651
  659POPC   C1B11035  13.452  13.348   8.816
  659POPC   C2B11036  13.202  13.203   8.525
  659POPC   C3B11037  13.340  13.305   8.131
  659POPC   C4B11038  13.530  13.296   7.741
  660POPC   NC311039  12.480  25.079   9.494
  660POPC   PO411040  13.190  24.941   9.516
  660POPC   GL111041  13.054  25.010   9.114
  660POPC   GL211042  12.719  24.892   9.081
  660POPC   C1A11043  12.915  25.350   8.823
  660POPC   D2A11044  12.653  25.427   8.451
  660POPC   C3A11045  12.798  25.390   8.052
  660POPC   C4A11046  12.742  25.402   7.644
  660POPC   C1B11047  12.644  24.944   8.657
  660POPC   C2B11048  12.738  24.927   8.254
  660POPC   C3B11049  12.627  24.932   7.835
  660POPC   C4B11050  12.636  24.922   7.379
  661POPC   NC311051  12.473  35.813   9.672
  661POPC   PO411052  13.107  35.951   9.526
  661POPC   GL111053  13.083  36.150   9.143
  661POPC   GL211054  12.792  36.371   9.183
  661POPC   C1A11055  13.120  35.916   8.763
  661POPC   D2A11056  12.921  35.786   8.366
  661POPC   C3A11057  13.062  36.043   8.029
  661POPC   C4A11058  13.199  36.142   7.607
  661POPC   C1B11059  12.730  36.269   8.740
  661POPC   C2B11060  12.590  36.269   8.308
  661POPC   C3B11061  12.653  36.381   7.888
  661POPC   C4B11062  12.728  36.305   7.459
  662POPC   NC311063  15.445  38.343   9.547
  662POPC   PO411064  14.846  38.667   9.593
  662POPC   GL111065  15.001  38.376   9.224
  662POPC   GL211066  14.733  38.167   9.006
  662POPC   C1A11067  15.192  38.247   8.792
  662POPC   D2A11068  14.981  38.163   8.392
  662POPC   C3A11069  15.239  38.256   8.025
  662POPC   C4A11070  15.405  38.405   7.632
  662POPC   C1B11071  14.776  38.550   8.796
  662POPC   C2B11072  14.856  38.661   8.404
  662POPC   C3B11073  14.748  38.580   8.000
  662POPC   C4B11074  14.944  38.772   7.684
  663POPC   NC311075   8.084  36.040   9.811
  663POPC   PO411076   8.051  35.621   9.309
  663POPC   GL111077   8.350  35.772   9.059
  663POPC   GL211078   8.299  36.109   9.080
  663POPC   C1A11079   8.359  35.661   8.663
  663POPC   D2A11080   8.287  35.980   8.424
  663POPC   C3A11081   8.121  35.902   8.043
  663POPC   C4A11082   8.148  36.080   7.703
  663POPC   C1B11083   8.009  36.319   8.810
  663POPC   C2B11084   7.766  36.472   8.479
  663POPC   C3B11085   7.864  36.388   8.065
  663POPC   C4B11086   7.890  36.503   7.666
  664POPC   NC311087  33.344   9.380   9.384
  664POPC   PO411088  32.910   8.880   9.474
  664POPC   GL111089  33.112   8.934   9.126
  664POPC   GL211090  33.079   9.223   8.977
  664POPC   C1A11091  33.237   8.792   8.758
  664POPC   D2A11092  33.030   9.032   8.470
  664POPC   C3A11093  33.041   8.828   8.114
  664POPC   C4A11094  33.036   8.686   7.731
  664POPC   C1B11095  32.759   9.422   8.785
  664POPC   C2B11096  32.512   9.241   8.498
  664POPC   C3B11097  32.694   9.264   8.121
  664POPC   C4B11098  32.849   9.169   7.739
  665POPC   NC311099  16.766  21.835   9.500
  665POPC   PO411100  16.346  21.305   9.611
  665POPC   GL111101  16.547  21.451   9.180
  665POPC   GL211102  16.884  21.562   9.079
  665POPC   C1A11103  16.574  21.285   8.721
  665POPC   D2A11104  16.422  21.148   8.314
  665POPC   C3A11105  16.527  21.418   7.961
  665POPC   C4A11106  16.504  21.602   7.558
  665POPC   C1B11107  17.067  21.427   8.705
  665POPC   C2B11108  16.910  21.398   8.294
  665POPC   C3B11109  17.052  21.405   7.840
  665POPC   C4B11110  16.951  21.485   7.363
  666POPC   NC311111  26.082  21.417   9.498
  666POPC   PO411112  25.604  21.556   9.140
  666POPC   GL111113  25.964  21.656   8.949
  666POPC   GL211114  26.098  21.357   8.987
  666POPC   C1A11115  25.923  21.778   8.531
  666POPC   D2A11116  25.820  21.451   8.256
  666POPC   C3A11117  25.737  21.594   7.879
  666POPC   C4A11118  26.117  21.530   7.785
  666POPC   C1B11119  26.241  21.038   8.726
  666POPC   C2B11120  26.007  20.959   8.342
  666POPC   C3B11121  26.163  21.055   7.966
  666POPC   C4B11122  26.212  20.824   7.614
  667POPC   NC311123  32.027  19.613   9.434
  667POPC   PO411124  32.654  19.755   9.454
  667POPC   GL111125  32.380  19.743   9.088
  667POPC   GL211126  32.058  19.959   9.070
  667POPC   C1A11127  32.233  19.682   8.682
  667POPC   D2A11128  32.334  19.859   8.316
  667POPC   C3A11129  32.377  19.606   7.963
  667POPC   C4A11130  32.319  19.855   7.566
  667POPC   C1B11131  31.795  19.961   8.715
  667POPC   C2B11132  31.851  20.070   8.306
  667POPC   C3B11133  31.957  19.888   7.917
  667POPC   C4B11134  31.907  20.214   7.599
  668POPC   NC311135  17.242   0.927   9.670
  668POPC   PO411136  17.687   1.360   9.429
  668POPC   GL111137  17.340   1.212   9.214
  668POPC   GL211138  17.302   1.486   9.015
  668POPC   C1A11139  17.285   1.065   8.766
  668POPC   D2A11140  17.268   1.446   8.491
  668POPC   C3A11141  17.153   1.352   8.077
  668POPC   C4A11142  17.259   1.020   7.830
  668POPC   C1B11143  17.733   1.271   8.788
  668POPC   C2B11144  17.913   0.989   8.417
  668POPC   C3B11145  17.839   1.036   7.956
  668POPC   C4B11146  17.716   1.410   7.776
  669POPC   NC311147   0.480  41.408   9.406
  669POPC   PO411148   0.678  41.945   9.691
  669POPC   GL111149   0.460  41.890   9.283
  669POPC   GL211150   0.679  41.725   9.027
  669POPC   C1A11151   0.197  41.762   8.914
  669POPC   D2A11152   0.313  41.602   8.517
  669POPC   C3A11153   0.140  41.650   8.127
  669POPC   C4A11154   0.436  41.670   7.804
  669POPC   C1B11155   0.635  41.306   8.792
  669POPC   C2B11156   0.736  41.090   8.435
  669POPC   C3B11157   0.796  41.277   8.069
  669POPC   C4B11158   0.782  41.120   7.664
  670POPC   NC311159  43.321  33.536   9.493
  670POPC   PO411160  42.842  33.924   9.381
  670POPC   GL111161  42.939  33.598   9.061
  670POPC   GL211162  43.312  33.564   8.991
  670POPC   C1A11163  42.993  33.499   8.618
  670POPC   D2A11164  43.349  33.569   8.359
  670POPC   C3A11165  43.163  33.753   8.028
  670POPC   C4A11166  43.063  33.855   7.631
  670POPC   C1B11167  43.244  33.930   8.722
  670POPC   C2B11168  43.312  34.136   8.317
  670POPC   C3B11169  43.078  34.268   7.926
  670POPC   C4B11170  43.120  34.349   7.456
  671POPC   NC311171   2.659   7.326   9.431
  671POPC   PO411172   3.116   7.740   9.106
  671POPC   GL111173   2.728   7.562   8.996
  671POPC   GL211174   2.414   7.710   9.198
  671POPC   C1A11175   2.796   7.244   8.665
  671POPC   D2A11176   3.040   7.329   8.270
  671POPC   C3A11177   2.847   7.135   7.926
  671POPC   C4A11178   2.876   7.231   7.519
  671POPC   C1B11179   2.295   7.734   8.793
  671POPC   C2B11180   2.593   7.705   8.516
  671POPC   C3B11181   2.575   7.562   8.139
  671POPC   C4B11182   2.755   7.756   7.799
  672POPC   NC311183  32.356   5.320   9.458
  672POPC   PO411184  32.529   4.710   9.386
  672POPC   GL111185  32.469   4.931   9.051
  672POPC   GL211186  32.111   4.963   9.113
  672POPC   C1A11187  32.287   4.839   8.631
  672POPC   D2A11188  32.213   4.639   8.221
  672POPC   C3A11189  32.150   4.915   7.872
  672POPC   C4A11190  32.498   5.122   7.689
  672POPC   C1B11191  32.268   5.330   8.828
  672POPC   C2B11192  32.292   5.409   8.410
  672POPC   C3B11193  32.386   5.530   7.988
  672POPC   C4B11194  32.143   5.467   7.597
  673POPC   NC311195  19.495  30.004   9.472
  673POPC   PO411196  20.192  29.982   9.331
  673POPC   GL111197  19.898  30.006   9.002
  673POPC   GL211198  19.595  29.817   9.028
  673POPC   C1A11199  19.972  29.859   8.612
  673POPC   D2A11200  20.110  29.612   8.310
  673POPC   C3A11201  19.980  29.952   8.051
  673POPC   C4A11202  19.966  29.971   7.641
  673POPC   C1B11203  19.455  29.953   8.641
  673POPC   C2B11204  19.531  29.802   8.253
  673POPC   C3B11205  19.505  29.864   7.811
  673POPC   C4B11206  19.601  29.635   7.424
  674POPC   NC311207  13.622  38.114   9.812
  674POPC   PO411208  13.733  37.594   9.367
  674POPC   GL111209  13.542  37.445   9.022
  674POPC   GL211210  13.700  37.732   8.864
  674POPC   C1A11211  13.514  37.387   8.561
  674POPC   D2A11212  13.734  37.252   8.243
  674POPC   C3A11213  13.694  37.583   7.972
  674POPC   C4A11214  13.456  37.583   7.643
  674POPC   C1B11215  14.023  37.437   8.713
  674POPC   C2B11216  14.222  37.390   8.309
  674POPC   C3B11217  14.127  37.341   7.866
  674POPC   C4B11218  13.926  37.474   7.467
  675POPC   NC311219  16.892  40.007   9.474
  675POPC   PO411220  16.509  39.529   9.251
  675POPC   GL111221  16.490  39.818   9.029
  675POPC   GL211222  16.796  39.851   8.992
  675POPC   C1A11223  16.482  39.679   8.620
  675POPC   D2A11224  16.637  39.628   8.283
  675POPC   C3A11225  16.647  40.012   8.129
  675POPC   C4A11226  16.439  39.838   7.786
  675POPC   C1B11227  16.812  40.074   8.643
  675POPC   C2B11228  17.087  39.836   8.443
  675POPC   C3B11229  17.082  39.773   8.040
  675POPC   C4B11230  16.939  40.089   7.734
  676POPC   NC311231  35.567  33.994   9.437
  676POPC   PO411232  35.005  33.766   9.513
  676POPC   GL111233  35.128  33.902   9.153
  676POPC   GL211234  35.363  33.647   9.137
  676POPC   C1A11235  35.213  33.956   8.737
  676POPC   D2A11236  35.311  33.744   8.384
  676POPC   C3A11237  35.325  34.056   8.119
  676POPC   C4A11238  35.215  34.013   7.742
  676POPC   C1B11239  35.662  33.744   8.802
  676POPC   C2B11240  35.724  34.046   8.470
  676POPC   C3B11241  35.770  33.797   8.128
  676POPC   C4B11242  35.609  33.654   7.764
  677POPC   NC311243  43.186  29.178   9.412
  677POPC   PO411244  43.646  28.665   9.245
  677POPC   GL111245  43.297  28.852   9.038
  677POPC   GL211246  42.926  28.854   9.133
  677POPC   C1A11247  43.169  29.047   8.674
  677POPC   D2A11248  43.096  28.910   8.317
  677POPC   C3A11249  43.317  29.125   8.036
  677POPC   C4A11250  43.137  29.074   7.676
  677POPC   C1B11251  42.678  28.910   8.767
  677POPC   C2B11252  42.642  29.133   8.415
  677POPC   C3B11253  42.803  29.275   8.037
  677POPC   C4B11254  42.631  28.967   7.779
  678POPC   NC311255  17.501  28.255   9.467
  678POPC   PO411256  17.929  28.779   9.545
  678POPC   GL111257  17.760  28.657   9.122
  678POPC   GL211258  17.436  28.460   9.020
  678POPC   C1A11259  17.677  28.732   8.675
  678POPC   D2A11260  17.339  28.468   8.503
  678POPC   C3A11261  17.339  28.434   8.081
  678POPC   C4A11262  17.688  28.513   7.832
  678POPC   C1B11263  17.740  28.221   8.773
  678POPC   C2B11264  17.870  27.940   8.420
  678POPC   C3B11265  17.771  28.021   7.982
  678POPC   C4B11266  17.605  28.108   7.540
  679POPC   NC311267  25.136  29.685   9.365
  679POPC   PO411268  25.445  30.277   9.437
  679POPC   GL111269  25.465  30.062   9.029
  679POPC   GL211270  25.096  30.031   8.954
  679POPC   C1A11271  25.451  30.094   8.538
  679POPC   D2A11272  25.188  30.073   8.163
  679POPC   C3A11273  25.445  30.059   7.798
  679POPC   C4A11274  25.535  30.134   7.324
  679POPC   C1B11275  25.192  29.676   8.688
  679POPC   C2B11276  25.408  29.607   8.300
  679POPC   C3B11277  25.173  29.621   7.912
  679POPC   C4B11278  25.233  29.721   7.487
  680POPC   NC311279  36.724   8.656   9.671
  680POPC   PO411280  36.856   9.279   9.555
  680POPC   GL111281  37.100   9.037   9.252
  680POPC   GL211282  36.930   8.735   9.214
  680POPC   C1A11283  37.204   9.047   8.801
  680POPC   D2A11284  37.001   9.120   8.379
  680POPC   C3A11285  37.045   8.882   7.996
  680POPC   C4A11286  37.094   8.992   7.557
  680POPC   C1B11287  37.004   8.572   8.822
  680POPC   C2B11288  36.834   8.617   8.412
  680POPC   C3B11289  36.582   8.641   8.040
  680POPC   C4B11290  36.736   8.632   7.629
  681POPC   NC311291  33.372  30.908   9.668
  681POPC   PO411292  34.057  30.766   9.560
  681POPC   GL111293  33.739  30.856   9.267
  681POPC   GL211294  34.012  30.879   9.031
  681POPC   C1A11295  33.566  30.743   8.850
  681POPC   D2A11296  33.611  30.461   8.496
  681POPC   C3A11297  33.431  30.511   8.073
  681POPC   C4A11298  33.649  30.677   7.718
  681POPC   C1B11299  34.090  30.543   8.734
  681POPC   C2B11300  34.209  30.570   8.275
  681POPC   C3B11301  34.165  30.791   7.843
  681POPC   C4B11302  34.003  30.835   7.389
  682POPC   NC311303  32.836  22.675   9.377
  682POPC   PO411304  33.258  23.033   9.591
  682POPC   GL111305  33.114  23.052   9.118
  682POPC   GL211306  33.037  22.684   8.927
  682POPC   C1A11307  33.306  23.042   8.711
  682POPC   D2A11308  33.106  22.753   8.419
  682POPC   C3A11309  33.211  22.891   8.036
  682POPC   C4A11310  32.963  23.014   7.705
  682POPC   C1B11311  32.693  22.855   8.760
  682POPC   C2B11312  32.562  22.780   8.382
  682POPC   C3B11313  32.702  22.706   8.009
  682POPC   C4B11314  32.502  22.849   7.650
  683POPC   NC311315   3.868  15.693   9.722
  683POPC   PO411316   3.358  16.047   9.504
  683POPC   GL111317   3.375  15.939   9.087
  683POPC   GL211318   3.753  15.985   9.159
  683POPC   C1A11319   3.278  15.579   8.773
  683POPC   D2A11320   3.290  15.364   8.372
  683POPC   C3A11321   3.462  15.631   8.047
  683POPC   C4A11322   3.380  15.878   7.651
  683POPC   C1B11323   3.736  15.797   8.779
  683POPC   C2B11324   3.458  15.939   8.463
  683POPC   C3B11325   3.521  16.139   8.070
  683POPC   C4B11326   3.838  16.115   7.739
  684POPC   NC311327  19.251   2.302   9.530
  684POPC   PO411328  18.901   2.929   9.634
  684POPC   GL111329  18.943   2.813   9.214
  684POPC   GL211330  18.855   2.482   9.110
  684POPC   C1A11331  19.203   2.800   8.843
  684POPC   D2A11332  19.112   2.997   8.438
  684POPC   C3A11333  19.417   3.060   8.112
  684POPC   C4A11334  19.389   3.096   7.659
  684POPC   C1B11335  18.790   2.590   8.627
  684POPC   C2B11336  18.767   2.696   8.166
  684POPC   C3B11337  18.817   2.789   7.696
  684POPC   C4B11338  18.830   2.585   7.229
  685POPC   NC311339  10.170   0.374   9.537
  685POPC   PO411340  10.801   0.541   9.414
  685POPC   GL111341  10.548   0.356   9.113
  685POPC   GL211342  10.231   0.535   9.032
  685POPC   C1A11343  10.570   0.436   8.683
  685POPC   D2A11344  10.506   0.577   8.309
  685POPC   C3A11345  10.663   0.436   7.958
  685POPC   C4A11346  10.347   0.248   7.760
  685POPC   C1B11347  10.296   0.898   8.702
  685POPC   C2B11348  10.354   1.042   8.250
  685POPC   C3B11349  10.222   0.741   7.888
  685POPC   C4B11350  10.188   0.623   7.432
  686POPC   NC311351   4.490  32.325   9.566
  686POPC   PO411352   3.937  32.749   9.631
  686POPC   GL111353   4.228  32.587   9.236
  686POPC   GL211354   4.033  32.363   9.159
  686POPC   C1A11355   4.426  32.241   8.871
  686POPC   D2A11356   4.306  31.995   8.472
  686POPC   C3A11357   4.510  32.022   8.059
  686POPC   C4A11358   4.390  31.866   7.669
  686POPC   C1B11359   4.016  32.526   8.715
  686POPC   C2B11360   4.032  32.395   8.311
  686POPC   C3B11361   4.047  32.177   7.933
  686POPC   C4B11362   4.010  32.419   7.609
  687POPC   NC311363  27.111   3.616   9.603
  687POPC   PO411364  26.532   3.367   9.395
  687POPC   GL111365  26.781   3.618   9.168
  687POPC   GL211366  26.524   3.753   8.952
  687POPC   C1A11367  26.959   3.622   8.758
  687POPC   D2A11368  26.722   3.680   8.360
  687POPC   C3A11369  27.023   3.575   8.035
  687POPC   C4A11370  27.041   3.453   7.629
  687POPC   C1B11371  26.558   3.321   8.726
  687POPC   C2B11372  26.712   3.184   8.276
  687POPC   C3B11373  26.559   3.449   7.897
  687POPC   C4B11374  26.502   3.321   7.481
  688POPC   NC311375  42.822  14.856   9.485
  688POPC   PO411376  43.189  14.144   9.465
  688POPC   GL111377  43.104  14.122   9.078
  688POPC   GL211378  42.848  14.349   9.145
  688POPC   C1A11379  43.148  14.278   8.674
  688POPC   D2A11380  43.365  14.249   8.304
  688POPC   C3A11381  43.176  14.205   7.926
  688POPC   C4A11382  43.188  14.577   7.698
  688POPC   C1B11383  42.881  14.670   8.870
  688POPC   C2B11384  42.753  14.621   8.476
  688POPC   C3B11385  42.888  14.582   8.099
  688POPC   C4B11386  42.718  14.350   7.744
  689POPC   NC311387  14.544  41.997   9.378
  689POPC   PO411388  14.177  42.642   9.434
  689POPC   GL111389  14.186  42.321   9.132
  689POPC   GL211390  14.530  42.418   9.060
  689POPC   C1A11391  14.099  42.226   8.677
  689POPC   D2A11392  14.246  42.110   8.228
  689POPC   C3A11393  14.201  42.416   7.918
  689POPC   C4A11394  13.957  42.719   7.714
  689POPC   C1B11395  14.518  42.540   8.628
  689POPC   C2B11396  14.681  42.417   8.230
  689POPC   C3B11397  14.696  42.420   7.807
  689POPC   C4B11398  14.634  42.151   7.441
  690POPC   NC311399  41.117  29.349   9.432
  690POPC   PO411400  40.716  28.829   9.401
  690POPC   GL111401  40.905  29.022   9.074
  690POPC   GL211402  40.720  29.299   9.082
  690POPC   C1A11403  40.977  29.094   8.656
  690POPC   D2A11404  40.813  29.288   8.307
  690POPC   C3A11405  40.902  29.137   7.891
  690POPC   C4A11406  40.961  28.979   7.447
  690POPC   C1B11407  40.743  29.590   8.750
  690POPC   C2B11408  40.508  29.690   8.372
  690POPC   C3B11409  40.638  29.606   7.948
  690POPC   C4B11410  40.500  29.742   7.602
  691POPC   NC311411  34.718  37.332   9.444
  691POPC   PO411412  34.231  37.862   9.539
  691POPC   GL111413  34.457  37.712   9.175
  691POPC   GL211414  34.770  37.641   9.034
  691POPC   C1A11415  34.363  37.569   8.749
  691POPC   D2A11416  34.133  37.527   8.392
  691POPC   C3A11417  34.471  37.525   8.106
  691POPC   C4A11418  34.511  37.704   7.720
  691POPC   C1B11419  34.824  37.303   8.741
  691POPC   C2B11420  34.784  37.180   8.327
  691POPC   C3B11421  34.919  37.287   7.926
  691POPC   C4B11422  34.837  37.138   7.518
  692POPC   NC311423  29.046  34.716   9.598
  692POPC   PO411424  29.488  34.200   9.570
  692POPC   GL111425  29.285  34.480   9.232
  692POPC   GL211426  28.899  34.500   9.168
  692POPC   C1A11427  29.232  34.675   8.834
  692POPC   D2A11428  29.442  34.856   8.521
  692POPC   C3A11429  29.322  34.791   8.088
  692POPC   C4A11430  29.538  34.786   7.690
  692POPC   C1B11431  28.736  34.444   8.746
  692POPC   C2B11432  28.878  34.642   8.391
  692POPC   C3B11433  28.816  34.700   7.998
  692POPC   C4B11434  28.924  34.470   7.632
  693POPC   NC311435  30.518  34.367   9.399
  693POPC   PO411436  31.154  34.602   9.388
  693POPC   GL111437  30.878  34.497   9.037
  693POPC   GL211438  30.655  34.783   9.104
  693POPC   C1A11439  30.513  34.504   8.713
  693POPC   D2A11440  30.258  34.467   8.331
  693POPC   C3A11441  30.491  34.471   7.953
  693POPC   C4A11442  30.947  34.291   7.880
  693POPC   C1B11443  30.954  35.020   8.878
  693POPC   C2B11444  30.968  35.200   8.478
  693POPC   C3B11445  30.839  34.994   8.110
  693POPC   C4B11446  30.835  34.779   7.754
  694POPC   NC311447  38.828   3.692   9.588
  694POPC   PO411448  38.118   3.628   9.480
  694POPC   GL111449  38.265   3.797   9.068
  694POPC   GL211450  38.630   3.811   9.102
  694POPC   C1A11451  38.298   3.539   8.677
  694POPC   D2A11452  38.318   3.184   8.383
  694POPC   C3A11453  38.256   3.410   8.018
  694POPC   C4A11454  38.501   3.637   7.760
  694POPC   C1B11455  38.746   3.805   8.694
  694POPC   C2B11456  38.604   3.750   8.283
  694POPC   C3B11457  38.895   3.858   7.982
  694POPC   C4B11458  38.917   3.949   7.562
  695POPC   NC311459  29.531  18.305   9.232
  695POPC   PO411460  30.173  17.900   9.358
  695POPC   GL111461  29.996  18.151   9.075
  695POPC   GL211462  29.754  17.900   9.028
  695POPC   C1A11463  30.041  18.386   8.690
  695POPC   D2A11464  30.173  18.412   8.257
  695POPC   C3A11465  29.894  18.323   7.920
  695POPC   C4A11466  29.453  18.385   7.854
  695POPC   C1B11467  29.631  18.072   8.625
  695POPC   C2B11468  29.514  18.042   8.206
  695POPC   C3B11469  29.663  17.883   7.814
  695POPC   C4B11470  29.721  18.013   7.393
  696POPC   NC311471  29.634  25.960   9.431
  696POPC   PO411472  30.222  26.280   9.499
  696POPC   GL111473  30.179  26.130   9.078
  696POPC   GL211474  29.884  25.947   8.990
  696POPC   C1A11475  30.320  25.928   8.695
  696POPC   D2A11476  30.065  25.848   8.359
  696POPC   C3A11477  30.138  26.081   7.987
  696POPC   C4A11478  30.042  26.469   7.857
  696POPC   C1B11479  29.829  26.257   8.664
  696POPC   C2B11480  29.691  26.213   8.228
  696POPC   C3B11481  29.668  25.929   7.884
  696POPC   C4B11482  29.571  25.852   7.479
  697POPC   NC311483   1.840  17.533   9.493
  697POPC   PO411484   2.370  17.244   9.271
  697POPC   GL111485   2.079  17.406   8.991
  697POPC   GL211486   1.739  17.377   9.032
  697POPC   C1A11487   1.850  17.308   8.563
  697POPC   D2A11488   1.743  17.101   8.202
  697POPC   C3A11489   1.870  17.393   7.910
  697POPC   C4A11490   2.121  17.802   7.884
  697POPC   C1B11491   1.825  17.776   8.773
  697POPC   C2B11492   1.831  17.851   8.334
  697POPC   C3B11493   1.576  17.791   7.986
  697POPC   C4B11494   1.662  17.871   7.569
  698POPC   NC311495  22.864  29.858   9.802
  698POPC   PO411496  23.262  29.543   9.305
  698POPC   GL111497  22.844  29.693   9.275
  698POPC   GL211498  22.871  30.026   9.131
  698POPC   C1A11499  22.690  29.637   8.844
  698POPC   D2A11500  22.788  29.919   8.472
  698POPC   C3A11501  22.960  29.703   8.112
  698POPC   C4A11502  22.829  29.813   7.708
  698POPC   C1B11503  23.192  30.075   8.762
  698POPC   C2B11504  23.301  30.051   8.287
  698POPC   C3B11505  23.300  30.050   7.766
  698POPC   C4B11506  23.064  30.035   7.317
  699POPC   NC311507  21.026   5.774   9.598
  699POPC   PO411508  21.456   6.286   9.644
  699POPC   GL111509  21.549   5.909   9.285
  699POPC   GL211510  21.255   5.752   9.144
  699POPC   C1A11511  21.670   5.825   8.807
  699POPC   D2A11512  21.549   6.000   8.361
  699POPC   C3A11513  21.589   5.822   7.966
  699POPC   C4A11514  21.842   5.904   7.597
  699POPC   C1B11515  21.160   5.906   8.738
  699POPC   C2B11516  21.107   5.767   8.324
  699POPC   C3B11517  21.100   5.988   7.967
  699POPC   C4B11518  20.936   6.192   7.611
  700POPC   NC311519   5.895  38.922   9.862
  700POPC   PO411520   5.919  39.427   9.459
  700POPC   GL111521   5.833  39.337   9.075
  700POPC   GL211522   6.017  39.020   9.124
  700POPC   C1A11523   5.592  39.398   8.707
  700POPC   D2A11524   5.893  39.337   8.372
  700POPC   C3A11525   6.023  39.679   8.111
  700POPC   C4A11526   5.964  39.616   7.690
  700POPC   C1B11527   5.752  38.949   8.728
  700POPC   C2B11528   5.680  38.878   8.321
  700POPC   C3B11529   5.804  39.082   7.922
  700POPC   C4B11530   5.874  39.115   7.472
  701POPC   NC311531   0.775  34.389   9.384
  701POPC   PO411532   1.333  34.797   9.519
  701POPC   GL111533   1.284  34.801   9.078
  701POPC   GL211534   1.473  34.546   8.910
  701POPC   C1A11535   0.962  34.735   8.794
  701POPC   D2A11536   0.848  34.635   8.377
  701POPC   C3A11537   1.149  34.660   8.053
  701POPC   C4A11538   1.008  34.355   7.799
  701POPC   C1B11539   1.398  34.581   8.503
  701POPC   C2B11540   1.569  34.355   8.178
  701POPC   C3B11541   1.506  34.426   7.751
  701POPC   C4B11542   1.511  34.763   7.500
  702POPC   NC311543  11.152  30.934   9.508
  702POPC   PO411544  10.815  30.295   9.454
  702POPC   GL111545  11.045  30.522   9.177
  702POPC   GL211546  11.395  30.364   9.172
  702POPC   C1A11547  11.114  30.813   8.821
  702POPC   D2A11548  11.378  30.857   8.437
  702POPC   C3A11549  11.262  30.754   7.984
  702POPC   C4A11550  10.902  30.931   7.781
  702POPC   C1B11551  11.204  30.309   8.740
  702POPC   C2B11552  11.355  30.365   8.298
  702POPC   C3B11553  11.277  30.228   7.870
  702POPC   C4B11554  11.352  30.404   7.446
  703POPC   NC311555  36.549   0.899   9.358
  703POPC   PO411556  36.037   1.351   9.452
  703POPC   GL111557  36.063   0.994   9.155
  703POPC   GL211558  36.349   0.986   8.916
  703POPC   C1A11559  35.883   1.060   8.738
  703POPC   D2A11560  36.091   0.949   8.370
  703POPC   C3A11561  35.831   0.967   7.982
  703POPC   C4A11562  35.893   1.374   7.791
  703POPC   C1B11563  36.731   1.073   8.696
  703POPC   C2B11564  36.693   1.035   8.259
  703POPC   C3B11565  36.476   1.123   7.843
  703POPC   C4B11566  36.592   1.118   7.391
  704POPC   NC311567   3.108  29.656   9.353
  704POPC   PO411568   2.823  29.074   9.583
  704POPC   GL111569   2.818  29.262   9.174
  704POPC   GL211570   3.054  29.021   9.092
  704POPC   C1A11571   2.892  29.417   8.735
  704POPC   D2A11572   2.917  29.186   8.323
  704POPC   C3A11573   2.608  29.267   7.972
  704POPC   C4A11574   2.519  29.648   7.772
  704POPC   C1B11575   2.753  28.932   8.763
  704POPC   C2B11576   2.486  28.950   8.411
  704POPC   C3B11577   2.723  28.766   8.097
  704POPC   C4B11578   3.021  29.026   7.837
  705POPC   NC311579  31.132  22.979   9.683
  705POPC   PO411580  31.729  22.654   9.582
  705POPC   GL111581  31.495  23.020   9.302
  705POPC   GL211582  31.107  23.014   9.186
  705POPC   C1A11583  31.511  23.072   8.830
  705POPC   D2A11584  31.559  22.675   8.576
  705POPC   C3A11585  31.708  22.667   8.157
  705POPC   C4A11586  31.561  22.644   7.763
  705POPC   C1B11587  31.053  22.811   8.787
  705POPC   C2B11588  31.166  22.993   8.389
  705POPC   C3B11589  31.038  23.020   7.938
  705POPC   C4B11590  31.299  23.019   7.567
  706POPC   NC311591  32.449   8.870   9.467
  706POPC   PO411592  31.838   9.206   9.451
  706POPC   GL111593  32.087   9.018   9.099
  706POPC   GL211594  32.427   9.156   9.050
  706POPC   C1A11595  32.170   8.896   8.671
  706POPC   D2A11596  31.904   8.783   8.304
  706POPC   C3A11597  32.073   8.893   7.899
  706POPC   C4A11598  32.319   9.255   7.757
  706POPC   C1B11599  32.686   8.879   8.827
  706POPC   C2B11600  32.620   8.740   8.425
  706POPC   C3B11601  32.550   8.780   8.012
  706POPC   C4B11602  32.549   8.801   7.586
  707POPC   NC311603  20.306  20.388   9.786
  707POPC   PO411604  21.020  20.348   9.567
  707POPC   GL111605  20.902  20.493   9.156
  707POPC   GL211606  20.586  20.586   9.259
  707POPC   C1A11607  20.894  20.692   8.735
  707POPC   D2A11608  20.524  20.715   8.431
  707POPC   C3A11609  20.612  20.533   8.082
  707POPC   C4A11610  20.886  20.672   7.796
  707POPC   C1B11611  20.467  20.432   8.841
  707POPC   C2B11612  20.413  20.176   8.475
  707POPC   C3B11613  20.266  20.157   8.079
  707POPC   C4B11614  20.217  20.317   7.690
  708POPC   NC311615   1.621  28.700   9.494
  708POPC   PO411616   0.966  28.367   9.541
  708POPC   GL111617   1.108  28.299   9.137
  708POPC   GL211618   1.398  28.470   9.092
  708POPC   C1A11619   1.247  28.167   8.717
  708POPC   D2A11620   1.160  28.396   8.329
  708POPC   C3A11621   1.228  28.182   7.951
  708POPC   C4A11622   1.438  28.030   7.648
  708POPC   C1B11623   1.377  28.683   8.710
  708POPC   C2B11624   1.612  28.713   8.328
  708POPC   C3B11625   1.368  28.696   7.950
  708POPC   C4B11626   1.446  28.516   7.546
  709POPC   NC311627  43.686  16.785   9.531
  709POPC   PO411628  44.312  16.365   9.538
  709POPC   GL111629  44.087  16.601   9.198
  709POPC   GL211630  43.752  16.469   9.105
  709POPC   C1A11631  44.202  16.758   8.760
  709POPC   D2A11632  44.047  16.892   8.333
  709POPC   C3A11633  44.105  16.592   7.977
  709POPC   C4A11634  43.865  16.539   7.590
  709POPC   C1B11635  43.692  16.638   8.689
  709POPC   C2B11636  43.547  16.769   8.275
  709POPC   C3B11637  43.721  16.951   7.915
  709POPC   C4B11638  43.857  17.205   7.572
  710POPC   NC311639   8.910  29.685   9.502
  710POPC   PO411640   8.832  30.348   9.488
  710POPC   GL111641   8.869  30.093   9.140
  710POPC   GL211642   9.211  29.956   9.147
  710POPC   C1A11643   8.940  30.029   8.719
  710POPC   D2A11644   8.894  29.712   8.433
  710POPC   C3A11645   8.982  29.904   8.079
  710POPC   C4A11646   8.767  29.974   7.673
  710POPC   C1B11647   9.363  29.724   8.770
  710POPC   C2B11648   9.418  29.689   8.355
  710POPC   C3B11649   9.331  29.496   7.998
  710POPC   C4B11650   9.219  29.762   7.664
  711POPC   NC311651   1.376  41.149   9.348
  711POPC   PO411652   1.227  40.540   9.601
  711POPC   GL111653   1.150  40.661   9.173
  711POPC   GL211654   0.943  40.372   9.183
  711POPC   C1A11655   1.076  40.897   8.769
  711POPC   D2A11656   1.329  41.072   8.398
  711POPC   C3A11657   1.296  41.076   7.933
  711POPC   C4A11658   1.532  40.688   7.815
  711POPC   C1B11659   0.774  40.439   8.794
  711POPC   C2B11660   0.834  40.574   8.430
  711POPC   C3B11661   1.045  40.693   8.131
  711POPC   C4B11662   1.031  40.685   7.721
  712POPC   NC311663  20.717  33.550   9.610
  712POPC   PO411664  20.395  34.083   9.479
  712POPC   GL111665  20.563  33.788   9.177
  712POPC   GL211666  20.419  33.431   9.173
  712POPC   C1A11667  20.834  33.927   8.840
  712POPC   D2A11668  20.764  34.105   8.428
  712POPC   C3A11669  20.615  33.840   8.106
  712POPC   C4A11670  20.769  34.017   7.746
  712POPC   C1B11671  20.814  33.414   8.910
  712POPC   C2B11672  20.909  33.572   8.476
  712POPC   C3B11673  20.981  33.489   8.049
  712POPC   C4B11674  20.887  33.503   7.622
  713POPC   NC311675   4.081  40.324   9.535
  713POPC   PO411676   4.578  39.825   9.555
  713POPC   GL111677   4.256  39.920   9.256
  713POPC   GL211678   4.425  40.229   9.174
  713POPC   C1A11679   4.260  39.859   8.814
  713POPC   D2A11680   4.149  39.746   8.394
  713POPC   C3A11681   4.435  39.760   8.057
  713POPC   C4A11682   4.159  39.799   7.740
  713POPC   C1B11683   4.086  40.340   8.894
  713POPC   C2B11684   4.076  40.240   8.504
  713POPC   C3B11685   4.157  40.211   8.085
  713POPC   C4B11686   4.341  40.306   7.709
  714POPC   NC311687   4.070  12.413   9.452
  714POPC   PO411688   4.159  13.096   9.279
  714POPC   GL111689   4.457  12.937   8.988
  714POPC   GL211690   4.498  12.629   9.181
  714POPC   C1A11691   4.385  12.891   8.564
  714POPC   D2A11692   4.460  13.026   8.155
  714POPC   C3A11693   4.150  13.142   7.884
  714POPC   C4A11694   4.242  13.222   7.434
  714POPC   C1B11695   4.603  12.449   8.762
  714POPC   C2B11696   4.458  12.430   8.339
  714POPC   C3B11697   4.556  12.569   7.944
  714POPC   C4B11698   4.303  12.750   7.622
  715POPC   NC311699  32.841   2.971   9.493
  715POPC   PO411700  33.503   2.754   9.503
  715POPC   GL111701  33.197   2.861   9.148
  715POPC   GL211702  32.927   2.632   9.083
  715POPC   C1A11703  32.971   3.048   8.786
  715POPC   D2A11704  33.187   3.092   8.396
  715POPC   C3A11705  32.953   2.991   8.015
  715POPC   C4A11706  32.741   2.645   7.837
  715POPC   C1B11707  33.198   2.610   8.690
  715POPC   C2B11708  33.040   2.587   8.277
  715POPC   C3B11709  33.251   2.529   7.874
  715POPC   C4B11710  33.690   2.378   7.816
  716POPC   NC311711  44.418   1.736   9.571
  716POPC   PO411712  44.898   1.254   9.451
  716POPC   GL111713  44.739   1.111   9.062
  716POPC   GL211714  44.387   1.119   9.188
  716POPC   C1A11715  44.935   1.127   8.660
  716POPC   D2A11716  44.991   1.363   8.291
  716POPC   C3A11717  44.937   1.075   7.957
  716POPC   C4A11718  44.763   1.189   7.587
  716POPC   C1B11719  44.367   1.391   8.830
  716POPC   C2B11720  44.111   1.422   8.455
  716POPC   C3B11721  44.172   1.510   8.027
  716POPC   C4B11722  44.227   1.296   7.661
  717POPC   NC311723  40.480   7.363   9.611
  717POPC   PO411724  40.943   6.865   9.540
  717POPC   GL111725  40.919   7.103   9.141
  717POPC   GL211726  41.031   7.464   9.131
  717POPC   C1A11727  40.821   7.188   8.711
  717POPC   D2A11728  40.880   7.411   8.337
  717POPC   C3A11729  41.013   7.231   7.968
  717POPC   C4A11730  40.904   7.325   7.578
  717POPC   C1B11731  41.089   7.662   8.714
  717POPC   C2B11732  41.033   7.892   8.264
  717POPC   C3B11733  40.962   7.798   7.813
  717POPC   C4B11734  41.093   7.744   7.360
  718POPC   NC311735  11.148  33.425   9.731
  718POPC   PO411736  11.645  33.065   9.525
  718POPC   GL111737  11.459  33.007   9.126
  718POPC   GL211738  11.191  32.804   9.190
  718POPC   C1A11739  11.353  33.175   8.692
  718POPC   D2A11740  11.430  32.933   8.302
  718POPC   C3A11741  11.475  33.163   7.940
  718POPC   C4A11742  11.096  33.061   7.801
  718POPC   C1B11743  10.924  32.909   8.796
  718POPC   C2B11744  10.927  33.049   8.360
  718POPC   C3B11745  10.832  32.724   8.070
  718POPC   C4B11746  10.997  32.441   7.783
  719POPC   NC311747  18.879  36.422   9.318
  719POPC   PO411748  19.410  36.038   9.441
  719POPC   GL111749  19.151  36.019   9.120
  719POPC   GL211750  19.307  36.291   8.971
  719POPC   C1A11751  19.017  35.935   8.709
  719POPC   D2A11752  19.182  36.090   8.317
  719POPC   C3A11753  18.950  35.848   8.033
  719POPC   C4A11754  19.101  35.646   7.689
  719POPC   C1B11755  18.991  36.439   8.665
  719POPC   C2B11756  18.687  36.225   8.340
  719POPC   C3B11757  18.843  36.348   7.942
  719POPC   C4B11758  19.256  36.261   7.822
  720POPC   NC311759  36.185  19.211   9.559
  720POPC   PO411760  36.291  18.553   9.488
  720POPC   GL111761  36.135  18.784   9.121
  720POPC   GL211762  36.276  19.119   9.070
  720POPC   C1A11763  35.882  18.913   8.779
  720POPC   D2A11764  35.843  18.840   8.345
  720POPC   C3A11765  36.243  18.946   8.172
  720POPC   C4A11766  36.123  18.930   7.802
  720POPC   C1B11767  36.474  19.444   8.808
  720POPC   C2B11768  36.508  19.381   8.359
  720POPC   C3B11769  36.382  19.393   7.932
  720POPC   C4B11770  36.127  19.481   7.598
  721POPC   NC311771  32.110  37.385   9.550
  721POPC   PO411772  32.488  37.862   9.536
  721POPC   GL111773  32.269  37.748   9.190
  721POPC   GL211774  32.103  38.075   9.195
  721POPC   C1A11775  32.141  37.531   8.817
  721POPC   D2A11776  32.159  37.700   8.417
  721POPC   C3A11777  32.110  37.496   8.076
  721POPC   C4A11778  32.245  37.515   7.699
  721POPC   C1B11779  31.980  38.029   8.775
  721POPC   C2B11780  31.725  37.986   8.409
  721POPC   C3B11781  31.899  37.985   7.989
  721POPC   C4B11782  31.954  37.926   7.554
  722POPC   NC311783  37.324  37.733   9.332
  722POPC   PO411784  36.712  38.091   9.390
  722POPC   GL111785  36.865  37.750   9.077
  722POPC   GL211786  37.182  37.748   8.859
  722POPC   C1A11787  36.699  37.716   8.650
  722POPC   D2A11788  36.604  37.905   8.259
  722POPC   C3A11789  36.787  37.700   7.900
  722POPC   C4A11790  36.906  37.908   7.532
  722POPC   C1B11791  37.096  37.393   8.591
  722POPC   C2B11792  37.079  37.655   8.307
  722POPC   C3B11793  37.272  37.806   7.998
  722POPC   C4B11794  37.201  37.511   7.666
  723POPC   NC311795  41.715  20.211   9.634
  723POPC   PO411796  41.408  19.594   9.551
  723POPC   GL111797  41.412  19.882   9.219
  723POPC   GL211798  41.766  19.883   9.222
  723POPC   C1A11799  41.468  20.057   8.805
  723POPC   D2A11800  41.484  19.883   8.384
  723POPC   C3A11801  41.469  20.115   8.018
  723POPC   C4A11802  41.551  19.885   7.678
  723POPC   C1B11803  41.929  19.604   8.901
  723POPC   C2B11804  41.839  19.510   8.450
  723POPC   C3B11805  41.821  19.588   8.025
  723POPC   C4B11806  42.022  19.655   7.621
  724POPC   NC311807  44.758  32.628   9.455
  724POPC   PO411808  44.521  33.265   9.512
  724POPC   GL111809  44.558  33.013   9.164
  724POPC   GL211810  44.918  33.002   9.120
  724POPC   C1A11811  44.599  33.054   8.709
  724POPC   D2A11812  44.459  32.856   8.322
  724POPC   C3A11813  44.315  33.161   7.998
  724POPC   C4A11814  44.431  33.362   7.577
  724POPC   C1B11815   0.090  32.856   8.748
  724POPC   C2B11816  44.967  32.930   8.330
  724POPC   C3B11817  44.835  33.164   7.977
  724POPC   C4B11818  44.849  33.060   7.549
  725POPC   NC311819  42.595   5.493   9.492
  725POPC   PO411820  42.315   6.080   9.456
  725POPC   GL111821  42.365   5.792   9.104
  725POPC   GL211822  42.655   5.666   9.021
  725POPC   C1A11823  42.308   5.848   8.662
  725POPC   D2A11824  42.233   5.950   8.243
  725POPC   C3A11825  42.515   6.033   7.912
  725POPC   C4A11826  42.416   6.031   7.485
  725POPC   C1B11827  42.638   5.465   8.651
  725POPC   C2B11828  42.670   5.636   8.247
  725POPC   C3B11829  42.863   5.561   7.865
  725POPC   C4B11830  42.587   5.531   7.525
  726POPC   NC311831  21.825  13.444   9.452
  726POPC   PO411832  22.284  13.909   9.377
  726POPC   GL111833  22.266  13.637   9.059
  726POPC   GL211834  21.964  13.556   8.995
  726POPC   C1A11835  22.238  13.771   8.619
  726POPC   D2A11836  22.519  13.820   8.269
  726POPC   C3A11837  22.259  13.738   7.925
  726POPC   C4A11838  22.219  13.375   7.624
  726POPC   C1B11839  21.734  13.595   8.634
  726POPC   C2B11840  21.832  13.609   8.222
  726POPC   C3B11841  21.788  13.579   7.791
  726POPC   C4B11842  21.835  13.697   7.386
  727POPC   NC311843  30.561  22.039   9.762
  727POPC   PO411844  31.022  22.509   9.594
  727POPC   GL111845  30.729  22.361   9.256
  727POPC   GL211846  30.609  22.012   9.260
  727POPC   C1A11847  30.795  22.316   8.808
  727POPC   D2A11848  30.683  22.222   8.397
  727POPC   C3A11849  30.933  22.144   8.037
  727POPC   C4A11850  30.688  22.181   7.667
  727POPC   C1B11851  30.361  22.075   8.918
  727POPC   C2B11852  30.308  21.911   8.505
  727POPC   C3B11853  30.176  21.916   8.099
  727POPC   C4B11854  30.261  21.917   7.654
  728POPC   NC311855  16.482   7.599   9.989
  728POPC   PO411856  16.780   7.053   9.728
  728POPC   GL111857  16.841   7.175   9.216
  728POPC   GL211858  16.811   7.516   9.000
  728POPC   C1A11859  16.710   7.083   8.789
  728POPC   D2A11860  16.702   7.356   8.459
  728POPC   C3A11861  16.759   7.241   8.068
  728POPC   C4A11862  16.899   7.326   7.699
  728POPC   C1B11863  16.449   7.671   8.749
  728POPC   C2B11864  16.379   7.745   8.288
  728POPC   C3B11865  16.705   7.742   7.952
  728POPC   C4B11866  17.111   7.940   7.871
  729POPC   NC311867  19.954   2.977   9.306
  729POPC   PO411868  19.690   2.376   9.363
  729POPC   GL111869  19.686   2.667   8.997
  729POPC   GL211870  19.987   2.500   8.888
  729POPC   C1A11871  19.777   2.769   8.526
  729POPC   D2A11872  20.026   2.401   8.353
  729POPC   C3A11873  20.101   2.581   7.989
  729POPC   C4A11874  19.860   2.952   7.860
  729POPC   C1B11875  19.582   2.327   8.646
  729POPC   C2B11876  19.260   2.513   8.392
  729POPC   C3B11877  19.263   2.575   7.959
  729POPC   C4B11878  19.656   2.488   7.728
  730POPC   NC311879  39.016   7.514   9.290
  730POPC   PO411880  38.462   7.377   9.673
  730POPC   GL111881  38.457   7.469   9.204
  730POPC   GL211882  38.669   7.490   8.926
  730POPC   C1A11883  38.190   7.661   8.871
  730POPC   D2A11884  38.372   7.574   8.482
  730POPC   C3A11885  38.155   7.615   8.117
  730POPC   C4A11886  38.290   7.593   7.689
  730POPC   C1B11887  38.952   7.232   8.697
  730POPC   C2B11888  38.849   7.156   8.286
  730POPC   C3B11889  38.635   7.420   8.026
  730POPC   C4B11890  38.515   7.118   7.765
  731POPC   NC311891  41.025  32.444   9.350
  731POPC   PO411892  40.607  32.573   9.899
  731POPC   GL111893  40.550  32.289   9.441
  731POPC   GL211894  40.729  31.999   9.279
  731POPC   C1A11895  40.462  32.284   8.955
  731POPC   D2A11896  40.568  32.215   8.536
  731POPC   C3A11897  40.662  32.423   8.131
  731POPC   C4A11898  40.504  32.186   7.767
  731POPC   C1B11899  40.920  31.973   8.832
  731POPC   C2B11900  41.047  32.121   8.411
  731POPC   C3B11901  40.898  31.950   8.010
  731POPC   C4B11902  40.914  31.983   7.538
  732POPC   NC311903  24.352  32.052   9.517
  732POPC   PO411904  24.750  32.587   9.495
  732POPC   GL111905  24.582  32.405   9.110
  732POPC   GL211906  24.277  32.239   9.051
  732POPC   C1A11907  24.702  32.238   8.702
  732POPC   D2A11908  24.604  32.430   8.317
  732POPC   C3A11909  24.530  32.163   8.012
  732POPC   C4A11910  24.747  32.247   7.627
  732POPC   C1B11911  24.195  32.284   8.624
  732POPC   C2B11912  24.075  32.334   8.215
  732POPC   C3B11913  24.281  32.594   7.932
  732POPC   C4B11914  24.346  32.579   7.501
  733POPC   NC311915  33.361  35.236   9.414
  733POPC   PO411916  32.775  35.432   9.604
  733POPC   GL111917  32.885  35.504   9.177
  733POPC   GL211918  33.158  35.710   9.072
  733POPC   C1A11919  33.040  35.295   8.793
  733POPC   D2A11920  32.958  35.367   8.369
  733POPC   C3A11921  33.235  35.317   8.011
  733POPC   C4A11922  33.064  35.379   7.605
  733POPC   C1B11923  33.237  35.746   8.623
  733POPC   C2B11924  33.421  35.760   8.222
  733POPC   C3B11925  33.288  35.787   7.809
  733POPC   C4B11926  33.405  35.656   7.362
  734POPC   NC311927   8.259  40.522   9.550
  734POPC   PO411928   8.699  40.935   9.385
  734POPC   GL111929   8.395  40.948   9.113
  734POPC   GL211930   8.387  40.624   9.070
  734POPC   C1A11931   8.384  41.039   8.685
  734POPC   D2A11932   8.502  40.887   8.286
  734POPC   C3A11933   8.200  40.773   7.951
  734POPC   C4A11934   8.332  40.877   7.514
  734POPC   C1B11935   8.075  40.616   8.766
  734POPC   C2B11936   8.193  40.475   8.390
  734POPC   C3B11937   8.451  40.354   8.050
  734POPC   C4B11938   8.304  40.389   7.626
  735POPC   NC311939  18.722  39.724   9.475
  735POPC   PO411940  18.036  39.599   9.483
  735POPC   GL111941  18.129  39.885   9.167
  735POPC   GL211942  18.362  40.168   9.257
  735POPC   C1A11943  18.215  39.732   8.770
  735POPC   D2A11944  18.045  39.876   8.424
  735POPC   C3A11945  18.269  39.756   8.096
  735POPC   C4A11946  18.168  39.703   7.703
  735POPC   C1B11947  18.599  40.074   8.881
  735POPC   C2B11948  18.631  39.927   8.465
  735POPC   C3B11949  18.671  40.069   8.068
  735POPC   C4B11950  18.618  39.901   7.703
  736POPC   NC311951  41.803  39.487   9.610
  736POPC   PO411952  41.400  38.994   9.636
  736POPC   GL111953  41.585  39.164   9.210
  736POPC   GL211954  41.653  39.515   9.145
  736POPC   C1A11955  41.693  39.221   8.738
  736POPC   D2A11956  41.424  39.237   8.367
  736POPC   C3A11957  41.626  39.211   7.950
  736POPC   C4A11958  41.530  39.037   7.524
  736POPC   C1B11959  41.337  39.573   8.825
  736POPC   C2B11960  41.129  39.648   8.466
  736POPC   C3B11961  41.159  39.548   8.056
  736POPC   C4B11962  41.315  39.489   7.658
  737POPC   NC311963  41.148  43.325   9.716
  737POPC   PO411964  41.891  43.087   9.543
  737POPC   GL111965  41.662  43.152   9.146
  737POPC   GL211966  41.330  43.270   9.250
  737POPC   C1A11967  41.536  42.894   8.753
  737POPC   D2A11968  41.263  42.714   8.400
  737POPC   C3A11969  41.430  42.905   8.021
  737POPC   C4A11970  41.800  43.182   7.960
  737POPC   C1B11971  41.310  43.431   8.839
  737POPC   C2B11972  41.343  43.247   8.430
  737POPC   C3B11973  41.391  43.437   8.076
  737POPC   C4B11974  41.347  43.300   7.698
  738POPC   NC311975  24.068   9.836   9.745
  738POPC   PO411976  24.491   9.615   9.290
  738POPC   GL111977  24.515  10.009   9.093
  738POPC   GL211978  24.176  10.023   9.138
  738POPC   C1A11979  24.577   9.915   8.666
  738POPC   D2A11980  24.562   9.543   8.410
  738POPC   C3A11981  24.725   9.716   8.033
  738POPC   C4A11982  24.493   9.906   7.698
  738POPC   C1B11983  24.072   9.813   8.778
  738POPC   C2B11984  24.165   9.862   8.356
  738POPC   C3B11985  24.238   9.615   8.004
  738POPC   C4B11986  24.071   9.660   7.608
  739POPC   NC311987   5.374  41.691   9.318
  739POPC   PO411988   4.904  41.296   9.625
  739POPC   GL111989   4.914  41.405   9.141
  739POPC   GL211990   5.065  41.697   8.930
  739POPC   C1A11991   4.879  41.347   8.660
  739POPC   D2A11992   4.689  41.542   8.330
  739POPC   C3A11993   4.914  41.483   7.976
  739POPC   C4A11994   4.722  41.572   7.617
  739POPC   C1B11995   5.434  41.790   8.644
  739POPC   C2B11996   5.621  41.619   8.241
  739POPC   C3B11997   5.412  41.549   7.845
  739POPC   C4B11998   5.420  41.699   7.432
  740POPC   NC311999  22.289  39.266   9.499
  740POPC   PO412000  21.557  39.366   9.527
  740POPC   GL112001  21.788  39.202   9.150
  740POPC   GL212002  22.154  39.088   9.048
  740POPC   C1A12003  21.851  39.321   8.698
  740POPC   D2A12004  22.139  39.172   8.384
  740POPC   C3A12005  22.287  39.387   7.996
  740POPC   C4A12006  22.480  39.624   7.648
  740POPC   C1B12007  21.925  38.823   8.790
  740POPC   C2B12008  21.745  38.832   8.384
  740POPC   C3B12009  21.980  38.902   7.973
  740POPC   C4B12010  22.334  38.987   7.667
  741POPC   NC312011  37.644   0.777   9.384
  741POPC   PO412012  37.434   1.330   9.682
  741POPC   GL112013  37.644   1.343   9.231
  741POPC   GL212014  37.928   1.117   9.143
  741POPC   C1A12015  37.811   1.495   8.800
  741POPC   D2A12016  37.558   1.404   8.409
  741POPC   C3A12017  37.703   1.354   7.972
  741POPC   C4A12018  37.449   1.194   7.609
  741POPC   C1B12019  37.756   0.989   8.738
  741POPC   C2B12020  37.858   0.927   8.300
  741POPC   C3B12021  37.682   0.839   7.911
  741POPC   C4B12022  37.813   0.894   7.426
  742POPC   NC312023  24.228  37.399   9.364
  742POPC   PO412024  23.833  37.920   9.637
  742POPC   GL112025  23.612  37.751   9.260
  742POPC   GL212026  23.920  37.756   9.092
  742POPC   C1A12027  23.472  37.637   8.816
  742POPC   D2A12028  23.501  37.827   8.381
  742POPC   C3A12029  23.687  37.648   8.024
  742POPC   C4A12030  23.747  37.872   7.632
  742POPC   C1B12031  23.955  37.742   8.637
  742POPC   C2B12032  24.234  37.502   8.402
  742POPC   C3B12033  24.210  37.305   8.032
  742POPC   C4B12034  24.003  37.430   7.706
  743POPC   NC312035  43.964  25.741   9.608
  743POPC   PO412036  43.890  26.376   9.684
  743POPC   GL112037  43.968  26.186   9.240
  743POPC   GL212038  43.963  25.860   9.119
  743POPC   C1A12039  43.754  26.191   8.793
  743POPC   D2A12040  43.617  26.128   8.361
  743POPC   C3A12041  43.804  26.336   8.031
  743POPC   C4A12042  43.723  26.267   7.625
  743POPC   C1B12043  43.823  25.676   8.751
  743POPC   C2B12044  43.863  25.696   8.326
  743POPC   C3B12045  43.740  25.818   7.936
  743POPC   C4B12046  44.081  25.912   7.672
  744POPC   NC312047  30.012  25.041   9.546
  744POPC   PO412048  29.570  25.523   9.535
  744POPC   GL112049  29.903  25.455   9.208
  744POPC   GL212050  29.923  25.100   9.056
  744POPC   C1A12051  30.081  25.492   8.783
  744POPC   D2A12052  30.002  25.292   8.386
  744POPC   C3A12053  29.983  25.518   7.988
  744POPC   C4A12054  29.647  25.424   7.728
  744POPC   C1B12055  30.098  24.842   8.695
  744POPC   C2B12056  30.245  24.871   8.252
  744POPC   C3B12057  29.943  25.002   7.897
  744POPC   C4B12058  30.107  25.273   7.543
  745POPC   NC312059   9.206  21.690   9.420
  745POPC   PO412060   8.850  21.148   9.559
  745POPC   GL112061   8.866  21.348   9.156
  745POPC   GL212062   8.764  21.689   9.048
  745POPC   C1A12063   9.136  21.367   8.798
  745POPC   D2A12064   9.223  21.230   8.375
  745POPC   C3A12065   9.095  21.420   7.990
  745POPC   C4A12066   9.029  21.410   7.542
  745POPC   C1B12067   8.617  21.420   8.679
  745POPC   C2B12068   8.706  21.204   8.265
  745POPC   C3B12069   8.599  21.326   7.807
  745POPC   C4B12070   8.587  21.594   7.395
  746POPC   NC312071  10.928   1.007   9.451
  746POPC   PO412072  10.229   1.192   9.452
  746POPC   GL112073  10.536   1.235   9.138
  746POPC   GL212074  10.607   0.893   9.087
  746POPC   C1A12075  10.552   1.337   8.700
  746POPC   D2A12076  10.327   1.554   8.339
  746POPC   C3A12077  10.533   1.442   7.941
  746POPC   C4A12078  10.376   1.238   7.545
  746POPC   C1B12079  10.844   0.905   8.730
  746POPC   C2B12080  11.001   0.582   8.453
  746POPC   C3B12081  10.940   0.830   8.131
  746POPC   C4B12082  10.662   0.958   7.844
  747POPC   NC312083  11.136  29.938   9.428
  747POPC   PO412084  11.721  29.932   9.138
  747POPC   GL112085  11.371  29.877   8.963
  747POPC   GL212086  11.181  29.580   9.073
  747POPC   C1A12087  11.466  29.933   8.531
  747POPC   D2A12088  11.141  29.896   8.259
  747POPC   C3A12089  10.958  29.814   7.885
  747POPC   C4A12090  11.077  29.946   7.487
  747POPC   C1B12091  11.359  29.463   8.668
  747POPC   C2B12092  11.518  29.542   8.217
  747POPC   C3B12093  11.492  29.725   7.792
  747POPC   C4B12094  11.321  29.499   7.424
  748POPC   NC312095   7.313  33.216   9.329
  748POPC   PO412096   7.767  32.672   9.300
  748POPC   GL112097   7.719  33.074   9.083
  748POPC   GL212098   7.452  32.915   8.923
  748POPC   C1A12099   7.778  33.366   8.718
  748POPC   D2A12100   7.912  33.428   8.280
  748POPC   C3A12101   7.655  33.193   7.950
  748POPC   C4A12102   7.401  32.802   7.871
  748POPC   C1B12103   7.421  32.997   8.484
  748POPC   C2B12104   7.388  33.392   8.332
  748POPC   C3B12105   7.152  33.552   8.014
  748POPC   C4B12106   7.060  33.193   7.827
  749POPC   NC312107   1.390   9.247   9.498
  749POPC   PO412108   0.831   8.904   9.364
  749POPC   GL112109   1.102   8.767   9.033
  749POPC   GL212110   1.468   8.653   9.063
  749POPC   C1A12111   1.022   8.952   8.622
  749POPC   D2A12112   1.196   8.811   8.231
  749POPC   C3A12113   1.024   9.048   7.993
  749POPC   C4A12114   1.095   9.069   7.592
  749POPC   C1B12115   1.504   8.832   8.632
  749POPC   C2B12116   1.516   9.207   8.333
  749POPC   C3B12117   1.510   9.128   7.887
  749POPC   C4B12118   1.443   8.719   7.773
  750POPC   NC312119   9.390  11.145   9.513
  750POPC   PO412120   8.799  11.488   9.564
  750POPC   GL112121   8.679  11.304   9.159
  750POPC   GL212122   8.961  11.075   9.163
  750POPC   C1A12123   8.831  11.460   8.739
  750POPC   D2A12124   9.176  11.611   8.436
  750POPC   C3A12125   9.108  11.463   8.007
  750POPC   C4A12126   8.822  11.574   7.721
  750POPC   C1B12127   9.153  11.051   8.754
  750POPC   C2B12128   9.154  11.089   8.344
  750POPC   C3B12129   9.180  10.929   7.946
  750POPC   C4B12130   9.015  11.101   7.613
  751POPC   NC312131  31.362  12.236   9.485
  751POPC   PO412132  30.884  11.766   9.499
  751POPC   GL112133  31.200  11.841   9.191
  751POPC   GL212134  31.542  11.852   9.188
  751POPC   C1A12135  31.161  12.029   8.793
  751POPC   D2A12136  31.237  11.785   8.392
  751POPC   C3A12137  31.372  11.999   8.006
  751POPC   C4A12138  31.139  12.196   7.694
  751POPC   C1B12139  31.645  11.910   8.703
  751POPC   C2B12140  31.861  12.007   8.301
  751POPC   C3B12141  31.820  12.257   7.925
  751POPC   C4B12142  31.619  12.306   7.493
  752POPC   NC312143   0.261  27.446   9.470
  752POPC   PO412144   0.900  27.681   9.534
  752POPC   GL112145   0.604  27.681   9.173
  752POPC   GL212146   0.246  27.694   9.035
  752POPC   C1A12147   0.611  27.839   8.745
  752POPC   D2A12148   0.221  27.788   8.502
  752POPC   C3A12149   0.411  27.671   8.118
  752POPC   C4A12150   0.405  27.857   7.726
  752POPC   C1B12151   0.375  27.340   8.793
  752POPC   C2B12152   0.306  27.045   8.456
  752POPC   C3B12153   0.409  27.087   8.038
  752POPC   C4B12154   0.251  27.364   7.720
  753POPC   NC312155  10.982  13.105   9.834
  753POPC   PO412156  10.476  12.781   9.646
  753POPC   GL112157  10.472  12.699   9.232
  753POPC   GL212158  10.746  12.485   9.283
  753POPC   C1A12159  10.382  12.766   8.798
  753POPC   D2A12160  10.148  12.916   8.447
  753POPC   C3A12161  10.318  12.868   8.020
  753POPC   C4A12162  10.601  12.861   7.666
  753POPC   C1B12163  10.757  12.401   8.850
  753POPC   C2B12164  10.775  12.681   8.475
  753POPC   C3B12165  10.757  12.559   8.054
  753POPC   C4B12166  10.807  12.387   7.636
  754POPC   NC312167  19.538  43.099   9.280
  754POPC   PO412168  19.994  42.860   9.774
  754POPC   GL112169  20.124  42.962   9.305
  754POPC   GL212170  20.037  43.286   9.127
  754POPC   C1A12171  20.140  42.902   8.811
  754POPC   D2A12172  20.194  43.193   8.416
  754POPC   C3A12173  20.022  43.090   7.992
  754POPC   C4A12174  19.870  43.084   7.569
  754POPC   C1B12175  19.782  43.270   8.701
  754POPC   C2B12176  19.606  43.048   8.316
  754POPC   C3B12177  19.508  43.220   7.896
  754POPC   C4B12178  19.671  43.552   7.588
  755POPC   NC312179  28.688  25.701   9.331
  755POPC   PO412180  28.293  26.114   9.686
  755POPC   GL112181  28.386  26.164   9.210
  755POPC   GL212182  28.231  25.856   9.138
  755POPC   C1A12183  28.160  26.184   8.756
  755POPC   D2A12184  27.879  26.229   8.402
  755POPC   C3A12185  28.099  26.275   8.010
  755POPC   C4A12186  28.426  26.309   7.678
  755POPC   C1B12187  28.138  25.662   8.783
  755POPC   C2B12188  28.220  25.818   8.382
  755POPC   C3B12189  28.074  25.753   7.979
  755POPC   C4B12190  28.366  25.692   7.652
  756POPC   NC312191  24.948  37.873   9.411
  756POPC   PO412192  25.330  37.449   9.708
  756POPC   GL112193  25.269  37.515   9.232
  756POPC   GL212194  25.421  37.868   9.175
  756POPC   C1A12195  25.163  37.698   8.766
  756POPC   D2A12196  25.011  37.876   8.365
  756POPC   C3A12197  25.104  37.791   7.928
  756POPC   C4A12198  25.101  37.400   7.690
  756POPC   C1B12199  25.644  37.554   8.888
  756POPC   C2B12200  25.623  37.572   8.433
  756POPC   C3B12201  25.526  37.529   7.988
  756POPC   C4B12202  25.475  37.718   7.551
  757POPC   NC312203  15.766  28.128   9.647
  757POPC   PO412204  16.278  28.553   9.415
  757POPC   GL112205  16.046  28.238   9.163
  757POPC   GL212206  15.702  28.289   9.152
  757POPC   C1A12207  15.940  28.124   8.728
  757POPC   D2A12208  15.890  28.369   8.366
  757POPC   C3A12209  16.040  28.319   7.959
  757POPC   C4A12210  15.853  28.109   7.641
  757POPC   C1B12211  15.445  28.305   8.796
  757POPC   C2B12212  15.410  28.154   8.397
  757POPC   C3B12213  15.532  28.281   8.010
  757POPC   C4B12214  15.675  28.675   7.823
  758POPC   NC312215  30.716  41.994   9.580
  758POPC   PO412216  30.527  42.543   9.602
  758POPC   GL112217  30.557  42.306   9.173
  758POPC   GL212218  30.714  41.989   9.067
  758POPC   C1A12219  30.440  42.251   8.713
  758POPC   D2A12220  30.657  42.354   8.309
  758POPC   C3A12221  30.572  42.285   7.836
  758POPC   C4A12222  30.766  42.297   7.390
  758POPC   C1B12223  31.107  41.945   8.812
  758POPC   C2B12224  31.232  41.988   8.386
  758POPC   C3B12225  30.871  41.949   8.104
  758POPC   C4B12226  30.735  41.830   7.699
  759POPC   NC312227   0.162  21.150   9.646
  759POPC   PO412228   0.630  21.668   9.561
  759POPC   GL112229   0.339  21.472   9.260
  759POPC   GL212230   0.315  21.117   9.180
  759POPC   C1A12231   0.328  21.464   8.799
  759POPC   D2A12232   0.155  21.426   8.384
  759POPC   C3A12233   0.336  21.633   8.028
  759POPC   C4A12234   0.315  21.653   7.594
  759POPC   C1B12235   0.604  20.940   8.939
  759POPC   C2B12236   0.588  20.930   8.504
  759POPC   C3B12237   0.549  21.181   8.162
  759POPC   C4B12238   0.226  21.191   7.830
  760POPC   NC312239  39.945   8.593   9.347
  760POPC   PO412240  40.249   9.224   9.477
  760POPC   GL112241  39.977   9.080   9.153
  760POPC   GL212242  40.211   8.844   8.955
  760POPC   C1A12243  39.853   9.162   8.747
  760POPC   D2A12244  40.087   9.053   8.394
  760POPC   C3A12245  40.001   9.265   8.023
  760POPC   C4A12246  40.191   9.205   7.658
  760POPC   C1B12247  39.895   8.641   8.680
  760POPC   C2B12248  39.704   8.739   8.292
  760POPC   C3B12249  39.882   8.779   7.901
  760POPC   C4B12250  39.672   8.667   7.542
  761POPC   NC312251  31.825  21.296   9.328
  761POPC   PO412252  31.346  20.830   9.567
  761POPC   GL112253  31.413  21.067   9.145
  761POPC   GL212254  31.343  21.425   9.112
  761POPC   C1A12255  31.450  21.030   8.700
  761POPC   D2A12256  31.283  21.313   8.396
  761POPC   C3A12257  31.437  21.343   7.987
  761POPC   C4A12258  31.582  21.053   7.708
  761POPC   C1B12259  31.244  21.693   8.739
  761POPC   C2B12260  31.313  21.812   8.288
  761POPC   C3B12261  31.202  21.764   7.822
  761POPC   C4B12262  31.423  21.727   7.410
  762POPC   NC312263   9.369   1.896   9.525
  762POPC   PO412264  10.039   2.170   9.372
  762POPC   GL112265   9.741   1.949   9.193
  762POPC   GL212266   9.938   1.862   8.960
  762POPC   C1A12267   9.476   2.053   8.846
  762POPC   D2A12268   9.675   2.255   8.513
  762POPC   C3A12269   9.803   2.056   8.134
  762POPC   C4A12270   9.557   1.922   7.793
  762POPC   C1B12271   9.796   1.740   8.564
  762POPC   C2B12272   9.781   1.555   8.163
  762POPC   C3B12273  10.067   1.628   7.793
  762POPC   C4B12274  10.262   1.706   7.363
  763POPC   NC312275  40.116  34.197   9.508
  763POPC   PO412276  39.605  34.633   9.517
  763POPC   GL112277  39.919  34.563   9.149
  763POPC   GL212278  40.304  34.473   9.128
  763POPC   C1A12279  40.050  34.688   8.725
  763POPC   D2A12280  40.340  34.626   8.388
  763POPC   C3A12281  40.107  34.798   8.061
  763POPC   C4A12282  39.776  34.614   7.825
  763POPC   C1B12283  40.284  34.211   8.751
  763POPC   C2B12284  40.238  34.062   8.329
  763POPC   C3B12285  40.230  34.306   7.949
  763POPC   C4B12286  40.300  34.632   7.629
  764POPC   NC312287  21.528   2.093   9.837
  764POPC   PO412288  21.268   1.560   9.505
  764POPC   GL112289  21.509   1.684   9.094
  764POPC   GL212290  21.591   2.050   9.050
  764POPC   C1A12291  21.427   1.796   8.634
  764POPC   D2A12292  21.228   1.759   8.201
  764POPC   C3A12293  21.415   1.838   7.779
  764POPC   C4A12294  21.298   1.969   7.354
  764POPC   C1B12295  21.573   2.293   8.693
  764POPC   C2B12296  21.509   2.188   8.286
  764POPC   C3B12297  21.467   2.330   7.875
  764POPC   C4B12298  21.761   2.172   7.523
  765POPC   NC312299  18.309   4.834   9.575
  765POPC   PO412300  18.235   4.097   9.661
  765POPC   GL112301  18.173   4.193   9.194
  765POPC   GL212302  18.382   4.506   9.139
  765POPC   C1A12303  18.327   4.122   8.751
  765POPC   D2A12304  18.380   4.339   8.343
  765POPC   C3A12305  18.267   4.227   7.939
  765POPC   C4A12306  17.912   4.244   7.666
  765POPC   C1B12307  18.185   4.626   8.744
  765POPC   C2B12308  18.195   4.819   8.365
  765POPC   C3B12309  18.026   4.711   7.955
  765POPC   C4B12310  18.291   4.618   7.618
  766POPC   NC312311  44.708   9.298   9.588
  766POPC   PO412312  44.382   8.753   9.397
  766POPC   GL112313  44.649   8.795   9.037
  766POPC   GL212314  44.720   9.117   9.103
  766POPC   C1A12315  44.723   8.951   8.612
  766POPC   D2A12316  44.554   9.246   8.317
  766POPC   C3A12317  44.555   9.093   7.897
  766POPC   C4A12318  44.503   8.653   7.764
  766POPC   C1B12319   0.004   9.342   8.832
  766POPC   C2B12320   0.107   9.324   8.380
  766POPC   C3B12321   0.068   9.218   7.918
  766POPC   C4B12322  44.871   9.411   7.527
  767POPC   NC312323   8.646  34.588   9.214
  767POPC   PO412324   8.333  34.762   9.777
  767POPC   GL112325   8.089  34.693   9.321
  767POPC   GL212326   8.089  34.340   9.159
  767POPC   C1A12327   8.146  34.722   8.831
  767POPC   D2A12328   8.338  34.668   8.428
  767POPC   C3A12329   8.147  34.583   8.050
  767POPC   C4A12330   7.983  34.644   7.621
  767POPC   C1B12331   8.258  34.218   8.721
  767POPC   C2B12332   8.549  34.221   8.350
  767POPC   C3B12333   8.427  34.185   7.911
  767POPC   C4B12334   8.311  34.241   7.476
  768POPC   NC312335  43.455  32.098   9.701
  768POPC   PO412336  42.899  32.465   9.503
  768POPC   GL112337  43.073  32.266   9.154
  768POPC   GL212338  43.326  32.012   9.231
  768POPC   C1A12339  42.935  32.350   8.742
  768POPC   D2A12340  42.993  32.601   8.408
  768POPC   C3A12341  43.024  32.324   8.092
  768POPC   C4A12342  42.725  32.282   7.805
  768POPC   C1B12343  43.319  31.965   8.810
  768POPC   C2B12344  43.389  32.186   8.460
  768POPC   C3B12345  43.377  31.919   8.143
  768POPC   C4B12346  43.295  31.972   7.754
  769POPC   NC312347  19.197  15.193   9.819
  769POPC   PO412348  18.617  15.418   9.597
  769POPC   GL112349  18.977  15.279   9.291
  769POPC   GL212350  18.885  14.973   9.114
  769POPC   C1A12351  19.296  15.167   8.912
  769POPC   D2A12352  19.131  15.012   8.501
  769POPC   C3A12353  19.341  15.041   8.102
  769POPC   C4A12354  19.316  15.156   7.682
  769POPC   C1B12355  18.694  15.203   8.784
  769POPC   C2B12356  18.746  15.396   8.376
  769POPC   C3B12357  18.775  15.172   8.002
  769POPC   C4B12358  18.824  15.364   7.632
  770POPC   NC312359  40.128  27.677   9.487
  770POPC   PO412360  39.492  27.686   9.564
  770POPC   GL112361  39.738  27.612   9.143
  770POPC   GL212362  40.070  27.405   9.069
  770POPC   C1A12363  39.924  27.752   8.729
  770POPC   D2A12364  40.117  27.980   8.386
  770POPC   C3A12365  40.252  27.729   8.025
  770POPC   C4A12366  39.967  27.578   7.693
  770POPC   C1B12367  39.738  27.253   8.770
  770POPC   C2B12368  39.656  27.461   8.371
  770POPC   C3B12369  39.786  27.220   8.022
  770POPC   C4B12370  40.212  27.081   7.903
  771POPC   NC312371  11.779   8.426   9.319
  771POPC   PO412372  11.241   8.048   9.606
  771POPC   GL112373  11.190   8.144   9.178
  771POPC   GL212374  11.475   8.201   8.978
  771POPC   C1A12375  11.014   8.123   8.767
  771POPC   D2A12376  10.996   8.274   8.335
  771POPC   C3A12377  11.329   8.201   8.044
  771POPC   C4A12378  11.287   8.020   7.611
  771POPC   C1B12379  11.470   8.096   8.543
  771POPC   C2B12380  11.797   8.005   8.259
  771POPC   C3B12381  11.677   7.869   7.870
  771POPC   C4B12382  11.726   7.929   7.387
  772POPC   NC312383  38.015  17.500   9.299
  772POPC   PO412384  38.731  17.581   9.530
  772POPC   GL112385  38.595  17.604   9.132
  772POPC   GL212386  38.511  17.265   9.148
  772POPC   C1A12387  38.472  17.757   8.721
  772POPC   D2A12388  38.169  17.611   8.412
  772POPC   C3A12389  38.360  17.694   8.024
  772POPC   C4A12390  38.142  17.787   7.667
  772POPC   C1B12391  38.403  17.263   8.739
  772POPC   C2B12392  38.583  17.303   8.335
  772POPC   C3B12393  38.567  17.231   7.896
  772POPC   C4B12394  38.416  17.363   7.497
  773POPC   NC312395  25.542   4.102   9.442
  773POPC   PO412396  24.973   4.424   9.437
  773POPC   GL112397  25.100   4.300   9.069
  773POPC   GL212398  25.433   4.200   8.973
  773POPC   C1A12399  25.063   4.258   8.656
  773POPC   D2A12400  25.349   4.068   8.414
  773POPC   C3A12401  25.227   4.308   8.110
  773POPC   C4A12402  25.072   4.196   7.730
  773POPC   C1B12403  25.608   4.464   8.675
  773POPC   C2B12404  25.809   4.316   8.305
  773POPC   C3B12405  25.687   4.140   7.953
  773POPC   C4B12406  25.511   4.456   7.722
  774POPC   NC312407  34.838   6.602   9.509
  774POPC   PO412408  34.189   6.668   9.517
  774POPC   GL112409  34.471   6.684   9.157
  774POPC   GL212410  34.597   6.346   9.137
  774POPC   C1A12411  34.600   6.628   8.713
  774POPC   D2A12412  34.476   6.912   8.420
  774POPC   C3A12413  34.507   6.825   7.988
  774POPC   C4A12414  34.597   6.479   7.710
  774POPC   C1B12415  34.201   6.321   8.914
  774POPC   C2B12416  34.051   6.265   8.506
  774POPC   C3B12417  34.254   6.372   8.121
  774POPC   C4B12418  34.153   6.228   7.742
  775POPC   NC312419  25.208  32.458   9.503
  775POPC   PO412420  24.771  31.974   9.303
  775POPC   GL112421  25.068  32.212   9.088
  775POPC   GL212422  25.386  32.057   9.148
  775POPC   C1A12423  25.213  32.348   8.715
  775POPC   D2A12424  25.127  32.068   8.431
  775POPC   C3A12425  25.060  32.261   8.055
  775POPC   C4A12426  25.290  32.375   7.721
  775POPC   C1B12427  25.567  31.985   8.725
  775POPC   C2B12428  25.680  31.944   8.293
  775POPC   C3B12429  25.628  32.003   7.869
  775POPC   C4B12430  25.292  31.889   7.605
  776POPC   NC312431  36.278  13.971   9.529
  776POPC   PO412432  35.642  13.685   9.396
  776POPC   GL112433  35.793  13.871   9.023
  776POPC   GL212434  36.152  13.791   9.013
  776POPC   C1A12435  35.899  13.797   8.566
  776POPC   D2A12436  36.151  13.599   8.248
  776POPC   C3A12437  36.118  13.789   7.841
  776POPC   C4A12438  35.788  13.834   7.525
  776POPC   C1B12439  36.128  13.370   8.734
  776POPC   C2B12440  36.105  13.087   8.340
  776POPC   C3B12441  36.114  13.202   7.898
  776POPC   C4B12442  36.139  13.441   7.470
  777POPC   NC312443  44.952  28.960   9.640
  777POPC   PO412444  44.344  29.221   9.486
  777POPC   GL112445  44.584  29.036   9.132
  777POPC   GL212446  44.921  29.141   9.143
  777POPC   C1A12447  44.474  28.934   8.688
  777POPC   D2A12448  44.312  29.172   8.324
  777POPC   C3A12449  44.510  29.095   7.924
  777POPC   C4A12450  44.770  28.795   7.729
  777POPC   C1B12451  44.990  28.978   8.734
  777POPC   C2B12452  44.854  29.009   8.324
  777POPC   C3B12453   0.029  29.183   7.982
  777POPC   C4B12454  44.872  29.351   7.620
  778POPC   NC312455  37.045  18.665   9.661
  778POPC   PO412456  36.707  19.192   9.405
  778POPC   GL112457  37.054  19.066   9.108
  778POPC   GL212458  37.300  19.388   8.989
  778POPC   C1A12459  36.993  18.808   8.746
  778POPC   D2A12460  36.679  18.903   8.472
  778POPC   C3A12461  36.910  18.901   8.137
  778POPC   C4A12462  36.922  18.572   7.874
  778POPC   C1B12463  36.991  19.318   8.671
  778POPC   C2B12464  36.996  19.484   8.283
  778POPC   C3B12465  36.894  19.348   7.900
  778POPC   C4B12466  37.079  19.010   7.649
  779POPC   NC312467  18.156  34.126   9.358
  779POPC   PO412468  18.049  33.498   9.380
  779POPC   GL112469  18.170  33.717   9.034
  779POPC   GL212470  18.535  33.782   9.103
  779POPC   C1A12471  18.119  33.956   8.646
  779POPC   D2A12472  17.862  33.913   8.257
  779POPC   C3A12473  18.159  34.005   7.922
  779POPC   C4A12474  18.255  33.781   7.553
  779POPC   C1B12475  18.498  33.572   8.676
  779POPC   C2B12476  18.379  33.643   8.240
  779POPC   C3B12477  18.434  33.383   7.866
  779POPC   C4B12478  18.519  33.365   7.419
  780POPC   NC312479  21.841  15.277   9.355
  780POPC   PO412480  22.260  14.796   9.581
  780POPC   GL112481  22.212  14.967   9.187
  780POPC   GL212482  21.914  14.803   9.146
  780POPC   C1A12483  22.140  15.129   8.764
  780POPC   D2A12484  22.286  15.278   8.364
  780POPC   C3A12485  22.026  15.206   8.041
  780POPC   C4A12486  22.215  15.245   7.680
  780POPC   C1B12487  21.737  14.793   8.755
  780POPC   C2B12488  21.872  14.679   8.358
  780POPC   C3B12489  21.755  14.777   7.966
  780POPC   C4B12490  21.823  14.964   7.579
  781POPC   NC312491  23.490   8.680   9.580
  781POPC   PO412492  24.041   8.725   9.219
  781POPC   GL112493  23.796   9.017   9.061
  781POPC   GL212494  23.532   9.110   9.266
  781POPC   C1A12495  23.859   9.116   8.654
  781POPC   D2A12496  23.982   9.382   8.372
  781POPC   C3A12497  23.970   9.195   7.958
  781POPC   C4A12498  23.864   8.844   7.747
  781POPC   C1B12499  23.365   9.131   8.804
  781POPC   C2B12500  23.445   9.281   8.368
  781POPC   C3B12501  23.457   9.103   7.948
  781POPC   C4B12502  23.474   9.033   7.475
  782POPC   NC312503   2.916   4.777   9.610
  782POPC   PO412504   3.297   5.311   9.685
  782POPC   GL112505   3.225   4.956   9.281
  782POPC   GL212506   2.870   5.011   9.156
  782POPC   C1A12507   3.250   4.821   8.849
  782POPC   D2A12508   3.049   4.741   8.439
  782POPC   C3A12509   2.954   4.926   8.066
  782POPC   C4A12510   3.110   5.257   7.806
  782POPC   C1B12511   2.722   4.766   8.814
  782POPC   C2B12512   2.553   4.881   8.404
  782POPC   C3B12513   2.465   4.904   7.968
  782POPC   C4B12514   2.701   5.001   7.611
  783POPC   NC312515  28.587  31.406   9.491
  783POPC   PO412516  27.976  31.492   9.510
  783POPC   GL112517  28.233  31.472   9.102
  783POPC   GL212518  28.532  31.657   9.041
  783POPC   C1A12519  28.307  31.466   8.614
  783POPC   D2A12520  28.652  31.576   8.338
  783POPC   C3A12521  28.451  31.508   7.941
  783POPC   C4A12522  28.237  31.192   7.692
  783POPC   C1B12523  28.659  31.190   8.831
  783POPC   C2B12524  28.638  31.062   8.382
  783POPC   C3B12525  28.694  31.027   7.924
  783POPC   C4B12526  28.634  30.931   7.483
  784POPC   NC312527   2.597  28.684   9.710
  784POPC   PO412528   2.882  28.167   9.339
  784POPC   GL112529   2.751  28.531   9.088
  784POPC   GL212530   2.522  28.818   9.199
  784POPC   C1A12531   2.721  28.433   8.642
  784POPC   D2A12532   2.863  28.103   8.371
  784POPC   C3A12533   2.753  28.258   7.943
  784POPC   C4A12534   2.952  28.558   7.684
  784POPC   C1B12535   2.288  28.674   8.805
  784POPC   C2B12536   2.300  28.501   8.340
  784POPC   C3B12537   2.303  28.555   7.878
  784POPC   C4B12538   2.526  28.865   7.647
  785POPC   NC312539  13.432  41.506   9.732
  785POPC   PO412540  13.911  41.906   9.443
  785POPC   GL112541  13.713  41.603   9.137
  785POPC   GL212542  13.466  41.352   9.014
  785POPC   C1A12543  13.870  41.556   8.715
  785POPC   D2A12544  14.030  41.438   8.313
  785POPC   C3A12545  13.947  41.746   8.016
  785POPC   C4A12546  13.745  41.731   7.591
  785POPC   C1B12547  13.361  41.641   8.704
  785POPC   C2B12548  13.533  41.740   8.336
  785POPC   C3B12549  13.555  41.445   8.036
  785POPC   C4B12550  13.563  41.236   7.656
  786POPC   NC312551  26.649  29.825   9.657
  786POPC   PO412552  25.969  29.673   9.538
  786POPC   GL112553  25.968  29.820   9.135
  786POPC   GL212554  26.268  30.051   9.201
  786POPC   C1A12555  25.744  29.705   8.756
  786POPC   D2A12556  25.908  29.823   8.371
  786POPC   C3A12557  25.800  29.661   7.978
  786POPC   C4A12558  25.880  29.878   7.619
  786POPC   C1B12559  26.323  29.905   8.783
  786POPC   C2B12560  26.451  30.030   8.421
  786POPC   C3B12561  26.385  29.890   8.035
  786POPC   C4B12562  26.390  29.991   7.622
  787POPC   NC312563  19.309  12.389   9.795
  787POPC   PO412564  18.751  12.113   9.492
  787POPC   GL112565  19.063  11.913   9.164
  787POPC   GL212566  19.238  12.193   9.072
  787POPC   C1A12567  19.241  11.811   8.719
  787POPC   D2A12568  19.418  11.810   8.274
  787POPC   C3A12569  19.125  11.829   7.902
  787POPC   C4A12570  19.212  11.918   7.466
  787POPC   C1B12571  19.314  12.391   8.679
  787POPC   C2B12572  19.223  12.324   8.258
  787POPC   C3B12573  18.923  12.293   7.958
  787POPC   C4B12574  18.509  12.364   7.823
  788POPC   NC312575   5.067  32.787   9.605
  788POPC   PO412576   4.910  32.243   9.751
  788POPC   GL112577   4.996  32.321   9.293
  788POPC   GL212578   4.775  32.489   9.131
  788POPC   C1A12579   4.993  32.077   8.867
  788POPC   D2A12580   4.849  32.050   8.423
  788POPC   C3A12581   5.027  31.959   7.987
  788POPC   C4A12582   5.250  32.211   7.646
  788POPC   C1B12583   4.947  32.580   8.751
  788POPC   C2B12584   5.115  32.528   8.362
  788POPC   C3B12585   4.920  32.458   8.000
  788POPC   C4B12586   4.877  32.692   7.660
  789POPC   NC312587  39.206  44.022   9.695
  789POPC   PO412588  38.858  43.792   9.148
  789POPC   GL112589  39.120  43.627   8.900
  789POPC   GL212590  38.924  43.396   8.731
  789POPC   C1A12591  39.381  43.764   8.547
  789POPC   D2A12592  39.661  44.046   8.297
  789POPC   C3A12593  39.605  44.002   7.849
  789POPC   C4A12594  39.329  43.739   7.616
  789POPC   C1B12595  38.869  43.782   8.457
  789POPC   C2B12596  39.130  43.897   8.091
  789POPC   C3B12597  39.135  44.197   7.750
  789POPC   C4B12598  38.909  44.177   7.314
  790POPC   NC312599  26.944   8.662   9.482
  790POPC   PO412600  26.396   8.996   9.562
  790POPC   GL112601  26.622   8.974   9.226
  790POPC   GL212602  26.821   9.255   9.310
  790POPC   C1A12603  26.593   8.840   8.814
  790POPC   D2A12604  26.672   8.669   8.426
  790POPC   C3A12605  26.775   8.885   8.056
  790POPC   C4A12606  26.569   8.825   7.669
  790POPC   C1B12607  26.567   9.367   8.916
  790POPC   C2B12608  26.599   9.227   8.476
  790POPC   C3B12609  26.587   9.367   8.049
  790POPC   C4B12610  26.691   9.306   7.625
  791POPC   NC312611   3.100   1.772   9.633
  791POPC   PO412612   3.712   2.031   9.584
  791POPC   GL112613   3.383   1.983   9.258
  791POPC   GL212614   3.549   2.228   9.122
  791POPC   C1A12615   3.221   1.945   8.810
  791POPC   D2A12616   3.014   2.123   8.435
  791POPC   C3A12617   3.152   2.013   8.048
  791POPC   C4A12618   3.325   2.211   7.716
  791POPC   C1B12619   3.729   1.908   8.881
  791POPC   C2B12620   3.841   1.885   8.469
  791POPC   C3B12621   3.662   2.026   8.088
  791POPC   C4B12622   3.487   1.740   7.779
  792POPC   NC312623  38.274  25.789   9.514
  792POPC   PO412624  38.909  25.902   9.540
  792POPC   GL112625  38.685  25.824   9.171
  792POPC   GL212626  38.583  26.153   9.210
  792POPC   C1A12627  38.430  25.816   8.777
  792POPC   D2A12628  38.199  25.977   8.413
  792POPC   C3A12629  38.223  25.809   7.992
  792POPC   C4A12630  38.568  25.791   7.709
  792POPC   C1B12631  38.530  26.320   8.805
  792POPC   C2B12632  38.461  26.433   8.411
  792POPC   C3B12633  38.468  26.280   8.025
  792POPC   C4B12634  38.344  26.222   7.660
  793POPC   NC312635  10.092   4.111   9.482
  793POPC   PO412636  10.563   4.637   9.515
  793POPC   GL112637  10.585   4.383   9.152
  793POPC   GL212638  10.548   4.040   9.231
  793POPC   C1A12639  10.833   4.322   8.756
  793POPC   D2A12640  10.798   4.000   8.419
  793POPC   C3A12641  10.877   4.170   8.010
  793POPC   C4A12642  10.537   4.360   7.793
  793POPC   C1B12643  10.429   3.977   8.792
  793POPC   C2B12644  10.222   3.831   8.388
  793POPC   C3B12645  10.428   3.918   7.997
  793POPC   C4B12646  10.320   3.994   7.527
  794POPC   NC312647  32.757  24.655   9.367
  794POPC   PO412648  33.377  24.632   9.455
  794POPC   GL112649  33.151  24.621   9.062
  794POPC   GL212650  33.095  24.287   9.113
  794POPC   C1A12651  33.131  24.775   8.628
  794POPC   D2A12652  33.155  24.815   8.163
  794POPC   C3A12653  32.863  24.697   7.825
  794POPC   C4A12654  32.983  24.528   7.422
  794POPC   C1B12655  33.335  24.300   8.708
  794POPC   C2B12656  33.105  24.340   8.312
  794POPC   C3B12657  33.224  24.348   7.871
  794POPC   C4B12658  33.244  24.009   7.541
  795POPC   NC312659   5.042  10.709   9.744
  795POPC   PO412660   5.361  10.298   9.285
  795POPC   GL112661   5.173  10.597   9.035
  795POPC   GL212662   4.866  10.752   9.158
  795POPC   C1A12663   5.208  10.564   8.596
  795POPC   D2A12664   5.213  10.353   8.218
  795POPC   C3A12665   5.134  10.678   7.898
  795POPC   C4A12666   5.331  10.609   7.510
  795POPC   C1B12667   4.740  10.495   8.773
  795POPC   C2B12668   4.736  10.536   8.304
  795POPC   C3B12669   4.817  10.283   7.885
  795POPC   C4B12670   4.631  10.355   7.461
  796POPC   NC312671  25.758  11.977   9.470
  796POPC   PO412672  26.307  12.427   9.521
  796POPC   GL112673  26.131  12.174   9.147
  796POPC   GL212674  25.758  12.239   9.040
  796POPC   C1A12675  26.098  12.013   8.713
  796POPC   D2A12676  25.991  11.791   8.346
  796POPC   C3A12677  25.934  12.075   8.050
  796POPC   C4A12678  26.237  11.914   7.763
  796POPC   C1B12679  25.629  11.852   8.813
  796POPC   C2B12680  25.518  11.917   8.401
  796POPC   C3B12681  25.513  11.739   8.005
  796POPC   C4B12682  25.721  11.852   7.641
  797POPC   NC312683  33.311  40.377   9.327
  797POPC   PO412684  32.929  39.832   9.542
  797POPC   GL112685  32.991  39.966   9.125
  797POPC   GL212686  33.313  39.865   9.083
  797POPC   C1A12687  32.806  40.121   8.717
  797POPC   D2A12688  32.743  40.324   8.293
  797POPC   C3A12689  32.832  40.097   7.909
  797POPC   C4A12690  32.924  39.658   7.789
  797POPC   C1B12691  33.321  40.060   8.694
  797POPC   C2B12692  33.106  39.922   8.313
  797POPC   C3B12693  33.332  39.969   7.933
  797POPC   C4B12694  33.362  40.257   7.600
  798POPC   NC312695  36.516  16.279   9.755
  798POPC   PO412696  36.199  15.751   9.454
  798POPC   GL112697  36.046  16.076   9.205
  798POPC   GL212698  35.969  15.798   8.987
  798POPC   C1A12699  35.975  16.307   8.835
  798POPC   D2A12700  35.856  16.017   8.534
  798POPC   C3A12701  35.879  16.069   8.102
  798POPC   C4A12702  36.202  16.139   7.840
  798POPC   C1B12703  35.968  15.520   8.609
  798POPC   C2B12704  35.948  15.467   8.172
  798POPC   C3B12705  35.901  15.668   7.767
  798POPC   C4B12706  35.890  15.502   7.346
  799POPC   NC312707  27.595  12.407   9.381
  799POPC   PO412708  27.850  11.784   9.531
  799POPC   GL112709  27.751  11.980   9.140
  799POPC   GL212710  27.467  11.888   9.048
  799POPC   C1A12711  27.664  12.223   8.730
  799POPC   D2A12712  27.452  12.203   8.321
  799POPC   C3A12713  27.621  12.395   7.955
  799POPC   C4A12714  27.662  12.214   7.540
  799POPC   C1B12715  27.487  11.719   8.667
  799POPC   C2B12716  27.315  11.707   8.245
  799POPC   C3B12717  27.458  11.785   7.825
  799POPC   C4B12718  27.398  11.790   7.356
  800POPC   NC312719  36.429  14.621   9.452
  800POPC   PO412720  35.946  14.256   9.638
  800POPC   GL112721  36.054  14.300   9.178
  800POPC   GL212722  36.419  14.247   9.101
  800POPC   C1A12723  35.900  14.275   8.721
  800POPC   D2A12724  35.727  14.167   8.259
  800POPC   C3A12725  35.968  14.284   7.862
  800POPC   C4A12726  35.938  14.672   7.631
  800POPC   C1B12727  36.313  14.553   8.780
  800POPC   C2B12728  36.129  14.569   8.360
  800POPC   C3B12729  36.327  14.628   8.001
  800POPC   C4B12730  36.475  14.411   7.661
  801POPC   NC312731  28.931  18.886   9.341
  801POPC   PO412732  29.604  18.709   9.503
  801POPC   GL112733  29.518  19.101   9.195
  801POPC   GL212734  29.178  19.311   9.195
  801POPC   C1A12735  29.481  19.301   8.784
  801POPC   D2A12736  29.318  19.051   8.469
  801POPC   C3A12737  29.409  19.174   8.069
  801POPC   C4A12738  29.231  18.841   7.839
  801POPC   C1B12739  28.958  19.317   8.783
  801POPC   C2B12740  29.021  19.446   8.355
  801POPC   C3B12741  28.887  19.252   7.954
  801POPC   C4B12742  28.562  19.292   7.612
  802POPC   NC312743  44.189   6.151   9.898
  802POPC   PO412744  43.611   5.861   9.616
  802POPC   GL112745  43.708   5.829   9.171
  802POPC   GL212746  43.451   6.039   9.035
  802POPC   C1A12747  43.940   5.509   8.877
  802POPC   D2A12748  44.012   5.322   8.455
  802POPC   C3A12749  43.956   5.631   8.125
  802POPC   C4A12750  44.111   5.676   7.712
  802POPC   C1B12751  43.833   6.020   8.711
  802POPC   C2B12752  43.995   6.224   8.319
  802POPC   C3B12753  44.000   6.164   7.853
  802POPC   C4B12754  43.745   5.956   7.499
  803POPC   NC312755  21.189   1.988   9.322
  803POPC   PO412756  20.584   2.099   9.492
  803POPC   GL112757  20.663   1.777   9.201
  803POPC   GL212758  20.826   2.043   8.976
  803POPC   C1A12759  20.549   1.684   8.777
  803POPC   D2A12760  20.777   1.928   8.461
  803POPC   C3A12761  20.730   1.758   8.085
  803POPC   C4A12762  20.459   1.826   7.779
  803POPC   C1B12763  21.063   2.310   8.670
  803POPC   C2B12764  21.021   2.363   8.224
  803POPC   C3B12765  20.953   2.201   7.828
  803POPC   C4B12766  20.908   2.280   7.385
  804POPC   NC312767  18.431  15.834   9.777
  804POPC   PO412768  19.075  16.088   9.539
  804POPC   GL112769  19.110  16.146   9.126
  804POPC   GL212770  19.101  15.787   9.120
  804POPC   C1A12771  19.020  16.092   8.693
  804POPC   D2A12772  18.979  15.909   8.306
  804POPC   C3A12773  19.082  16.254   8.009
  804POPC   C4A12774  19.087  16.200   7.560
  804POPC   C1B12775  19.043  15.584   8.758
  804POPC   C2B12776  19.289  15.496   8.424
  804POPC   C3B12777  19.168  15.523   8.007
  804POPC   C4B12778  19.273  15.637   7.576
  805POPC   NC312779  42.023  21.866   9.486
  805POPC   PO412780  41.419  21.736   9.486
  805POPC   GL112781  41.540  22.077   9.164
  805POPC   GL212782  41.836  22.282   9.216
  805POPC   C1A12783  41.470  22.308   8.777
  805POPC   D2A12784  41.657  22.135   8.423
  805POPC   C3A12785  41.556  22.290   8.029
  805POPC   C4A12786  41.331  22.146   7.632
  805POPC   C1B12787  41.948  22.449   8.800
  805POPC   C2B12788  41.775  22.638   8.419
  805POPC   C3B12789  41.978  22.665   8.032
  805POPC   C4B12790  41.943  22.437   7.722
  806POPC   NC312791  35.424   3.911   9.487
  806POPC   PO412792  35.136   4.567   9.481
  806POPC   GL112793  35.178   4.357   9.129
  806POPC   GL212794  35.487   4.252   9.089
  806POPC   C1A12795  35.031   4.225   8.740
  806POPC   D2A12796  35.098   4.049   8.358
  806POPC   C3A12797  35.368   4.232   8.055
  806POPC   C4A12798  35.424   3.902   7.799
  806POPC   C1B12799  35.681   4.443   8.743
  806POPC   C2B12800  35.832   4.298   8.347
  806POPC   C3B12801  35.790   4.540   7.985
  806POPC   C4B12802  35.555   4.495   7.622
  807POPC   NC312803   6.172   3.582   9.583
  807POPC   PO412804   5.632   3.839   9.420
  807POPC   GL112805   5.797   3.554   9.163
  807POPC   GL212806   6.136   3.658   9.052
  807POPC   C1A12807   5.830   3.432   8.728
  807POPC   D2A12808   6.126   3.589   8.426
  807POPC   C3A12809   5.933   3.373   8.100
  807POPC   C4A12810   5.550   3.365   7.883
  807POPC   C1B12811   5.862   3.938   8.753
  807POPC   C2B12812   5.738   3.940   8.362
  807POPC   C3B12813   5.966   3.885   7.989
  807POPC   C4B12814   5.751   3.770   7.621
  808POPC   NC312815  19.212  16.591   9.484
  808POPC   PO412816  18.572  16.950   9.476
  808POPC   GL112817  18.874  16.803   9.135
  808POPC   GL212818  19.215  16.771   9.019
  808POPC   C1A12819  18.858  16.565   8.741
  808POPC   D2A12820  19.125  16.628   8.376
  808POPC   C3A12821  18.979  16.913   8.048
  808POPC   C4A12822  19.102  16.703   7.704
  808POPC   C1B12823  19.074  17.030   8.691
  808POPC   C2B12824  19.311  17.152   8.343
  808POPC   C3B12825  19.488  16.879   8.036
  808POPC   C4B12826  19.563  16.893   7.616
  809POPC   NC312827   5.183  31.006   9.554
  809POPC   PO412828   4.608  31.131   9.303
  809POPC   GL112829   4.916  30.914   9.077
  809POPC   GL212830   5.205  30.694   9.157
  809POPC   C1A12831   5.013  30.695   8.684
  809POPC   D2A12832   5.302  30.581   8.377
  809POPC   C3A12833   5.023  30.589   8.020
  809POPC   C4A12834   4.825  30.202   7.869
  809POPC   C1B12835   5.356  31.032   8.842
  809POPC   C2B12836   5.241  31.089   8.407
  809POPC   C3B12837   5.374  30.960   8.017
  809POPC   C4B12838   5.321  30.917   7.588
  810POPC   NC312839  24.232   8.327   9.414
  810POPC   PO412840  24.905   8.273   9.441
  810POPC   GL112841  24.595   8.251   9.061
  810POPC   GL212842  24.298   7.971   9.041
  810POPC   C1A12843  24.532   8.109   8.629
  810POPC   D2A12844  24.297   7.858   8.390
  810POPC   C3A12845  24.378   8.075   8.043
  810POPC   C4A12846  24.645   7.971   7.721
  810POPC   C1B12847  24.031   8.245   8.774
  810POPC   C2B12848  24.081   8.435   8.398
  810POPC   C3B12849  24.029   8.445   7.982
  810POPC   C4B12850  24.325   8.425   7.652
  811POPC   NC312851  24.947  37.225   9.581
  811POPC   PO412852  25.447  36.773   9.587
  811POPC   GL112853  25.284  36.958   9.214
  811POPC   GL212854  25.172  36.613   9.136
  811POPC   C1A12855  25.276  37.196   8.811
  811POPC   D2A12856  25.189  37.298   8.360
  811POPC   C3A12857  25.434  37.031   8.046
  811POPC   C4A12858  25.557  37.157   7.615
  811POPC   C1B12859  25.356  36.674   8.770
  811POPC   C2B12860  25.414  36.615   8.365
  811POPC   C3B12861  25.334  36.444   7.987
  811POPC   C4B12862  25.512  36.643   7.638
  812POPC   NC312863  31.920  11.256   9.349
  812POPC   PO412864  31.468  11.482   9.808
  812POPC   GL112865  31.389  11.365   9.341
  812POPC   GL212866  31.438  11.005   9.230
  812POPC   C1A12867  31.462  11.459   8.895
  812POPC   D2A12868  31.506  11.323   8.483
  812POPC   C3A12869  31.664  11.553   8.145
  812POPC   C4A12870  31.437  11.555   7.766
  812POPC   C1B12871  31.209  11.019   8.811
  812POPC   C2B12872  31.261  10.878   8.391
  812POPC   C3B12873  31.481  11.053   8.012
  812POPC   C4B12874  31.481  11.098   7.556
  813POPC   NC312875   7.714  15.792   9.465
  813POPC   PO412876   7.115  15.892   9.479
  813POPC   GL112877   7.166  15.946   9.021
  813POPC   GL212878   7.523  15.923   9.023
  813POPC   C1A12879   7.362  16.174   8.637
  813POPC   D2A12880   7.669  16.065   8.330
  813POPC   C3A12881   7.389  15.934   8.040
  813POPC   C4A12882   7.175  16.005   7.701
  813POPC   C1B12883   7.774  15.730   8.736
  813POPC   C2B12884   7.884  15.407   8.466
  813POPC   C3B12885   7.773  15.494   8.039
  813POPC   C4B12886   7.595  15.663   7.660
  814POPC   NC312887  37.128   7.748   9.272
  814POPC   PO412888  37.118   8.386   9.596
  814POPC   GL112889  36.877   8.220   9.210
  814POPC   GL212890  36.522   8.293   9.190
  814POPC   C1A12891  36.781   8.115   8.742
  814POPC   D2A12892  36.954   8.065   8.302
  814POPC   C3A12893  37.213   8.393   8.099
  814POPC   C4A12894  37.245   8.523   7.654
  814POPC   C1B12895  36.472   8.523   8.790
  814POPC   C2B12896  36.453   8.273   8.386
  814POPC   C3B12897  36.559   8.148   7.958
  814POPC   C4B12898  36.937   8.123   7.749
  815POPC   NC312899   5.863  32.182   9.615
  815POPC   PO412900   6.221  32.758   9.678
  815POPC   GL112901   6.122  32.527   9.268
  815POPC   GL212902   5.844  32.316   9.124
  815POPC   C1A12903   6.216  32.500   8.805
  815POPC   D2A12904   5.932  32.372   8.474
  815POPC   C3A12905   6.027  32.335   8.051
  815POPC   C4A12906   5.715  32.401   7.755
  815POPC   C1B12907   6.006  32.006   8.822
  815POPC   C2B12908   6.129  31.904   8.386
  815POPC   C3B12909   5.953  31.831   7.959
  815POPC   C4B12910   6.106  32.099   7.593
  816POPC   NC312911  37.170  14.696   9.560
  816POPC   PO412912  36.754  14.126   9.507
  816POPC   GL112913  36.944  14.319   9.166
  816POPC   GL212914  36.836  14.615   9.147
  816POPC   C1A12915  36.803  14.352   8.726
  816POPC   D2A12916  37.042  14.369   8.344
  816POPC   C3A12917  36.817  14.165   8.008
  816POPC   C4A12918  36.953  14.234   7.592
  816POPC   C1B12919  36.694  14.876   8.807
  816POPC   C2B12920  36.675  14.724   8.371
  816POPC   C3B12921  36.853  14.655   7.935
  816POPC   C4B12922  36.862  14.736   7.491
  817POPC   NC312923  31.903  13.971   9.409
  817POPC   PO412924  32.122  13.344   9.521
  817POPC   GL112925  32.219  13.480   9.126
  817POPC   GL212926  32.435  13.778   9.067
  817POPC   C1A12927  32.201  13.280   8.714
  817POPC   D2A12928  32.173  13.089   8.297
  817POPC   C3A12929  32.408  13.303   7.962
  817POPC   C4A12930  32.501  13.227   7.546
  817POPC   C1B12931  32.141  13.774   8.732
  817POPC   C2B12932  32.324  13.638   8.335
  817POPC   C3B12933  32.566  13.816   7.977
  817POPC   C4B12934  32.566  13.730   7.510
  818POPC   NC312935  39.908  35.876   9.433
  818POPC   PO412936  40.104  36.441   9.690
  818POPC   GL112937  39.938  36.392   9.215
  818POPC   GL212938  39.708  36.138   9.066
  818POPC   C1A12939  40.048  36.349   8.737
  818POPC   D2A12940  40.138  36.036   8.400
  818POPC   C3A12941  40.277  36.174   7.970
  818POPC   C4A12942  40.319  35.781   7.702
  818POPC   C1B12943  39.531  36.478   8.879
  818POPC   C2B12944  39.619  36.592   8.477
  818POPC   C3B12945  39.871  36.400   8.181
  818POPC   C4B12946  39.742  36.358   7.758
  819POPC   NC312947  21.627  36.338   9.446
  819POPC   PO412948  20.893  36.608   9.494
  819POPC   GL112949  21.158  36.463   9.091
  819POPC   GL212950  21.343  36.113   9.076
  819POPC   C1A12951  21.380  36.400   8.652
  819POPC   D2A12952  21.360  36.484   8.175
  819POPC   C3A12953  21.178  36.201   7.859
  819POPC   C4A12954  21.036  35.752   7.782
  819POPC   C1B12955  21.712  36.022   8.772
  819POPC   C2B12956  21.781  35.863   8.318
  819POPC   C3B12957  21.618  35.908   7.870
  819POPC   C4B12958  21.633  36.266   7.598
  820POPC   NC312959  41.151  28.633   9.285
  820POPC   PO412960  41.522  29.132   9.486
  820POPC   GL112961  41.431  29.123   9.071
  820POPC   GL212962  41.744  28.980   8.952
  820POPC   C1A12963  41.454  29.300   8.657
  820POPC   D2A12964  41.318  29.176   8.266
  820POPC   C3A12965  41.541  29.324   7.961
  820POPC   C4A12966  41.386  29.530   7.621
  820POPC   C1B12967  41.388  28.780   8.703
  820POPC   C2B12968  41.189  28.692   8.327
  820POPC   C3B12969  41.261  28.783   7.899
  820POPC   C4B12970  41.488  28.996   7.570
  821POPC   NC312971  42.579   6.520   9.370
  821POPC   PO412972  43.225   6.523   9.571
  821POPC   GL112973  43.267   6.614   9.130
  821POPC   GL212974  43.047   6.413   9.069
  821POPC   C1A12975  43.352   6.902   8.782
  821POPC   D2A12976  43.557   6.844   8.376
  821POPC   C3A12977  43.400   6.769   7.958
  821POPC   C4A12978  43.086   6.945   7.734
  821POPC   C1B12979  43.006   6.539   8.660
  821POPC   C2B12980  42.991   6.701   8.273
  821POPC   C3B12981  42.809   6.516   7.971
  821POPC   C4B12982  43.048   6.425   7.679
  822POPC   NC312983   4.963  28.055   9.776
  822POPC   PO412984   5.371  28.490   9.517
  822POPC   GL112985   5.069  28.238   9.253
  822POPC   GL212986   4.805  28.434   9.054
  822POPC   C1A12987   5.140  28.165   8.796
  822POPC   D2A12988   5.058  28.478   8.461
  822POPC   C3A12989   5.186  28.340   8.055
  822POPC   C4A12990   5.279  28.589   7.716
  822POPC   C1B12991   4.642  28.249   8.651
  822POPC   C2B12992   4.710  28.156   8.216
  822POPC   C3B12993   4.726  28.350   7.816
  822POPC   C4B12994   4.710  28.190   7.405
  823POPC   NC312995  22.935  44.953   9.476
  823POPC   PO412996  22.605  44.408   9.626
  823POPC   GL112997  22.710  44.539   9.197
  823POPC   GL212998  23.059  44.423   9.269
  823POPC   C1A12999  22.736  44.843   8.790
  823POPC   D2A13000  23.014  44.949   8.414
  823POPC   C3A13001  22.867  44.767   8.031
  823POPC   C4A13002  22.536  44.769   7.748
  823POPC   C1B13003  23.050  44.405   8.834
  823POPC   C2B13004  22.919  44.421   8.426
  823POPC   C3B13005  23.177  44.363   8.093
  823POPC   C4B13006  23.216  44.256   7.695
  824POPC   NC313007   7.946  26.316   9.511
  824POPC   PO413008   8.548  26.079   9.704
  824POPC   GL113009   8.391  26.187   9.260
  824POPC   GL213010   8.362  25.914   9.110
  824POPC   C1A13011   8.126  26.298   8.883
  824POPC   D2A13012   7.997  26.249   8.477
  824POPC   C3A13013   8.335  26.284   8.203
  824POPC   C4A13014   8.248  26.029   7.858
  824POPC   C1B13015   8.316  25.768   8.732
  824POPC   C2B13016   8.252  25.803   8.331
  824POPC   C3B13017   7.948  25.653   8.057
  824POPC   C4B13018   8.106  25.562   7.649
  825POPC   NC313019  25.853  20.475   9.855
  825POPC   PO413020  25.281  20.529   9.459
  825POPC   GL113021  25.185  20.651   9.077
  825POPC   GL213022  25.515  20.545   8.990
  825POPC   C1A13023  25.265  20.806   8.679
  825POPC   D2A13024  25.538  20.619   8.433
  825POPC   C3A13025  25.358  20.604   8.076
  825POPC   C4A13026  25.268  20.796   7.716
  825POPC   C1B13027  25.672  20.198   8.774
  825POPC   C2B13028  25.532  20.049   8.410
  825POPC   C3B13029  25.619  20.112   8.002
  825POPC   C4B13030  25.246  20.217   7.769
  826POPC   NC313031  44.752  25.126   9.581
  826POPC   PO413032  44.311  24.676   9.395
  826POPC   GL113033  44.376  25.020   9.112
  826POPC   GL213034  44.685  25.244   9.089
  826POPC   C1A13035  44.380  24.949   8.687
  826POPC   D2A13036  44.642  25.073   8.334
  826POPC   C3A13037  44.427  25.059   7.927
  826POPC   C4A13038  44.500  25.374   7.572
  826POPC   C1B13039  44.844  25.410   8.704
  826POPC   C2B13040  44.872  25.558   8.287
  826POPC   C3B13041  44.879  25.301   7.896
  826POPC   C4B13042   0.137  25.007   7.616
  827POPC   NC313043   2.417  37.834   9.332
  827POPC   PO413044   3.055  37.857   9.462
  827POPC   GL113045   2.847  37.851   9.074
  827POPC   GL213046   2.719  37.493   9.106
  827POPC   C1A13047   2.599  37.948   8.716
  827POPC   D2A13048   2.322  37.811   8.394
  827POPC   C3A13049   2.511  37.966   8.015
  827POPC   C4A13050   2.886  37.978   7.845
  827POPC   C1B13051   2.850  37.503   8.693
  827POPC   C2B13052   2.725  37.533   8.275
  827POPC   C3B13053   2.707  37.488   7.857
  827POPC   C4B13054   2.887  37.401   7.448
  828POPC   NC313055  18.280  37.199   9.334
  828POPC   PO413056  18.683  36.695   9.643
  828POPC   GL113057  18.445  36.565   9.145
  828POPC   GL213058  18.156  36.742   9.087
  828POPC   C1A13059  18.488  36.490   8.735
  828POPC   D2A13060  18.649  36.728   8.395
  828POPC   C3A13061  18.424  36.623   8.059
  828POPC   C4A13062  18.508  36.591   7.620
  828POPC   C1B13063  18.281  36.961   8.675
  828POPC   C2B13064  18.195  37.054   8.237
  828POPC   C3B13065  18.254  37.003   7.778
  828POPC   C4B13066  18.287  37.013   7.325
  829POPC   NC313067   8.413  30.545   9.504
  829POPC   PO413068   7.820  30.915   9.540
  829POPC   GL113069   8.027  30.721   9.220
  829POPC   GL213070   8.342  30.887   9.144
  829POPC   C1A13071   8.036  30.582   8.814
  829POPC   D2A13072   8.103  30.717   8.407
  829POPC   C3A13073   8.300  30.469   8.091
  829POPC   C4A13074   8.357  30.305   7.684
  829POPC   C1B13075   8.535  30.555   8.860
  829POPC   C2B13076   8.649  30.616   8.452
  829POPC   C3B13077   8.624  30.854   8.088
  829POPC   C4B13078   8.648  30.752   7.660
  830POPC   NC313079   4.377  31.194   9.689
  830POPC   PO413080   4.517  31.850   9.485
  830POPC   GL113081   4.300  31.540   9.173
  830POPC   GL213082   4.418  31.284   8.881
  830POPC   C1A13083   4.061  31.607   8.793
  830POPC   D2A13084   4.071  31.362   8.433
  830POPC   C3A13085   4.110  31.647   8.104
  830POPC   C4A13086   4.105  31.461   7.737
  830POPC   C1B13087   4.807  31.214   8.679
  830POPC   C2B13088   4.722  31.022   8.325
  830POPC   C3B13089   4.409  31.119   8.029
  830POPC   C4B13090   4.772  31.022   7.786
  831POPC   NC313091  25.536  18.973   9.387
  831POPC   PO413092  26.221  19.297   9.482
  831POPC   GL113093  26.299  19.132   9.086
  831POPC   GL213094  26.013  18.925   9.144
  831POPC   C1A13095  26.271  19.123   8.665
  831POPC   D2A13096  26.012  19.182   8.354
  831POPC   C3A13097  26.229  19.129   7.991
  831POPC   C4A13098  25.997  19.205   7.658
  831POPC   C1B13099  25.723  19.088   8.783
  831POPC   C2B13100  25.588  18.864   8.398
  831POPC   C3B13101  25.792  18.836   8.020
  831POPC   C4B13102  25.739  18.768   7.617
  832POPC   NC313103  20.790   3.316   9.469
  832POPC   PO413104  21.129   3.837   9.325
  832POPC   GL113105  20.807   3.749   9.020
  832POPC   GL213106  20.651   3.424   9.011
  832POPC   C1A13107  20.433   3.786   8.746
  832POPC   D2A13108  20.392   3.562   8.356
  832POPC   C3A13109  20.565   3.708   7.975
  832POPC   C4A13110  20.433   3.637   7.575
  832POPC   C1B13111  20.641   3.205   8.653
  832POPC   C2B13112  20.805   3.272   8.277
  832POPC   C3B13113  20.671   3.206   7.894
  832POPC   C4B13114  20.990   3.241   7.647
  833POPC   NC313115  33.381   7.461   9.538
  833POPC   PO413116  34.077   7.656   9.413
  833POPC   GL113117  33.925   7.472   9.052
  833POPC   GL213118  33.578   7.572   9.076
  833POPC   C1A13119  34.083   7.191   8.734
  833POPC   D2A13120  34.180   7.296   8.307
  833POPC   C3A13121  34.096   7.150   7.883
  833POPC   C4A13122  34.163   7.385   7.471
  833POPC   C1B13123  33.525   7.190   8.828
  833POPC   C2B13124  33.686   7.158   8.426
  833POPC   C3B13125  33.681   7.388   8.072
  833POPC   C4B13126  33.402   7.275   7.803
  834POPC   NC313127  10.198  23.972   9.403
  834POPC   PO413128  10.434  23.357   9.582
  834POPC   GL113129  10.517  23.550   9.167
  834POPC   GL213130  10.510  23.870   9.014
  834POPC   C1A13131  10.789  23.549   8.763
  834POPC   D2A13132  10.665  23.825   8.465
  834POPC   C3A13133  10.655  23.643   8.079
  834POPC   C4A13134  10.561  23.602   7.678
  834POPC   C1B13135  10.203  24.033   8.761
  834POPC   C2B13136  10.236  24.100   8.376
  834POPC   C3B13137  10.487  24.140   8.071
  834POPC   C4B13138  10.279  24.031   7.753
  835POPC   NC313139  33.349  15.818   9.556
  835POPC   PO413140  33.016  16.435   9.466
  835POPC   GL113141  33.109  16.085   9.168
  835POPC   GL213142  33.453  15.960   9.089
  835POPC   C1A13143  33.085  16.075   8.734
  835POPC   D2A13144  32.856  16.075   8.339
  835POPC   C3A13145  33.197  16.073   8.027
  835POPC   C4A13146  33.254  16.156   7.621
  835POPC   C1B13147  33.414  15.673   8.765
  835POPC   C2B13148  33.163  15.664   8.426
  835POPC   C3B13149  33.371  15.606   8.075
  835POPC   C4B13150  33.285  15.667   7.684
  836POPC   NC313151  28.743  18.107   9.396
  836POPC   PO413152  28.142  17.747   9.442
  836POPC   GL113153  28.313  18.031   9.109
  836POPC   GL213154  27.993  18.022   8.991
  836POPC   C1A13155  28.404  18.329   8.718
  836POPC   D2A13156  28.303  18.482   8.252
  836POPC   C3A13157  28.472  18.505   7.791
  836POPC   C4A13158  28.260  18.359   7.394
  836POPC   C1B13159  28.110  17.910   8.606
  836POPC   C2B13160  28.051  17.998   8.221
  836POPC   C3B13161  28.388  18.032   7.969
  836POPC   C4B13162  28.610  18.031   7.589
  837POPC   NC313163   6.334   7.242   9.630
  837POPC   PO413164   6.967   7.285   9.506
  837POPC   GL113165   6.841   7.097   9.113
  837POPC   GL213166   6.447   7.132   9.113
  837POPC   C1A13167   6.781   7.242   8.686
  837POPC   D2A13168   6.631   7.575   8.426
  837POPC   C3A13169   6.857   7.552   8.051
  837POPC   C4A13170   6.874   7.858   7.786
  837POPC   C1B13171   6.261   7.241   8.700
  837POPC   C2B13172   6.442   7.135   8.283
  837POPC   C3B13173   6.397   7.399   7.893
  837POPC   C4B13174   6.239   7.291   7.459
  838POPC   NC313175   4.541  19.079   9.828
  838POPC   PO413176   3.912  18.873   9.592
  838POPC   GL113177   4.077  19.058   9.216
  838POPC   GL213178   4.027  18.713   9.098
  838POPC   C1A13179   4.220  19.294   8.829
  838POPC   D2A13180   4.059  19.221   8.387
  838POPC   C3A13181   4.380  19.292   8.070
  838POPC   C4A13182   4.506  19.651   7.836
  838POPC   C1B13183   4.166  18.780   8.697
  838POPC   C2B13184   4.078  18.663   8.280
  838POPC   C3B13185   4.142  18.863   7.892
  838POPC   C4B13186   4.542  18.935   7.656
  839POPC   NC313187  19.312  13.252   9.530
  839POPC   PO413188  19.130  13.810   9.522
  839POPC   GL113189  19.064  13.658   9.132
  839POPC   GL213190  19.435  13.568   9.141
  839POPC   C1A13191  18.764  13.727   8.771
  839POPC   D2A13192  18.604  13.611   8.335
  839POPC   C3A13193  18.772  13.722   7.957
  839POPC   C4A13194  19.019  13.800   7.591
  839POPC   C1B13195  19.372  13.686   8.736
  839POPC   C2B13196  19.134  13.695   8.397
  839POPC   C3B13197  19.269  13.655   8.011
  839POPC   C4B13198  19.522  13.642   7.670
  840POPC   NC313199   1.966   5.405   9.430
  840POPC   PO413200   2.519   5.066   9.542
  840POPC   GL113201   2.136   4.961   9.270
  840POPC   GL213202   2.338   4.825   9.103
  840POPC   C1A13203   1.837   4.877   8.889
  840POPC   D2A13204   1.637   5.158   8.572
  840POPC   C3A13205   1.564   5.085   8.124
  840POPC   C4A13206   1.721   5.198   7.706
  840POPC   C1B13207   2.250   5.121   8.743
  840POPC   C2B13208   2.060   5.008   8.318
  840POPC   C3B13209   1.979   4.829   7.895
  840POPC   C4B13210   2.214   4.812   7.477
  841POPC   NC313211  36.141   3.214   9.580
  841POPC   PO413212  35.788   2.663   9.631
  841POPC   GL113213  35.911   2.854   9.235
  841POPC   GL213214  36.237   2.933   9.188
  841POPC   C1A13215  35.963   2.959   8.779
  841POPC   D2A13216  36.055   2.754   8.404
  841POPC   C3A13217  35.999   2.917   7.997
  841POPC   C4A13218  36.147   2.538   7.825
  841POPC   C1B13219  36.475   3.035   8.818
  841POPC   C2B13220  36.567   2.814   8.462
  841POPC   C3B13221  36.513   2.899   8.055
  841POPC   C4B13222  36.433   2.909   7.638
  842POPC   NC313223  16.588  36.415   9.446
  842POPC   PO413224  17.142  35.936   9.423
  842POPC   GL113225  16.893  36.078   9.119
  842POPC   GL213226  16.567  35.961   9.198
  842POPC   C1A13227  16.942  36.337   8.767
  842POPC   D2A13228  16.685  36.356   8.378
  842POPC   C3A13229  16.919  36.122   8.094
  842POPC   C4A13230  17.070  36.373   7.794
  842POPC   C1B13231  16.488  36.114   8.795
  842POPC   C2B13232  16.494  35.888   8.403
  842POPC   C3B13233  16.444  35.957   7.979
  842POPC   C4B13234  16.244  36.029   7.563
  843POPC   NC313235  12.833  30.244   9.434
  843POPC   PO413236  13.099  29.584   9.503
  843POPC   GL113237  13.129  29.893   9.167
  843POPC   GL213238  12.795  29.762   9.056
  843POPC   C1A13239  12.985  30.166   8.804
  843POPC   D2A13240  12.652  30.009   8.565
  843POPC   C3A13241  12.721  30.053   8.127
  843POPC   C4A13242  12.596  29.772   7.818
  843POPC   C1B13243  13.147  29.679   8.714
  843POPC   C2B13244  13.182  29.853   8.298
  843POPC   C3B13245  13.119  29.796   7.850
  843POPC   C4B13246  13.233  29.758   7.388
  844POPC   NC313247   6.391  21.986   9.861
  844POPC   PO413248   5.859  22.232   9.553
  844POPC   GL113249   6.127  22.269   9.195
  844POPC   GL213250   5.854  22.217   9.005
  844POPC   C1A13251   6.275  22.150   8.760
  844POPC   D2A13252   5.976  22.164   8.436
  844POPC   C3A13253   6.148  22.215   8.055
  844POPC   C4A13254   6.135  22.318   7.624
  844POPC   C1B13255   5.848  21.826   8.796
  844POPC   C2B13256   5.646  21.773   8.389
  844POPC   C3B13257   5.749  21.912   7.955
  844POPC   C4B13258   5.896  21.847   7.512
  845POPC   NC313259  28.032   9.947   9.524
  845POPC   PO413260  28.681   9.750   9.561
  845POPC   GL113261  28.460   9.728   9.202
  845POPC   GL213262  28.319  10.068   9.116
  845POPC   C1A13263  28.672   9.836   8.843
  845POPC   D2A13264  28.492  10.017   8.543
  845POPC   C3A13265  28.321   9.708   8.291
  845POPC   C4A13266  28.508   9.618   7.914
  845POPC   C1B13267  28.145   9.747   8.785
  845POPC   C2B13268  28.016   9.370   8.538
  845POPC   C3B13269  28.064   9.323   8.079
  845POPC   C4B13270  28.016   9.683   7.800
  846POPC   NC313271  30.143  38.714   9.610
  846POPC   PO413272  29.567  38.344   9.485
  846POPC   GL113273  29.737  38.518   9.106
  846POPC   GL213274  30.073  38.557   9.138
  846POPC   C1A13275  29.762  38.422   8.702
  846POPC   D2A13276  29.667  38.329   8.266
  846POPC   C3A13277  30.023  38.134   8.085
  846POPC   C4A13278  30.091  38.085   7.655
  846POPC   C1B13279  30.227  38.660   8.762
  846POPC   C2B13280  30.065  38.636   8.360
  846POPC   C3B13281  29.935  38.703   7.981
  846POPC   C4B13282  30.260  38.556   7.823
  847POPC   NC313283  33.637   9.673   9.889
  847POPC   PO413284  34.140  10.000   9.753
  847POPC   GL113285  34.076   9.719   9.327
  847POPC   GL213286  33.711   9.720   9.178
  847POPC   C1A13287  34.093   9.636   8.850
  847POPC   D2A13288  34.220   9.881   8.467
  847POPC   C3A13289  33.988   9.768   8.068
  847POPC   C4A13290  33.707   9.460   7.873
  847POPC   C1B13291  33.670   9.961   8.788
  847POPC   C2B13292  33.589   9.750   8.408
  847POPC   C3B13293  33.375   9.802   8.045
  847POPC   C4B13294  33.322  10.087   7.746
  848POPC   NC313295  38.905  43.202   9.743
  848POPC   PO413296  38.399  42.940   9.392
  848POPC   GL113297  38.567  42.934   9.039
  848POPC   GL213298  38.890  42.805   9.196
  848POPC   C1A13299  38.507  43.104   8.650
  848POPC   D2A13300  38.598  43.377   8.329
  848POPC   C3A13301  38.484  43.160   7.988
  848POPC   C4A13302  38.149  42.848   8.019
  848POPC   C1B13303  38.754  42.534   8.850
  848POPC   C2B13304  38.560  42.609   8.461
  848POPC   C3B13305  38.634  42.677   8.054
  848POPC   C4B13306  38.494  42.747   7.657
  849POPC   NC313307  29.579  12.172   9.517
  849POPC   PO413308  30.161  11.801   9.566
  849POPC   GL113309  30.012  11.943   9.175
  849POPC   GL213310  29.939  12.295   9.144
  849POPC   C1A13311  30.259  12.023   8.801
  849POPC   D2A13312  30.332  12.180   8.381
  849POPC   C3A13313  30.251  11.964   8.001
  849POPC   C4A13314  30.084  12.036   7.580
  849POPC   C1B13315  29.817  12.243   8.711
  849POPC   C2B13316  29.677  12.384   8.311
  849POPC   C3B13317  29.762  12.283   7.904
  849POPC   C4B13318  29.907  12.539   7.584
  850POPC   NC313319  15.433  39.643   9.489
  850POPC   PO413320  16.071  39.315   9.605
  850POPC   GL113321  15.792  39.330   9.244
  850POPC   GL213322  15.821  39.696   9.174
  850POPC   C1A13323  15.723  39.235   8.790
  850POPC   D2A13324  15.750  38.960   8.400
  850POPC   C3A13325  16.061  39.052   8.100
  850POPC   C4A13326  16.104  39.001   7.682
  850POPC   C1B13327  16.009  39.658   8.801
  850POPC   C2B13328  16.075  39.443   8.418
  850POPC   C3B13329  15.996  39.585   7.998
  850POPC   C4B13330  16.077  39.502   7.562
  851POPC   NC313331   1.121  38.730   9.377
  851POPC   PO413332   1.246  38.058   9.401
  851POPC   GL113333   1.498  38.345   9.162
  851POPC   GL213334   1.670  38.063   9.050
  851POPC   C1A13335   1.558  38.538   8.725
  851POPC   D2A13336   1.426  38.902   8.405
  851POPC   C3A13337   1.304  38.727   7.973
  851POPC   C4A13338   0.950  38.538   7.707
  851POPC   C1B13339   1.360  38.032   8.747
  851POPC   C2B13340   1.395  38.101   8.341
  851POPC   C3B13341   1.235  38.204   7.950
  851POPC   C4B13342   1.225  38.097   7.522
  852POPC   NC313343  22.620   2.993   9.307
  852POPC   PO413344  22.968   2.491   9.535
  852POPC   GL113345  22.900   2.597   9.133
  852POPC   GL213346  23.165   2.837   9.135
  852POPC   C1A13347  22.800   2.717   8.706
  852POPC   D2A13348  23.014   2.570   8.321
  852POPC   C3A13349  22.869   2.777   7.931
  852POPC   C4A13350  22.519   2.733   7.705
  852POPC   C1B13351  23.384   3.037   8.789
  852POPC   C2B13352  23.314   3.055   8.346
  852POPC   C3B13353  23.361   2.802   8.004
  852POPC   C4B13354  23.281   2.840   7.566
  853POPC   NC313355  37.894   6.534   9.288
  853POPC   PO413356  37.338   6.991   9.402
  853POPC   GL113357  37.498   6.764   9.051
  853POPC   GL213358  37.488   6.399   9.035
  853POPC   C1A13359  37.765   6.758   8.678
  853POPC   D2A13360  37.902   6.796   8.263
  853POPC   C3A13361  37.612   6.900   7.957
  853POPC   C4A13362  37.551   6.669   7.602
  853POPC   C1B13363  37.768   6.209   8.740
  853POPC   C2B13364  37.654   6.230   8.361
  853POPC   C3B13365  37.735   6.375   7.990
  853POPC   C4B13366  37.863   6.229   7.611
  854POPC   NC313367  24.857  38.589   9.380
  854POPC   PO413368  24.541  38.036   9.648
  854POPC   GL113369  24.348  38.174   9.246
  854POPC   GL213370  24.460  38.487   9.082
  854POPC   C1A13371  24.177  38.147   8.855
  854POPC   D2A13372  24.320  38.476   8.555
  854POPC   C3A13373  24.310  38.477   8.100
  854POPC   C4A13374  24.178  38.781   7.778
  854POPC   C1B13375  24.742  38.672   8.759
  854POPC   C2B13376  24.681  38.825   8.358
  854POPC   C3B13377  24.805  38.672   7.990
  854POPC   C4B13378  24.683  38.748   7.615
  855POPC   NC313379  40.625  44.314   9.360
  855POPC   PO413380  41.052  44.529   9.818
  855POPC   GL113381  41.074  44.681   9.314
  855POPC   GL213382  41.062  44.401   9.099
  855POPC   C1A13383  41.153  44.824   8.790
  855POPC   D2A13384  41.279  44.690   8.327
  855POPC   C3A13385  41.020  44.804   7.953
  855POPC   C4A13386  40.624   0.047   7.922
  855POPC   C1B13387  40.893  44.404   8.675
  855POPC   C2B13388  40.711  44.707   8.369
  855POPC   C3B13389  40.534  44.557   7.988
  855POPC   C4B13390  40.821  44.312   7.765
  856POPC   NC313391  14.726   9.276   9.451
  856POPC   PO413392  14.086   9.029   9.471
  856POPC   GL113393  14.270   9.127   9.111
  856POPC   GL213394  14.581   8.944   9.078
  856POPC   C1A13395  14.067   9.136   8.725
  856POPC   D2A13396  13.954   9.084   8.325
  856POPC   C3A13397  14.276   9.152   7.973
  856POPC   C4A13398  14.152   9.161   7.504
  856POPC   C1B13399  14.557   9.023   8.627
  856POPC   C2B13400  14.612   8.781   8.241
  856POPC   C3B13401  14.718   8.833   7.824
  856POPC   C4B13402  14.648   9.197   7.625
  857POPC   NC313403  41.878  19.317   9.496
  857POPC   PO413404  41.522  18.720   9.368
  857POPC   GL113405  41.721  18.996   9.130
  857POPC   GL213406  41.530  19.322   9.129
  857POPC   C1A13407  41.823  19.115   8.755
  857POPC   D2A13408  41.867  18.989   8.357
  857POPC   C3A13409  41.600  19.065   8.056
  857POPC   C4A13410  41.804  19.186   7.711
  857POPC   C1B13411  41.424  19.529   8.756
  857POPC   C2B13412  41.304  19.386   8.341
  857POPC   C3B13413  41.349  19.470   7.890
  857POPC   C4B13414  41.481  19.441   7.413
  858POPC   NC313415   7.737   3.970   9.495
  858POPC   PO413416   7.432   3.393   9.507
  858POPC   GL113417   7.447   3.408   9.096
  858POPC   GL213418   7.399   3.785   9.115
  858POPC   C1A13419   7.556   3.539   8.701
  858POPC   D2A13420   7.590   3.783   8.351
  858POPC   C3A13421   7.510   3.549   7.980
  858POPC   C4A13422   7.390   3.412   7.556
  858POPC   C1B13423   7.116   3.770   8.739
  858POPC   C2B13424   7.147   3.519   8.349
  858POPC   C3B13425   7.035   3.698   7.928
  858POPC   C4B13426   7.019   3.774   7.474
  859POPC   NC313427  37.533   1.757   9.550
  859POPC   PO413428  38.094   2.043   9.392
  859POPC   GL113429  37.736   1.918   9.114
  859POPC   GL213430  37.537   2.190   9.077
  859POPC   C1A13431  37.433   1.832   8.758
  859POPC   D2A13432  37.675   1.926   8.407
  859POPC   C3A13433  37.507   1.843   8.026
  859POPC   C4A13434  37.587   1.688   7.589
  859POPC   C1B13435  37.757   2.385   8.750
  859POPC   C2B13436  37.579   2.419   8.342
  859POPC   C3B13437  37.743   2.282   7.953
  859POPC   C4B13438  37.988   2.256   7.591
  860POPC   NC313439  44.067  22.763   9.623
  860POPC   PO413440  43.589  23.225   9.739
  860POPC   GL113441  43.743  23.191   9.295
  860POPC   GL213442  43.826  22.825   9.165
  860POPC   C1A13443  43.745  23.185   8.816
  860POPC   D2A13444  43.858  22.883   8.448
  860POPC   C3A13445  43.822  23.089   8.048
  860POPC   C4A13446  43.444  23.141   7.809
  860POPC   C1B13447  44.036  22.562   8.826
  860POPC   C2B13448  44.059  22.394   8.414
  860POPC   C3B13449  44.031  22.597   8.006
  860POPC   C4B13450  43.789  22.767   7.637
  861POPC   NC313451   5.296  15.542   9.479
  861POPC   PO413452   4.886  16.092   9.468
  861POPC   GL113453   5.086  15.868   9.142
  861POPC   GL213454   5.430  15.866   8.974
  861POPC   C1A13455   5.010  15.705   8.767
  861POPC   D2A13456   5.192  15.614   8.386
  861POPC   C3A13457   5.133  15.950   8.144
  861POPC   C4A13458   5.068  15.986   7.725
  861POPC   C1B13459   5.495  16.105   8.574
  861POPC   C2B13460   5.295  16.412   8.267
  861POPC   C3B13461   5.352  16.419   7.799
  861POPC   C4B13462   5.253  16.272   7.349
  862POPC   NC313463  13.588  44.114   9.407
  862POPC   PO413464  13.884  44.724   9.496
  862POPC   GL113465  13.641  44.634   9.152
  862POPC   GL213466  13.315  44.498   9.182
  862POPC   C1A13467  13.735  44.643   8.741
  862POPC   D2A13468  13.534  44.683   8.374
  862POPC   C3A13469  13.829  44.584   8.076
  862POPC   C4A13470  13.780  44.857   7.765
  862POPC   C1B13471  13.217  44.441   8.748
  862POPC   C2B13472  13.264  44.266   8.321
  862POPC   C3B13473  13.375  44.447   7.862
  862POPC   C4B13474  13.401  44.431   7.355
  863POPC   NC313475  34.603  27.978   9.424
  863POPC   PO413476  34.767  28.539   9.489
  863POPC   GL113477  34.671  28.342   9.092
  863POPC   GL213478  34.325  28.299   9.133
  863POPC   C1A13479  34.621  28.107   8.701
  863POPC   D2A13480  34.535  28.370   8.334
  863POPC   C3A13481  34.701  28.316   7.880
  863POPC   C4A13482  35.011  28.560   7.625
  863POPC   C1B13483  34.148  28.256   8.756
  863POPC   C2B13484  34.101  28.096   8.400
  863POPC   C3B13485  34.212  28.220   7.980
  863POPC   C4B13486  34.181  28.353   7.551
  864POPC   NC313487  22.766   8.690   9.430
  864POPC   PO413488  23.031   9.304   9.554
  864POPC   GL113489  23.024   9.049   9.194
  864POPC   GL213490  22.669   9.053   9.100
  864POPC   C1A13491  23.006   8.786   8.824
  864POPC   D2A13492  23.169   8.770   8.414
  864POPC   C3A13493  22.851   8.779   8.092
  864POPC   C4A13494  23.107   8.799   7.726
  864POPC   C1B13495  22.619   9.064   8.644
  864POPC   C2B13496  22.917   9.256   8.370
  864POPC   C3B13497  22.972   9.257   7.971
  864POPC   C4B13498  22.711   9.093   7.651
  865POPC   NC313499   7.407  28.935   9.520
  865POPC   PO413500   7.532  29.584   9.505
  865POPC   GL113501   7.500  29.294   9.172
  865POPC   GL213502   7.128  29.243   9.192
  865POPC   C1A13503   7.639  29.236   8.736
  865POPC   D2A13504   7.510  29.047   8.324
  865POPC   C3A13505   7.609  29.250   7.899
  865POPC   C4A13506   7.562  29.417   7.451
  865POPC   C1B13507   7.169  29.022   8.798
  865POPC   C2B13508   6.983  28.995   8.375
  865POPC   C3B13509   7.101  29.212   8.008
  865POPC   C4B13510   7.029  29.220   7.600
  866POPC   NC313511   7.868  35.185   9.409
  866POPC   PO413512   8.484  35.025   9.324
  866POPC   GL113513   8.265  35.239   9.001
  866POPC   GL213514   7.900  35.145   8.926
  866POPC   C1A13515   8.235  35.166   8.559
  866POPC   D2A13516   8.129  35.082   8.143
  866POPC   C3A13517   8.351  35.360   7.880
  866POPC   C4A13518   8.495  35.184   7.504
  866POPC   C1B13519   7.841  35.512   8.718
  866POPC   C2B13520   7.955  35.527   8.332
  866POPC   C3B13521   7.838  35.479   7.947
  866POPC   C4B13522   7.868  35.652   7.599
  867POPC   NC313523  27.206   6.388   9.440
  867POPC   PO413524  26.857   5.737   9.514
  867POPC   GL113525  26.818   5.836   9.103
  867POPC   GL213526  27.050   6.033   9.068
  867POPC   C1A13527  26.700   5.905   8.665
  867POPC   D2A13528  26.545   6.184   8.319
  867POPC   C3A13529  26.751   6.127   7.893
  867POPC   C4A13530  26.665   5.975   7.457
  867POPC   C1B13531  27.241   5.714   8.811
  867POPC   C2B13532  27.162   5.768   8.414
  867POPC   C3B13533  27.254   5.712   8.035
  867POPC   C4B13534  27.113   5.800   7.635
  868POPC   NC313535  15.681  23.993   9.721
  868POPC   PO413536  16.050  24.551   9.887
  868POPC   GL113537  16.075  24.434   9.364
  868POPC   GL213538  16.169  24.730   9.092
  868POPC   C1A13539  15.855  24.366   8.944
  868POPC   D2A13540  15.754  24.602   8.570
  868POPC   C3A13541  15.858  24.319   8.252
  868POPC   C4A13542  16.043  24.243   7.863
  868POPC   C1B13543  16.153  24.916   8.673
  868POPC   C2B13544  16.137  24.769   8.239
  868POPC   C3B13545  16.373  24.655   7.869
  868POPC   C4B13546  16.522  24.890   7.522
  869POPC   NC313547  25.579  22.830   9.386
  869POPC   PO413548  26.206  22.591   9.553
  869POPC   GL113549  26.184  22.701   9.107
  869POPC   GL213550  26.142  23.059   9.092
  869POPC   C1A13551  26.064  22.794   8.655
  869POPC   D2A13552  25.893  23.118   8.348
  869POPC   C3A13553  25.925  22.951   7.930
  869POPC   C4A13554  26.088  22.508   7.819
  869POPC   C1B13555  26.229  23.291   8.703
  869POPC   C2B13556  26.231  23.516   8.318
  869POPC   C3B13557  26.335  23.355   7.919
  869POPC   C4B13558  26.375  23.228   7.504
  870POPC   NC313559  15.390   8.961   9.596
  870POPC   PO413560  14.775   8.798   9.527
  870POPC   GL113561  15.080   8.840   9.219
  870POPC   GL213562  15.335   8.560   9.271
  870POPC   C1A13563  15.057   9.084   8.869
  870POPC   D2A13564  15.054   8.948   8.462
  870POPC   C3A13565  14.938   9.198   8.122
  870POPC   C4A13566  15.142   9.172   7.735
  870POPC   C1B13567  15.303   8.601   8.814
  870POPC   C2B13568  15.451   8.638   8.372
  870POPC   C3B13569  15.216   8.745   8.008
  870POPC   C4B13570  15.276   8.626   7.592
  871POPC   NC313571  38.155  24.135   9.368
  871POPC   PO413572  37.466  24.239   9.590
  871POPC   GL113573  37.630  24.348   9.180
  871POPC   GL213574  37.322  24.244   9.067
  871POPC   C1A13575  37.712  24.565   8.746
  871POPC   D2A13576  37.749  24.850   8.398
  871POPC   C3A13577  37.839  24.659   8.020
  871POPC   C4A13578  37.727  24.513   7.590
  871POPC   C1B13579  37.287  24.310   8.657
  871POPC   C2B13580  37.433  24.475   8.290
  871POPC   C3B13581  37.330  24.665   7.906
  871POPC   C4B13582  37.242  24.325   7.677
  872POPC   NC313583  41.608  24.983   9.400
  872POPC   PO413584  41.801  25.661   9.414
  872POPC   GL113585  41.605  25.672   9.033
  872POPC   GL213586  41.415  25.349   9.037
  872POPC   C1A13587  41.552  25.628   8.612
  872POPC   D2A13588  41.637  25.208   8.540
  872POPC   C3A13589  41.843  25.174   8.163
  872POPC   C4A13590  41.611  25.279   7.799
  872POPC   C1B13591  41.171  25.042   8.783
  872POPC   C2B13592  41.269  24.866   8.400
  872POPC   C3B13593  41.189  25.060   8.026
  872POPC   C4B13594  41.263  24.889   7.649
  873POPC   NC313595  19.725  28.931   9.462
  873POPC   PO413596  19.473  29.530   9.450
  873POPC   GL113597  19.758  29.311   9.128
  873POPC   GL213598  20.016  29.498   8.971
  873POPC   C1A13599  19.904  29.063   8.743
  873POPC   D2A13600  19.744  28.766   8.470
  873POPC   C3A13601  19.736  28.881   8.041
  873POPC   C4A13602  19.493  28.724   7.700
  873POPC   C1B13603  19.647  29.480   8.666
  873POPC   C2B13604  19.694  29.310   8.287
  873POPC   C3B13605  19.825  29.484   7.903
  873POPC   C4B13606  20.042  29.422   7.536
  874POPC   NC313607  11.134  26.115   9.601
  874POPC   PO413608  11.699  25.992   9.245
  874POPC   GL113609  11.360  25.904   8.975
  874POPC   GL213610  11.086  25.902   9.143
  874POPC   C1A13611  11.139  26.203   8.720
  874POPC   D2A13612  11.402  26.519   8.511
  874POPC   C3A13613  11.523  26.363   8.091
  874POPC   C4A13614  11.263  26.206   7.732
  874POPC   C1B13615  10.898  25.692   8.779
  874POPC   C2B13616  10.829  25.550   8.342
  874POPC   C3B13617  11.034  25.575   7.934
  874POPC   C4B13618  11.454  25.714   7.821
  875POPC   NC313619  27.685   2.899   9.893
  875POPC   PO413620  27.489   2.540   9.355
  875POPC   GL113621  27.502   2.668   8.967
  875POPC   GL213622  27.483   3.038   8.964
  875POPC   C1A13623  27.739   2.706   8.647
  875POPC   D2A13624  27.598   2.810   8.269
  875POPC   C3A13625  27.395   2.555   7.988
  875POPC   C4A13626  27.677   2.549   7.662
  875POPC   C1B13627  27.836   3.194   8.680
  875POPC   C2B13628  27.837   3.282   8.266
  875POPC   C3B13629  27.839   3.073   7.910
  875POPC   C4B13630  27.912   3.030   7.505
  876POPC   NC313631  15.250  38.865   9.732
  876POPC   PO413632  15.096  39.465   9.768
  876POPC   GL113633  15.271  39.204   9.273
  876POPC   GL213634  15.031  38.902   9.130
  876POPC   C1A13635  15.194  39.250   8.782
  876POPC   D2A13636  15.429  39.350   8.379
  876POPC   C3A13637  15.225  39.491   7.997
  876POPC   C4A13638  15.059  39.290   7.624
  876POPC   C1B13639  15.267  38.745   8.753
  876POPC   C2B13640  15.356  38.653   8.325
  876POPC   C3B13641  15.303  38.982   8.014
  876POPC   C4B13642  15.640  39.257   7.800
  877POPC   NC313643  35.731   9.731   9.512
  877POPC   PO413644  35.044   9.697   9.453
  877POPC   GL113645  35.071   9.956   9.097
  877POPC   GL213646  35.413  10.064   9.211
  877POPC   C1A13647  35.074   9.779   8.661
  877POPC   D2A13648  35.142   9.413   8.430
  877POPC   C3A13649  35.324   9.467   8.035
  877POPC   C4A13650  35.092   9.718   7.756
  877POPC   C1B13651  35.537   9.782   8.876
  877POPC   C2B13652  35.606   9.651   8.447
  877POPC   C3B13653  35.810   9.726   8.047
  877POPC   C4B13654  35.572   9.837   7.714
  878POPC   NC313655   8.566  22.340   9.398
  878POPC   PO413656   8.159  21.799   9.246
  878POPC   GL113657   8.148  22.224   9.096
  878POPC   GL213658   7.822  22.322   8.961
  878POPC   C1A13659   8.283  22.420   8.702
  878POPC   D2A13660   8.511  22.573   8.343
  878POPC   C3A13661   8.433  22.344   7.987
  878POPC   C4A13662   8.253  22.343   7.627
  878POPC   C1B13663   8.000  21.988   8.656
  878POPC   C2B13664   8.209  21.974   8.275
  878POPC   C3B13665   8.262  21.855   7.845
  878POPC   C4B13666   8.178  21.889   7.411
  879POPC   NC313667  17.344  13.015   9.433
  879POPC   PO413668  18.062  12.870   9.472
  879POPC   GL113669  17.723  12.797   9.144
  879POPC   GL213670  17.388  12.629   9.041
  879POPC   C1A13671  17.732  12.790   8.708
  879POPC   D2A13672  17.506  12.576   8.415
  879POPC   C3A13673  17.694  12.790   8.075
  879POPC   C4A13674  17.726  12.743   7.660
  879POPC   C1B13675  17.239  12.929   8.710
  879POPC   C2B13676  17.181  12.928   8.232
  879POPC   C3B13677  17.258  12.659   7.848
  879POPC   C4B13678  17.325  12.752   7.361
  880POPC   NC313679  40.326  40.573   9.488
  880POPC   PO413680  41.074  40.469   9.459
  880POPC   GL113681  40.903  40.763   9.152
  880POPC   GL213682  40.564  40.830   9.107
  880POPC   C1A13683  41.038  40.891   8.771
  880POPC   D2A13684  40.973  40.678   8.399
  880POPC   C3A13685  41.065  40.861   8.038
  880POPC   C4A13686  40.908  40.744   7.656
  880POPC   C1B13687  40.586  40.612   8.724
  880POPC   C2B13688  40.458  40.599   8.304
  880POPC   C3B13689  40.514  40.855   7.950
  880POPC   C4B13690  40.504  40.990   7.497
  881POPC   NC313691  44.056  32.138   9.484
  881POPC   PO413692  44.438  32.635   9.796
  881POPC   GL113693  44.274  32.582   9.279
  881POPC   GL213694  44.040  32.338   9.042
  881POPC   C1A13695  44.240  32.712   8.812
  881POPC   D2A13696  43.974  32.474   8.517
  881POPC   C3A13697  44.123  32.505   8.108
  881POPC   C4A13698  44.332  32.284   7.808
  881POPC   C1B13699  43.818  32.045   8.758
  881POPC   C2B13700  43.835  31.789   8.368
  881POPC   C3B13701  43.853  31.958   7.939
  881POPC   C4B13702  43.648  32.358   7.878
  882POPC   NC313703  43.984  15.111   9.477
  882POPC   PO413704  43.642  15.641   9.526
  882POPC   GL113705  43.679  15.347   9.138
  882POPC   GL213706  44.035  15.181   8.977
  882POPC   C1A13707  43.679  15.348   8.681
  882POPC   D2A13708  44.000  15.198   8.382
  882POPC   C3A13709  43.878  15.251   7.973
  882POPC   C4A13710  43.875  14.864   7.777
  882POPC   C1B13711  44.267  15.497   8.691
  882POPC   C2B13712  44.220  15.663   8.258
  882POPC   C3B13713  44.246  15.591   7.809
  882POPC   C4B13714  44.221  15.211   7.588
  883POPC   NC313715   7.098  35.157   9.483
  883POPC   PO413716   7.653  35.489   9.683
  883POPC   GL113717   7.460  35.445   9.249
  883POPC   GL213718   7.413  35.118   9.085
  883POPC   C1A13719   7.325  35.597   8.858
  883POPC   D2A13720   7.434  35.610   8.418
  883POPC   C3A13721   7.223  35.438   8.095
  883POPC   C4A13722   7.383  35.576   7.725
  883POPC   C1B13723   7.465  35.137   8.635
  883POPC   C2B13724   7.604  35.130   8.216
  883POPC   C3B13725   7.527  35.104   7.771
  883POPC   C4B13726   7.140  35.178   7.511
  884POPC   NC313727  33.941  19.860   9.304
  884POPC   PO413728  34.617  19.872   9.460
  884POPC   GL113729  34.528  19.908   9.081
  884POPC   GL213730  34.875  19.840   8.960
  884POPC   C1A13731  34.332  19.851   8.706
  884POPC   D2A13732  34.603  19.784   8.351
  884POPC   C3A13733  34.459  19.908   7.953
  884POPC   C4A13734  34.718  19.749   7.660
  884POPC   C1B13735  34.752  20.146   8.649
  884POPC   C2B13736  34.803  20.303   8.226
  884POPC   C3B13737  34.666  20.344   7.797
  884POPC   C4B13738  34.464  20.304   7.407
  885POPC   NC313739   6.377  19.422   9.586
  885POPC   PO413740   6.841  19.991   9.492
  885POPC   GL113741   6.707  19.964   9.099
  885POPC   GL213742   6.909  19.755   8.933
  885POPC   C1A13743   6.533  20.124   8.738
  885POPC   D2A13744   6.346  19.938   8.417
  885POPC   C3A13745   6.544  19.841   8.034
  885POPC   C4A13746   6.413  20.044   7.662
  885POPC   C1B13747   6.573  19.564   8.662
  885POPC   C2B13748   6.345  19.411   8.250
  885POPC   C3B13749   6.208  19.553   7.804
  885POPC   C4B13750   6.608  19.601   7.527
  886POPC   NC313751   0.211  19.040   9.422
  886POPC   PO413752   0.708  18.596   9.536
  886POPC   GL113753   0.746  18.874   9.169
  886POPC   GL213754   0.652  19.249   9.195
  886POPC   C1A13755   0.633  19.006   8.737
  886POPC   D2A13756   0.361  19.101   8.427
  886POPC   C3A13757   0.430  18.933   8.036
  886POPC   C4A13758   0.156  18.821   7.727
  886POPC   C1B13759   0.786  19.501   8.836
  886POPC   C2B13760   0.882  19.480   8.425
  886POPC   C3B13761   0.605  19.419   8.094
  886POPC   C4B13762   0.716  19.312   7.676
  887POPC   NC313763   0.691   4.108   9.725
  887POPC   PO413764   0.182   4.501   9.567
  887POPC   GL113765   0.510   4.436   9.270
  887POPC   GL213766   0.222   4.266   9.094
  887POPC   C1A13767   0.679   4.312   8.863
  887POPC   D2A13768   0.468   4.258   8.495
  887POPC   C3A13769   0.650   4.441   8.161
  887POPC   C4A13770   0.715   4.307   7.770
  887POPC   C1B13771   0.011   4.491   8.796
  887POPC   C2B13772   0.100   4.636   8.415
  887POPC   C3B13773   0.158   4.502   8.036
  887POPC   C4B13774   0.373   4.664   7.730
  888POPC   NC313775  30.918  15.704   9.476
  888POPC   PO413776  30.339  16.143   9.446
  888POPC   GL113777  30.631  16.009   9.130
  888POPC   GL213778  30.546  15.664   9.063
  888POPC   C1A13779  30.800  16.138   8.711
  888POPC   D2A13780  30.691  15.882   8.368
  888POPC   C3A13781  30.768  16.040   7.962
  888POPC   C4A13782  30.436  15.901   7.762
  888POPC   C1B13783  30.930  15.670   8.826
  888POPC   C2B13784  31.170  15.746   8.472
  888POPC   C3B13785  31.086  15.658   8.079
  888POPC   C4B13786  30.759  15.490   7.810
  889POPC   NC313787  15.068  30.120   9.529
  889POPC   PO413788  14.447  30.289   9.298
  889POPC   GL113789  14.861  30.206   9.078
  889POPC   GL213790  15.272  30.222   9.096
  889POPC   C1A13791  15.000  30.132   8.683
  889POPC   D2A13792  14.871  29.993   8.337
  889POPC   C3A13793  15.146  30.004   8.040
  889POPC   C4A13794  15.196  29.712   7.773
  889POPC   C1B13795  15.318  29.812   8.882
  889POPC   C2B13796  15.358  29.771   8.466
  889POPC   C3B13797  15.520  29.570   8.139
  889POPC   C4B13798  15.716  29.670   7.760
  890POPC   NC313799  23.486  33.360   9.405
  890POPC   PO413800  24.126  33.355   9.636
  890POPC   GL113801  23.921  33.179   9.226
  890POPC   GL213802  23.696  32.901   9.169
  890POPC   C1A13803  23.716  33.281   8.807
  890POPC   D2A13804  23.778  33.126   8.407
  890POPC   C3A13805  23.514  33.191   8.059
  890POPC   C4A13806  23.742  33.207   7.671
  890POPC   C1B13807  23.516  32.796   8.760
  890POPC   C2B13808  23.691  32.631   8.385
  890POPC   C3B13809  23.815  32.773   7.991
  890POPC   C4B13810  23.464  32.769   7.750
  891POPC   NC313811  44.162  13.200   9.432
  891POPC   PO413812  43.700  12.706   9.460
  891POPC   GL113813  43.799  12.979   9.127
  891POPC   GL213814  44.116  12.856   9.050
  891POPC   C1A13815  43.813  13.084   8.682
  891POPC   D2A13816  43.699  12.886   8.308
  891POPC   C3A13817  43.957  12.943   7.976
  891POPC   C4A13818  43.840  13.102   7.599
  891POPC   C1B13819  43.924  12.588   8.696
  891POPC   C2B13820  43.850  12.377   8.303
  891POPC   C3B13821  43.912  12.446   7.864
  891POPC   C4B13822  44.020  12.613   7.469
  892POPC   NC313823  42.472  26.577   9.559
  892POPC   PO413824  42.071  26.999   9.734
  892POPC   GL113825  42.399  26.918   9.210
  892POPC   GL213826  42.290  26.685   8.955
  892POPC   C1A13827  42.366  27.154   8.761
  892POPC   D2A13828  42.215  27.195   8.342
  892POPC   C3A13829  42.512  27.050   8.046
  892POPC   C4A13830  42.480  26.797   7.673
  892POPC   C1B13831  42.451  26.462   8.607
  892POPC   C2B13832  42.381  26.498   8.157
  892POPC   C3B13833  42.049  26.646   7.850
  892POPC   C4B13834  42.099  26.612   7.372
  893POPC   NC313835  40.806  20.610   9.513
  893POPC   PO413836  40.195  21.006   9.489
  893POPC   GL113837  40.484  20.819   9.148
  893POPC   GL213838  40.599  20.454   9.074
  893POPC   C1A13839  40.593  20.791   8.696
  893POPC   D2A13840  40.755  20.551   8.349
  893POPC   C3A13841  40.807  20.794   7.969
  893POPC   C4A13842  40.776  20.778   7.494
  893POPC   C1B13843  40.985  20.441   8.813
  893POPC   C2B13844  41.190  20.303   8.432
  893POPC   C3B13845  40.968  20.220   8.021
  893POPC   C4B13846  40.635  20.365   7.772
  894POPC   NC313847  42.676  39.000   9.575
  894POPC   PO413848  42.277  39.474   9.650
  894POPC   GL113849  42.137  39.265   9.250
  894POPC   GL213850  42.459  39.133   9.131
  894POPC   C1A13851  42.191  39.391   8.789
  894POPC   D2A13852  42.328  39.604   8.393
  894POPC   C3A13853  42.162  39.388   8.011
  894POPC   C4A13854  42.090  38.959   7.896
  894POPC   C1B13855  42.569  39.000   8.706
  894POPC   C2B13856  42.514  39.127   8.282
  894POPC   C3B13857  42.590  39.017   7.864
  894POPC   C4B13858  42.449  38.643   7.624
  895POPC   NC313859   3.645  14.639   9.587
  895POPC   PO413860   3.707  13.937   9.485
  895POPC   GL113861   3.605  14.282   9.190
  895POPC   GL213862   3.790  14.641   9.106
  895POPC   C1A13863   3.603  14.206   8.749
  895POPC   D2A13864   3.458  14.193   8.309
  895POPC   C3A13865   3.671  14.218   7.918
  895POPC   C4A13866   3.559  14.242   7.485
  895POPC   C1B13867   3.387  14.654   8.900
  895POPC   C2B13868   3.322  14.672   8.474
  895POPC   C3B13869   3.261  14.585   8.035
  895POPC   C4B13870   3.514  14.683   7.723
  896POPC   NC313871  23.276  22.046   9.188
  896POPC   PO413872  23.614  22.322   9.690
  896POPC   GL113873  23.779  22.228   9.210
  896POPC   GL213874  23.887  21.904   9.219
  896POPC   C1A13875  23.691  22.097   8.694
  896POPC   D2A13876  23.702  22.073   8.218
  896POPC   C3A13877  23.538  22.396   7.903
  896POPC   C4A13878  23.554  22.502   7.443
  896POPC   C1B13879  24.097  21.828   8.838
  896POPC   C2B13880  24.128  21.739   8.405
  896POPC   C3B13881  24.139  21.885   7.999
  896POPC   C4B13882  23.836  21.992   7.722
  897POPC   NC313883  18.270  36.508   9.589
  897POPC   PO413884  18.653  36.007   9.329
  897POPC   GL113885  18.220  36.118   9.209
  897POPC   GL213886  18.028  35.838   9.111
  897POPC   C1A13887  18.030  36.295   8.832
  897POPC   D2A13888  18.046  36.567   8.445
  897POPC   C3A13889  17.978  36.365   8.055
  897POPC   C4A13890  18.348  36.149   7.877
  897POPC   C1B13891  18.334  35.877   8.743
  897POPC   C2B13892  18.425  35.757   8.311
  897POPC   C3B13893  18.462  35.613   7.893
  897POPC   C4B13894  18.256  35.759   7.554
  898POPC   NC313895  24.178   1.262   9.500
  898POPC   PO413896  24.827   1.322   9.459
  898POPC   GL113897  24.558   1.181   9.123
  898POPC   GL213898  24.375   0.860   9.198
  898POPC   C1A13899  24.524   1.095   8.683
  898POPC   D2A13900  24.611   0.937   8.295
  898POPC   C3A13901  24.618   1.162   7.923
  898POPC   C4A13902  24.549   1.261   7.532
  898POPC   C1B13903  24.214   0.662   8.813
  898POPC   C2B13904  24.130   0.836   8.403
  898POPC   C3B13905  24.263   0.804   7.932
  898POPC   C4B13906  24.102   0.971   7.526
  899POPC   NC313907  20.841  40.743   9.433
  899POPC   PO413908  20.220  40.489   9.301
  899POPC   GL113909  20.436  40.763   9.065
  899POPC   GL213910  20.674  41.020   9.021
  899POPC   C1A13911  20.330  40.817   8.675
  899POPC   D2A13912  20.453  40.598   8.358
  899POPC   C3A13913  20.344  40.802   8.027
  899POPC   C4A13914  20.459  40.738   7.634
  899POPC   C1B13915  20.824  40.774   8.727
  899POPC   C2B13916  21.008  40.818   8.324
  899POPC   C3B13917  20.888  40.708   7.922
  899POPC   C4B13918  20.888  41.024   7.617
  900POPC   NC313919  23.297  32.378   9.439
  900POPC   PO413920  23.896  32.076   9.636
  900POPC   GL113921  23.805  32.299   9.254
  900POPC   GL213922  23.588  32.016   9.194
  900POPC   C1A13923  23.708  32.320   8.797
  900POPC   D2A13924  23.493  32.163   8.429
  900POPC   C3A13925  23.613  32.294   7.969
  900POPC   C4A13926  23.603  32.342   7.490
  900POPC   C1B13927  23.924  31.875   8.920
  900POPC   C2B13928  23.914  31.884   8.468
  900POPC   C3B13929  23.996  31.863   8.021
  900POPC   C4B13930  24.055  32.192   7.698
  901POPC   NC313931  28.626  26.540   9.598
  901POPC   PO413932  28.084  26.982   9.488
  901POPC   GL113933  28.362  26.746   9.205
  901POPC   GL213934  28.649  26.938   9.062
  901POPC   C1A13935  28.446  26.588   8.787
  901POPC   D2A13936  28.223  26.627   8.423
  901POPC   C3A13937  28.458  26.640   8.069
  901POPC   C4A13938  28.589  26.802   7.667
  901POPC   C1B13939  28.305  27.107   8.813
  901POPC   C2B13940  28.165  27.144   8.422
  901POPC   C3B13941  28.326  27.125   8.016
  901POPC   C4B13942  28.117  27.231   7.662
  902POPC   NC313943  41.416  26.776   9.680
  902POPC   PO413944  42.005  26.638   9.358
  902POPC   GL113945  41.758  26.877   9.078
  902POPC   GL213946  41.499  27.051   9.254
  902POPC   C1A13947  41.807  27.187   8.733
  902POPC   D2A13948  41.752  26.983   8.355
  902POPC   C3A13949  41.746  27.087   7.944
  902POPC   C4A13950  41.555  26.693   7.757
  902POPC   C1B13951  41.318  27.055   8.832
  902POPC   C2B13952  41.292  27.211   8.394
  902POPC   C3B13953  41.218  27.051   8.000
  902POPC   C4B13954  41.380  27.153   7.596
  903POPC   NC313955   1.025  11.872   9.425
  903POPC   PO413956   1.511  12.352   9.631
  903POPC   GL113957   1.403  12.139   9.225
  903POPC   GL213958   1.072  12.245   9.094
  903POPC   C1A13959   1.448  12.016   8.800
  903POPC   D2A13960   1.253  12.178   8.432
  903POPC   C3A13961   1.447  12.117   8.059
  903POPC   C4A13962   1.459  12.042   7.640
  903POPC   C1B13963   0.934  11.964   8.746
  903POPC   C2B13964   0.799  12.007   8.276
  903POPC   C3B13965   0.956  12.067   7.839
  903POPC   C4B13966   0.823  12.118   7.388
  904POPC   NC313967  15.636   0.761   9.475
  904POPC   PO413968  16.151   1.218   9.435
  904POPC   GL113969  15.943   1.184   9.069
  904POPC   GL213970  16.023   1.526   9.028
  904POPC   C1A13971  16.083   1.126   8.628
  904POPC   D2A13972  16.124   1.198   8.181
  904POPC   C3A13973  15.753   1.124   7.867
  904POPC   C4A13974  15.931   1.011   7.452
  904POPC   C1B13975  15.780   1.540   8.687
  904POPC   C2B13976  15.674   1.376   8.337
  904POPC   C3B13977  15.844   1.601   8.026
  904POPC   C4B13978  16.111   1.427   7.723
  905POPC   NC313979  37.544  33.538   9.726
  905POPC   PO413980  37.839  34.141   9.453
  905POPC   GL113981  37.665  33.743   9.234
  905POPC   GL213982  37.946  33.504   9.247
  905POPC   C1A13983  37.513  33.672   8.770
  905POPC   D2A13984  37.462  33.569   8.310
  905POPC   C3A13985  37.402  33.928   8.004
  905POPC   C4A13986  37.488  33.941   7.565
  905POPC   C1B13987  38.007  33.820   8.871
  905POPC   C2B13988  37.965  33.683   8.441
  905POPC   C3B13989  37.906  33.868   8.055
  905POPC   C4B13990  38.082  34.148   7.726
  906POPC   NC313991  30.394  26.701   9.578
  906POPC   PO413992  29.827  26.994   9.632
  906POPC   GL113993  29.778  26.787   9.201
  906POPC   GL213994  29.726  26.418   9.218
  906POPC   C1A13995  29.847  26.783   8.744
  906POPC   D2A13996  29.948  26.650   8.324
  906POPC   C3A13997  29.854  26.921   7.963
  906POPC   C4A13998  29.758  27.189   7.574
  906POPC   C1B13999  29.425  26.542   8.902
  906POPC   C2B14000  29.432  26.592   8.474
  906POPC   C3B14001  29.414  26.608   8.030
  906POPC   C4B14002  29.584  26.706   7.619
  907POPC   NC314003  24.910  44.280   9.436
  907POPC   PO414004  25.451  43.885   9.596
  907POPC   GL114005  25.279  43.948   9.198
  907POPC   GL214006  25.614  44.039   9.125
  907POPC   C1A14007  25.055  43.784   8.805
  907POPC   D2A14008  25.240  43.594   8.434
  907POPC   C3A14009  25.213  43.774   8.032
  907POPC   C4A14010  25.019  43.963   7.674
  907POPC   C1B14011  25.543  43.909   8.736
  907POPC   C2B14012  25.418  44.085   8.390
  907POPC   C3B14013  25.578  44.148   7.995
  907POPC   C4B14014  25.554  43.931   7.652
  908POPC   NC314015   0.960  35.847   9.490
  908POPC   PO414016   1.218  36.380   9.489
  908POPC   GL114017   1.388  36.297   9.084
  908POPC   GL214018   1.129  36.046   9.032
  908POPC   C1A14019   1.373  36.286   8.632
  908POPC   D2A14020   1.170  36.032   8.289
  908POPC   C3A14021   1.306  36.193   7.900
  908POPC   C4A14022   1.420  36.039   7.510
  908POPC   C1B14023   0.878  36.253   8.682
  908POPC   C2B14024   0.887  36.447   8.241
  908POPC   C3B14025   0.817  36.366   7.776
  908POPC   C4B14026   0.692  36.538   7.381
  909POPC   NC314027  20.407  16.212   9.496
  909POPC   PO414028  20.393  16.886   9.476
  909POPC   GL114029  20.538  16.609   9.151
  909POPC   GL214030  20.879  16.496   9.120
  909POPC   C1A14031  20.623  16.711   8.708
  909POPC   D2A14032  20.805  16.998   8.390
  909POPC   C3A14033  20.469  17.005   8.110
  909POPC   C4A14034  20.411  16.753   7.755
  909POPC   C1B14035  20.898  16.291   8.758
  909POPC   C2B14036  20.985  16.497   8.396
  909POPC   C3B14037  20.766  16.590   8.063
  909POPC   C4B14038  20.869  16.626   7.627
  910POPC   NC314039  19.601  13.911   9.540
  910POPC   PO414040  19.810  13.297   9.451
  910POPC   GL114041  19.951  13.595   9.110
  910POPC   GL214042  19.838  13.966   9.103
  910POPC   C1A14043  19.880  13.750   8.662
  910POPC   D2A14044  19.676  13.695   8.314
  910POPC   C3A14045  19.912  13.554   8.027
  910POPC   C4A14046  19.956  13.402   7.647
  910POPC   C1B14047  19.586  14.157   8.761
  910POPC   C2B14048  19.409  14.116   8.366
  910POPC   C3B14049  19.590  14.055   7.947
  910POPC   C4B14050  20.018  13.972   7.770
  911POPC   NC314051  44.141  32.973   9.590
  911POPC   PO414052  43.684  32.444   9.483
  911POPC   GL114053  43.761  32.755   9.151
  911POPC   GL214054  43.703  33.098   9.205
  911POPC   C1A14055  43.774  32.917   8.730
  911POPC   D2A14056  43.962  32.953   8.354
  911POPC   C3A14057  43.795  32.853   7.961
  911POPC   C4A14058  44.075  32.703   7.625
  911POPC   C1B14059  44.122  33.211   8.943
  911POPC   C2B14060  44.199  33.376   8.489
  911POPC   C3B14061  43.862  33.373   8.100
  911POPC   C4B14062  43.932  33.211   7.658
  912POPC   NC314063  28.888  44.053   9.443
  912POPC   PO414064  29.397  43.545   9.455
  912POPC   GL114065  29.136  43.768   9.129
  912POPC   GL214066  28.808  43.694   9.058
  912POPC   C1A14067  29.069  44.048   8.763
  912POPC   D2A14068  29.209  44.248   8.378
  912POPC   C3A14069  29.117  44.138   7.983
  912POPC   C4A14070  29.269  43.814   7.731
  912POPC   C1B14071  28.766  43.528   8.679
  912POPC   C2B14072  28.811  43.836   8.366
  912POPC   C3B14073  28.819  43.718   7.972
  912POPC   C4B14074  28.762  43.336   7.797
  913POPC   NC314075  30.596  10.723   9.622
  913POPC   PO414076  31.061  10.575   9.914
  913POPC   GL114077  30.833  10.312   9.456
  913POPC   GL214078  31.036  10.200   9.173
  913POPC   C1A14079  30.639  10.451   8.940
  913POPC   D2A14080  30.361  10.299   8.561
  913POPC   C3A14081  30.397  10.514   8.147
  913POPC   C4A14082  30.515  10.841   7.841
  913POPC   C1B14083  31.117  10.490   8.786
  913POPC   C2B14084  30.846  10.547   8.433
  913POPC   C3B14085  30.902  10.516   7.988
  913POPC   C4B14086  31.117  10.789   7.721
  914POPC   NC314087  10.479  31.673   9.489
  914POPC   PO414088  11.094  31.413   9.566
  914POPC   GL114089  10.839  31.408   9.223
  914POPC   GL214090  10.885  31.778   9.199
  914POPC   C1A14091  10.496  31.365   8.882
  914POPC   D2A14092  10.378  31.194   8.453
  914POPC   C3A14093  10.329  31.486   8.087
  914POPC   C4A14094  10.311  31.846   7.796
  914POPC   C1B14095  10.953  31.588   8.763
  914POPC   C2B14096  10.795  31.508   8.349
  914POPC   C3B14097  10.823  31.453   7.920
  914POPC   C4B14098  11.153  31.582   7.726
  915POPC   NC314099  23.368  22.692   9.551
  915POPC   PO414100  23.886  22.984   9.693
  915POPC   GL114101  23.909  22.891   9.227
  915POPC   GL214102  23.618  22.922   9.151
  915POPC   C1A14103  23.947  22.837   8.755
  915POPC   D2A14104  23.759  22.584   8.450
  915POPC   C3A14105  23.767  22.829   8.119
  915POPC   C4A14106  23.754  22.878   7.730
  915POPC   C1B14107  23.453  22.966   8.743
  915POPC   C2B14108  23.554  23.186   8.412
  915POPC   C3B14109  23.400  23.224   8.025
  915POPC   C4B14110  23.506  23.419   7.685
  916POPC   NC314111  38.412   8.415   9.425
  916POPC   PO414112  38.744   7.859   9.408
  916POPC   GL114113  38.561   7.997   9.020
  916POPC   GL214114  38.235   8.169   9.015
  916POPC   C1A14115  38.552   8.069   8.585
  916POPC   D2A14116  38.539   7.958   8.154
  916POPC   C3A14117  38.329   8.133   7.803
  916POPC   C4A14118  38.496   8.484   7.613
  916POPC   C1B14119  38.183   8.436   8.648
  916POPC   C2B14120  38.210   8.393   8.223
  916POPC   C3B14121  38.079   8.663   7.866
  916POPC   C4B14122  38.031   8.549   7.433
  917POPC   NC314123  18.654  18.244   9.517
  917POPC   PO414124  18.068  18.533   9.652
  917POPC   GL114125  18.221  18.371   9.243
  917POPC   GL214126  18.526  18.553   9.128
  917POPC   C1A14127  18.188  18.229   8.818
  917POPC   D2A14128  18.110  18.107   8.400
  917POPC   C3A14129  18.110  18.386   8.074
  917POPC   C4A14130  18.229  18.352   7.672
  917POPC   C1B14131  18.643  18.440   8.701
  917POPC   C2B14132  18.570  18.303   8.276
  917POPC   C3B14133  18.694  18.420   7.889
  917POPC   C4B14134  18.705  18.202   7.518
  918POPC   NC314135  41.181   5.425   9.544
  918POPC   PO414136  40.645   5.912   9.596
  918POPC   GL114137  40.524   5.794   9.123
  918POPC   GL214138  40.461   6.053   8.792
  918POPC   C1A14139  40.778   5.669   8.777
  918POPC   D2A14140  40.825   5.761   8.352
  918POPC   C3A14141  40.554   5.724   8.036
  918POPC   C4A14142  40.637   5.661   7.630
  918POPC   C1B14143  40.948   6.158   8.657
  918POPC   C2B14144  41.192   6.108   8.255
  918POPC   C3B14145  40.883   6.160   7.894
  918POPC   C4B14146  40.903   6.012   7.440
  919POPC   NC314147   9.570  24.363   9.555
  919POPC   PO414148  10.143  24.425   9.452
  919POPC   GL114149   9.867  24.419   9.134
  919POPC   GL214150   9.546  24.648   9.130
  919POPC   C1A14151   9.714  24.308   8.781
  919POPC   D2A14152   9.628  24.579   8.479
  919POPC   C3A14153   9.542  24.519   8.066
  919POPC   C4A14154   9.739  24.391   7.715
  919POPC   C1B14155   9.250  24.568   8.783
  919POPC   C2B14156   9.139  24.709   8.402
  919POPC   C3B14157   9.181  24.875   8.015
  919POPC   C4B14158   9.234  24.639   7.648
  920POPC   NC314159  44.424  27.963   9.589
  920POPC   PO414160   0.132  27.923   9.474
  920POPC   GL114161  44.783  27.780   9.232
  920POPC   GL214162  44.510  27.981   9.101
  920POPC   C1A14163  44.792  27.649   8.818
  920POPC   D2A14164  44.642  27.658   8.424
  920POPC   C3A14165  44.906  27.597   8.085
  920POPC   C4A14166  44.810  27.599   7.663
  920POPC   C1B14167  44.323  27.920   8.731
  920POPC   C2B14168  44.303  28.078   8.312
  920POPC   C3B14169  44.468  27.862   7.965
  920POPC   C4B14170  44.308  27.524   7.744
  921POPC   NC314171  35.128  38.912   9.308
  921POPC   PO414172  35.421  39.425   9.666
  921POPC   GL114173  35.437  39.366   9.210
  921POPC   GL214174  35.358  39.147   8.924
  921POPC   C1A14175  35.567  39.598   8.824
  921POPC   D2A14176  35.664  39.604   8.361
  921POPC   C3A14177  35.620  39.208   8.137
  921POPC   C4A14178  35.386  39.188   7.743
  921POPC   C1B14179  35.148  38.801   8.696
  921POPC   C2B14180  34.931  38.806   8.331
  921POPC   C3B14181  35.014  39.152   8.095
  921POPC   C4B14182  34.964  38.896   7.742
  922POPC   NC314183   3.307  15.566   9.424
  922POPC   PO414184   3.718  15.243   9.830
  922POPC   GL114185   3.638  15.174   9.365
  922POPC   GL214186   3.796  15.474   9.225
  922POPC   C1A14187   3.553  15.131   8.892
  922POPC   D2A14188   3.796  14.891   8.586
  922POPC   C3A14189   3.624  14.960   8.173
  922POPC   C4A14190   3.324  15.148   7.899
  922POPC   C1B14191   3.997  15.336   8.843
  922POPC   C2B14192   3.800  15.390   8.457
  922POPC   C3B14193   3.922  15.371   8.045
  922POPC   C4B14194   3.707  15.386   7.678
  923POPC   NC314195  14.110  41.467   9.433
  923POPC   PO414196  14.782  41.577   9.518
  923POPC   GL114197  14.494  41.568   9.090
  923POPC   GL214198  14.206  41.799   9.031
  923POPC   C1A14199  14.353  41.298   8.705
  923POPC   D2A14200  14.568  41.316   8.325
  923POPC   C3A14201  14.448  41.540   7.984
  923POPC   C4A14202  14.157  41.425   7.685
  923POPC   C1B14203  14.337  41.778   8.598
  923POPC   C2B14204  14.697  41.853   8.336
  923POPC   C3B14205  14.777  41.938   7.913
  923POPC   C4B14206  14.962  41.785   7.543
  924POPC   NC314207  11.658   2.852   9.316
  924POPC   PO414208  12.347   2.676   9.588
  924POPC   GL114209  12.378   2.916   9.223
  924POPC   GL214210  12.059   3.050   9.087
  924POPC   C1A14211  12.412   2.818   8.802
  924POPC   D2A14212  12.065   2.704   8.571
  924POPC   C3A14213  12.151   2.914   8.192
  924POPC   C4A14214  12.220   2.899   7.752
  924POPC   C1B14215  11.860   3.155   8.678
  924POPC   C2B14216  11.648   2.921   8.348
  924POPC   C3B14217  11.727   2.947   7.922
  924POPC   C4B14218  11.782   3.010   7.483
  925POPC   NC314219  42.756  13.881   9.411
  925POPC   PO414220  43.260  13.416   9.484
  925POPC   GL114221  43.086  13.595   9.105
  925POPC   GL214222  42.728  13.604   8.971
  925POPC   C1A14223  43.155  13.753   8.715
  925POPC   D2A14224  42.944  13.620   8.394
  925POPC   C3A14225  43.223  13.745   8.130
  925POPC   C4A14226  43.267  13.686   7.742
  925POPC   C1B14227  42.713  14.030   8.748
  925POPC   C2B14228  42.815  14.117   8.307
  925POPC   C3B14229  42.768  13.866   7.929
  925POPC   C4B14230  42.913  13.960   7.486
  926POPC   NC314231   8.057   8.044   9.448
  926POPC   PO414232   8.495   8.430   9.720
  926POPC   GL114233   8.524   8.241   9.243
  926POPC   GL214234   8.214   8.375   9.088
  926POPC   C1A14235   8.477   8.056   8.780
  926POPC   D2A14236   8.236   7.991   8.368
  926POPC   C3A14237   8.438   8.086   8.016
  926POPC   C4A14238   8.429   8.386   7.715
  926POPC   C1B14239   7.886   8.535   8.820
  926POPC   C2B14240   7.870   8.701   8.417
  926POPC   C3B14241   7.994   8.514   8.037
  926POPC   C4B14242   7.951   8.651   7.606
  927POPC   NC314243  42.417   3.398   9.813
  927POPC   PO414244  42.341   3.764   9.288
  927POPC   GL114245  42.210   3.576   8.975
  927POPC   GL214246  42.192   3.256   9.136
  927POPC   C1A14247  42.378   3.761   8.606
  927POPC   D2A14248  42.687   3.679   8.313
  927POPC   C3A14249  42.564   3.651   7.908
  927POPC   C4A14250  42.211   3.863   7.733
  927POPC   C1B14251  42.368   3.212   8.671
  927POPC   C2B14252  42.186   3.101   8.266
  927POPC   C3B14253  42.252   3.240   7.833
  927POPC   C4B14254  42.673   3.204   7.679
  928POPC   NC314255  40.271   0.245   9.453
  928POPC   PO414256  39.611   0.099   9.543
  928POPC   GL114257  39.847   0.313   9.141
  928POPC   GL214258  40.120   0.121   9.002
  928POPC   C1A14259  39.986   0.571   8.759
  928POPC   D2A14260  40.247   0.578   8.367
  928POPC   C3A14261  40.147   0.759   7.985
  928POPC   C4A14262  39.921   0.805   7.580
  928POPC   C1B14263  40.228   0.102   8.592
  928POPC   C2B14264  39.899   0.189   8.352
  928POPC   C3B14265  39.884   0.346   7.980
  928POPC   C4B14266  40.234   0.300   7.737
  929POPC   NC314267  22.922  20.521   9.721
  929POPC   PO414268  22.824  20.967   9.259
  929POPC   GL114269  22.996  20.574   9.190
  929POPC   GL214270  22.691  20.355   9.230
  929POPC   C1A14271  23.194  20.490   8.801
  929POPC   D2A14272  23.046  20.252   8.435
  929POPC   C3A14273  23.056  20.278   7.987
  929POPC   C4A14274  22.702  20.101   7.735
  929POPC   C1B14275  22.681  20.474   8.773
  929POPC   C2B14276  22.915  20.751   8.461
  929POPC   C3B14277  23.085  20.801   8.041
  929POPC   C4B14278  22.895  20.689   7.640
  930POPC   NC314279   1.715  11.888   9.537
  930POPC   PO414280   2.193  12.208   9.335
  930POPC   GL114281   1.920  12.006   9.084
  930POPC   GL214282   1.805  12.320   8.967
  930POPC   C1A14283   1.928  11.825   8.697
  930POPC   D2A14284   2.141  11.834   8.336
  930POPC   C3A14285   1.844  11.780   8.035
  930POPC   C4A14286   1.966  12.053   7.756
  930POPC   C1B14287   2.055  12.323   8.626
  930POPC   C2B14288   1.916  12.299   8.213
  930POPC   C3B14289   1.733  12.496   7.866
  930POPC   C4B14290   1.754  12.387   7.416
  931POPC   NC314291   4.087   7.110   9.507
  931POPC   PO414292   4.486   6.530   9.454
  931POPC   GL114293   4.317   6.578   9.077
  931POPC   GL214294   4.008   6.774   9.141
  931POPC   C1A14295   4.319   6.541   8.652
  931POPC   D2A14296   4.559   6.775   8.366
  931POPC   C3A14297   4.708   6.524   8.017
  931POPC   C4A14298   4.616   6.765   7.665
  931POPC   C1B14299   4.193   7.003   8.810
  931POPC   C2B14300   4.036   6.891   8.409
  931POPC   C3B14301   4.017   6.754   7.989
  931POPC   C4B14302   3.787   6.979   7.691
  932POPC   NC314303  19.623  38.363   9.493
  932POPC   PO414304  20.249  38.783   9.461
  932POPC   GL114305  19.944  38.549   9.164
  932POPC   GL214306  19.959  38.218   9.078
  932POPC   C1A14307  19.736  38.684   8.767
  932POPC   D2A14308  19.517  38.851   8.354
  932POPC   C3A14309  19.716  38.711   7.981
  932POPC   C4A14310  19.951  38.684   7.589
  932POPC   C1B14311  19.827  38.193   8.669
  932POPC   C2B14312  19.575  38.347   8.346
  932POPC   C3B14313  19.506  38.187   7.975
  932POPC   C4B14314  19.788  38.212   7.718
  933POPC   NC314315  27.720   3.792   9.339
  933POPC   PO414316  27.401   3.239   9.645
  933POPC   GL114317  27.298   3.464   9.172
  933POPC   GL214318  27.239   3.848   9.163
  933POPC   C1A14319  27.461   3.545   8.732
  933POPC   D2A14320  27.677   3.758   8.385
  933POPC   C3A14321  27.545   3.589   7.987
  933POPC   C4A14322  27.608   3.439   7.560
  933POPC   C1B14323  27.265   4.029   8.759
  933POPC   C2B14324  27.183   3.911   8.391
  933POPC   C3B14325  27.220   4.046   8.028
  933POPC   C4B14326  27.327   3.886   7.654
  934POPC   NC314327  38.587  38.876   9.881
  934POPC   PO414328  38.786  38.214   9.637
  934POPC   GL114329  38.545  38.315   9.259
  934POPC   GL214330  38.645  38.621   9.158
  934POPC   C1A14331  38.620  38.240   8.817
  934POPC   D2A14332  38.736  38.175   8.372
  934POPC   C3A14333  38.353  38.156   8.093
  934POPC   C4A14334  38.398  38.503   7.801
  934POPC   C1B14335  38.588  38.763   8.767
  934POPC   C2B14336  38.272  38.935   8.542
  934POPC   C3B14337  38.325  38.879   8.124
  934POPC   C4B14338  38.036  38.871   7.789
  935POPC   NC314339  20.038  17.114   9.272
  935POPC   PO414340  19.677  17.664   9.531
  935POPC   GL114341  19.815  17.594   9.109
  935POPC   GL214342  19.630  17.332   9.079
  935POPC   C1A14343  19.794  17.611   8.639
  935POPC   D2A14344  19.737  17.880   8.262
  935POPC   C3A14345  19.925  17.743   7.865
  935POPC   C4A14346  19.571  17.608   7.596
  935POPC   C1B14347  19.598  16.998   8.772
  935POPC   C2B14348  19.829  17.074   8.444
  935POPC   C3B14349  19.755  17.322   8.105
  935POPC   C4B14350  19.910  17.235   7.722
  936POPC   NC314351   5.501  44.047   9.842
  936POPC   PO414352   5.583  43.471   9.476
  936POPC   GL114353   5.886  43.704   9.194
  936POPC   GL214354   6.021  44.035   9.288
  936POPC   C1A14355   5.990  43.696   8.756
  936POPC   D2A14356   5.721  43.654   8.393
  936POPC   C3A14357   5.911  43.756   8.005
  936POPC   C4A14358   6.095  43.565   7.683
  936POPC   C1B14359   6.115  44.198   8.885
  936POPC   C2B14360   5.905  44.161   8.498
  936POPC   C3B14361   6.008  44.260   8.071
  936POPC   C4B14362   5.768  44.180   7.731
  937POPC   NC314363  25.943  19.649   9.612
  937POPC   PO414364  26.234  20.292   9.578
  937POPC   GL114365  26.233  20.107   9.195
  937POPC   GL214366  25.942  19.939   9.188
  937POPC   C1A14367  26.180  20.104   8.770
  937POPC   D2A14368  26.414  20.096   8.414
  937POPC   C3A14369  26.161  20.001   8.063
  937POPC   C4A14370  26.098  20.138   7.666
  937POPC   C1B14371  25.887  19.641   8.868
  937POPC   C2B14372  25.926  19.727   8.449
  937POPC   C3B14373  25.876  19.578   8.040
  937POPC   C4B14374  25.861  19.684   7.630
  938POPC   NC314375  19.634  30.927   9.387
  938POPC   PO414376  20.162  30.645   9.684
  938POPC   GL114377  20.142  30.631   9.224
  938POPC   GL214378  19.820  30.456   9.225
  938POPC   C1A14379  19.978  30.724   8.795
  938POPC   D2A14380  19.590  30.886   8.577
  938POPC   C3A14381  19.678  30.900   8.142
  938POPC   C4A14382  20.135  30.920   8.016
  938POPC   C1B14383  19.573  30.408   8.831
  938POPC   C2B14384  19.777  30.314   8.462
  938POPC   C3B14385  20.105  30.449   8.231
  938POPC   C4B14386  19.982  30.469   7.814
  939POPC   NC314387  34.260  10.451   9.728
  939POPC   PO414388  34.823  10.782   9.497
  939POPC   GL114389  34.582  10.621   9.103
  939POPC   GL214390  34.877  10.479   8.965
  939POPC   C1A14391  34.495  10.517   8.642
  939POPC   D2A14392  34.309  10.625   8.307
  939POPC   C3A14393  34.352  10.292   8.072
  939POPC   C4A14394  34.496  10.440   7.690
  939POPC   C1B14395  34.980  10.603   8.548
  939POPC   C2B14396  34.812  10.615   8.157
  939POPC   C3B14397  34.938  10.680   7.738
  939POPC   C4B14398  34.957  10.393   7.417
  940POPC   NC314399  35.002  32.603   9.430
  940POPC   PO414400  34.831  33.249   9.711
  940POPC   GL114401  34.870  33.221   9.261
  940POPC   GL214402  34.532  33.036   9.211
  940POPC   C1A14403  34.857  33.124   8.817
  940POPC   D2A14404  34.816  32.896   8.437
  940POPC   C3A14405  34.746  33.106   8.041
  940POPC   C4A14406  34.688  32.760   7.771
  940POPC   C1B14407  34.394  32.871   8.787
  940POPC   C2B14408  34.297  33.028   8.356
  940POPC   C3B14409  34.221  32.892   7.934
  940POPC   C4B14410  34.306  32.940   7.474
  941POPC   NC314411  24.702  42.589   9.423
  941POPC   PO414412  24.355  42.020   9.529
  941POPC   GL114413  24.426  42.221   9.137
  941POPC   GL214414  24.474  42.502   8.987
  941POPC   C1A14415  24.575  42.075   8.720
  941POPC   D2A14416  24.766  42.124   8.318
  941POPC   C3A14417  24.571  42.208   7.941
  941POPC   C4A14418  24.322  42.091   7.628
  941POPC   C1B14419  24.342  42.654   8.621
  941POPC   C2B14420  24.542  42.626   8.220
  941POPC   C3B14421  24.535  42.674   7.757
  941POPC   C4B14422  24.196  42.741   7.489
  942POPC   NC314423  17.803   2.565   9.614
  942POPC   PO414424  17.243   2.856   9.677
  942POPC   GL114425  17.363   2.658   9.311
  942POPC   GL214426  17.682   2.788   9.175
  942POPC   C1A14427  17.263   2.710   8.897
  942POPC   D2A14428  17.386   2.605   8.491
  942POPC   C3A14429  17.257   2.796   8.134
  942POPC   C4A14430  17.369   2.612   7.744
  942POPC   C1B14431  17.792   2.827   8.752
  942POPC   C2B14432  17.693   3.015   8.365
  942POPC   C3B14433  17.759   2.869   7.958
  942POPC   C4B14434  17.869   2.471   7.715
  943POPC   NC314435   2.917  18.924   9.344
  943POPC   PO414436   2.284  19.111   9.547
  943POPC   GL114437   2.510  19.246   9.150
  943POPC   GL214438   2.834  19.199   8.948
  943POPC   C1A14439   2.411  19.075   8.715
  943POPC   D2A14440   2.490  18.909   8.290
  943POPC   C3A14441   2.783  19.133   8.047
  943POPC   C4A14442   2.856  19.133   7.648
  943POPC   C1B14443   3.056  19.446   8.636
  943POPC   C2B14444   3.057  19.528   8.192
  943POPC   C3B14445   3.261  19.413   7.771
  943POPC   C4B14446   3.131  19.354   7.291
  944POPC   NC314447  40.077  38.513   9.489
  944POPC   PO414448  40.257  37.935   9.337
  944POPC   GL114449  39.901  38.202   9.115
  944POPC   GL214450  39.801  38.603   9.081
  944POPC   C1A14451  40.060  38.380   8.733
  944POPC   D2A14452  40.229  38.275   8.388
  944POPC   C3A14453  39.980  38.136   8.095
  944POPC   C4A14454  40.143  38.087   7.722
  944POPC   C1B14455  39.570  38.578   8.719
  944POPC   C2B14456  39.782  38.573   8.326
  944POPC   C3B14457  40.119  38.630   8.018
  944POPC   C4B14458  39.782  38.461   7.765
  945POPC   NC314459   7.211  27.076   9.499
  945POPC   PO414460   7.691  26.685   9.372
  945POPC   GL114461   7.391  26.827   9.054
  945POPC   GL214462   7.145  27.113   9.006
  945POPC   C1A14463   7.377  26.718   8.607
  945POPC   D2A14464   7.688  26.613   8.273
  945POPC   C3A14465   7.578  26.584   7.832
  945POPC   C4A14466   7.714  26.856   7.482
  945POPC   C1B14467   7.484  27.212   8.737
  945POPC   C2B14468   7.263  27.167   8.374
  945POPC   C3B14469   7.360  26.991   8.019
  945POPC   C4B14470   7.249  27.067   7.589
  946POPC   NC314471  41.481   9.482   9.587
  946POPC   PO414472  41.826  10.041   9.580
  946POPC   GL114473  41.469   9.870   9.252
  946POPC   GL214474  41.502   9.542   9.092
  946POPC   C1A14475  41.250   9.861   8.807
  946POPC   D2A14476  41.452  10.024   8.424
  946POPC   C3A14477  41.463   9.878   8.007
  946POPC   C4A14478  41.618   9.986   7.610
  946POPC   C1B14479  41.864   9.287   8.941
  946POPC   C2B14480  41.947   9.273   8.516
  946POPC   C3B14481  41.660   9.437   8.200
  946POPC   C4B14482  41.636   9.465   7.747
  947POPC   NC314483   2.778   5.502   9.392
  947POPC   PO414484   2.845   6.180   9.488
  947POPC   GL114485   2.675   5.936   9.110
  947POPC   GL214486   2.467   5.583   8.980
  947POPC   C1A14487   2.806   5.811   8.701
  947POPC   D2A14488   2.536   5.756   8.374
  947POPC   C3A14489   2.657   6.047   8.056
  947POPC   C4A14490   2.886   5.843   7.767
  947POPC   C1B14491   2.738   5.295   8.707
  947POPC   C2B14492   2.901   5.379   8.291
  947POPC   C3B14493   2.623   5.427   7.933
  947POPC   C4B14494   2.254   5.305   7.683
  948POPC   NC314495  14.671  30.681   9.425
  948POPC   PO414496  14.092  31.204   9.408
  948POPC   GL114497  14.283  30.938   9.059
  948POPC   GL214498  14.597  30.844   8.968
  948POPC   C1A14499  14.228  30.682   8.675
  948POPC   D2A14500  14.150  30.400   8.331
  948POPC   C3A14501  14.280  30.608   7.929
  948POPC   C4A14502  14.404  30.952   7.610
  948POPC   C1B14503  14.755  30.580   8.715
  948POPC   C2B14504  14.919  30.502   8.341
  948POPC   C3B14505  14.757  30.333   7.963
  948POPC   C4B14506  14.667  30.534   7.593
  949POPC   NC314507  42.398  28.114   9.445
  949POPC   PO414508  41.971  28.621   9.472
  949POPC   GL114509  42.167  28.410   9.115
  949POPC   GL214510  42.025  28.107   9.100
  949POPC   C1A14511  42.527  28.424   8.803
  949POPC   D2A14512  42.687  28.580   8.369
  949POPC   C3A14513  42.543  28.456   7.966
  949POPC   C4A14514  42.366  28.173   7.655
  949POPC   C1B14515  42.139  28.103   8.705
  949POPC   C2B14516  42.203  28.349   8.384
  949POPC   C3B14517  42.010  28.328   8.013
  949POPC   C4B14518  41.857  28.059   7.691
  950POPC   NC314519  31.424  34.978   9.406
  950POPC   PO414520  31.764  34.297   9.397
  950POPC   GL114521  31.584  34.576   9.130
  950POPC   GL214522  31.750  34.890   9.015
  950POPC   C1A14523  31.340  34.684   8.765
  950POPC   D2A14524  31.051  34.646   8.439
  950POPC   C3A14525  31.258  34.708   8.047
  950POPC   C4A14526  31.307  34.615   7.654
  950POPC   C1B14527  31.839  34.540   8.720
  950POPC   C2B14528  31.632  34.529   8.341
  950POPC   C3B14529  31.768  34.564   7.914
  950POPC   C4B14530  31.980  34.177   7.753
  951POPC   NC314531  44.523  10.232   9.811
  951POPC   PO414532  44.357   9.625   9.531
  951POPC   GL114533  44.662   9.618   9.181
  951POPC   GL214534  44.685   9.942   9.146
  951POPC   C1A14535  44.549   9.568   8.728
  951POPC   D2A14536  44.330   9.718   8.354
  951POPC   C3A14537  44.460   9.606   7.961
  951POPC   C4A14538  44.551   9.828   7.594
  951POPC   C1B14539  44.959   9.866   8.769
  951POPC   C2B14540  44.878   9.775   8.349
  951POPC   C3B14541  44.949   9.722   7.919
  951POPC   C4B14542   0.038   9.897   7.495
  952POPC   NC314543   9.218  44.410   9.568
  952POPC   PO414544   8.816  44.940   9.553
  952POPC   GL114545   9.058  44.777   9.216
  952POPC   GL214546   9.283  44.998   9.117
  952POPC   C1A14547   9.044  44.551   8.792
  952POPC   D2A14548   8.874  44.336   8.417
  952POPC   C3A14549   8.931  44.499   8.040
  952POPC   C4A14550   8.739  44.709   7.734
  952POPC   C1B14551   8.981   0.052   8.788
  952POPC   C2B14552   9.171   0.081   8.412
  952POPC   C3B14553   9.148  44.959   8.013
  952POPC   C4B14554   8.993   0.154   7.681
  953POPC   NC314555  40.352  22.472   9.338
  953POPC   PO414556  40.885  22.947   9.407
  953POPC   GL114557  40.802  22.646   9.113
  953POPC   GL214558  40.489  22.643   8.881
  953POPC   C1A14559  40.964  22.502   8.751
  953POPC   D2A14560  40.705  22.642   8.423
  953POPC   C3A14561  40.787  22.568   8.037
  953POPC   C4A14562  40.584  22.644   7.668
  953POPC   C1B14563  40.725  23.047   8.738
  953POPC   C2B14564  40.701  23.385   8.399
  953POPC   C3B14565  40.551  23.332   7.975
  953POPC   C4B14566  40.717  23.128   7.619
  954POPC   NC314567  40.092  17.087   9.402
  954POPC   PO414568  40.558  17.494   9.552
  954POPC   GL114569  40.342  17.703   9.175
  954POPC   GL214570  39.999  17.576   9.173
  954POPC   C1A14571  40.202  17.650   8.710
  954POPC   D2A14572  40.110  17.338   8.344
  954POPC   C3A14573  40.188  17.502   7.912
  954POPC   C4A14574  40.515  17.787   7.734
  954POPC   C1B14575  39.809  17.293   8.813
  954POPC   C2B14576  39.602  17.242   8.384
  954POPC   C3B14577  39.639  17.280   7.958
  954POPC   C4B14578  39.713  17.595   7.647
  955POPC   NC314579  11.054  29.100   9.573
  955POPC   PO414580  11.485  29.626   9.522
  955POPC   GL114581  11.522  29.223   9.203
  955POPC   GL214582  11.190  29.070   9.066
  955POPC   C1A14583  11.616  29.023   8.770
  955POPC   D2A14584  11.374  29.066   8.357
  955POPC   C3A14585  11.652  29.078   8.011
  955POPC   C4A14586  11.624  29.084   7.573
  955POPC   C1B14587  10.928  29.184   8.691
  955POPC   C2B14588  10.977  29.405   8.297
  955POPC   C3B14589  11.167  29.340   7.890
  955POPC   C4B14590  10.855  29.429   7.552
  956POPC   NC314591  18.799  19.253   9.404
  956POPC   PO414592  19.044  18.614   9.452
  956POPC   GL114593  18.959  18.869   9.079
  956POPC   GL214594  19.197  19.133   9.093
  956POPC   C1A14595  18.852  19.131   8.708
  956POPC   D2A14596  18.746  18.945   8.322
  956POPC   C3A14597  18.748  19.245   7.980
  956POPC   C4A14598  19.179  19.385   7.812
  956POPC   C1B14599  19.290  19.418   8.726
  956POPC   C2B14600  19.166  19.260   8.307
  956POPC   C3B14601  19.130  18.904   7.973
  956POPC   C4B14602  19.350  18.802   7.593
  957POPC   NC314603  25.753  26.385   9.336
  957POPC   PO414604  26.391  26.332   9.605
  957POPC   GL114605  26.188  26.111   9.198
  957POPC   GL214606  26.063  25.739   9.172
  957POPC   C1A14607  25.956  26.104   8.796
  957POPC   D2A14608  25.729  26.283   8.462
  957POPC   C3A14609  25.806  26.096   8.061
  957POPC   C4A14610  26.116  26.061   7.728
  957POPC   C1B14611  26.245  25.691   8.749
  957POPC   C2B14612  26.222  25.837   8.294
  957POPC   C3B14613  26.269  25.611   7.898
  957POPC   C4B14614  26.262  25.636   7.429
  958POPC   NC314615   6.717  31.841   9.431
  958POPC   PO414616   6.383  31.207   9.438
  958POPC   GL114617   6.623  31.411   9.130
  958POPC   GL214618   6.945  31.291   9.168
  958POPC   C1A14619   6.754  31.562   8.719
  958POPC   D2A14620   6.569  31.639   8.289
  958POPC   C3A14621   6.787  31.537   7.869
  958POPC   C4A14622   6.757  31.644   7.383
  958POPC   C1B14623   7.116  31.174   8.771
  958POPC   C2B14624   6.937  31.244   8.352
  958POPC   C3B14625   7.137  31.148   7.962
  958POPC   C4B14626   7.029  31.221   7.520
  959POPC   NC314627  24.043  22.559   9.574
  959POPC   PO414628  24.582  22.115   9.551
  959POPC   GL114629  24.463  22.009   9.138
  959POPC   GL214630  24.277  22.256   9.146
  959POPC   C1A14631  24.545  22.144   8.712
  959POPC   D2A14632  24.573  21.965   8.313
  959POPC   C3A14633  24.543  22.191   7.949
  959POPC   C4A14634  24.553  21.947   7.584
  959POPC   C1B14635  24.102  22.364   8.793
  959POPC   C2B14636  24.156  22.263   8.370
  959POPC   C3B14637  24.048  22.405   7.955
  959POPC   C4B14638  24.237  22.382   7.544
  960POPC   NC314639  21.222   8.339   9.404
  960POPC   PO414640  21.489   7.766   9.491
  960POPC   GL114641  21.295   7.850   9.111
  960POPC   GL214642  21.044   8.117   8.971
  960POPC   C1A14643  21.461   7.980   8.723
  960POPC   D2A14644  21.537   8.243   8.366
  960POPC   C3A14645  21.361   8.103   7.988
  960POPC   C4A14646  21.473   7.893   7.597
  960POPC   C1B14647  21.227   8.449   8.742
  960POPC   C2B14648  21.224   8.652   8.363
  960POPC   C3B14649  21.427   8.701   8.020
  960POPC   C4B14650  21.148   8.561   7.764
  961POPC   NC314651  27.411   4.704   9.414
  961POPC   PO414652  27.732   5.320   9.399
  961POPC   GL114653  27.517   5.082   9.068
  961POPC   GL214654  27.155   4.931   9.029
  961POPC   C1A14655  27.778   5.017   8.730
  961POPC   D2A14656  27.974   5.049   8.352
  961POPC   C3A14657  27.696   5.166   8.045
  961POPC   C4A14658  27.462   5.378   7.744
  961POPC   C1B14659  27.280   5.154   8.617
  961POPC   C2B14660  27.205   5.162   8.143
  961POPC   C3B14661  27.371   4.877   7.770
  961POPC   C4B14662  27.292   4.680   7.353
  962POPC   NC314663   4.149  34.068   9.433
  962POPC   PO414664   4.558  33.526   9.588
  962POPC   GL114665   4.416  33.691   9.180
  962POPC   GL214666   4.565  34.036   9.143
  962POPC   C1A14667   4.282  33.861   8.746
  962POPC   D2A14668   4.131  33.718   8.337
  962POPC   C3A14669   4.211  33.884   7.906
  962POPC   C4A14670   4.269  33.758   7.434
  962POPC   C1B14671   4.806  34.082   8.790
  962POPC   C2B14672   4.691  33.973   8.390
  962POPC   C3B14673   4.687  34.171   8.013
  962POPC   C4B14674   4.651  33.983   7.644
  963POPC   NC314675   3.680  41.827   9.411
  963POPC   PO414676   3.458  41.288   9.555
  963POPC   GL114677   3.689  41.423   9.129
  963POPC   GL214678   3.402  41.544   9.078
  963POPC   C1A14679   3.837  41.574   8.685
  963POPC   D2A14680   3.657  41.624   8.225
  963POPC   C3A14681   3.868  41.789   7.829
  963POPC   C4A14682   3.841  41.658   7.347
  963POPC   C1B14683   3.356  41.377   8.712
  963POPC   C2B14684   3.145  41.510   8.392
  963POPC   C3B14685   3.230  41.404   7.983
  963POPC   C4B14686   3.527  41.434   7.686
  964POPC   NC314687  32.897  11.737   9.469
  964POPC   PO414688  33.085  12.383   9.568
  964POPC   GL114689  33.261  12.150   9.220
  964POPC   GL214690  33.268  11.780   9.109
  964POPC   C1A14691  33.232  12.217   8.799
  964POPC   D2A14692  32.976  12.172   8.401
  964POPC   C3A14693  33.152  12.050   7.990
  964POPC   C4A14694  33.030  12.028   7.513
  964POPC   C1B14695  32.926  11.815   8.772
  964POPC   C2B14696  32.893  11.682   8.317
  964POPC   C3B14697  32.729  11.783   7.894
  964POPC   C4B14698  32.702  11.514   7.505
  965POPC   NC314699   1.841  35.445   9.525
  965POPC   PO414700   2.241  34.904   9.488
  965POPC   GL114701   2.052  35.124   9.165
  965POPC   GL214702   1.687  35.086   9.190
  965POPC   C1A14703   2.165  35.236   8.765
  965POPC   D2A14704   2.231  35.494   8.446
  965POPC   C3A14705   2.057  35.302   8.072
  965POPC   C4A14706   2.269  35.374   7.703
  965POPC   C1B14707   1.696  35.384   8.834
  965POPC   C2B14708   1.723  35.513   8.415
  965POPC   C3B14709   1.565  35.616   8.019
  965POPC   C4B14710   1.772  35.653   7.658
  966POPC   NC314711  24.169  35.684   9.678
  966POPC   PO414712  23.528  35.488   9.472
  966POPC   GL114713  23.747  35.388   9.109
  966POPC   GL214714  23.796  35.037   9.120
  966POPC   C1A14715  23.876  35.672   8.789
  966POPC   D2A14716  23.968  35.865   8.420
  966POPC   C3A14717  23.883  35.578   8.074
  966POPC   C4A14718  23.659  35.451   7.666
  966POPC   C1B14719  23.536  35.011   8.792
  966POPC   C2B14720  23.633  35.239   8.438
  966POPC   C3B14721  23.628  35.100   8.049
  966POPC   C4B14722  23.274  35.140   7.823
  967POPC   NC314723  34.998  24.241   9.606
  967POPC   PO414724  35.664  24.481   9.455
  967POPC   GL114725  35.734  24.635   9.101
  967POPC   GL214726  35.378  24.507   9.019
  967POPC   C1A14727  35.685  24.769   8.717
  967POPC   D2A14728  35.324  24.720   8.491
  967POPC   C3A14729  35.541  24.541   8.175
  967POPC   C4A14730  35.395  24.305   7.849
  967POPC   C1B14731  35.449  24.249   8.635
  967POPC   C2B14732  35.130  24.245   8.320
  967POPC   C3B14733  34.975  23.984   7.991
  967POPC   C4B14734  35.063  24.105   7.529
  968POPC   NC314735  10.208  39.119   9.623
  968POPC   PO414736  10.860  39.448   9.615
  968POPC   GL114737  10.665  39.339   9.196
  968POPC   GL214738  10.456  39.040   9.201
  968POPC   C1A14739  10.555  39.234   8.749
  968POPC   D2A14740  10.484  39.309   8.320
  968POPC   C3A14741  10.639  39.067   8.004
  968POPC   C4A14742  10.469  39.023   7.614
  968POPC   C1B14743  10.164  38.933   8.864
  968POPC   C2B14744  10.238  38.871   8.432
  968POPC   C3B14745  10.313  38.679   8.035
  968POPC   C4B14746  10.003  38.608   7.735
  969POPC   NC314747  44.627  15.900   9.600
  969POPC   PO414748  44.244  15.455   9.346
  969POPC   GL114749  44.512  15.738   9.126
  969POPC   GL214750  44.870  15.681   9.160
  969POPC   C1A14751  44.730  16.032   8.822
  969POPC   D2A14752  44.879  16.164   8.417
  969POPC   C3A14753  44.608  16.224   8.045
  969POPC   C4A14754  44.683  16.174   7.593
  969POPC   C1B14755  44.794  15.508   8.766
  969POPC   C2B14756  44.738  15.679   8.352
  969POPC   C3B14757  44.725  15.753   7.886
  969POPC   C4B14758  44.577  15.700   7.415
  970POPC   NC314759  28.467  34.134   9.466
  970POPC   PO414760  28.270  33.550   9.669
  970POPC   GL114761  28.300  33.699   9.247
  970POPC   GL214762  28.638  33.757   9.147
  970POPC   C1A14763  28.301  33.666   8.795
  970POPC   D2A14764  28.418  33.955   8.496
  970POPC   C3A14765  28.227  33.840   8.138
  970POPC   C4A14766  28.265  33.855   7.720
  970POPC   C1B14767  28.838  33.738   8.740
  970POPC   C2B14768  28.900  33.904   8.323
  970POPC   C3B14769  28.770  33.795   7.892
  970POPC   C4B14770  28.695  34.016   7.512
  971POPC   NC314771  16.674   8.393   9.412
  971POPC   PO414772  16.935   7.738   9.483
  971POPC   GL114773  16.822   7.999   9.135
  971POPC   GL214774  17.074   8.213   9.061
  971POPC   C1A14775  16.668   8.130   8.720
  971POPC   D2A14776  16.871   8.065   8.322
  971POPC   C3A14777  16.696   8.256   7.942
  971POPC   C4A14778  16.452   8.476   7.630
  971POPC   C1B14779  17.034   8.476   8.727
  971POPC   C2B14780  17.204   8.477   8.301
  971POPC   C3B14781  17.184   8.457   7.875
  971POPC   C4B14782  16.885   8.733   7.783
  972POPC   NC314783  35.396  35.510   9.535
  972POPC   PO414784  35.840  35.068   9.318
  972POPC   GL114785  35.538  35.092   8.996
  972POPC   GL214786  35.253  35.320   9.084
  972POPC   C1A14787  35.466  35.347   8.629
  972POPC   D2A14788  35.602  35.691   8.401
  972POPC   C3A14789  35.484  35.502   8.012
  972POPC   C4A14790  35.453  35.026   7.982
  972POPC   C1B14791  35.002  35.139   8.722
  972POPC   C2B14792  34.922  35.240   8.271
  972POPC   C3B14793  35.035  35.251   7.816
  972POPC   C4B14794  35.062  35.152   7.353
  973POPC   NC314795  29.560   3.190   9.487
  973POPC   PO414796  29.892   3.754   9.437
  973POPC   GL114797  29.855   3.455   9.092
  973POPC   GL214798  30.192   3.348   9.023
  973POPC   C1A14799  29.871   3.159   8.713
  973POPC   D2A14800  29.709   3.172   8.321
  973POPC   C3A14801  29.960   3.468   8.118
  973POPC   C4A14802  29.960   3.294   7.746
  973POPC   C1B14803  30.177   3.696   8.721
  973POPC   C2B14804  30.159   3.915   8.338
  973POPC   C3B14805  30.384   3.825   7.980
  973POPC   C4B14806  30.272   3.719   7.574
  974POPC   NC314807  36.458  37.681   9.395
  974POPC   PO414808  35.792  37.839   9.512
  974POPC   GL114809  35.995  37.731   9.130
  974POPC   GL214810  36.174  38.075   9.203
  974POPC   C1A14811  36.126  37.427   8.761
  974POPC   D2A14812  36.224  37.620   8.402
  974POPC   C3A14813  36.348  37.468   8.029
  974POPC   C4A14814  36.007  37.555   7.766
  974POPC   C1B14815  36.288  37.973   8.792
  974POPC   C2B14816  36.176  38.163   8.424
  974POPC   C3B14817  36.088  38.022   8.021
  974POPC   C4B14818  36.413  37.978   7.763
  975POPC   NC314819  36.487  16.298   9.249
  975POPC   PO414820  36.990  15.935   9.572
  975POPC   GL114821  36.922  15.994   9.121
  975POPC   GL214822  36.606  15.805   9.170
  975POPC   C1A14823  37.178  16.171   8.735
  975POPC   D2A14824  37.112  16.309   8.271
  975POPC   C3A14825  37.148  16.050   7.859
  975POPC   C4A14826  37.087  15.918   7.398
  975POPC   C1B14827  36.391  15.889   8.756
  975POPC   C2B14828  36.356  16.046   8.350
  975POPC   C3B14829  36.658  16.054   8.042
  975POPC   C4B14830  36.649  15.978   7.632
  976POPC   NC314831   4.683  39.379   9.612
  976POPC   PO414832   4.130  39.149   9.580
  976POPC   GL114833   4.213  39.085   9.194
  976POPC   GL214834   3.851  39.125   9.124
  976POPC   C1A14835   4.544  39.240   8.898
  976POPC   D2A14836   4.570  39.512   8.540
  976POPC   C3A14837   4.648  39.299   8.125
  976POPC   C4A14838   4.669  39.015   7.752
  976POPC   C1B14839   4.047  39.386   8.823
  976POPC   C2B14840   4.187  39.208   8.458
  976POPC   C3B14841   4.127  39.358   8.058
  976POPC   C4B14842   4.186  39.169   7.729
  977POPC   NC314843  30.279  16.632   9.455
  977POPC   PO414844  30.754  17.078   9.443
  977POPC   GL114845  30.726  16.982   9.020
  977POPC   GL214846  30.370  17.032   9.032
  977POPC   C1A14847  30.597  16.617   8.720
  977POPC   D2A14848  30.510  16.388   8.305
  977POPC   C3A14849  30.779  16.557   7.947
  977POPC   C4A14850  30.845  16.994   7.813
  977POPC   C1B14851  30.431  17.077   8.613
  977POPC   C2B14852  30.549  16.918   8.228
  977POPC   C3B14853  30.363  16.896   7.804
  977POPC   C4B14854  30.438  16.884   7.339
  978POPC   NC314855  14.666  25.468   9.543
  978POPC   PO414856  15.278  25.235   9.501
  978POPC   GL114857  15.243  25.131   9.081
  978POPC   GL214858  14.887  25.071   9.080
  978POPC   C1A14859  15.348  24.906   8.711
  978POPC   D2A14860  15.501  24.994   8.289
  978POPC   C3A14861  15.487  25.453   8.213
  978POPC   C4A14862  15.368  25.499   7.800
  978POPC   C1B14863  14.918  25.230   8.652
  978POPC   C2B14864  15.012  25.253   8.197
  978POPC   C3B14865  14.883  25.102   7.784
  978POPC   C4B14866  14.793  25.020   7.340
  979POPC   NC314867  34.886   1.809   9.402
  979POPC   PO414868  35.468   2.166   9.571
  979POPC   GL114869  35.253   2.094   9.154
  979POPC   GL214870  35.351   1.770   9.044
  979POPC   C1A14871  35.332   2.155   8.701
  979POPC   D2A14872  35.376   1.926   8.326
  979POPC   C3A14873  35.301   2.185   7.967
  979POPC   C4A14874  35.277   2.072   7.521
  979POPC   C1B14875  35.055   1.735   8.689
  979POPC   C2B14876  34.880   1.888   8.302
  979POPC   C3B14877  35.007   1.766   7.875
  979POPC   C4B14878  35.001   1.526   7.501
  980POPC   NC314879  18.023  14.333   9.466
  980POPC   PO414880  18.570  14.506   9.284
  980POPC   GL114881  18.403  14.151   9.036
  980POPC   GL214882  18.045  14.108   8.986
  980POPC   C1A14883  18.353  14.205   8.585
  980POPC   D2A14884  18.527  14.526   8.333
  980POPC   C3A14885  18.537  14.501   7.890
  980POPC   C4A14886  18.729  14.201   7.643
  980POPC   C1B14887  17.837  14.069   8.613
  980POPC   C2B14888  17.994  14.328   8.206
  980POPC   C3B14889  18.038  14.438   7.735
  980POPC   C4B14890  17.822  14.639   7.358
  981POPC   NC314891  40.412  27.019   9.477
  981POPC   PO414892  40.968  26.776   9.777
  981POPC   GL114893  40.869  26.743   9.335
  981POPC   GL214894  41.142  26.545   9.203
  981POPC   C1A14895  40.735  26.761   8.886
  981POPC   D2A14896  40.957  26.824   8.470
  981POPC   C3A14897  40.724  26.883   8.071
  981POPC   C4A14898  40.562  26.783   7.660
  981POPC   C1B14899  41.001  26.333   8.805
  981POPC   C2B14900  40.826  26.329   8.381
  981POPC   C3B14901  41.103  26.511   8.057
  981POPC   C4B14902  41.062  26.716   7.647
  982POPC   NC314903  19.988   1.986   9.437
  982POPC   PO414904  19.368   1.874   9.686
  982POPC   GL114905  19.428   2.005   9.151
  982POPC   GL214906  19.785   2.034   8.987
  982POPC   C1A14907  19.463   1.766   8.731
  982POPC   D2A14908  19.784   1.906   8.456
  982POPC   C3A14909  19.615   2.153   8.123
  982POPC   C4A14910  19.301   2.058   7.802
  982POPC   C1B14911  20.189   2.050   8.744
  982POPC   C2B14912  20.280   1.825   8.357
  982POPC   C3B14913  20.024   1.781   8.017
  982POPC   C4B14914  20.008   2.118   7.812
  983POPC   NC314915  26.128   4.644  10.044
  983POPC   PO414916  26.060   4.243   9.505
  983POPC   GL114917  25.907   4.330   9.119
  983POPC   GL214918  26.075   4.590   9.048
  983POPC   C1A14919  25.996   4.120   8.739
  983POPC   D2A14920  26.293   4.045   8.398
  983POPC   C3A14921  26.216   4.242   7.988
  983POPC   C4A14922  26.008   4.320   7.592
  983POPC   C1B14923  26.387   4.460   8.765
  983POPC   C2B14924  26.531   4.574   8.377
  983POPC   C3B14925  26.568   4.591   7.941
  983POPC   C4B14926  26.347   4.733   7.579
  984POPC   NC314927  13.719   8.744   9.413
  984POPC   PO414928  13.488   9.259   9.450
  984POPC   GL114929  13.717   9.197   9.077
  984POPC   GL214930  13.516   8.977   9.023
  984POPC   C1A14931  13.529   9.209   8.594
  984POPC   D2A14932  13.157   9.106   8.280
  984POPC   C3A14933  13.366   9.118   7.877
  984POPC   C4A14934  13.793   9.053   7.856
  984POPC   C1B14935  13.738   8.735   8.750
  984POPC   C2B14936  13.697   8.537   8.388
  984POPC   C3B14937  13.598   8.618   7.983
  984POPC   C4B14938  13.434   8.651   7.602
  985POPC   NC314939   4.156  38.029   9.496
  985POPC   PO414940   4.550  37.499   9.430
  985POPC   GL114941   4.361  37.652   9.048
  985POPC   GL214942   4.018  37.838   9.043
  985POPC   C1A14943   4.278  37.366   8.704
  985POPC   D2A14944   3.950  37.376   8.403
  985POPC   C3A14945   4.098  37.644   8.076
  985POPC   C4A14946   4.373  37.556   7.719
  985POPC   C1B14947   4.061  37.832   8.606
  985POPC   C2B14948   4.471  37.761   8.405
  985POPC   C3B14949   4.534  37.941   7.999
  985POPC   C4B14950   4.160  37.997   7.693
  986POPC   NC314951  32.422  17.801   9.380
  986POPC   PO414952  32.379  17.220   9.725
  986POPC   GL114953  32.106  17.431   9.242
  986POPC   GL214954  31.932  17.779   9.187
  986POPC   C1A14955  32.227  17.574   8.790
  986POPC   D2A14956  32.493  17.467   8.441
  986POPC   C3A14957  32.252  17.501   8.068
  986POPC   C4A14958  32.272  17.511   7.638
  986POPC   C1B14959  31.802  17.819   8.728
  986POPC   C2B14960  32.125  17.912   8.381
  986POPC   C3B14961  32.375  18.017   8.002
  986POPC   C4B14962  32.304  17.991   7.527
  987POPC   NC314963  30.592  14.990   9.516
  987POPC   PO414964  31.187  15.278   9.515
  987POPC   GL114965  30.909  15.270   9.193
  987POPC   GL214966  30.980  14.930   9.147
  987POPC   C1A14967  30.727  15.210   8.805
  987POPC   D2A14968  30.834  15.342   8.406
  987POPC   C3A14969  30.466  15.434   8.193
  987POPC   C4A14970  30.266  15.131   7.894
  987POPC   C1B14971  31.084  14.839   8.699
  987POPC   C2B14972  30.931  14.833   8.265
  987POPC   C3B14973  30.809  14.993   7.838
  987POPC   C4B14974  30.966  15.226   7.416
  988POPC   NC314975  42.015  29.096   9.484
  988POPC   PO414976  42.745  29.245   9.579
  988POPC   GL114977  42.479  29.102   9.180
  988POPC   GL214978  42.240  28.899   9.074
  988POPC   C1A14979  42.312  29.316   8.765
  988POPC   D2A14980  42.408  29.597   8.385
  988POPC   C3A14981  42.293  29.304   8.063
  988POPC   C4A14982  41.989  29.182   7.784
  988POPC   C1B14983  42.190  28.809   8.634
  988POPC   C2B14984  42.247  28.815   8.176
  988POPC   C3B14985  42.178  28.716   7.721
  988POPC   C4B14986  41.958  28.865   7.340
  989POPC   NC314987  11.453   3.029   9.764
  989POPC   PO414988  10.883   2.897   9.386
  989POPC   GL114989  11.177   2.985   9.148
  989POPC   GL214990  11.229   2.635   9.116
  989POPC   C1A14991  11.319   2.977   8.737
  989POPC   D2A14992  11.130   2.760   8.402
  989POPC   C3A14993  11.225   2.936   8.049
  989POPC   C4A14994  11.299   2.896   7.645
  989POPC   C1B14995  11.191   2.419   8.766
  989POPC   C2B14996  11.415   2.332   8.412
  989POPC   C3B14997  11.517   2.499   8.047
  989POPC   C4B14998  11.393   2.399   7.649
  990POPC   NC314999  26.295  41.414   9.689
  990POPC   PO415000  25.705  41.270   9.596
  990POPC   GL115001  26.061  41.354   9.220
  990POPC   GL215002  26.469  41.348   9.206
  990POPC   C1A15003  26.099  41.267   8.737
  990POPC   D2A15004  26.260  41.242   8.302
  990POPC   C3A15005  26.015  41.450   8.012
  990POPC   C4A15006  25.842  41.336   7.608
  990POPC   C1B15007  26.344  41.677   8.921
  990POPC   C2B15008  26.181  41.749   8.511
  990POPC   C3B15009  26.402  41.794   8.138
  990POPC   C4B15010  26.409  41.592   7.743
  991POPC   NC315011   4.449  26.697   9.513
  991POPC   PO415012   4.265  27.315   9.312
  991POPC   GL115013   4.257  26.892   9.071
  991POPC   GL215014   4.212  26.478   9.117
  991POPC   C1A15015   4.535  26.833   8.712
  991POPC   D2A15016   4.549  27.015   8.303
  991POPC   C3A15017   4.470  26.749   7.973
  991POPC   C4A15018   4.673  26.702   7.609
  991POPC   C1B15019   4.104  26.567   8.700
  991POPC   C2B15020   4.065  26.806   8.335
  991POPC   C3B15021   3.961  26.813   7.910
  991POPC   C4B15022   4.055  26.539   7.598
  992POPC   NC315023  27.626  42.065   9.335
  992POPC   PO415024  28.095  42.478   9.638
  992POPC   GL115025  27.968  42.527   9.177
  992POPC   GL215026  27.644  42.535   9.116
  992POPC   C1A15027  27.833  42.286   8.737
  992POPC   D2A15028  27.588  41.964   8.472
  992POPC   C3A15029  27.679  42.082   8.041
  992POPC   C4A15030  27.506  42.061   7.614
  992POPC   C1B15031  27.427  42.644   8.752
  992POPC   C2B15032  27.434  42.452   8.366
  992POPC   C3B15033  27.443  42.582   7.970
  992POPC   C4B15034  27.755  42.493   7.737
  993POPC   NC315035  12.456  18.255   9.585
  993POPC   PO415036  11.812  18.544   9.531
  993POPC   GL115037  12.014  18.330   9.169
  993POPC   GL215038  12.277  18.087   9.151
  993POPC   C1A15039  12.199  18.473   8.785
  993POPC   D2A15040  12.051  18.644   8.413
  993POPC   C3A15041  12.115  18.518   8.003
  993POPC   C4A15042  11.909  18.640   7.585
  993POPC   C1B15043  12.343  18.000   8.761
  993POPC   C2B15044  12.071  17.985   8.465
  993POPC   C3B15045  12.068  17.943   8.040
  993POPC   C4B15046  12.107  18.172   7.648
  994POPC   NC315047   2.444  20.371   9.542
  994POPC   PO415048   3.189  20.391   9.415
  994POPC   GL115049   2.921  20.285   9.073
  994POPC   GL215050   2.546  20.385   9.050
  994POPC   C1A15051   3.001  20.437   8.652
  994POPC   D2A15052   2.755  20.407   8.271
  994POPC   C3A15053   2.960  20.519   7.901
  994POPC   C4A15054   2.857  20.580   7.485
  994POPC   C1B15055   2.517  20.626   8.685
  994POPC   C2B15056   2.343  20.752   8.288
  994POPC   C3B15057   2.457  20.624   7.862
  994POPC   C4B15058   2.400  20.816   7.477
  995POPC   NC315059  28.797   8.862   9.605
  995POPC   PO415060  29.354   9.138   9.366
  995POPC   GL115061  28.979   9.014   9.113
  995POPC   GL215062  28.869   8.685   9.109
  995POPC   C1A15063  28.851   8.995   8.667
  995POPC   D2A15064  29.072   9.201   8.311
  995POPC   C3A15065  29.105   8.990   7.909
  995POPC   C4A15066  29.432   8.929   7.645
  995POPC   C1B15067  29.200   8.614   8.823
  995POPC   C2B15068  29.187   8.689   8.385
  995POPC   C3B15069  29.369   8.542   8.030
  995POPC   C4B15070  29.184   8.460   7.652
  996POPC   NC315071  21.508  12.097   9.430
  996POPC   PO415072  20.797  11.898   9.511
  996POPC   GL115073  21.128  11.835   9.187
  996POPC   GL215074  21.054  12.136   9.057
  996POPC   C1A15075  21.406  11.887   8.776
  996POPC   D2A15076  21.452  11.707   8.350
  996POPC   C3A15077  21.501  11.944   7.988
  996POPC   C4A15078  21.252  12.008   7.647
  996POPC   C1B15079  21.202  12.376   8.735
  996POPC   C2B15080  21.320  12.240   8.363
  996POPC   C3B15081  21.251  12.404   7.970
  996POPC   C4B15082  21.317  12.504   7.561
  997POPC   NC315083  22.711  43.977   9.506
  997POPC   PO415084  23.085  43.513   9.158
  997POPC   GL115085  22.946  43.937   9.050
  997POPC   GL215086  22.575  44.036   9.029
  997POPC   C1A15087  22.906  43.946   8.626
  997POPC   D2A15088  23.206  43.770   8.350
  997POPC   C3A15089  23.026  43.854   8.000
  997POPC   C4A15090  23.066  43.691   7.628
  997POPC   C1B15091  22.495  43.619   8.816
  997POPC   C2B15092  22.460  43.490   8.355
  997POPC   C3B15093  22.551  43.647   7.908
  997POPC   C4B15094  22.691  44.032   7.666
  998POPC   NC315095  31.477  25.872   9.688
  998POPC   PO415096  31.490  25.188   9.605
  998POPC   GL115097  31.406  25.283   9.172
  998POPC   GL215098  31.529  25.560   9.245
  998POPC   C1A15099  31.400  25.253   8.706
  998POPC   D2A15100  31.363  25.421   8.271
  998POPC   C3A15101  31.453  25.242   7.873
  998POPC   C4A15102  31.424  25.194   7.407
  998POPC   C1B15103  31.772  25.551   8.864
  998POPC   C2B15104  31.775  25.691   8.430
  998POPC   C3B15105  31.818  25.574   8.007
  998POPC   C4B15106  31.677  25.703   7.592
  999POPC   NC315107  40.944  39.007   9.541
  999POPC   PO415108  40.622  39.578   9.406
  999POPC   GL115109  40.735  39.423   9.029
  999POPC   GL215110  41.076  39.305   9.155
  999POPC   C1A15111  40.400  39.273   8.735
  999POPC   D2A15112  40.438  39.092   8.336
  999POPC   C3A15113  40.645  39.372   8.110
  999POPC   C4A15114  40.822  39.366   7.745
  999POPC   C1B15115  41.068  39.129   8.739
  999POPC   C2B15116  40.962  39.011   8.309
  999POPC   C3B15117  41.149  38.989   7.886
  999POPC   C4B15118  41.040  39.043   7.430
 1000POPC   NC315119  10.542  17.121   9.339
 1000POPC   PO415120  10.300  16.458   9.491
 1000POPC   GL115121  10.300  16.636   9.126
 1000POPC   GL215122  10.648  16.654   9.117
 1000POPC   C1A15123  10.237  16.779   8.721
 1000POPC   D2A15124  10.254  16.702   8.296
 1000POPC   C3A15125  10.410  17.026   7.984
 1000POPC   C4A15126  10.427  17.017   7.507
 1000POPC   C1B15127  10.762  16.715   8.688
 1000POPC   C2B15128  10.760  16.532   8.275
 1000POPC   C3B15129  10.515  16.554   7.893
 1000POPC   C4B15130  10.821  16.775   7.692
 1001POPC   NC315131   1.859  12.562   9.396
 1001POPC   PO415132   2.088  13.176   9.561
 1001POPC   GL115133   2.083  13.013   9.159
 1001POPC   GL215134   1.744  12.982   9.082
 1001POPC   C1A15135   2.118  12.832   8.754
 1001POPC   D2A15136   1.892  12.791   8.378
 1001POPC   C3A15137   2.020  12.939   7.977
 1001POPC   C4A15138   2.046  12.763   7.565
 1001POPC   C1B15139   1.668  13.165   8.670
 1001POPC   C2B15140   1.501  13.118   8.233
 1001POPC   C3B15141   1.504  12.951   7.835
 1001POPC   C4B15142   1.691  13.068   7.452
 1002POPC   NC315143  36.403  33.896   9.484
 1002POPC   PO415144  35.767  33.500   9.462
 1002POPC   GL115145  36.024  33.758   9.154
 1002POPC   GL215146  36.389  33.719   9.023
 1002POPC   C1A15147  36.120  34.048   8.783
 1002POPC   D2A15148  36.314  34.218   8.396
 1002POPC   C3A15149  36.176  34.057   8.028
 1002POPC   C4A15150  36.087  33.839   7.628
 1002POPC   C1B15151  36.603  33.850   8.659
 1002POPC   C2B15152  36.351  33.687   8.335
 1002POPC   C3B15153  36.424  33.589   7.918
 1002POPC   C4B15154  36.234  33.362   7.567
 1003POPC   NC315155  40.656  44.802   9.846
 1003POPC   PO415156  40.696   0.415   9.561
 1003POPC   GL115157  40.807   0.420   9.151
 1003POPC   GL215158  41.103   0.180   9.135
 1003POPC   C1A15159  40.592   0.507   8.743
 1003POPC   D2A15160  40.721   0.770   8.371
 1003POPC   C3A15161  40.633   0.655   7.896
 1003POPC   C4A15162  40.405   0.675   7.464
 1003POPC   C1B15163  41.085   0.359   8.728
 1003POPC   C2B15164  40.895   0.246   8.354
 1003POPC   C3B15165  41.046   0.339   7.972
 1003POPC   C4B15166  40.894   0.314   7.574
 1004POPC   NC315167   0.683   0.584   9.576
 1004POPC   PO415168   0.122   0.311   9.699
 1004POPC   GL115169   0.238   0.612   9.292
 1004POPC   GL215170   0.523   0.446   9.105
 1004POPC   C1A15171   0.221   0.703   8.790
 1004POPC   D2A15172   0.086   0.518   8.352
 1004POPC   C3A15173   0.320   0.597   7.926
 1004POPC   C4A15174   0.253   0.738   7.464
 1004POPC   C1B15175   0.551   0.104   8.779
 1004POPC   C2B15176   0.426   0.110   8.352
 1004POPC   C3B15177   0.592   0.055   7.956
 1004POPC   C4B15178   0.964   0.222   7.720
 1005POPC   NC315179  23.913  18.485   9.369
 1005POPC   PO415180  23.305  18.200   9.514
 1005POPC   GL115181  23.560  18.169   9.156
 1005POPC   GL215182  23.487  18.540   9.097
 1005POPC   C1A15183  23.850  18.104   8.774
 1005POPC   D2A15184  23.744  17.938   8.354
 1005POPC   C3A15185  23.941  18.202   8.058
 1005POPC   C4A15186  23.867  18.419   7.691
 1005POPC   C1B15187  23.464  18.408   8.685
 1005POPC   C2B15188  23.532  18.414   8.280
 1005POPC   C3B15189  23.431  18.237   7.904
 1005POPC   C4B15190  23.388  18.434   7.486
 1006POPC   NC315191  12.323  34.071   9.497
 1006POPC   PO415192  11.926  33.544   9.623
 1006POPC   GL115193  12.018  33.746   9.219
 1006POPC   GL215194  12.351  33.708   9.164
 1006POPC   C1A15195  11.928  33.874   8.806
 1006POPC   D2A15196  12.000  33.705   8.416
 1006POPC   C3A15197  11.848  33.834   8.033
 1006POPC   C4A15198  11.784  33.526   7.747
 1006POPC   C1B15199  12.428  33.908   8.777
 1006POPC   C2B15200  12.530  33.748   8.403
 1006POPC   C3B15201  12.344  33.744   8.030
 1006POPC   C4B15202  12.247  33.925   7.671
 1007POPC   NC315203  41.001  41.864   9.510
 1007POPC   PO415204  40.714  41.140   9.489
 1007POPC   GL115205  40.879  41.273   9.134
 1007POPC   GL215206  40.898  41.606   9.102
 1007POPC   C1A15207  40.682  41.293   8.753
 1007POPC   D2A15208  40.442  41.108   8.448
 1007POPC   C3A15209  40.721  41.270   8.166
 1007POPC   C4A15210  40.861  41.257   7.757
 1007POPC   C1B15211  40.740  41.833   8.781
 1007POPC   C2B15212  40.857  41.719   8.394
 1007POPC   C3B15213  41.015  41.671   7.996
 1007POPC   C4B15214  40.831  41.828   7.618
 1008POPC   NC315215  13.442  37.218   9.555
 1008POPC   PO415216  13.830  36.642   9.512
 1008POPC   GL115217  13.781  36.994   9.224
 1008POPC   GL215218  13.457  36.931   9.147
 1008POPC   C1A15219  13.787  36.994   8.761
 1008POPC   D2A15220  14.006  36.825   8.388
 1008POPC   C3A15221  13.743  36.748   8.036
 1008POPC   C4A15222  13.691  37.098   7.751
 1008POPC   C1B15223  13.237  37.051   8.816
 1008POPC   C2B15224  13.398  36.877   8.436
 1008POPC   C3B15225  13.289  37.018   8.065
 1008POPC   C4B15226  13.172  37.175   7.703
 1009POPC   NC315227  13.856  18.840   9.469
 1009POPC   PO415228  13.880  19.457   9.704
 1009POPC   GL115229  13.864  19.296   9.212
 1009POPC   GL215230  13.626  19.103   9.092
 1009POPC   C1A15231  13.990  19.041   8.778
 1009POPC   D2A15232  13.771  18.990   8.372
 1009POPC   C3A15233  13.763  18.969   7.952
 1009POPC   C4A15234  13.792  19.288   7.656
 1009POPC   C1B15235  13.454  19.171   8.709
 1009POPC   C2B15236  13.261  19.062   8.297
 1009POPC   C3B15237  13.217  18.810   7.971
 1009POPC   C4B15238  13.394  18.908   7.587
 1010POPC   NC315239  16.793  24.185   9.400
 1010POPC   PO415240  16.550  24.818   9.430
 1010POPC   GL115241  16.676  24.586   9.099
 1010POPC   GL215242  16.453  24.287   9.033
 1010POPC   C1A15243  16.814  24.590   8.695
 1010POPC   D2A15244  16.647  24.765   8.333
 1010POPC   C3A15245  16.869  24.557   8.009
 1010POPC   C4A15246  16.774  24.452   7.582
 1010POPC   C1B15247  16.287  24.425   8.648
 1010POPC   C2B15248  16.383  24.303   8.248
 1010POPC   C3B15249  16.563  24.117   7.905
 1010POPC   C4B15250  17.000  24.075   7.823
 1011POPC   NC315251  20.813  21.799   9.603
 1011POPC   PO415252  20.391  22.350   9.582
 1011POPC   GL115253  20.434  22.017   9.279
 1011POPC   GL215254  20.794  21.991   9.127
 1011POPC   C1A15255  20.345  21.967   8.853
 1011POPC   D2A15256  20.323  22.232   8.494
 1011POPC   C3A15257  20.440  22.036   8.101
 1011POPC   C4A15258  20.440  22.159   7.668
 1011POPC   C1B15259  20.811  22.089   8.671
 1011POPC   C2B15260  20.812  22.446   8.378
 1011POPC   C3B15261  20.839  22.360   7.942
 1011POPC   C4B15262  20.867  21.903   7.815
 1012POPC   NC315263  35.331   2.627   9.596
 1012POPC   PO415264  35.100   2.939   9.055
 1012POPC   GL115265  35.276   2.594   8.929
 1012POPC   GL215266  35.567   2.490   9.163
 1012POPC   C1A15267  35.354   2.635   8.463
 1012POPC   D2A15268  35.455   2.996   8.166
 1012POPC   C3A15269  35.162   2.930   7.817
 1012POPC   C4A15270  35.095   2.540   7.646
 1012POPC   C1B15271  35.747   2.504   8.770
 1012POPC   C2B15272  35.744   2.287   8.413
 1012POPC   C3B15273  35.706   2.497   8.098
 1012POPC   C4B15274  35.595   2.682   7.753
 1013POPC   NC315275   5.879  23.392   9.487
 1013POPC   PO415276   6.376  23.926   9.463
 1013POPC   GL115277   6.063  23.989   9.141
 1013POPC   GL215278   5.748  23.824   9.174
 1013POPC   C1A15279   5.961  23.923   8.703
 1013POPC   D2A15280   5.742  24.026   8.334
 1013POPC   C3A15281   5.955  23.926   7.955
 1013POPC   C4A15282   5.942  23.981   7.534
 1013POPC   C1B15283   5.674  23.507   8.834
 1013POPC   C2B15284   5.841  23.497   8.398
 1013POPC   C3B15285   5.621  23.554   8.024
 1013POPC   C4B15286   5.678  23.521   7.613
 1014POPC   NC315287   1.492  39.524   9.289
 1014POPC   PO415288   1.391  38.973   9.668
 1014POPC   GL115289   1.098  39.215   9.270
 1014POPC   GL215290   1.150  39.054   8.931
 1014POPC   C1A15291   0.871  39.487   8.930
 1014POPC   D2A15292   0.793  39.562   8.454
 1014POPC   C3A15293   0.990  39.296   8.109
 1014POPC   C4A15294   0.807  39.029   7.781
 1014POPC   C1B15295   1.319  39.423   8.663
 1014POPC   C2B15296   1.431  39.544   8.254
 1014POPC   C3B15297   1.505  39.222   7.955
 1014POPC   C4B15298   1.758  39.235   7.604
 1015POPC   NC315299   8.883   7.676   9.480
 1015POPC   PO415300   9.107   7.041   9.331
 1015POPC   GL115301   9.116   7.460   9.067
 1015POPC   GL215302   8.795   7.703   9.000
 1015POPC   C1A15303   9.133   7.560   8.630
 1015POPC   D2A15304   9.006   7.352   8.279
 1015POPC   C3A15305   9.150   7.437   7.897
 1015POPC   C4A15306   9.087   7.212   7.514
 1015POPC   C1B15307   8.642   7.419   8.718
 1015POPC   C2B15308   8.581   7.611   8.327
 1015POPC   C3B15309   8.675   7.627   7.907
 1015POPC   C4B15310   8.655   7.462   7.506
 1016POPC   NC315311  14.768  24.077   9.504
 1016POPC   PO415312  14.285  23.602   9.460
 1016POPC   GL115313  14.555  23.777   9.185
 1016POPC   GL215314  14.301  24.013   9.109
 1016POPC   C1A15315  14.651  23.827   8.785
 1016POPC   D2A15316  14.559  23.663   8.424
 1016POPC   C3A15317  14.606  23.915   8.103
 1016POPC   C4A15318  14.365  23.702   7.850
 1016POPC   C1B15319  14.111  23.721   8.801
 1016POPC   C2B15320  14.090  23.486   8.407
 1016POPC   C3B15321  14.132  23.280   8.022
 1016POPC   C4B15322  13.870  23.572   7.808
 1017POPC   NC315323  33.235  25.999   9.550
 1017POPC   PO415324  32.757  26.282   9.248
 1017POPC   GL115325  33.085  26.063   9.039
 1017POPC   GL215326  33.147  25.714   9.075
 1017POPC   C1A15327  33.113  26.105   8.618
 1017POPC   D2A15328  32.936  26.275   8.303
 1017POPC   C3A15329  33.110  26.115   7.984
 1017POPC   C4A15330  32.919  26.196   7.632
 1017POPC   C1B15331  32.890  25.648   8.714
 1017POPC   C2B15332  32.787  25.773   8.314
 1017POPC   C3B15333  32.660  25.844   7.924
 1017POPC   C4B15334  32.673  25.542   7.593
 1018POPC   NC315335   9.124  41.118   9.449
 1018POPC   PO415336   9.532  40.625   9.736
 1018POPC   GL115337   9.292  40.636   9.248
 1018POPC   GL215338   8.927  40.572   9.137
 1018POPC   C1A15339   9.148  40.866   8.819
 1018POPC   D2A15340   8.944  41.123   8.485
 1018POPC   C3A15341   9.070  41.035   8.064
 1018POPC   C4A15342   8.717  40.906   7.828
 1018POPC   C1B15343   8.727  40.617   8.685
 1018POPC   C2B15344   8.927  40.561   8.261
 1018POPC   C3B15345   8.900  40.424   7.816
 1018POPC   C4B15346   8.742  40.579   7.432
 1019POPC   NC315347  28.491  27.226   9.443
 1019POPC   PO415348  28.180  27.811   9.631
 1019POPC   GL115349  28.254  27.815   9.196
 1019POPC   GL215350  28.152  27.474   9.157
 1019POPC   C1A15351  28.445  27.631   8.776
 1019POPC   D2A15352  28.565  27.464   8.352
 1019POPC   C3A15353  28.456  27.611   7.914
 1019POPC   C4A15354  28.679  27.310   7.600
 1019POPC   C1B15355  27.955  27.772   8.805
 1019POPC   C2B15356  28.072  27.666   8.409
 1019POPC   C3B15357  28.030  27.898   8.063
 1019POPC   C4B15358  27.949  27.722   7.689
 1020POPC   NC315359  11.520  24.798   9.481
 1020POPC   PO415360  11.422  25.528   9.349
 1020POPC   GL115361  11.271  25.387   9.006
 1020POPC   GL215362  11.118  25.106   9.126
 1020POPC   C1A15363  11.282  25.403   8.577
 1020POPC   D2A15364  11.254  25.031   8.345
 1020POPC   C3A15365  11.592  24.952   8.079
 1020POPC   C4A15366  11.391  25.196   7.781
 1020POPC   C1B15367  10.911  25.095   8.739
 1020POPC   C2B15368  10.683  25.064   8.386
 1020POPC   C3B15369  10.854  25.092   8.011
 1020POPC   C4B15370  10.933  25.041   7.605
 1021POPC   NC315371  23.072   2.046   9.454
 1021POPC   PO415372  22.469   1.997   9.461
 1021POPC   GL115373  22.696   2.116   9.123
 1021POPC   GL215374  22.873   1.789   9.046
 1021POPC   C1A15375  22.930   2.215   8.751
 1021POPC   D2A15376  23.009   1.929   8.409
 1021POPC   C3A15377  22.982   1.986   7.954
 1021POPC   C4A15378  23.143   2.370   7.753
 1021POPC   C1B15379  22.718   1.505   8.709
 1021POPC   C2B15380  22.588   1.581   8.268
 1021POPC   C3B15381  22.499   1.540   7.798
 1021POPC   C4B15382  22.591   1.796   7.392
 1022POPC   NC315383   7.639   0.615   9.602
 1022POPC   PO415384   6.971   0.336   9.557
 1022POPC   GL115385   7.250   0.390   9.209
 1022POPC   GL215386   7.593   0.330   9.187
 1022POPC   C1A15387   7.244   0.284   8.778
 1022POPC   D2A15388   7.244   0.430   8.375
 1022POPC   C3A15389   7.318   0.134   8.046
 1022POPC   C4A15390   7.461   0.249   7.654
 1022POPC   C1B15391   7.695   0.513   8.761
 1022POPC   C2B15392   7.642   0.778   8.416
 1022POPC   C3B15393   7.607   0.582   8.045
 1022POPC   C4B15394   7.848   0.588   7.709
 1023POPC   NC315395   1.900   3.338   9.338
 1023POPC   PO415396   1.713   4.082   9.395
 1023POPC   GL115397   1.931   3.826   9.096
 1023POPC   GL215398   1.619   3.658   9.036
 1023POPC   C1A15399   2.216   3.819   8.706
 1023POPC   D2A15400   2.312   3.936   8.240
 1023POPC   C3A15401   2.313   3.616   7.888
 1023POPC   C4A15402   2.147   3.564   7.456
 1023POPC   C1B15403   1.796   3.411   8.687
 1023POPC   C2B15404   2.010   3.457   8.288
 1023POPC   C3B15405   1.812   3.480   7.862
 1023POPC   C4B15406   1.607   3.460   7.459
 1024POPC   NC315407   0.116   3.328   9.530
 1024POPC   PO415408   0.825   3.668   9.595
 1024POPC   GL115409   0.634   3.551   9.199
 1024POPC   GL215410   0.585   3.917   9.200
 1024POPC   C1A15411   0.761   3.306   8.797
 1024POPC   D2A15412   0.754   3.072   8.407
 1024POPC   C3A15413   0.445   3.245   8.137
 1024POPC   C4A15414   0.461   3.547   7.799
 1024POPC   C1B15415   0.333   3.843   8.809
 1024POPC   C2B15416   0.379   3.766   8.351
 1024POPC   C3B15417   0.314   4.023   7.986
 1024POPC   C4B15418   0.297   3.964   7.535
 1025POPC   NC315419  33.484  19.760   9.727
 1025POPC   PO415420  33.761  19.442   9.174
 1025POPC   GL115421  33.618  19.700   8.894
 1025POPC   GL215422  33.436  19.970   9.006
 1025POPC   C1A15423  33.790  19.643   8.509
 1025POPC   D2A15424  34.112  19.713   8.274
 1025POPC   C3A15425  33.975  19.675   7.928
 1025POPC   C4A15426  33.555  19.614   7.827
 1025POPC   C1B15427  33.599  20.174   8.679
 1025POPC   C2B15428  33.770  20.120   8.309
 1025POPC   C3B15429  33.682  20.090   7.908
 1025POPC   C4B15430  34.057  20.114   7.683
 1026POPC   NC315431  30.585  19.514   9.493
 1026POPC   PO415432  31.004  20.054   9.476
 1026POPC   GL115433  30.776  19.863   9.153
 1026POPC   GL215434  30.998  19.637   9.102
 1026POPC   C1A15435  30.788  19.879   8.685
 1026POPC   D2A15436  30.902  20.051   8.294
 1026POPC   C3A15437  31.049  19.775   7.955
 1026POPC   C4A15438  31.066  19.893   7.484
 1026POPC   C1B15439  30.765  19.399   8.832
 1026POPC   C2B15440  30.488  19.490   8.479
 1026POPC   C3B15441  30.616  19.412   8.033
 1026POPC   C4B15442  30.765  19.503   7.621
 1027POPC   NC315443  28.007  38.342   9.638
 1027POPC   PO415444  27.346  38.441   9.736
 1027POPC   GL115445  27.637  38.251   9.333
 1027POPC   GL215446  27.748  38.521   9.137
 1027POPC   C1A15447  27.604  38.067   8.900
 1027POPC   D2A15448  27.484  38.411   8.623
 1027POPC   C3A15449  27.332  38.384   8.198
 1027POPC   C4A15450  27.537  38.398   7.806
 1027POPC   C1B15451  27.847  38.769   8.757
 1027POPC   C2B15452  27.718  38.733   8.299
 1027POPC   C3B15453  27.860  38.794   7.883
 1027POPC   C4B15454  28.161  38.569   7.629
 1028POPC   NC315455  34.725  25.669   9.364
 1028POPC   PO415456  34.916  25.028   9.441
 1028POPC   GL115457  34.641  25.249   9.083
 1028POPC   GL215458  34.394  25.549   8.989
 1028POPC   C1A15459  34.752  25.467   8.655
 1028POPC   D2A15460  34.598  25.653   8.252
 1028POPC   C3A15461  34.912  25.568   7.972
 1028POPC   C4A15462  34.790  25.175   7.851
 1028POPC   C1B15463  34.295  25.183   8.727
 1028POPC   C2B15464  34.485  25.146   8.323
 1028POPC   C3B15465  34.311  25.284   7.944
 1028POPC   C4B15466  34.273  24.882   7.738
 1029POPC   NC315467   3.976  28.285   9.537
 1029POPC   PO415468   4.642  28.308   9.572
 1029POPC   GL115469   4.358  28.509   9.271
 1029POPC   GL215470   4.325  28.192   9.150
 1029POPC   C1A15471   4.359  28.635   8.803
 1029POPC   D2A15472   4.595  28.725   8.390
 1029POPC   C3A15473   4.351  28.717   7.980
 1029POPC   C4A15474   4.319  28.563   7.536
 1029POPC   C1B15475   4.140  28.179   8.757
 1029POPC   C2B15476   4.237  28.356   8.339
 1029POPC   C3B15477   4.230  28.211   7.898
 1029POPC   C4B15478   3.825  28.044   7.744
 1030POPC   NC315479  29.835   0.175   9.449
 1030POPC   PO415480  29.461   0.700   9.300
 1030POPC   GL115481  29.730   0.459   9.051
 1030POPC   GL215482  29.473   0.223   9.065
 1030POPC   C1A15483  29.901   0.263   8.637
 1030POPC   D2A15484  29.867   0.472   8.259
 1030POPC   C3A15485  30.035   0.388   7.867
 1030POPC   C4A15486  29.974   0.769   7.588
 1030POPC   C1B15487  29.431   0.450   8.663
 1030POPC   C2B15488  29.397   0.286   8.293
 1030POPC   C3B15489  29.506   0.324   7.896
 1030POPC   C4B15490  29.684   0.353   7.505
 1031POPC   NC315491  13.725  22.252   9.555
 1031POPC   PO415492  13.947  22.730   9.221
 1031POPC   GL115493  13.628  22.403   8.995
 1031POPC   GL215494  13.646  22.036   9.093
 1031POPC   C1A15495  13.426  22.152   8.651
 1031POPC   D2A15496  13.124  21.906   8.405
 1031POPC   C3A15497  13.206  22.089   8.033
 1031POPC   C4A15498  13.279  22.384   7.692
 1031POPC   C1B15499  13.942  21.843   8.787
 1031POPC   C2B15500  13.954  21.825   8.367
 1031POPC   C3B15501  13.641  21.866   8.132
 1031POPC   C4B15502  13.595  21.993   7.706
 1032POPC   NC315503   3.668  27.335   9.631
 1032POPC   PO415504   3.935  26.727   9.481
 1032POPC   GL115505   3.736  26.695   9.072
 1032POPC   GL215506   3.555  26.994   9.043
 1032POPC   C1A15507   3.603  26.678   8.638
 1032POPC   D2A15508   3.574  26.621   8.193
 1032POPC   C3A15509   3.304  26.375   7.935
 1032POPC   C4A15510   3.514  26.577   7.603
 1032POPC   C1B15511   3.398  27.199   8.672
 1032POPC   C2B15512   3.349  27.080   8.248
 1032POPC   C3B15513   3.494  27.020   7.823
 1032POPC   C4B15514   3.262  26.945   7.388
 1033POPC   NC315515  27.961  22.058   9.329
 1033POPC   PO415516  27.317  22.063   9.509
 1033POPC   GL115517  27.275  22.140   9.085
 1033POPC   GL215518  27.646  22.188   8.967
 1033POPC   C1A15519  27.258  22.303   8.673
 1033POPC   D2A15520  27.629  22.221   8.412
 1033POPC   C3A15521  27.566  22.287   7.979
 1033POPC   C4A15522  27.339  21.967   7.813
 1033POPC   C1B15523  27.912  21.854   8.741
 1033POPC   C2B15524  27.842  21.684   8.384
 1033POPC   C3B15525  27.862  21.879   7.985
 1033POPC   C4B15526  27.804  22.005   7.541
 1034POPC   NC315527   3.386  35.655   9.372
 1034POPC   PO415528   3.736  35.120   9.616
 1034POPC   GL115529   3.472  35.144   9.171
 1034POPC   GL215530   3.291  34.861   9.071
 1034POPC   C1A15531   3.500  35.065   8.655
 1034POPC   D2A15532   3.499  35.441   8.386
 1034POPC   C3A15533   3.856  35.473   8.110
 1034POPC   C4A15534   3.704  35.374   7.705
 1034POPC   C1B15535   3.072  35.229   8.836
 1034POPC   C2B15536   3.026  35.153   8.387
 1034POPC   C3B15537   3.218  35.147   7.957
 1034POPC   C4B15538   3.188  35.440   7.598
 1035POPC   NC315539  30.592   4.601   9.547
 1035POPC   PO415540  30.863   3.994   9.456
 1035POPC   GL115541  30.575   4.240   9.172
 1035POPC   GL215542  30.692   4.564   9.028
 1035POPC   C1A15543  30.497   4.133   8.745
 1035POPC   D2A15544  30.810   4.302   8.466
 1035POPC   C3A15545  30.895   4.107   8.085
 1035POPC   C4A15546  30.719   4.063   7.673
 1035POPC   C1B15547  30.383   4.621   8.678
 1035POPC   C2B15548  30.334   4.425   8.262
 1035POPC   C3B15549  30.653   4.541   7.975
 1035POPC   C4B15550  30.826   4.947   7.925
 1036POPC   NC315551   5.602  12.479   9.794
 1036POPC   PO415552   5.096  12.913   9.469
 1036POPC   GL115553   4.976  12.848   9.076
 1036POPC   GL215554   4.980  12.503   9.090
 1036POPC   C1A15555   5.064  13.009   8.664
 1036POPC   D2A15556   4.853  12.777   8.344
 1036POPC   C3A15557   4.947  12.928   7.938
 1036POPC   C4A15558   5.392  12.942   7.861
 1036POPC   C1B15559   5.200  12.534   8.710
 1036POPC   C2B15560   5.360  12.671   8.339
 1036POPC   C3B15561   5.227  12.478   7.977
 1036POPC   C4B15562   5.455  12.493   7.613
 1037POPC   NC315563  35.704  22.362   9.449
 1037POPC   PO415564  35.172  21.940   9.424
 1037POPC   GL115565  35.383  22.156   9.091
 1037POPC   GL215566  35.307  22.505   9.149
 1037POPC   C1A15567  35.209  22.163   8.681
 1037POPC   D2A15568  35.153  21.800   8.407
 1037POPC   C3A15569  35.219  21.933   7.981
 1037POPC   C4A15570  35.570  21.910   7.725
 1037POPC   C1B15571  35.577  22.536   8.772
 1037POPC   C2B15572  35.640  22.271   8.392
 1037POPC   C3B15573  35.544  22.385   7.967
 1037POPC   C4B15574  35.173  22.535   7.758
 1038POPC   NC315575  37.885  14.949   9.649
 1038POPC   PO415576  37.585  15.526   9.518
 1038POPC   GL115577  37.520  15.141   9.291
 1038POPC   GL215578  37.443  15.360   9.063
 1038POPC   C1A15579  37.628  14.984   8.826
 1038POPC   D2A15580  37.856  15.097   8.457
 1038POPC   C3A15581  37.624  15.088   8.082
 1038POPC   C4A15582  37.748  14.880   7.703
 1038POPC   C1B15583  37.785  15.496   8.821
 1038POPC   C2B15584  37.935  15.602   8.428
 1038POPC   C3B15585  38.024  15.471   8.035
 1038POPC   C4B15586  37.755  15.392   7.688
 1039POPC   NC315587  26.307  32.283   9.462
 1039POPC   PO415588  25.738  31.950   9.557
 1039POPC   GL115589  25.900  32.088   9.167
 1039POPC   GL215590  25.835  32.438   9.294
 1039POPC   C1A15591  26.069  31.933   8.752
 1039POPC   D2A15592  26.304  32.052   8.387
 1039POPC   C3A15593  26.112  32.253   8.041
 1039POPC   C4A15594  26.282  32.618   7.781
 1039POPC   C1B15595  25.689  32.475   8.890
 1039POPC   C2B15596  25.842  32.369   8.499
 1039POPC   C3B15597  25.584  32.429   8.143
 1039POPC   C4B15598  25.780  32.480   7.737
 1040POPC   NC315599  32.745  12.724   9.427
 1040POPC   PO415600  33.106  13.173   9.486
 1040POPC   GL115601  33.149  13.002   9.101
 1040POPC   GL215602  33.108  12.638   9.109
 1040POPC   C1A15603  32.971  13.077   8.679
 1040POPC   D2A15604  32.752  13.077   8.288
 1040POPC   C3A15605  33.055  12.995   7.967
 1040POPC   C4A15606  32.828  12.883   7.657
 1040POPC   C1B15607  32.891  12.582   8.746
 1040POPC   C2B15608  33.038  12.658   8.350
 1040POPC   C3B15609  32.907  12.491   7.968
 1040POPC   C4B15610  33.169  12.513   7.595
 1041POPC   NC315611  35.102  31.006   9.374
 1041POPC   PO415612  35.537  30.596   9.672
 1041POPC   GL115613  35.386  30.575   9.217
 1041POPC   GL215614  35.590  30.332   9.100
 1041POPC   C1A15615  35.307  30.770   8.784
 1041POPC   D2A15616  35.431  30.675   8.393
 1041POPC   C3A15617  35.282  30.693   8.017
 1041POPC   C4A15618  35.380  30.719   7.623
 1041POPC   C1B15619  35.744  30.433   8.712
 1041POPC   C2B15620  35.921  30.510   8.327
 1041POPC   C3B15621  35.711  30.412   7.996
 1041POPC   C4B15622  35.785  30.427   7.577
 1042POPC   NC315623  22.034  34.474   9.604
 1042POPC   PO415624  22.645  34.206   9.493
 1042POPC   GL115625  22.325  34.300   9.196
 1042POPC   GL215626  22.304  34.639   9.153
 1042POPC   C1A15627  22.057  34.348   8.805
 1042POPC   D2A15628  22.186  34.429   8.369
 1042POPC   C3A15629  22.009  34.522   7.962
 1042POPC   C4A15630  21.774  34.436   7.552
 1042POPC   C1B15631  22.489  34.911   8.861
 1042POPC   C2B15632  22.361  34.905   8.440
 1042POPC   C3B15633  22.471  34.984   8.025
 1042POPC   C4B15634  22.284  34.874   7.678
 1043POPC   NC315635  41.604  31.668   9.416
 1043POPC   PO415636  41.968  31.108   9.377
 1043POPC   GL115637  41.578  31.253   9.080
 1043POPC   GL215638  41.289  31.557   9.052
 1043POPC   C1A15639  41.533  31.358   8.636
 1043POPC   D2A15640  41.352  31.225   8.254
 1043POPC   C3A15641  41.525  31.189   7.833
 1043POPC   C4A15642  41.722  31.495   7.540
 1043POPC   C1B15643  41.432  31.900   8.758
 1043POPC   C2B15644  41.541  31.967   8.325
 1043POPC   C3B15645  41.517  31.664   8.015
 1043POPC   C4B15646  41.230  31.599   7.684
 1044POPC   NC315647  26.658  10.136   9.490
 1044POPC   PO415648  26.724  10.802   9.350
 1044POPC   GL115649  26.631  10.459   9.058
 1044POPC   GL215650  26.942  10.253   9.062
 1044POPC   C1A15651  26.668  10.351   8.607
 1044POPC   D2A15652  26.365  10.193   8.299
 1044POPC   C3A15653  26.526  10.473   8.009
 1044POPC   C4A15654  26.847  10.411   7.733
 1044POPC   C1B15655  27.056  10.643   8.819
 1044POPC   C2B15656  26.983  10.717   8.399
 1044POPC   C3B15657  27.147  10.766   8.028
 1044POPC   C4B15658  27.235  10.842   7.649
 1045POPC   NC315659  18.732  32.479   9.538
 1045POPC   PO415660  19.265  32.018   9.605
 1045POPC   GL115661  19.059  32.187   9.205
 1045POPC   GL215662  18.932  32.512   9.079
 1045POPC   C1A15663  19.114  32.186   8.742
 1045POPC   D2A15664  19.409  32.054   8.454
 1045POPC   C3A15665  19.141  32.040   8.121
 1045POPC   C4A15666  19.127  32.193   7.741
 1045POPC   C1B15667  18.669  32.438   8.745
 1045POPC   C2B15668  18.683  32.226   8.375
 1045POPC   C3B15669  18.709  32.380   7.963
 1045POPC   C4B15670  18.632  32.342   7.515
 1046POPC   NC315671  42.020   0.148   9.579
 1046POPC   PO415672  42.578   0.472   9.387
 1046POPC   GL115673  42.356   0.197   9.127
 1046POPC   GL215674  42.008   0.317   9.104
 1046POPC   C1A15675  42.562   0.210   8.725
 1046POPC   D2A15676  42.484   0.467   8.380
 1046POPC   C3A15677  42.653   0.291   8.040
 1046POPC   C4A15678  42.445   0.158   7.693
 1046POPC   C1B15679  42.102   0.438   8.731
 1046POPC   C2B15680  42.031   0.221   8.376
 1046POPC   C3B15681  42.075   0.397   7.978
 1046POPC   C4B15682  41.901   0.128   7.703
 1047POPC   NC315683  17.291  34.156   9.444
 1047POPC   PO415684  17.871  34.480   9.482
 1047POPC   GL115685  17.537  34.592   9.203
 1047POPC   GL215686  17.166  34.572   9.180
 1047POPC   C1A15687  17.529  34.554   8.780
 1047POPC   D2A15688  17.835  34.391   8.442
 1047POPC   C3A15689  17.715  34.450   7.986
 1047POPC   C4A15690  17.657  34.529   7.517
 1047POPC   C1B15691  17.008  34.413   8.795
 1047POPC   C2B15692  17.015  34.581   8.404
 1047POPC   C3B15693  17.186  34.525   8.001
 1047POPC   C4B15694  17.244  34.777   7.642
 1048POPC   NC315695   2.016  41.204   9.679
 1048POPC   PO415696   1.528  41.586   9.479
 1048POPC   GL115697   1.824  41.535   9.165
 1048POPC   GL215698   2.146  41.395   9.202
 1048POPC   C1A15699   2.022  41.647   8.760
 1048POPC   D2A15700   2.221  41.606   8.344
 1048POPC   C3A15701   1.968  41.774   8.030
 1048POPC   C4A15702   1.874  41.556   7.686
 1048POPC   C1B15703   2.321  41.236   8.811
 1048POPC   C2B15704   2.231  41.089   8.374
 1048POPC   C3B15705   2.253  41.238   7.940
 1048POPC   C4B15706   2.429  41.613   7.770
 1049POPC   NC315707  35.890  33.048   9.390
 1049POPC   PO415708  36.524  33.414   9.403
 1049POPC   GL115709  36.257  33.238   9.104
 1049POPC   GL215710  36.344  32.886   9.100
 1049POPC   C1A15711  36.052  33.414   8.730
 1049POPC   D2A15712  35.711  33.377   8.413
 1049POPC   C3A15713  35.964  33.340   8.019
 1049POPC   C4A15714  36.351  33.083   7.994
 1049POPC   C1B15715  36.007  32.878   8.790
 1049POPC   C2B15716  35.965  32.925   8.370
 1049POPC   C3B15717  35.846  32.852   7.978
 1049POPC   C4B15718  36.070  32.892   7.602
 1050POPC   NC315719  29.127  11.067   9.574
 1050POPC   PO415720  29.432  11.667   9.453
 1050POPC   GL115721  29.110  11.416   9.191
 1050POPC   GL215722  29.038  11.023   9.092
 1050POPC   C1A15723  29.260  11.389   8.784
 1050POPC   D2A15724  29.383  11.664   8.468
 1050POPC   C3A15725  29.378  11.454   8.085
 1050POPC   C4A15726  29.199  11.485   7.712
 1050POPC   C1B15727  28.779  11.193   8.787
 1050POPC   C2B15728  28.595  11.005   8.441
 1050POPC   C3B15729  28.750  10.926   8.038
 1050POPC   C4B15730  28.747  11.240   7.766
 1051POPC   NC315731  37.059   7.288   9.631
 1051POPC   PO415732  36.668   7.738   9.247
 1051POPC   GL115733  36.833   7.399   9.043
 1051POPC   GL215734  37.180   7.302   9.057
 1051POPC   C1A15735  36.941   7.456   8.634
 1051POPC   D2A15736  37.192   7.568   8.305
 1051POPC   C3A15737  36.912   7.637   7.935
 1051POPC   C4A15738  36.780   7.326   7.602
 1051POPC   C1B15739  37.223   7.034   8.721
 1051POPC   C2B15740  37.239   7.033   8.290
 1051POPC   C3B15741  37.200   7.220   7.901
 1051POPC   C4B15742  37.167   7.018   7.549
 1052POPC   NC315743   3.659  20.278   9.440
 1052POPC   PO415744   3.827  20.891   9.450
 1052POPC   GL115745   3.781  20.697   9.052
 1052POPC   GL215746   3.459  20.508   8.980
 1052POPC   C1A15747   3.828  20.632   8.615
 1052POPC   D2A15748   3.498  20.411   8.407
 1052POPC   C3A15749   3.476  20.492   7.980
 1052POPC   C4A15750   3.778  20.763   7.794
 1052POPC   C1B15751   3.725  20.168   8.801
 1052POPC   C2B15752   3.992  20.144   8.466
 1052POPC   C3B15753   3.808  20.120   8.101
 1052POPC   C4B15754   3.837  20.252   7.701
 1053POPC   NC315755  11.857   6.453   9.475
 1053POPC   PO415756  12.409   6.724   9.634
 1053POPC   GL115757  12.266   6.955   9.221
 1053POPC   GL215758  11.935   6.835   9.104
 1053POPC   C1A15759  12.242   6.955   8.722
 1053POPC   D2A15760  12.101   7.054   8.263
 1053POPC   C3A15761  12.332   6.859   7.894
 1053POPC   C4A15762  12.520   6.592   7.544
 1053POPC   C1B15763  11.779   6.691   8.670
 1053POPC   C2B15764  11.823   6.547   8.230
 1053POPC   C3B15765  11.906   6.297   7.831
 1053POPC   C4B15766  11.854   6.168   7.373
 1054POPC   NC315767  37.300  29.384   9.393
 1054POPC   PO415768  37.546  28.903   9.729
 1054POPC   GL115769  37.688  28.891   9.250
 1054POPC   GL215770  37.718  29.233   9.096
 1054POPC   C1A15771  37.717  28.807   8.788
 1054POPC   D2A15772  37.463  28.918   8.390
 1054POPC   C3A15773  37.638  28.903   7.962
 1054POPC   C4A15774  37.529  29.201   7.623
 1054POPC   C1B15775  37.487  29.435   8.726
 1054POPC   C2B15776  37.580  29.587   8.284
 1054POPC   C3B15777  37.876  29.394   7.963
 1054POPC   C4B15778  38.047  29.199   7.566
 1055POPC   NC315779  14.056  28.816   9.373
 1055POPC   PO415780  14.341  28.245   9.608
 1055POPC   GL115781  14.114  28.323   9.180
 1055POPC   GL215782  14.183  28.077   8.932
 1055POPC   C1A15783  14.031  28.553   8.754
 1055POPC   D2A15784  14.216  28.853   8.438
 1055POPC   C3A15785  14.175  28.692   8.013
 1055POPC   C4A15786  13.926  28.582   7.643
 1055POPC   C1B15787  14.512  28.335   8.709
 1055POPC   C2B15788  14.684  28.586   8.371
 1055POPC   C3B15789  14.607  28.387   7.996
 1055POPC   C4B15790  14.213  28.191   7.865
 1056POPC   NC315791  13.132  41.649   9.326
 1056POPC   PO415792  12.421  41.422   9.311
 1056POPC   GL115793  12.697  41.616   9.035
 1056POPC   GL215794  12.911  41.335   9.007
 1056POPC   C1A15795  12.871  41.720   8.630
 1056POPC   D2A15796  13.034  41.520   8.242
 1056POPC   C3A15797  12.707  41.441   7.910
 1056POPC   C4A15798  12.290  41.296   7.931
 1056POPC   C1B15799  13.097  41.198   8.667
 1056POPC   C2B15800  13.114  40.985   8.296
 1056POPC   C3B15801  13.124  41.151   7.896
 1056POPC   C4B15802  13.196  41.602   7.733
 1057POPC   NC315803  14.831  27.090   9.380
 1057POPC   PO415804  15.389  26.707   9.643
 1057POPC   GL115805  15.138  26.659   9.227
 1057POPC   GL215806  15.019  26.888   8.984
 1057POPC   C1A15807  15.267  26.523   8.794
 1057POPC   D2A15808  15.385  26.716   8.406
 1057POPC   C3A15809  15.148  26.656   8.040
 1057POPC   C4A15810  15.203  26.757   7.631
 1057POPC   C1B15811  14.877  27.090   8.640
 1057POPC   C2B15812  14.765  26.959   8.235
 1057POPC   C3B15813  14.760  26.909   7.800
 1057POPC   C4B15814  14.982  27.191   7.491
 1058POPC   NC315815  22.673  42.997   9.566
 1058POPC   PO415816  23.268  43.348   9.681
 1058POPC   GL115817  23.098  43.034   9.317
 1058POPC   GL215818  23.304  42.917   9.103
 1058POPC   C1A15819  22.834  42.978   8.907
 1058POPC   D2A15820  22.824  42.971   8.446
 1058POPC   C3A15821  22.931  43.321   8.149
 1058POPC   C4A15822  22.848  43.231   7.716
 1058POPC   C1B15823  23.294  42.939   8.692
 1058POPC   C2B15824  23.260  42.730   8.323
 1058POPC   C3B15825  23.202  42.919   7.949
 1058POPC   C4B15826  23.373  43.306   7.739
 1059POPC   NC315827  39.422  17.356   9.576
 1059POPC   PO415828  39.664  17.940   9.506
 1059POPC   GL115829  39.496  17.594   9.149
 1059POPC   GL215830  39.104  17.476   9.171
 1059POPC   C1A15831  39.388  17.575   8.747
 1059POPC   D2A15832  39.334  17.863   8.478
 1059POPC   C3A15833  39.451  17.765   8.092
 1059POPC   C4A15834  39.233  17.572   7.800
 1059POPC   C1B15835  38.904  17.400   8.760
 1059POPC   C2B15836  39.099  17.368   8.341
 1059POPC   C3B15837  39.098  17.119   7.964
 1059POPC   C4B15838  38.947  17.218   7.559
 1060POPC   NC315839   6.534  28.637   9.601
 1060POPC   PO415840   6.791  27.987   9.566
 1060POPC   GL115841   6.693  28.039   9.138
 1060POPC   GL215842   6.617  28.409   9.151
 1060POPC   C1A15843   6.843  28.162   8.734
 1060POPC   D2A15844   6.979  28.437   8.406
 1060POPC   C3A15845   6.857  28.167   8.072
 1060POPC   C4A15846   6.755  28.342   7.699
 1060POPC   C1B15847   6.414  28.473   8.782
 1060POPC   C2B15848   6.477  28.347   8.414
 1060POPC   C3B15849   6.561  28.576   8.102
 1060POPC   C4B15850   6.331  28.598   7.765
 1061POPC   NC315851   8.509  15.030   9.443
 1061POPC   PO415852   8.019  15.478   9.589
 1061POPC   GL115853   8.010  15.231   9.190
 1061POPC   GL215854   7.722  15.227   8.956
 1061POPC   C1A15855   8.218  15.119   8.786
 1061POPC   D2A15856   8.369  15.006   8.368
 1061POPC   C3A15857   8.218  15.237   8.012
 1061POPC   C4A15858   7.990  15.336   7.613
 1061POPC   C1B15859   7.805  14.844   8.663
 1061POPC   C2B15860   7.951  14.710   8.248
 1061POPC   C3B15861   7.876  14.882   7.814
 1061POPC   C4B15862   7.858  14.933   7.320
 1062POPC   NC315863  38.591  30.421   9.533
 1062POPC   PO415864  37.977  30.737   9.533
 1062POPC   GL115865  38.330  30.779   9.252
 1062POPC   GL215866  38.534  31.071   9.266
 1062POPC   C1A15867  38.554  30.678   8.881
 1062POPC   D2A15868  38.503  30.756   8.415
 1062POPC   C3A15869  38.373  30.559   8.000
 1062POPC   C4A15870  38.158  30.507   7.569
 1062POPC   C1B15871  38.477  31.172   8.814
 1062POPC   C2B15872  38.633  31.244   8.389
 1062POPC   C3B15873  38.494  31.077   7.993
 1062POPC   C4B15874  38.471  30.925   7.576
 1063POPC   NC315875  35.624   1.168   9.353
 1063POPC   PO415876  35.052   1.401   9.283
 1063POPC   GL115877  35.318   1.263   8.969
 1063POPC   GL215878  35.158   0.957   8.946
 1063POPC   C1A15879  35.480   1.458   8.615
 1063POPC   D2A15880  35.613   1.372   8.217
 1063POPC   C3A15881  35.383   1.385   7.815
 1063POPC   C4A15882  35.538   1.552   7.431
 1063POPC   C1B15883  34.984   1.222   8.610
 1063POPC   C2B15884  35.090   1.416   8.248
 1063POPC   C3B15885  34.841   1.268   7.908
 1063POPC   C4B15886  34.824   1.034   7.511
 1064POPC   NC315887  14.252  10.153   9.533
 1064POPC   PO415888  14.710  10.756   9.539
 1064POPC   GL115889  14.569  10.634   9.141
 1064POPC   GL215890  14.346  10.368   9.091
 1064POPC   C1A15891  14.307  10.791   8.794
 1064POPC   D2A15892  14.151  10.707   8.402
 1064POPC   C3A15893  14.455  10.850   8.147
 1064POPC   C4A15894  14.626  10.702   7.794
 1064POPC   C1B15895  14.579  10.373   8.713
 1064POPC   C2B15896  14.699  10.424   8.337
 1064POPC   C3B15897  14.454  10.285   8.046
 1064POPC   C4B15898  14.499  10.084   7.692
 1065POPC   NC315899  38.455  16.154   9.703
 1065POPC   PO415900  38.584  15.506   9.558
 1065POPC   GL115901  38.499  15.709   9.132
 1065POPC   GL215902  38.411  16.063   9.131
 1065POPC   C1A15903  38.701  15.879   8.756
 1065POPC   D2A15904  38.936  15.839   8.411
 1065POPC   C3A15905  38.815  15.937   8.012
 1065POPC   C4A15906  38.686  15.857   7.628
 1065POPC   C1B15907  38.199  15.912   8.748
 1065POPC   C2B15908  38.404  15.956   8.333
 1065POPC   C3B15909  38.266  15.994   7.922
 1065POPC   C4B15910  38.056  16.406   7.834
 1066POPC   NC315911   5.504  27.248   9.506
 1066POPC   PO415912   5.951  27.735   9.473
 1066POPC   GL115913   5.972  27.689   9.081
 1066POPC   GL215914   6.287  27.548   9.049
 1066POPC   C1A15915   5.684  27.577   8.788
 1066POPC   D2A15916   5.640  27.749   8.409
 1066POPC   C3A15917   5.576  27.547   8.046
 1066POPC   C4A15918   5.606  27.562   7.595
 1066POPC   C1B15919   6.167  27.534   8.625
 1066POPC   C2B15920   6.075  27.508   8.224
 1066POPC   C3B15921   6.039  27.702   7.866
 1066POPC   C4B15922   6.284  27.529   7.589
 1067POPC   NC315923  30.336  33.644   9.469
 1067POPC   PO415924  30.817  33.975   9.371
 1067POPC   GL115925  30.550  33.930   9.050
 1067POPC   GL215926  30.559  33.561   8.988
 1067POPC   C1A15927  30.644  34.003   8.621
 1067POPC   D2A15928  30.434  33.939   8.240
 1067POPC   C3A15929  30.524  33.985   7.802
 1067POPC   C4A15930  30.859  33.868   7.574
 1067POPC   C1B15931  30.984  33.654   8.810
 1067POPC   C2B15932  31.031  33.744   8.370
 1067POPC   C3B15933  30.792  33.596   8.017
 1067POPC   C4B15934  30.996  33.350   7.679
 1068POPC   NC315935  36.991  24.257   9.484
 1068POPC   PO415936  36.606  24.812   9.397
 1068POPC   GL115937  36.852  24.559   9.098
 1068POPC   GL215938  36.806  24.174   9.019
 1068POPC   C1A15939  36.904  24.641   8.686
 1068POPC   D2A15940  37.042  24.796   8.316
 1068POPC   C3A15941  36.800  24.708   7.993
 1068POPC   C4A15942  36.883  24.686   7.585
 1068POPC   C1B15943  36.845  24.079   8.583
 1068POPC   C2B15944  36.972  24.262   8.194
 1068POPC   C3B15945  36.758  24.211   7.794
 1068POPC   C4B15946  36.571  23.935   7.467
 1069POPC   NC315947  43.120   9.392   9.417
 1069POPC   PO415948  43.313  10.070   9.501
 1069POPC   GL115949  43.448   9.857   9.124
 1069POPC   GL215950  43.319   9.525   8.961
 1069POPC   C1A15951  43.568   9.878   8.686
 1069POPC   D2A15952  43.322   9.641   8.364
 1069POPC   C3A15953  43.203   9.894   8.004
 1069POPC   C4A15954  43.232   9.951   7.558
 1069POPC   C1B15955  42.944   9.472   8.708
 1069POPC   C2B15956  42.841   9.249   8.360
 1069POPC   C3B15957  42.996   9.401   7.968
 1069POPC   C4B15958  42.921   9.509   7.520
 1070POPC   NC315959   6.148  22.637   9.546
 1070POPC   PO415960   5.630  22.983   9.527
 1070POPC   GL115961   5.838  23.029   9.143
 1070POPC   GL215962   5.892  22.725   9.118
 1070POPC   C1A15963   5.956  23.087   8.701
 1070POPC   D2A15964   5.707  22.959   8.330
 1070POPC   C3A15965   5.859  23.109   7.940
 1070POPC   C4A15966   6.151  23.454   7.951
 1070POPC   C1B15967   6.107  22.612   8.780
 1070POPC   C2B15968   6.116  22.649   8.340
 1070POPC   C3B15969   5.766  22.544   8.033
 1070POPC   C4B15970   5.783  22.700   7.628
 1071POPC   NC315971   6.476  18.619   9.942
 1071POPC   PO415972   6.987  18.451   9.549
 1071POPC   GL115973   6.690  18.401   9.193
 1071POPC   GL215974   6.540  18.063   9.066
 1071POPC   C1A15975   6.785  18.416   8.763
 1071POPC   D2A15976   6.538  18.535   8.412
 1071POPC   C3A15977   6.705  18.447   8.034
 1071POPC   C4A15978   6.494  18.413   7.661
 1071POPC   C1B15979   6.464  18.051   8.622
 1071POPC   C2B15980   6.256  18.133   8.237
 1071POPC   C3B15981   6.400  17.963   7.861
 1071POPC   C4B15982   6.196  18.025   7.450
 1072POPC   NC315983  42.712  12.191   9.488
 1072POPC   PO415984  42.131  11.821   9.482
 1072POPC   GL115985  42.376  11.976   9.137
 1072POPC   GL215986  42.335  12.331   9.132
 1072POPC   C1A15987  42.350  12.018   8.694
 1072POPC   D2A15988  42.001  11.908   8.410
 1072POPC   C3A15989  42.154  11.954   7.978
 1072POPC   C4A15990  42.464  11.961   7.653
 1072POPC   C1B15991  42.026  12.393   8.756
 1072POPC   C2B15992  42.190  12.387   8.308
 1072POPC   C3B15993  42.138  12.494   7.858
 1072POPC   C4B15994  42.077  12.244   7.474
 1073POPC   NC315995  44.843  29.507   9.483
 1073POPC   PO415996  44.368  30.003   9.593
 1073POPC   GL115997  44.612  29.892   9.221
 1073POPC   GL215998  44.494  29.554   9.115
 1073POPC   C1A15999  44.790  29.886   8.788
 1073POPC   D2A16000  44.916  29.996   8.350
 1073POPC   C3A16001  44.989  29.797   7.968
 1073POPC   C4A16002  44.750  29.922   7.601
 1073POPC   C1B16003  44.681  29.396   8.725
 1073POPC   C2B16004  44.702  29.510   8.288
 1073POPC   C3B16005  44.506  29.598   7.899
 1073POPC   C4B16006  44.378  29.446   7.480
 1074POPC   NC316007  25.409  30.754   9.539
 1074POPC   PO416008  24.861  31.067   9.252
 1074POPC   GL116009  25.150  30.766   9.083
 1074POPC   GL216010  25.527  30.781   9.073
 1074POPC   C1A16011  25.183  30.845   8.649
 1074POPC   D2A16012  25.096  30.543   8.351
 1074POPC   C3A16013  24.917  30.782   8.048
 1074POPC   C4A16014  24.981  30.975   7.667
 1074POPC   C1B16015  25.527  30.521   8.806
 1074POPC   C2B16016  25.605  30.604   8.445
 1074POPC   C3B16017  25.546  30.482   8.085
 1074POPC   C4B16018  25.308  30.571   7.733
 1075POPC   NC316019  42.043  10.742   9.385
 1075POPC   PO416020  42.394  10.196   9.659
 1075POPC   GL116021  42.375  10.368   9.245
 1075POPC   GL216022  42.040  10.278   9.188
 1075POPC   C1A16023  42.389  10.555   8.816
 1075POPC   D2A16024  42.404  10.340   8.424
 1075POPC   C3A16025  42.268  10.573   8.071
 1075POPC   C4A16026  42.496  10.540   7.688
 1075POPC   C1B16027  42.108  10.134   8.779
 1075POPC   C2B16028  41.898  10.295   8.390
 1075POPC   C3B16029  41.890  10.223   7.974
 1075POPC   C4B16030  42.083  10.221   7.571
 1076POPC   NC316031  14.566  32.337   9.542
 1076POPC   PO416032  14.025  31.965   9.434
 1076POPC   GL116033  14.353  32.082   9.151
 1076POPC   GL216034  14.382  32.428   9.101
 1076POPC   C1A16035  14.601  32.100   8.779
 1076POPC   D2A16036  14.474  32.153   8.382
 1076POPC   C3A16037  14.351  31.850   8.067
 1076POPC   C4A16038  14.619  31.810   7.712
 1076POPC   C1B16039  14.426  32.647   8.726
 1076POPC   C2B16040  14.173  32.598   8.385
 1076POPC   C3B16041  14.174  32.354   8.038
 1076POPC   C4B16042  14.478  32.319   7.746
 1077POPC   NC316043  23.123  34.117   9.386
 1077POPC   PO416044  22.962  33.456   9.562
 1077POPC   GL116045  22.943  33.669   9.160
 1077POPC   GL216046  22.699  33.919   9.087
 1077POPC   C1A16047  22.879  33.542   8.723
 1077POPC   D2A16048  23.096  33.707   8.378
 1077POPC   C3A16049  23.180  33.641   7.959
 1077POPC   C4A16050  23.104  33.880   7.605
 1077POPC   C1B16051  22.910  34.051   8.756
 1077POPC   C2B16052  22.655  33.985   8.427
 1077POPC   C3B16053  22.794  34.012   8.040
 1077POPC   C4B16054  22.630  34.030   7.663
 1078POPC   NC316055   6.421  29.250   9.572
 1078POPC   PO416056   6.979  28.752   9.554
 1078POPC   GL116057   6.696  28.930   9.206
 1078POPC   GL216058   6.577  29.258   9.097
 1078POPC   C1A16059   6.657  28.900   8.755
 1078POPC   D2A16060   6.387  28.957   8.392
 1078POPC   C3A16061   6.598  29.065   7.981
 1078POPC   C4A16062   6.578  28.987   7.549
 1078POPC   C1B16063   6.796  29.395   8.737
 1078POPC   C2B16064   6.722  29.462   8.290
 1078POPC   C3B16065   6.726  29.572   7.841
 1078POPC   C4B16066   6.634  29.508   7.402
 1079POPC   NC316067   1.275   1.209   9.482
 1079POPC   PO416068   0.804   1.664   9.347
 1079POPC   GL116069   0.857   1.435   9.013
 1079POPC   GL216070   0.989   1.098   9.037
 1079POPC   C1A16071   0.932   1.436   8.590
 1079POPC   D2A16072   0.858   1.233   8.211
 1079POPC   C3A16073   1.210   1.308   7.937
 1079POPC   C4A16074   1.648   1.390   7.833
 1079POPC   C1B16075   1.010   0.915   8.595
 1079POPC   C2B16076   1.162   0.824   8.144
 1079POPC   C3B16077   1.308   0.727   7.708
 1079POPC   C4B16078   1.260   0.712   7.250
 1080POPC   NC316079  42.828  43.745   9.851
 1080POPC   PO416080  43.085  44.205   9.486
 1080POPC   GL116081  42.983  43.941   9.167
 1080POPC   GL216082  42.818  44.212   9.039
 1080POPC   C1A16083  43.068  43.695   8.776
 1080POPC   D2A16084  43.260  43.596   8.387
 1080POPC   C3A16085  43.070  43.717   8.023
 1080POPC   C4A16086  42.979  43.741   7.580
 1080POPC   C1B16087  42.843  44.187   8.668
 1080POPC   C2B16088  43.110  44.102   8.385
 1080POPC   C3B16089  43.067  44.221   8.011
 1080POPC   C4B16090  42.820  44.225   7.647
 1081POPC   NC316091  32.625  22.165   9.822
 1081POPC   PO416092  33.110  22.310   9.344
 1081POPC   GL116093  33.004  22.157   9.004
 1081POPC   GL216094  32.678  22.310   9.042
 1081POPC   C1A16095  33.136  22.270   8.602
 1081POPC   D2A16096  33.354  22.350   8.243
 1081POPC   C3A16097  33.094  22.391   7.917
 1081POPC   C4A16098  33.033  21.955   7.830
 1081POPC   C1B16099  32.617  22.221   8.645
 1081POPC   C2B16100  32.734  22.241   8.249
 1081POPC   C3B16101  32.556  22.090   7.881
 1081POPC   C4B16102  32.666  22.371   7.602
 1082POPC   NC316103  37.247   9.505   9.464
 1082POPC   PO416104  36.829   9.927   9.422
 1082POPC   GL116105  36.716   9.777   9.040
 1082POPC   GL216106  36.808   9.437   9.060
 1082POPC   C1A16107  36.613   9.916   8.643
 1082POPC   D2A16108  36.871  10.023   8.305
 1082POPC   C3A16109  36.878   9.881   7.886
 1082POPC   C4A16110  37.244   9.834   7.610
 1082POPC   C1B16111  36.980   9.547   8.664
 1082POPC   C2B16112  37.181   9.595   8.258
 1082POPC   C3B16113  37.061   9.398   7.879
 1082POPC   C4B16114  36.863   9.502   7.498
 1083POPC   NC316115  10.379  43.774   9.357
 1083POPC   PO416116  10.873  44.183   9.694
 1083POPC   GL116117  10.731  44.105   9.214
 1083POPC   GL216118  10.665  43.789   8.938
 1083POPC   C1A16119  10.527  44.249   8.816
 1083POPC   D2A16120  10.737  44.144   8.392
 1083POPC   C3A16121  10.430  44.089   8.039
 1083POPC   C4A16122  10.280  44.258   7.648
 1083POPC   C1B16123  10.315  43.527   8.731
 1083POPC   C2B16124  10.204  43.390   8.298
 1083POPC   C3B16125  10.079  43.723   7.991
 1083POPC   C4B16126  10.175  43.768   7.544
 1084POPC   NC316127  11.887  35.471   9.588
 1084POPC   PO416128  11.649  34.847   9.592
 1084POPC   GL116129  11.799  35.059   9.200
 1084POPC   GL216130  12.125  35.157   9.193
 1084POPC   C1A16131  11.888  35.233   8.750
 1084POPC   D2A16132  11.652  35.247   8.361
 1084POPC   C3A16133  11.820  34.967   8.048
 1084POPC   C4A16134  12.026  35.229   7.767
 1084POPC   C1B16135  12.268  35.514   8.917
 1084POPC   C2B16136  12.334  35.450   8.436
 1084POPC   C3B16137  12.409  35.513   7.964
 1084POPC   C4B16138  12.593  35.463   7.529
 1085POPC   NC316139  14.850  41.162   9.320
 1085POPC   PO416140  15.284  40.699   9.460
 1085POPC   GL116141  15.309  40.490   9.102
 1085POPC   GL216142  14.936  40.466   9.081
 1085POPC   C1A16143  15.462  40.505   8.690
 1085POPC   D2A16144  15.371  40.742   8.331
 1085POPC   C3A16145  15.161  40.561   7.919
 1085POPC   C4A16146  15.165  40.829   7.517
 1085POPC   C1B16147  15.028  40.779   8.756
 1085POPC   C2B16148  14.969  41.019   8.370
 1085POPC   C3B16149  14.885  40.997   7.958
 1085POPC   C4B16150  14.700  41.224   7.624
 1086POPC   NC316151  24.142  44.328   9.499
 1086POPC   PO416152  24.645  43.854   9.329
 1086POPC   GL116153  24.383  44.021   9.061
 1086POPC   GL216154  24.242  43.709   8.977
 1086POPC   C1A16155  24.629  44.187   8.717
 1086POPC   D2A16156  24.831  43.987   8.373
 1086POPC   C3A16157  24.612  44.115   8.008
 1086POPC   C4A16158  24.530  44.044   7.586
 1086POPC   C1B16159  24.469  43.624   8.625
 1086POPC   C2B16160  24.243  43.542   8.240
 1086POPC   C3B16161  24.388  43.643   7.860
 1086POPC   C4B16162  24.270  43.629   7.423
 1087POPC   NC316163  23.972   4.807   9.403
 1087POPC   PO416164  23.458   5.230   9.486
 1087POPC   GL116165  23.367   5.056   9.087
 1087POPC   GL216166  23.577   4.763   9.067
 1087POPC   C1A16167  23.498   5.001   8.638
 1087POPC   D2A16168  23.656   4.996   8.245
 1087POPC   C3A16169  23.413   5.063   7.892
 1087POPC   C4A16170  23.454   5.234   7.478
 1087POPC   C1B16171  23.958   4.748   8.726
 1087POPC   C2B16172  24.076   4.706   8.247
 1087POPC   C3B16173  23.885   4.866   7.812
 1087POPC   C4B16174  23.842   4.790   7.351
 1088POPC   NC316175  37.986  40.502   9.463
 1088POPC   PO416176  37.243  40.549   9.471
 1088POPC   GL116177  37.526  40.667   9.151
 1088POPC   GL216178  37.644  40.340   9.113
 1088POPC   C1A16179  37.639  40.925   8.774
 1088POPC   D2A16180  37.812  41.095   8.364
 1088POPC   C3A16181  37.753  40.806   8.014
 1088POPC   C4A16182  37.940  40.412   7.862
 1088POPC   C1B16183  37.417  40.337   8.734
 1088POPC   C2B16184  37.563  40.414   8.309
 1088POPC   C3B16185  37.464  40.228   7.896
 1088POPC   C4B16186  37.564  40.416   7.497
 1089POPC   NC316187  43.584  26.711   9.822
 1089POPC   PO416188  42.981  26.565   9.562
 1089POPC   GL116189  42.905  26.842   9.234
 1089POPC   GL216190  43.230  26.919   9.087
 1089POPC   C1A16191  42.768  26.866   8.816
 1089POPC   D2A16192  42.805  26.744   8.363
 1089POPC   C3A16193  43.125  26.933   8.118
 1089POPC   C4A16194  42.954  26.849   7.780
 1089POPC   C1B16195  43.242  26.854   8.622
 1089POPC   C2B16196  43.294  26.508   8.312
 1089POPC   C3B16197  43.365  26.548   7.862
 1089POPC   C4B16198  43.397  26.945   7.575
 1090POPC   NC316199  15.760  42.812   9.844
 1090POPC   PO416200  15.888  42.612   9.228
 1090POPC   GL116201  15.688  42.750   8.898
 1090POPC   GL216202  15.706  43.094   9.003
 1090POPC   C1A16203  15.928  42.751   8.529
 1090POPC   D2A16204  16.105  43.030   8.264
 1090POPC   C3A16205  15.839  43.187   7.974
 1090POPC   C4A16206  16.069  43.080   7.607
 1090POPC   C1B16207  15.747  43.253   8.570
 1090POPC   C2B16208  16.037  43.527   8.322
 1090POPC   C3B16209  16.113  43.600   7.867
 1090POPC   C4B16210  15.791  43.521   7.548
 1091POPC   NC316211   9.453  38.509   9.382
 1091POPC   PO416212   8.791  38.428   9.606
 1091POPC   GL116213   8.906  38.292   9.186
 1091POPC   GL216214   9.194  38.063   9.230
 1091POPC   C1A16215   9.007  38.597   8.842
 1091POPC   D2A16216   8.807  38.717   8.462
 1091POPC   C3A16217   8.942  38.620   8.044
 1091POPC   C4A16218   8.762  38.772   7.668
 1091POPC   C1B16219   9.260  38.169   8.781
 1091POPC   C2B16220   9.047  38.238   8.357
 1091POPC   C3B16221   9.174  38.154   7.880
 1091POPC   C4B16222   9.281  38.142   7.354
 1092POPC   NC316223  27.149  10.997   9.358
 1092POPC   PO416224  26.869  11.600   9.483
 1092POPC   GL116225  26.854  11.353   9.124
 1092POPC   GL216226  27.196  11.442   9.057
 1092POPC   C1A16227  26.870  11.119   8.716
 1092POPC   D2A16228  27.114  11.239   8.339
 1092POPC   C3A16229  26.962  11.245   7.919
 1092POPC   C4A16230  26.722  10.912   7.779
 1092POPC   C1B16231  26.984  11.610   8.684
 1092POPC   C2B16232  26.784  11.628   8.259
 1092POPC   C3B16233  26.919  11.761   7.838
 1092POPC   C4B16234  26.962  11.539   7.429
 1093POPC   NC316235  38.532   1.878   9.312
 1093POPC   PO416236  39.023   2.397   9.288
 1093POPC   GL116237  38.767   2.163   8.976
 1093POPC   GL216238  38.372   2.214   8.986
 1093POPC   C1A16239  38.613   2.030   8.573
 1093POPC   D2A16240  38.548   2.312   8.252
 1093POPC   C3A16241  38.430   2.087   7.886
 1093POPC   C4A16242  38.668   1.745   7.719
 1093POPC   C1B16243  38.102   1.969   8.713
 1093POPC   C2B16244  38.150   1.811   8.281
 1093POPC   C3B16245  38.000   1.815   7.857
 1093POPC   C4B16246  38.225   1.844   7.447
 1094POPC   NC316247  38.639   4.798   9.454
 1094POPC   PO416248  38.676   4.125   9.495
 1094POPC   GL116249  38.427   4.288   9.189
 1094POPC   GL216250  38.215   4.545   9.282
 1094POPC   C1A16251  38.472   4.232   8.769
 1094POPC   D2A16252  38.700   4.257   8.382
 1094POPC   C3A16253  38.466   4.154   8.024
 1094POPC   C4A16254  38.433   4.106   7.601
 1094POPC   C1B16255  38.311   4.719   8.880
 1094POPC   C2B16256  38.234   4.599   8.459
 1094POPC   C3B16257  38.451   4.673   8.115
 1094POPC   C4B16258  38.368   4.583   7.755
 1095POPC   NC316259  42.307  25.610   9.472
 1095POPC   PO416260  42.029  25.020   9.575
 1095POPC   GL116261  42.077  25.189   9.162
 1095POPC   GL216262  42.437  25.197   9.199
 1095POPC   C1A16263  42.117  25.057   8.701
 1095POPC   D2A16264  42.271  24.837   8.324
 1095POPC   C3A16265  42.144  24.903   7.858
 1095POPC   C4A16266  42.082  25.298   7.593
 1095POPC   C1B16267  42.413  25.458   8.837
 1095POPC   C2B16268  42.516  25.348   8.451
 1095POPC   C3B16269  42.360  25.330   8.059
 1095POPC   C4B16270  42.593  25.194   7.721
 1096POPC   NC316271  23.419  11.129   9.319
 1096POPC   PO416272  23.892  11.227   9.717
 1096POPC   GL116273  23.873  11.298   9.197
 1096POPC   GL216274  24.027  11.557   9.040
 1096POPC   C1A16275  23.820  11.080   8.763
 1096POPC   D2A16276  23.864  11.271   8.371
 1096POPC   C3A16277  23.632  11.090   8.079
 1096POPC   C4A16278  23.829  11.221   7.745
 1096POPC   C1B16279  23.640  11.543   8.757
 1096POPC   C2B16280  23.384  11.467   8.401
 1096POPC   C3B16281  23.499  11.575   7.992
 1096POPC   C4B16282  23.258  11.703   7.669
 1097POPC   NC316283   7.850  24.700   9.488
 1097POPC   PO416284   8.276  24.237   9.216
 1097POPC   GL116285   8.258  24.724   9.116
 1097POPC   GL216286   7.936  24.940   9.061
 1097POPC   C1A16287   8.275  24.884   8.691
 1097POPC   D2A16288   8.063  24.723   8.321
 1097POPC   C3A16289   8.338  24.646   8.033
 1097POPC   C4A16290   8.356  24.404   7.715
 1097POPC   C1B16291   7.849  24.585   8.789
 1097POPC   C2B16292   7.936  24.246   8.483
 1097POPC   C3B16293   8.097  24.152   8.069
 1097POPC   C4B16294   7.960  24.066   7.626
 1098POPC   NC316295  29.286  16.049   9.641
 1098POPC   PO416296  29.684  15.554   9.473
 1098POPC   GL116297  29.493  15.757   9.112
 1098POPC   GL216298  29.402  16.109   9.156
 1098POPC   C1A16299  29.226  15.650   8.721
 1098POPC   D2A16300  29.110  15.607   8.267
 1098POPC   C3A16301  29.174  15.889   7.910
 1098POPC   C4A16302  29.267  15.775   7.465
 1098POPC   C1B16303  29.157  16.150   8.794
 1098POPC   C2B16304  29.244  16.170   8.365
 1098POPC   C3B16305  29.077  16.371   8.000
 1098POPC   C4B16306  29.068  16.266   7.541
 1099POPC   NC316307  27.105  32.169   9.520
 1099POPC   PO416308  26.533  32.500   9.813
 1099POPC   GL116309  26.723  32.591   9.359
 1099POPC   GL216310  27.051  32.527   9.176
 1099POPC   C1A16311  26.664  32.530   8.860
 1099POPC   D2A16312  26.800  32.277   8.485
 1099POPC   C3A16313  26.642  32.313   8.074
 1099POPC   C4A16314  26.631  32.061   7.695
 1099POPC   C1B16315  27.142  32.206   8.851
 1099POPC   C2B16316  27.262  32.042   8.420
 1099POPC   C3B16317  27.118  32.072   8.000
 1099POPC   C4B16318  27.249  31.887   7.626
 1100POPC   NC316319  29.388  18.329   9.750
 1100POPC   PO416320  29.074  18.382   9.173
 1100POPC   GL116321  29.197  18.101   8.890
 1100POPC   GL216322  29.036  17.840   9.060
 1100POPC   C1A16323  29.157  18.296   8.471
 1100POPC   D2A16324  28.900  18.552   8.162
 1100POPC   C3A16325  28.959  18.396   7.731
 1100POPC   C4A16326  29.248  18.277   7.396
 1100POPC   C1B16327  28.732  17.938   8.762
 1100POPC   C2B16328  28.693  18.069   8.366
 1100POPC   C3B16329  28.848  17.818   8.038
 1100POPC   C4B16330  29.160  17.928   7.763
 1101POPC   NC316331  34.297   5.764   9.584
 1101POPC   PO416332  34.900   6.124   9.526
 1101POPC   GL116333  34.864   5.920   9.136
 1101POPC   GL216334  34.602   5.699   9.188
 1101POPC   C1A16335  34.576   5.972   8.762
 1101POPC   D2A16336  34.625   6.112   8.350
 1101POPC   C3A16337  34.528   5.916   7.963
 1101POPC   C4A16338  34.830   5.751   7.681
 1101POPC   C1B16339  34.423   5.496   8.824
 1101POPC   C2B16340  34.403   5.639   8.391
 1101POPC   C3B16341  34.205   5.461   8.008
 1101POPC   C4B16342  34.239   5.691   7.598
 1102POPC   NC316343  30.908   5.375   9.594
 1102POPC   PO416344  30.368   4.985   9.703
 1102POPC   GL116345  30.509   5.005   9.233
 1102POPC   GL216346  30.866   5.071   9.180
 1102POPC   C1A16347  30.537   5.117   8.761
 1102POPC   D2A16348  30.429   4.973   8.303
 1102POPC   C3A16349  30.438   5.283   7.963
 1102POPC   C4A16350  30.411   5.297   7.526
 1102POPC   C1B16351  30.932   5.431   8.883
 1102POPC   C2B16352  30.989   5.364   8.445
 1102POPC   C3B16353  30.893   5.534   8.054
 1102POPC   C4B16354  30.906   5.393   7.678
 1103POPC   NC316355  34.719  21.875   9.399
 1103POPC   PO416356  34.252  22.332   9.442
 1103POPC   GL116357  34.519  22.186   9.061
 1103POPC   GL216358  34.875  22.244   9.085
 1103POPC   C1A16359  34.710  21.965   8.694
 1103POPC   D2A16360  34.760  22.112   8.273
 1103POPC   C3A16361  34.376  21.949   8.065
 1103POPC   C4A16362  34.221  21.956   7.673
 1103POPC   C1B16363  34.772  22.482   8.708
 1103POPC   C2B16364  34.639  22.647   8.310
 1103POPC   C3B16365  34.684  22.485   7.894
 1103POPC   C4B16366  34.772  22.064   7.745
 1104POPC   NC316367   9.266  25.756   9.423
 1104POPC   PO416368   9.907  26.065   9.408
 1104POPC   GL116369   9.605  25.996   9.120
 1104POPC   GL216370   9.406  26.277   9.054
 1104POPC   C1A16371   9.487  25.912   8.711
 1104POPC   D2A16372   9.232  25.737   8.419
 1104POPC   C3A16373   9.362  25.869   8.066
 1104POPC   C4A16374   9.742  25.986   7.877
 1104POPC   C1B16375   9.653  26.429   8.689
 1104POPC   C2B16376   9.926  26.282   8.344
 1104POPC   C3B16377  10.023  26.430   7.932
 1104POPC   C4B16378   9.686  26.434   7.645
 1105POPC   NC316379   3.348  20.860   9.365
 1105POPC   PO416380   3.060  21.376   9.300
 1105POPC   GL116381   3.534  21.317   9.133
 1105POPC   GL216382   3.774  21.632   9.175
 1105POPC   C1A16383   3.639  21.108   8.717
 1105POPC   D2A16384   3.592  20.924   8.266
 1105POPC   C3A16385   3.516  21.195   7.895
 1105POPC   C4A16386   3.363  21.444   7.529
 1105POPC   C1B16387   3.919  21.554   8.739
 1105POPC   C2B16388   3.806  21.419   8.310
 1105POPC   C3B16389   3.761  21.642   7.920
 1105POPC   C4B16390   3.982  21.929   7.692
 1106POPC   NC316391   5.724  33.389   9.507
 1106POPC   PO416392   6.278  33.192   9.230
 1106POPC   GL116393   5.939  33.006   9.084
 1106POPC   GL216394   5.608  33.107   9.088
 1106POPC   C1A16395   5.902  33.105   8.666
 1106POPC   D2A16396   6.060  32.854   8.388
 1106POPC   C3A16397   5.807  32.789   8.076
 1106POPC   C4A16398   6.046  32.792   7.705
 1106POPC   C1B16399   5.449  33.322   8.713
 1106POPC   C2B16400   5.667  33.468   8.337
 1106POPC   C3B16401   5.848  33.273   7.981
 1106POPC   C4B16402   5.645  33.118   7.625
 1107POPC   NC316403  34.768  14.945   9.524
 1107POPC   PO416404  34.479  15.518   9.688
 1107POPC   GL116405  34.769  15.375   9.214
 1107POPC   GL216406  34.641  15.093   9.068
 1107POPC   C1A16407  34.591  15.363   8.674
 1107POPC   D2A16408  34.420  15.047   8.340
 1107POPC   C3A16409  34.460  15.189   7.904
 1107POPC   C4A16410  34.658  15.538   7.665
 1107POPC   C1B16411  34.729  14.858   8.715
 1107POPC   C2B16412  34.926  14.904   8.323
 1107POPC   C3B16413  34.770  14.776   7.919
 1107POPC   C4B16414  34.456  14.736   7.609
 1108POPC   NC316415  11.903  12.481   9.589
 1108POPC   PO416416  12.215  13.076   9.554
 1108POPC   GL116417  12.025  13.004   9.167
 1108POPC   GL216418  11.730  12.768   9.196
 1108POPC   C1A16419  12.092  12.765   8.779
 1108POPC   D2A16420  12.424  12.652   8.473
 1108POPC   C3A16421  12.206  12.604   8.069
 1108POPC   C4A16422  12.190  12.938   7.769
 1108POPC   C1B16423  11.617  13.030   8.857
 1108POPC   C2B16424  11.697  13.108   8.449
 1108POPC   C3B16425  11.761  12.928   8.057
 1108POPC   C4B16426  11.512  13.044   7.750
 1109POPC   NC316427  27.465   5.702   9.422
 1109POPC   PO416428  27.689   6.314   9.511
 1109POPC   GL116429  27.867   6.172   9.110
 1109POPC   GL216430  27.538   6.118   9.063
 1109POPC   C1A16431  27.823   5.783   8.802
 1109POPC   D2A16432  27.651   5.498   8.462
 1109POPC   C3A16433  27.781   5.665   8.059
 1109POPC   C4A16434  27.655   5.901   7.723
 1109POPC   C1B16435  27.383   6.174   8.661
 1109POPC   C2B16436  27.518   6.104   8.236
 1109POPC   C3B16437  27.294   6.201   7.868
 1109POPC   C4B16438  27.379   6.225   7.422
 1110POPC   NC316439  37.565  35.759   9.341
 1110POPC   PO416440  37.292  36.328   9.444
 1110POPC   GL116441  37.465  36.196   9.094
 1110POPC   GL216442  37.807  36.136   9.117
 1110POPC   C1A16443  37.537  36.078   8.697
 1110POPC   D2A16444  37.731  35.972   8.354
 1110POPC   C3A16445  37.467  36.107   8.076
 1110POPC   C4A16446  37.612  36.010   7.687
 1110POPC   C1B16447  38.057  36.129   8.775
 1110POPC   C2B16448  38.202  36.169   8.361
 1110POPC   C3B16449  37.941  36.322   8.029
 1110POPC   C4B16450  37.911  36.625   7.717
 1111POPC   NC316451   3.351   7.490   9.420
 1111POPC   PO416452   3.989   7.556   9.438
 1111POPC   GL116453   3.900   7.315   9.072
 1111POPC   GL216454   3.571   7.219   9.030
 1111POPC   C1A16455   3.877   7.357   8.608
 1111POPC   D2A16456   3.867   7.698   8.309
 1111POPC   C3A16457   3.531   7.506   8.105
 1111POPC   C4A16458   3.230   7.604   7.770
 1111POPC   C1B16459   3.408   7.153   8.613
 1111POPC   C2B16460   3.566   7.008   8.204
 1111POPC   C3B16461   3.345   7.130   7.822
 1111POPC   C4B16462   3.443   7.247   7.394
 1112POPC   NC316463  10.517   9.800   9.617
 1112POPC   PO416464  10.127  10.367   9.506
 1112POPC   GL116465  10.200  10.027   9.181
 1112POPC   GL216466  10.324   9.655   9.175
 1112POPC   C1A16467  10.322   9.910   8.731
 1112POPC   D2A16468  10.604   9.858   8.413
 1112POPC   C3A16469  10.466   9.771   8.003
 1112POPC   C4A16470  10.768   9.443   7.897
 1112POPC   C1B16471  10.082   9.457   8.824
 1112POPC   C2B16472  10.126   9.532   8.378
 1112POPC   C3B16473  10.083   9.399   7.924
 1112POPC   C4B16474  10.374   9.452   7.567
 1113POPC   NC316475   7.213   8.546   9.466
 1113POPC   PO416476   7.620   7.971   9.563
 1113POPC   GL116477   7.396   8.091   9.210
 1113POPC   GL216478   7.692   8.182   9.104
 1113POPC   C1A16479   7.196   8.282   8.832
 1113POPC   D2A16480   7.058   8.508   8.445
 1113POPC   C3A16481   7.399   8.460   8.169
 1113POPC   C4A16482   7.557   8.400   7.766
 1113POPC   C1B16483   7.937   8.030   8.791
 1113POPC   C2B16484   7.775   8.201   8.420
 1113POPC   C3B16485   7.818   8.034   8.022
 1113POPC   C4B16486   8.011   8.116   7.682
 1114POPC   NC316487  42.768   4.949   9.391
 1114POPC   PO416488  42.103   5.309   9.449
 1114POPC   GL116489  42.248   4.997   9.170
 1114POPC   GL216490  42.473   5.205   9.068
 1114POPC   C1A16491  42.333   4.874   8.708
 1114POPC   D2A16492  42.068   4.718   8.371
 1114POPC   C3A16493  42.182   4.861   7.970
 1114POPC   C4A16494  42.319   4.762   7.554
 1114POPC   C1B16495  42.146   5.362   8.790
 1114POPC   C2B16496  42.167   5.457   8.356
 1114POPC   C3B16497  42.211   5.556   7.912
 1114POPC   C4B16498  42.169   5.249   7.614
 1115POPC   NC316499  20.406   0.761   9.568
 1115POPC   PO416500  20.834   0.212   9.752
 1115POPC   GL116501  20.581   0.395   9.280
 1115POPC   GL216502  20.264   0.479   9.135
 1115POPC   C1A16503  20.765   0.482   8.824
 1115POPC   D2A16504  20.828   0.173   8.481
 1115POPC   C3A16505  20.704   0.255   8.038
 1115POPC   C4A16506  20.847   0.094   7.638
 1115POPC   C1B16507  20.309   0.662   8.719
 1115POPC   C2B16508  20.673   0.859   8.465
 1115POPC   C3B16509  20.689   0.815   8.029
 1115POPC   C4B16510  20.382   0.584   7.802
 1116POPC   NC316511  23.080  16.196   9.477
 1116POPC   PO416512  22.924  15.543   9.575
 1116POPC   GL116513  22.831  15.843   9.196
 1116POPC   GL216514  22.569  15.738   8.958
 1116POPC   C1A16515  22.838  16.180   8.849
 1116POPC   D2A16516  22.937  16.290   8.400
 1116POPC   C3A16517  23.011  16.000   8.086
 1116POPC   C4A16518  23.192  15.757   7.714
 1116POPC   C1B16519  22.934  15.688   8.649
 1116POPC   C2B16520  22.944  15.503   8.214
 1116POPC   C3B16521  22.713  15.672   7.858
 1116POPC   C4B16522  22.566  16.111   7.769
 1117POPC   NC316523  28.470   2.448   9.675
 1117POPC   PO416524  29.133   2.687   9.536
 1117POPC   GL116525  29.144   2.855   9.154
 1117POPC   GL216526  29.208   2.517   9.041
 1117POPC   C1A16527  29.098   3.027   8.715
 1117POPC   D2A16528  29.143   2.839   8.313
 1117POPC   C3A16529  29.318   2.995   7.935
 1117POPC   C4A16530  28.968   3.099   7.661
 1117POPC   C1B16531  29.158   2.437   8.635
 1117POPC   C2B16532  29.189   2.335   8.209
 1117POPC   C3B16533  29.239   2.477   7.745
 1117POPC   C4B16534  29.311   2.380   7.276
 1118POPC   NC316535   3.328  34.008   9.446
 1118POPC   PO416536   3.955  33.573   9.488
 1118POPC   GL116537   3.705  33.558   9.122
 1118POPC   GL216538   3.365  33.473   9.247
 1118POPC   C1A16539   3.743  33.776   8.719
 1118POPC   D2A16540   3.687  34.088   8.374
 1118POPC   C3A16541   3.694  33.876   7.983
 1118POPC   C4A16542   3.794  33.850   7.555
 1118POPC   C1B16543   3.272  33.539   8.801
 1118POPC   C2B16544   3.198  33.666   8.375
 1118POPC   C3B16545   3.282  33.577   7.940
 1118POPC   C4B16546   3.276  33.766   7.519
 1119POPC   NC316547   4.834  29.539   9.500
 1119POPC   PO416548   5.186  30.144   9.523
 1119POPC   GL116549   5.116  29.830   9.185
 1119POPC   GL216550   4.750  29.862   9.098
 1119POPC   C1A16551   5.163  29.901   8.732
 1119POPC   D2A16552   5.019  30.133   8.370
 1119POPC   C3A16553   5.296  30.161   8.041
 1119POPC   C4A16554   5.224  29.906   7.680
 1119POPC   C1B16555   4.696  29.636   8.691
 1119POPC   C2B16556   4.768  29.570   8.275
 1119POPC   C3B16557   4.810  29.669   7.852
 1119POPC   C4B16558   4.814  29.453   7.451
 1120POPC   NC316559  31.136  37.160   9.526
 1120POPC   PO416560  30.543  36.775   9.685
 1120POPC   GL116561  30.656  36.981   9.300
 1120POPC   GL216562  30.469  36.741   9.116
 1120POPC   C1A16563  30.908  36.972   8.912
 1120POPC   D2A16564  30.937  37.042   8.451
 1120POPC   C3A16565  30.756  36.751   8.151
 1120POPC   C4A16566  30.735  36.873   7.719
 1120POPC   C1B16567  30.256  36.782   8.724
 1120POPC   C2B16568  30.306  36.513   8.355
 1120POPC   C3B16569  30.358  36.337   7.953
 1120POPC   C4B16570  30.398  36.546   7.540
 1121POPC   NC316571   6.471  35.836   9.371
 1121POPC   PO416572   7.086  36.246   9.392
 1121POPC   GL116573   6.875  36.000   9.080
 1121POPC   GL216574   6.570  36.178   9.002
 1121POPC   C1A16575   6.918  35.850   8.652
 1121POPC   D2A16576   7.102  35.969   8.235
 1121POPC   C3A16577   6.789  36.210   7.983
 1121POPC   C4A16578   6.533  35.962   7.719
 1121POPC   C1B16579   6.346  36.088   8.648
 1121POPC   C2B16580   6.340  35.988   8.237
 1121POPC   C3B16581   6.246  36.281   7.972
 1121POPC   C4B16582   6.434  36.460   7.643
 1122POPC   NC316583  22.447  22.654   9.856
 1122POPC   PO416584  22.350  23.219   9.560
 1122POPC   GL116585  22.302  22.999   9.164
 1122POPC   GL216586  22.010  22.808   9.060
 1122POPC   C1A16587  22.360  22.944   8.733
 1122POPC   D2A16588  22.480  23.077   8.345
 1122POPC   C3A16589  22.124  22.991   8.127
 1122POPC   C4A16590  22.255  22.908   7.747
 1122POPC   C1B16591  21.743  22.725   8.668
 1122POPC   C2B16592  21.756  22.632   8.215
 1122POPC   C3B16593  21.824  22.583   7.766
 1122POPC   C4B16594  21.897  22.730   7.342
 1123POPC   NC316595  19.035  29.400   9.567
 1123POPC   PO416596  19.220  28.714   9.454
 1123POPC   GL116597  19.289  29.068   9.203
 1123POPC   GL216598  18.964  29.135   9.141
 1123POPC   C1A16599  19.314  29.103   8.756
 1123POPC   D2A16600  19.201  29.370   8.401
 1123POPC   C3A16601  19.261  29.086   8.063
 1123POPC   C4A16602  19.444  29.229   7.703
 1123POPC   C1B16603  18.782  29.210   8.766
 1123POPC   C2B16604  18.781  29.100   8.360
 1123POPC   C3B16605  18.829  29.328   7.997
 1123POPC   C4B16606  18.959  29.129   7.610
 1124POPC   NC316607  17.841  22.138   9.329
 1124POPC   PO416608  18.529  22.094   9.456
 1124POPC   GL116609  18.368  22.222   9.094
 1124POPC   GL216610  18.116  22.521   9.112
 1124POPC   C1A16611  18.458  21.931   8.760
 1124POPC   D2A16612  18.623  21.979   8.356
 1124POPC   C3A16613  18.400  22.248   8.090
 1124POPC   C4A16614  18.341  22.184   7.672
 1124POPC   C1B16615  18.043  22.283   8.702
 1124POPC   C2B16616  18.098  21.938   8.392
 1124POPC   C3B16617  17.923  21.998   8.008
 1124POPC   C4B16618  17.947  22.427   7.873
 1125POPC   NC316619  31.943  25.540   9.512
 1125POPC   PO416620  32.457  25.022   9.412
 1125POPC   GL116621  32.186  25.255   9.169
 1125POPC   GL216622  31.874  25.068   9.269
 1125POPC   C1A16623  32.279  25.440   8.773
 1125POPC   D2A16624  32.510  25.333   8.399
 1125POPC   C3A16625  32.336  25.415   7.984
 1125POPC   C4A16626  32.395  25.105   7.673
 1125POPC   C1B16627  31.862  25.039   8.828
 1125POPC   C2B16628  31.840  25.183   8.406
 1125POPC   C3B16629  31.931  25.061   7.991
 1125POPC   C4B16630  31.880  25.220   7.601
 1126POPC   NC316631   1.471  29.500   9.438
 1126POPC   PO416632   0.983  29.945   9.482
 1126POPC   GL116633   1.211  29.916   9.100
 1126POPC   GL216634   1.585  29.910   9.173
 1126POPC   C1A16635   1.189  29.675   8.725
 1126POPC   D2A16636   1.442  29.572   8.380
 1126POPC   C3A16637   1.355  29.752   7.997
 1126POPC   C4A16638   1.221  29.476   7.703
 1126POPC   C1B16639   1.641  29.946   8.738
 1126POPC   C2B16640   1.373  30.097   8.441
 1126POPC   C3B16641   1.103  30.252   8.142
 1126POPC   C4B16642   1.101  30.177   7.717
 1127POPC   NC316643  36.988  42.637   9.236
 1127POPC   PO416644  36.684  42.190   9.608
 1127POPC   GL116645  36.678  42.191   9.175
 1127POPC   GL216646  37.028  42.129   9.013
 1127POPC   C1A16647  36.626  42.317   8.753
 1127POPC   D2A16648  36.962  42.225   8.464
 1127POPC   C3A16649  36.836  42.389   8.086
 1127POPC   C4A16650  36.891  42.559   7.678
 1127POPC   C1B16651  37.340  41.952   8.692
 1127POPC   C2B16652  37.344  41.878   8.219
 1127POPC   C3B16653  37.244  42.146   7.834
 1127POPC   C4B16654  37.161  42.234   7.378
 1128POPC   NC316655  44.321  26.522   9.786
 1128POPC   PO416656  44.450  25.814   9.631
 1128POPC   GL116657  44.457  26.014   9.195
 1128POPC   GL216658  44.454  26.397   9.255
 1128POPC   C1A16659  44.560  25.944   8.741
 1128POPC   D2A16660  44.395  25.779   8.340
 1128POPC   C3A16661  44.596  25.798   7.930
 1128POPC   C4A16662   0.031  25.812   7.832
 1128POPC   C1B16663  44.251  26.365   8.846
 1128POPC   C2B16664  44.131  26.194   8.441
 1128POPC   C3B16665  44.296  26.218   8.024
 1128POPC   C4B16666  44.231  26.407   7.641
 1129POPC   NC316667   0.254  11.719   9.789
 1129POPC   PO416668   0.693  12.198   9.463
 1129POPC   GL116669   0.546  12.058   9.093
 1129POPC   GL216670   0.167  12.058   9.084
 1129POPC   C1A16671   0.493  12.167   8.680
 1129POPC   D2A16672   0.250  12.316   8.419
 1129POPC   C3A16673   0.347  12.343   8.011
 1129POPC   C4A16674   0.354  12.226   7.581
 1129POPC   C1B16675   0.108  11.834   8.675
 1129POPC   C2B16676   0.296  11.835   8.278
 1129POPC   C3B16677   0.463  11.842   7.885
 1129POPC   C4B16678   0.373  11.443   7.744
 1130POPC   NC316679  21.079  43.938   9.563
 1130POPC   PO416680  21.438  43.430   9.421
 1130POPC   GL116681  21.265  43.727   9.109
 1130POPC   GL216682  21.444  44.037   9.150
 1130POPC   C1A16683  21.321  43.827   8.662
 1130POPC   D2A16684  21.630  43.901   8.314
 1130POPC   C3A16685  21.479  43.927   7.902
 1130POPC   C4A16686  21.056  43.895   7.816
 1130POPC   C1B16687  21.704  44.156   8.780
 1130POPC   C2B16688  21.639  44.388   8.390
 1130POPC   C3B16689  21.789  44.345   7.974
 1130POPC   C4B16690  21.519  44.350   7.607
 1131POPC   NC316691   7.654  13.991   9.481
 1131POPC   PO416692   7.202  13.501   9.429
 1131POPC   GL116693   7.303  13.850   9.152
 1131POPC   GL216694   7.477  13.633   8.981
 1131POPC   C1A16695   7.242  14.032   8.786
 1131POPC   D2A16696   7.244  13.690   8.513
 1131POPC   C3A16697   7.515  13.665   8.168
 1131POPC   C4A16698   7.308  13.759   7.765
 1131POPC   C1B16699   7.591  13.331   8.663
 1131POPC   C2B16700   7.920  13.340   8.431
 1131POPC   C3B16701   7.942  13.218   8.040
 1131POPC   C4B16702   7.725  13.483   7.741
 1132POPC   NC316703  40.145   3.145   9.538
 1132POPC   PO416704  39.588   2.815   9.529
 1132POPC   GL116705  39.934   2.750   9.213
 1132POPC   GL216706  40.213   2.503   9.036
 1132POPC   C1A16707  40.014   2.930   8.820
 1132POPC   D2A16708  39.879   2.955   8.383
 1132POPC   C3A16709  39.752   2.766   7.963
 1132POPC   C4A16710  39.811   2.962   7.529
 1132POPC   C1B16711  40.174   2.528   8.541
 1132POPC   C2B16712  40.238   2.604   8.064
 1132POPC   C3B16713  40.073   2.507   7.624
 1132POPC   C4B16714  40.296   2.531   7.189
 1133POPC   NC316715  42.720  21.889   9.790
 1133POPC   PO416716  42.295  22.224   9.464
 1133POPC   GL116717  42.341  22.279   9.066
 1133POPC   GL216718  42.494  21.990   9.033
 1133POPC   C1A16719  42.430  22.229   8.616
 1133POPC   D2A16720  42.149  22.287   8.323
 1133POPC   C3A16721  42.375  22.314   7.973
 1133POPC   C4A16722  42.420  22.363   7.562
 1133POPC   C1B16723  42.053  21.931   8.819
 1133POPC   C2B16724  42.036  21.801   8.378
 1133POPC   C3B16725  42.359  21.812   8.074
 1133POPC   C4B16726  42.648  21.942   7.707
 1134POPC   NC316727  28.701  37.069   9.552
 1134POPC   PO416728  28.088  36.853   9.577
 1134POPC   GL116729  28.247  36.725   9.171
 1134POPC   GL216730  28.593  36.811   9.141
 1134POPC   C1A16731  28.119  36.624   8.750
 1134POPC   D2A16732  28.335  36.659   8.356
 1134POPC   C3A16733  28.076  36.724   8.014
 1134POPC   C4A16734  28.123  36.991   7.633
 1134POPC   C1B16735  28.573  37.014   8.756
 1134POPC   C2B16736  28.620  37.077   8.345
 1134POPC   C3B16737  28.518  36.973   7.939
 1134POPC   C4B16738  28.710  36.925   7.519
 1135POPC   NC316739   3.271  42.470   9.451
 1135POPC   PO416740   3.815  42.249   9.315
 1135POPC   GL116741   3.503  42.274   9.020
 1135POPC   GL216742   3.288  42.033   9.132
 1135POPC   C1A16743   3.494  42.380   8.581
 1135POPC   D2A16744   3.236  42.486   8.248
 1135POPC   C3A16745   3.389  42.411   7.846
 1135POPC   C4A16746   3.646  42.601   7.510
 1135POPC   C1B16747   3.425  41.884   8.698
 1135POPC   C2B16748   3.287  41.984   8.280
 1135POPC   C3B16749   3.367  41.904   7.851
 1135POPC   C4B16750   3.631  42.094   7.514
 1136POPC   NC316751  20.812   1.440   9.587
 1136POPC   PO416752  20.222   1.179   9.643
 1136POPC   GL116753  20.510   1.223   9.257
 1136POPC   GL216754  20.596   0.894   9.093
 1136POPC   C1A16755  20.856   1.318   8.942
 1136POPC   D2A16756  21.012   1.498   8.597
 1136POPC   C3A16757  20.956   1.295   8.239
 1136POPC   C4A16758  20.853   1.330   7.841
 1136POPC   C1B16759  20.407   1.167   8.774
 1136POPC   C2B16760  20.468   1.354   8.390
 1136POPC   C3B16761  20.352   1.368   7.982
 1136POPC   C4B16762  20.427   1.068   7.670
 1137POPC   NC316763  18.080   0.444   9.926
 1137POPC   PO416764  18.422   0.720   9.434
 1137POPC   GL116765  18.119   0.613   9.145
 1137POPC   GL216766  18.088   0.915   8.974
 1137POPC   C1A16767  18.135   0.445   8.739
 1137POPC   D2A16768  18.378   0.500   8.377
 1137POPC   C3A16769  18.083   0.598   8.087
 1137POPC   C4A16770  17.820   0.312   7.833
 1137POPC   C1B16771  18.478   0.829   8.777
 1137POPC   C2B16772  18.670   0.908   8.404
 1137POPC   C3B16773  18.730   0.715   8.005
 1137POPC   C4B16774  18.673   0.568   7.582
 1138POPC   NC316775  25.857   0.692   9.506
 1138POPC   PO416776  25.253   0.600   9.682
 1138POPC   GL116777  25.102   0.406   9.283
 1138POPC   GL216778  24.834   0.611   9.187
 1138POPC   C1A16779  25.222   0.383   8.824
 1138POPC   D2A16780  25.411   0.698   8.523
 1138POPC   C3A16781  25.430   0.547   8.084
 1138POPC   C4A16782  25.697   0.698   7.734
 1138POPC   C1B16783  24.912   0.786   8.785
 1138POPC   C2B16784  24.943   0.571   8.399
 1138POPC   C3B16785  24.973   0.753   7.986
 1138POPC   C4B16786  25.197   0.696   7.618
 1139POPC   NC316787  38.797  37.070   9.605
 1139POPC   PO416788  38.215  36.709   9.503
 1139POPC   GL116789  38.445  36.918   9.242
 1139POPC   GL216790  38.606  36.587   9.130
 1139POPC   C1A16791  38.427  37.102   8.848
 1139POPC   D2A16792  38.548  36.972   8.439
 1139POPC   C3A16793  38.437  37.212   8.087
 1139POPC   C4A16794  38.232  37.180   7.665
 1139POPC   C1B16795  38.227  36.632   8.835
 1139POPC   C2B16796  38.126  36.682   8.393
 1139POPC   C3B16797  38.326  36.715   7.989
 1139POPC   C4B16798  38.373  36.710   7.514
 1140POPC   NC316799  43.518  12.258   9.494
 1140POPC   PO416800  43.039  11.689   9.445
 1140POPC   GL116801  43.129  12.066   9.205
 1140POPC   GL216802  42.842  12.225   9.006
 1140POPC   C1A16803  43.331  12.202   8.830
 1140POPC   D2A16804  43.324  12.006   8.432
 1140POPC   C3A16805  43.106  12.228   8.124
 1140POPC   C4A16806  43.404  12.429   7.882
 1140POPC   C1B16807  42.836  12.159   8.566
 1140POPC   C2B16808  42.609  12.086   8.196
 1140POPC   C3B16809  42.665  12.372   7.854
 1140POPC   C4B16810  42.954  12.466   7.519
 1141POPC   NC316811   5.651   7.505   9.591
 1141POPC   PO416812   5.997   6.935   9.629
 1141POPC   GL116813   5.950   7.223   9.268
 1141POPC   GL216814   5.657   7.087   9.179
 1141POPC   C1A16815   5.829   7.576   8.958
 1141POPC   D2A16816   5.669   7.633   8.518
 1141POPC   C3A16817   5.887   7.440   8.141
 1141POPC   C4A16818   5.990   7.686   7.760
 1141POPC   C1B16819   5.666   7.149   8.744
 1141POPC   C2B16820   5.458   7.139   8.346
 1141POPC   C3B16821   5.609   6.907   7.980
 1141POPC   C4B16822   5.744   7.219   7.659
 1142POPC   NC316823  33.989  28.429   9.507
 1142POPC   PO416824  33.657  27.875   9.507
 1142POPC   GL116825  33.830  28.103   9.139
 1142POPC   GL216826  33.806  28.500   9.046
 1142POPC   C1A16827  33.653  28.129   8.724
 1142POPC   D2A16828  33.717  28.413   8.394
 1142POPC   C3A16829  33.703  28.152   8.033
 1142POPC   C4A16830  33.621  28.235   7.614
 1142POPC   C1B16831  34.087  28.752   8.786
 1142POPC   C2B16832  34.153  28.712   8.352
 1142POPC   C3B16833  33.995  28.692   7.927
 1142POPC   C4B16834  33.955  28.946   7.556
 1143POPC   NC316835  32.640  36.466   9.257
 1143POPC   PO416836  32.223  36.902   9.621
 1143POPC   GL116837  32.164  36.992   9.204
 1143POPC   GL216838  32.143  36.638   9.168
 1143POPC   C1A16839  32.310  37.052   8.770
 1143POPC   D2A16840  32.491  37.158   8.379
 1143POPC   C3A16841  32.347  37.006   7.977
 1143POPC   C4A16842  32.139  37.045   7.553
 1143POPC   C1B16843  32.155  36.448   8.760
 1143POPC   C2B16844  32.095  36.640   8.365
 1143POPC   C3B16845  32.127  36.521   7.956
 1143POPC   C4B16846  32.378  36.593   7.629
 1144POPC   NC316847   5.227  14.063   9.356
 1144POPC   PO416848   4.795  14.544   9.607
 1144POPC   GL116849   4.880  14.498   9.194
 1144POPC   GL216850   4.805  14.849   9.164
 1144POPC   C1A16851   5.036  14.334   8.789
 1144POPC   D2A16852   5.281  14.367   8.428
 1144POPC   C3A16853   5.099  14.259   8.054
 1144POPC   C4A16854   5.181  14.402   7.646
 1144POPC   C1B16855   4.760  14.796   8.750
 1144POPC   C2B16856   4.809  14.570   8.374
 1144POPC   C3B16857   4.896  14.729   7.983
 1144POPC   C4B16858   4.898  14.842   7.560
 1145POPC   NC316859  33.601   3.108   9.791
 1145POPC   PO416860  34.181   3.005   9.443
 1145POPC   GL116861  33.976   2.869   9.066
 1145POPC   GL216862  33.793   2.583   9.094
 1145POPC   C1A16863  33.684   2.864   8.678
 1145POPC   D2A16864  33.529   2.724   8.270
 1145POPC   C3A16865  33.468   3.016   7.930
 1145POPC   C4A16866  33.856   2.971   7.758
 1145POPC   C1B16867  34.094   2.530   8.703
 1145POPC   C2B16868  34.281   2.393   8.289
 1145POPC   C3B16869  34.196   2.557   7.867
 1145POPC   C4B16870  34.058   2.538   7.424
 1146POPC   NC316871  24.505  40.138   9.452
 1146POPC   PO416872  24.134  39.547   9.554
 1146POPC   GL116873  24.311  39.708   9.157
 1146POPC   GL216874  24.232  40.043   9.039
 1146POPC   C1A16875  24.435  39.731   8.702
 1146POPC   D2A16876  24.132  39.769   8.354
 1146POPC   C3A16877  24.369  39.846   7.972
 1146POPC   C4A16878  24.814  39.945   7.892
 1146POPC   C1B16879  24.285  40.237   8.616
 1146POPC   C2B16880  24.570  40.226   8.269
 1146POPC   C3B16881  24.462  40.365   7.842
 1146POPC   C4B16882  24.516  40.288   7.406
 1147POPC   NC316883  31.934  11.505   9.859
 1147POPC   PO416884  32.477  11.621   9.344
 1147POPC   GL116885  32.323  11.401   9.041
 1147POPC   GL216886  32.606  11.422   8.886
 1147POPC   C1A16887  32.053  11.237   8.702
 1147POPC   D2A16888  31.855  10.949   8.412
 1147POPC   C3A16889  32.019  11.096   8.061
 1147POPC   C4A16890  31.896  11.336   7.742
 1147POPC   C1B16891  32.582  11.013   8.772
 1147POPC   C2B16892  32.428  10.834   8.398
 1147POPC   C3B16893  32.518  10.863   7.986
 1147POPC   C4B16894  32.371  11.168   7.696
 1148POPC   NC316895  31.991  17.054   9.538
 1148POPC   PO416896  32.295  16.455   9.404
 1148POPC   GL116897  32.167  16.635   9.068
 1148POPC   GL216898  32.294  16.959   9.112
 1148POPC   C1A16899  32.279  16.584   8.641
 1148POPC   D2A16900  32.013  16.498   8.288
 1148POPC   C3A16901  32.190  16.521   7.887
 1148POPC   C4A16902  32.052  16.583   7.483
 1148POPC   C1B16903  32.134  17.080   8.700
 1148POPC   C2B16904  32.221  16.999   8.268
 1148POPC   C3B16905  32.138  17.041   7.829
 1148POPC   C4B16906  32.117  17.097   7.378
 1149POPC   NC316907  41.426   2.244   9.390
 1149POPC   PO416908  41.502   1.532   9.542
 1149POPC   GL116909  41.524   1.711   9.148
 1149POPC   GL216910  41.234   1.880   9.117
 1149POPC   C1A16911  41.677   1.941   8.797
 1149POPC   D2A16912  41.532   2.091   8.372
 1149POPC   C3A16913  41.775   2.276   8.038
 1149POPC   C4A16914  41.623   1.997   7.738
 1149POPC   C1B16915  41.141   2.126   8.729
 1149POPC   C2B16916  41.027   2.074   8.283
 1149POPC   C3B16917  41.245   2.287   7.938
 1149POPC   C4B16918  41.091   2.541   7.588
 1150POPC   NC316919  37.302  32.583   9.556
 1150POPC   PO416920  36.933  31.979   9.579
 1150POPC   GL116921  36.945  32.107   9.160
 1150POPC   GL216922  36.618  32.352   9.134
 1150POPC   C1A16923  37.191  32.039   8.745
 1150POPC   D2A16924  37.342  32.085   8.298
 1150POPC   C3A16925  37.022  32.321   8.015
 1150POPC   C4A16926  36.813  32.250   7.640
 1150POPC   C1B16927  36.664  32.102   8.741
 1150POPC   C2B16928  36.852  31.950   8.360
 1150POPC   C3B16929  36.677  31.899   7.975
 1150POPC   C4B16930  36.343  32.110   7.816
 1151POPC   NC316931  14.947  26.424   9.652
 1151POPC   PO416932  14.554  25.924   9.458
 1151POPC   GL116933  14.922  26.134   9.221
 1151POPC   GL216934  15.300  26.191   9.342
 1151POPC   C1A16935  15.003  26.075   8.783
 1151POPC   D2A16936  14.989  26.328   8.409
 1151POPC   C3A16937  14.969  26.162   8.012
 1151POPC   C4A16938  14.874  26.388   7.652
 1151POPC   C1B16939  15.522  26.122   8.951
 1151POPC   C2B16940  15.454  26.087   8.508
 1151POPC   C3B16941  15.486  26.280   8.133
 1151POPC   C4B16942  15.391  26.285   7.705
 1152POPC   NC316943   6.395  44.166   9.593
 1152POPC   PO416944   6.481  44.896   9.573
 1152POPC   GL116945   6.619  44.766   9.165
 1152POPC   GL216946   6.420  44.485   9.187
 1152POPC   C1A16947   6.756  44.871   8.727
 1152POPC   D2A16948   6.796  44.657   8.344
 1152POPC   C3A16949   6.768  44.928   7.987
 1152POPC   C4A16950   6.680  44.718   7.614
 1152POPC   C1B16951   6.595  44.388   8.797
 1152POPC   C2B16952   6.378  44.375   8.434
 1152POPC   C3B16953   6.522  44.271   8.038
 1152POPC   C4B16954   6.324  44.329   7.653
 1153POPC   NC316955  25.697   1.628   9.394
 1153POPC   PO416956  25.199   2.084   9.346
 1153POPC   GL116957  25.510   1.966   9.066
 1153POPC   GL216958  25.655   2.269   8.959
 1153POPC   C1A16959  25.418   1.669   8.740
 1153POPC   D2A16960  25.140   1.627   8.362
 1153POPC   C3A16961  25.376   1.673   7.965
 1153POPC   C4A16962  25.288   2.022   7.672
 1153POPC   C1B16963  25.439   2.151   8.576
 1153POPC   C2B16964  25.492   2.140   8.144
 1153POPC   C3B16965  25.727   2.305   7.810
 1153POPC   C4B16966  25.644   2.255   7.372
 1154POPC   NC316967  24.589  28.419   9.467
 1154POPC   PO416968  24.082  27.949   9.465
 1154POPC   GL116969  24.286  28.129   9.131
 1154POPC   GL216970  24.216  28.439   9.040
 1154POPC   C1A16971  24.595  28.205   8.817
 1154POPC   D2A16972  24.671  28.365   8.423
 1154POPC   C3A16973  24.510  28.151   8.105
 1154POPC   C4A16974  24.762  28.056   7.770
 1154POPC   C1B16975  24.349  28.658   8.715
 1154POPC   C2B16976  24.146  28.739   8.389
 1154POPC   C3B16977  24.154  28.541   8.021
 1154POPC   C4B16978  24.178  28.714   7.634
 1155POPC   NC316979  14.511  27.904   9.349
 1155POPC   PO416980  14.010  27.442   9.401
 1155POPC   GL116981  14.251  27.582   9.051
 1155POPC   GL216982  14.601  27.427   8.905
 1155POPC   C1A16983  14.153  27.474   8.664
 1155POPC   D2A16984  14.428  27.300   8.441
 1155POPC   C3A16985  14.386  27.498   8.101
 1155POPC   C4A16986  14.649  27.389   7.826
 1155POPC   C1B16987  14.567  27.796   8.665
 1155POPC   C2B16988  14.445  27.982   8.287
 1155POPC   C3B16989  14.622  27.892   7.864
 1155POPC   C4B16990  14.292  27.734   7.622
 1156POPC   NC316991  34.155  42.229   9.430
 1156POPC   PO416992  34.616  42.667   9.490
 1156POPC   GL116993  34.696  42.457   9.117
 1156POPC   GL216994  34.892  42.145   9.161
 1156POPC   C1A16995  34.396  42.312   8.796
 1156POPC   D2A16996  34.130  42.107   8.484
 1156POPC   C3A16997  34.406  41.994   8.164
 1156POPC   C4A16998  34.488  42.187   7.782
 1156POPC   C1B16999  34.903  42.223   8.724
 1156POPC   C2B17000  34.794  42.467   8.365
 1156POPC   C3B17001  34.931  42.382   7.967
 1156POPC   C4B17002  35.109  42.107   7.675
 1157POPC   NC317003   6.006  30.499   9.677
 1157POPC   PO417004   5.615  31.021   9.740
 1157POPC   GL117005   5.657  30.919   9.285
 1157POPC   GL217006   6.012  30.865   9.278
 1157POPC   C1A17007   5.697  30.652   8.867
 1157POPC   D2A17008   5.884  30.568   8.431
 1157POPC   C3A17009   5.661  30.540   8.013
 1157POPC   C4A17010   5.759  30.518   7.581
 1157POPC   C1B17011   5.948  31.109   8.887
 1157POPC   C2B17012   5.737  31.057   8.499
 1157POPC   C3B17013   5.876  31.002   8.090
 1157POPC   C4B17014   6.086  30.943   7.682
 1158POPC   NC317015  15.798  37.517   9.357
 1158POPC   PO417016  16.486  37.693   9.325
 1158POPC   GL117017  16.168  37.810   9.063
 1158POPC   GL217018  16.070  37.503   8.921
 1158POPC   C1A17019  16.070  37.967   8.653
 1158POPC   D2A17020  15.876  37.747   8.318
 1158POPC   C3A17021  16.030  37.785   7.895
 1158POPC   C4A17022  16.359  38.027   7.768
 1158POPC   C1B17023  15.689  37.381   8.694
 1158POPC   C2B17024  15.551  37.349   8.277
 1158POPC   C3B17025  15.892  37.305   7.989
 1158POPC   C4B17026  15.894  37.360   7.550
 1159POPC   NC317027  32.484  40.872   9.246
 1159POPC   PO417028  31.994  40.441   9.480
 1159POPC   GL117029  32.062  40.625   9.069
 1159POPC   GL217030  32.039  41.002   9.043
 1159POPC   C1A17031  32.104  40.725   8.625
 1159POPC   D2A17032  31.820  40.659   8.262
 1159POPC   C3A17033  32.111  40.723   7.924
 1159POPC   C4A17034  32.557  40.606   7.854
 1159POPC   C1B17035  32.303  41.233   8.704
 1159POPC   C2B17036  32.605  41.278   8.388
 1159POPC   C3B17037  32.455  41.083   8.035
 1159POPC   C4B17038  32.331  41.104   7.597
 1160POPC   NC317039  41.180  22.123   9.527
 1160POPC   PO417040  40.473  21.966   9.484
 1160POPC   GL117041  40.549  22.072   9.066
 1160POPC   GL217042  40.874  22.148   9.122
 1160POPC   C1A17043  40.619  22.147   8.646
 1160POPC   D2A17044  40.461  22.223   8.249
 1160POPC   C3A17045  40.718  22.089   7.925
 1160POPC   C4A17046  40.849  22.248   7.490
 1160POPC   C1B17047  41.087  21.984   8.789
 1160POPC   C2B17048  41.133  22.181   8.370
 1160POPC   C3B17049  41.174  21.891   8.035
 1160POPC   C4B17050  40.988  21.765   7.628
 1161POPC   NC317051  30.984  13.134   9.335
 1161POPC   PO417052  30.583  12.698   9.698
 1161POPC   GL117053  30.654  12.739   9.205
 1161POPC   GL217054  30.978  12.729   9.031
 1161POPC   C1A17055  30.596  12.868   8.744
 1161POPC   D2A17056  30.601  12.624   8.364
 1161POPC   C3A17057  30.661  12.809   7.976
 1161POPC   C4A17058  30.911  12.655   7.667
 1161POPC   C1B17059  31.070  12.613   8.641
 1161POPC   C2B17060  31.015  12.932   8.394
 1161POPC   C3B17061  31.140  13.022   8.022
 1161POPC   C4B17062  30.931  13.215   7.718
 1162POPC   NC317063  16.167   9.141   9.238
 1162POPC   PO417064  15.772   8.717   9.538
 1162POPC   GL117065  15.745   8.825   9.096
 1162POPC   GL217066  15.538   9.128   9.113
 1162POPC   C1A17067  15.988   8.811   8.687
 1162POPC   D2A17068  15.954   8.737   8.243
 1162POPC   C3A17069  16.059   9.069   7.965
 1162POPC   C4A17070  16.123   9.363   7.609
 1162POPC   C1B17071  15.533   9.057   8.657
 1162POPC   C2B17072  15.559   9.116   8.189
 1162POPC   C3B17073  15.625   8.956   7.756
 1162POPC   C4B17074  15.762   8.723   7.388
 1163POPC   NC317075  22.042  31.089   9.466
 1163POPC   PO417076  22.490  31.550   9.603
 1163POPC   GL117077  22.215  31.540   9.225
 1163POPC   GL217078  21.870  31.640   9.280
 1163POPC   C1A17079  22.138  31.431   8.773
 1163POPC   D2A17080  22.306  31.526   8.315
 1163POPC   C3A17081  22.104  31.320   7.975
 1163POPC   C4A17082  22.237  31.108   7.632
 1163POPC   C1B17083  21.807  31.811   8.880
 1163POPC   C2B17084  21.882  31.773   8.476
 1163POPC   C3B17085  21.942  31.812   8.033
 1163POPC   C4B17086  21.955  31.705   7.607
 1164POPC   NC317087  11.880  40.466   9.499
 1164POPC   PO417088  11.741  39.869   9.608
 1164POPC   GL117089  12.013  39.875   9.230
 1164POPC   GL217090  12.177  40.180   9.173
 1164POPC   C1A17091  12.218  39.787   8.815
 1164POPC   D2A17092  12.455  39.941   8.457
 1164POPC   C3A17093  12.218  39.890   8.086
 1164POPC   C4A17094  12.031  39.845   7.697
 1164POPC   C1B17095  12.190  40.298   8.739
 1164POPC   C2B17096  12.202  40.404   8.289
 1164POPC   C3B17097  12.015  40.312   7.878
 1164POPC   C4B17098  12.102  40.289   7.425
 1165POPC   NC317099  21.269  32.425   9.270
 1165POPC   PO417100  21.929  32.185   9.485
 1165POPC   GL117101  21.727  32.252   9.124
 1165POPC   GL217102  21.775  32.584   9.033
 1165POPC   C1A17103  21.568  32.232   8.702
 1165POPC   D2A17104  21.658  32.197   8.272
 1165POPC   C3A17105  21.243  32.219   8.070
 1165POPC   C4A17106  21.068  32.502   7.712
 1165POPC   C1B17107  21.730  32.728   8.613
 1165POPC   C2B17108  21.695  32.693   8.169
 1165POPC   C3B17109  21.592  32.470   7.787
 1165POPC   C4B17110  21.490  32.644   7.363
 1166POPC   NC317111  32.967  37.857   9.541
 1166POPC   PO417112  33.234  37.216   9.700
 1166POPC   GL117113  33.107  37.436   9.292
 1166POPC   GL217114  32.727  37.435   9.309
 1166POPC   C1A17115  33.182  37.502   8.825
 1166POPC   D2A17116  33.280  37.395   8.355
 1166POPC   C3A17117  33.133  37.677   8.001
 1166POPC   C4A17118  33.207  37.745   7.546
 1166POPC   C1B17119  32.651  37.438   8.876
 1166POPC   C2B17120  32.787  37.570   8.470
 1166POPC   C3B17121  32.621  37.544   8.072
 1166POPC   C4B17122  32.749  37.538   7.657
 1167POPC   NC317123  16.555   9.781   9.573
 1167POPC   PO417124  17.160   9.477   9.600
 1167POPC   GL117125  16.919   9.392   9.147
 1167POPC   GL217126  16.675   9.680   9.085
 1167POPC   C1A17127  16.756   9.464   8.655
 1167POPC   D2A17128  16.470   9.822   8.468
 1167POPC   C3A17129  16.510   9.942   8.013
 1167POPC   C4A17130  16.646   9.586   7.756
 1167POPC   C1B17131  16.890   9.941   8.725
 1167POPC   C2B17132  16.907  10.135   8.331
 1167POPC   C3B17133  17.033  10.041   7.921
 1167POPC   C4B17134  16.791  10.093   7.575
 1168POPC   NC317135  32.981  33.584   9.637
 1168POPC   PO417136  33.494  34.011   9.558
 1168POPC   GL117137  33.234  33.908   9.202
 1168POPC   GL217138  32.868  33.841   9.208
 1168POPC   C1A17139  33.234  33.844   8.776
 1168POPC   D2A17140  33.450  33.909   8.403
 1168POPC   C3A17141  33.277  33.811   8.016
 1168POPC   C4A17142  33.011  34.055   7.776
 1168POPC   C1B17143  32.785  33.633   8.819
 1168POPC   C2B17144  32.884  33.763   8.403
 1168POPC   C3B17145  32.705  33.703   8.018
 1168POPC   C4B17146  32.916  33.545   7.718
 1169POPC   NC317147  17.579  40.629   9.615
 1169POPC   PO417148  17.060  41.028   9.601
 1169POPC   GL117149  17.258  40.875   9.195
 1169POPC   GL217150  17.435  40.555   9.126
 1169POPC   C1A17151  17.367  40.905   8.735
 1169POPC   D2A17152  17.439  40.587   8.434
 1169POPC   C3A17153  17.600  40.523   8.035
 1169POPC   C4A17154  17.657  40.750   7.597
 1169POPC   C1B17155  17.770  40.521   8.811
 1169POPC   C2B17156  17.969  40.378   8.369
 1169POPC   C3B17157  18.220  40.268   7.964
 1169POPC   C4B17158  18.198  40.590   7.496
 1170POPC   NC317159  24.346  33.667   9.363
 1170POPC   PO417160  25.019  33.642   9.675
 1170POPC   GL117161  24.878  33.657   9.239
 1170POPC   GL217162  24.705  33.932   9.105
 1170POPC   C1A17163  24.951  33.604   8.791
 1170POPC   D2A17164  24.713  33.666   8.420
 1170POPC   C3A17165  24.805  33.992   8.133
 1170POPC   C4A17166  24.574  33.914   7.758
 1170POPC   C1B17167  24.449  33.964   8.759
 1170POPC   C2B17168  24.333  34.023   8.364
 1170POPC   C3B17169  24.195  33.749   8.075
 1170POPC   C4B17170  24.050  34.037   7.804
 1171POPC   NC317171  41.912  34.644   9.504
 1171POPC   PO417172  42.376  35.056   9.475
 1171POPC   GL117173  42.123  34.837   9.071
 1171POPC   GL217174  42.073  34.460   9.044
 1171POPC   C1A17175  42.167  34.722   8.596
 1171POPC   D2A17176  42.454  34.457   8.311
 1171POPC   C3A17177  42.568  34.709   7.948
 1171POPC   C4A17178  42.392  35.053   7.692
 1171POPC   C1B17179  42.138  34.212   8.668
 1171POPC   C2B17180  42.020  34.218   8.226
 1171POPC   C3B17181  42.209  34.357   7.822
 1171POPC   C4B17182  42.275  34.385   7.349
 1172POPC   NC317183   3.064  19.906   9.464
 1172POPC   PO417184   3.722  19.855   9.618
 1172POPC   GL117185   3.603  19.785   9.213
 1172POPC   GL217186   3.367  20.015   9.099
 1172POPC   C1A17187   3.539  19.645   8.808
 1172POPC   D2A17188   3.751  19.686   8.459
 1172POPC   C3A17189   3.514  19.711   8.132
 1172POPC   C4A17190   3.585  19.823   7.752
 1172POPC   C1B17191   3.155  19.958   8.727
 1172POPC   C2B17192   3.158  20.047   8.309
 1172POPC   C3B17193   3.142  20.048   7.880
 1172POPC   C4B17194   3.302  20.302   7.517
 1173POPC   NC317195  28.792   6.990   9.426
 1173POPC   PO417196  29.263   7.463   9.538
 1173POPC   GL117197  29.084   7.495   9.185
 1173POPC   GL217198  29.190   7.144   9.118
 1173POPC   C1A17199  29.105   7.780   8.846
 1173POPC   D2A17200  29.123   7.612   8.428
 1173POPC   C3A17201  28.943   7.706   8.060
 1173POPC   C4A17202  29.130   7.625   7.666
 1173POPC   C1B17203  28.946   7.244   8.753
 1173POPC   C2B17204  28.949   7.090   8.354
 1173POPC   C3B17205  29.089   7.205   7.968
 1173POPC   C4B17206  28.879   7.031   7.643
 1174POPC   NC317207  11.399  27.410   9.469
 1174POPC   PO417208  10.992  27.970   9.597
 1174POPC   GL117209  11.141  27.857   9.198
 1174POPC   GL217210  11.489  27.837   9.108
 1174POPC   C1A17211  11.105  27.742   8.757
 1174POPC   D2A17212  11.118  27.473   8.456
 1174POPC   C3A17213  11.293  27.691   8.158
 1174POPC   C4A17214  11.320  27.690   7.730
 1174POPC   C1B17215  11.536  27.479   8.809
 1174POPC   C2B17216  11.615  27.336   8.382
 1174POPC   C3B17217  11.728  27.478   7.957
 1174POPC   C4B17218  11.837  27.896   7.764
 1175POPC   NC317219  44.950  31.735   9.354
 1175POPC   PO417220  44.587  31.238   9.713
 1175POPC   GL117221  44.521  31.381   9.229
 1175POPC   GL217222  44.577  31.701   9.019
 1175POPC   C1A17223  44.365  31.181   8.828
 1175POPC   D2A17224  44.350  31.008   8.393
 1175POPC   C3A17225  44.613  31.231   8.125
 1175POPC   C4A17226  44.605  31.424   7.759
 1175POPC   C1B17227  44.780  31.858   8.627
 1175POPC   C2B17228  44.945  31.650   8.240
 1175POPC   C3B17229   0.022  31.704   7.792
 1175POPC   C4B17230   0.224  31.921   7.435
 1176POPC   NC317231  22.964  18.534   9.622
 1176POPC   PO417232  22.492  18.039   9.537
 1176POPC   GL117233  22.658  18.281   9.185
 1176POPC   GL217234  23.005  18.379   9.129
 1176POPC   C1A17235  22.751  18.185   8.732
 1176POPC   D2A17236  23.052  18.243   8.367
 1176POPC   C3A17237  22.833  18.292   7.942
 1176POPC   C4A17238  22.724  18.258   7.485
 1176POPC   C1B17239  23.025  18.628   8.759
 1176POPC   C2B17240  23.206  18.812   8.423
 1176POPC   C3B17241  23.164  18.670   8.028
 1176POPC   C4B17242  23.039  18.758   7.635
 1177POPC   NC317243  28.647  33.327   9.817
 1177POPC   PO417244  28.427  32.781   9.538
 1177POPC   GL117245  28.268  32.958   9.205
 1177POPC   GL217246  28.446  33.246   9.103
 1177POPC   C1A17247  28.174  32.952   8.776
 1177POPC   D2A17248  28.187  33.169   8.385
 1177POPC   C3A17249  28.223  32.936   8.033
 1177POPC   C4A17250  28.057  33.116   7.688
 1177POPC   C1B17251  28.615  33.263   8.683
 1177POPC   C2B17252  28.598  33.483   8.288
 1177POPC   C3B17253  28.440  33.403   7.859
 1177POPC   C4B17254  28.587  33.510   7.418
 1178POPC   NC317255  15.771   1.533   9.503
 1178POPC   PO417256  16.210   1.963   9.736
 1178POPC   GL117257  16.031   1.955   9.308
 1178POPC   GL217258  16.358   1.942   9.202
 1178POPC   C1A17259  15.964   2.005   8.817
 1178POPC   D2A17260  15.844   2.182   8.383
 1178POPC   C3A17261  15.778   2.082   7.896
 1178POPC   C4A17262  15.792   1.997   7.432
 1178POPC   C1B17263  16.473   2.145   8.795
 1178POPC   C2B17264  16.525   2.083   8.376
 1178POPC   C3B17265  16.230   2.246   8.066
 1178POPC   C4B17266  16.189   2.376   7.625
 1179POPC   NC317267  32.702  21.849   9.317
 1179POPC   PO417268  33.153  21.311   9.310
 1179POPC   GL117269  33.071  21.622   9.046
 1179POPC   GL217270  32.732  21.458   8.996
 1179POPC   C1A17271  32.949  21.790   8.641
 1179POPC   D2A17272  32.780  21.722   8.235
 1179POPC   C3A17273  33.071  21.443   8.005
 1179POPC   C4A17274  33.035  21.223   7.588
 1179POPC   C1B17275  32.685  21.077   8.767
 1179POPC   C2B17276  32.820  21.169   8.368
 1179POPC   C3B17277  32.818  20.995   7.987
 1179POPC   C4B17278  32.567  21.063   7.618
 1180POPC   NC317279   9.756  36.597   9.553
 1180POPC   PO417280  10.041  37.235   9.247
 1180POPC   GL117281   9.682  36.963   9.135
 1180POPC   GL217282   9.929  36.727   9.076
 1180POPC   C1A17283   9.507  36.791   8.730
 1180POPC   D2A17284   9.529  36.736   8.277
 1180POPC   C3A17285   9.583  37.088   7.942
 1180POPC   C4A17286   9.579  37.073   7.478
 1180POPC   C1B17287  10.011  36.900   8.651
 1180POPC   C2B17288  10.006  36.921   8.197
 1180POPC   C3B17289   9.829  36.634   7.869
 1180POPC   C4B17290  10.025  36.542   7.476
 1181POPC   NC317291  13.042  42.636   9.324
 1181POPC   PO417292  12.826  43.320   9.397
 1181POPC   GL117293  12.601  43.179   9.084
 1181POPC   GL217294  12.877  42.955   8.950
 1181POPC   C1A17295  12.495  43.053   8.667
 1181POPC   D2A17296  12.668  42.700   8.456
 1181POPC   C3A17297  12.652  42.780   8.021
 1181POPC   C4A17298  12.540  43.120   7.798
 1181POPC   C1B17299  13.019  43.149   8.543
 1181POPC   C2B17300  12.947  43.254   8.108
 1181POPC   C3B17301  13.060  43.002   7.733
 1181POPC   C4B17302  13.204  42.905   7.302
 1182POPC   NC317303  12.064  44.024   9.617
 1182POPC   PO417304  12.130  43.365   9.458
 1182POPC   GL117305  12.086  43.652   9.100
 1182POPC   GL217306  12.064  43.964   9.119
 1182POPC   C1A17307  12.368  43.870   8.735
 1182POPC   D2A17308  12.478  44.078   8.344
 1182POPC   C3A17309  12.169  43.932   8.049
 1182POPC   C4A17310  11.906  43.683   7.747
 1182POPC   C1B17311  11.816  43.960   8.775
 1182POPC   C2B17312  11.824  44.183   8.386
 1182POPC   C3B17313  11.690  44.082   7.989
 1182POPC   C4B17314  11.693  44.084   7.523
 1183POPC   NC317315  21.114  33.113   9.556
 1183POPC   PO417316  21.560  32.717   9.465
 1183POPC   GL117317  21.476  32.998   9.156
 1183POPC   GL217318  21.130  33.026   9.054
 1183POPC   C1A17319  21.521  33.182   8.765
 1183POPC   D2A17320  21.310  33.250   8.392
 1183POPC   C3A17321  21.627  33.193   8.104
 1183POPC   C4A17322  21.641  32.963   7.729
 1183POPC   C1B17323  21.201  32.762   8.689
 1183POPC   C2B17324  21.166  32.709   8.241
 1183POPC   C3B17325  21.152  33.013   7.929
 1183POPC   C4B17326  21.362  33.375   7.724
 1184POPC   NC317327  33.995  35.828   9.568
 1184POPC   PO417328  33.409  35.692   9.505
 1184POPC   GL117329  33.637  35.904   9.132
 1184POPC   GL217330  33.995  35.930   9.083
 1184POPC   C1A17331  33.712  35.967   8.644
 1184POPC   D2A17332  33.805  36.312   8.334
 1184POPC   C3A17333  33.718  36.362   7.882
 1184POPC   C4A17334  33.643  36.078   7.559
 1184POPC   C1B17335  34.137  35.685   8.756
 1184POPC   C2B17336  34.129  35.896   8.363
 1184POPC   C3B17337  33.916  35.913   8.012
 1184POPC   C4B17338  34.129  35.827   7.646
 1185POPC   NC317339   8.529  44.020   9.517
 1185POPC   PO417340   8.355  43.333   9.443
 1185POPC   GL117341   8.176  43.716   9.247
 1185POPC   GL217342   8.502  43.731   9.092
 1185POPC   C1A17343   8.143  44.018   8.860
 1185POPC   D2A17344   8.294  44.233   8.483
 1185POPC   C3A17345   8.004  44.263   8.130
 1185POPC   C4A17346   8.142  44.264   7.700
 1185POPC   C1B17347   8.239  43.513   8.786
 1185POPC   C2B17348   8.358  43.510   8.383
 1185POPC   C3B17349   8.191  43.566   8.005
 1185POPC   C4B17350   8.412  43.704   7.657
 1186POPC   NC317351  16.003  35.719   9.316
 1186POPC   PO417352  15.615  35.218   9.483
 1186POPC   GL117353  15.782  35.140   9.081
 1186POPC   GL217354  16.092  35.211   9.175
 1186POPC   C1A17355  15.889  35.360   8.689
 1186POPC   D2A17356  16.066  35.616   8.347
 1186POPC   C3A17357  15.895  35.506   7.947
 1186POPC   C4A17358  15.886  35.619   7.520
 1186POPC   C1B17359  16.357  35.203   8.817
 1186POPC   C2B17360  16.254  35.138   8.379
 1186POPC   C3B17361  16.368  35.342   8.021
 1186POPC   C4B17362  16.271  35.284   7.598
 1187POPC   NC317363  41.934   7.900   9.416
 1187POPC   PO417364  41.363   8.161   9.551
 1187POPC   GL117365  41.405   8.312   9.129
 1187POPC   GL217366  41.097   8.140   9.085
 1187POPC   C1A17367  41.658   8.409   8.719
 1187POPC   D2A17368  41.444   8.494   8.312
 1187POPC   C3A17369  41.682   8.504   7.926
 1187POPC   C4A17370  41.929   8.157   7.778
 1187POPC   C1B17371  41.260   8.122   8.674
 1187POPC   C2B17372  41.559   7.962   8.382
 1187POPC   C3B17373  41.470   7.972   7.957
 1187POPC   C4B17374  41.187   8.283   7.905
 1188POPC   NC317375  12.446   7.946   9.449
 1188POPC   PO417376  13.025   8.358   9.473
 1188POPC   GL117377  13.003   8.322   9.083
 1188POPC   GL217378  12.654   8.316   9.119
 1188POPC   C1A17379  12.888   8.391   8.687
 1188POPC   D2A17380  12.958   8.123   8.411
 1188POPC   C3A17381  12.843   8.256   8.050
 1188POPC   C4A17382  12.999   8.288   7.627
 1188POPC   C1B17383  12.638   7.963   8.812
 1188POPC   C2B17384  12.585   7.773   8.384
 1188POPC   C3B17385  12.587   7.834   7.946
 1188POPC   C4B17386  12.521   8.147   7.665
 1189POPC   NC317387  31.066  36.240   9.308
 1189POPC   PO417388  31.770  36.217   9.598
 1189POPC   GL117389  31.567  36.304   9.233
 1189POPC   GL217390  31.444  35.961   9.109
 1189POPC   C1A17391  31.506  36.459   8.828
 1189POPC   D2A17392  31.442  36.200   8.488
 1189POPC   C3A17393  31.685  36.326   8.168
 1189POPC   C4A17394  31.615  36.285   7.771
 1189POPC   C1B17395  31.401  35.730   8.713
 1189POPC   C2B17396  31.162  35.699   8.334
 1189POPC   C3B17397  31.309  35.880   7.948
 1189POPC   C4B17398  31.493  35.814   7.542
 1190POPC   NC317399  22.605   9.346   9.718
 1190POPC   PO417400  22.951   9.863   9.544
 1190POPC   GL117401  23.154   9.852   9.142
 1190POPC   GL217402  23.263   9.522   9.120
 1190POPC   C1A17403  23.173   9.780   8.679
 1190POPC   D2A17404  22.940   9.800   8.343
 1190POPC   C3A17405  23.226   9.683   8.095
 1190POPC   C4A17406  23.176   9.842   7.749
 1190POPC   C1B17407  22.911   9.409   8.853
 1190POPC   C2B17408  22.540   9.564   8.583
 1190POPC   C3B17409  22.496   9.602   8.117
 1190POPC   C4B17410  22.717   9.618   7.734
 1191POPC   NC317411  23.241   3.018   9.620
 1191POPC   PO417412  23.927   2.773   9.513
 1191POPC   GL117413  23.722   2.904   9.164
 1191POPC   GL217414  23.618   2.570   9.033
 1191POPC   C1A17415  23.885   2.882   8.753
 1191POPC   D2A17416  23.640   2.666   8.471
 1191POPC   C3A17417  23.859   2.732   8.129
 1191POPC   C4A17418  23.774   2.984   7.797
 1191POPC   C1B17419  23.957   2.367   8.746
 1191POPC   C2B17420  23.879   2.207   8.331
 1191POPC   C3B17421  23.991   2.301   7.904
 1191POPC   C4B17422  23.652   2.496   7.689
 1192POPC   NC317423   0.862  15.745   9.629
 1192POPC   PO417424   0.936  16.404   9.497
 1192POPC   GL117425   1.198  16.221   9.182
 1192POPC   GL217426   1.171  15.827   9.146
 1192POPC   C1A17427   1.102  16.248   8.760
 1192POPC   D2A17428   1.051  16.415   8.366
 1192POPC   C3A17429   1.245  16.144   8.057
 1192POPC   C4A17430   1.187  15.973   7.635
 1192POPC   C1B17431   1.276  15.683   8.698
 1192POPC   C2B17432   1.359  15.623   8.247
 1192POPC   C3B17433   1.028  15.522   7.972
 1192POPC   C4B17434   0.936  15.539   7.536
 1193POPC   NC317435  21.928  22.991   9.525
 1193POPC   PO417436  21.258  22.948   9.550
 1193POPC   GL117437  21.205  23.019   9.139
 1193POPC   GL217438  21.569  23.054   9.135
 1193POPC   C1A17439  21.296  22.977   8.707
 1193POPC   D2A17440  21.263  22.731   8.356
 1193POPC   C3A17441  21.355  22.962   7.987
 1193POPC   C4A17442  21.399  22.815   7.548
 1193POPC   C1B17443  21.840  23.217   8.808
 1193POPC   C2B17444  21.701  23.173   8.393
 1193POPC   C3B17445  21.660  23.391   8.024
 1193POPC   C4B17446  21.779  23.101   7.731
 1194POPC   NC317447  31.224   9.304   9.513
 1194POPC   PO417448  31.458   9.918   9.492
 1194POPC   GL117449  31.280   9.687   9.154
 1194POPC   GL217450  31.631   9.743   9.038
 1194POPC   C1A17451  31.317   9.514   8.719
 1194POPC   D2A17452  31.581   9.749   8.440
 1194POPC   C3A17453  31.538   9.712   8.042
 1194POPC   C4A17454  31.378   9.523   7.726
 1194POPC   C1B17455  31.882  10.029   8.757
 1194POPC   C2B17456  32.024   9.980   8.311
 1194POPC   C3B17457  31.778  10.162   7.963
 1194POPC   C4B17458  31.601  10.083   7.547
 1195POPC   NC317459  24.826   1.795   9.393
 1195POPC   PO417460  24.330   2.188   9.516
 1195POPC   GL117461  24.297   2.042   9.109
 1195POPC   GL217462  24.343   1.682   9.156
 1195POPC   C1A17463  24.472   2.135   8.696
 1195POPC   D2A17464  24.704   1.994   8.316
 1195POPC   C3A17465  24.511   2.184   7.955
 1195POPC   C4A17466  24.777   2.515   7.815
 1195POPC   C1B17467  24.541   1.615   8.742
 1195POPC   C2B17468  24.635   1.483   8.312
 1195POPC   C3B17469  24.460   1.656   7.892
 1195POPC   C4B17470  24.456   1.733   7.399
 1196POPC   NC317471  38.221  21.772   9.371
 1196POPC   PO417472  38.401  21.057   9.489
 1196POPC   GL117473  38.500  21.392   9.178
 1196POPC   GL217474  38.172  21.320   9.099
 1196POPC   C1A17475  38.403  21.612   8.763
 1196POPC   D2A17476  38.212  21.422   8.408
 1196POPC   C3A17477  38.463  21.497   8.055
 1196POPC   C4A17478  38.697  21.396   7.689
 1196POPC   C1B17479  38.416  21.088   8.783
 1196POPC   C2B17480  38.508  20.991   8.384
 1196POPC   C3B17481  38.595  20.987   7.980
 1196POPC   C4B17482  38.201  21.094   7.874
 1197POPC   NC317483  27.440  19.365   9.560
 1197POPC   PO417484  28.127  19.367   9.309
 1197POPC   GL117485  27.788  19.161   9.098
 1197POPC   GL217486  27.456  19.009   9.162
 1197POPC   C1A17487  27.634  19.174   8.685
 1197POPC   D2A17488  27.778  19.070   8.296
 1197POPC   C3A17489  27.525  19.257   8.005
 1197POPC   C4A17490  27.493  19.070   7.613
 1197POPC   C1B17491  27.178  18.963   8.797
 1197POPC   C2B17492  27.253  18.948   8.378
 1197POPC   C3B17493  27.184  18.804   8.002
 1197POPC   C4B17494  27.018  18.902   7.614
 1198POPC   NC317495  39.105  39.588   9.560
 1198POPC   PO417496  39.221  40.305   9.484
 1198POPC   GL117497  39.124  40.144   9.116
 1198POPC   GL217498  39.328  39.864   9.180
 1198POPC   C1A17499  38.972  40.102   8.694
 1198POPC   D2A17500  39.204  39.982   8.324
 1198POPC   C3A17501  39.211  40.240   8.006
 1198POPC   C4A17502  38.872  40.350   7.765
 1198POPC   C1B17503  39.428  39.858   8.759
 1198POPC   C2B17504  39.720  39.928   8.473
 1198POPC   C3B17505  39.673  39.944   8.079
 1198POPC   C4B17506  39.688  40.166   7.776
 1199POPC   NC317507  14.001  38.985   9.499
 1199POPC   PO417508  13.339  39.315   9.487
 1199POPC   GL117509  13.709  39.345   9.202
 1199POPC   GL217510  13.821  39.009   9.025
 1199POPC   C1A17511  13.799  39.447   8.773
 1199POPC   D2A17512  13.852  39.114   8.459
 1199POPC   C3A17513  13.686  39.208   8.049
 1199POPC   C4A17514  13.443  39.431   7.723
 1199POPC   C1B17515  13.424  38.943   8.752
 1199POPC   C2B17516  13.197  38.895   8.305
 1199POPC   C3B17517  13.281  38.951   7.848
 1199POPC   C4B17518  13.307  39.042   7.388
 1200POPC   NC317519  41.269  14.670   9.446
 1200POPC   PO417520  41.598  14.077   9.453
 1200POPC   GL117521  41.495  14.269   9.119
 1200POPC   GL217522  41.171  14.359   9.016
 1200POPC   C1A17523  41.699  14.267   8.743
 1200POPC   D2A17524  41.770  14.483   8.394
 1200POPC   C3A17525  41.834  14.263   8.018
 1200POPC   C4A17526  41.681  14.374   7.625
 1200POPC   C1B17527  41.402  14.687   8.821
 1200POPC   C2B17528  41.351  14.786   8.440
 1200POPC   C3B17529  41.421  14.624   8.039
 1200POPC   C4B17530  41.486  14.884   7.697
 1201POPC   NC317531  25.363  27.251   9.584
 1201POPC   PO417532  25.429  26.604   9.569
 1201POPC   GL117533  25.331  26.809   9.158
 1201POPC   GL217534  24.958  26.865   9.116
 1201POPC   C1A17535  25.459  26.820   8.693
 1201POPC   D2A17536  25.225  26.886   8.280
 1201POPC   C3A17537  25.456  26.850   7.861
 1201POPC   C4A17538  25.335  26.658   7.448
 1201POPC   C1B17539  25.045  27.120   8.734
 1201POPC   C2B17540  25.114  27.401   8.376
 1201POPC   C3B17541  25.028  27.309   7.946
 1201POPC   C4B17542  25.135  27.131   7.541
 1202POPC   NC317543  12.059  21.619   9.535
 1202POPC   PO417544  12.433  21.086   9.315
 1202POPC   GL117545  12.219  21.390   9.090
 1202POPC   GL217546  11.856  21.403   9.130
 1202POPC   C1A17547  12.125  21.330   8.670
 1202POPC   D2A17548  12.310  21.188   8.293
 1202POPC   C3A17549  12.321  21.487   7.944
 1202POPC   C4A17550  12.382  21.351   7.530
 1202POPC   C1B17551  11.789  21.702   8.773
 1202POPC   C2B17552  11.812  21.579   8.327
 1202POPC   C3B17553  11.827  21.685   7.878
 1202POPC   C4B17554  11.889  21.488   7.457
 1203POPC   NC317555   8.772  11.928   9.441
 1203POPC   PO417556   9.231  12.382   9.445
 1203POPC   GL117557   8.948  12.287   9.101
 1203POPC   GL217558   8.561  12.306   9.162
 1203POPC   C1A17559   9.087  12.071   8.740
 1203POPC   D2A17560   9.103  12.226   8.320
 1203POPC   C3A17561   9.065  12.000   7.944
 1203POPC   C4A17562   8.973  12.271   7.594
 1203POPC   C1B17563   8.566  11.973   8.834
 1203POPC   C2B17564   8.726  11.895   8.435
 1203POPC   C3B17565   8.571  11.895   8.053
 1203POPC   C4B17566   8.550  12.020   7.670
 1204POPC   NC317567  16.691  37.266   9.206
 1204POPC   PO417568  16.842  37.761   9.702
 1204POPC   GL117569  16.896  37.812   9.101
 1204POPC   GL217570  16.599  37.581   8.848
 1204POPC   C1A17571  16.628  38.019   8.678
 1204POPC   D2A17572  16.430  37.808   8.290
 1204POPC   C3A17573  16.720  37.685   7.945
 1204POPC   C4A17574  16.708  37.791   7.493
 1204POPC   C1B17575  16.686  37.286   8.537
 1204POPC   C2B17576  17.041  37.098   8.374
 1204POPC   C3B17577  17.082  37.266   7.980
 1204POPC   C4B17578  16.824  37.261   7.619
 1205POPC   NC317579  42.008  10.406   9.788
 1205POPC   PO417580  41.587  10.698   9.348
 1205POPC   GL117581  41.440  10.350   9.085
 1205POPC   GL217582  41.635  10.194   8.874
 1205POPC   C1A17583  41.174  10.371   8.723
 1205POPC   D2A17584  41.466  10.561   8.475
 1205POPC   C3A17585  41.441  10.406   8.089
 1205POPC   C4A17586  41.438  10.445   7.697
 1205POPC   C1B17587  41.870  10.590   8.793
 1205POPC   C2B17588  41.939  10.846   8.469
 1205POPC   C3B17589  41.730  10.836   8.082
 1205POPC   C4B17590  41.881  10.669   7.723
 1206POPC   NC317591   6.995   1.145   9.301
 1206POPC   PO417592   7.648   1.071   9.527
 1206POPC   GL117593   7.498   1.178   9.155
 1206POPC   GL217594   7.484   0.836   9.091
 1206POPC   C1A17595   7.438   1.310   8.746
 1206POPC   D2A17596   7.647   1.356   8.372
 1206POPC   C3A17597   7.571   1.108   8.011
 1206POPC   C4A17598   7.414   1.391   7.756
 1206POPC   C1B17599   7.242   0.845   8.723
 1206POPC   C2B17600   7.189   1.105   8.345
 1206POPC   C3B17601   7.077   0.995   7.908
 1206POPC   C4B17602   7.334   0.774   7.649
 1207POPC   NC317603  10.477   6.584   9.348
 1207POPC   PO417604  10.012   7.063   9.373
 1207POPC   GL117605  10.231   6.862   9.007
 1207POPC   GL217606  10.586   6.857   8.924
 1207POPC   C1A17607  10.291   6.528   8.678
 1207POPC   D2A17608  10.425   6.376   8.282
 1207POPC   C3A17609  10.349   6.649   7.932
 1207POPC   C4A17610  10.566   6.692   7.569
 1207POPC   C1B17611  10.770   6.426   8.753
 1207POPC   C2B17612  10.912   6.226   8.360
 1207POPC   C3B17613  10.843   6.382   7.955
 1207POPC   C4B17614  11.035   6.513   7.599
 1208POPC   NC317615   9.359   4.459  10.022
 1208POPC   PO417616   9.590   3.956   9.576
 1208POPC   GL117617   9.689   4.331   9.248
 1208POPC   GL217618  10.044   4.514   9.168
 1208POPC   C1A17619   9.639   4.579   8.868
 1208POPC   D2A17620   9.517   4.306   8.517
 1208POPC   C3A17621   9.596   4.400   8.104
 1208POPC   C4A17622   9.525   4.254   7.691
 1208POPC   C1B17623   9.985   4.225   8.781
 1208POPC   C2B17624  10.065   4.298   8.329
 1208POPC   C3B17625  10.024   4.210   7.888
 1208POPC   C4B17626  10.089   4.441   7.529
 1209POPC   NC317627  41.077  17.986   9.306
 1209POPC   PO417628  41.131  17.404   9.750
 1209POPC   GL117629  40.986  17.458   9.285
 1209POPC   GL217630  40.984  17.112   9.141
 1209POPC   C1A17631  40.744  17.575   8.874
 1209POPC   D2A17632  40.602  17.563   8.406
 1209POPC   C3A17633  40.905  17.693   8.096
 1209POPC   C4A17634  40.985  17.578   7.673
 1209POPC   C1B17635  40.707  17.069   8.765
 1209POPC   C2B17636  40.801  17.087   8.314
 1209POPC   C3B17637  40.677  17.258   7.911
 1209POPC   C4B17638  40.829  17.096   7.505
 1210POPC   NC317639  16.063  29.654   9.428
 1210POPC   PO417640  15.465  29.895   9.578
 1210POPC   GL117641  15.705  29.931   9.162
 1210POPC   GL217642  16.040  30.004   9.066
 1210POPC   C1A17643  15.671  30.208   8.782
 1210POPC   D2A17644  15.425  30.280   8.403
 1210POPC   C3A17645  15.640  30.102   8.047
 1210POPC   C4A17646  15.963  30.122   7.728
 1210POPC   C1B17647  15.922  29.749   8.702
 1210POPC   C2B17648  16.008  29.806   8.249
 1210POPC   C3B17649  16.242  29.717   7.867
 1210POPC   C4B17650  16.332  29.309   7.676
 1211POPC   NC317651  25.417  21.334   9.518
 1211POPC   PO417652  24.835  21.601   9.234
 1211POPC   GL117653  25.102  21.208   9.113
 1211POPC   GL217654  25.484  21.063   9.094
 1211POPC   C1A17655  25.160  21.296   8.701
 1211POPC   D2A17656  25.398  21.593   8.503
 1211POPC   C3A17657  25.280  21.558   8.087
 1211POPC   C4A17658  25.056  21.225   7.916
 1211POPC   C1B17659  25.667  21.117   8.683
 1211POPC   C2B17660  25.439  21.107   8.297
 1211POPC   C3B17661  25.642  21.039   7.952
 1211POPC   C4B17662  25.806  21.155   7.593
 1212POPC   NC317663  35.898   5.492   9.384
 1212POPC   PO417664  36.130   4.787   9.395
 1212POPC   GL117665  35.917   5.023   9.141
 1212POPC   GL217666  36.208   5.230   9.082
 1212POPC   C1A17667  35.805   4.995   8.730
 1212POPC   D2A17668  35.991   5.233   8.397
 1212POPC   C3A17669  35.831   5.076   8.016
 1212POPC   C4A17670  36.011   4.838   7.649
 1212POPC   C1B17671  36.397   5.004   8.754
 1212POPC   C2B17672  36.565   4.895   8.357
 1212POPC   C3B17673  36.344   5.099   8.026
 1212POPC   C4B17674  36.454   5.095   7.615
 1213POPC   NC317675  38.577   6.634   9.467
 1213POPC   PO417676  38.031   6.965   9.281
 1213POPC   GL117677  38.392   6.926   9.036
 1213POPC   GL217678  38.752   7.010   9.128
 1213POPC   C1A17679  38.294   6.694   8.668
 1213POPC   D2A17680  38.181   6.381   8.386
 1213POPC   C3A17681  38.330   6.527   8.003
 1213POPC   C4A17682  38.071   6.707   7.753
 1213POPC   C1B17683  38.789   6.634   8.833
 1213POPC   C2B17684  38.714   6.647   8.363
 1213POPC   C3B17685  38.819   6.686   7.915
 1213POPC   C4B17686  38.847   6.426   7.535
 1214POPC   NC317687  11.930  19.018   9.481
 1214POPC   PO417688  12.571  18.727   9.496
 1214POPC   GL117689  12.260  18.799   9.172
 1214POPC   GL217690  12.278  19.161   9.133
 1214POPC   C1A17691  11.927  18.930   8.824
 1214POPC   D2A17692  11.690  18.998   8.418
 1214POPC   C3A17693  11.947  19.004   8.019
 1214POPC   C4A17694  11.950  19.168   7.601
 1214POPC   C1B17695  12.211  19.395   8.783
 1214POPC   C2B17696  12.178  19.245   8.400
 1214POPC   C3B17697  12.443  19.259   8.034
 1214POPC   C4B17698  12.501  19.212   7.592
 1215POPC   NC317699  17.893   6.556   9.506
 1215POPC   PO417700  17.185   6.577   9.527
 1215POPC   GL117701  17.507   6.771   9.241
 1215POPC   GL217702  17.292   6.926   9.071
 1215POPC   C1A17703  17.677   6.681   8.796
 1215POPC   D2A17704  17.453   6.626   8.391
 1215POPC   C3A17705  17.586   6.428   8.025
 1215POPC   C4A17706  17.594   6.780   7.751
 1215POPC   C1B17707  17.118   6.765   8.760
 1215POPC   C2B17708  17.024   6.946   8.394
 1215POPC   C3B17709  17.193   6.950   7.998
 1215POPC   C4B17710  17.149   6.548   7.775
 1216POPC   NC317711  21.583  20.611   9.549
 1216POPC   PO417712  21.230  21.132   9.307
 1216POPC   GL117713  21.356  20.730   9.110
 1216POPC   GL217714  21.437  20.382   9.137
 1216POPC   C1A17715  21.399  20.665   8.680
 1216POPC   D2A17716  21.175  20.688   8.289
 1216POPC   C3A17717  21.398  20.645   7.893
 1216POPC   C4A17718  21.478  21.027   7.675
 1216POPC   C1B17719  21.633  20.229   8.761
 1216POPC   C2B17720  21.485  20.228   8.338
 1216POPC   C3B17721  21.734  20.259   7.966
 1216POPC   C4B17722  21.690  20.333   7.515
 1217POPC   NC317723  16.525  30.485   9.473
 1217POPC   PO417724  16.950  31.074   9.453
 1217POPC   GL117725  16.779  30.854   9.133
 1217POPC   GL217726  17.076  30.948   8.963
 1217POPC   C1A17727  16.726  30.567   8.791
 1217POPC   D2A17728  16.429  30.593   8.459
 1217POPC   C3A17729  16.520  30.777   8.109
 1217POPC   C4A17730  16.671  30.665   7.756
 1217POPC   C1B17731  17.243  30.681   8.697
 1217POPC   C2B17732  17.217  30.613   8.278
 1217POPC   C3B17733  17.140  30.541   7.882
 1217POPC   C4B17734  17.091  30.853   7.562
 1218POPC   NC317735  32.473   6.349   9.438
 1218POPC   PO417736  32.202   5.728   9.613
 1218POPC   GL117737  32.268   5.744   9.175
 1218POPC   GL217738  31.943   5.808   9.118
 1218POPC   C1A17739  32.304   5.932   8.755
 1218POPC   D2A17740  32.599   5.847   8.438
 1218POPC   C3A17741  32.581   6.046   8.069
 1218POPC   C4A17742  32.345   5.974   7.715
 1218POPC   C1B17743  31.908   5.652   8.660
 1218POPC   C2B17744  32.061   5.838   8.246
 1218POPC   C3B17745  31.881   5.827   7.824
 1218POPC   C4B17746  31.951   5.902   7.360
 1219POPC   NC317747  16.546  37.388   9.673
 1219POPC   PO417748  16.885  36.788   9.476
 1219POPC   GL117749  16.840  36.762   9.075
 1219POPC   GL217750  16.470  36.804   9.097
 1219POPC   C1A17751  16.715  36.787   8.657
 1219POPC   D2A17752  16.466  36.834   8.311
 1219POPC   C3A17753  16.765  36.850   7.991
 1219POPC   C4A17754  16.788  36.731   7.577
 1219POPC   C1B17755  16.244  37.036   8.759
 1219POPC   C2B17756  16.180  37.343   8.443
 1219POPC   C3B17757  16.413  37.287   8.077
 1219POPC   C4B17758  16.309  36.959   7.765
 1220POPC   NC317759  21.511  22.515   9.617
 1220POPC   PO417760  21.229  21.950   9.494
 1220POPC   GL117761  21.276  22.309   9.186
 1220POPC   GL217762  21.592  22.513   9.118
 1220POPC   C1A17763  21.305  22.283   8.736
 1220POPC   D2A17764  21.297  21.882   8.512
 1220POPC   C3A17765  21.229  22.056   8.137
 1220POPC   C4A17766  21.353  22.447   7.918
 1220POPC   C1B17767  21.743  22.102   8.947
 1220POPC   C2B17768  21.808  21.952   8.501
 1220POPC   C3B17769  21.762  22.119   8.062
 1220POPC   C4B17770  21.495  21.994   7.718
 1221POPC   NC317771  15.122  41.902   9.584
 1221POPC   PO417772  14.810  41.991   9.013
 1221POPC   GL117773  15.000  41.611   9.055
 1221POPC   GL217774  15.290  41.576   9.222
 1221POPC   C1A17775  15.134  41.314   8.758
 1221POPC   D2A17776  15.292  41.413   8.364
 1221POPC   C3A17777  14.984  41.485   8.072
 1221POPC   C4A17778  15.170  41.359   7.727
 1221POPC   C1B17779  15.433  41.734   8.797
 1221POPC   C2B17780  15.445  41.902   8.375
 1221POPC   C3B17781  15.297  41.859   7.939
 1221POPC   C4B17782  15.456  41.766   7.500
 1222POPC   NC317783  30.318   3.513   9.474
 1222POPC   PO417784  30.912   3.278   9.470
 1222POPC   GL117785  30.697   3.400   9.121
 1222POPC   GL217786  30.548   3.741   9.089
 1222POPC   C1A17787  30.587   3.417   8.703
 1222POPC   D2A17788  30.641   3.750   8.423
 1222POPC   C3A17789  30.881   3.611   8.099
 1222POPC   C4A17790  30.746   3.556   7.687
 1222POPC   C1B17791  30.930   3.787   8.845
 1222POPC   C2B17792  31.140   3.870   8.482
 1222POPC   C3B17793  31.369   3.777   8.120
 1222POPC   C4B17794  31.211   3.891   7.735
 1223POPC   NC317795  31.033  13.993   9.901
 1223POPC   PO417796  30.647  14.524   9.594
 1223POPC   GL117797  30.594  14.387   9.173
 1223POPC   GL217798  30.889  14.448   9.009
 1223POPC   C1A17799  30.564  14.191   8.738
 1223POPC   D2A17800  30.749  14.331   8.321
 1223POPC   C3A17801  30.608  14.258   7.875
 1223POPC   C4A17802  30.908  14.196   7.535
 1223POPC   C1B17803  30.571  14.725   8.798
 1223POPC   C2B17804  30.461  14.945   8.428
 1223POPC   C3B17805  30.442  14.696   8.089
 1223POPC   C4B17806  30.377  14.680   7.678
 1224POPC   NC317807  18.103  31.722   9.464
 1224POPC   PO417808  18.629  31.314   9.614
 1224POPC   GL117809  18.419  31.404   9.204
 1224POPC   GL217810  18.543  31.771   9.198
 1224POPC   C1A17811  18.141  31.533   8.804
 1224POPC   D2A17812  17.957  31.466   8.359
 1224POPC   C3A17813  18.249  31.536   7.992
 1224POPC   C4A17814  18.670  31.353   7.869
 1224POPC   C1B17815  18.641  31.622   8.800
 1224POPC   C2B17816  18.510  31.706   8.399
 1224POPC   C3B17817  18.681  31.847   8.028
 1224POPC   C4B17818  18.599  31.849   7.617
 1225POPC   NC317819  37.506   8.171   9.770
 1225POPC   PO417820  37.948   8.584   9.469
 1225POPC   GL117821  37.745   8.306   9.176
 1225POPC   GL217822  37.406   8.192   9.205
 1225POPC   C1A17823  37.790   8.116   8.787
 1225POPC   D2A17824  38.042   7.970   8.467
 1225POPC   C3A17825  37.879   8.047   8.062
 1225POPC   C4A17826  37.690   8.337   7.813
 1225POPC   C1B17827  37.286   8.136   8.768
 1225POPC   C2B17828  37.472   8.015   8.385
 1225POPC   C3B17829  37.373   7.910   7.977
 1225POPC   C4B17830  37.422   7.976   7.578
 1226POPC   NC317831   7.284  20.202   9.537
 1226POPC   PO417832   7.329  20.837   9.707
 1226POPC   GL117833   7.447  20.614   9.272
 1226POPC   GL217834   7.757  20.649   9.135
 1226POPC   C1A17835   7.353  20.727   8.780
 1226POPC   D2A17836   7.248  20.511   8.387
 1226POPC   C3A17837   7.129  20.652   8.015
 1226POPC   C4A17838   6.990  20.775   7.604
 1226POPC   C1B17839   7.606  20.300   8.836
 1226POPC   C2B17840   7.619  20.164   8.401
 1226POPC   C3B17841   7.386  20.135   8.012
 1226POPC   C4B17842   7.283  20.345   7.629
 1227POPC   NC317843  18.216  16.630   9.565
 1227POPC   PO417844  17.873  17.045   9.279
 1227POPC   GL117845  18.049  16.692   9.067
 1227POPC   GL217846  18.385  16.701   9.072
 1227POPC   C1A17847  18.143  16.683   8.622
 1227POPC   D2A17848  18.134  16.557   8.205
 1227POPC   C3A17849  18.196  16.856   7.875
 1227POPC   C4A17850  18.210  16.631   7.487
 1227POPC   C1B17851  18.545  16.971   8.736
 1227POPC   C2B17852  18.591  16.754   8.329
 1227POPC   C3B17853  18.624  16.591   7.883
 1227POPC   C4B17854  18.666  16.925   7.573
 1228POPC   NC317855   3.282  10.538   9.506
 1228POPC   PO417856   3.810  10.121   9.547
 1228POPC   GL117857   3.694  10.394   9.209
 1228POPC   GL217858   3.385  10.255   9.061
 1228POPC   C1A17859   3.866  10.603   8.843
 1228POPC   D2A17860   3.622  10.503   8.481
 1228POPC   C3A17861   3.760  10.559   8.065
 1228POPC   C4A17862   3.434  10.550   7.739
 1228POPC   C1B17863   3.375  10.698   8.909
 1228POPC   C2B17864   3.306  10.919   8.558
 1228POPC   C3B17865   3.263  10.755   8.189
 1228POPC   C4B17866   3.120  10.939   7.861
 1229POPC   NC317867   0.204  24.706   9.501
 1229POPC   PO417868   0.792  24.605   9.532
 1229POPC   GL117869   0.636  24.785   9.107
 1229POPC   GL217870   0.296  24.847   9.028
 1229POPC   C1A17871   0.520  24.557   8.680
 1229POPC   D2A17872   0.770  24.378   8.303
 1229POPC   C3A17873   0.858  24.516   7.849
 1229POPC   C4A17874   0.657  24.420   7.447
 1229POPC   C1B17875   0.325  25.068   8.640
 1229POPC   C2B17876   0.496  24.882   8.291
 1229POPC   C3B17877   0.377  24.583   7.988
 1229POPC   C4B17878   0.155  24.478   7.618
 1230POPC   NC317879  21.102  37.114   9.536
 1230POPC   PO417880  21.713  36.781   9.583
 1230POPC   GL117881  21.502  36.862   9.189
 1230POPC   GL217882  21.269  37.115   9.070
 1230POPC   C1A17883  21.641  36.931   8.768
 1230POPC   D2A17884  21.770  36.680   8.439
 1230POPC   C3A17885  21.746  36.821   8.014
 1230POPC   C4A17886  21.471  36.747   7.688
 1230POPC   C1B17887  21.145  36.852   8.716
 1230POPC   C2B17888  21.310  36.985   8.308
 1230POPC   C3B17889  21.077  37.067   7.917
 1230POPC   C4B17890  21.025  36.886   7.496
 1231POPC   NC317891  12.828  17.697   9.526
 1231POPC   PO417892  12.783  17.066   9.459
 1231POPC   GL117893  12.695  17.365   9.101
 1231POPC   GL217894  12.659  17.735   9.046
 1231POPC   C1A17895  12.609  17.281   8.669
 1231POPC   D2A17896  12.856  17.314   8.305
 1231POPC   C3A17897  12.750  17.153   7.914
 1231POPC   C4A17898  12.851  17.525   7.713
 1231POPC   C1B17899  12.833  17.928   8.644
 1231POPC   C2B17900  12.918  17.869   8.194
 1231POPC   C3B17901  13.136  17.938   7.798
 1231POPC   C4B17902  13.523  17.663   7.661
 1232POPC   NC317903  38.580  41.230   9.538
 1232POPC   PO417904  38.190  41.721   9.376
 1232POPC   GL117905  38.249  41.633   8.994
 1232POPC   GL217906  38.398  41.342   9.075
 1232POPC   C1A17907  38.271  41.896   8.670
 1232POPC   D2A17908  38.310  41.895   8.261
 1232POPC   C3A17909  38.349  41.567   8.016
 1232POPC   C4A17910  38.376  41.549   7.578
 1232POPC   C1B17911  38.699  41.107   8.899
 1232POPC   C2B17912  38.877  41.185   8.537
 1232POPC   C3B17913  38.951  41.151   8.147
 1232POPC   C4B17914  38.743  41.312   7.827
 1233POPC   NC317915  17.941  19.707   9.425
 1233POPC   PO417916  18.391  20.271   9.442
 1233POPC   GL117917  18.191  20.067   9.104
 1233POPC   GL217918  17.829  20.099   9.097
 1233POPC   C1A17919  18.389  20.047   8.698
 1233POPC   D2A17920  18.550  20.087   8.298
 1233POPC   C3A17921  18.351  19.805   8.037
 1233POPC   C4A17922  18.469  19.957   7.661
 1233POPC   C1B17923  17.945  19.807   8.726
 1233POPC   C2B17924  17.992  19.595   8.344
 1233POPC   C3B17925  17.849  19.698   7.918
 1233POPC   C4B17926  17.969  19.843   7.497
 1234POPC   NC317927  11.890  14.574   9.457
 1234POPC   PO417928  12.018  13.931   9.451
 1234POPC   GL117929  12.166  14.247   9.124
 1234POPC   GL217930  11.944  14.500   8.959
 1234POPC   C1A17931  12.293  14.207   8.698
 1234POPC   D2A17932  12.251  14.026   8.287
 1234POPC   C3A17933  12.226  14.297   7.939
 1234POPC   C4A17934  11.935  14.605   7.819
 1234POPC   C1B17935  12.362  14.684   8.866
 1234POPC   C2B17936  12.543  14.680   8.477
 1234POPC   C3B17937  12.433  14.781   8.060
 1234POPC   C4B17938  12.597  14.601   7.713
 1235POPC   NC317939  38.785  15.067   9.412
 1235POPC   PO417940  39.466  15.324   9.585
 1235POPC   GL117941  39.242  15.307   9.189
 1235POPC   GL217942  38.959  15.507   9.213
 1235POPC   C1A17943  39.170  15.021   8.804
 1235POPC   D2A17944  39.336  14.881   8.381
 1235POPC   C3A17945  39.171  14.971   7.980
 1235POPC   C4A17946  39.391  15.215   7.695
 1235POPC   C1B17947  38.825  15.399   8.828
 1235POPC   C2B17948  39.016  15.323   8.424
 1235POPC   C3B17949  39.095  15.484   8.032
 1235POPC   C4B17950  38.912  15.401   7.627
 1236POPC   NC317951  43.033  20.488   9.424
 1236POPC   PO417952  42.900  21.194   9.395
 1236POPC   GL117953  43.157  20.917   9.157
 1236POPC   GL217954  42.867  20.797   9.033
 1236POPC   C1A17955  43.304  20.624   8.820
 1236POPC   D2A17956  43.362  20.365   8.481
 1236POPC   C3A17957  43.241  20.580   8.100
 1236POPC   C4A17958  43.443  20.511   7.724
 1236POPC   C1B17959  42.796  20.500   8.733
 1236POPC   C2B17960  42.876  20.321   8.365
 1236POPC   C3B17961  42.760  20.356   7.963
 1236POPC   C4B17962  42.938  20.607   7.648
 1237POPC   NC317963   0.685  40.029   9.480
 1237POPC   PO417964   0.228  39.598   9.454
 1237POPC   GL117965   0.353  39.789   9.077
 1237POPC   GL217966   0.488  40.124   9.042
 1237POPC   C1A17967   0.406  39.856   8.639
 1237POPC   D2A17968   0.599  40.120   8.371
 1237POPC   C3A17969   0.515  39.862   8.048
 1237POPC   C4A17970   0.734  39.774   7.664
 1237POPC   C1B17971   0.194  40.315   8.771
 1237POPC   C2B17972   0.103  40.179   8.359
 1237POPC   C3B17973   0.250  40.289   7.944
 1237POPC   C4B17974   0.033  40.313   7.566
 1238POPC   NC317975  25.112  41.681   9.499
 1238POPC   PO417976  25.310  41.002   9.374
 1238POPC   GL117977  25.095  41.311   9.080
 1238POPC   GL217978  25.111  41.717   8.999
 1238POPC   C1A17979  25.209  41.365   8.643
 1238POPC   D2A17980  25.165  41.709   8.358
 1238POPC   C3A17981  25.125  41.448   8.022
 1238POPC   C4A17982  25.334  41.300   7.688
 1238POPC   C1B17983  25.545  41.715   8.805
 1238POPC   C2B17984  25.690  41.576   8.383
 1238POPC   C3B17985  25.574  41.681   7.942
 1238POPC   C4B17986  25.246  41.873   7.751
 1239POPC   NC317987  43.136  42.872   9.473
 1239POPC   PO417988  42.904  43.508   9.471
 1239POPC   GL117989  43.057  43.254   9.119
 1239POPC   GL217990  42.830  42.950   9.087
 1239POPC   C1A17991  43.305  43.225   8.732
 1239POPC   D2A17992  43.285  43.004   8.322
 1239POPC   C3A17993  43.192  43.226   7.984
 1239POPC   C4A17994  43.377  43.452   7.697
 1239POPC   C1B17995  42.949  42.870   8.690
 1239POPC   C2B17996  42.821  42.769   8.309
 1239POPC   C3B17997  42.983  42.758   7.909
 1239POPC   C4B17998  43.095  42.985   7.527
 1240POPC   NC317999   0.844  17.455   9.442
 1240POPC   PO418000   1.511  17.220   9.486
 1240POPC   GL118001   1.262  17.454   9.145
 1240POPC   GL218002   1.359  17.755   8.971
 1240POPC   C1A18003   1.294  17.329   8.706
 1240POPC   D2A18004   1.257  17.490   8.305
 1240POPC   C3A18005   1.306  17.248   7.969
 1240POPC   C4A18006   1.425  17.423   7.617
 1240POPC   C1B18007   0.953  17.772   8.741
 1240POPC   C2B18008   0.774  17.718   8.339
 1240POPC   C3B18009   0.912  17.650   7.911
 1240POPC   C4B18010   0.675  17.676   7.538
 1241POPC   NC318011  37.526   5.688   9.490
 1241POPC   PO418012  37.790   6.285   9.658
 1241POPC   GL118013  37.823   6.018   9.228
 1241POPC   GL218014  37.506   5.859   9.011
 1241POPC   C1A18015  37.961   5.728   8.868
 1241POPC   D2A18016  37.626   5.672   8.536
 1241POPC   C3A18017  37.680   5.810   8.102
 1241POPC   C4A18018  37.904   5.645   7.779
 1241POPC   C1B18019  37.235   6.089   8.721
 1241POPC   C2B18020  36.990   6.189   8.356
 1241POPC   C3B18021  37.230   6.050   8.028
 1241POPC   C4B18022  37.344   6.202   7.656
 1242POPC   NC318023   0.034  28.363   9.356
 1242POPC   PO418024  44.526  28.714   9.543
 1242POPC   GL118025  44.499  28.494   9.153
 1242POPC   GL218026  44.791  28.574   8.961
 1242POPC   C1A18027  44.369  28.426   8.713
 1242POPC   D2A18028  44.562  28.573   8.314
 1242POPC   C3A18029  44.505  28.381   7.917
 1242POPC   C4A18030  44.505  28.426   7.466
 1242POPC   C1B18031  44.816  28.167   8.715
 1242POPC   C2B18032  44.840  28.106   8.265
 1242POPC   C3B18033  44.926  28.079   7.821
 1242POPC   C4B18034  44.797  28.012   7.392
 1243POPC   NC318035  12.686  13.088   9.450
 1243POPC   PO418036  13.043  12.517   9.597
 1243POPC   GL118037  12.823  12.624   9.184
 1243POPC   GL218038  12.452  12.684   9.176
 1243POPC   C1A18039  12.981  12.767   8.743
 1243POPC   D2A18040  12.963  12.700   8.334
 1243POPC   C3A18041  13.097  12.895   7.976
 1243POPC   C4A18042  13.066  12.571   7.669
 1243POPC   C1B18043  12.537  13.020   8.845
 1243POPC   C2B18044  12.684  13.129   8.456
 1243POPC   C3B18045  12.603  12.960   8.072
 1243POPC   C4B18046  12.707  13.031   7.675
 1244POPC   NC318047  33.413  39.646   9.532
 1244POPC   PO418048  33.039  39.079   9.434
 1244POPC   GL118049  33.048  39.428   9.193
 1244POPC   GL218050  33.388  39.340   9.143
 1244POPC   C1A18051  32.810  39.414   8.805
 1244POPC   D2A18052  32.843  39.085   8.472
 1244POPC   C3A18053  32.822  39.218   8.075
 1244POPC   C4A18054  32.689  39.209   7.655
 1244POPC   C1B18055  33.255  39.168   8.780
 1244POPC   C2B18056  33.188  39.435   8.432
 1244POPC   C3B18057  33.307  39.434   8.031
 1244POPC   C4B18058  33.198  39.171   7.719
 1245POPC   NC318059  26.179  12.873   9.599
 1245POPC   PO418060  25.530  13.055   9.603
 1245POPC   GL118061  25.781  12.944   9.211
 1245POPC   GL218062  26.007  12.673   9.155
 1245POPC   C1A18063  26.015  13.039   8.800
 1245POPC   D2A18064  25.855  12.944   8.373
 1245POPC   C3A18065  25.966  13.116   7.971
 1245POPC   C4A18066  25.742  12.989   7.634
 1245POPC   C1B18067  26.142  12.529   8.719
 1245POPC   C2B18068  26.201  12.515   8.243
 1245POPC   C3B18069  26.245  12.669   7.815
 1245POPC   C4B18070  26.502  12.949   7.540
 1246POPC   NC318071  10.646  34.162   9.417
 1246POPC   PO418072  10.104  33.721   9.554
 1246POPC   GL118073  10.316  33.825   9.151
 1246POPC   GL218074  10.494  33.522   9.163
 1246POPC   C1A18075  10.660  33.949   8.797
 1246POPC   D2A18076  10.694  34.211   8.397
 1246POPC   C3A18077  10.354  34.125   8.111
 1246POPC   C4A18078  10.258  33.730   7.876
 1246POPC   C1B18079  10.922  33.492   8.969
 1246POPC   C2B18080  10.966  33.549   8.522
 1246POPC   C3B18081  10.700  33.724   8.175
 1246POPC   C4B18082  10.756  33.715   7.703
 1247POPC   NC318083  39.590   6.924   9.488
 1247POPC   PO418084  38.985   6.832   9.551
 1247POPC   GL118085  39.252   6.591   9.246
 1247POPC   GL218086  39.309   6.874   9.025
 1247POPC   C1A18087  39.329   6.369   8.839
 1247POPC   D2A18088  39.110   6.310   8.409
 1247POPC   C3A18089  39.261   6.362   7.966
 1247POPC   C4A18090  39.291   6.675   7.645
 1247POPC   C1B18091  39.187   6.789   8.571
 1247POPC   C2B18092  39.258   6.850   8.148
 1247POPC   C3B18093  39.487   7.106   7.843
 1247POPC   C4B18094  39.685   6.990   7.469
 1248POPC   NC318095  44.961   2.378   9.801
 1248POPC   PO418096   0.459   2.028   9.594
 1248POPC   GL118097   0.493   1.984   9.120
 1248POPC   GL218098   0.714   2.273   9.049
 1248POPC   C1A18099   0.143   1.984   8.812
 1248POPC   D2A18100  44.952   2.044   8.405
 1248POPC   C3A18101   0.128   1.810   8.062
 1248POPC   C4A18102   0.411   1.692   7.708
 1248POPC   C1B18103   0.459   2.365   8.715
 1248POPC   C2B18104   0.438   2.154   8.360
 1248POPC   C3B18105   0.545   2.099   7.955
 1248POPC   C4B18106   0.416   2.310   7.598
 1249POPC   NC318107  30.327   7.925   9.165
 1249POPC   PO418108  30.772   7.661   9.596
 1249POPC   GL118109  30.769   7.543   9.141
 1249POPC   GL218110  30.966   7.244   9.114
 1249POPC   C1A18111  30.749   7.522   8.676
 1249POPC   D2A18112  31.014   7.366   8.304
 1249POPC   C3A18113  30.888   7.504   7.878
 1249POPC   C4A18114  30.444   7.470   7.840
 1249POPC   C1B18115  30.888   7.045   8.749
 1249POPC   C2B18116  30.578   7.083   8.394
 1249POPC   C3B18117  30.687   7.014   7.950
 1249POPC   C4B18118  30.572   7.013   7.511
 1250POPC   NC318119  36.402  33.016   9.601
 1250POPC   PO418120  37.068  32.968   9.648
 1250POPC   GL118121  36.918  32.863   9.225
 1250POPC   GL218122  36.775  33.146   9.008
 1250POPC   C1A18123  37.041  32.549   8.925
 1250POPC   D2A18124  36.981  32.457   8.495
 1250POPC   C3A18125  36.850  32.781   8.166
 1250POPC   C4A18126  36.774  32.747   7.718
 1250POPC   C1B18127  36.978  32.975   8.639
 1250POPC   C2B18128  37.273  33.080   8.316
 1250POPC   C3B18129  37.179  33.246   7.916
 1250POPC   C4B18130  36.764  33.249   7.740
 1251POPC   NC318131   0.277  21.956   9.492
 1251POPC   PO418132   0.173  22.491   9.224
 1251POPC   GL118133   0.341  22.106   9.024
 1251POPC   GL218134   0.069  21.841   9.025
 1251POPC   C1A18135   0.461  21.934   8.641
 1251POPC   D2A18136   0.281  22.065   8.266
 1251POPC   C3A18137   0.533  22.082   7.878
 1251POPC   C4A18138   0.783  21.844   7.555
 1251POPC   C1B18139  44.947  22.132   8.700
 1251POPC   C2B18140  44.846  22.324   8.319
 1251POPC   C3B18141   0.060  22.366   7.916
 1251POPC   C4B18142   0.203  22.198   7.501
 1252POPC   NC318143  19.556  18.116   9.549
 1252POPC   PO418144  19.002  17.946   9.635
 1252POPC   GL118145  19.117  18.112   9.260
 1252POPC   GL218146  19.339  17.813   9.158
 1252POPC   C1A18147  19.117  18.407   8.872
 1252POPC   D2A18148  19.123  18.649   8.491
 1252POPC   C3A18149  19.191  18.418   8.113
 1252POPC   C4A18150  19.156  18.345   7.683
 1252POPC   C1B18151  19.038  17.902   8.827
 1252POPC   C2B18152  18.991  18.119   8.462
 1252POPC   C3B18153  18.922  17.976   8.043
 1252POPC   C4B18154  19.047  17.823   7.655
 1253POPC   NC318155  31.865   9.681   9.507
 1253POPC   PO418156  32.393  10.097   9.582
 1253POPC   GL118157  32.206   9.910   9.156
 1253POPC   GL218158  32.113   9.548   9.104
 1253POPC   C1A18159  32.341   9.781   8.715
 1253POPC   D2A18160  32.620   9.714   8.382
 1253POPC   C3A18161  32.427   9.799   8.002
 1253POPC   C4A18162  32.442   9.719   7.554
 1253POPC   C1B18163  31.919   9.480   8.731
 1253POPC   C2B18164  32.017   9.293   8.379
 1253POPC   C3B18165  32.021   9.520   8.064
 1253POPC   C4B18166  31.941   9.729   7.721
 1254POPC   NC318167  41.563  44.590   9.570
 1254POPC   PO418168  41.603   0.248   9.396
 1254POPC   GL118169  41.586  44.993   9.053
 1254POPC   GL218170  41.533  44.664   9.083
 1254POPC   C1A18171  41.671  44.837   8.637
 1254POPC   D2A18172  41.873  44.750   8.276
 1254POPC   C3A18173  41.671  44.654   7.887
 1254POPC   C4A18174  41.596  44.781   7.432
 1254POPC   C1B18175  41.424  44.381   8.751
 1254POPC   C2B18176  41.353  44.179   8.389
 1254POPC   C3B18177  41.314  44.194   7.964
 1254POPC   C4B18178  41.290  44.440   7.627
 1255POPC   NC318179   6.853  15.420   9.449
 1255POPC   PO418180   6.446  14.905   9.489
 1255POPC   GL118181   6.564  15.117   9.118
 1255POPC   GL218182   6.405  15.402   9.128
 1255POPC   C1A18183   6.571  15.244   8.665
 1255POPC   D2A18184   6.908  15.342   8.367
 1255POPC   C3A18185   6.809  15.217   7.919
 1255POPC   C4A18186   6.574  14.977   7.616
 1255POPC   C1B18187   6.094  15.442   8.849
 1255POPC   C2B18188   6.250  15.636   8.492
 1255POPC   C3B18189   6.421  15.487   8.141
 1255POPC   C4B18190   6.252  15.366   7.749
 1256POPC   NC318191  17.278   0.286   9.362
 1256POPC   PO418192  17.702   0.665   9.696
 1256POPC   GL118193  17.621   0.780   9.250
 1256POPC   GL218194  17.294   0.708   9.113
 1256POPC   C1A18195  17.684   0.719   8.795
 1256POPC   D2A18196  17.707   0.470   8.424
 1256POPC   C3A18197  17.508   0.649   8.079
 1256POPC   C4A18198  17.599   0.711   7.620
 1256POPC   C1B18199  17.236   0.518   8.686
 1256POPC   C2B18200  17.227   0.234   8.349
 1256POPC   C3B18201  17.293   0.203   7.916
 1256POPC   C4B18202  17.117   0.540   7.741
 1257POPC   NC318203  16.201   5.973   9.615
 1257POPC   PO418204  16.844   5.889   9.607
 1257POPC   GL118205  16.888   5.738   9.186
 1257POPC   GL218206  16.521   5.699   9.152
 1257POPC   C1A18207  17.072   5.733   8.755
 1257POPC   D2A18208  16.874   5.860   8.358
 1257POPC   C3A18209  16.905   5.654   7.961
 1257POPC   C4A18210  16.887   5.847   7.565
 1257POPC   C1B18211  16.599   5.484   8.740
 1257POPC   C2B18212  16.452   5.445   8.274
 1257POPC   C3B18213  16.436   5.501   7.800
 1257POPC   C4B18214  16.283   5.574   7.323
 1258POPC   NC318215   4.641  15.706   9.370
 1258POPC   PO418216   4.048  16.114   9.544
 1258POPC   GL118217   4.318  16.064   9.203
 1258POPC   GL218218   4.213  15.759   9.038
 1258POPC   C1A18219   4.577  16.013   8.807
 1258POPC   D2A18220   4.665  15.759   8.414
 1258POPC   C3A18221   4.635  15.974   8.044
 1258POPC   C4A18222   4.542  15.925   7.648
 1258POPC   C1B18223   4.195  15.723   8.608
 1258POPC   C2B18224   3.925  15.860   8.293
 1258POPC   C3B18225   4.154  15.826   7.988
 1258POPC   C4B18226   4.137  15.622   7.645
 1259POPC   NC318227   5.223  43.343   9.733
 1259POPC   PO418228   4.694  43.016   9.536
 1259POPC   GL118229   5.070  43.034   9.283
 1259POPC   GL218230   5.169  43.360   9.191
 1259POPC   C1A18231   5.254  42.992   8.845
 1259POPC   D2A18232   5.340  43.244   8.456
 1259POPC   C3A18233   5.101  43.147   8.103
 1259POPC   C4A18234   5.037  43.184   7.688
 1259POPC   C1B18235   4.955  43.398   8.759
 1259POPC   C2B18236   4.901  43.574   8.323
 1259POPC   C3B18237   4.688  43.447   7.947
 1259POPC   C4B18238   4.565  43.013   7.814
 1260POPC   NC318239   4.246   7.930   9.502
 1260POPC   PO418240   4.591   7.303   9.566
 1260POPC   GL118241   4.420   7.432   9.199
 1260POPC   GL218242   4.590   7.724   9.177
 1260POPC   C1A18243   4.314   7.532   8.783
 1260POPC   D2A18244   4.363   7.284   8.401
 1260POPC   C3A18245   4.047   7.280   8.078
 1260POPC   C4A18246   4.242   7.154   7.722
 1260POPC   C1B18247   4.801   7.692   8.811
 1260POPC   C2B18248   4.608   7.722   8.404
 1260POPC   C3B18249   4.419   7.661   8.000
 1260POPC   C4B18250   4.715   7.798   7.679
 1261POPC   NC318251  39.390  32.766   9.420
 1261POPC   PO418252  39.353  33.442   9.466
 1261POPC   GL118253  39.362  33.195   9.088
 1261POPC   GL218254  39.660  33.036   9.076
 1261POPC   C1A18255  39.291  33.340   8.647
 1261POPC   D2A18256  39.006  33.379   8.284
 1261POPC   C3A18257  38.997  33.145   7.908
 1261POPC   C4A18258  39.151  33.099   7.524
 1261POPC   C1B18259  39.669  32.962   8.655
 1261POPC   C2B18260  39.517  33.086   8.269
 1261POPC   C3B18261  39.481  32.938   7.887
 1261POPC   C4B18262  39.650  33.194   7.591
 1262POPC   NC318263   1.927   2.109   9.676
 1262POPC   PO418264   2.106   1.497   9.494
 1262POPC   GL118265   2.128   1.930   9.226
 1262POPC   GL218266   1.876   2.200   9.148
 1262POPC   C1A18267   2.208   2.047   8.780
 1262POPC   D2A18268   1.996   2.039   8.388
 1262POPC   C3A18269   2.151   1.812   7.997
 1262POPC   C4A18270   1.880   1.789   7.636
 1262POPC   C1B18271   1.850   2.425   8.736
 1262POPC   C2B18272   1.829   2.529   8.298
 1262POPC   C3B18273   1.787   2.206   7.962
 1262POPC   C4B18274   1.530   2.163   7.625
 1263POPC   NC318275  14.794  28.605   9.569
 1263POPC   PO418276  15.335  28.236   9.499
 1263POPC   GL118277  15.104  28.452   9.183
 1263POPC   GL218278  14.779  28.290   9.145
 1263POPC   C1A18279  14.993  28.610   8.792
 1263POPC   D2A18280  15.279  28.672   8.456
 1263POPC   C3A18281  15.103  28.571   8.057
 1263POPC   C4A18282  15.162  28.780   7.667
 1263POPC   C1B18283  14.976  28.094   8.766
 1263POPC   C2B18284  14.932  28.063   8.303
 1263POPC   C3B18285  15.078  28.104   7.870
 1263POPC   C4B18286  14.901  28.366   7.584
 1264POPC   NC318287  34.275  39.431   9.416
 1264POPC   PO418288  34.860  39.241   9.492
 1264POPC   GL118289  34.888  39.326   9.073
 1264POPC   GL218290  34.547  39.260   9.038
 1264POPC   C1A18291  34.792  39.192   8.625
 1264POPC   D2A18292  34.444  39.018   8.389
 1264POPC   C3A18293  34.533  39.064   7.971
 1264POPC   C4A18294  34.732  39.346   7.679
 1264POPC   C1B18295  34.199  39.404   8.784
 1264POPC   C2B18296  34.076  39.590   8.413
 1264POPC   C3B18297  34.276  39.493   8.005
 1264POPC   C4B18298  34.221  39.259   7.605
 1265POPC   NC318299  18.724  34.761   9.490
 1265POPC   PO418300  19.357  34.450   9.617
 1265POPC   GL118301  19.171  34.687   9.265
 1265POPC   GL218302  19.383  34.937   9.105
 1265POPC   C1A18303  18.886  34.722   8.871
 1265POPC   D2A18304  18.933  35.012   8.543
 1265POPC   C3A18305  18.980  34.857   8.135
 1265POPC   C4A18306  19.160  34.774   7.736
 1265POPC   C1B18307  19.349  34.555   8.821
 1265POPC   C2B18308  19.188  34.460   8.454
 1265POPC   C3B18309  19.320  34.405   8.053
 1265POPC   C4B18310  19.006  34.231   7.798
 1266POPC   NC318311   5.680  28.154   9.408
 1266POPC   PO418312   6.136  28.710   9.348
 1266POPC   GL118313   6.045  28.355   9.101
 1266POPC   GL218314   6.211  28.108   9.256
 1266POPC   C1A18315   5.781  28.130   8.781
 1266POPC   D2A18316   5.521  28.231   8.434
 1266POPC   C3A18317   5.673  28.100   8.027
 1266POPC   C4A18318   5.826  28.444   7.808
 1266POPC   C1B18319   6.274  27.999   8.800
 1266POPC   C2B18320   6.064  28.040   8.371
 1266POPC   C3B18321   6.265  28.143   7.972
 1266POPC   C4B18322   6.420  28.009   7.553
 1267POPC   NC318323  36.176  28.642   9.699
 1267POPC   PO418324  36.213  29.319   9.581
 1267POPC   GL118325  36.264  29.025   9.266
 1267POPC   GL218326  35.963  28.927   9.125
 1267POPC   C1A18327  36.359  29.033   8.824
 1267POPC   D2A18328  36.434  29.198   8.422
 1267POPC   C3A18329  36.309  29.038   8.015
 1267POPC   C4A18330  36.503  29.156   7.630
 1267POPC   C1B18331  35.858  29.115   8.734
 1267POPC   C2B18332  35.906  28.896   8.338
 1267POPC   C3B18333  35.869  28.737   7.919
 1267POPC   C4B18334  36.009  28.986   7.583
 1268POPC   NC318335  37.788  30.257   9.345
 1268POPC   PO418336  37.718  29.566   9.497
 1268POPC   GL118337  37.637  29.762   9.119
 1268POPC   GL218338  37.993  29.742   9.048
 1268POPC   C1A18339  37.641  29.945   8.688
 1268POPC   D2A18340  37.392  30.130   8.331
 1268POPC   C3A18341  37.500  30.241   7.886
 1268POPC   C4A18342  37.579  30.104   7.438
 1268POPC   C1B18343  38.190  29.881   8.647
 1268POPC   C2B18344  38.146  29.814   8.191
 1268POPC   C3B18345  37.878  29.902   7.838
 1268POPC   C4B18346  37.798  29.638   7.498
 1269POPC   NC318347  40.924  34.781   9.582
 1269POPC   PO418348  40.567  34.272   9.576
 1269POPC   GL118349  40.819  34.426   9.213
 1269POPC   GL218350  41.100  34.619   9.130
 1269POPC   C1A18351  40.711  34.490   8.791
 1269POPC   D2A18352  40.706  34.254   8.431
 1269POPC   C3A18353  40.695  34.482   8.027
 1269POPC   C4A18354  40.641  34.281   7.638
 1269POPC   C1B18355  41.228  34.561   8.710
 1269POPC   C2B18356  41.146  34.515   8.295
 1269POPC   C3B18357  41.188  34.514   7.858
 1269POPC   C4B18358  41.097  34.379   7.443
 1270POPC   NC318359  42.041  27.211   9.323
 1270POPC   PO418360  41.501  27.414   9.636
 1270POPC   GL118361  41.685  27.546   9.263
 1270POPC   GL218362  41.400  27.541   9.116
 1270POPC   C1A18363  41.752  27.755   8.846
 1270POPC   D2A18364  41.700  27.567   8.421
 1270POPC   C3A18365  41.637  27.781   8.052
 1270POPC   C4A18366  41.677  27.579   7.681
 1270POPC   C1B18367  41.279  27.576   8.735
 1270POPC   C2B18368  41.214  27.734   8.330
 1270POPC   C3B18369  41.177  27.555   7.916
 1270POPC   C4B18370  41.220  27.621   7.473
 1271POPC   NC318371   2.079  39.349   9.578
 1271POPC   PO418372   1.589  39.062   9.191
 1271POPC   GL118373   1.923  39.339   9.079
 1271POPC   GL218374   2.253  39.253   9.110
 1271POPC   C1A18375   2.050  39.413   8.673
 1271POPC   D2A18376   1.839  39.236   8.349
 1271POPC   C3A18377   1.993  39.401   8.017
 1271POPC   C4A18378   2.188  39.502   7.642
 1271POPC   C1B18379   2.416  39.015   8.732
 1271POPC   C2B18380   2.350  39.110   8.288
 1271POPC   C3B18381   2.277  39.025   7.833
 1271POPC   C4B18382   2.183  39.071   7.360
 1272POPC   NC318383  10.904  35.639   9.526
 1272POPC   PO418384  10.449  36.114   9.450
 1272POPC   GL118385  10.389  36.345   9.105
 1272POPC   GL218386  10.729  36.373   9.014
 1272POPC   C1A18387  10.355  36.191   8.698
 1272POPC   D2A18388  10.259  35.838   8.475
 1272POPC   C3A18389  10.420  36.011   8.135
 1272POPC   C4A18390  10.443  35.925   7.725
 1272POPC   C1B18391  10.806  35.978   8.862
 1272POPC   C2B18392  10.810  35.832   8.446
 1272POPC   C3B18393  10.924  35.956   8.029
 1272POPC   C4B18394  10.742  36.336   7.835
 1273POPC   NC318395  25.684   2.304   9.468
 1273POPC   PO418396  26.081   1.760   9.607
 1273POPC   GL118397  26.053   1.824   9.110
 1273POPC   GL218398  26.340   1.932   8.971
 1273POPC   C1A18399  25.881   1.912   8.694
 1273POPC   D2A18400  25.955   2.197   8.339
 1273POPC   C3A18401  26.062   1.961   7.982
 1273POPC   C4A18402  25.767   1.813   7.654
 1273POPC   C1B18403  26.357   1.923   8.535
 1273POPC   C2B18404  26.487   2.204   8.265
 1273POPC   C3B18405  26.304   2.444   7.994
 1273POPC   C4B18406  26.437   2.187   7.702
 1274POPC   NC318407  13.063  34.069  10.087
 1274POPC   PO418408  12.880  33.797   9.462
 1274POPC   GL118409  12.856  33.766   9.040
 1274POPC   GL218410  12.727  33.438   8.954
 1274POPC   C1A18411  12.922  33.956   8.652
 1274POPC   D2A18412  12.818  34.158   8.291
 1274POPC   C3A18413  12.830  33.916   7.972
 1274POPC   C4A18414  12.918  34.008   7.563
 1274POPC   C1B18415  13.109  33.444   8.714
 1274POPC   C2B18416  13.006  33.548   8.308
 1274POPC   C3B18417  12.716  33.410   8.039
 1274POPC   C4B18418  12.650  33.567   7.656
 1275POPC   NC318419  39.872  31.717   9.478
 1275POPC   PO418420  40.333  31.263   9.353
 1275POPC   GL118421  39.931  31.292   9.111
 1275POPC   GL218422  40.024  31.632   9.002
 1275POPC   C1A18423  39.710  31.374   8.695
 1275POPC   D2A18424  39.926  31.591   8.350
 1275POPC   C3A18425  39.765  31.749   7.935
 1275POPC   C4A18426  39.876  31.592   7.512
 1275POPC   C1B18427  40.454  31.742   8.864
 1275POPC   C2B18428  40.622  31.663   8.464
 1275POPC   C3B18429  40.407  31.473   8.123
 1275POPC   C4B18430  40.260  31.727   7.801
 1276POPC   NC318431  37.996   5.006   9.749
 1276POPC   PO418432  38.596   5.254   9.565
 1276POPC   GL118433  38.486   5.187   9.182
 1276POPC   GL218434  38.191   5.058   9.265
 1276POPC   C1A18435  38.675   5.101   8.806
 1276POPC   D2A18436  38.465   5.046   8.460
 1276POPC   C3A18437  38.671   5.148   8.080
 1276POPC   C4A18438  38.627   5.012   7.679
 1276POPC   C1B18439  38.060   5.187   8.855
 1276POPC   C2B18440  38.029   5.348   8.445
 1276POPC   C3B18441  38.129   5.134   8.052
 1276POPC   C4B18442  38.218   5.275   7.654
 1277POPC   NC318443  12.697   0.533   9.412
 1277POPC   PO418444  13.147  44.964   9.431
 1277POPC   GL118445  13.169   0.325   9.154
 1277POPC   GL218446  13.051   0.690   9.097
 1277POPC   C1A18447  13.172   0.370   8.728
 1277POPC   D2A18448  12.955   0.407   8.375
 1277POPC   C3A18449  12.919   0.140   8.034
 1277POPC   C4A18450  12.564   0.294   7.809
 1277POPC   C1B18451  12.803   0.766   8.717
 1277POPC   C2B18452  12.866   0.909   8.285
 1277POPC   C3B18453  12.890   0.746   7.867
 1277POPC   C4B18454  12.983   0.823   7.423
 1278POPC   NC318455  42.338  17.824   9.482
 1278POPC   PO418456  42.733  17.301   9.649
 1278POPC   GL118457  42.633  17.361   9.200
 1278POPC   GL218458  42.338  17.397   9.202
 1278POPC   C1A18459  42.420  17.262   8.751
 1278POPC   D2A18460  42.469  17.561   8.434
 1278POPC   C3A18461  42.342  17.444   8.016
 1278POPC   C4A18462  42.501  17.690   7.668
 1278POPC   C1B18463  42.145  17.673   8.871
 1278POPC   C2B18464  41.973  17.669   8.451
 1278POPC   C3B18465  41.949  17.804   8.038
 1278POPC   C4B18466  41.989  17.683   7.660
 1279POPC   NC318467  38.491   0.110   9.450
 1279POPC   PO418468  38.087   0.676   9.529
 1279POPC   GL118469  38.383   0.524   9.189
 1279POPC   GL218470  38.239   0.201   9.042
 1279POPC   C1A18471  38.568   0.449   8.777
 1279POPC   D2A18472  38.587   0.264   8.358
 1279POPC   C3A18473  38.702   0.486   8.012
 1279POPC   C4A18474  38.520   0.653   7.664
 1279POPC   C1B18475  38.273  44.961   8.638
 1279POPC   C2B18476  38.157   0.038   8.214
 1279POPC   C3B18477  38.342   0.144   7.803
 1279POPC   C4B18478  38.129   0.065   7.405
 1280POPC   NC318479  39.412   3.223   9.405
 1280POPC   PO418480  39.312   3.877   9.629
 1280POPC   GL118481  39.154   3.857   9.217
 1280POPC   GL218482  39.073   3.533   9.161
 1280POPC   C1A18483  39.234   3.897   8.790
 1280POPC   D2A18484  39.188   3.693   8.395
 1280POPC   C3A18485  39.547   3.807   8.133
 1280POPC   C4A18486  39.370   3.976   7.796
 1280POPC   C1B18487  39.082   3.338   8.788
 1280POPC   C2B18488  38.809   3.345   8.473
 1280POPC   C3B18489  38.829   3.312   8.061
 1280POPC   C4B18490  39.232   3.462   7.928
 1281POPC   NC318491  16.248  39.804   9.498
 1281POPC   PO418492  15.602  40.138   9.496
 1281POPC   GL118493  15.791  40.214   9.126
 1281POPC   GL218494  16.115  40.159   9.145
 1281POPC   C1A18495  15.731  40.082   8.718
 1281POPC   D2A18496  15.699  39.803   8.385
 1281POPC   C3A18497  15.768  40.045   8.061
 1281POPC   C4A18498  15.928  39.999   7.661
 1281POPC   C1B18499  16.231  40.118   8.735
 1281POPC   C2B18500  16.187  39.974   8.324
 1281POPC   C3B18501  16.223  40.277   7.963
 1281POPC   C4B18502  16.478  40.306   7.614
 1282POPC   NC318503  17.201  22.732   9.415
 1282POPC   PO418504  16.565  23.015   9.523
 1282POPC   GL118505  16.578  23.085   9.088
 1282POPC   GL218506  16.929  23.057   9.128
 1282POPC   C1A18507  16.688  22.916   8.669
 1282POPC   D2A18508  16.779  22.590   8.370
 1282POPC   C3A18509  16.723  22.766   7.974
 1282POPC   C4A18510  16.429  22.961   7.762
 1282POPC   C1B18511  17.050  23.271   8.779
 1282POPC   C2B18512  17.075  23.324   8.383
 1282POPC   C3B18513  17.130  23.091   8.014
 1282POPC   C4B18514  16.892  23.198   7.639
 1283POPC   NC318515  37.457   8.659   9.423
 1283POPC   PO418516  37.646   9.274   9.395
 1283POPC   GL118517  37.670   8.924   9.061
 1283POPC   GL218518  37.994   8.732   8.998
 1283POPC   C1A18519  37.538   8.583   8.765
 1283POPC   D2A18520  37.704   8.477   8.339
 1283POPC   C3A18521  37.567   8.786   8.007
 1283POPC   C4A18522  37.640   8.862   7.567
 1283POPC   C1B18523  37.902   8.887   8.599
 1283POPC   C2B18524  37.848   9.142   8.258
 1283POPC   C3B18525  37.880   9.224   7.840
 1283POPC   C4B18526  37.880   9.542   7.496
 1284POPC   NC318527  22.638  15.213   9.442
 1284POPC   PO418528  23.241  14.889   9.411
 1284POPC   GL118529  22.989  15.017   9.105
 1284POPC   GL218530  22.997  15.373   9.068
 1284POPC   C1A18531  23.079  14.918   8.700
 1284POPC   D2A18532  23.239  15.011   8.289
 1284POPC   C3A18533  22.995  14.785   7.967
 1284POPC   C4A18534  22.736  14.843   7.581
 1284POPC   C1B18535  22.675  15.244   8.750
 1284POPC   C2B18536  22.741  15.053   8.344
 1284POPC   C3B18537  22.635  15.175   7.943
 1284POPC   C4B18538  22.670  15.334   7.487
 1285POPC   NC318539  31.409  14.834   9.512
 1285POPC   PO418540  31.487  14.116   9.500
 1285POPC   GL118541  31.349  14.252   9.113
 1285POPC   GL218542  31.382  14.602   9.068
 1285POPC   C1A18543  31.489  14.217   8.693
 1285POPC   D2A18544  31.758  14.224   8.332
 1285POPC   C3A18545  31.495  14.276   7.981
 1285POPC   C4A18546  31.097  14.513   7.894
 1285POPC   C1B18547  31.629  14.740   8.746
 1285POPC   C2B18548  31.491  14.669   8.346
 1285POPC   C3B18549  31.739  14.715   8.011
 1285POPC   C4B18550  31.770  14.722   7.591
 1286POPC   NC318551   7.503  38.038   9.514
 1286POPC   PO418552   7.533  37.340   9.510
 1286POPC   GL118553   7.328  37.603   9.189
 1286POPC   GL218554   7.581  37.537   8.959
 1286POPC   C1A18555   7.338  37.975   8.868
 1286POPC   D2A18556   7.383  38.140   8.446
 1286POPC   C3A18557   7.608  37.873   8.160
 1286POPC   C4A18558   7.477  37.852   7.760
 1286POPC   C1B18559   7.236  37.489   8.676
 1286POPC   C2B18560   7.215  37.534   8.228
 1286POPC   C3B18561   7.348  37.372   7.843
 1286POPC   C4B18562   7.480  37.339   7.395
 1287POPC   NC318563  38.059  34.554   9.587
 1287POPC   PO418564  37.371  34.765   9.575
 1287POPC   GL118565  37.527  34.721   9.152
 1287POPC   GL218566  37.875  34.625   9.132
 1287POPC   C1A18567  37.534  34.409   8.797
 1287POPC   D2A18568  37.686  34.120   8.470
 1287POPC   C3A18569  37.714  34.344   8.065
 1287POPC   C4A18570  37.425  34.408   7.753
 1287POPC   C1B18571  38.056  34.352   8.818
 1287POPC   C2B18572  38.057  34.510   8.402
 1287POPC   C3B18573  38.057  34.746   7.988
 1287POPC   C4B18574  37.895  34.600   7.622
 1288POPC   NC318575  24.808  22.510   9.368
 1288POPC   PO418576  25.268  22.899   9.713
 1288POPC   GL118577  25.129  22.957   9.183
 1288POPC   GL218578  24.828  23.007   9.122
 1288POPC   C1A18579  25.024  22.724   8.711
 1288POPC   D2A18580  25.253  22.509   8.311
 1288POPC   C3A18581  25.206  22.676   7.854
 1288POPC   C4A18582  25.472  22.889   7.529
 1288POPC   C1B18583  25.085  23.222   8.735
 1288POPC   C2B18584  25.071  23.164   8.252
 1288POPC   C3B18585  25.184  23.246   7.803
 1288POPC   C4B18586  25.041  23.359   7.351
 1289POPC   NC318587   8.937  17.015   9.371
 1289POPC   PO418588   8.747  17.621   9.602
 1289POPC   GL118589   8.975  17.526   9.226
 1289POPC   GL218590   8.691  17.367   9.070
 1289POPC   C1A18591   9.108  17.523   8.781
 1289POPC   D2A18592   9.103  17.372   8.338
 1289POPC   C3A18593   9.077  17.743   8.045
 1289POPC   C4A18594   9.291  17.975   7.700
 1289POPC   C1B18595   8.722  17.192   8.660
 1289POPC   C2B18596   8.608  17.285   8.242
 1289POPC   C3B18597   8.661  17.500   7.870
 1289POPC   C4B18598   8.589  17.914   7.818
 1290POPC   NC318599   8.313  23.262   9.581
 1290POPC   PO418600   8.144  22.646   9.443
 1290POPC   GL118601   8.091  22.976   9.158
 1290POPC   GL218602   8.462  23.030   9.139
 1290POPC   C1A18603   7.819  22.871   8.790
 1290POPC   D2A18604   7.913  23.018   8.385
 1290POPC   C3A18605   8.037  22.718   8.113
 1290POPC   C4A18606   7.837  22.670   7.727
 1290POPC   C1B18607   8.325  22.925   8.710
 1290POPC   C2B18608   8.437  23.079   8.320
 1290POPC   C3B18609   8.241  23.195   7.962
 1290POPC   C4B18610   8.358  22.837   7.748
 1291POPC   NC318611   9.450  13.804   9.352
 1291POPC   PO418612  10.136  13.682   9.375
 1291POPC   GL118613   9.854  13.452   9.112
 1291POPC   GL218614  10.107  13.260   8.922
 1291POPC   C1A18615   9.534  13.388   8.768
 1291POPC   D2A18616   9.435  13.565   8.352
 1291POPC   C3A18617   9.617  13.543   7.956
 1291POPC   C4A18618   9.422  13.455   7.590
 1291POPC   C1B18619   9.981  13.509   8.560
 1291POPC   C2B18620   9.897  13.826   8.276
 1291POPC   C3B18621  10.020  13.852   7.881
 1291POPC   C4B18622   9.817  13.758   7.507
 1292POPC   NC318623  11.353  17.234   9.289
 1292POPC   PO418624  11.257  17.796   9.701
 1292POPC   GL118625  11.190  17.744   9.273
 1292POPC   GL218626  11.508  17.851   9.196
 1292POPC   C1A18627  11.172  17.699   8.829
 1292POPC   D2A18628  11.202  17.455   8.465
 1292POPC   C3A18629  11.061  17.626   8.103
 1292POPC   C4A18630  11.240  17.516   7.738
 1292POPC   C1B18631  11.802  17.865   8.892
 1292POPC   C2B18632  11.604  17.796   8.503
 1292POPC   C3B18633  11.585  17.729   8.068
 1292POPC   C4B18634  11.785  17.775   7.651
 1293POPC   NC318635   7.993  32.995   9.537
 1293POPC   PO418636   8.505  33.446   9.421
 1293POPC   GL118637   8.221  33.261   9.079
 1293POPC   GL218638   8.180  32.894   9.018
 1293POPC   C1A18639   8.287  33.236   8.624
 1293POPC   D2A18640   8.234  33.009   8.259
 1293POPC   C3A18641   8.187  33.206   7.884
 1293POPC   C4A18642   8.454  32.922   7.641
 1293POPC   C1B18643   7.903  32.882   8.639
 1293POPC   C2B18644   7.786  32.775   8.209
 1293POPC   C3B18645   7.943  32.777   7.782
 1293POPC   C4B18646   7.903  33.134   7.478
 1294POPC   NC318647  43.324  16.286   9.959
 1294POPC   PO418648  42.846  15.979   9.511
 1294POPC   GL118649  42.882  15.910   9.098
 1294POPC   GL218650  42.684  15.633   9.099
 1294POPC   C1A18651  42.944  16.119   8.697
 1294POPC   D2A18652  42.868  16.199   8.259
 1294POPC   C3A18653  43.210  15.996   8.039
 1294POPC   C4A18654  43.559  16.186   7.803
 1294POPC   C1B18655  42.746  15.642   8.640
 1294POPC   C2B18656  42.945  15.593   8.234
 1294POPC   C3B18657  42.922  15.489   7.792
 1294POPC   C4B18658  42.866  15.682   7.379
 1295POPC   NC318659  17.189   7.046   9.549
 1295POPC   PO418660  17.717   7.353   9.532
 1295POPC   GL118661  17.601   7.322   9.152
 1295POPC   GL218662  17.283   7.447   9.191
 1295POPC   C1A18663  17.673   7.200   8.765
 1295POPC   D2A18664  17.492   7.129   8.386
 1295POPC   C3A18665  17.688   7.212   8.032
 1295POPC   C4A18666  17.763   7.287   7.652
 1295POPC   C1B18667  17.175   7.303   8.756
 1295POPC   C2B18668  17.164   7.547   8.382
 1295POPC   C3B18669  17.269   7.472   7.988
 1295POPC   C4B18670  17.343   7.567   7.538
 1296POPC   NC318671  32.363  12.070   9.265
 1296POPC   PO418672  31.808  12.146   9.527
 1296POPC   GL118673  31.919  12.171   9.060
 1296POPC   GL218674  32.022  11.808   9.006
 1296POPC   C1A18675  32.161  12.233   8.651
 1296POPC   D2A18676  32.431  12.060   8.279
 1296POPC   C3A18677  32.359  12.266   7.874
 1296POPC   C4A18678  32.122  12.286   7.467
 1296POPC   C1B18679  32.266  11.711   8.631
 1296POPC   C2B18680  32.383  11.499   8.239
 1296POPC   C3B18681  32.226  11.713   7.871
 1296POPC   C4B18682  31.853  11.844   7.643
 1297POPC   NC318683  22.543   6.890   9.786
 1297POPC   PO418684  23.056   6.493   9.531
 1297POPC   GL118685  22.893   6.675   9.196
 1297POPC   GL218686  22.694   6.436   9.108
 1297POPC   C1A18687  23.104   6.801   8.829
 1297POPC   D2A18688  23.144   6.630   8.439
 1297POPC   C3A18689  22.925   6.820   8.102
 1297POPC   C4A18690  23.010   6.615   7.716
 1297POPC   C1B18691  22.664   6.579   8.678
 1297POPC   C2B18692  22.514   6.525   8.256
 1297POPC   C3B18693  22.518   6.511   7.784
 1297POPC   C4B18694  22.560   6.305   7.336
 1298POPC   NC318695  39.017   9.179   9.486
 1298POPC   PO418696  39.586   8.846   9.490
 1298POPC   GL118697  39.405   8.936   9.112
 1298POPC   GL218698  39.081   8.757   9.130
 1298POPC   C1A18699  39.387   8.712   8.706
 1298POPC   D2A18700  39.181   8.670   8.290
 1298POPC   C3A18701  39.372   8.947   7.934
 1298POPC   C4A18702  39.667   9.166   7.620
 1298POPC   C1B18703  38.918   8.926   8.740
 1298POPC   C2B18704  38.804   9.011   8.275
 1298POPC   C3B18705  38.932   9.239   7.870
 1298POPC   C4B18706  38.890   9.385   7.441
 1299POPC   NC318707  10.274  14.300   9.554
 1299POPC   PO418708   9.708  14.501   9.520
 1299POPC   GL118709   9.920  14.399   9.146
 1299POPC   GL218710   9.852  14.049   9.156
 1299POPC   C1A18711   9.636  14.467   8.794
 1299POPC   D2A18712   9.340  14.579   8.452
 1299POPC   C3A18713   9.551  14.493   8.066
 1299POPC   C4A18714   9.610  14.662   7.674
 1299POPC   C1B18715   9.961  14.036   8.736
 1299POPC   C2B18716   9.926  14.335   8.393
 1299POPC   C3B18717  10.086  14.380   7.998
 1299POPC   C4B18718   9.920  14.264   7.594
 1300POPC   NC318719  27.666  42.682   9.609
 1300POPC   PO418720  27.682  43.377   9.493
 1300POPC   GL118721  27.734  43.037   9.214
 1300POPC   GL218722  27.378  42.940   9.243
 1300POPC   C1A18723  27.835  42.944   8.771
 1300POPC   D2A18724  27.613  42.943   8.382
 1300POPC   C3A18725  27.819  42.922   7.999
 1300POPC   C4A18726  27.724  43.175   7.722
 1300POPC   C1B18727  27.349  43.145   8.867
 1300POPC   C2B18728  27.128  43.077   8.463
 1300POPC   C3B18729  27.281  43.082   8.023
 1300POPC   C4B18730  27.229  43.293   7.629
 1301POPC   NC318731   6.680  38.423   9.587
 1301POPC   PO418732   6.264  38.870   9.591
 1301POPC   GL118733   6.374  38.551   9.210
 1301POPC   GL218734   6.671  38.553   9.052
 1301POPC   C1A18735   6.355  38.212   8.834
 1301POPC   D2A18736   6.517  38.119   8.402
 1301POPC   C3A18737   6.401  38.346   8.028
 1301POPC   C4A18738   6.559  38.587   7.718
 1301POPC   C1B18739   6.565  38.639   8.591
 1301POPC   C2B18740   6.716  38.861   8.190
 1301POPC   C3B18741   6.894  38.960   7.781
 1301POPC   C4B18742   6.912  38.975   7.309
 1302POPC   NC318743  13.454  40.714   9.476
 1302POPC   PO418744  13.800  41.233   9.694
 1302POPC   GL118745  13.827  41.071   9.258
 1302POPC   GL218746  13.928  40.742   9.208
 1302POPC   C1A18747  13.883  41.050   8.797
 1302POPC   D2A18748  13.580  41.181   8.479
 1302POPC   C3A18749  13.574  40.948   8.086
 1302POPC   C4A18750  13.893  40.875   7.787
 1302POPC   C1B18751  13.693  40.551   8.867
 1302POPC   C2B18752  13.794  40.662   8.450
 1302POPC   C3B18753  13.673  40.463   8.088
 1302POPC   C4B18754  13.491  40.603   7.678
 1303POPC   NC318755  39.560  18.337   9.717
 1303POPC   PO418756  38.988  18.541   9.426
 1303POPC   GL118757  39.296  18.272   9.278
 1303POPC   GL218758  39.200  17.962   9.283
 1303POPC   C1A18759  39.370  18.215   8.868
 1303POPC   D2A18760  39.540  18.334   8.503
 1303POPC   C3A18761  39.214  18.266   8.190
 1303POPC   C4A18762  39.170  18.098   7.793
 1303POPC   C1B18763  38.968  17.898   8.889
 1303POPC   C2B18764  38.848  18.017   8.474
 1303POPC   C3B18765  38.873  17.800   8.099
 1303POPC   C4B18766  38.764  17.708   7.666
 1304POPC   NC318767   4.075  29.422   9.459
 1304POPC   PO418768   4.613  29.133   9.475
 1304POPC   GL118769   4.541  28.968   9.129
 1304POPC   GL218770   4.172  28.994   9.147
 1304POPC   C1A18771   4.520  29.122   8.733
 1304POPC   D2A18772   4.374  29.214   8.355
 1304POPC   C3A18773   4.625  29.158   8.005
 1304POPC   C4A18774   4.483  29.065   7.598
 1304POPC   C1B18775   3.935  28.927   8.771
 1304POPC   C2B18776   3.867  29.109   8.395
 1304POPC   C3B18777   3.924  29.044   7.972
 1304POPC   C4B18778   3.965  29.411   7.709
 1305POPC   NC318779  25.165   8.680   9.480
 1305POPC   PO418780  25.382   9.307   9.286
 1305POPC   GL118781  25.166   9.068   9.006
 1305POPC   GL218782  25.024   8.734   8.996
 1305POPC   C1A18783  25.187   9.077   8.595
 1305POPC   D2A18784  25.342   8.912   8.254
 1305POPC   C3A18785  25.316   9.243   7.974
 1305POPC   C4A18786  25.124   9.323   7.577
 1305POPC   C1B18787  25.332   8.584   8.715
 1305POPC   C2B18788  25.381   8.387   8.317
 1305POPC   C3B18789  25.433   8.530   7.881
 1305POPC   C4B18790  25.588   8.430   7.461
 1306POPC   NC318791  24.996   2.518   9.339
 1306POPC   PO418792  25.552   2.745   9.571
 1306POPC   GL118793  25.461   2.719   9.143
 1306POPC   GL218794  25.173   2.921   9.043
 1306POPC   C1A18795  25.428   2.640   8.702
 1306POPC   D2A18796  25.171   2.520   8.322
 1306POPC   C3A18797  25.283   2.549   7.896
 1306POPC   C4A18798  25.527   2.736   7.584
 1306POPC   C1B18799  24.915   2.772   8.707
 1306POPC   C2B18800  24.727   2.772   8.314
 1306POPC   C3B18801  24.887   2.992   7.971
 1306POPC   C4B18802  25.028   2.879   7.560
 1307POPC   NC318803   1.277  27.981   9.498
 1307POPC   PO418804   1.577  27.278   9.506
 1307POPC   GL118805   1.336  27.538   9.172
 1307POPC   GL218806   1.078  27.791   9.060
 1307POPC   C1A18807   1.353  27.571   8.708
 1307POPC   D2A18808   1.556  27.421   8.352
 1307POPC   C3A18809   1.314  27.554   8.013
 1307POPC   C4A18810   1.442  27.526   7.623
 1307POPC   C1B18811   0.894  27.388   8.843
 1307POPC   C2B18812   0.807  27.221   8.396
 1307POPC   C3B18813   0.831  27.388   7.946
 1307POPC   C4B18814   0.943  27.790   7.701
 1308POPC   NC318815  44.465  43.911   9.547
 1308POPC   PO418816   0.012  43.677   9.354
 1308POPC   GL118817  44.704  43.873   9.067
 1308POPC   GL218818  44.429  44.138   9.084
 1308POPC   C1A18819  44.530  43.771   8.683
 1308POPC   D2A18820  44.715  43.860   8.312
 1308POPC   C3A18821  44.526  43.739   7.929
 1308POPC   C4A18822  44.759  43.786   7.552
 1308POPC   C1B18823  44.484  44.275   8.650
 1308POPC   C2B18824  44.434  44.249   8.193
 1308POPC   C3B18825  44.511  44.217   7.742
 1308POPC   C4B18826  44.333  44.009   7.368
 1309POPC   NC318827  16.543   3.300   9.484
 1309POPC   PO418828  16.641   4.014   9.544
 1309POPC   GL118829  16.806   3.706   9.167
 1309POPC   GL218830  16.615   3.436   8.992
 1309POPC   C1A18831  16.988   3.609   8.703
 1309POPC   D2A18832  16.761   3.450   8.351
 1309POPC   C3A18833  16.717   3.587   7.930
 1309POPC   C4A18834  16.463   3.619   7.561
 1309POPC   C1B18835  16.505   3.127   8.641
 1309POPC   C2B18836  16.265   3.095   8.280
 1309POPC   C3B18837  16.350   3.224   7.860
 1309POPC   C4B18838  16.471   3.119   7.423
 1310POPC   NC318839  28.810  35.562   9.411
 1310POPC   PO418840  29.330  35.113   9.550
 1310POPC   GL118841  29.109  35.039   9.186
 1310POPC   GL218842  28.731  34.992   9.239
 1310POPC   C1A18843  29.233  35.266   8.813
 1310POPC   D2A18844  29.151  35.600   8.490
 1310POPC   C3A18845  29.255  35.677   8.063
 1310POPC   C4A18846  28.992  35.603   7.704
 1310POPC   C1B18847  28.810  34.964   8.786
 1310POPC   C2B18848  28.998  35.119   8.406
 1310POPC   C3B18849  29.000  35.210   8.028
 1310POPC   C4B18850  29.043  34.984   7.665
 1311POPC   NC318851  27.143   7.374   9.288
 1311POPC   PO418852  27.715   7.096   9.544
 1311POPC   GL118853  27.821   7.355   9.169
 1311POPC   GL218854  27.558   7.595   9.049
 1311POPC   C1A18855  27.790   7.313   8.698
 1311POPC   D2A18856  27.673   7.700   8.504
 1311POPC   C3A18857  27.589   7.670   8.088
 1311POPC   C4A18858  27.626   7.539   7.689
 1311POPC   C1B18859  27.274   7.457   8.680
 1311POPC   C2B18860  27.071   7.459   8.293
 1311POPC   C3B18861  27.147   7.473   7.881
 1311POPC   C4B18862  27.143   7.576   7.478
 1312POPC   NC318863  32.551  13.600   9.535
 1312POPC   PO418864  33.112  13.890   9.526
 1312POPC   GL118865  32.967  13.591   9.180
 1312POPC   GL218866  32.712  13.296   9.136
 1312POPC   C1A18867  33.183  13.526   8.786
 1312POPC   D2A18868  33.405  13.724   8.430
 1312POPC   C3A18869  33.294  13.847   7.997
 1312POPC   C4A18870  32.974  13.970   7.704
 1312POPC   C1B18871  32.669  13.492   8.711
 1312POPC   C2B18872  32.900  13.559   8.306
 1312POPC   C3B18873  32.906  13.463   7.845
 1312POPC   C4B18874  32.951  13.430   7.396
 1313POPC   NC318875  13.919  32.396   9.560
 1313POPC   PO418876  13.320  32.208   9.616
 1313POPC   GL118877  13.583  32.129   9.185
 1313POPC   GL218878  13.870  32.330   9.074
 1313POPC   C1A18879  13.576  32.236   8.684
 1313POPC   D2A18880  13.700  32.421   8.277
 1313POPC   C3A18881  13.433  32.630   7.956
 1313POPC   C4A18882  13.464  32.654   7.434
 1313POPC   C1B18883  14.088  32.225   8.727
 1313POPC   C2B18884  13.959  31.994   8.391
 1313POPC   C3B18885  13.804  32.001   7.999
 1313POPC   C4B18886  14.067  31.988   7.651
 1314POPC   NC318887  25.678  10.313   9.398
 1314POPC   PO418888  25.924  10.893   9.470
 1314POPC   GL118889  26.079  10.555   9.170
 1314POPC   GL218890  25.773  10.559   8.948
 1314POPC   C1A18891  26.183  10.384   8.742
 1314POPC   D2A18892  26.105  10.636   8.344
 1314POPC   C3A18893  26.033  10.484   7.919
 1314POPC   C4A18894  25.946  10.741   7.568
 1314POPC   C1B18895  25.755  10.096   8.778
 1314POPC   C2B18896  25.891   9.948   8.364
 1314POPC   C3B18897  25.786  10.008   7.936
 1314POPC   C4B18898  25.650  10.308   7.608
 1315POPC   NC318899  35.033  10.378   9.425
 1315POPC   PO418900  35.685  10.865   9.600
 1315POPC   GL118901  35.321  10.806   9.304
 1315POPC   GL218902  35.397  10.548   9.058
 1315POPC   C1A18903  35.129  10.957   8.905
 1315POPC   D2A18904  35.117  11.078   8.425
 1315POPC   C3A18905  35.303  10.782   8.095
 1315POPC   C4A18906  35.422  10.796   7.635
 1315POPC   C1B18907  35.280  10.241   8.718
 1315POPC   C2B18908  35.250  10.264   8.253
 1315POPC   C3B18909  35.364  10.311   7.823
 1315POPC   C4B18910  35.790  10.288   7.673
 1316POPC   NC318911  33.807   4.123   9.557
 1316POPC   PO418912  33.276   4.478   9.684
 1316POPC   GL118913  33.466   4.480   9.204
 1316POPC   GL218914  33.836   4.543   9.126
 1316POPC   C1A18915  33.581   4.445   8.716
 1316POPC   D2A18916  33.582   4.649   8.306
 1316POPC   C3A18917  33.589   4.396   7.927
 1316POPC   C4A18918  33.862   4.504   7.588
 1316POPC   C1B18919  34.000   4.159   8.867
 1316POPC   C2B18920  34.000   3.866   8.493
 1316POPC   C3B18921  33.856   3.878   8.066
 1316POPC   C4B18922  33.981   4.006   7.660
 1317POPC   NC318923  17.571  39.632   9.549
 1317POPC   PO418924  17.291  40.263   9.532
 1317POPC   GL118925  17.533  40.036   9.210
 1317POPC   GL218926  17.230  40.071   9.054
 1317POPC   C1A18927  17.660  39.722   8.841
 1317POPC   D2A18928  17.530  39.583   8.394
 1317POPC   C3A18929  17.765  39.721   8.023
 1317POPC   C4A18930  17.696  39.827   7.551
 1317POPC   C1B18931  17.425  40.153   8.695
 1317POPC   C2B18932  17.561  40.082   8.309
 1317POPC   C3B18933  17.436  40.077   7.889
 1317POPC   C4B18934  17.342  40.342   7.580
 1318POPC   NC318935  30.367  25.838   9.485
 1318POPC   PO418936  31.084  25.773   9.465
 1318POPC   GL118937  30.762  25.653   9.202
 1318POPC   GL218938  30.695  26.002   9.105
 1318POPC   C1A18939  30.768  25.635   8.755
 1318POPC   D2A18940  30.798  25.955   8.432
 1318POPC   C3A18941  30.599  25.892   8.029
 1318POPC   C4A18942  30.766  25.976   7.603
 1318POPC   C1B18943  30.607  26.329   8.778
 1318POPC   C2B18944  30.436  26.338   8.328
 1318POPC   C3B18945  30.552  26.395   7.877
 1318POPC   C4B18946  30.528  26.739   7.561
 1319POPC   NC318947  19.454  32.475   9.508
 1319POPC   PO418948  20.145  32.233   9.497
 1319POPC   GL118949  19.962  32.224   9.106
 1319POPC   GL218950  19.596  32.126   9.148
 1319POPC   C1A18951  20.047  32.168   8.663
 1319POPC   D2A18952  19.905  32.026   8.260
 1319POPC   C3A18953  20.069  32.265   7.926
 1319POPC   C4A18954  20.280  32.002   7.639
 1319POPC   C1B18955  19.559  32.424   8.803
 1319POPC   C2B18956  19.706  32.483   8.389
 1319POPC   C3B18957  19.555  32.296   8.001
 1319POPC   C4B18958  19.619  31.986   7.704
 1320POPC   NC318959  36.580  25.151   9.699
 1320POPC   PO418960  35.903  25.192   9.432
 1320POPC   GL118961  35.899  25.124   9.032
 1320POPC   GL218962  36.249  25.068   9.073
 1320POPC   C1A18963  35.918  25.386   8.663
 1320POPC   D2A18964  36.091  25.292   8.316
 1320POPC   C3A18965  35.876  25.387   7.997
 1320POPC   C4A18966  36.081  25.294   7.642
 1320POPC   C1B18967  36.283  25.007   8.694
 1320POPC   C2B18968  36.548  24.969   8.388
 1320POPC   C3B18969  36.449  25.108   7.997
 1320POPC   C4B18970  36.446  24.920   7.635
 1321POPC   NC318971   7.249  33.623   9.765
 1321POPC   PO418972   7.702  34.035   9.506
 1321POPC   GL118973   7.360  33.753   9.267
 1321POPC   GL218974   7.237  34.013   9.063
 1321POPC   C1A18975   7.351  33.641   8.783
 1321POPC   D2A18976   7.327  33.880   8.379
 1321POPC   C3A18977   7.622  33.798   8.050
 1321POPC   C4A18978   7.628  33.594   7.638
 1321POPC   C1B18979   7.431  34.228   8.745
 1321POPC   C2B18980   7.594  34.299   8.351
 1321POPC   C3B18981   7.343  34.263   8.014
 1321POPC   C4B18982   7.220  33.973   7.725
 1322POPC   NC318983  30.429  17.403   9.383
 1322POPC   PO418984  31.090  17.537   9.526
 1322POPC   GL118985  30.851  17.492   9.116
 1322POPC   GL218986  30.605  17.786   9.089
 1322POPC   C1A18987  31.002  17.332   8.691
 1322POPC   D2A18988  31.080  17.114   8.295
 1322POPC   C3A18989  31.061  17.414   7.950
 1322POPC   C4A18990  31.289  17.293   7.590
 1322POPC   C1B18991  30.546  17.563   8.710
 1322POPC   C2B18992  30.649  17.415   8.306
 1322POPC   C3B18993  30.432  17.402   7.951
 1322POPC   C4B18994  30.559  17.596   7.608
 1323POPC   NC318995   3.791   3.244   9.629
 1323POPC   PO418996   3.319   3.706   9.413
 1323POPC   GL118997   3.433   3.608   9.076
 1323POPC   GL218998   3.620   3.356   9.163
 1323POPC   C1A18999   3.313   3.399   8.715
 1323POPC   D2A19000   3.155   3.538   8.351
 1323POPC   C3A19001   3.280   3.277   8.047
 1323POPC   C4A19002   3.481   3.478   7.766
 1323POPC   C1B19003   3.819   3.552   8.778
 1323POPC   C2B19004   3.701   3.475   8.373
 1323POPC   C3B19005   3.903   3.563   8.012
 1323POPC   C4B19006   3.938   3.340   7.618
 1324POPC   NC319007  21.256  18.520   9.470
 1324POPC   PO419008  21.266  17.874   9.451
 1324POPC   GL119009  21.211  18.170   9.091
 1324POPC   GL219010  21.502  18.433   9.055
 1324POPC   C1A19011  21.241  18.228   8.647
 1324POPC   D2A19012  21.399  18.111   8.275
 1324POPC   C3A19013  21.118  18.198   7.969
 1324POPC   C4A19014  21.299  18.164   7.606
 1324POPC   C1B19015  21.515  18.664   8.674
 1324POPC   C2B19016  21.381  18.607   8.280
 1324POPC   C3B19017  21.502  18.569   7.884
 1324POPC   C4B19018  21.158  18.642   7.642
 1325POPC   NC319019  41.720  30.997   9.739
 1325POPC   PO419020  41.645  30.381   9.547
 1325POPC   GL119021  41.601  30.385   9.148
 1325POPC   GL219022  41.286  30.185   9.156
 1325POPC   C1A19023  41.733  30.684   8.839
 1325POPC   D2A19024  41.657  30.877   8.424
 1325POPC   C3A19025  41.591  30.689   8.006
 1325POPC   C4A19026  41.394  30.752   7.580
 1325POPC   C1B19027  41.366  30.307   8.717
 1325POPC   C2B19028  41.299  30.270   8.283
 1325POPC   C3B19029  41.191  30.381   7.875
 1325POPC   C4B19030  41.159  30.321   7.409
 1326POPC   NC319031  15.872   2.774   9.658
 1326POPC   PO419032  16.451   2.845   9.386
 1326POPC   GL119033  16.035   2.676   9.183
 1326POPC   GL219034  16.172   2.407   9.098
 1326POPC   C1A19035  15.809   2.547   8.761
 1326POPC   D2A19036  15.995   2.656   8.333
 1326POPC   C3A19037  15.785   2.837   8.006
 1326POPC   C4A19038  15.588   3.010   7.642
 1326POPC   C1B19039  16.312   2.653   8.737
 1326POPC   C2B19040  16.517   2.602   8.357
 1326POPC   C3B19041  16.364   2.723   7.949
 1326POPC   C4B19042  16.086   2.854   7.602
 1327POPC   NC319043  39.161  27.991   9.607
 1327POPC   PO419044  39.119  28.609   9.656
 1327POPC   GL119045  39.203  28.616   9.181
 1327POPC   GL219046  39.420  28.840   9.112
 1327POPC   C1A19047  39.168  28.404   8.735
 1327POPC   D2A19048  39.328  28.475   8.299
 1327POPC   C3A19049  39.033  28.449   7.953
 1327POPC   C4A19050  39.018  28.055   7.773
 1327POPC   C1B19051  39.556  28.714   8.716
 1327POPC   C2B19052  39.603  28.914   8.316
 1327POPC   C3B19053  39.569  28.732   7.916
 1327POPC   C4B19054  39.474  28.301   7.739
 1328POPC   NC319055  37.413   6.536   9.537
 1328POPC   PO419056  36.948   6.908   9.866
 1328POPC   GL119057  36.917   6.697   9.408
 1328POPC   GL219058  36.779   6.931   9.208
 1328POPC   C1A19059  37.021   6.560   8.926
 1328POPC   D2A19060  37.316   6.568   8.532
 1328POPC   C3A19061  37.219   6.563   8.059
 1328POPC   C4A19062  36.860   6.366   7.826
 1328POPC   C1B19063  36.701   6.926   8.759
 1328POPC   C2B19064  36.741   7.091   8.350
 1328POPC   C3B19065  36.820   6.897   7.965
 1328POPC   C4B19066  36.674   6.792   7.593
 1329POPC   NC319067  31.899  32.466   9.331
 1329POPC   PO419068  31.433  32.059   9.679
 1329POPC   GL119069  31.539  32.119   9.186
 1329POPC   GL219070  31.832  32.007   9.055
 1329POPC   C1A19071  31.502  32.308   8.776
 1329POPC   D2A19072  31.676  32.391   8.371
 1329POPC   C3A19073  31.431  32.230   8.031
 1329POPC   C4A19074  31.388  32.386   7.610
 1329POPC   C1B19075  31.932  32.007   8.628
 1329POPC   C2B19076  31.880  31.966   8.182
 1329POPC   C3B19077  31.768  31.894   7.764
 1329POPC   C4B19078  31.613  31.957   7.357
 1330POPC   NC319079   2.468  36.145   9.639
 1330POPC   PO419080   3.150  36.120   9.619
 1330POPC   GL119081   2.857  36.034   9.266
 1330POPC   GL219082   2.518  36.168   9.152
 1330POPC   C1A19083   2.903  36.074   8.824
 1330POPC   D2A19084   3.087  36.216   8.451
 1330POPC   C3A19085   2.946  36.028   8.098
 1330POPC   C4A19086   3.176  35.933   7.769
 1330POPC   C1B19087   2.505  36.414   8.785
 1330POPC   C2B19088   2.590  36.248   8.415
 1330POPC   C3B19089   2.464  36.185   8.020
 1330POPC   C4B19090   2.723  36.210   7.643
 1331POPC   NC319091   7.030  21.953   9.430
 1331POPC   PO419092   6.533  22.365   9.618
 1331POPC   GL119093   6.639  22.187   9.201
 1331POPC   GL219094   6.453  21.886   9.159
 1331POPC   C1A19095   6.767  21.997   8.779
 1331POPC   D2A19096   7.035  21.900   8.423
 1331POPC   C3A19097   6.877  22.039   8.032
 1331POPC   C4A19098   6.592  22.317   7.849
 1331POPC   C1B19099   6.391  21.666   8.752
 1331POPC   C2B19100   6.455  21.899   8.327
 1331POPC   C3B19101   6.393  21.822   7.851
 1331POPC   C4B19102   6.408  21.949   7.392
 1332POPC   NC319103   4.777  19.484   9.387
 1332POPC   PO419104   5.155  19.956   9.265
 1332POPC   GL119105   5.037  19.632   8.981
 1332POPC   GL219106   5.073  19.844   8.731
 1332POPC   C1A19107   4.734  19.481   8.667
 1332POPC   D2A19108   4.741  19.722   8.295
 1332POPC   C3A19109   5.050  19.795   8.014
 1332POPC   C4A19110   4.901  19.830   7.599
 1332POPC   C1B19111   5.448  20.134   8.731
 1332POPC   C2B19112   5.680  20.141   8.394
 1332POPC   C3B19113   5.508  20.059   8.020
 1332POPC   C4B19114   5.333  20.065   7.638
 1333POPC   NC319115  18.624  15.801   9.312
 1333POPC   PO419116  18.091  16.160   9.691
 1333POPC   GL119117  18.280  16.217   9.237
 1333POPC   GL219118  18.607  16.216   9.026
 1333POPC   C1A19119  18.173  16.186   8.765
 1333POPC   D2A19120  17.967  16.069   8.342
 1333POPC   C3A19121  18.108  16.132   7.916
 1333POPC   C4A19122  18.321  15.803   7.695
 1333POPC   C1B19123  18.564  15.843   8.685
 1333POPC   C2B19124  18.438  15.853   8.275
 1333POPC   C3B19125  18.600  16.099   8.010
 1333POPC   C4B19126  18.836  15.841   7.794
 1334POPC   NC319127   1.504   4.523   9.317
 1334POPC   PO419128   1.128   4.264   9.789
 1334POPC   GL119129   1.035   4.236   9.310
 1334POPC   GL219130   1.041   4.554   9.108
 1334POPC   C1A19131   1.210   4.153   8.862
 1334POPC   D2A19132   1.024   4.205   8.453
 1334POPC   C3A19133   1.272   3.997   8.149
 1334POPC   C4A19134   1.367   4.120   7.738
 1334POPC   C1B19135   1.340   4.648   8.725
 1334POPC   C2B19136   1.192   4.739   8.322
 1334POPC   C3B19137   1.135   4.497   7.994
 1334POPC   C4B19138   1.317   4.633   7.648
 1335POPC   NC319139  13.456   7.154   9.842
 1335POPC   PO419140  13.750   7.670   9.512
 1335POPC   GL119141  13.673   7.433   9.173
 1335POPC   GL219142  13.421   7.232   9.317
 1335POPC   C1A19143  13.776   7.348   8.722
 1335POPC   D2A19144  13.627   7.529   8.345
 1335POPC   C3A19145  13.649   7.363   7.931
 1335POPC   C4A19146  13.515   7.696   7.722
 1335POPC   C1B19147  13.277   7.339   8.879
 1335POPC   C2B19148  13.257   7.173   8.456
 1335POPC   C3B19149  13.154   7.249   8.021
 1335POPC   C4B19150  13.270   7.220   7.567
 1336POPC   NC319151  27.574  36.486   9.507
 1336POPC   PO419152  27.383  35.753   9.596
 1336POPC   GL119153  27.540  35.909   9.160
 1336POPC   GL219154  27.366  36.193   9.139
 1336POPC   C1A19155  27.767  36.193   8.818
 1336POPC   D2A19156  27.570  36.468   8.496
 1336POPC   C3A19157  27.572  36.334   8.040
 1336POPC   C4A19158  27.915  36.318   7.757
 1336POPC   C1B19159  27.298  36.053   8.720
 1336POPC   C2B19160  27.354  35.891   8.330
 1336POPC   C3B19161  27.166  35.958   7.946
 1336POPC   C4B19162  27.271  36.043   7.508
 1337POPC   NC319163  36.335  27.660   9.600
 1337POPC   PO419164  35.737  27.941   9.414
 1337POPC   GL119165  36.012  27.641   9.169
 1337POPC   GL219166  36.373  27.692   9.107
 1337POPC   C1A19167  36.031  27.293   8.846
 1337POPC   D2A19168  35.891  27.224   8.427
 1337POPC   C3A19169  36.149  27.244   8.063
 1337POPC   C4A19170  36.032  27.244   7.642
 1337POPC   C1B19171  36.219  27.723   8.698
 1337POPC   C2B19172  36.065  27.712   8.302
 1337POPC   C3B19173  36.241  27.980   8.031
 1337POPC   C4B19174  36.434  28.017   7.652
 1338POPC   NC319175  31.345  24.747   9.621
 1338POPC   PO419176  31.823  24.284   9.639
 1338POPC   GL119177  31.703  24.528   9.251
 1338POPC   GL219178  31.428  24.771   9.125
 1338POPC   C1A19179  31.520  24.284   8.922
 1338POPC   D2A19180  31.514  24.190   8.485
 1338POPC   C3A19181  31.527  24.368   8.045
 1338POPC   C4A19182  31.708  24.274   7.599
 1338POPC   C1B19183  31.466  24.729   8.682
 1338POPC   C2B19184  31.398  24.915   8.295
 1338POPC   C3B19185  31.250  24.786   7.922
 1338POPC   C4B19186  31.574  24.764   7.642
 1339POPC   NC319187  44.900  13.377   9.416
 1339POPC   PO419188  44.867  14.027   9.392
 1339POPC   GL119189  44.917  13.767   9.062
 1339POPC   GL219190  44.586  13.650   9.122
 1339POPC   C1A19191   0.033  13.687   8.638
 1339POPC   D2A19192  44.850  13.946   8.349
 1339POPC   C3A19193  44.580  13.850   7.994
 1339POPC   C4A19194  44.895  13.836   7.717
 1339POPC   C1B19195  44.551  13.538   8.730
 1339POPC   C2B19196  44.604  13.482   8.342
 1339POPC   C3B19197  44.920  13.438   8.041
 1339POPC   C4B19198  44.659  13.400   7.677
 1340POPC   NC319199  42.565  18.592   9.445
 1340POPC   PO419200  42.351  19.264   9.498
 1340POPC   GL119201  42.230  19.162   9.103
 1340POPC   GL219202  42.504  18.926   9.051
 1340POPC   C1A19203  42.314  19.309   8.696
 1340POPC   D2A19204  42.345  19.116   8.308
 1340POPC   C3A19205  42.260  19.318   7.939
 1340POPC   C4A19206  42.431  19.330   7.535
 1340POPC   C1B19207  42.224  18.789   8.717
 1340POPC   C2B19208  42.171  18.580   8.331
 1340POPC   C3B19209  42.167  18.790   7.932
 1340POPC   C4B19210  42.164  18.894   7.498
 1341POPC   NC319211  20.105  44.162   9.604
 1341POPC   PO419212  20.528  43.673   9.669
 1341POPC   GL119213  20.693  43.813   9.230
 1341POPC   GL219214  20.502  44.159   9.207
 1341POPC   C1A19215  20.848  43.640   8.793
 1341POPC   D2A19216  20.863  43.819   8.342
 1341POPC   C3A19217  20.562  43.755   7.963
 1341POPC   C4A19218  20.353  43.392   7.709
 1341POPC   C1B19219  20.310  44.078   8.769
 1341POPC   C2B19220  20.252  44.029   8.283
 1341POPC   C3B19221  20.286  44.249   7.865
 1341POPC   C4B19222  20.299  44.328   7.412
 1342POPC   NC319223  12.405  15.021   9.487
 1342POPC   PO419224  11.722  15.044   9.521
 1342POPC   GL119225  11.992  15.010   9.144
 1342POPC   GL219226  12.217  15.321   9.103
 1342POPC   C1A19227  12.006  15.005   8.687
 1342POPC   D2A19228  12.231  15.267   8.391
 1342POPC   C3A19229  12.246  15.256   7.959
 1342POPC   C4A19230  11.868  15.076   7.681
 1342POPC   C1B19231  11.882  15.481   8.824
 1342POPC   C2B19232  11.842  15.603   8.401
 1342POPC   C3B19233  11.803  15.472   8.004
 1342POPC   C4B19234  12.008  15.540   7.580
 1343POPC   NC319235  29.100  41.023   9.271
 1343POPC   PO419236  29.526  40.684   9.529
 1343POPC   GL119237  29.306  40.595   9.106
 1343POPC   GL219238  28.963  40.495   9.149
 1343POPC   C1A19239  29.263  40.412   8.696
 1343POPC   D2A19240  29.387  40.721   8.437
 1343POPC   C3A19241  29.317  40.661   8.039
 1343POPC   C4A19242  29.404  41.031   7.831
 1343POPC   C1B19243  28.868  40.714   8.752
 1343POPC   C2B19244  28.855  40.680   8.329
 1343POPC   C3B19245  28.911  40.992   8.046
 1343POPC   C4B19246  28.965  40.776   7.671
 1344POPC   NC319247  20.599   5.232   9.669
 1344POPC   PO419248  20.624   4.642   9.357
 1344POPC   GL119249  20.566   4.978   9.072
 1344POPC   GL219250  20.550   5.318   9.168
 1344POPC   C1A19251  20.567   5.148   8.654
 1344POPC   D2A19252  20.300   5.193   8.308
 1344POPC   C3A19253  20.493   5.109   7.917
 1344POPC   C4A19254  20.827   4.821   7.800
 1344POPC   C1B19255  20.885   5.479   8.870
 1344POPC   C2B19256  21.035   5.285   8.430
 1344POPC   C3B19257  20.918   5.419   7.972
 1344POPC   C4B19258  21.019   5.644   7.573
 1345POPC   NC319259  43.541  26.401   9.384
 1345POPC   PO419260  44.001  26.865   9.691
 1345POPC   GL119261  43.997  26.703   9.269
 1345POPC   GL219262  43.737  26.936   9.221
 1345POPC   C1A19263  44.122  26.874   8.839
 1345POPC   D2A19264  44.005  27.066   8.445
 1345POPC   C3A19265  44.187  27.004   8.028
 1345POPC   C4A19266  44.278  27.044   7.583
 1345POPC   C1B19267  43.657  26.696   8.849
 1345POPC   C2B19268  43.788  26.612   8.464
 1345POPC   C3B19269  43.679  26.860   8.105
 1345POPC   C4B19270  43.859  26.764   7.714
 1346POPC   NC319271  27.398  43.772   9.531
 1346POPC   PO419272  27.781  44.372   9.472
 1346POPC   GL119273  27.804  44.032   9.187
 1346POPC   GL219274  27.462  44.105   9.102
 1346POPC   C1A19275  27.884  43.826   8.767
 1346POPC   D2A19276  27.599  43.909   8.394
 1346POPC   C3A19277  27.674  44.104   7.979
 1346POPC   C4A19278  27.464  44.134   7.545
 1346POPC   C1B19279  27.414  43.700   8.863
 1346POPC   C2B19280  27.639  43.423   8.566
 1346POPC   C3B19281  27.620  43.460   8.124
 1346POPC   C4B19282  27.571  43.670   7.733
 1347POPC   NC319283   7.053   1.995   9.492
 1347POPC   PO419284   7.745   2.012   9.630
 1347POPC   GL119285   7.694   2.002   9.207
 1347POPC   GL219286   7.375   2.177   9.123
 1347POPC   C1A19287   7.555   1.799   8.818
 1347POPC   D2A19288   7.206   1.763   8.496
 1347POPC   C3A19289   7.401   1.765   8.094
 1347POPC   C4A19290   7.728   1.825   7.777
 1347POPC   C1B19291   6.983   2.299   8.897
 1347POPC   C2B19292   6.912   2.280   8.474
 1347POPC   C3B19293   7.267   2.259   8.231
 1347POPC   C4B19294   7.322   2.202   7.809
 1348POPC   NC319295  37.366  37.728   9.813
 1348POPC   PO419296  37.965  37.654   9.527
 1348POPC   GL119297  37.906  37.602   9.156
 1348POPC   GL219298  37.665  37.443   9.125
 1348POPC   C1A19299  37.777  37.896   8.840
 1348POPC   D2A19300  37.499  37.946   8.492
 1348POPC   C3A19301  37.740  37.968   8.136
 1348POPC   C4A19302  37.864  37.866   7.756
 1348POPC   C1B19303  37.587  37.431   8.718
 1348POPC   C2B19304  37.580  37.472   8.293
 1348POPC   C3B19305  37.643  37.447   7.877
 1348POPC   C4B19306  37.638  37.556   7.409
 1349POPC   NC319307  22.134  21.057   9.416
 1349POPC   PO419308  22.015  20.438   9.515
 1349POPC   GL119309  21.918  20.651   9.144
 1349POPC   GL219310  22.286  20.693   9.090
 1349POPC   C1A19311  21.928  20.667   8.700
 1349POPC   D2A19312  21.737  20.673   8.298
 1349POPC   C3A19313  22.025  20.677   7.971
 1349POPC   C4A19314  21.974  20.780   7.540
 1349POPC   C1B19315  22.417  20.911   8.721
 1349POPC   C2B19316  22.398  20.662   8.369
 1349POPC   C3B19317  22.617  20.546   8.043
 1349POPC   C4B19318  22.401  20.509   7.654
 1350POPC   NC319319  29.519  23.274   9.547
 1350POPC   PO419320  29.100  23.886   9.552
 1350POPC   GL119321  29.341  23.661   9.223
 1350POPC   GL219322  29.129  23.395   9.152
 1350POPC   C1A19323  29.381  23.564   8.758
 1350POPC   D2A19324  29.281  23.733   8.373
 1350POPC   C3A19325  29.559  23.673   8.049
 1350POPC   C4A19326  29.575  23.612   7.636
 1350POPC   C1B19327  28.880  23.402   8.785
 1350POPC   C2B19328  28.999  23.306   8.370
 1350POPC   C3B19329  29.056  23.504   7.970
 1350POPC   C4B19330  28.800  23.642   7.628
 1351POPC   NC319331  18.074  39.137   9.498
 1351POPC   PO419332  18.758  39.185   9.508
 1351POPC   GL119333  18.496  39.120   9.184
 1351POPC   GL219334  18.412  39.448   9.171
 1351POPC   C1A19335  18.220  39.137   8.798
 1351POPC   D2A19336  17.984  39.347   8.453
 1351POPC   C3A19337  18.156  39.246   8.042
 1351POPC   C4A19338  18.284  39.224   7.592
 1351POPC   C1B19339  18.653  39.448   8.808
 1351POPC   C2B19340  18.503  39.428   8.415
 1351POPC   C3B19341  18.730  39.536   8.065
 1351POPC   C4B19342  18.725  39.408   7.679
 1352POPC   NC319343   5.566  38.996   9.365
 1352POPC   PO419344   5.085  39.500   9.436
 1352POPC   GL119345   5.237  39.299   9.080
 1352POPC   GL219346   5.071  38.959   9.067
 1352POPC   C1A19347   5.061  39.437   8.700
 1352POPC   D2A19348   4.990  39.702   8.360
 1352POPC   C3A19349   5.072  39.568   7.955
 1352POPC   C4A19350   5.024  39.333   7.607
 1352POPC   C1B19351   5.251  38.968   8.651
 1352POPC   C2B19352   5.310  39.223   8.285
 1352POPC   C3B19353   5.285  39.007   7.908
 1352POPC   C4B19354   5.396  38.945   7.493
 1353POPC   NC319355  40.022  21.862   9.612
 1353POPC   PO419356  39.893  22.407   9.395
 1353POPC   GL119357  40.031  22.117   9.120
 1353POPC   GL219358  39.760  21.869   9.172
 1353POPC   C1A19359  40.127  22.228   8.682
 1353POPC   D2A19360  39.939  22.112   8.283
 1353POPC   C3A19361  40.090  22.255   7.886
 1353POPC   C4A19362  39.758  22.363   7.631
 1353POPC   C1B19363  39.707  21.916   8.738
 1353POPC   C2B19364  39.819  21.632   8.416
 1353POPC   C3B19365  39.768  21.667   8.010
 1353POPC   C4B19366  39.892  21.843   7.660
 1354POPC   NC319367  18.010  27.399   9.564
 1354POPC   PO419368  17.528  27.795   9.436
 1354POPC   GL119369  17.677  27.504   9.127
 1354POPC   GL219370  17.897  27.718   8.934
 1354POPC   C1A19371  17.632  27.287   8.717
 1354POPC   D2A19372  17.734  26.996   8.372
 1354POPC   C3A19373  17.701  27.162   7.965
 1354POPC   C4A19374  17.403  27.233   7.640
 1354POPC   C1B19375  17.473  27.804   8.733
 1354POPC   C2B19376  17.350  27.952   8.320
 1354POPC   C3B19377  17.404  27.670   7.944
 1354POPC   C4B19378  17.800  27.583   7.680
 1355POPC   NC319379  11.240  11.466   9.507
 1355POPC   PO419380  11.395  10.800   9.608
 1355POPC   GL119381  11.379  11.070   9.222
 1355POPC   GL219382  11.048  11.079   9.218
 1355POPC   C1A19383  11.485  11.093   8.772
 1355POPC   D2A19384  11.593  11.426   8.482
 1355POPC   C3A19385  11.398  11.323   8.085
 1355POPC   C4A19386  11.185  11.172   7.720
 1355POPC   C1B19387  10.965  11.033   8.805
 1355POPC   C2B19388  10.988  11.155   8.367
 1355POPC   C3B19389  10.810  10.908   8.026
 1355POPC   C4B19390  10.746  10.884   7.608
 1356POPC   NC319391  10.510  27.866   9.460
 1356POPC   PO419392  10.989  27.374   9.261
 1356POPC   GL119393  10.689  27.593   9.036
 1356POPC   GL219394  10.371  27.777   8.994
 1356POPC   C1A19395  10.635  27.510   8.626
 1356POPC   D2A19396  10.682  27.802   8.329
 1356POPC   C3A19397  10.513  27.787   7.953
 1356POPC   C4A19398  10.812  27.668   7.655
 1356POPC   C1B19399  10.210  27.808   8.597
 1356POPC   C2B19400  10.045  27.865   8.182
 1356POPC   C3B19401  10.048  27.641   7.782
 1356POPC   C4B19402  10.065  27.361   7.393
 1357POPC   NC319403  44.871  41.694   9.600
 1357POPC   PO419404   0.154  41.109   9.529
 1357POPC   GL119405  44.810  41.211   9.217
 1357POPC   GL219406  44.765  41.564   9.115
 1357POPC   C1A19407  44.598  41.227   8.785
 1357POPC   D2A19408  44.802  41.361   8.409
 1357POPC   C3A19409  44.738  41.376   7.971
 1357POPC   C4A19410  44.992  41.546   7.627
 1357POPC   C1B19411  44.758  41.778   8.682
 1357POPC   C2B19412  44.557  41.879   8.300
 1357POPC   C3B19413  44.747  41.918   7.900
 1357POPC   C4B19414  44.808  42.054   7.475
 1358POPC   NC319415  20.283  35.145   9.498
 1358POPC   PO419416  20.664  35.680   9.781
 1358POPC   GL119417  20.522  35.608   9.320
 1358POPC   GL219418  20.516  35.334   9.105
 1358POPC   C1A19419  20.530  35.715   8.815
 1358POPC   D2A19420  20.775  35.671   8.447
 1358POPC   C3A19421  20.579  35.575   8.058
 1358POPC   C4A19422  20.541  35.630   7.636
 1358POPC   C1B19423  20.464  35.171   8.719
 1358POPC   C2B19424  20.648  35.138   8.345
 1358POPC   C3B19425  20.538  35.038   7.934
 1358POPC   C4B19426  20.736  35.115   7.566
 1359POPC   NC319427  20.144  17.797   9.455
 1359POPC   PO419428  19.889  18.426   9.445
 1359POPC   GL119429  19.854  18.108   9.134
 1359POPC   GL219430  19.565  18.258   9.048
 1359POPC   C1A19431  19.960  18.114   8.695
 1359POPC   D2A19432  20.266  18.342   8.432
 1359POPC   C3A19433  20.091  18.313   8.024
 1359POPC   C4A19434  20.090  18.372   7.579
 1359POPC   C1B19435  19.469  18.122   8.638
 1359POPC   C2B19436  19.673  18.406   8.339
 1359POPC   C3B19437  19.644  18.510   7.906
 1359POPC   C4B19438  19.538  18.072   7.814
 1360POPC   NC319439  24.228  30.070   9.272
 1360POPC   PO419440  24.530  30.518   9.760
 1360POPC   GL119441  24.384  30.593   9.281
 1360POPC   GL219442  24.135  30.881   9.282
 1360POPC   C1A19443  24.313  30.501   8.810
 1360POPC   D2A19444  24.561  30.600   8.434
 1360POPC   C3A19445  24.466  30.517   8.009
 1360POPC   C4A19446  24.721  30.541   7.646
 1360POPC   C1B19447  24.320  30.985   8.889
 1360POPC   C2B19448  24.247  31.017   8.473
 1360POPC   C3B19449  24.468  31.051   8.111
 1360POPC   C4B19450  24.417  30.937   7.714
 1361POPC   NC319451  31.683  13.504   9.479
 1361POPC   PO419452  31.052  13.610   9.560
 1361POPC   GL119453  31.232  13.730   9.130
 1361POPC   GL219454  31.590  13.799   9.066
 1361POPC   C1A19455  31.326  13.686   8.663
 1361POPC   D2A19456  31.342  13.341   8.388
 1361POPC   C3A19457  31.277  13.519   7.959
 1361POPC   C4A19458  31.343  13.885   7.696
 1361POPC   C1B19459  31.726  13.438   8.831
 1361POPC   C2B19460  31.831  13.480   8.429
 1361POPC   C3B19461  31.697  13.742   8.137
 1361POPC   C4B19462  31.802  13.593   7.762
 1362POPC   NC319463   1.728  15.264   9.495
 1362POPC   PO419464   2.323  14.950   9.666
 1362POPC   GL119465   2.160  15.082   9.208
 1362POPC   GL219466   1.858  14.919   9.120
 1362POPC   C1A19467   2.020  15.329   8.822
 1362POPC   D2A19468   2.190  15.393   8.403
 1362POPC   C3A19469   1.889  15.534   8.087
 1362POPC   C4A19470   1.959  15.600   7.644
 1362POPC   C1B19471   1.995  14.858   8.666
 1362POPC   C2B19472   1.986  14.723   8.266
 1362POPC   C3B19473   1.742  14.739   7.972
 1362POPC   C4B19474   1.848  15.107   7.792
 1363POPC   NC319475   5.220  23.178   9.474
 1363POPC   PO419476   4.992  22.625   9.477
 1363POPC   GL119477   5.317  22.770   9.172
 1363POPC   GL219478   5.442  22.501   9.046
 1363POPC   C1A19479   5.452  23.012   8.793
 1363POPC   D2A19480   5.364  23.315   8.422
 1363POPC   C3A19481   5.312  23.138   7.984
 1363POPC   C4A19482   4.892  23.142   7.783
 1363POPC   C1B19483   5.202  22.546   8.693
 1363POPC   C2B19484   5.278  22.655   8.269
 1363POPC   C3B19485   5.097  22.662   7.874
 1363POPC   C4B19486   5.315  22.516   7.527
 1364POPC   NC319487   3.073   3.327   9.332
 1364POPC   PO419488   2.351   3.459   9.365
 1364POPC   GL119489   2.676   3.641   9.114
 1364POPC   GL219490   2.870   3.950   9.257
 1364POPC   C1A19491   2.768   3.434   8.697
 1364POPC   D2A19492   2.612   3.445   8.260
 1364POPC   C3A19493   2.836   3.487   7.865
 1364POPC   C4A19494   3.069   3.244   7.566
 1364POPC   C1B19495   3.012   3.859   8.817
 1364POPC   C2B19496   2.801   3.890   8.431
 1364POPC   C3B19497   3.005   3.920   8.023
 1364POPC   C4B19498   2.757   4.001   7.649
 1365POPC   NC319499  32.762  19.319   9.618
 1365POPC   PO419500  33.180  18.751   9.390
 1365POPC   GL119501  32.964  18.816   9.017
 1365POPC   GL219502  32.775  19.095   9.135
 1365POPC   C1A19503  33.021  19.073   8.637
 1365POPC   D2A19504  33.213  19.065   8.218
 1365POPC   C3A19505  33.016  18.829   7.881
 1365POPC   C4A19506  33.186  18.843   7.430
 1365POPC   C1B19507  32.609  19.356   8.811
 1365POPC   C2B19508  32.732  19.512   8.397
 1365POPC   C3B19509  32.838  19.355   7.990
 1365POPC   C4B19510  33.198  19.276   7.733
 1366POPC   NC319511  38.940  33.677   9.476
 1366POPC   PO419512  39.646  33.883   9.563
 1366POPC   GL119513  39.317  33.942   9.216
 1366POPC   GL219514  39.175  33.671   9.027
 1366POPC   C1A19515  39.124  34.140   8.833
 1366POPC   D2A19516  39.052  33.826   8.534
 1366POPC   C3A19517  39.150  33.868   8.103
 1366POPC   C4A19518  38.869  33.653   7.860
 1366POPC   C1B19519  39.526  33.799   8.767
 1366POPC   C2B19520  39.599  33.901   8.365
 1366POPC   C3B19521  39.555  33.570   8.052
 1366POPC   C4B19522  39.333  33.573   7.704
 1367POPC   NC319523  31.006  32.462   9.576
 1367POPC   PO419524  30.589  31.859   9.529
 1367POPC   GL119525  30.683  32.188   9.215
 1367POPC   GL219526  31.043  32.231   9.139
 1367POPC   C1A19527  30.602  32.396   8.811
 1367POPC   D2A19528  30.769  32.313   8.374
 1367POPC   C3A19529  30.497  32.311   7.997
 1367POPC   C4A19530  30.416  32.316   7.511
 1367POPC   C1B19531  30.960  32.017   8.777
 1367POPC   C2B19532  31.053  31.870   8.371
 1367POPC   C3B19533  30.829  31.899   7.993
 1367POPC   C4B19534  30.920  32.255   7.737
 1368POPC   NC319535  35.081   9.256   9.338
 1368POPC   PO419536  35.372   8.638   9.482
 1368POPC   GL119537  35.405   8.805   9.106
 1368POPC   GL219538  35.065   8.759   9.036
 1368POPC   C1A19539  35.521   8.989   8.708
 1368POPC   D2A19540  35.344   8.982   8.294
 1368POPC   C3A19541  35.558   8.981   7.938
 1368POPC   C4A19542  35.750   8.626   7.761
 1368POPC   C1B19543  34.995   9.003   8.699
 1368POPC   C2B19544  34.809   9.004   8.314
 1368POPC   C3B19545  34.973   8.892   7.945
 1368POPC   C4B19546  35.167   9.186   7.638
 1369POPC   NC319547  35.292   3.221   9.361
 1369POPC   PO419548  35.656   3.769   9.122
 1369POPC   GL119549  35.322   3.577   8.994
 1369POPC   GL219550  35.110   3.845   9.072
 1369POPC   C1A19551  35.273   3.373   8.591
 1369POPC   D2A19552  35.410   3.588   8.228
 1369POPC   C3A19553  35.293   3.419   7.848
 1369POPC   C4A19554  35.439   3.557   7.433
 1369POPC   C1B19555  34.905   3.710   8.706
 1369POPC   C2B19556  34.888   3.580   8.302
 1369POPC   C3B19557  34.916   3.778   7.952
 1369POPC   C4B19558  34.965   3.749   7.551
 1370POPC   NC319559  35.179   7.317   9.346
 1370POPC   PO419560  35.701   7.729   9.412
 1370POPC   GL119561  35.492   7.637   9.044
 1370POPC   GL219562  35.155   7.767   9.024
 1370POPC   C1A19563  35.406   7.488   8.637
 1370POPC   D2A19564  35.407   7.108   8.417
 1370POPC   C3A19565  35.457   7.095   7.982
 1370POPC   C4A19566  35.388   7.064   7.529
 1370POPC   C1B19567  34.927   7.679   8.618
 1370POPC   C2B19568  35.053   7.503   8.238
 1370POPC   C3B19569  35.075   7.390   7.799
 1370POPC   C4B19570  35.213   7.513   7.382
 1371POPC   NC319571  25.863  30.124   9.533
 1371POPC   PO419572  25.894  30.784   9.534
 1371POPC   GL119573  26.033  30.690   9.140
 1371POPC   GL219574  25.895  30.401   9.122
 1371POPC   C1A19575  26.010  30.781   8.706
 1371POPC   D2A19576  26.223  30.985   8.352
 1371POPC   C3A19577  26.054  30.737   8.025
 1371POPC   C4A19578  25.733  30.868   7.765
 1371POPC   C1B19579  25.903  30.191   8.766
 1371POPC   C2B19580  26.009  30.320   8.381
 1371POPC   C3B19581  25.991  30.201   8.001
 1371POPC   C4B19582  25.822  30.378   7.682
 1372POPC   NC319583  14.821  34.454   9.725
 1372POPC   PO419584  14.158  34.668   9.489
 1372POPC   GL119585  14.490  34.691   9.179
 1372POPC   GL219586  14.796  34.812   9.313
 1372POPC   C1A19587  14.440  34.838   8.737
 1372POPC   D2A19588  14.149  34.587   8.434
 1372POPC   C3A19589  14.205  34.645   7.995
 1372POPC   C4A19590  14.458  34.428   7.712
 1372POPC   C1B19591  14.881  34.555   8.892
 1372POPC   C2B19592  14.705  34.538   8.432
 1372POPC   C3B19593  14.866  34.513   8.013
 1372POPC   C4B19594  14.785  34.818   7.672
 1373POPC   NC319595  39.726   4.123   9.707
 1373POPC   PO419596  40.152   3.609   9.458
 1373POPC   GL119597  40.283   3.447   9.102
 1373POPC   GL219598  40.381   3.782   9.018
 1373POPC   C1A19599  40.009   3.440   8.745
 1373POPC   D2A19600  39.625   3.430   8.480
 1373POPC   C3A19601  39.698   3.284   8.051
 1373POPC   C4A19602  40.129   3.135   7.930
 1373POPC   C1B19603  40.302   3.895   8.615
 1373POPC   C2B19604  40.068   3.675   8.299
 1373POPC   C3B19605  40.011   3.667   7.903
 1373POPC   C4B19606  40.017   3.878   7.523
 1374POPC   NC319607  14.953  36.736   9.414
 1374POPC   PO419608  15.430  37.214   9.413
 1374POPC   GL119609  15.215  37.049   9.104
 1374POPC   GL219610  15.427  36.758   9.097
 1374POPC   C1A19611  14.941  37.083   8.743
 1374POPC   D2A19612  15.182  36.989   8.370
 1374POPC   C3A19613  15.048  37.155   7.988
 1374POPC   C4A19614  15.156  37.008   7.581
 1374POPC   C1B19615  15.201  36.640   8.755
 1374POPC   C2B19616  15.069  36.490   8.350
 1374POPC   C3B19617  15.150  36.650   7.971
 1374POPC   C4B19618  14.765  36.684   7.825
 1375POPC   NC319619  15.120  40.247   9.515
 1375POPC   PO419620  14.991  39.610   9.293
 1375POPC   GL119621  15.010  39.961   9.053
 1375POPC   GL219622  15.337  39.987   9.095
 1375POPC   C1A19623  15.044  40.210   8.653
 1375POPC   D2A19624  14.761  40.325   8.275
 1375POPC   C3A19625  14.791  40.146   7.844
 1375POPC   C4A19626  14.994  39.804   7.604
 1375POPC   C1B19627  15.408  39.702   8.792
 1375POPC   C2B19628  15.185  39.791   8.422
 1375POPC   C3B19629  15.234  40.028   8.071
 1375POPC   C4B19630  15.454  39.873   7.728
 1376POPC   NC319631   5.122  18.483   9.479
 1376POPC   PO419632   4.959  19.134   9.639
 1376POPC   GL119633   5.243  19.214   9.235
 1376POPC   GL219634   5.288  18.873   9.130
 1376POPC   C1A19635   5.209  19.197   8.735
 1376POPC   D2A19636   4.914  19.072   8.386
 1376POPC   C3A19637   4.898  19.309   7.992
 1376POPC   C4A19638   5.233  19.455   7.707
 1376POPC   C1B19639   5.225  18.594   8.763
 1376POPC   C2B19640   5.362  18.728   8.360
 1376POPC   C3B19641   5.331  19.045   8.070
 1376POPC   C4B19642   5.147  18.945   7.685
 1377POPC   NC319643   4.524   5.476   9.494
 1377POPC   PO419644   4.081   4.959   9.416
 1377POPC   GL119645   4.264   4.949   9.022
 1377POPC   GL219646   4.452   5.211   9.067
 1377POPC   C1A19647   4.288   5.022   8.601
 1377POPC   D2A19648   4.222   5.225   8.265
 1377POPC   C3A19649   4.345   4.971   7.960
 1377POPC   C4A19650   4.127   5.202   7.689
 1377POPC   C1B19651   4.720   5.242   8.714
 1377POPC   C2B19652   4.738   5.050   8.301
 1377POPC   C3B19653   4.792   5.178   7.857
 1377POPC   C4B19654   4.562   5.050   7.472
 1378POPC   NC319655  15.225  33.611   9.731
 1378POPC   PO419656  14.889  34.118   9.423
 1378POPC   GL119657  15.275  34.017   9.227
 1378POPC   GL219658  15.314  33.641   9.200
 1378POPC   C1A19659  15.197  33.986   8.777
 1378POPC   D2A19660  15.182  33.819   8.386
 1378POPC   C3A19661  15.169  34.081   8.025
 1378POPC   C4A19662  14.896  34.135   7.627
 1378POPC   C1B19663  15.119  33.455   8.819
 1378POPC   C2B19664  15.121  33.314   8.398
 1378POPC   C3B19665  15.175  33.482   7.978
 1378POPC   C4B19666  15.236  33.701   7.565
 1379POPC   NC319667  16.838  15.417   9.716
 1379POPC   PO419668  16.748  14.800   9.562
 1379POPC   GL119669  16.859  15.082   9.247
 1379POPC   GL219670  16.532  15.093   9.092
 1379POPC   C1A19671  16.963  15.193   8.817
 1379POPC   D2A19672  16.855  15.044   8.417
 1379POPC   C3A19673  16.921  15.171   8.035
 1379POPC   C4A19674  16.922  14.830   7.772
 1379POPC   C1B19675  16.444  15.232   8.656
 1379POPC   C2B19676  16.432  15.285   8.203
 1379POPC   C3B19677  16.548  15.423   7.790
 1379POPC   C4B19678  16.655  15.641   7.391
 1380POPC   NC319679  18.338  12.519   9.620
 1380POPC   PO419680  17.982  12.057   9.459
 1380POPC   GL119681  18.313  12.152   9.187
 1380POPC   GL219682  18.519  11.841   9.108
 1380POPC   C1A19683  18.214  12.101   8.763
 1380POPC   D2A19684  18.393  12.132   8.390
 1380POPC   C3A19685  18.112  12.083   8.103
 1380POPC   C4A19686  17.994  12.363   7.820
 1380POPC   C1B19687  18.763  12.088   8.779
 1380POPC   C2B19688  18.873  11.961   8.352
 1380POPC   C3B19689  18.590  11.865   7.992
 1380POPC   C4B19690  18.267  11.940   7.658
 1381POPC   NC319691  40.655  33.818   9.622
 1381POPC   PO419692  41.270  33.654   9.581
 1381POPC   GL119693  40.994  33.872   9.231
 1381POPC   GL219694  40.614  33.974   9.142
 1381POPC   C1A19695  41.053  34.103   8.860
 1381POPC   D2A19696  41.122  33.947   8.463
 1381POPC   C3A19697  40.992  34.066   8.056
 1381POPC   C4A19698  40.936  33.888   7.671
 1381POPC   C1B19699  40.662  33.777   8.752
 1381POPC   C2B19700  40.658  33.694   8.319
 1381POPC   C3B19701  40.503  33.841   7.930
 1381POPC   C4B19702  40.420  33.575   7.582
 1382POPC   NC319703  10.904  14.739   9.449
 1382POPC   PO419704  11.480  14.426   9.648
 1382POPC   GL119705  11.502  14.323   9.204
 1382POPC   GL219706  11.685  14.037   9.079
 1382POPC   C1A19707  11.438  14.541   8.820
 1382POPC   D2A19708  11.284  14.425   8.413
 1382POPC   C3A19709  11.355  14.647   8.050
 1382POPC   C4A19710  10.984  14.672   7.827
 1382POPC   C1B19711  11.523  14.028   8.657
 1382POPC   C2B19712  11.311  13.939   8.247
 1382POPC   C3B19713  11.227  14.189   7.886
 1382POPC   C4B19714  11.490  14.389   7.631
 1383POPC   NC319715  12.767   7.004   9.545
 1383POPC   PO419716  13.162   7.510   9.714
 1383POPC   GL119717  13.011   7.538   9.272
 1383POPC   GL219718  12.895   7.850   9.239
 1383POPC   C1A19719  12.790   7.488   8.839
 1383POPC   D2A19720  12.747   7.271   8.442
 1383POPC   C3A19721  12.631   7.335   8.016
 1383POPC   C4A19722  12.766   7.088   7.671
 1383POPC   C1B19723  13.147   7.867   8.864
 1383POPC   C2B19724  13.132   7.659   8.481
 1383POPC   C3B19725  13.086   7.755   8.070
 1383POPC   C4B19726  12.973   7.609   7.684
 1384POPC   NC319727  27.830  27.367   9.615
 1384POPC   PO419728  27.288  27.731   9.484
 1384POPC   GL119729  27.464  27.850   9.135
 1384POPC   GL219730  27.683  27.615   9.185
 1384POPC   C1A19731  27.425  27.683   8.716
 1384POPC   D2A19732  27.589  27.761   8.297
 1384POPC   C3A19733  27.440  27.815   7.852
 1384POPC   C4A19734  27.551  27.839   7.406
 1384POPC   C1B19735  27.780  27.308   8.846
 1384POPC   C2B19736  27.667  27.237   8.428
 1384POPC   C3B19737  27.770  27.365   8.019
 1384POPC   C4B19738  27.622  27.367   7.582
 1385POPC   NC319739  41.534   8.597   9.528
 1385POPC   PO419740  41.869   9.238   9.601
 1385POPC   GL119741  41.537   9.069   9.286
 1385POPC   GL219742  41.634   8.786   9.074
 1385POPC   C1A19743  41.354   9.126   8.844
 1385POPC   D2A19744  41.562   8.957   8.495
 1385POPC   C3A19745  41.433   8.976   8.062
 1385POPC   C4A19746  41.181   9.186   7.759
 1385POPC   C1B19747  41.970   8.806   8.782
 1385POPC   C2B19748  41.968   8.698   8.348
 1385POPC   C3B19749  41.948   9.032   8.061
 1385POPC   C4B19750  41.747   8.964   7.659
 1386POPC   NC319751   0.346  20.021   9.560
 1386POPC   PO419752   0.332  20.714   9.574
 1386POPC   GL119753   0.238  20.592   9.183
 1386POPC   GL219754   0.512  20.366   9.140
 1386POPC   C1A19755   0.165  20.727   8.763
 1386POPC   D2A19756   0.254  20.493   8.395
 1386POPC   C3A19757   0.374  20.722   8.015
 1386POPC   C4A19758   0.792  20.840   7.861
 1386POPC   C1B19759   0.737  20.479   8.726
 1386POPC   C2B19760   0.742  20.389   8.259
 1386POPC   C3B19761   0.436  20.230   7.928
 1386POPC   C4B19762   0.205  20.381   7.533
 1387POPC   NC319763  41.924   5.734   9.348
 1387POPC   PO419764  41.336   5.948   9.608
 1387POPC   GL119765  41.570   6.069   9.207
 1387POPC   GL219766  41.336   5.967   8.983
 1387POPC   C1A19767  41.780   5.963   8.755
 1387POPC   D2A19768  41.733   6.089   8.322
 1387POPC   C3A19769  41.613   5.850   7.957
 1387POPC   C4A19770  41.344   6.100   7.717
 1387POPC   C1B19771  41.278   5.706   8.647
 1387POPC   C2B19772  41.284   5.573   8.255
 1387POPC   C3B19773  41.098   5.698   7.898
 1387POPC   C4B19774  41.268   5.646   7.522
 1388POPC   NC319775  29.130  25.561   9.649
 1388POPC   PO419776  29.271  26.250   9.529
 1388POPC   GL119777  29.279  26.108   9.100
 1388POPC   GL219778  29.010  25.889   8.998
 1388POPC   C1A19779  29.331  26.082   8.656
 1388POPC   D2A19780  29.004  25.971   8.375
 1388POPC   C3A19781  29.208  26.085   8.029
 1388POPC   C4A19782  29.311  26.264   7.637
 1388POPC   C1B19783  28.617  25.953   8.743
 1388POPC   C2B19784  28.527  26.217   8.399
 1388POPC   C3B19785  28.570  25.996   8.043
 1388POPC   C4B19786  28.821  25.981   7.707
 1389POPC   NC319787  23.837   5.453   9.634
 1389POPC   PO419788  23.953   6.080   9.376
 1389POPC   GL119789  23.704   5.924   9.051
 1389POPC   GL219790  23.647   5.563   9.131
 1389POPC   C1A19791  23.761   5.910   8.594
 1389POPC   D2A19792  24.045   6.045   8.243
 1389POPC   C3A19793  23.801   5.974   7.857
 1389POPC   C4A19794  23.363   6.117   7.805
 1389POPC   C1B19795  23.400   5.519   8.728
 1389POPC   C2B19796  23.392   5.455   8.261
 1389POPC   C3B19797  23.722   5.459   7.913
 1389POPC   C4B19798  24.143   5.339   7.892
 1390POPC   NC319799  20.934  14.885   9.511
 1390POPC   PO419800  20.715  15.576   9.612
 1390POPC   GL119801  20.711  15.318   9.223
 1390POPC   GL219802  20.861  15.497   8.986
 1390POPC   C1A19803  20.833  14.983   8.885
 1390POPC   D2A19804  20.866  14.860   8.436
 1390POPC   C3A19805  20.560  15.006   8.141
 1390POPC   C4A19806  20.309  14.941   7.766
 1390POPC   C1B19807  20.593  15.333   8.612
 1390POPC   C2B19808  20.172  15.255   8.421
 1390POPC   C3B19809  20.184  15.389   8.001
 1390POPC   C4B19810  20.606  15.378   7.787
 1391POPC   NC319811  10.261  12.388   9.676
 1391POPC   PO419812  10.633  11.797   9.564
 1391POPC   GL119813  10.591  11.994   9.193
 1391POPC   GL219814  10.327  12.200   9.193
 1391POPC   C1A19815  10.655  11.906   8.769
 1391POPC   D2A19816  10.839  12.149   8.407
 1391POPC   C3A19817  10.707  12.036   8.000
 1391POPC   C4A19818  10.425  11.759   7.807
 1391POPC   C1B19819  10.280  12.253   8.763
 1391POPC   C2B19820  10.364  12.415   8.352
 1391POPC   C3B19821  10.269  12.341   7.922
 1391POPC   C4B19822  10.148  12.559   7.546
 1392POPC   NC319823  43.440  14.535   9.483
 1392POPC   PO419824  44.109  14.666   9.524
 1392POPC   GL119825  43.938  14.440   9.170
 1392POPC   GL219826  43.607  14.518   8.975
 1392POPC   C1A19827  44.081  14.333   8.762
 1392POPC   D2A19828  43.886  14.317   8.336
 1392POPC   C3A19829  44.151  14.385   7.968
 1392POPC   C4A19830  44.283  14.626   7.600
 1392POPC   C1B19831  43.620  14.081   8.766
 1392POPC   C2B19832  43.671  13.843   8.370
 1392POPC   C3B19833  43.668  14.002   7.954
 1392POPC   C4B19834  43.648  14.414   7.855
 1393POPC   NC319835   6.111  13.845   9.441
 1393POPC   PO419836   5.699  13.344   9.511
 1393POPC   GL119837   5.660  13.635   9.123
 1393POPC   GL219838   5.875  13.935   8.989
 1393POPC   C1A19839   5.638  13.590   8.653
 1393POPC   D2A19840   5.973  13.516   8.343
 1393POPC   C3A19841   5.900  13.759   7.981
 1393POPC   C4A19842   5.859  13.702   7.541
 1393POPC   C1B19843   5.521  14.063   8.741
 1393POPC   C2B19844   5.455  13.919   8.284
 1393POPC   C3B19845   5.585  14.176   7.929
 1393POPC   C4B19846   5.565  14.119   7.476
 1394POPC   NC319847  28.487  29.679   9.884
 1394POPC   PO419848  28.203  30.102   9.610
 1394POPC   GL119849  28.325  29.906   9.219
 1394POPC   GL219850  28.377  30.225   9.073
 1394POPC   C1A19851  28.437  29.835   8.751
 1394POPC   D2A19852  28.525  30.062   8.356
 1394POPC   C3A19853  28.446  29.830   7.967
 1394POPC   C4A19854  28.055  29.709   7.801
 1394POPC   C1B19855  28.056  30.403   8.789
 1394POPC   C2B19856  27.934  30.412   8.369
 1394POPC   C3B19857  28.198  30.299   8.036
 1394POPC   C4B19858  28.265  30.164   7.621
 1395POPC   NC319859  35.743   6.473   9.270
 1395POPC   PO419860  35.206   6.859   9.363
 1395POPC   GL119861  34.998   6.705   9.035
 1395POPC   GL219862  35.128   6.368   9.115
 1395POPC   C1A19863  35.221   6.706   8.679
 1395POPC   D2A19864  35.453   6.403   8.498
 1395POPC   C3A19865  35.425   6.590   8.135
 1395POPC   C4A19866  35.490   6.605   7.745
 1395POPC   C1B19867  34.978   6.270   8.707
 1395POPC   C2B19868  34.940   6.495   8.283
 1395POPC   C3B19869  35.062   6.321   7.850
 1395POPC   C4B19870  35.022   6.172   7.417
 1396POPC   NC319871  41.307  25.625   9.463
 1396POPC   PO419872  41.350  26.315   9.621
 1396POPC   GL119873  41.456  26.115   9.236
 1396POPC   GL219874  41.811  26.168   9.106
 1396POPC   C1A19875  41.461  26.109   8.782
 1396POPC   D2A19876  41.270  26.036   8.432
 1396POPC   C3A19877  41.498  25.880   8.079
 1396POPC   C4A19878  41.431  26.174   7.754
 1396POPC   C1B19879  41.954  26.322   8.721
 1396POPC   C2B19880  41.908  26.062   8.355
 1396POPC   C3B19881  41.935  26.146   7.907
 1396POPC   C4B19882  41.891  26.155   7.452
 1397POPC   NC319883  36.389  32.024   9.479
 1397POPC   PO419884  36.134  32.643   9.503
 1397POPC   GL119885  36.068  32.451   9.091
 1397POPC   GL219886  35.927  32.140   9.065
 1397POPC   C1A19887  36.217  32.362   8.661
 1397POPC   D2A19888  36.503  32.340   8.288
 1397POPC   C3A19889  36.301  32.581   7.978
 1397POPC   C4A19890  35.963  32.416   7.732
 1397POPC   C1B19891  35.857  31.992   8.681
 1397POPC   C2B19892  36.075  31.958   8.271
 1397POPC   C3B19893  35.799  31.972   7.914
 1397POPC   C4B19894  35.623  31.745   7.575
 1398POPC   NC319895  34.327  36.641   9.364
 1398POPC   PO419896  34.974  36.903   9.412
 1398POPC   GL119897  34.659  36.937   9.080
 1398POPC   GL219898  34.405  37.184   9.065
 1398POPC   C1A19899  34.557  36.797   8.662
 1398POPC   D2A19900  34.749  36.677   8.266
 1398POPC   C3A19901  34.591  36.869   7.907
 1398POPC   C4A19902  34.631  36.553   7.600
 1398POPC   C1B19903  34.150  37.107   8.701
 1398POPC   C2B19904  34.290  37.059   8.292
 1398POPC   C3B19905  34.098  37.226   7.921
 1398POPC   C4B19906  34.357  37.246   7.598
 1399POPC   NC319907  30.957  23.563   9.470
 1399POPC   PO419908  30.371  23.913   9.335
 1399POPC   GL119909  30.602  23.634   9.066
 1399POPC   GL219910  30.874  23.879   9.081
 1399POPC   C1A19911  30.681  23.692   8.610
 1399POPC   D2A19912  30.557  23.886   8.209
 1399POPC   C3A19913  30.558  23.584   7.850
 1399POPC   C4A19914  30.577  23.590   7.387
 1399POPC   C1B19915  31.155  23.887   8.761
 1399POPC   C2B19916  31.060  23.995   8.359
 1399POPC   C3B19917  31.009  23.807   7.982
 1399POPC   C4B19918  30.877  23.950   7.589
 1400POPC   NC319919  13.448  19.548   9.562
 1400POPC   PO419920  14.013  20.004   9.428
 1400POPC   GL119921  13.763  19.797   9.175
 1400POPC   GL219922  13.466  19.598   9.067
 1400POPC   C1A19923  13.689  19.975   8.792
 1400POPC   D2A19924  13.519  20.015   8.412
 1400POPC   C3A19925  13.800  19.795   8.157
 1400POPC   C4A19926  13.920  19.788   7.751
 1400POPC   C1B19927  13.176  19.576   8.751
 1400POPC   C2B19928  13.368  19.545   8.348
 1400POPC   C3B19929  13.400  19.508   7.891
 1400POPC   C4B19930  13.366  19.385   7.403
 1401POPC   NC319931  31.248  42.279   9.826
 1401POPC   PO419932  31.877  42.148   9.553
 1401POPC   GL119933  31.516  42.293   9.290
 1401POPC   GL219934  31.160  42.163   9.299
 1401POPC   C1A19935  31.480  42.308   8.834
 1401POPC   D2A19936  31.743  42.174   8.455
 1401POPC   C3A19937  31.572  42.248   8.077
 1401POPC   C4A19938  31.524  42.569   7.789
 1401POPC   C1B19939  30.995  42.420   8.940
 1401POPC   C2B19940  31.098  42.469   8.518
 1401POPC   C3B19941  31.097  42.507   8.077
 1401POPC   C4B19942  31.114  42.232   7.746
 1402POPC   NC319943   2.388  29.341   9.459
 1402POPC   PO419944   2.160  28.707   9.540
 1402POPC   GL119945   1.987  28.905   9.176
 1402POPC   GL219946   2.067  29.229   9.087
 1402POPC   C1A19947   1.832  28.944   8.755
 1402POPC   D2A19948   1.859  29.208   8.409
 1402POPC   C3A19949   2.048  28.943   8.109
 1402POPC   C4A19950   1.836  28.777   7.771
 1402POPC   C1B19951   2.358  29.297   8.767
 1402POPC   C2B19952   2.324  29.444   8.337
 1402POPC   C3B19953   2.087  29.413   7.934
 1402POPC   C4B19954   2.121  29.148   7.566
 1403POPC   NC319955   2.812  30.232   9.758
 1403POPC   PO419956   2.611  29.752   9.359
 1403POPC   GL119957   2.831  30.014   9.103
 1403POPC   GL219958   2.676  30.288   9.217
 1403POPC   C1A19959   2.890  29.950   8.662
 1403POPC   D2A19960   2.780  29.681   8.293
 1403POPC   C3A19961   3.056  29.559   7.965
 1403POPC   C4A19962   3.005  29.824   7.611
 1403POPC   C1B19963   2.465  30.240   8.794
 1403POPC   C2B19964   2.502  30.115   8.358
 1403POPC   C3B19965   2.643  30.102   7.919
 1403POPC   C4B19966   2.375  30.125   7.553
 1404POPC   NC319967  15.527  42.446   9.450
 1404POPC   PO419968  14.850  42.284   9.592
 1404POPC   GL119969  15.065  42.404   9.221
 1404POPC   GL219970  15.309  42.115   9.121
 1404POPC   C1A19971  15.223  42.530   8.815
 1404POPC   D2A19972  15.158  42.333   8.432
 1404POPC   C3A19973  15.189  42.513   8.032
 1404POPC   C4A19974  15.139  42.258   7.655
 1404POPC   C1B19975  15.610  42.233   8.736
 1404POPC   C2B19976  15.656  42.380   8.276
 1404POPC   C3B19977  15.609  42.254   7.838
 1404POPC   C4B19978  15.546  42.412   7.380
 1405POPC   NC319979  38.644  27.881   9.427
 1405POPC   PO419980  38.125  27.484   9.608
 1405POPC   GL119981  38.394  27.467   9.225
 1405POPC   GL219982  38.632  27.164   9.235
 1405POPC   C1A19983  38.337  27.766   8.851
 1405POPC   D2A19984  38.113  27.985   8.501
 1405POPC   C3A19985  38.341  27.769   8.154
 1405POPC   C4A19986  38.590  27.783   7.763
 1405POPC   C1B19987  38.706  27.342   8.828
 1405POPC   C2B19988  38.379  27.366   8.516
 1405POPC   C3B19989  38.290  27.259   8.103
 1405POPC   C4B19990  38.610  27.265   7.803
 1406POPC   NC319991  20.792  27.720   9.661
 1406POPC   PO419992  20.380  27.267   9.447
 1406POPC   GL119993  20.483  27.576   9.101
 1406POPC   GL219994  20.849  27.751   9.095
 1406POPC   C1A19995  20.431  27.814   8.726
 1406POPC   D2A19996  20.327  27.687   8.317
 1406POPC   C3A19997  20.619  27.510   8.054
 1406POPC   C4A19998  20.659  27.614   7.609
 1406POPC   C1B19999  20.851  27.502   8.692
 1406POPC   C2B20000  21.080  27.522   8.294
 1406POPC   C3B20001  21.079  27.700   7.885
 1406POPC   C4B20002  21.127  27.501   7.459
 1407POPC   NC320003  44.559  18.401   9.533
 1407POPC   PO420004   0.093  17.971   9.419
 1407POPC   GL120005  44.953  18.314   9.120
 1407POPC   GL220006  44.618  18.486   9.061
 1407POPC   C1A20007  44.994  18.233   8.676
 1407POPC   D2A20008  44.780  18.034   8.360
 1407POPC   C3A20009   0.004  18.172   8.021
 1407POPC   C4A20010  44.953  18.330   7.623
 1407POPC   C1B20011  44.639  18.592   8.684
 1407POPC   C2B20012  44.423  18.469   8.367
 1407POPC   C3B20013  44.437  18.236   8.030
 1407POPC   C4B20014  44.437  18.342   7.638
 1408POPC   NC320015   7.959  29.661   9.389
 1408POPC   PO420016   8.551  29.388   9.490
 1408POPC   GL120017   8.471  29.762   9.208
 1408POPC   GL220018   8.329  30.128   9.157
 1408POPC   C1A20019   8.483  29.827   8.776
 1408POPC   D2A20020   8.461  30.144   8.481
 1408POPC   C3A20021   8.455  29.979   8.086
 1408POPC   C4A20022   8.262  29.805   7.715
 1408POPC   C1B20023   8.026  30.066   8.775
 1408POPC   C2B20024   7.940  30.229   8.374
 1408POPC   C3B20025   7.937  30.093   7.972
 1408POPC   C4B20026   7.731  29.758   7.792
 1409POPC   NC320027  25.289  27.993   9.686
 1409POPC   PO420028  25.014  28.538   9.578
 1409POPC   GL120029  25.126  28.386   9.135
 1409POPC   GL220030  25.444  28.461   8.959
 1409POPC   C1A20031  25.083  28.220   8.712
 1409POPC   D2A20032  25.228  28.553   8.478
 1409POPC   C3A20033  25.073  28.593   8.086
 1409POPC   C4A20034  25.174  28.342   7.767
 1409POPC   C1B20035  25.583  28.163   8.675
 1409POPC   C2B20036  25.522  28.171   8.236
 1409POPC   C3B20037  25.663  28.373   7.875
 1409POPC   C4B20038  25.608  28.055   7.589
 1410POPC   NC320039  15.613  34.344   9.608
 1410POPC   PO420040  15.114  34.812   9.745
 1410POPC   GL120041  15.261  34.606   9.338
 1410POPC   GL220042  15.311  34.919   9.150
 1410POPC   C1A20043  15.411  34.444   8.913
 1410POPC   D2A20044  15.192  34.405   8.486
 1410POPC   C3A20045  15.400  34.567   8.123
 1410POPC   C4A20046  15.312  34.442   7.718
 1410POPC   C1B20047  14.947  35.052   8.897
 1410POPC   C2B20048  14.878  35.024   8.468
 1410POPC   C3B20049  15.067  34.979   8.081
 1410POPC   C4B20050  15.277  34.934   7.698
 1411POPC   NC320051  16.264  27.321   9.331
 1411POPC   PO420052  15.778  27.687   9.522
 1411POPC   GL120053  15.911  27.726   9.101
 1411POPC   GL220054  15.697  27.461   9.007
 1411POPC   C1A20055  16.151  27.658   8.695
 1411POPC   D2A20056  16.289  27.957   8.347
 1411POPC   C3A20057  16.168  27.816   7.928
 1411POPC   C4A20058  16.258  27.413   7.715
 1411POPC   C1B20059  15.594  27.730   8.650
 1411POPC   C2B20060  15.778  27.821   8.259
 1411POPC   C3B20061  15.714  27.587   7.874
 1411POPC   C4B20062  15.507  27.782   7.548
 1412POPC   NC320063  42.878  26.068   9.525
 1412POPC   PO420064  43.494  25.927   9.362
 1412POPC   GL120065  43.165  26.060   9.089
 1412POPC   GL220066  43.142  26.403   9.091
 1412POPC   C1A20067  43.232  25.989   8.663
 1412POPC   D2A20068  43.344  25.688   8.356
 1412POPC   C3A20069  43.203  25.930   8.036
 1412POPC   C4A20070  43.277  26.059   7.656
 1412POPC   C1B20071  42.963  26.411   8.716
 1412POPC   C2B20072  42.849  26.237   8.320
 1412POPC   C3B20073  42.873  26.328   7.866
 1412POPC   C4B20074  42.806  26.096   7.456
 1413POPC   NC320075  35.928  39.285   9.542
 1413POPC   PO420076  35.571  38.782   9.260
 1413POPC   GL120077  35.879  39.103   9.050
 1413POPC   GL220078  36.248  39.253   9.127
 1413POPC   C1A20079  36.025  39.435   8.727
 1413POPC   D2A20080  36.289  39.527   8.408
 1413POPC   C3A20081  36.117  39.417   8.033
 1413POPC   C4A20082  36.378  39.318   7.657
 1413POPC   C1B20083  36.287  38.989   8.767
 1413POPC   C2B20084  36.103  39.033   8.369
 1413POPC   C3B20085  36.309  38.944   8.008
 1413POPC   C4B20086  36.468  38.825   7.627
 1414POPC   NC320087  41.722  33.512   9.601
 1414POPC   PO420088  41.880  34.187   9.455
 1414POPC   GL120089  41.770  33.924   9.056
 1414POPC   GL220090  41.491  33.691   9.102
 1414POPC   C1A20091  41.601  33.795   8.612
 1414POPC   D2A20092  41.823  33.716   8.234
 1414POPC   C3A20093  41.768  33.916   7.875
 1414POPC   C4A20094  41.399  34.066   7.717
 1414POPC   C1B20095  41.168  33.568   8.818
 1414POPC   C2B20096  41.124  33.438   8.399
 1414POPC   C3B20097  41.316  33.670   8.063
 1414POPC   C4B20098  41.327  33.574   7.651
 1415POPC   NC320099  41.230   0.527   9.465
 1415POPC   PO420100  41.873   0.661   9.664
 1415POPC   GL120101  41.702   0.733   9.224
 1415POPC   GL220102  41.441   0.590   9.029
 1415POPC   C1A20103  41.770   0.860   8.769
 1415POPC   D2A20104  41.808   0.660   8.345
 1415POPC   C3A20105  41.547   0.569   7.994
 1415POPC   C4A20106  41.689   0.593   7.590
 1415POPC   C1B20107  41.602   0.361   8.712
 1415POPC   C2B20108  41.426   0.209   8.371
 1415POPC   C3B20109  41.474   0.075   8.005
 1415POPC   C4B20110  41.385   0.197   7.608
 1416POPC   NC320111  30.458  41.402   9.414
 1416POPC   PO420112  31.012  41.652   9.475
 1416POPC   GL120113  30.824  41.497   9.071
 1416POPC   GL220114  30.471  41.299   8.938
 1416POPC   C1A20115  30.773  41.582   8.641
 1416POPC   D2A20116  30.476  41.375   8.434
 1416POPC   C3A20117  30.606  41.475   8.068
 1416POPC   C4A20118  30.910  41.334   7.801
 1416POPC   C1B20119  30.320  41.728   8.778
 1416POPC   C2B20120  30.421  41.890   8.357
 1416POPC   C3B20121  30.260  41.867   7.942
 1416POPC   C4B20122  30.302  41.513   7.664
 1417POPC   NC320123  30.889  36.459   9.788
 1417POPC   PO420124  30.618  36.185   9.253
 1417POPC   GL120125  30.650  36.083   8.892
 1417POPC   GL220126  30.359  36.273   8.808
 1417POPC   C1A20127  30.961  36.090   8.631
 1417POPC   D2A20128  30.729  36.214   8.307
 1417POPC   C3A20129  30.766  35.918   8.034
 1417POPC   C4A20130  30.888  35.886   7.630
 1417POPC   C1B20131  30.715  36.560   8.690
 1417POPC   C2B20132  31.107  36.569   8.494
 1417POPC   C3B20133  31.162  36.353   8.096
 1417POPC   C4B20134  30.823  36.365   7.789
 1418POPC   NC320135   7.952  28.535   9.282
 1418POPC   PO420136   8.521  28.332   9.572
 1418POPC   GL120137   8.429  28.301   9.157
 1418POPC   GL220138   8.140  28.109   9.068
 1418POPC   C1A20139   8.360  28.486   8.756
 1418POPC   D2A20140   8.289  28.221   8.422
 1418POPC   C3A20141   8.290  28.422   8.051
 1418POPC   C4A20142   8.564  28.271   7.751
 1418POPC   C1B20143   7.885  28.223   8.729
 1418POPC   C2B20144   7.784  28.124   8.331
 1418POPC   C3B20145   7.845  28.216   7.880
 1418POPC   C4B20146   7.916  28.049   7.445
 1419POPC   NC320147  24.592  39.415   9.484
 1419POPC   PO420148  24.383  38.742   9.554
 1419POPC   GL120149  24.235  38.936   9.154
 1419POPC   GL220150  24.582  39.021   9.132
 1419POPC   C1A20151  24.315  38.976   8.702
 1419POPC   D2A20152  24.463  39.293   8.394
 1419POPC   C3A20153  24.498  39.156   7.962
 1419POPC   C4A20154  24.616  39.489   7.666
 1419POPC   C1B20155  24.815  39.174   8.752
 1419POPC   C2B20156  25.056  39.186   8.340
 1419POPC   C3B20157  24.995  39.154   7.873
 1419POPC   C4B20158  24.910  39.154   7.421
 1420POPC   NC320159  34.106  32.461   9.353
 1420POPC   PO420160  34.181  31.744   9.391
 1420POPC   GL120161  33.847  32.055   9.129
 1420POPC   GL220162  33.620  32.377   9.141
 1420POPC   C1A20163  33.809  32.169   8.670
 1420POPC   D2A20164  33.992  32.172   8.238
 1420POPC   C3A20165  33.703  32.066   7.916
 1420POPC   C4A20166  33.456  32.034   7.581
 1420POPC   C1B20167  33.823  32.668   8.812
 1420POPC   C2B20168  33.914  32.673   8.385
 1420POPC   C3B20169  33.766  32.574   7.990
 1420POPC   C4B20170  34.002  32.510   7.664
 1421POPC   NC320171  44.276  33.539   9.787
 1421POPC   PO420172  44.678  34.001   9.540
 1421POPC   GL120173  44.651  33.849   9.102
 1421POPC   GL220174  44.697  33.503   9.086
 1421POPC   C1A20175  44.516  33.768   8.684
 1421POPC   D2A20176  44.420  33.987   8.327
 1421POPC   C3A20177  44.312  33.684   8.054
 1421POPC   C4A20178  44.056  33.676   7.742
 1421POPC   C1B20179  44.930  33.453   8.705
 1421POPC   C2B20180  44.789  33.593   8.289
 1421POPC   C3B20181  44.782  33.909   7.959
 1421POPC   C4B20182  44.803  33.728   7.542
 1422POPC   NC320183  12.837  20.231   9.961
 1422POPC   PO420184  12.903  19.642   9.599
 1422POPC   GL120185  13.059  19.901   9.209
 1422POPC   GL220186  12.750  20.047   9.007
 1422POPC   C1A20187  13.192  20.094   8.810
 1422POPC   D2A20188  12.945  19.919   8.464
 1422POPC   C3A20189  13.148  19.923   8.083
 1422POPC   C4A20190  13.057  20.177   7.796
 1422POPC   C1B20191  12.671  19.630   8.827
 1422POPC   C2B20192  12.488  19.667   8.386
 1422POPC   C3B20193  12.633  19.923   8.042
 1422POPC   C4B20194  12.867  19.716   7.697
 1423POPC   NC320195  16.996  13.960   9.482
 1423POPC   PO420196  16.633  13.451   9.446
 1423POPC   GL120197  16.918  13.542   9.138
 1423POPC   GL220198  16.934  13.196   9.023
 1423POPC   C1A20199  16.809  13.785   8.783
 1423POPC   D2A20200  16.516  13.751   8.434
 1423POPC   C3A20201  16.757  13.630   8.072
 1423POPC   C4A20202  16.907  13.903   7.756
 1423POPC   C1B20203  16.530  13.294   8.768
 1423POPC   C2B20204  16.277  13.286   8.356
 1423POPC   C3B20205  16.422  13.279   7.915
 1423POPC   C4B20206  16.827  13.283   7.691
 1424POPC   NC320207  23.935  40.571   9.444
 1424POPC   PO420208  23.738  41.223   9.603
 1424POPC   GL120209  23.576  40.941   9.251
 1424POPC   GL220210  23.383  40.641   9.343
 1424POPC   C1A20211  23.700  40.930   8.819
 1424POPC   D2A20212  23.947  40.696   8.528
 1424POPC   C3A20213  23.789  40.768   8.124
 1424POPC   C4A20214  23.906  40.555   7.760
 1424POPC   C1B20215  23.460  40.481   8.920
 1424POPC   C2B20216  23.428  40.573   8.471
 1424POPC   C3B20217  23.422  40.421   8.032
 1424POPC   C4B20218  23.442  40.723   7.694
 1425POPC   NC320219  31.794  23.899   9.902
 1425POPC   PO420220  31.352  23.450   9.666
 1425POPC   GL120221  31.465  23.706   9.300
 1425POPC   GL220222  31.297  23.485   9.098
 1425POPC   C1A20223  31.640  23.768   8.856
 1425POPC   D2A20224  31.664  23.560   8.460
 1425POPC   C3A20225  31.543  23.845   8.103
 1425POPC   C4A20226  31.395  23.874   7.663
 1425POPC   C1B20227  31.068  23.365   8.758
 1425POPC   C2B20228  31.182  23.502   8.353
 1425POPC   C3B20229  31.361  23.409   7.936
 1425POPC   C4B20230  31.055  23.460   7.607
 1426POPC   NC320231   5.772  40.607   9.404
 1426POPC   PO420232   5.973  41.184   9.654
 1426POPC   GL120233   6.028  40.999   9.173
 1426POPC   GL220234   6.370  40.951   9.016
 1426POPC   C1A20235   5.832  40.825   8.753
 1426POPC   D2A20236   5.499  40.592   8.455
 1426POPC   C3A20237   5.599  40.581   7.991
 1426POPC   C4A20238   5.530  40.999   7.848
 1426POPC   C1B20239   6.289  40.593   8.718
 1426POPC   C2B20240   6.051  40.613   8.320
 1426POPC   C3B20241   6.048  40.810   7.924
 1426POPC   C4B20242   6.244  41.002   7.585
 1427POPC   NC320243   0.986   5.370   9.437
 1427POPC   PO420244   1.146   6.112   9.517
 1427POPC   GL120245   1.053   5.914   9.177
 1427POPC   GL220246   1.260   5.682   9.126
 1427POPC   C1A20247   0.911   5.786   8.767
 1427POPC   D2A20248   0.806   5.974   8.412
 1427POPC   C3A20249   0.963   5.791   8.020
 1427POPC   C4A20250   0.790   5.923   7.596
 1427POPC   C1B20251   1.417   5.856   8.765
 1427POPC   C2B20252   1.370   5.763   8.344
 1427POPC   C3B20253   1.444   6.028   8.004
 1427POPC   C4B20254   1.294   5.920   7.612
 1428POPC   NC320255   9.735  10.685   9.492
 1428POPC   PO420256   9.382  10.185   9.619
 1428POPC   GL120257   9.678  10.295   9.182
 1428POPC   GL220258   9.992  10.594   9.088
 1428POPC   C1A20259   9.567  10.408   8.760
 1428POPC   D2A20260   9.462  10.686   8.377
 1428POPC   C3A20261   9.591  10.644   7.945
 1428POPC   C4A20262   9.625  10.306   7.689
 1428POPC   C1B20263  10.119  10.369   8.795
 1428POPC   C2B20264   9.923  10.219   8.446
 1428POPC   C3B20265   9.992  10.369   8.061
 1428POPC   C4B20266  10.134  10.261   7.670
 1429POPC   NC320267   8.048   6.426   9.415
 1429POPC   PO420268   8.407   6.938   9.543
 1429POPC   GL120269   8.200   6.832   9.146
 1429POPC   GL220270   7.902   7.006   9.099
 1429POPC   C1A20271   8.088   6.560   8.763
 1429POPC   D2A20272   7.828   6.435   8.391
 1429POPC   C3A20273   8.076   6.496   7.998
 1429POPC   C4A20274   8.486   6.547   7.798
 1429POPC   C1B20275   8.131   7.081   8.709
 1429POPC   C2B20276   8.094   6.890   8.330
 1429POPC   C3B20277   8.193   7.010   7.909
 1429POPC   C4B20278   7.954   6.954   7.547
 1430POPC   NC320279  22.415  12.623   9.366
 1430POPC   PO420280  22.251  13.245   9.432
 1430POPC   GL120281  22.430  13.120   9.022
 1430POPC   GL220282  22.240  13.214   8.744
 1430POPC   C1A20283  22.548  12.813   8.679
 1430POPC   D2A20284  22.205  12.624   8.405
 1430POPC   C3A20285  22.292  12.664   7.958
 1430POPC   C4A20286  22.590  12.962   7.742
 1430POPC   C1B20287  21.804  13.106   8.792
 1430POPC   C2B20288  21.608  13.107   8.412
 1430POPC   C3B20289  21.843  13.105   8.010
 1430POPC   C4B20290  21.691  13.105   7.586
 1431POPC   NC320291  19.130  34.043   9.571
 1431POPC   PO420292  18.949  33.425   9.453
 1431POPC   GL120293  19.087  33.772   9.133
 1431POPC   GL220294  19.089  34.188   9.099
 1431POPC   C1A20295  18.918  33.870   8.734
 1431POPC   D2A20296  18.897  34.024   8.320
 1431POPC   C3A20297  18.870  33.662   8.063
 1431POPC   C4A20298  18.743  33.749   7.668
 1431POPC   C1B20299  19.391  34.055   8.795
 1431POPC   C2B20300  19.365  33.840   8.432
 1431POPC   C3B20301  19.324  33.895   8.024
 1431POPC   C4B20302  19.249  33.670   7.678
 1432POPC   NC320303   5.319  10.975   9.378
 1432POPC   PO420304   4.758  11.349   9.637
 1432POPC   GL120305   4.954  11.290   9.212
 1432POPC   GL220306   4.964  11.620   9.122
 1432POPC   C1A20307   5.120  11.075   8.778
 1432POPC   D2A20308   5.173  10.997   8.321
 1432POPC   C3A20309   5.431  11.110   7.964
 1432POPC   C4A20310   5.285  11.140   7.534
 1432POPC   C1B20311   5.163  11.580   8.713
 1432POPC   C2B20312   5.272  11.529   8.278
 1432POPC   C3B20313   5.022  11.413   7.926
 1432POPC   C4B20314   5.017  11.575   7.511
 1433POPC   NC320315  14.859   1.466   9.512
 1433POPC   PO420316  15.227   0.896   9.644
 1433POPC   GL120317  15.404   1.129   9.212
 1433POPC   GL220318  15.491   1.455   9.078
 1433POPC   C1A20319  15.542   1.051   8.759
 1433POPC   D2A20320  15.291   1.063   8.375
 1433POPC   C3A20321  15.324   0.844   8.022
 1433POPC   C4A20322  15.091   0.968   7.724
 1433POPC   C1B20323  15.273   1.492   8.701
 1433POPC   C2B20324  15.093   1.530   8.309
 1433POPC   C3B20325  15.308   1.389   7.956
 1433POPC   C4B20326  15.513   1.620   7.630
 1434POPC   NC320327  42.302   7.280   9.547
 1434POPC   PO420328  42.784   6.905   9.182
 1434POPC   GL120329  42.431   7.208   9.068
 1434POPC   GL220330  42.338   7.571   9.134
 1434POPC   C1A20331  42.211   7.319   8.710
 1434POPC   D2A20332  42.143   7.055   8.370
 1434POPC   C3A20333  42.149   7.253   8.010
 1434POPC   C4A20334  42.302   7.190   7.585
 1434POPC   C1B20335  42.456   7.777   8.763
 1434POPC   C2B20336  42.321   7.753   8.353
 1434POPC   C3B20337  42.421   7.653   7.896
 1434POPC   C4B20338  42.450   7.641   7.409
 1435POPC   NC320339  33.845  27.450   9.410
 1435POPC   PO420340  33.175  27.171   9.456
 1435POPC   GL120341  33.455  27.299   9.108
 1435POPC   GL220342  33.553  27.673   9.041
 1435POPC   C1A20343  33.682  27.329   8.698
 1435POPC   D2A20344  33.602  27.662   8.382
 1435POPC   C3A20345  33.607  27.492   7.939
 1435POPC   C4A20346  33.578  27.712   7.490
 1435POPC   C1B20347  33.965  27.736   8.800
 1435POPC   C2B20348  34.099  27.566   8.438
 1435POPC   C3B20349  34.021  27.734   8.072
 1435POPC   C4B20350  33.993  27.875   7.690
 1436POPC   NC320351   9.563  43.471   9.590
 1436POPC   PO420352   9.997  44.008   9.481
 1436POPC   GL120353   9.732  44.037   9.134
 1436POPC   GL220354   9.978  44.269   9.027
 1436POPC   C1A20355   9.642  43.756   8.762
 1436POPC   D2A20356   9.705  43.483   8.381
 1436POPC   C3A20357   9.568  43.672   7.994
 1436POPC   C4A20358   9.676  44.061   7.746
 1436POPC   C1B20359   9.703  44.296   8.683
 1436POPC   C2B20360   9.631  44.074   8.327
 1436POPC   C3B20361   9.295  44.138   8.108
 1436POPC   C4B20362   9.148  44.209   7.705
 1437POPC   NC320363   0.008   5.548   9.539
 1437POPC   PO420364  44.591   6.023   9.737
 1437POPC   GL120365  44.775   5.964   9.289
 1437POPC   GL220366   0.136   5.931   9.224
 1437POPC   C1A20367  44.611   5.769   8.887
 1437POPC   D2A20368  44.322   5.737   8.510
 1437POPC   C3A20369  44.489   5.661   8.075
 1437POPC   C4A20370  44.550   5.972   7.729
 1437POPC   C1B20371   0.012   6.108   8.830
 1437POPC   C2B20372  44.720   6.084   8.495
 1437POPC   C3B20373  44.864   6.008   8.113
 1437POPC   C4B20374   0.133   6.151   7.825
 1438POPC   NC320375  32.387  26.436   9.492
 1438POPC   PO420376  32.331  25.752   9.644
 1438POPC   GL120377  32.247  25.810   9.187
 1438POPC   GL220378  32.559  25.851   9.035
 1438POPC   C1A20379  32.105  25.918   8.759
 1438POPC   D2A20380  32.266  25.774   8.348
 1438POPC   C3A20381  32.167  25.927   7.922
 1438POPC   C4A20382  32.024  26.201   7.616
 1438POPC   C1B20383  32.589  26.091   8.649
 1438POPC   C2B20384  32.427  26.239   8.253
 1438POPC   C3B20385  32.483  26.341   7.834
 1438POPC   C4B20386  32.480  26.017   7.470
 1439POPC   NC320387   1.613  20.649   9.513
 1439POPC   PO420388   2.271  20.797   9.503
 1439POPC   GL120389   2.042  20.601   9.159
 1439POPC   GL220390   1.689  20.653   9.019
 1439POPC   C1A20391   2.051  20.435   8.730
 1439POPC   D2A20392   2.256  20.258   8.380
 1439POPC   C3A20393   2.029  20.426   8.041
 1439POPC   C4A20394   1.972  20.355   7.637
 1439POPC   C1B20395   1.598  20.682   8.581
 1439POPC   C2B20396   1.776  20.848   8.198
 1439POPC   C3B20397   1.690  20.803   7.747
 1439POPC   C4B20398   1.754  20.866   7.309
 1440POPC   NC320399  11.609  12.039   9.280
 1440POPC   PO420400  12.268  12.190   9.483
 1440POPC   GL120401  12.442  12.000   9.147
 1440POPC   GL220402  12.087  11.940   9.046
 1440POPC   C1A20403  12.475  11.906   8.721
 1440POPC   D2A20404  12.250  12.153   8.464
 1440POPC   C3A20405  12.361  12.046   8.088
 1440POPC   C4A20406  12.041  12.067   7.823
 1440POPC   C1B20407  11.907  11.835   8.666
 1440POPC   C2B20408  11.854  11.851   8.259
 1440POPC   C3B20409  11.589  11.767   7.951
 1440POPC   C4B20410  11.765  11.508   7.620
 1441POPC   NC320411  43.274  41.287   9.357
 1441POPC   PO420412  42.934  41.822   9.423
 1441POPC   GL120413  43.020  42.023   9.054
 1441POPC   GL220414  43.325  41.940   9.058
 1441POPC   C1A20415  42.948  41.834   8.666
 1441POPC   D2A20416  43.083  41.419   8.536
 1441POPC   C3A20417  43.057  41.382   8.110
 1441POPC   C4A20418  43.031  41.774   7.918
 1441POPC   C1B20419  43.443  41.714   8.723
 1441POPC   C2B20420  43.377  41.783   8.321
 1441POPC   C3B20421  43.508  41.572   7.993
 1441POPC   C4B20422  43.397  41.204   7.751
 1442POPC   NC320423   1.357  32.125   9.252
 1442POPC   PO420424   1.951  32.282   9.494
 1442POPC   GL120425   1.810  32.385   9.095
 1442POPC   GL220426   1.850  32.064   9.022
 1442POPC   C1A20427   1.992  32.472   8.678
 1442POPC   D2A20428   1.931  32.401   8.243
 1442POPC   C3A20429   2.187  32.530   7.903
 1442POPC   C4A20430   1.982  32.242   7.655
 1442POPC   C1B20431   1.599  32.092   8.639
 1442POPC   C2B20432   1.404  31.863   8.284
 1442POPC   C3B20433   1.494  31.970   7.841
 1442POPC   C4B20434   1.521  31.998   7.391
 1443POPC   NC320435  26.663   5.304   9.697
 1443POPC   PO420436  26.928   4.740   9.530
 1443POPC   GL120437  26.672   4.989   9.237
 1443POPC   GL220438  26.590   5.353   9.216
 1443POPC   C1A20439  26.613   4.953   8.797
 1443POPC   D2A20440  26.435   5.079   8.424
 1443POPC   C3A20441  26.706   5.059   8.099
 1443POPC   C4A20442  26.865   4.929   7.719
 1443POPC   C1B20443  26.896   5.361   8.916
 1443POPC   C2B20444  26.841   5.384   8.485
 1443POPC   C3B20445  26.766   5.580   8.092
 1443POPC   C4B20446  26.780   5.434   7.661
 1444POPC   NC320447  31.067  17.153   9.784
 1444POPC   PO420448  31.617  17.409   9.414
 1444POPC   GL120449  31.574  17.458   9.023
 1444POPC   GL220450  31.323  17.622   9.010
 1444POPC   C1A20451  31.548  17.300   8.639
 1444POPC   D2A20452  31.799  17.452   8.324
 1444POPC   C3A20453  31.561  17.548   7.966
 1444POPC   C4A20454  31.779  17.431   7.626
 1444POPC   C1B20455  31.280  17.818   8.654
 1444POPC   C2B20456  31.015  17.765   8.334
 1444POPC   C3B20457  31.179  17.911   7.981
 1444POPC   C4B20458  31.460  17.996   7.707
 1445POPC   NC320459  32.778  21.013   9.431
 1445POPC   PO420460  33.219  20.530   9.737
 1445POPC   GL120461  33.255  20.467   9.247
 1445POPC   GL220462  32.940  20.517   9.075
 1445POPC   C1A20463  33.331  20.650   8.803
 1445POPC   D2A20464  33.093  20.714   8.371
 1445POPC   C3A20465  33.310  20.746   7.917
 1445POPC   C4A20466  33.369  20.881   7.419
 1445POPC   C1B20467  32.695  20.537   8.684
 1445POPC   C2B20468  32.705  20.274   8.331
 1445POPC   C3B20469  32.839  20.472   7.985
 1445POPC   C4B20470  32.913  20.672   7.599
 1446POPC   NC320471  36.138  24.778   9.456
 1446POPC   PO420472  36.606  24.397   9.780
 1446POPC   GL120473  36.410  24.356   9.291
 1446POPC   GL220474  36.069  24.243   9.181
 1446POPC   C1A20475  36.411  24.533   8.834
 1446POPC   D2A20476  36.541  24.460   8.385
 1446POPC   C3A20477  36.331  24.515   7.984
 1446POPC   C4A20478  35.924  24.381   7.841
 1446POPC   C1B20479  35.961  24.337   8.719
 1446POPC   C2B20480  36.054  24.667   8.383
 1446POPC   C3B20481  35.963  24.881   7.986
 1446POPC   C4B20482  35.601  24.813   7.734
 1447POPC   NC320483  40.235  37.499   9.494
 1447POPC   PO420484  39.553  37.518   9.466
 1447POPC   GL120485  39.871  37.651   9.147
 1447POPC   GL220486  39.857  37.329   9.073
 1447POPC   C1A20487  40.077  37.808   8.737
 1447POPC   D2A20488  40.259  37.773   8.325
 1447POPC   C3A20489  40.193  37.600   7.913
 1447POPC   C4A20490  40.009  37.660   7.466
 1447POPC   C1B20491  39.752  37.423   8.644
 1447POPC   C2B20492  39.849  37.368   8.202
 1447POPC   C3B20493  39.849  37.264   7.746
 1447POPC   C4B20494  39.655  37.287   7.314
 1448POPC   NC320495  40.974   2.651   9.535
 1448POPC   PO420496  40.599   3.155   9.508
 1448POPC   GL120497  40.739   2.839   9.133
 1448POPC   GL220498  41.039   2.530   9.053
 1448POPC   C1A20499  40.958   2.914   8.754
 1448POPC   D2A20500  40.835   2.782   8.379
 1448POPC   C3A20501  40.636   3.011   8.055
 1448POPC   C4A20502  40.844   3.005   7.684
 1448POPC   C1B20503  40.681   2.457   8.756
 1448POPC   C2B20504  40.590   2.319   8.340
 1448POPC   C3B20505  40.762   2.490   7.988
 1448POPC   C4B20506  40.578   2.524   7.627
 1449POPC   NC320507   5.687  34.214   9.282
 1449POPC   PO420508   6.109  34.601   9.702
 1449POPC   GL120509   6.157  34.420   9.265
 1449POPC   GL220510   5.969  34.642   9.155
 1449POPC   C1A20511   6.051  34.370   8.751
 1449POPC   D2A20512   5.735  34.346   8.446
 1449POPC   C3A20513   5.897  34.345   8.044
 1449POPC   C4A20514   5.662  34.352   7.656
 1449POPC   C1B20515   5.657  34.752   8.811
 1449POPC   C2B20516   5.415  34.760   8.455
 1449POPC   C3B20517   5.495  34.655   8.077
 1449POPC   C4B20518   5.733  34.867   7.794
 1450POPC   NC320519   1.051  27.222   9.498
 1450POPC   PO420520   1.108  26.574   9.840
 1450POPC   GL120521   1.244  26.650   9.381
 1450POPC   GL220522   1.245  26.353   9.162
 1450POPC   C1A20523   1.458  26.814   8.984
 1450POPC   D2A20524   1.291  27.070   8.626
 1450POPC   C3A20525   1.289  27.033   8.157
 1450POPC   C4A20526   1.184  27.066   7.711
 1450POPC   C1B20527   1.278  26.429   8.707
 1450POPC   C2B20528   1.454  26.553   8.300
 1450POPC   C3B20529   1.284  26.528   7.880
 1450POPC   C4B20530   0.924  26.250   7.777
 1451POPC   NC320531   0.713  13.346   9.486
 1451POPC   PO420532   0.113  13.576   9.780
 1451POPC   GL120533   0.331  13.725   9.364
 1451POPC   GL220534   0.336  13.454   9.171
 1451POPC   C1A20535   0.450  13.887   8.908
 1451POPC   D2A20536   0.534  13.932   8.429
 1451POPC   C3A20537   0.360  13.725   8.025
 1451POPC   C4A20538   0.346  13.765   7.539
 1451POPC   C1B20539   0.433  13.388   8.781
 1451POPC   C2B20540   0.326  13.317   8.376
 1451POPC   C3B20541   0.544  13.244   8.005
 1451POPC   C4B20542   0.276  13.276   7.672
 1452POPC   NC320543  14.274  44.503   9.646
 1452POPC   PO420544  14.880  44.658   9.418
 1452POPC   GL120545  14.523  44.602   9.196
 1452POPC   GL220546  14.293  44.871   9.202
 1452POPC   C1A20547  14.394  44.516   8.801
 1452POPC   D2A20548  14.708  44.429   8.488
 1452POPC   C3A20549  14.662  44.228   8.080
 1452POPC   C4A20550  14.698  44.387   7.657
 1452POPC   C1B20551  14.155  44.972   8.762
 1452POPC   C2B20552  14.228  44.764   8.382
 1452POPC   C3B20553  14.497  44.717   8.055
 1452POPC   C4B20554  14.243  44.604   7.763
 1453POPC   NC320555  10.361  20.655   9.494
 1453POPC   PO420556  10.973  21.006   9.600
 1453POPC   GL120557  10.654  20.964   9.225
 1453POPC   GL220558  10.826  20.800   9.014
 1453POPC   C1A20559  10.341  20.752   8.832
 1453POPC   D2A20560  10.143  20.717   8.381
 1453POPC   C3A20561  10.258  20.464   8.047
 1453POPC   C4A20562  10.333  20.679   7.698
 1453POPC   C1B20563  10.822  20.719   8.580
 1453POPC   C2B20564  10.902  20.806   8.137
 1453POPC   C3B20565  10.770  20.489   7.857
 1453POPC   C4B20566  10.761  20.451   7.419
 1454POPC   NC320567  28.147  41.213   9.374
 1454POPC   PO420568  27.465  41.302   9.490
 1454POPC   GL120569  27.645  41.429   9.111
 1454POPC   GL220570  27.316  41.548   9.040
 1454POPC   C1A20571  27.726  41.443   8.654
 1454POPC   D2A20572  27.770  41.302   8.226
 1454POPC   C3A20573  27.648  41.596   7.869
 1454POPC   C4A20574  27.859  41.718   7.477
 1454POPC   C1B20575  27.233  41.288   8.688
 1454POPC   C2B20576  27.274  41.415   8.262
 1454POPC   C3B20577  27.337  41.200   7.863
 1454POPC   C4B20578  27.247  41.136   7.403
 1455POPC   NC320579  37.587  44.591   9.461
 1455POPC   PO420580  37.984  44.185   9.812
 1455POPC   GL120581  38.028  44.426   9.318
 1455POPC   GL220582  37.772  44.362   9.024
 1455POPC   C1A20583  37.901  44.834   8.969
 1455POPC   D2A20584  37.598  44.900   8.624
 1455POPC   C3A20585  37.673  44.819   8.188
 1455POPC   C4A20586  37.886  44.899   7.810
 1455POPC   C1B20587  37.396  44.442   8.799
 1455POPC   C2B20588  37.333  44.319   8.400
 1455POPC   C3B20589  37.584  44.315   8.078
 1455POPC   C4B20590  37.538  44.529   7.711
 1456POPC   NC320591  18.544  23.390   9.617
 1456POPC   PO420592  18.005  23.940   9.450
 1456POPC   GL120593  18.246  23.672   9.187
 1456POPC   GL220594  18.559  23.785   9.086
 1456POPC   C1A20595  18.241  23.484   8.760
 1456POPC   D2A20596  18.040  23.614   8.379
 1456POPC   C3A20597  18.122  23.435   7.997
 1456POPC   C4A20598  18.366  23.652   7.692
 1456POPC   C1B20599  18.685  23.722   8.640
 1456POPC   C2B20600  18.560  23.700   8.200
 1456POPC   C3B20601  18.639  24.015   7.881
 1456POPC   C4B20602  18.571  24.104   7.402
 1457POPC   NC320603  43.468   7.813   9.424
 1457POPC   PO420604  42.982   8.467   9.414
 1457POPC   GL120605  43.111   8.372   9.088
 1457POPC   GL220606  43.159   8.041   9.107
 1457POPC   C1A20607  43.104   8.373   8.685
 1457POPC   D2A20608  43.185   8.245   8.319
 1457POPC   C3A20609  42.900   8.340   8.004
 1457POPC   C4A20610  43.115   8.277   7.639
 1457POPC   C1B20611  42.993   7.858   8.740
 1457POPC   C2B20612  43.233   7.745   8.394
 1457POPC   C3B20613  43.266   7.876   7.973
 1457POPC   C4B20614  43.414   7.871   7.573
 1458POPC   NC320615   0.872  31.793   9.735
 1458POPC   PO420616   0.993  32.399   9.420
 1458POPC   GL120617   1.043  32.508   9.053
 1458POPC   GL220618   1.346  32.617   9.082
 1458POPC   C1A20619   1.078  32.305   8.684
 1458POPC   D2A20620   0.769  32.158   8.445
 1458POPC   C3A20621   0.986  32.108   8.066
 1458POPC   C4A20622   1.027  32.223   7.654
 1458POPC   C1B20623   1.212  32.802   8.687
 1458POPC   C2B20624   1.109  32.625   8.264
 1458POPC   C3B20625   1.362  32.495   7.898
 1458POPC   C4B20626   1.360  32.475   7.398
 1459POPC   NC320627   5.838  34.970   9.594
 1459POPC   PO420628   6.080  35.548   9.383
 1459POPC   GL120629   5.762  35.433   9.127
 1459POPC   GL220630   5.895  35.124   9.083
 1459POPC   C1A20631   5.634  35.285   8.704
 1459POPC   D2A20632   5.846  35.102   8.391
 1459POPC   C3A20633   5.690  35.294   8.078
 1459POPC   C4A20634   5.830  35.395   7.696
 1459POPC   C1B20635   6.155  34.883   8.743
 1459POPC   C2B20636   6.172  34.712   8.292
 1459POPC   C3B20637   6.172  35.046   7.940
 1459POPC   C4B20638   6.134  35.075   7.460
 1460POPC   NC320639  25.365  27.842   9.213
 1460POPC   PO420640  24.949  27.479   9.632
 1460POPC   GL120641  25.128  27.387   9.159
 1460POPC   GL220642  25.069  27.617   8.865
 1460POPC   C1A20643  25.496  27.359   8.800
 1460POPC   D2A20644  25.571  27.662   8.429
 1460POPC   C3A20645  25.517  27.463   7.995
 1460POPC   C4A20646  25.451  27.550   7.519
 1460POPC   C1B20647  24.801  27.800   8.546
 1460POPC   C2B20648  25.011  28.017   8.221
 1460POPC   C3B20649  25.211  27.847   7.861
 1460POPC   C4B20650  25.146  27.982   7.408
 1461POPC   NC320651  16.910  23.370   9.570
 1461POPC   PO420652  16.440  23.831   9.313
 1461POPC   GL120653  16.486  23.599   8.996
 1461POPC   GL220654  16.806  23.553   9.113
 1461POPC   C1A20655  16.591  23.427   8.656
 1461POPC   D2A20656  16.649  23.617   8.325
 1461POPC   C3A20657  16.643  23.337   8.054
 1461POPC   C4A20658  16.600  23.614   7.760
 1461POPC   C1B20659  16.955  23.794   8.759
 1461POPC   C2B20660  17.093  23.868   8.327
 1461POPC   C3B20661  17.087  23.609   7.960
 1461POPC   C4B20662  17.052  23.664   7.503
 1462POPC   NC320663  29.308  31.330   9.566
 1462POPC   PO420664  28.891  31.896   9.525
 1462POPC   GL120665  28.999  31.589   9.247
 1462POPC   GL220666  29.315  31.642   9.169
 1462POPC   C1A20667  28.979  31.565   8.794
 1462POPC   D2A20668  29.095  31.252   8.527
 1462POPC   C3A20669  29.101  31.333   8.113
 1462POPC   C4A20670  28.946  31.652   7.884
 1462POPC   C1B20671  29.500  31.508   8.775
 1462POPC   C2B20672  29.587  31.330   8.392
 1462POPC   C3B20673  29.590  31.295   7.945
 1462POPC   C4B20674  29.406  31.560   7.675
 1463POPC   NC320675  23.236  19.658   9.612
 1463POPC   PO420676  23.879  19.714   9.501
 1463POPC   GL120677  23.565  19.845   9.254
 1463POPC   GL220678  23.809  19.858   9.012
 1463POPC   C1A20679  23.359  20.044   8.923
 1463POPC   D2A20680  23.536  20.181   8.532
 1463POPC   C3A20681  23.397  19.907   8.174
 1463POPC   C4A20682  23.429  19.982   7.743
 1463POPC   C1B20683  23.615  19.688   8.661
 1463POPC   C2B20684  23.862  19.816   8.354
 1463POPC   C3B20685  23.912  19.699   7.962
 1463POPC   C4B20686  23.560  19.490   7.838
 1464POPC   NC320687  15.066  43.481   9.577
 1464POPC   PO420688  15.375  42.902   9.610
 1464POPC   GL120689  15.252  42.910   9.185
 1464POPC   GL220690  14.936  43.076   9.254
 1464POPC   C1A20691  15.294  43.034   8.721
 1464POPC   D2A20692  15.477  42.880   8.315
 1464POPC   C3A20693  15.328  43.041   7.915
 1464POPC   C4A20694  15.213  42.760   7.578
 1464POPC   C1B20695  14.849  42.840   8.879
 1464POPC   C2B20696  14.943  42.834   8.403
 1464POPC   C3B20697  14.836  42.905   7.941
 1464POPC   C4B20698  14.443  42.840   7.722
 1465POPC   NC320699  14.200  13.450   9.450
 1465POPC   PO420700  14.313  14.063   9.667
 1465POPC   GL120701  14.400  13.895   9.252
 1465POPC   GL220702  14.669  13.627   9.292
 1465POPC   C1A20703  14.338  13.679   8.847
 1465POPC   D2A20704  14.034  13.654   8.497
 1465POPC   C3A20705  14.149  13.444   8.099
 1465POPC   C4A20706  14.155  13.655   7.684
 1465POPC   C1B20707  14.837  13.526   8.895
 1465POPC   C2B20708  14.703  13.510   8.485
 1465POPC   C3B20709  14.689  13.354   8.099
 1465POPC   C4B20710  14.736  13.605   7.740
 1466POPC   NC320711  23.381  38.104   9.589
 1466POPC   PO420712  23.135  37.508   9.413
 1466POPC   GL120713  22.986  37.664   9.017
 1466POPC   GL220714  23.171  37.981   9.100
 1466POPC   C1A20715  22.759  37.685   8.580
 1466POPC   D2A20716  22.808  37.530   8.131
 1466POPC   C3A20717  23.192  37.552   8.006
 1466POPC   C4A20718  23.252  37.764   7.663
 1466POPC   C1B20719  23.145  38.049   8.660
 1466POPC   C2B20720  23.000  38.002   8.219
 1466POPC   C3B20721  22.870  38.075   7.790
 1466POPC   C4B20722  23.136  38.184   7.416
 1467POPC   NC320723  15.260  44.369   9.375
 1467POPC   PO420724  15.196   0.073   9.515
 1467POPC   GL120725  15.279  44.807   9.107
 1467POPC   GL220726  15.021  44.563   8.942
 1467POPC   C1A20727  15.344  44.889   8.672
 1467POPC   D2A20728  15.504  44.929   8.248
 1467POPC   C3A20729  15.196  44.844   7.928
 1467POPC   C4A20730  15.119   0.022   7.528
 1467POPC   C1B20731  15.406  44.393   8.724
 1467POPC   C2B20732  15.521  44.407   8.267
 1467POPC   C3B20733  15.259  44.324   7.912
 1467POPC   C4B20734  15.184  44.504   7.520
 1468POPC   NC320735   3.536   5.612   9.419
 1468POPC   PO420736   3.579   6.302   9.474
 1468POPC   GL120737   3.580   6.035   9.131
 1468POPC   GL220738   3.209   5.954   9.172
 1468POPC   C1A20739   3.762   5.743   8.791
 1468POPC   D2A20740   3.680   5.598   8.353
 1468POPC   C3A20741   3.733   5.955   8.067
 1468POPC   C4A20742   3.555   6.043   7.663
 1468POPC   C1B20743   3.274   6.033   8.725
 1468POPC   C2B20744   3.187   5.815   8.341
 1468POPC   C3B20745   3.322   5.681   7.941
 1468POPC   C4B20746   3.261   5.676   7.440
 1469POPC   NC320747  44.143  12.580   9.515
 1469POPC   PO420748  43.908  11.950   9.510
 1469POPC   GL120749  43.736  12.035   9.114
 1469POPC   GL220750  43.908  12.339   9.123
 1469POPC   C1A20751  43.698  11.828   8.747
 1469POPC   D2A20752  43.835  11.761   8.362
 1469POPC   C3A20753  43.638  12.001   8.028
 1469POPC   C4A20754  43.697  12.096   7.581
 1469POPC   C1B20755  44.173  12.048   8.853
 1469POPC   C2B20756  44.317  11.944   8.444
 1469POPC   C3B20757  44.154  12.023   8.034
 1469POPC   C4B20758  44.101  11.807   7.652
 1470POPC   NC320759  16.397  34.777   9.433
 1470POPC   PO420760  16.884  34.334   9.535
 1470POPC   GL120761  16.627  34.408   9.158
 1470POPC   GL220762  16.692  34.729   9.025
 1470POPC   C1A20763  16.485  34.285   8.740
 1470POPC   D2A20764  16.532  34.403   8.289
 1470POPC   C3A20765  16.371  34.311   7.895
 1470POPC   C4A20766  16.803  34.177   7.768
 1470POPC   C1B20767  16.548  34.785   8.614
 1470POPC   C2B20768  16.689  34.917   8.209
 1470POPC   C3B20769  16.704  34.690   7.842
 1470POPC   C4B20770  16.495  34.830   7.436
 1471POPC   NC320771  36.929  36.004   9.432
 1471POPC   PO420772  36.704  36.621   9.569
 1471POPC   GL120773  36.655  36.372   9.176
 1471POPC   GL220774  36.969  36.282   8.999
 1471POPC   C1A20775  36.520  36.284   8.752
 1471POPC   D2A20776  36.681  35.936   8.554
 1471POPC   C3A20777  36.835  36.085   8.193
 1471POPC   C4A20778  36.582  35.951   7.854
 1471POPC   C1B20779  37.110  35.851   8.819
 1471POPC   C2B20780  37.264  35.715   8.402
 1471POPC   C3B20781  37.129  35.732   7.958
 1471POPC   C4B20782  37.064  36.097   7.729
 1472POPC   NC320783  16.633  26.577   9.545
 1472POPC   PO420784  17.149  26.973   9.491
 1472POPC   GL120785  16.947  26.740   9.177
 1472POPC   GL220786  16.669  26.995   9.167
 1472POPC   C1A20787  16.679  26.644   8.794
 1472POPC   D2A20788  16.416  26.759   8.414
 1472POPC   C3A20789  16.497  26.546   8.023
 1472POPC   C4A20790  16.628  26.586   7.562
 1472POPC   C1B20791  16.666  27.175   8.729
 1472POPC   C2B20792  16.623  27.234   8.269
 1472POPC   C3B20793  16.623  27.067   7.824
 1472POPC   C4B20794  16.493  27.018   7.358
 1473POPC   NC320795  21.276  19.902   9.644
 1473POPC   PO420796  21.499  19.504   9.202
 1473POPC   GL120797  21.381  19.861   9.036
 1473POPC   GL220798  21.087  20.008   9.178
 1473POPC   C1A20799  21.417  19.789   8.602
 1473POPC   D2A20800  21.427  19.412   8.316
 1473POPC   C3A20801  21.387  19.533   7.899
 1473POPC   C4A20802  21.663  19.835   7.719
 1473POPC   C1B20803  21.117  20.223   8.780
 1473POPC   C2B20804  20.906  20.271   8.431
 1473POPC   C3B20805  21.054  20.264   8.052
 1473POPC   C4B20806  21.202  20.011   7.807
 1474POPC   NC320807  12.971  23.593   9.499
 1474POPC   PO420808  12.257  23.799   9.499
 1474POPC   GL120809  12.623  23.719   9.163
 1474POPC   GL220810  12.908  23.937   9.131
 1474POPC   C1A20811  12.940  23.537   8.829
 1474POPC   D2A20812  13.141  23.610   8.430
 1474POPC   C3A20813  12.932  23.587   8.000
 1474POPC   C4A20814  12.946  23.525   7.500
 1474POPC   C1B20815  12.744  24.001   8.733
 1474POPC   C2B20816  12.712  23.921   8.328
 1474POPC   C3B20817  12.500  23.967   7.971
 1474POPC   C4B20818  12.777  23.969   7.658
 1475POPC   NC320819  34.115  39.979   9.768
 1475POPC   PO420820  33.688  40.119   9.300
 1475POPC   GL120821  33.823  39.973   8.970
 1475POPC   GL220822  33.820  39.650   9.096
 1475POPC   C1A20823  33.857  40.106   8.569
 1475POPC   D2A20824  33.928  40.456   8.316
 1475POPC   C3A20825  33.659  40.378   8.006
 1475POPC   C4A20826  33.869  40.343   7.656
 1475POPC   C1B20827  33.573  39.604   8.736
 1475POPC   C2B20828  33.584  39.750   8.336
 1475POPC   C3B20829  33.862  39.906   8.049
 1475POPC   C4B20830  33.952  39.729   7.682
 1476POPC   NC320831  34.320  22.778   9.557
 1476POPC   PO420832  34.728  23.192   9.626
 1476POPC   GL120833  34.755  22.979   9.214
 1476POPC   GL220834  34.611  22.673   9.162
 1476POPC   C1A20835  34.668  22.985   8.764
 1476POPC   D2A20836  34.494  23.133   8.412
 1476POPC   C3A20837  34.733  23.106   8.062
 1476POPC   C4A20838  34.613  23.116   7.657
 1476POPC   C1B20839  34.272  22.643   8.841
 1476POPC   C2B20840  34.129  22.761   8.430
 1476POPC   C3B20841  34.243  22.928   8.011
 1476POPC   C4B20842  34.329  22.721   7.616
 1477POPC   NC320843  42.249  40.900   9.427
 1477POPC   PO420844  42.717  40.364   9.528
 1477POPC   GL120845  42.517  40.573   9.111
 1477POPC   GL220846  42.525  40.954   9.013
 1477POPC   C1A20847  42.133  40.599   8.793
 1477POPC   D2A20848  41.992  40.532   8.334
 1477POPC   C3A20849  42.380  40.465   8.045
 1477POPC   C4A20850  42.509  40.642   7.633
 1477POPC   C1B20851  42.238  41.111   8.695
 1477POPC   C2B20852  42.237  40.966   8.259
 1477POPC   C3B20853  42.247  41.109   7.858
 1477POPC   C4B20854  42.562  41.174   7.588
 1478POPC   NC320855  12.530  43.689   9.343
 1478POPC   PO420856  13.136  44.060   9.476
 1478POPC   GL120857  13.146  44.006   9.069
 1478POPC   GL220858  12.960  43.729   9.071
 1478POPC   C1A20859  12.914  44.029   8.665
 1478POPC   D2A20860  12.926  43.770   8.303
 1478POPC   C3A20861  13.042  44.004   7.953
 1478POPC   C4A20862  12.629  44.084   7.806
 1478POPC   C1B20863  12.759  43.526   8.742
 1478POPC   C2B20864  12.512  43.472   8.384
 1478POPC   C3B20865  12.550  43.605   7.980
 1478POPC   C4B20866  12.877  43.597   7.715
 1479POPC   NC320867  18.733  26.027   9.464
 1479POPC   PO420868  19.451  25.921   9.422
 1479POPC   GL120869  19.142  26.090   9.135
 1479POPC   GL220870  18.923  25.811   9.014
 1479POPC   C1A20871  19.066  26.186   8.700
 1479POPC   D2A20872  19.090  25.978   8.303
 1479POPC   C3A20873  18.907  26.168   7.955
 1479POPC   C4A20874  19.123  26.098   7.573
 1479POPC   C1B20875  18.688  25.834   8.599
 1479POPC   C2B20876  18.697  25.672   8.139
 1479POPC   C3B20877  18.758  25.749   7.678
 1479POPC   C4B20878  18.601  25.882   7.217
 1480POPC   NC320879  22.923  25.446   9.497
 1480POPC   PO420880  22.928  24.840   9.731
 1480POPC   GL120881  22.884  24.968   9.234
 1480POPC   GL220882  22.865  25.274   9.026
 1480POPC   C1A20883  23.109  24.922   8.787
 1480POPC   D2A20884  22.863  25.136   8.479
 1480POPC   C3A20885  22.943  25.150   8.036
 1480POPC   C4A20886  22.650  25.399   7.776
 1480POPC   C1B20887  23.190  25.464   8.729
 1480POPC   C2B20888  23.290  25.706   8.353
 1480POPC   C3B20889  23.206  25.595   7.924
 1480POPC   C4B20890  23.025  25.675   7.544
 1481POPC   NC320891  31.841   2.923   9.821
 1481POPC   PO420892  32.391   3.046   9.452
 1481POPC   GL120893  32.521   2.966   9.039
 1481POPC   GL220894  32.201   2.821   8.936
 1481POPC   C1A20895  32.534   2.895   8.563
 1481POPC   D2A20896  32.123   2.757   8.377
 1481POPC   C3A20897  32.100   2.503   7.985
 1481POPC   C4A20898  32.419   2.261   7.718
 1481POPC   C1B20899  32.135   3.205   8.674
 1481POPC   C2B20900  32.269   3.276   8.288
 1481POPC   C3B20901  32.382   2.969   8.011
 1481POPC   C4B20902  32.178   2.858   7.638
 1482POPC   NC320903  21.085   6.734   9.325
 1482POPC   PO420904  20.459   6.401   9.404
 1482POPC   GL120905  20.675   6.519   9.047
 1482POPC   GL220906  20.704   6.867   8.984
 1482POPC   C1A20907  20.574   6.533   8.591
 1482POPC   D2A20908  20.206   6.489   8.353
 1482POPC   C3A20909  20.218   6.610   7.904
 1482POPC   C4A20910  20.536   6.737   7.620
 1482POPC   C1B20911  20.369   6.981   8.689
 1482POPC   C2B20912  20.405   6.949   8.246
 1482POPC   C3B20913  20.341   7.132   7.847
 1482POPC   C4B20914  20.256   7.081   7.360
 1483POPC   NC320915   2.109  16.180   9.371
 1483POPC   PO420916   2.091  15.542   9.425
 1483POPC   GL120917   1.937  15.767   9.083
 1483POPC   GL220918   1.670  15.999   9.141
 1483POPC   C1A20919   2.007  15.822   8.649
 1483POPC   D2A20920   2.211  16.079   8.358
 1483POPC   C3A20921   2.152  15.969   7.941
 1483POPC   C4A20922   2.137  16.073   7.490
 1483POPC   C1B20923   1.592  16.096   8.701
 1483POPC   C2B20924   1.714  16.014   8.240
 1483POPC   C3B20925   1.681  16.024   7.767
 1483POPC   C4B20926   1.643  16.157   7.310
 1484POPC   NC320927   1.337  30.259   9.473
 1484POPC   PO420928   0.882  30.762   9.391
 1484POPC   GL120929   1.033  30.438   9.070
 1484POPC   GL220930   1.431  30.382   8.999
 1484POPC   C1A20931   1.059  30.486   8.609
 1484POPC   D2A20932   1.058  30.795   8.247
 1484POPC   C3A20933   0.885  30.631   7.829
 1484POPC   C4A20934   0.887  30.794   7.381
 1484POPC   C1B20935   1.498  30.725   8.743
 1484POPC   C2B20936   1.517  30.601   8.337
 1484POPC   C3B20937   1.402  30.617   7.916
 1484POPC   C4B20938   1.326  30.594   7.504
 1485POPC   NC320939  24.931   9.434   9.294
 1485POPC   PO420940  25.344  10.001   9.508
 1485POPC   GL120941  25.370   9.815   9.112
 1485POPC   GL220942  25.016   9.873   9.060
 1485POPC   C1A20943  25.258   9.579   8.730
 1485POPC   D2A20944  25.069   9.540   8.366
 1485POPC   C3A20945  25.228   9.828   8.091
 1485POPC   C4A20946  25.429   9.701   7.747
 1485POPC   C1B20947  25.075  10.061   8.647
 1485POPC   C2B20948  24.849  10.180   8.279
 1485POPC   C3B20949  24.896  10.164   7.837
 1485POPC   C4B20950  24.958   9.805   7.574
 1486POPC   NC320951  39.762   4.823   9.490
 1486POPC   PO420952  40.306   5.221   9.581
 1486POPC   GL120953  39.940   5.275   9.308
 1486POPC   GL220954  40.179   5.153   9.101
 1486POPC   C1A20955  39.748   5.239   8.873
 1486POPC   D2A20956  40.045   5.211   8.522
 1486POPC   C3A20957  39.905   5.058   8.110
 1486POPC   C4A20958  39.900   5.263   7.739
 1486POPC   C1B20959  40.514   5.252   8.875
 1486POPC   C2B20960  40.582   5.310   8.461
 1486POPC   C3B20961  40.403   5.137   8.135
 1486POPC   C4B20962  40.387   5.281   7.777
 1487POPC   NC320963  21.856  19.236   9.344
 1487POPC   PO420964  22.473  19.555   9.421
 1487POPC   GL120965  22.375  19.201   9.128
 1487POPC   GL220966  22.197  18.868   9.217
 1487POPC   C1A20967  22.303  19.177   8.674
 1487POPC   D2A20968  22.104  19.274   8.276
 1487POPC   C3A20969  22.262  19.134   7.850
 1487POPC   C4A20970  22.387  19.226   7.401
 1487POPC   C1B20971  22.016  18.750   8.800
 1487POPC   C2B20972  22.179  18.758   8.368
 1487POPC   C3B20973  22.012  18.673   7.948
 1487POPC   C4B20974  22.039  18.785   7.525
 1488POPC   NC320975   8.075   7.267   9.511
 1488POPC   PO420976   8.431   7.774   9.405
 1488POPC   GL120977   8.146   7.621   9.101
 1488POPC   GL220978   7.787   7.641   9.183
 1488POPC   C1A20979   8.165   7.593   8.664
 1488POPC   D2A20980   8.134   7.403   8.270
 1488POPC   C3A20981   8.165   7.644   7.907
 1488POPC   C4A20982   8.152   7.424   7.511
 1488POPC   C1B20983   7.731   7.382   8.803
 1488POPC   C2B20984   7.685   7.214   8.369
 1488POPC   C3B20985   7.753   7.321   7.896
 1488POPC   C4B20986   7.746   7.695   7.602
 1489POPC   NC320987  40.090  18.087   9.435
 1489POPC   PO420988  40.665  18.204   9.372
 1489POPC   GL120989  40.264  18.331   9.046
 1489POPC   GL220990  39.828  18.330   9.095
 1489POPC   C1A20991  40.063  18.363   8.652
 1489POPC   D2A20992  40.155  18.411   8.258
 1489POPC   C3A20993  40.195  18.047   8.031
 1489POPC   C4A20994  40.259  18.335   7.736
 1489POPC   C1B20995  39.792  17.940   8.831
 1489POPC   C2B20996  39.850  17.925   8.389
 1489POPC   C3B20997  39.712  18.216   8.035
 1489POPC   C4B20998  39.771  18.393   7.630
 1490POPC   NC320999  16.443   0.341   9.893
 1490POPC   PO421000  16.949   0.571   9.537
 1490POPC   GL121001  16.810   0.456   9.162
 1490POPC   GL221002  16.465   0.411   9.147
 1490POPC   C1A21003  16.781   0.276   8.767
 1490POPC   D2A21004  16.732   0.473   8.411
 1490POPC   C3A21005  16.793   0.296   8.046
 1490POPC   C4A21006  16.506   0.436   7.754
 1490POPC   C1B21007  16.370   0.650   8.741
 1490POPC   C2B21008  16.271   0.696   8.261
 1490POPC   C3B21009  16.283   0.890   7.809
 1490POPC   C4B21010  16.381   0.787   7.337
 1491POPC   NC321011  33.907  34.210   9.395
 1491POPC   PO421012  33.475  34.718   9.642
 1491POPC   GL121013  33.466  34.420   9.235
 1491POPC   GL221014  33.764  34.502   9.009
 1491POPC   C1A21015  33.337  34.340   8.770
 1491POPC   D2A21016  33.234  34.354   8.328
 1491POPC   C3A21017  33.546  34.556   8.142
 1491POPC   C4A21018  33.646  34.469   7.769
 1491POPC   C1B21019  34.072  34.724   8.766
 1491POPC   C2B21020  34.246  34.590   8.444
 1491POPC   C3B21021  34.089  34.545   8.047
 1491POPC   C4B21022  34.118  34.284   7.717
 1492POPC   NC321023  24.977  34.080   9.513
 1492POPC   PO421024  25.235  34.693   9.611
 1492POPC   GL121025  25.316  34.412   9.272
 1492POPC   GL221026  24.980  34.430   9.150
 1492POPC   C1A21027  25.419  34.433   8.834
 1492POPC   D2A21028  25.411  34.732   8.480
 1492POPC   C3A21029  25.519  34.609   8.036
 1492POPC   C4A21030  25.525  34.361   7.611
 1492POPC   C1B21031  24.970  34.675   8.798
 1492POPC   C2B21032  24.888  34.700   8.391
 1492POPC   C3B21033  24.915  34.511   8.018
 1492POPC   C4B21034  25.111  34.670   7.667
 1493POPC   NC321035  13.092  31.895   9.369
 1493POPC   PO421036  12.896  32.526   9.197
 1493POPC   GL121037  12.852  32.180   8.977
 1493POPC   GL221038  13.157  32.115   8.916
 1493POPC   C1A21039  12.868  32.250   8.528
 1493POPC   D2A21040  13.046  32.571   8.287
 1493POPC   C3A21041  12.852  32.392   7.937
 1493POPC   C4A21042  12.626  32.531   7.594
 1493POPC   C1B21043  13.241  31.903   8.505
 1493POPC   C2B21044  13.300  32.137   8.119
 1493POPC   C3B21045  13.264  32.250   7.672
 1493POPC   C4B21046  13.069  32.370   7.287
 1494POPC   NC321047  37.880  21.030   9.508
 1494POPC   PO421048  37.798  21.743   9.579
 1494POPC   GL121049  37.754  21.596   9.164
 1494POPC   GL221050  37.669  21.230   9.088
 1494POPC   C1A21051  37.821  21.608   8.725
 1494POPC   D2A21052  37.692  21.410   8.357
 1494POPC   C3A21053  37.910  21.541   8.000
 1494POPC   C4A21054  37.681  21.503   7.643
 1494POPC   C1B21055  37.912  21.091   8.729
 1494POPC   C2B21056  37.963  20.946   8.312
 1494POPC   C3B21057  37.699  21.057   7.926
 1494POPC   C4B21058  37.869  21.072   7.494
 1495POPC   NC321059   4.772  30.353   9.590
 1495POPC   PO421060   4.380  29.782   9.517
 1495POPC   GL121061   4.228  29.780   9.122
 1495POPC   GL221062   4.403  29.471   9.080
 1495POPC   C1A21063   4.264  29.919   8.696
 1495POPC   D2A21064   4.518  30.005   8.317
 1495POPC   C3A21065   4.335  30.091   7.921
 1495POPC   C4A21066   3.954  29.991   7.705
 1495POPC   C1B21067   4.094  29.426   8.758
 1495POPC   C2B21068   4.022  29.599   8.336
 1495POPC   C3B21069   4.323  29.593   8.005
 1495POPC   C4B21070   4.382  29.702   7.568
 1496POPC   NC321071  20.460  19.330   9.630
 1496POPC   PO421072  20.849  18.784   9.446
 1496POPC   GL121073  20.708  19.108   9.196
 1496POPC   GL221074  20.388  19.035   9.152
 1496POPC   C1A21075  20.634  19.324   8.795
 1496POPC   D2A21076  20.682  19.408   8.370
 1496POPC   C3A21077  20.420  19.258   8.039
 1496POPC   C4A21078  20.574  19.249   7.641
 1496POPC   C1B21079  20.603  18.828   8.769
 1496POPC   C2B21080  20.543  18.851   8.313
 1496POPC   C3B21081  20.788  18.865   7.913
 1496POPC   C4B21082  20.735  18.816   7.431
 1497POPC   NC321083  20.304  38.330   9.459
 1497POPC   PO421084  20.965  38.358   9.490
 1497POPC   GL121085  20.709  38.198   9.167
 1497POPC   GL221086  20.600  38.560   9.117
 1497POPC   C1A21087  20.703  38.269   8.725
 1497POPC   D2A21088  20.496  38.328   8.371
 1497POPC   C3A21089  20.715  38.418   8.028
 1497POPC   C4A21090  20.734  38.059   7.776
 1497POPC   C1B21091  20.257  38.520   8.784
 1497POPC   C2B21092  20.044  38.572   8.381
 1497POPC   C3B21093  20.189  38.493   7.987
 1497POPC   C4B21094  20.428  38.456   7.612
 1498POPC   NC321095  15.778   5.067   9.614
 1498POPC   PO421096  16.226   5.508   9.584
 1498POPC   GL121097  16.033   5.487   9.167
 1498POPC   GL221098  15.922   5.144   9.086
 1498POPC   C1A21099  16.089   5.429   8.701
 1498POPC   D2A21100  16.045   5.084   8.411
 1498POPC   C3A21101  16.050   5.214   8.007
 1498POPC   C4A21102  16.042   5.244   7.594
 1498POPC   C1B21103  15.626   5.194   8.696
 1498POPC   C2B21104  15.542   5.043   8.239
 1498POPC   C3B21105  15.632   4.990   7.777
 1498POPC   C4B21106  15.984   4.752   7.571
 1499POPC   NC321107  27.912  24.037   9.580
 1499POPC   PO421108  27.385  23.581   9.519
 1499POPC   GL121109  27.507  23.608   9.102
 1499POPC   GL221110  27.621  23.929   9.154
 1499POPC   C1A21111  27.588  23.433   8.676
 1499POPC   D2A21112  27.745  23.188   8.307
 1499POPC   C3A21113  27.782  23.440   7.933
 1499POPC   C4A21114  27.516  23.698   7.687
 1499POPC   C1B21115  27.855  24.022   8.799
 1499POPC   C2B21116  27.823  23.872   8.388
 1499POPC   C3B21117  27.711  24.069   8.018
 1499POPC   C4B21118  27.909  24.060   7.652
 1500POPC   NC321119  39.106   4.283   9.485
 1500POPC   PO421120  39.728   4.387   9.324
 1500POPC   GL121121  39.320   4.410   9.043
 1500POPC   GL221122  38.930   4.276   9.013
 1500POPC   C1A21123  39.243   4.397   8.604
 1500POPC   D2A21124  39.189   4.210   8.218
 1500POPC   C3A21125  39.385   4.481   7.916
 1500POPC   C4A21126  39.688   4.745   7.712
 1500POPC   C1B21127  38.813   4.627   8.729
 1500POPC   C2B21128  38.946   4.707   8.275
 1500POPC   C3B21129  38.865   4.444   7.869
 1500POPC   C4B21130  38.768   4.592   7.437
 1501POPC   NC321131  22.035   8.641   9.568
 1501POPC   PO421132  22.255   8.013   9.639
 1501POPC   GL121133  22.109   8.219   9.267
 1501POPC   GL221134  22.360   8.460   9.220
 1501POPC   C1A21135  21.909   8.201   8.857
 1501POPC   D2A21136  22.036   8.321   8.441
 1501POPC   C3A21137  22.063   8.028   8.060
 1501POPC   C4A21138  22.243   7.869   7.655
 1501POPC   C1B21139  22.472   8.608   8.811
 1501POPC   C2B21140  22.383   8.691   8.371
 1501POPC   C3B21141  22.165   8.544   7.998
 1501POPC   C4B21142  22.399   8.331   7.752
 1502POPC   NC321143  41.490  16.388   9.767
 1502POPC   PO421144  41.864  15.791   9.509
 1502POPC   GL121145  41.569  15.900   9.110
 1502POPC   GL221146  41.451  16.263   9.010
 1502POPC   C1A21147  41.497  15.815   8.699
 1502POPC   D2A21148  41.745  15.997   8.359
 1502POPC   C3A21149  41.720  15.866   7.916
 1502POPC   C4A21150  42.048  16.008   7.633
 1502POPC   C1B21151  41.358  16.295   8.562
 1502POPC   C2B21152  41.220  15.956   8.274
 1502POPC   C3B21153  41.190  15.847   7.843
 1502POPC   C4B21154  41.325  16.155   7.543
 1503POPC   NC321155  23.272  14.442   9.505
 1503POPC   PO421156  22.737  14.075   9.706
 1503POPC   GL121157  22.837  14.238   9.292
 1503POPC   GL221158  23.167  14.098   9.142
 1503POPC   C1A21159  22.717  14.270   8.852
 1503POPC   D2A21160  22.811  14.514   8.477
 1503POPC   C3A21161  22.793  14.254   8.121
 1503POPC   C4A21162  22.784  14.362   7.693
 1503POPC   C1B21163  23.238  14.356   8.777
 1503POPC   C2B21164  23.266  14.307   8.335
 1503POPC   C3B21165  23.261  14.359   7.898
 1503POPC   C4B21166  23.251  14.169   7.502
 1504POPC   NC321167  26.758  26.399   9.339
 1504POPC   PO421168  26.557  27.049   9.497
 1504POPC   GL121169  26.824  26.964   9.127
 1504POPC   GL221170  27.145  26.755   9.203
 1504POPC   C1A21171  26.677  26.972   8.690
 1504POPC   D2A21172  26.772  27.056   8.255
 1504POPC   C3A21173  26.550  26.809   7.976
 1504POPC   C4A21174  26.699  26.727   7.597
 1504POPC   C1B21175  27.046  26.608   8.775
 1504POPC   C2B21176  26.815  26.554   8.379
 1504POPC   C3B21177  27.007  26.349   8.033
 1504POPC   C4B21178  27.214  26.486   7.674
 1505POPC   NC321179  27.538   6.702   9.729
 1505POPC   PO421180  27.079   6.855   9.258
 1505POPC   GL121181  27.506   6.682   9.173
 1505POPC   GL221182  27.559   6.963   9.046
 1505POPC   C1A21183  27.702   6.544   8.779
 1505POPC   D2A21184  27.523   6.605   8.356
 1505POPC   C3A21185  27.666   6.553   7.945
 1505POPC   C4A21186  27.473   6.693   7.548
 1505POPC   C1B21187  27.382   6.963   8.673
 1505POPC   C2B21188  27.439   7.127   8.259
 1505POPC   C3B21189  27.558   7.078   7.839
 1505POPC   C4B21190  27.487   7.190   7.349
 1506POPC   NC321191  35.054  40.662   9.355
 1506POPC   PO421192  35.597  41.124   9.363
 1506POPC   GL121193  35.471  40.850   9.065
 1506POPC   GL221194  35.652  40.562   9.114
 1506POPC   C1A21195  35.314  40.792   8.657
 1506POPC   D2A21196  35.197  40.703   8.234
 1506POPC   C3A21197  35.237  40.967   7.852
 1506POPC   C4A21198  35.518  40.903   7.483
 1506POPC   C1B21199  35.656  40.432   8.701
 1506POPC   C2B21200  35.742  40.670   8.321
 1506POPC   C3B21201  35.598  40.617   7.914
 1506POPC   C4B21202  35.213  40.419   7.781
 1507POPC   NC321203   4.849   6.910   9.534
 1507POPC   PO421204   5.199   6.348   9.495
 1507POPC   GL121205   4.975   6.570   9.193
 1507POPC   GL221206   5.223   6.802   9.167
 1507POPC   C1A21207   4.814   6.614   8.790
 1507POPC   D2A21208   4.955   6.313   8.438
 1507POPC   C3A21209   5.343   6.421   8.194
 1507POPC   C4A21210   5.207   6.624   7.829
 1507POPC   C1B21211   5.178   6.979   8.795
 1507POPC   C2B21212   5.078   6.806   8.401
 1507POPC   C3B21213   4.945   6.977   8.052
 1507POPC   C4B21214   5.236   7.190   7.804
 1508POPC   NC321215  38.986  36.251   9.534
 1508POPC   PO421216  39.474  35.743   9.385
 1508POPC   GL121217  39.224  36.032   9.167
 1508POPC   GL221218  39.230  35.892   8.909
 1508POPC   C1A21219  39.048  36.347   8.855
 1508POPC   D2A21220  39.149  36.245   8.459
 1508POPC   C3A21221  39.241  36.498   8.110
 1508POPC   C4A21222  39.189  36.262   7.710
 1508POPC   C1B21223  39.565  35.749   8.763
 1508POPC   C2B21224  39.637  36.073   8.524
 1508POPC   C3B21225  39.513  36.057   8.111
 1508POPC   C4B21226  39.864  35.896   7.915
 1509POPC   NC321227  21.925  26.109   9.619
 1509POPC   PO421228  22.492  25.703   9.473
 1509POPC   GL121229  22.315  25.886   9.112
 1509POPC   GL221230  21.963  25.938   9.137
 1509POPC   C1A21231  22.510  26.097   8.737
 1509POPC   D2A21232  22.427  25.950   8.317
 1509POPC   C3A21233  22.283  26.171   7.923
 1509POPC   C4A21234  22.450  26.318   7.568
 1509POPC   C1B21235  22.009  26.058   8.717
 1509POPC   C2B21236  21.944  26.126   8.316
 1509POPC   C3B21237  21.794  26.400   8.045
 1509POPC   C4B21238  21.816  26.048   7.761
 1510POPC   NC321239   2.548  39.904   9.247
 1510POPC   PO421240   1.871  39.804   9.392
 1510POPC   GL121241   2.073  40.038   9.091
 1510POPC   GL221242   2.086  40.396   9.167
 1510POPC   C1A21243   2.175  39.935   8.674
 1510POPC   D2A21244   1.913  39.798   8.340
 1510POPC   C3A21245   2.094  39.888   7.941
 1510POPC   C4A21246   1.759  39.792   7.620
 1510POPC   C1B21247   1.831  40.348   8.762
 1510POPC   C2B21248   1.943  40.307   8.362
 1510POPC   C3B21249   1.768  40.254   7.978
 1510POPC   C4B21250   1.942  40.419   7.640
 1511POPC   NC321251  41.367   6.975   9.369
 1511POPC   PO421252  41.893   7.425   9.347
 1511POPC   GL121253  41.551   7.429   9.093
 1511POPC   GL221254  41.481   7.790   9.060
 1511POPC   C1A21255  41.476   7.332   8.664
 1511POPC   D2A21256  41.363   7.509   8.258
 1511POPC   C3A21257  41.508   7.458   7.854
 1511POPC   C4A21258  41.789   7.156   7.680
 1511POPC   C1B21259  41.842   7.735   8.763
 1511POPC   C2B21260  41.868   7.522   8.385
 1511POPC   C3B21261  41.914   7.720   8.033
 1511POPC   C4B21262  41.998   7.605   7.634
 1512POPC   NC321263  26.212  28.317   9.476
 1512POPC   PO421264  25.584  28.209   9.370
 1512POPC   GL121265  25.935  28.371   9.064
 1512POPC   GL221266  26.237  28.637   9.078
 1512POPC   C1A21267  26.067  28.407   8.660
 1512POPC   D2A21268  26.007  28.054   8.434
 1512POPC   C3A21269  26.097  28.173   8.081
 1512POPC   C4A21270  26.100  28.174   7.694
 1512POPC   C1B21271  26.331  28.916   8.722
 1512POPC   C2B21272  26.207  28.906   8.274
 1512POPC   C3B21273  26.151  28.652   7.882
 1512POPC   C4B21274  26.406  28.557   7.498
 1513POPC   NC321275   0.379   1.531   9.473
 1513POPC   PO421276   0.862   1.009   9.558
 1513POPC   GL121277   0.503   1.077   9.202
 1513POPC   GL221278   0.225   1.324   9.044
 1513POPC   C1A21279   0.546   1.095   8.732
 1513POPC   D2A21280   0.354   0.984   8.333
 1513POPC   C3A21281   0.416   1.260   7.977
 1513POPC   C4A21282   0.404   1.210   7.540
 1513POPC   C1B21283   0.445   1.591   8.731
 1513POPC   C2B21284   0.569   1.665   8.296
 1513POPC   C3B21285   0.859   1.677   7.949
 1513POPC   C4B21286   0.870   1.462   7.558
 1514POPC   NC321287  21.216  26.814   9.650
 1514POPC   PO421288  21.794  26.529   9.428
 1514POPC   GL121289  21.482  26.770   9.174
 1514POPC   GL221290  21.101  26.891   9.164
 1514POPC   C1A21291  21.505  26.899   8.742
 1514POPC   D2A21292  21.500  26.745   8.337
 1514POPC   C3A21293  21.398  26.962   8.008
 1514POPC   C4A21294  21.436  27.121   7.604
 1514POPC   C1B21295  21.120  26.578   8.851
 1514POPC   C2B21296  21.072  26.504   8.432
 1514POPC   C3B21297  21.213  26.480   8.026
 1514POPC   C4B21298  21.029  26.724   7.681
 1515POPC   NC321299  44.677  34.478   9.571
 1515POPC   PO421300  44.121  34.364   9.473
 1515POPC   GL121301  44.453  34.349   9.147
 1515POPC   GL221302  44.670  34.681   9.100
 1515POPC   C1A21303  44.575  34.257   8.769
 1515POPC   D2A21304  44.427  34.500   8.437
 1515POPC   C3A21305  44.536  34.424   8.016
 1515POPC   C4A21306  44.488  34.705   7.666
 1515POPC   C1B21307  44.916  34.963   8.802
 1515POPC   C2B21308  44.991  34.823   8.386
 1515POPC   C3B21309  44.808  34.932   7.995
 1515POPC   C4B21310  44.781  35.131   7.570
 1516POPC   NC321311  40.729  31.492   9.428
 1516POPC   PO421312  41.341  31.186   9.534
 1516POPC   GL121313  41.057  31.107   9.149
 1516POPC   GL221314  40.698  31.001   9.108
 1516POPC   C1A21315  41.004  31.304   8.726
 1516POPC   D2A21316  41.123  31.625   8.426
 1516POPC   C3A21317  40.931  31.438   8.057
 1516POPC   C4A21318  40.700  31.506   7.681
 1516POPC   C1B21319  40.504  31.187   8.711
 1516POPC   C2B21320  40.690  31.060   8.319
 1516POPC   C3B21321  40.619  31.042   7.878
 1516POPC   C4B21322  40.617  31.054   7.394
 1517POPC   NC321323  38.696  24.943   9.580
 1517POPC   PO421324  38.149  25.312   9.561
 1517POPC   GL121325  38.371  25.386   9.180
 1517POPC   GL221326  38.424  25.041   9.153
 1517POPC   C1A21327  38.514  25.316   8.741
 1517POPC   D2A21328  38.741  25.494   8.422
 1517POPC   C3A21329  38.554  25.375   8.058
 1517POPC   C4A21330  38.292  25.365   7.721
 1517POPC   C1B21331  38.621  24.823   8.785
 1517POPC   C2B21332  38.735  24.952   8.347
 1517POPC   C3B21333  38.886  24.997   7.907
 1517POPC   C4B21334  38.823  25.046   7.439
 1518POPC   NC321335  39.661  14.900   9.450
 1518POPC   PO421336  40.253  14.630   9.488
 1518POPC   GL121337  40.159  14.423   9.104
 1518POPC   GL221338  39.822  14.462   9.161
 1518POPC   C1A21339  40.207  14.371   8.664
 1518POPC   D2A21340  40.162  14.173   8.273
 1518POPC   C3A21341  40.073  14.508   8.002
 1518POPC   C4A21342  40.286  14.628   7.642
 1518POPC   C1B21343  39.744  14.185   8.810
 1518POPC   C2B21344  39.691  13.979   8.423
 1518POPC   C3B21345  39.756  14.045   7.995
 1518POPC   C4B21346  40.061  14.130   7.658
 1519POPC   NC321347  40.189  19.184   9.544
 1519POPC   PO421348  39.785  18.663   9.490
 1519POPC   GL121349  40.058  18.811   9.158
 1519POPC   GL221350  40.427  18.879   9.155
 1519POPC   C1A21351  39.981  18.876   8.734
 1519POPC   D2A21352  39.789  18.753   8.353
 1519POPC   C3A21353  39.819  18.995   8.001
 1519POPC   C4A21354  40.094  18.828   7.704
 1519POPC   C1B21355  40.354  19.237   8.862
 1519POPC   C2B21356  40.124  19.306   8.479
 1519POPC   C3B21357  40.291  19.166   8.101
 1519POPC   C4B21358  40.283  19.316   7.711
 1520POPC   NC321359   0.918   3.178   9.460
 1520POPC   PO421360   1.023   2.530   9.356
 1520POPC   GL121361   1.172   2.859   9.115
 1520POPC   GL221362   1.376   2.603   8.957
 1520POPC   C1A21363   1.201   3.031   8.734
 1520POPC   D2A21364   1.258   2.761   8.391
 1520POPC   C3A21365   1.033   2.855   8.034
 1520POPC   C4A21366   1.109   3.021   7.674
 1520POPC   C1B21367   1.183   2.328   8.669
 1520POPC   C2B21368   1.386   2.274   8.278
 1520POPC   C3B21369   1.423   2.554   7.924
 1520POPC   C4B21370   1.235   2.555   7.497
 1521POPC   NC321371  20.440  30.327   9.512
 1521POPC   PO421372  20.803  29.739   9.485
 1521POPC   GL121373  20.690  29.953   9.129
 1521POPC   GL221374  20.660  30.298   9.068
 1521POPC   C1A21375  20.870  29.940   8.732
 1521POPC   D2A21376  21.103  29.843   8.362
 1521POPC   C3A21377  20.786  29.863   8.013
 1521POPC   C4A21378  20.370  29.675   7.840
 1521POPC   C1B21379  20.316  30.229   8.743
 1521POPC   C2B21380  20.405  30.045   8.323
 1521POPC   C3B21381  20.408  30.188   7.877
 1521POPC   C4B21382  20.311  30.278   7.430
 1522POPC   NC321383  43.376  43.646   9.371
 1522POPC   PO421384  44.029  43.879   9.427
 1522POPC   GL121385  43.844  44.024   9.084
 1522POPC   GL221386  43.498  44.114   9.203
 1522POPC   C1A21387  44.031  44.043   8.682
 1522POPC   D2A21388  44.140  43.821   8.292
 1522POPC   C3A21389  44.053  44.023   7.885
 1522POPC   C4A21390  43.843  44.040   7.480
 1522POPC   C1B21391  43.433  44.053   8.779
 1522POPC   C2B21392  43.625  43.978   8.391
 1522POPC   C3B21393  43.613  43.764   8.036
 1522POPC   C4B21394  43.408  43.993   7.728
 1523POPC   NC321395  16.023  21.651   9.574
 1523POPC   PO421396  15.831  21.022   9.531
 1523POPC   GL121397  15.790  21.272   9.133
 1523POPC   GL221398  16.049  21.495   9.100
 1523POPC   C1A21399  15.947  21.214   8.684
 1523POPC   D2A21400  15.702  21.080   8.338
 1523POPC   C3A21401  15.971  21.148   8.007
 1523POPC   C4A21402  16.230  21.133   7.675
 1523POPC   C1B21403  16.272  21.679   8.788
 1523POPC   C2B21404  16.368  21.654   8.391
 1523POPC   C3B21405  16.256  21.846   8.027
 1523POPC   C4B21406  16.028  21.608   7.758
 1524POPC   NC321407  10.223  34.960   9.847
 1524POPC   PO421408  10.742  35.201   9.562
 1524POPC   GL121409  10.511  35.417   9.244
 1524POPC   GL221410  10.271  35.202   9.087
 1524POPC   C1A21411  10.536  35.544   8.810
 1524POPC   D2A21412  10.726  35.330   8.452
 1524POPC   C3A21413  10.589  35.529   8.078
 1524POPC   C4A21414  10.545  35.441   7.661
 1524POPC   C1B21415  10.371  35.079   8.712
 1524POPC   C2B21416  10.216  35.293   8.377
 1524POPC   C3B21417  10.210  35.192   7.964
 1524POPC   C4B21418  10.136  35.071   7.590
 1525POPC   NC321419  17.213  19.510   9.313
 1525POPC   PO421420  16.640  19.708   9.639
 1525POPC   GL121421  16.823  19.938   9.272
 1525POPC   GL221422  16.520  19.842   9.123
 1525POPC   C1A21423  16.827  20.076   8.800
 1525POPC   D2A21424  16.590  19.948   8.394
 1525POPC   C3A21425  16.673  20.079   7.957
 1525POPC   C4A21426  16.589  19.902   7.518
 1525POPC   C1B21427  16.665  19.590   8.765
 1525POPC   C2B21428  16.589  19.430   8.315
 1525POPC   C3B21429  16.723  19.570   7.886
 1525POPC   C4B21430  16.929  19.533   7.471
 1526POPC   NC321431  14.253  21.937   9.372
 1526POPC   PO421432  14.241  22.535   9.650
 1526POPC   GL121433  14.358  22.430   9.200
 1526POPC   GL221434  14.113  22.263   9.023
 1526POPC   C1A21435  14.513  22.429   8.763
 1526POPC   D2A21436  14.707  22.604   8.400
 1526POPC   C3A21437  14.624  22.347   8.031
 1526POPC   C4A21438  14.327  22.471   7.716
 1526POPC   C1B21439  13.960  22.321   8.609
 1526POPC   C2B21440  14.142  22.281   8.218
 1526POPC   C3B21441  14.084  22.040   7.861
 1526POPC   C4B21442  14.463  21.985   7.638
 1527POPC   NC321443  27.013  41.277   9.385
 1527POPC   PO421444  26.582  41.750   9.566
 1527POPC   GL121445  26.818  41.786   9.202
 1527POPC   GL221446  27.106  41.962   9.291
 1527POPC   C1A21447  26.842  41.590   8.819
 1527POPC   D2A21448  26.645  41.504   8.476
 1527POPC   C3A21449  26.826  41.520   8.065
 1527POPC   C4A21450  26.867  41.310   7.690
 1527POPC   C1B21451  27.150  41.989   8.823
 1527POPC   C2B21452  26.963  41.931   8.410
 1527POPC   C3B21453  27.194  41.904   8.025
 1527POPC   C4B21454  27.185  41.678   7.640
 1528POPC   NC321455  40.900  12.301   9.553
 1528POPC   PO421456  40.889  11.645   9.553
 1528POPC   GL121457  40.862  11.933   9.161
 1528POPC   GL221458  40.701  12.255   9.087
 1528POPC   C1A21459  40.939  12.049   8.701
 1528POPC   D2A21460  40.708  11.974   8.345
 1528POPC   C3A21461  40.956  12.005   8.010
 1528POPC   C4A21462  40.947  11.630   7.782
 1528POPC   C1B21463  40.466  12.324   8.680
 1528POPC   C2B21464  40.329  12.280   8.221
 1528POPC   C3B21465  40.470  12.135   7.798
 1528POPC   C4B21466  40.499  12.436   7.432
 1529POPC   NC321467  31.878  18.628   9.484
 1529POPC   PO421468  32.462  18.967   9.528
 1529POPC   GL121469  32.179  18.960   9.190
 1529POPC   GL221470  32.358  18.688   9.085
 1529POPC   C1A21471  32.103  19.076   8.760
 1529POPC   D2A21472  32.274  19.266   8.379
 1529POPC   C3A21473  32.029  19.196   8.017
 1529POPC   C4A21474  32.005  18.830   7.807
 1529POPC   C1B21475  32.553  18.851   8.716
 1529POPC   C2B21476  32.661  18.942   8.290
 1529POPC   C3B21477  32.497  18.984   7.880
 1529POPC   C4B21478  32.745  19.093   7.545
 1530POPC   NC321479   5.456   1.546   9.425
 1530POPC   PO421480   5.225   0.951   9.604
 1530POPC   GL121481   5.329   1.110   9.206
 1530POPC   GL221482   5.041   1.338   9.164
 1530POPC   C1A21483   5.416   1.389   8.804
 1530POPC   D2A21484   5.537   1.329   8.397
 1530POPC   C3A21485   5.267   1.258   8.048
 1530POPC   C4A21486   5.001   1.339   7.694
 1530POPC   C1B21487   5.071   1.028   8.783
 1530POPC   C2B21488   5.173   0.853   8.350
 1530POPC   C3B21489   5.010   0.845   7.897
 1530POPC   C4B21490   4.884   0.923   7.428
 1531POPC   NC321491  10.079  25.558   9.456
 1531POPC   PO421492   9.435  25.328   9.472
 1531POPC   GL121493   9.701  25.429   9.113
 1531POPC   GL221494   9.985  25.168   9.079
 1531POPC   C1A21495   9.844  25.499   8.691
 1531POPC   D2A21496   9.791  25.742   8.327
 1531POPC   C3A21497   9.737  25.462   7.978
 1531POPC   C4A21498  10.060  25.309   7.714
 1531POPC   C1B21499   9.672  25.018   8.752
 1531POPC   C2B21500   9.750  25.025   8.284
 1531POPC   C3B21501   9.783  24.907   7.854
 1531POPC   C4B21502   9.488  25.091   7.602
 1532POPC   NC321503  23.896   2.294   9.402
 1532POPC   PO421504  23.437   1.755   9.402
 1532POPC   GL121505  23.464   2.090   9.121
 1532POPC   GL221506  23.778   1.983   9.017
 1532POPC   C1A21507  23.460   2.172   8.670
 1532POPC   D2A21508  23.583   1.798   8.431
 1532POPC   C3A21509  23.441   1.756   8.003
 1532POPC   C4A21510  23.577   1.554   7.627
 1532POPC   C1B21511  24.047   1.825   8.714
 1532POPC   C2B21512  24.223   1.841   8.321
 1532POPC   C3B21513  23.964   1.791   7.975
 1532POPC   C4B21514  23.977   1.928   7.539
 1533POPC   NC321515  10.814  32.616   9.496
 1533POPC   PO421516  10.410  32.123   9.403
 1533POPC   GL121517  10.522  32.422   9.073
 1533POPC   GL221518  10.871  32.449   9.028
 1533POPC   C1A21519  10.614  32.398   8.594
 1533POPC   D2A21520  10.467  32.142   8.239
 1533POPC   C3A21521  10.510  32.365   7.835
 1533POPC   C4A21522  10.558  32.518   7.377
 1533POPC   C1B21523  10.958  32.097   8.817
 1533POPC   C2B21524  11.013  31.981   8.399
 1533POPC   C3B21525  10.857  31.965   7.979
 1533POPC   C4B21526  10.780  31.885   7.572
 1534POPC   NC321527  14.898  31.461   9.663
 1534POPC   PO421528  15.562  31.488   9.604
 1534POPC   GL121529  15.404  31.401   9.159
 1534POPC   GL221530  15.083  31.533   9.186
 1534POPC   C1A21531  15.509  31.204   8.723
 1534POPC   D2A21532  15.655  31.227   8.248
 1534POPC   C3A21533  15.525  31.594   8.023
 1534POPC   C4A21534  15.126  31.685   7.779
 1534POPC   C1B21535  15.091  31.585   8.751
 1534POPC   C2B21536  15.181  31.396   8.369
 1534POPC   C3B21537  15.161  31.213   7.979
 1534POPC   C4B21538  14.822  31.271   7.651
 1535POPC   NC321539   8.854   6.665   9.478
 1535POPC   PO421540   9.462   6.721   9.736
 1535POPC   GL121541   9.306   6.591   9.216
 1535POPC   GL221542   9.013   6.622   8.995
 1535POPC   C1A21543   9.424   6.349   8.823
 1535POPC   D2A21544   9.421   6.536   8.379
 1535POPC   C3A21545   9.004   6.610   8.210
 1535POPC   C4A21546   8.994   6.658   7.764
 1535POPC   C1B21547   8.903   6.955   8.663
 1535POPC   C2B21548   8.588   7.067   8.328
 1535POPC   C3B21549   8.720   7.104   7.899
 1535POPC   C4B21550   8.652   6.940   7.493
 1536POPC   NC321551  15.674  13.016   9.265
 1536POPC   PO421552  16.232  12.653   9.509
 1536POPC   GL121553  16.077  12.685   9.113
 1536POPC   GL221554  15.768  12.482   9.121
 1536POPC   C1A21555  16.070  12.998   8.750
 1536POPC   D2A21556  15.789  13.001   8.405
 1536POPC   C3A21557  15.970  13.072   8.000
 1536POPC   C4A21558  15.852  12.974   7.614
 1536POPC   C1B21559  15.782  12.567   8.717
 1536POPC   C2B21560  15.854  12.434   8.364
 1536POPC   C3B21561  15.804  12.576   7.971
 1536POPC   C4B21562  15.828  12.452   7.553
 1537POPC   NC321563  41.010  32.842   9.812
 1537POPC   PO421564  40.687  32.773   9.287
 1537POPC   GL121565  40.635  33.163   9.109
 1537POPC   GL221566  40.974  33.280   9.175
 1537POPC   C1A21567  40.653  33.257   8.676
 1537POPC   D2A21568  40.693  32.940   8.341
 1537POPC   C3A21569  40.553  33.136   7.975
 1537POPC   C4A21570  40.870  33.426   7.856
 1537POPC   C1B21571  41.110  33.043   8.771
 1537POPC   C2B21572  41.222  32.927   8.348
 1537POPC   C3B21573  41.014  32.861   7.921
 1537POPC   C4B21574  40.920  32.488   7.661
 1538POPC   NC321575  30.623  39.589   9.671
 1538POPC   PO421576  31.056  40.057   9.450
 1538POPC   GL121577  30.742  39.961   9.194
 1538POPC   GL221578  30.812  40.268   8.987
 1538POPC   C1A21579  30.600  39.828   8.807
 1538POPC   D2A21580  30.806  39.724   8.443
 1538POPC   C3A21581  30.572  39.979   8.204
 1538POPC   C4A21582  30.426  39.925   7.825
 1538POPC   C1B21583  30.997  40.177   8.587
 1538POPC   C2B21584  30.856  40.380   8.211
 1538POPC   C3B21585  30.840  40.316   7.772
 1538POPC   C4B21586  30.932  40.429   7.330
 1539POPC   NC321587  19.743  36.347   9.402
 1539POPC   PO421588  20.313  36.401   9.728
 1539POPC   GL121589  20.125  36.469   9.134
 1539POPC   GL221590  19.840  36.181   8.947
 1539POPC   C1A21591  19.930  36.605   8.723
 1539POPC   D2A21592  19.985  36.584   8.291
 1539POPC   C3A21593  19.740  36.286   8.063
 1539POPC   C4A21594  19.724  36.147   7.656
 1539POPC   C1B21595  19.540  35.892   8.746
 1539POPC   C2B21596  19.662  35.871   8.340
 1539POPC   C3B21597  19.490  35.803   7.965
 1539POPC   C4B21598  19.572  35.673   7.540
 1540POPC   NC321599   2.273   4.021   9.479
 1540POPC   PO421600   1.824   4.618   9.628
 1540POPC   GL121601   1.978   4.476   9.188
 1540POPC   GL221602   2.180   4.284   9.061
 1540POPC   C1A21603   1.773   4.313   8.768
 1540POPC   D2A21604   1.573   4.343   8.368
 1540POPC   C3A21605   1.825   4.158   8.032
 1540POPC   C4A21606   1.799   4.406   7.692
 1540POPC   C1B21607   2.227   4.558   8.690
 1540POPC   C2B21608   2.209   4.513   8.237
 1540POPC   C3B21609   2.290   4.433   7.807
 1540POPC   C4B21610   2.249   4.060   7.660
 1541POPC   NC321611   9.557   6.992   9.367
 1541POPC   PO421612   9.924   7.466   9.722
 1541POPC   GL121613   9.735   7.489   9.264
 1541POPC   GL221614  10.012   7.551   9.051
 1541POPC   C1A21615   9.610   7.370   8.792
 1541POPC   D2A21616   9.535   7.497   8.327
 1541POPC   C3A21617   9.694   7.318   7.957
 1541POPC   C4A21618   9.530   7.441   7.568
 1541POPC   C1B21619  10.122   7.733   8.657
 1541POPC   C2B21620  10.070   7.613   8.222
 1541POPC   C3B21621  10.060   7.634   7.767
 1541POPC   C4B21622   9.968   7.385   7.374
 1542POPC   NC321623   6.184   5.487   9.618
 1542POPC   PO421624   6.766   5.766   9.336
 1542POPC   GL121625   6.815   5.963   8.950
 1542POPC   GL221626   6.931   6.302   8.978
 1542POPC   C1A21627   6.564   5.763   8.619
 1542POPC   D2A21628   6.224   5.723   8.326
 1542POPC   C3A21629   6.351   5.621   7.906
 1542POPC   C4A21630   6.364   5.793   7.472
 1542POPC   C1B21631   6.771   6.335   8.583
 1542POPC   C2B21632   6.950   6.012   8.406
 1542POPC   C3B21633   6.793   5.722   8.138
 1542POPC   C4B21634   6.792   5.873   7.720
 1543POPC   NC321635  11.183  34.990   9.575
 1543POPC   PO421636  11.393  35.632   9.540
 1543POPC   GL121637  11.340  35.328   9.225
 1543POPC   GL221638  10.990  35.190   9.130
 1543POPC   C1A21639  11.408  35.155   8.836
 1543POPC   D2A21640  11.177  35.097   8.469
 1543POPC   C3A21641  11.303  35.014   8.030
 1543POPC   C4A21642  11.528  35.344   7.825
 1543POPC   C1B21643  11.047  35.512   8.833
 1543POPC   C2B21644  11.258  35.598   8.486
 1543POPC   C3B21645  11.104  35.477   8.127
 1543POPC   C4B21646  11.036  35.450   7.728
 1544POPC   NC321647  42.907  27.350   9.457
 1544POPC   PO421648  43.438  27.454   9.592
 1544POPC   GL121649  43.383  27.728   9.201
 1544POPC   GL221650  43.019  27.726   9.111
 1544POPC   C1A21651  43.359  27.721   8.732
 1544POPC   D2A21652  43.062  27.705   8.404
 1544POPC   C3A21653  43.248  27.770   8.020
 1544POPC   C4A21654  43.192  27.799   7.574
 1544POPC   C1B21655  43.063  27.325   8.829
 1544POPC   C2B21656  42.872  27.230   8.445
 1544POPC   C3B21657  42.915  27.378   8.005
 1544POPC   C4B21658  43.029  27.334   7.595
 1545POPC   NC321659   0.511  18.097   9.565
 1545POPC   PO421660   1.087  17.874   9.379
 1545POPC   GL121661   0.715  18.033   9.104
 1545POPC   GL221662   0.481  18.347   9.131
 1545POPC   C1A21663   0.468  18.004   8.726
 1545POPC   D2A21664   0.263  17.840   8.352
 1545POPC   C3A21665   0.459  17.934   7.961
 1545POPC   C4A21666   0.367  18.068   7.538
 1545POPC   C1B21667   0.396  18.539   8.726
 1545POPC   C2B21668   0.404  18.351   8.307
 1545POPC   C3B21669   0.434  18.442   7.872
 1545POPC   C4B21670   0.550  18.534   7.428
 1546POPC   NC321671   1.636  34.476   9.389
 1546POPC   PO421672   2.189  34.140   9.268
 1546POPC   GL121673   1.909  34.258   9.016
 1546POPC   GL221674   1.978  34.623   9.015
 1546POPC   C1A21675   1.830  34.262   8.622
 1546POPC   D2A21676   1.985  34.580   8.396
 1546POPC   C3A21677   2.348  34.572   8.161
 1546POPC   C4A21678   2.322  34.886   7.866
 1546POPC   C1B21679   1.756  34.903   8.719
 1546POPC   C2B21680   1.650  35.006   8.289
 1546POPC   C3B21681   1.818  34.772   7.950
 1546POPC   C4B21682   1.989  34.341   7.906
 1547POPC   NC321683  44.420   7.511   9.484
 1547POPC   PO421684  43.756   7.144   9.410
 1547POPC   GL121685  43.967   7.292   9.061
 1547POPC   GL221686  44.023   7.628   9.172
 1547POPC   C1A21687  43.757   7.310   8.655
 1547POPC   D2A21688  43.553   7.354   8.275
 1547POPC   C3A21689  43.768   7.161   7.965
 1547POPC   C4A21690  44.076   7.348   7.722
 1547POPC   C1B21691  43.980   7.768   8.749
 1547POPC   C2B21692  43.741   7.838   8.367
 1547POPC   C3B21693  43.751   7.696   7.941
 1547POPC   C4B21694  43.971   7.928   7.638
 1548POPC   NC321695  27.866  33.742   9.507
 1548POPC   PO421696  27.419  33.468   9.152
 1548POPC   GL121697  27.505  33.900   9.131
 1548POPC   GL221698  27.853  33.834   9.024
 1548POPC   C1A21699  27.358  34.099   8.758
 1548POPC   D2A21700  27.359  33.811   8.402
 1548POPC   C3A21701  27.249  33.920   7.994
 1548POPC   C4A21702  27.320  33.997   7.554
 1548POPC   C1B21703  27.860  33.926   8.630
 1548POPC   C2B21704  27.697  34.203   8.364
 1548POPC   C3B21705  27.753  33.989   8.008
 1548POPC   C4B21706  27.797  33.685   7.728
 1549POPC   NC321707  10.072  44.473   9.503
 1549POPC   PO421708   9.512  44.841   9.671
 1549POPC   GL121709   9.715  44.735   9.242
 1549POPC   GL221710   9.490  44.505   9.108
 1549POPC   C1A21711   9.986  44.723   8.842
 1549POPC   D2A21712   9.894  44.686   8.393
 1549POPC   C3A21713   9.955  44.411   8.050
 1549POPC   C4A21714   9.947  44.653   7.672
 1549POPC   C1B21715   9.491  44.772   8.730
 1549POPC   C2B21716   9.375  44.596   8.340
 1549POPC   C3B21717   9.477  44.578   7.896
 1549POPC   C4B21718   9.217  44.700   7.552
 1550POPC   NC321719  21.872  30.020   9.506
 1550POPC   PO421720  22.414  29.773   9.704
 1550POPC   GL121721  22.351  29.941   9.251
 1550POPC   GL221722  22.017  29.965   9.034
 1550POPC   C1A21723  22.442  30.071   8.814
 1550POPC   D2A21724  22.238  29.930   8.464
 1550POPC   C3A21725  22.446  29.868   8.072
 1550POPC   C4A21726  22.315  29.918   7.659
 1550POPC   C1B21727  21.892  30.275   8.749
 1550POPC   C2B21728  21.933  30.448   8.365
 1550POPC   C3B21729  22.004  30.169   8.048
 1550POPC   C4B21730  21.830  30.104   7.671
 1551POPC   NC321731  40.955  37.114   9.787
 1551POPC   PO421732  40.685  37.600   9.596
 1551POPC   GL121733  40.610  37.520   9.156
 1551POPC   GL221734  40.962  37.508   9.071
 1551POPC   C1A21735  40.592  37.686   8.732
 1551POPC   D2A21736  40.786  37.514   8.369
 1551POPC   C3A21737  40.703  37.633   7.954
 1551POPC   C4A21738  40.525  37.794   7.586
 1551POPC   C1B21739  41.186  37.378   8.658
 1551POPC   C2B21740  41.237  37.375   8.179
 1551POPC   C3B21741  41.203  37.628   7.772
 1551POPC   C4B21742  41.313  37.564   7.302
 1552POPC   NC321743   0.689  43.148   9.654
 1552POPC   PO421744   1.336  43.190   9.696
 1552POPC   GL121745   1.186  42.965   9.294
 1552POPC   GL221746   0.930  42.703   9.201
 1552POPC   C1A21747   1.302  42.977   8.843
 1552POPC   D2A21748   1.440  42.947   8.385
 1552POPC   C3A21749   1.290  43.153   7.980
 1552POPC   C4A21750   1.270  43.607   7.793
 1552POPC   C1B21751   0.986  42.594   8.735
 1552POPC   C2B21752   0.959  42.763   8.290
 1552POPC   C3B21753   0.873  42.862   7.859
 1552POPC   C4B21754   1.154  42.742   7.540
 1553POPC   NC321755  38.117  36.243   9.488
 1553POPC   PO421756  38.708  35.868   9.567
 1553POPC   GL121757  38.453  35.879   9.185
 1553POPC   GL221758  38.719  36.029   9.049
 1553POPC   C1A21759  38.429  35.790   8.714
 1553POPC   D2A21760  38.724  35.922   8.371
 1553POPC   C3A21761  38.501  35.955   8.014
 1553POPC   C4A21762  38.071  35.813   7.898
 1553POPC   C1B21763  38.568  36.282   8.711
 1553POPC   C2B21764  38.680  36.480   8.328
 1553POPC   C3B21765  38.747  36.447   7.891
 1553POPC   C4B21766  38.723  36.313   7.474
 1554POPC   NC321767  30.912  18.635   9.741
 1554POPC   PO421768  30.993  19.272   9.467
 1554POPC   GL121769  30.687  19.059   9.208
 1554POPC   GL221770  30.877  18.863   9.011
 1554POPC   C1A21771  30.457  19.010   8.782
 1554POPC   D2A21772  30.622  19.004   8.365
 1554POPC   C3A21773  30.332  18.947   8.022
 1554POPC   C4A21774  30.482  19.081   7.629
 1554POPC   C1B21775  31.071  19.003   8.648
 1554POPC   C2B21776  31.090  18.770   8.284
 1554POPC   C3B21777  30.845  18.804   7.939
 1554POPC   C4B21778  30.996  19.004   7.642
 1555POPC   NC321779  28.279   0.004   9.295
 1555POPC   PO421780  28.661  44.484   9.506
 1555POPC   GL121781  28.487  44.571   9.095
 1555POPC   GL221782  28.107  44.566   9.134
 1555POPC   C1A21783  28.545  44.862   8.726
 1555POPC   D2A21784  28.734   0.009   8.350
 1555POPC   C3A21785  28.592  44.742   8.048
 1555POPC   C4A21786  28.774  44.524   7.715
 1555POPC   C1B21787  28.041  44.766   8.733
 1555POPC   C2B21788  28.150  44.633   8.325
 1555POPC   C3B21789  27.931  44.679   7.950
 1555POPC   C4B21790  28.024  44.564   7.533
 1556POPC   NC321791  27.830  35.675   9.523
 1556POPC   PO421792  27.713  34.958   9.597
 1556POPC   GL121793  27.466  35.100   9.220
 1556POPC   GL221794  27.620  35.415   9.119
 1556POPC   C1A21795  27.472  35.084   8.750
 1556POPC   D2A21796  27.646  35.128   8.323
 1556POPC   C3A21797  27.621  35.040   7.877
 1556POPC   C4A21798  27.612  35.336   7.562
 1556POPC   C1B21799  27.732  35.668   8.699
 1556POPC   C2B21800  27.773  35.624   8.227
 1556POPC   C3B21801  27.646  35.834   7.833
 1556POPC   C4B21802  27.783  35.935   7.416
 1557POPC   NC321803   6.712  30.875   9.557
 1557POPC   PO421804   7.057  30.293   9.362
 1557POPC   GL121805   6.788  30.581   9.161
 1557POPC   GL221806   6.450  30.604   9.206
 1557POPC   C1A21807   6.680  30.903   8.839
 1557POPC   D2A21808   6.734  30.755   8.409
 1557POPC   C3A21809   6.663  30.966   8.004
 1557POPC   C4A21810   6.785  30.750   7.627
 1557POPC   C1B21811   6.223  30.673   8.823
 1557POPC   C2B21812   6.255  30.912   8.452
 1557POPC   C3B21813   6.246  30.679   8.066
 1557POPC   C4B21814   6.272  30.428   7.705
 1558POPC   NC321815  21.912   7.651   9.637
 1558POPC   PO421816  22.414   7.212   9.471
 1558POPC   GL121817  22.128   7.428   9.188
 1558POPC   GL221818  22.170   7.749   9.047
 1558POPC   C1A21819  21.977   7.350   8.773
 1558POPC   D2A21820  21.976   7.644   8.409
 1558POPC   C3A21821  22.225   7.495   8.024
 1558POPC   C4A21822  22.093   7.382   7.579
 1558POPC   C1B21823  22.427   7.550   8.669
 1558POPC   C2B21824  22.555   7.159   8.440
 1558POPC   C3B21825  22.444   6.992   8.045
 1558POPC   C4B21826  22.486   7.036   7.628
 1559POPC   NC321827  43.166  17.175   9.506
 1559POPC   PO421828  43.456  17.902   9.513
 1559POPC   GL121829  43.068  17.695   9.252
 1559POPC   GL221830  43.141  17.361   9.032
 1559POPC   C1A21831  42.818  17.687   8.838
 1559POPC   D2A21832  43.079  17.621   8.448
 1559POPC   C3A21833  42.851  17.519   8.088
 1559POPC   C4A21834  43.085  17.602   7.763
 1559POPC   C1B21835  42.900  17.209   8.648
 1559POPC   C2B21836  42.659  17.089   8.334
 1559POPC   C3B21837  42.702  17.015   7.935
 1559POPC   C4B21838  42.767  17.235   7.601
 1560POPC   NC321839   7.397  26.336   9.219
 1560POPC   PO421840   7.879  25.837   9.433
 1560POPC   GL121841   7.819  25.868   9.007
 1560POPC   GL221842   7.468  25.969   8.872
 1560POPC   C1A21843   7.811  25.758   8.580
 1560POPC   D2A21844   7.514  25.907   8.330
 1560POPC   C3A21845   7.721  26.127   8.025
 1560POPC   C4A21846   7.755  25.947   7.642
 1560POPC   C1B21847   7.082  25.868   8.630
 1560POPC   C2B21848   7.013  26.019   8.214
 1560POPC   C3B21849   7.213  26.084   7.799
 1560POPC   C4B21850   7.296  25.840   7.420
 1561POPC   NC321851  13.178   9.596   9.470
 1561POPC   PO421852  13.790   9.984   9.481
 1561POPC   GL121853  13.585   9.765   9.119
 1561POPC   GL221854  13.320   9.504   9.005
 1561POPC   C1A21855  13.828   9.595   8.779
 1561POPC   D2A21856  13.885   9.731   8.389
 1561POPC   C3A21857  13.898   9.510   8.035
 1561POPC   C4A21858  13.797   9.502   7.617
 1561POPC   C1B21859  13.347   9.704   8.624
 1561POPC   C2B21860  13.413   9.555   8.211
 1561POPC   C3B21861  13.453   9.779   7.852
 1561POPC   C4B21862  13.489   9.886   7.420
 1562POPC   NC321863  16.705  31.479   9.416
 1562POPC   PO421864  16.183  31.911   9.579
 1562POPC   GL121865  16.405  31.801   9.111
 1562POPC   GL221866  16.751  31.705   8.984
 1562POPC   C1A21867  16.406  31.574   8.662
 1562POPC   D2A21868  16.513  31.189   8.416
 1562POPC   C3A21869  16.541  31.297   7.984
 1562POPC   C4A21870  16.594  31.713   7.850
 1562POPC   C1B21871  16.876  31.347   8.756
 1562POPC   C2B21872  17.046  31.085   8.447
 1562POPC   C3B21873  16.966  31.015   8.041
 1562POPC   C4B21874  17.043  31.321   7.758
 1563POPC   NC321875  40.610  28.511   9.725
 1563POPC   PO421876  41.176  28.225   9.523
 1563POPC   GL121877  40.875  28.223   9.140
 1563POPC   GL221878  40.572  28.458   9.096
 1563POPC   C1A21879  40.893  28.380   8.701
 1563POPC   D2A21880  41.061  28.207   8.342
 1563POPC   C3A21881  40.921  28.402   7.976
 1563POPC   C4A21882  40.719  28.284   7.605
 1563POPC   C1B21883  40.567  28.789   8.727
 1563POPC   C2B21884  40.671  28.788   8.259
 1563POPC   C3B21885  40.555  28.735   7.815
 1563POPC   C4B21886  40.478  28.693   7.371
 1564POPC   NC321887  39.832  24.825   9.454
 1564POPC   PO421888  40.056  25.416   9.527
 1564POPC   GL121889  39.880  25.422   9.130
 1564POPC   GL221890  39.673  25.736   9.101
 1564POPC   C1A21891  40.027  25.231   8.732
 1564POPC   D2A21892  39.931  24.999   8.352
 1564POPC   C3A21893  40.029  25.152   7.964
 1564POPC   C4A21894  40.323  25.375   7.743
 1564POPC   C1B21895  39.569  25.494   8.695
 1564POPC   C2B21896  39.644  25.414   8.224
 1564POPC   C3B21897  39.755  25.553   7.797
 1564POPC   C4B21898  39.757  25.739   7.361
 1565POPC   NC321899  12.337  24.278   9.505
 1565POPC   PO421900  11.612  24.266   9.503
 1565POPC   GL121901  11.873  24.543   9.206
 1565POPC   GL221902  12.233  24.695   9.220
 1565POPC   C1A21903  12.020  24.368   8.836
 1565POPC   D2A21904  11.933  24.297   8.414
 1565POPC   C3A21905  12.123  24.335   8.026
 1565POPC   C4A21906  11.849  24.229   7.707
 1565POPC   C1B21907  12.163  24.842   8.803
 1565POPC   C2B21908  12.263  24.711   8.378
 1565POPC   C3B21909  12.094  24.835   7.993
 1565POPC   C4B21910  12.236  24.678   7.629
 1566POPC   NC321911  14.421  12.476   9.400
 1566POPC   PO421912  14.551  13.115   9.454
 1566POPC   GL121913  14.327  13.070   9.090
 1566POPC   GL221914  14.133  12.733   9.051
 1566POPC   C1A21915  14.369  13.191   8.672
 1566POPC   D2A21916  14.217  12.954   8.363
 1566POPC   C3A21917  14.362  12.971   7.952
 1566POPC   C4A21918  14.098  12.671   7.739
 1566POPC   C1B21919  14.495  12.699   8.755
 1566POPC   C2B21920  14.675  12.721   8.328
 1566POPC   C3B21921  14.608  12.532   7.909
 1566POPC   C4B21922  14.543  12.733   7.496
 1567POPC   NC321923  28.774  16.623  10.150
 1567POPC   PO421924  29.139  16.488   9.683
 1567POPC   GL121925  29.100  16.807   9.280
 1567POPC   GL221926  29.240  16.580   9.055
 1567POPC   C1A21927  28.970  16.890   8.785
 1567POPC   D2A21928  29.243  16.739   8.404
 1567POPC   C3A21929  29.147  16.878   7.977
 1567POPC   C4A21930  28.759  16.719   7.776
 1567POPC   C1B21931  29.551  16.453   8.727
 1567POPC   C2B21932  29.801  16.338   8.402
 1567POPC   C3B21933  29.612  16.279   8.003
 1567POPC   C4B21934  29.457  16.545   7.713
 1568POPC   NC321935  21.617  38.877   9.558
 1568POPC   PO421936  21.045  39.287   9.646
 1568POPC   GL121937  21.234  39.087   9.253
 1568POPC   GL221938  20.988  38.946   9.071
 1568POPC   C1A21939  21.433  39.014   8.824
 1568POPC   D2A21940  21.388  39.280   8.449
 1568POPC   C3A21941  21.528  39.169   8.039
 1568POPC   C4A21942  21.818  39.408   7.804
 1568POPC   C1B21943  20.985  39.273   8.781
 1568POPC   C2B21944  20.890  39.161   8.355
 1568POPC   C3B21945  21.007  39.383   8.003
 1568POPC   C4B21946  21.307  39.481   7.683
 1569POPC   NC321947   6.322   2.963   9.558
 1569POPC   PO421948   6.927   2.570   9.484
 1569POPC   GL121949   6.696   2.681   9.149
 1569POPC   GL221950   6.702   3.022   9.166
 1569POPC   C1A21951   6.606   2.637   8.729
 1569POPC   D2A21952   6.637   2.738   8.308
 1569POPC   C3A21953   6.814   2.475   7.993
 1569POPC   C4A21954   6.719   2.529   7.553
 1569POPC   C1B21955   6.404   3.203   8.875
 1569POPC   C2B21956   6.223   3.097   8.488
 1569POPC   C3B21957   6.376   3.115   8.054
 1569POPC   C4B21958   6.503   2.994   7.635
 1570POPC   NC321959  19.550  34.885   9.608
 1570POPC   PO421960  20.168  34.656   9.501
 1570POPC   GL121961  19.825  34.650   9.214
 1570POPC   GL221962  19.601  34.353   9.193
 1570POPC   C1A21963  19.772  34.798   8.799
 1570POPC   D2A21964  19.454  34.928   8.485
 1570POPC   C3A21965  19.606  34.868   8.080
 1570POPC   C4A21966  19.670  34.620   7.723
 1570POPC   C1B21967  19.844  34.285   8.833
 1570POPC   C2B21968  19.714  34.416   8.432
 1570POPC   C3B21969  19.831  34.260   8.047
 1570POPC   C4B21970  19.664  34.067   7.684
 1571POPC   NC321971  35.180   5.738   9.497
 1571POPC   PO421972  35.792   5.990   9.326
 1571POPC   GL121973  35.424   5.924   9.081
 1571POPC   GL221974  35.440   5.579   9.077
 1571POPC   C1A21975  35.330   5.874   8.646
 1571POPC   D2A21976  35.179   6.038   8.273
 1571POPC   C3A21977  35.522   6.100   8.000
 1571POPC   C4A21978  35.351   5.902   7.679
 1571POPC   C1B21979  35.692   5.502   8.749
 1571POPC   C2B21980  35.524   5.445   8.343
 1571POPC   C3B21981  35.633   5.555   7.930
 1571POPC   C4B21982  35.539   5.489   7.492
 1572POPC   NC321983   6.428  33.555   9.461
 1572POPC   PO421984   6.916  34.011   9.721
 1572POPC   GL121985   6.807  33.877   9.313
 1572POPC   GL221986   6.486  34.035   9.339
 1572POPC   C1A21987   6.754  33.707   8.887
 1572POPC   D2A21988   6.879  33.672   8.470
 1572POPC   C3A21989   6.626  33.577   8.108
 1572POPC   C4A21990   6.675  33.479   7.661
 1572POPC   C1B21991   6.355  34.031   8.948
 1572POPC   C2B21992   6.477  34.045   8.514
 1572POPC   C3B21993   6.412  34.237   8.105
 1572POPC   C4B21994   6.541  33.970   7.767
 1573POPC   NC321995  28.772  41.537   9.552
 1573POPC   PO421996  29.409  41.378   9.352
 1573POPC   GL121997  29.118  41.671   9.167
 1573POPC   GL221998  28.884  41.460   9.054
 1573POPC   C1A21999  29.101  41.728   8.700
 1573POPC   D2A22000  29.180  41.346   8.400
 1573POPC   C3A22001  29.192  41.517   7.997
 1573POPC   C4A22002  29.273  41.950   7.896
 1573POPC   C1B22003  28.723  41.352   8.663
 1573POPC   C2B22004  28.752  41.626   8.306
 1573POPC   C3B22005  28.675  41.451   7.927
 1573POPC   C4B22006  28.973  41.282   7.627
 1574POPC   NC322007  12.686  37.873   9.572
 1574POPC   PO422008  13.312  37.782   9.697
 1574POPC   GL122009  13.096  37.625   9.274
 1574POPC   GL222010  12.733  37.665   9.135
 1574POPC   C1A22011  13.106  37.628   8.796
 1574POPC   D2A22012  13.025  37.373   8.425
 1574POPC   C3A22013  13.184  37.522   8.085
 1574POPC   C4A22014  12.960  37.667   7.758
 1574POPC   C1B22015  12.594  37.851   8.781
 1574POPC   C2B22016  12.594  37.740   8.351
 1574POPC   C3B22017  12.575  37.956   7.959
 1574POPC   C4B22018  12.891  38.160   7.710
 1575POPC   NC322019  12.918  39.589   9.478
 1575POPC   PO422020  12.642  38.978   9.468
 1575POPC   GL122021  12.788  38.978   9.069
 1575POPC   GL222022  12.972  39.261   9.108
 1575POPC   C1A22023  12.860  39.121   8.635
 1575POPC   D2A22024  12.552  39.132   8.286
 1575POPC   C3A22025  12.747  39.028   7.908
 1575POPC   C4A22026  12.947  39.302   7.616
 1575POPC   C1B22027  13.244  39.474   8.840
 1575POPC   C2B22028  13.342  39.340   8.448
 1575POPC   C3B22029  13.114  39.375   8.090
 1575POPC   C4B22030  13.042  39.756   7.816
 1576POPC   NC322031  12.390  16.021   9.473
 1576POPC   PO422032  11.759  15.896   9.503
 1576POPC   GL122033  12.002  15.865   9.135
 1576POPC   GL222034  12.092  16.193   9.116
 1576POPC   C1A22035  11.965  15.984   8.693
 1576POPC   D2A22036  11.952  16.168   8.335
 1576POPC   C3A22037  12.134  15.881   8.049
 1576POPC   C4A22038  11.995  16.060   7.718
 1576POPC   C1B22039  12.420  16.155   8.753
 1576POPC   C2B22040  12.464  16.202   8.288
 1576POPC   C3B22041  12.527  16.180   7.808
 1576POPC   C4B22042  12.409  16.363   7.360
 1577POPC   NC322043   3.061  18.118   9.498
 1577POPC   PO422044   3.770  17.890   9.477
 1577POPC   GL122045   3.518  18.060   9.177
 1577POPC   GL222046   3.517  18.406   9.274
 1577POPC   C1A22047   3.377  18.054   8.750
 1577POPC   D2A22048   3.207  17.974   8.334
 1577POPC   C3A22049   3.491  17.998   7.986
 1577POPC   C4A22050   3.432  18.232   7.632
 1577POPC   C1B22051   3.228  18.487   8.951
 1577POPC   C2B22052   3.151  18.464   8.522
 1577POPC   C3B22053   3.296  18.464   8.114
 1577POPC   C4B22054   3.677  18.595   7.914
 1578POPC   NC322055   9.974  40.894   9.260
 1578POPC   PO422056  10.499  40.877   9.739
 1578POPC   GL122057  10.484  40.821   9.292
 1578POPC   GL222058  10.396  41.155   9.199
 1578POPC   C1A22059  10.502  40.736   8.825
 1578POPC   D2A22060  10.847  40.691   8.516
 1578POPC   C3A22061  10.887  40.850   8.091
 1578POPC   C4A22062  10.699  40.732   7.703
 1578POPC   C1B22063  10.276  41.262   8.798
 1578POPC   C2B22064  10.502  41.151   8.435
 1578POPC   C3B22065  10.400  40.827   8.172
 1578POPC   C4B22066  10.273  40.982   7.807
 1579POPC   NC322067  14.748  20.417   9.456
 1579POPC   PO422068  14.112  20.797   9.449
 1579POPC   GL122069  14.384  20.659   9.181
 1579POPC   GL222070  14.325  20.318   9.173
 1579POPC   C1A22071  14.509  20.622   8.777
 1579POPC   D2A22072  14.477  20.895   8.426
 1579POPC   C3A22073  14.453  20.682   8.067
 1579POPC   C4A22074  14.598  20.744   7.702
 1579POPC   C1B22075  14.135  20.239   8.776
 1579POPC   C2B22076  14.237  20.335   8.368
 1579POPC   C3B22077  14.105  20.265   7.950
 1579POPC   C4B22078  14.307  20.363   7.614
 1580POPC   NC322079  16.006  41.552   9.591
 1580POPC   PO422080  15.601  42.007   9.624
 1580POPC   GL122081  15.748  41.826   9.205
 1580POPC   GL222082  15.788  41.442   9.149
 1580POPC   C1A22083  15.932  41.843   8.771
 1580POPC   D2A22084  16.013  42.011   8.345
 1580POPC   C3A22085  15.795  41.824   8.022
 1580POPC   C4A22086  15.624  41.447   7.923
 1580POPC   C1B22087  15.657  41.273   8.771
 1580POPC   C2B22088  15.789  41.483   8.416
 1580POPC   C3B22089  16.158  41.503   8.214
 1580POPC   C4B22090  16.368  41.270   7.936
 1581POPC   NC322091   6.439   1.366   9.475
 1581POPC   PO422092   7.028   1.606   9.235
 1581POPC   GL122093   6.680   1.446   9.010
 1581POPC   GL222094   6.535   1.109   9.038
 1581POPC   C1A22095   6.798   1.288   8.633
 1581POPC   D2A22096   6.674   1.215   8.252
 1581POPC   C3A22097   6.960   1.458   8.044
 1581POPC   C4A22098   6.943   1.568   7.641
 1581POPC   C1B22099   6.449   0.911   8.657
 1581POPC   C2B22100   6.193   0.920   8.320
 1581POPC   C3B22101   6.267   1.051   7.949
 1581POPC   C4B22102   6.616   1.198   7.749
 1582POPC   NC322103  39.910   7.664   9.713
 1582POPC   PO422104  39.677   8.210   9.331
 1582POPC   GL122105  39.878   8.171   8.983
 1582POPC   GL222106  40.102   7.973   9.138
 1582POPC   C1A22107  40.256   8.292   8.781
 1582POPC   D2A22108  40.348   8.502   8.419
 1582POPC   C3A22109  40.009   8.333   8.162
 1582POPC   C4A22110  39.988   8.297   7.733
 1582POPC   C1B22111  40.130   7.792   8.729
 1582POPC   C2B22112  39.896   7.843   8.369
 1582POPC   C3B22113  39.989   7.816   7.926
 1582POPC   C4B22114  40.037   7.859   7.467
 1583POPC   NC322115  36.532  21.653   9.276
 1583POPC   PO422116  36.138  22.171   9.532
 1583POPC   GL122117  36.185  22.333   9.152
 1583POPC   GL222118  36.431  22.097   9.045
 1583POPC   C1A22119  36.022  22.271   8.747
 1583POPC   D2A22120  36.193  22.313   8.341
 1583POPC   C3A22121  35.986  22.099   8.030
 1583POPC   C4A22122  35.953  22.213   7.621
 1583POPC   C1B22123  36.269  21.810   8.716
 1583POPC   C2B22124  36.300  21.752   8.300
 1583POPC   C3B22125  36.507  21.998   8.027
 1583POPC   C4B22126  36.305  21.868   7.669
 1584POPC   NC322127  22.302  28.541   9.461
 1584POPC   PO422128  21.701  28.209   9.446
 1584POPC   GL122129  21.941  28.438   9.112
 1584POPC   GL222130  22.300  28.338   9.017
 1584POPC   C1A22131  21.974  28.503   8.670
 1584POPC   D2A22132  21.856  28.217   8.347
 1584POPC   C3A22133  21.810  28.466   7.994
 1584POPC   C4A22134  21.959  28.603   7.585
 1584POPC   C1B22135  22.482  28.641   8.768
 1584POPC   C2B22136  22.452  28.683   8.335
 1584POPC   C3B22137  22.331  28.565   7.938
 1584POPC   C4B22138  22.433  28.479   7.492
 1585POPC   NC322139   2.462  35.312   9.544
 1585POPC   PO422140   3.144  35.317   9.607
 1585POPC   GL122141   2.904  35.139   9.302
 1585POPC   GL222142   2.846  35.497   9.231
 1585POPC   C1A22143   2.605  35.068   8.949
 1585POPC   D2A22144   2.475  34.918   8.522
 1585POPC   C3A22145   2.561  35.199   8.181
 1585POPC   C4A22146   2.739  35.206   7.756
 1585POPC   C1B22147   2.645  35.578   8.874
 1585POPC   C2B22148   2.688  35.741   8.465
 1585POPC   C3B22149   2.549  35.685   8.058
 1585POPC   C4B22150   2.730  35.703   7.671
 1586POPC   NC322151  38.106  15.587   9.433
 1586POPC   PO422152  38.315  14.908   9.497
 1586POPC   GL122153  38.346  15.197   9.171
 1586POPC   GL222154  37.999  15.166   9.143
 1586POPC   C1A22155  38.289  15.356   8.752
 1586POPC   D2A22156  38.530  15.487   8.423
 1586POPC   C3A22157  38.613  15.289   8.060
 1586POPC   C4A22158  38.408  15.424   7.702
 1586POPC   C1B22159  38.145  14.863   8.826
 1586POPC   C2B22160  38.293  14.841   8.380
 1586POPC   C3B22161  38.192  14.995   7.971
 1586POPC   C4B22162  38.238  14.800   7.595
 1587POPC   NC322163  16.325  23.404   9.427
 1587POPC   PO422164  15.887  23.567   9.928
 1587POPC   GL122165  15.937  23.708   9.396
 1587POPC   GL222166  15.905  23.410   9.162
 1587POPC   C1A22167  15.935  23.843   8.911
 1587POPC   D2A22168  16.281  23.884   8.586
 1587POPC   C3A22169  16.200  23.803   8.123
 1587POPC   C4A22170  15.832  23.730   7.857
 1587POPC   C1B22171  16.110  23.309   8.757
 1587POPC   C2B22172  16.284  23.126   8.364
 1587POPC   C3B22173  16.113  23.296   7.992
 1587POPC   C4B22174  16.175  23.376   7.573
 1588POPC   NC322175   2.891  27.722   9.511
 1588POPC   PO422176   2.454  27.151   9.456
 1588POPC   GL122177   2.692  27.393   9.184
 1588POPC   GL222178   2.500  27.270   8.936
 1588POPC   C1A22179   2.672  27.744   8.852
 1588POPC   D2A22180   2.636  27.572   8.435
 1588POPC   C3A22181   2.667  27.772   8.045
 1588POPC   C4A22182   2.826  27.719   7.679
 1588POPC   C1B22183   2.886  27.230   8.745
 1588POPC   C2B22184   2.848  27.113   8.352
 1588POPC   C3B22185   2.638  27.263   8.018
 1588POPC   C4B22186   2.721  27.216   7.645
 1589POPC   NC322187  12.529  38.542   9.391
 1589POPC   PO422188  11.920  38.294   9.570
 1589POPC   GL122189  12.083  38.309   9.190
 1589POPC   GL222190  12.299  38.025   9.217
 1589POPC   C1A22191  12.109  38.500   8.789
 1589POPC   D2A22192  12.308  38.415   8.387
 1589POPC   C3A22193  12.208  38.740   8.094
 1589POPC   C4A22194  11.958  38.590   7.739
 1589POPC   C1B22195  12.071  37.995   8.789
 1589POPC   C2B22196  11.872  38.167   8.407
 1589POPC   C3B22197  12.071  38.141   7.963
 1589POPC   C4B22198  11.940  38.150   7.491
 1590POPC   NC322199  13.098  38.899   9.480
 1590POPC   PO422200  12.907  38.259   9.415
 1590POPC   GL122201  12.890  38.434   9.027
 1590POPC   GL222202  12.565  38.342   8.925
 1590POPC   C1A22203  12.991  38.189   8.662
 1590POPC   D2A22204  12.953  38.153   8.232
 1590POPC   C3A22205  13.136  38.490   7.989
 1590POPC   C4A22206  12.947  38.674   7.575
 1590POPC   C1B22207  12.570  38.715   8.699
 1590POPC   C2B22208  12.754  38.659   8.314
 1590POPC   C3B22209  12.614  38.487   7.954
 1590POPC   C4B22210  12.439  38.707   7.632
 1591POPC   NC322211   2.240  30.139   9.456
 1591POPC   PO422212   1.928  29.530   9.468
 1591POPC   GL122213   2.116  29.768   9.121
 1591POPC   GL222214   2.016  30.129   9.020
 1591POPC   C1A22215   2.165  29.794   8.684
 1591POPC   D2A22216   1.916  29.740   8.338
 1591POPC   C3A22217   2.157  29.901   8.051
 1591POPC   C4A22218   1.964  29.910   7.718
 1591POPC   C1B22219   1.919  30.409   8.712
 1591POPC   C2B22220   1.884  30.247   8.338
 1591POPC   C3B22221   1.645  30.181   8.004
 1591POPC   C4B22222   1.749  30.369   7.631
 1592POPC   NC322223  31.192   7.528   9.471
 1592POPC   PO422224  31.881   7.611   9.453
 1592POPC   GL122225  31.575   7.575   9.137
 1592POPC   GL222226  31.673   7.256   8.980
 1592POPC   C1A22227  31.258   7.496   8.796
 1592POPC   D2A22228  31.391   7.119   8.555
 1592POPC   C3A22229  31.469   7.191   8.107
 1592POPC   C4A22230  31.196   6.996   7.819
 1592POPC   C1B22231  31.736   7.545   8.654
 1592POPC   C2B22232  31.847   7.594   8.261
 1592POPC   C3B22233  31.676   7.724   7.897
 1592POPC   C4B22234  31.280   7.880   7.808
 1593POPC   NC322235   4.231  42.056   9.312
 1593POPC   PO422236   4.708  42.201   9.737
 1593POPC   GL122237   4.621  42.358   9.221
 1593POPC   GL222238   4.233  42.461   9.031
 1593POPC   C1A22239   4.574  42.291   8.723
 1593POPC   D2A22240   4.278  42.378   8.351
 1593POPC   C3A22241   4.461  42.474   7.950
 1593POPC   C4A22242   4.594  42.177   7.637
 1593POPC   C1B22243   3.966  42.155   8.701
 1593POPC   C2B22244   3.826  42.108   8.249
 1593POPC   C3B22245   3.997  42.278   7.828
 1593POPC   C4B22246   4.099  42.280   7.361
 1594POPC   NC322247   1.076  35.163   9.425
 1594POPC   PO422248   1.436  35.701   9.535
 1594POPC   GL122249   1.342  35.544   9.157
 1594POPC   GL222250   1.579  35.804   9.066
 1594POPC   C1A22251   1.203  35.244   8.799
 1594POPC   D2A22252   0.837  35.150   8.520
 1594POPC   C3A22253   0.935  35.123   8.067
 1594POPC   C4A22254   1.367  35.147   7.860
 1594POPC   C1B22255   1.366  35.759   8.683
 1594POPC   C2B22256   1.186  35.509   8.352
 1594POPC   C3B22257   1.039  35.630   7.952
 1594POPC   C4B22258   1.250  35.570   7.575
 1595POPC   NC322259  10.750   3.315   9.509
 1595POPC   PO422260  10.235   3.684   9.538
 1595POPC   GL122261  10.366   3.557   9.167
 1595POPC   GL222262  10.741   3.553   9.036
 1595POPC   C1A22263  10.305   3.484   8.758
 1595POPC   D2A22264  10.599   3.504   8.438
 1595POPC   C3A22265  10.408   3.422   8.063
 1595POPC   C4A22266  10.554   3.557   7.657
 1595POPC   C1B22267  10.845   3.182   8.730
 1595POPC   C2B22268  10.717   3.021   8.294
 1595POPC   C3B22269  10.824   3.190   7.885
 1595POPC   C4B22270  10.910   3.147   7.453
 1596POPC   NC322271  34.614  43.102   9.592
 1596POPC   PO422272  34.415  43.688   9.724
 1596POPC   GL122273  34.670  43.430   9.230
 1596POPC   GL222274  34.777  43.005   9.121
 1596POPC   C1A22275  34.671  43.280   8.737
 1596POPC   D2A22276  34.707  43.002   8.359
 1596POPC   C3A22277  34.626  43.228   7.971
 1596POPC   C4A22278  34.287  43.348   7.668
 1596POPC   C1B22279  34.470  42.819   8.811
 1596POPC   C2B22280  34.328  42.674   8.401
 1596POPC   C3B22281  34.500  42.679   7.950
 1596POPC   C4B22282  34.246  42.567   7.552
 1597POPC   NC322283   7.317  40.743   9.502
 1597POPC   PO422284   8.030  40.970   9.496
 1597POPC   GL122285   7.769  40.803   9.145
 1597POPC   GL222286   7.651  40.466   9.241
 1597POPC   C1A22287   7.651  40.926   8.685
 1597POPC   D2A22288   7.752  40.733   8.291
 1597POPC   C3A22289   7.729  40.974   7.901
 1597POPC   C4A22290   7.466  41.000   7.516
 1597POPC   C1B22291   7.547  40.446   8.809
 1597POPC   C2B22292   7.223  40.572   8.522
 1597POPC   C3B22293   7.269  40.670   8.101
 1597POPC   C4B22294   7.477  40.542   7.743
 1598POPC   NC322295   9.293  22.211   9.783
 1598POPC   PO422296   8.797  21.897   9.521
 1598POPC   GL122297   9.016  22.139   9.205
 1598POPC   GL222298   9.395  22.146   9.205
 1598POPC   C1A22299   8.882  22.302   8.811
 1598POPC   D2A22300   8.657  22.102   8.501
 1598POPC   C3A22301   8.886  22.195   8.157
 1598POPC   C4A22302   8.898  22.371   7.744
 1598POPC   C1B22303   9.227  21.889   8.809
 1598POPC   C2B22304   8.997  21.712   8.445
 1598POPC   C3B22305   8.684  21.721   8.136
 1598POPC   C4B22306   8.850  21.849   7.754
 1599POPC   NC322307  20.086   4.582   9.508
 1599POPC   PO422308  19.702   4.140   9.889
 1599POPC   GL122309  19.812   4.162   9.393
 1599POPC   GL222310  19.536   4.184   9.173
 1599POPC   C1A22311  19.993   4.037   8.967
 1599POPC   D2A22312  20.182   4.248   8.589
 1599POPC   C3A22313  20.132   4.214   8.139
 1599POPC   C4A22314  19.876   4.414   7.821
 1599POPC   C1B22315  19.670   4.352   8.747
 1599POPC   C2B22316  19.621   4.243   8.295
 1599POPC   C3B22317  19.381   4.263   7.889
 1599POPC   C4B22318  19.426   3.966   7.529
 1600POPC   NC322319   6.166  14.543   9.423
 1600POPC   PO422320   5.677  14.142   9.404
 1600POPC   GL122321   5.771  14.466   9.106
 1600POPC   GL222322   6.111  14.403   8.942
 1600POPC   C1A22323   5.689  14.592   8.703
 1600POPC   D2A22324   5.812  14.344   8.371
 1600POPC   C3A22325   5.887  14.638   8.050
 1600POPC   C4A22326   5.690  14.580   7.641
 1600POPC   C1B22327   6.350  14.052   8.739
 1600POPC   C2B22328   6.288  13.946   8.292
 1600POPC   C3B22329   6.106  14.205   7.954
 1600POPC   C4B22330   6.050  14.251   7.496
 1601POPC   NC322331  39.736  15.575   9.317
 1601POPC   PO422332  40.184  16.102   9.568
 1601POPC   GL122333  39.909  16.056   9.204
 1601POPC   GL222334  40.133  15.781   9.101
 1601POPC   C1A22335  39.670  16.273   8.837
 1601POPC   D2A22336  39.459  16.326   8.411
 1601POPC   C3A22337  39.693  16.324   7.998
 1601POPC   C4A22338  39.942  15.981   7.782
 1601POPC   C1B22339  39.855  15.810   8.707
 1601POPC   C2B22340  39.804  15.894   8.262
 1601POPC   C3B22341  39.644  15.604   7.919
 1601POPC   C4B22342  39.699  15.670   7.450
 1602POPC   NC322343  28.855  22.478   9.482
 1602POPC   PO422344  29.255  22.949   9.744
 1602POPC   GL122345  29.252  22.927   9.286
 1602POPC   GL222346  29.057  22.727   9.097
 1602POPC   C1A22347  29.382  23.072   8.851
 1602POPC   D2A22348  29.345  22.934   8.399
 1602POPC   C3A22349  29.452  23.149   8.016
 1602POPC   C4A22350  29.519  22.941   7.627
 1602POPC   C1B22351  28.927  22.890   8.743
 1602POPC   C2B22352  28.839  22.784   8.372
 1602POPC   C3B22353  28.959  22.933   7.990
 1602POPC   C4B22354  28.682  23.177   7.764
 1603POPC   NC322355  23.816  11.659   9.532
 1603POPC   PO422356  23.662  12.343   9.587
 1603POPC   GL122357  23.565  12.355   9.112
 1603POPC   GL222358  23.530  11.979   9.009
 1603POPC   C1A22359  23.566  12.343   8.643
 1603POPC   D2A22360  23.577  11.972   8.348
 1603POPC   C3A22361  23.526  12.088   7.918
 1603POPC   C4A22362  23.748  12.175   7.609
 1603POPC   C1B22363  23.929  11.948   8.729
 1603POPC   C2B22364  24.130  11.747   8.396
 1603POPC   C3B22365  23.960  11.805   7.985
 1603POPC   C4B22366  24.164  11.938   7.591
 1604POPC   NC322367  22.854  19.289   9.398
 1604POPC   PO422368  22.568  18.795   9.686
 1604POPC   GL122369  22.713  18.803   9.238
 1604POPC   GL222370  23.070  18.892   9.164
 1604POPC   C1A22371  22.532  18.714   8.818
 1604POPC   D2A22372  22.672  18.584   8.388
 1604POPC   C3A22373  22.666  18.857   8.033
 1604POPC   C4A22374  22.764  19.178   7.723
 1604POPC   C1B22375  23.232  19.176   8.809
 1604POPC   C2B22376  23.333  19.328   8.392
 1604POPC   C3B22377  23.181  19.184   8.004
 1604POPC   C4B22378  23.231  19.246   7.553
 1605POPC   NC322379  25.427   7.132   9.430
 1605POPC   PO422380  25.009   7.557   9.633
 1605POPC   GL122381  25.157   7.469   9.141
 1605POPC   GL222382  25.478   7.258   8.953
 1605POPC   C1A22383  25.274   7.640   8.716
 1605POPC   D2A22384  25.169   7.491   8.304
 1605POPC   C3A22385  25.424   7.474   7.962
 1605POPC   C4A22386  25.093   7.656   7.755
 1605POPC   C1B22387  25.111   7.165   8.706
 1605POPC   C2B22388  24.909   7.021   8.341
 1605POPC   C3B22389  25.007   7.121   7.930
 1605POPC   C4B22390  25.398   7.023   7.682
 1606POPC   NC322391  32.712  23.707   9.555
 1606POPC   PO422392  33.395  23.774   9.454
 1606POPC   GL122393  33.085  23.566   9.208
 1606POPC   GL222394  32.875  23.826   9.097
 1606POPC   C1A22395  33.046  23.460   8.770
 1606POPC   D2A22396  32.906  23.217   8.433
 1606POPC   C3A22397  33.032  23.390   8.069
 1606POPC   C4A22398  32.971  23.531   7.655
 1606POPC   C1B22399  32.987  23.956   8.707
 1606POPC   C2B22400  33.180  23.844   8.337
 1606POPC   C3B22401  32.992  23.909   7.984
 1606POPC   C4B22402  32.773  24.112   7.665
 1607POPC   NC322403  36.568  26.093   9.553
 1607POPC   PO422404  37.038  25.690   9.314
 1607POPC   GL122405  36.838  26.057   9.130
 1607POPC   GL222406  37.084  26.319   9.146
 1607POPC   C1A22407  36.719  26.294   8.771
 1607POPC   D2A22408  36.823  26.084   8.377
 1607POPC   C3A22409  36.830  26.221   7.953
 1607POPC   C4A22410  36.776  26.000   7.576
 1607POPC   C1B22411  37.203  26.064   8.763
 1607POPC   C2B22412  37.352  26.229   8.377
 1607POPC   C3B22413  37.344  26.214   7.946
 1607POPC   C4B22414  37.392  25.887   7.684
 1608POPC   NC322415  11.912  29.562   9.335
 1608POPC   PO422416  12.276  29.017   9.463
 1608POPC   GL122417  12.067  29.111   9.117
 1608POPC   GL222418  12.418  29.160   9.001
 1608POPC   C1A22419  12.031  29.343   8.732
 1608POPC   D2A22420  11.988  29.350   8.321
 1608POPC   C3A22421  12.345  29.232   8.097
 1608POPC   C4A22422  12.117  29.128   7.759
 1608POPC   C1B22423  12.260  28.797   8.773
 1608POPC   C2B22424  12.097  28.829   8.378
 1608POPC   C3B22425  12.243  28.679   8.008
 1608POPC   C4B22426  12.462  28.727   7.641
 1609POPC   NC322427  14.100  24.819   9.446
 1609POPC   PO422428  14.719  24.523   9.432
 1609POPC   GL122429  14.421  24.507   9.123
 1609POPC   GL222430  14.455  24.811   8.990
 1609POPC   C1A22431  14.477  24.308   8.703
 1609POPC   D2A22432  14.754  24.342   8.359
 1609POPC   C3A22433  14.588  24.569   7.994
 1609POPC   C4A22434  14.396  24.236   7.760
 1609POPC   C1B22435  14.185  24.715   8.713
 1609POPC   C2B22436  14.179  24.551   8.322
 1609POPC   C3B22437  14.037  24.616   7.918
 1609POPC   C4B22438  13.948  24.394   7.551
 1610POPC   NC322439  43.260  19.293   9.594
 1610POPC   PO422440  43.110  18.615   9.512
 1610POPC   GL122441  43.030  19.019   9.242
 1610POPC   GL222442  43.366  19.184   9.113
 1610POPC   C1A22443  42.834  19.271   8.905
 1610POPC   D2A22444  42.730  18.938   8.584
 1610POPC   C3A22445  42.794  18.939   8.128
 1610POPC   C4A22446  42.856  19.170   7.763
 1610POPC   C1B22447  43.222  18.993   8.742
 1610POPC   C2B22448  43.266  18.849   8.319
 1610POPC   C3B22449  43.330  18.967   7.874
 1610POPC   C4B22450  43.148  18.857   7.458
 1611POPC   NC322451  33.135  17.670   9.495
 1611POPC   PO422452  32.603  17.368   9.253
 1611POPC   GL122453  32.830  17.693   9.078
 1611POPC   GL222454  33.146  17.508   9.020
 1611POPC   C1A22455  32.845  17.856   8.695
 1611POPC   D2A22456  33.009  17.621   8.358
 1611POPC   C3A22457  32.782  17.668   7.990
 1611POPC   C4A22458  32.662  17.278   7.835
 1611POPC   C1B22459  33.105  17.211   8.712
 1611POPC   C2B22460  33.283  16.935   8.425
 1611POPC   C3B22461  33.395  17.001   8.026
 1611POPC   C4B22462  33.200  17.384   7.868
 1612POPC   NC322463  39.108  41.707   9.474
 1612POPC   PO422464  39.578  42.072   9.200
 1612POPC   GL122465  39.430  41.631   9.080
 1612POPC   GL222466  39.068  41.484   9.024
 1612POPC   C1A22467  39.466  41.371   8.735
 1612POPC   D2A22468  39.596  41.530   8.354
 1612POPC   C3A22469  39.260  41.535   8.130
 1612POPC   C4A22470  39.201  41.470   7.722
 1612POPC   C1B22471  38.733  41.622   8.776
 1612POPC   C2B22472  38.772  41.657   8.314
 1612POPC   C3B22473  38.849  41.809   7.883
 1612POPC   C4B22474  38.863  41.985   7.470
 1613POPC   NC322475  18.920   7.518   9.529
 1613POPC   PO422476  19.600   7.285   9.537
 1613POPC   GL122477  19.314   7.415   9.221
 1613POPC   GL222478  19.054   7.125   9.206
 1613POPC   C1A22479  19.107   7.493   8.834
 1613POPC   D2A22480  19.086   7.321   8.428
 1613POPC   C3A22481  19.129   7.624   8.064
 1613POPC   C4A22482  18.997   7.691   7.655
 1613POPC   C1B22483  18.792   7.054   8.833
 1613POPC   C2B22484  18.612   7.098   8.401
 1613POPC   C3B22485  18.884   7.030   8.065
 1613POPC   C4B22486  18.957   7.193   7.691
 1614POPC   NC322487  39.000  31.854   9.291
 1614POPC   PO422488  39.002  32.549   9.294
 1614POPC   GL122489  39.360  32.308   9.164
 1614POPC   GL222490  39.422  32.589   8.949
 1614POPC   C1A22491  39.446  32.107   8.765
 1614POPC   D2A22492  39.176  32.232   8.406
 1614POPC   C3A22493  39.235  32.071   8.001
 1614POPC   C4A22494  38.975  31.888   7.761
 1614POPC   C1B22495  39.141  32.855   8.729
 1614POPC   C2B22496  39.064  32.847   8.319
 1614POPC   C3B22497  38.985  32.541   8.027
 1614POPC   C4B22498  39.201  32.528   7.686
 1615POPC   NC322499   4.100   1.758   9.624
 1615POPC   PO422500   4.495   2.305   9.675
 1615POPC   GL122501   4.405   2.055   9.309
 1615POPC   GL222502   4.064   2.143   9.191
 1615POPC   C1A22503   4.628   1.927   8.893
 1615POPC   D2A22504   4.811   1.865   8.452
 1615POPC   C3A22505   4.615   2.039   8.056
 1615POPC   C4A22506   4.335   2.314   7.770
 1615POPC   C1B22507   4.047   2.283   8.721
 1615POPC   C2B22508   4.128   2.227   8.232
 1615POPC   C3B22509   4.116   1.863   7.896
 1615POPC   C4B22510   3.905   1.634   7.500
 1616POPC   NC322511  21.593  14.488   9.428
 1616POPC   PO422512  20.920  14.380   9.560
 1616POPC   GL122513  21.188  14.236   9.197
 1616POPC   GL222514  21.025  13.929   9.129
 1616POPC   C1A22515  21.382  14.406   8.794
 1616POPC   D2A22516  21.348  14.677   8.420
 1616POPC   C3A22517  21.283  14.518   8.009
 1616POPC   C4A22518  21.564  14.432   7.669
 1616POPC   C1B22519  21.264  13.917   8.749
 1616POPC   C2B22520  21.204  14.139   8.360
 1616POPC   C3B22521  21.037  14.076   7.933
 1616POPC   C4B22522  21.123  14.263   7.510
 1617POPC   NC322523  28.777   2.960   9.557
 1617POPC   PO422524  29.183   3.472   9.557
 1617POPC   GL122525  29.307   3.484   9.152
 1617POPC   GL222526  28.991   3.338   9.116
 1617POPC   C1A22527  29.434   3.421   8.730
 1617POPC   D2A22528  29.242   3.370   8.323
 1617POPC   C3A22529  29.470   3.494   7.929
 1617POPC   C4A22530  29.482   3.819   7.602
 1617POPC   C1B22531  28.949   3.590   8.785
 1617POPC   C2B22532  28.758   3.548   8.431
 1617POPC   C3B22533  28.829   3.428   8.035
 1617POPC   C4B22534  29.019   3.630   7.711
 1618POPC   NC322535  13.006  33.347   9.397
 1618POPC   PO422536  12.659  32.869   9.701
 1618POPC   GL122537  12.626  32.984   9.247
 1618POPC   GL222538  12.976  32.993   9.041
 1618POPC   C1A22539  12.508  32.985   8.811
 1618POPC   D2A22540  12.801  33.078   8.463
 1618POPC   C3A22541  12.689  32.892   8.064
 1618POPC   C4A22542  12.622  33.055   7.654
 1618POPC   C1B22543  13.235  32.909   8.687
 1618POPC   C2B22544  13.294  33.125   8.313
 1618POPC   C3B22545  13.116  33.146   7.914
 1618POPC   C4B22546  13.047  32.782   7.675
 1619POPC   NC322547  28.673  24.111   9.420
 1619POPC   PO422548  28.111  24.546   9.531
 1619POPC   GL122549  28.360  24.525   9.198
 1619POPC   GL222550  28.216  24.188   9.142
 1619POPC   C1A22551  28.439  24.783   8.813
 1619POPC   D2A22552  28.239  24.828   8.395
 1619POPC   C3A22553  28.511  24.770   8.049
 1619POPC   C4A22554  28.524  24.415   7.770
 1619POPC   C1B22555  28.441  24.276   8.754
 1619POPC   C2B22556  28.513  24.239   8.318
 1619POPC   C3B22557  28.275  24.007   8.029
 1619POPC   C4B22558  28.399  23.949   7.589
 1620POPC   NC322559  18.407   2.826   9.479
 1620POPC   PO422560  18.702   3.327   9.227
 1620POPC   GL122561  18.628   3.061   8.877
 1620POPC   GL222562  18.458   2.768   8.985
 1620POPC   C1A22563  18.241   3.063   8.631
 1620POPC   D2A22564  18.164   3.207   8.257
 1620POPC   C3A22565  18.423   3.030   7.961
 1620POPC   C4A22566  18.188   2.874   7.692
 1620POPC   C1B22567  18.256   2.570   8.652
 1620POPC   C2B22568  18.165   2.653   8.226
 1620POPC   C3B22569  18.378   2.452   7.899
 1620POPC   C4B22570  18.409   2.473   7.469
 1621POPC   NC322571  41.296  11.403   9.457
 1621POPC   PO422572  41.867  11.029   9.726
 1621POPC   GL122573  41.752  11.186   9.300
 1621POPC   GL222574  41.788  11.526   9.236
 1621POPC   C1A22575  41.642  11.189   8.827
 1621POPC   D2A22576  41.523  11.421   8.420
 1621POPC   C3A22577  41.400  11.230   8.004
 1621POPC   C4A22578  41.472  10.951   7.625
 1621POPC   C1B22579  42.026  11.584   8.863
 1621POPC   C2B22580  42.035  11.354   8.505
 1621POPC   C3B22581  41.919  11.492   8.106
 1621POPC   C4B22582  41.836  11.281   7.734
 1622POPC   NC322583  34.142  40.932   9.465
 1622POPC   PO422584  34.560  40.466   9.303
 1622POPC   GL122585  34.674  40.808   9.055
 1622POPC   GL222586  34.450  41.032   9.065
 1622POPC   C1A22587  34.819  40.875   8.660
 1622POPC   D2A22588  34.797  41.086   8.299
 1622POPC   C3A22589  34.759  40.783   8.010
 1622POPC   C4A22590  34.813  40.690   7.621
 1622POPC   C1B22591  34.348  41.091   8.628
 1622POPC   C2B22592  34.300  40.887   8.227
 1622POPC   C3B22593  34.326  40.953   7.791
 1622POPC   C4B22594  34.194  40.676   7.435
 1623POPC   NC322595  20.547  13.299   9.866
 1623POPC   PO422596  20.599  12.855   9.299
 1623POPC   GL122597  20.579  12.848   8.965
 1623POPC   GL222598  20.620  13.181   8.891
 1623POPC   C1A22599  20.786  12.754   8.643
 1623POPC   D2A22600  20.597  12.857   8.297
 1623POPC   C3A22601  20.842  12.783   7.971
 1623POPC   C4A22602  20.744  13.137   7.758
 1623POPC   C1B22603  20.235  13.068   8.650
 1623POPC   C2B22604  19.999  13.125   8.283
 1623POPC   C3B22605  20.248  13.051   7.898
 1623POPC   C4B22606  20.373  13.224   7.443
 1624POPC   NC322607   3.322  37.482   9.570
 1624POPC   PO422608   3.704  37.995   9.625
 1624POPC   GL122609   3.524  37.801   9.197
 1624POPC   GL222610   3.245  37.538   9.084
 1624POPC   C1A22611   3.663  37.510   8.831
 1624POPC   D2A22612   3.442  37.461   8.444
 1624POPC   C3A22613   3.609  37.805   8.204
 1624POPC   C4A22614   3.706  37.750   7.780
 1624POPC   C1B22615   3.241  37.835   8.745
 1624POPC   C2B22616   3.107  37.859   8.311
 1624POPC   C3B22617   3.210  37.594   7.933
 1624POPC   C4B22618   3.311  37.667   7.480
 1625POPC   NC322619  41.903   6.303   9.594
 1625POPC   PO422620  42.373   6.821   9.662
 1625POPC   GL122621  42.166   6.810   9.251
 1625POPC   GL222622  41.815   6.829   9.182
 1625POPC   C1A22623  42.254   6.789   8.798
 1625POPC   D2A22624  42.503   6.658   8.415
 1625POPC   C3A22625  42.378   6.788   7.981
 1625POPC   C4A22626  42.409   6.511   7.647
 1625POPC   C1B22627  41.893   6.437   8.951
 1625POPC   C2B22628  42.129   6.329   8.589
 1625POPC   C3B22629  42.091   6.423   8.153
 1625POPC   C4B22630  42.016   6.159   7.802
 1626POPC   NC322631  35.702  25.766   9.557
 1626POPC   PO422632  35.170  26.145   9.792
 1626POPC   GL122633  35.241  26.088   9.266
 1626POPC   GL222634  35.492  25.936   9.129
 1626POPC   C1A22635  35.117  26.044   8.790
 1626POPC   D2A22636  35.081  25.812   8.409
 1626POPC   C3A22637  35.114  26.056   8.030
 1626POPC   C4A22638  35.273  26.234   7.674
 1626POPC   C1B22639  35.482  25.699   8.774
 1626POPC   C2B22640  35.568  25.615   8.368
 1626POPC   C3B22641  35.596  25.906   8.068
 1626POPC   C4B22642  35.427  25.753   7.712
 1627POPC   NC322643  39.446  27.248   9.360
 1627POPC   PO422644  38.913  27.564   9.674
 1627POPC   GL122645  39.028  27.528   9.220
 1627POPC   GL222646  39.230  27.810   9.137
 1627POPC   C1A22647  39.231  27.460   8.766
 1627POPC   D2A22648  39.182  27.284   8.321
 1627POPC   C3A22649  39.008  27.545   7.985
 1627POPC   C4A22650  39.028  27.593   7.537
 1627POPC   C1B22651  39.546  28.061   8.925
 1627POPC   C2B22652  39.606  28.058   8.468
 1627POPC   C3B22653  39.756  27.990   8.031
 1627POPC   C4B22654  39.459  27.761   7.792
 1628POPC   NC322655  23.347  41.375   9.365
 1628POPC   PO422656  23.733  41.869   9.448
 1628POPC   GL122657  23.631  41.805   9.032
 1628POPC   GL222658  23.762  41.458   9.047
 1628POPC   C1A22659  23.745  41.825   8.585
 1628POPC   D2A22660  23.755  41.518   8.244
 1628POPC   C3A22661  23.613  41.666   7.833
 1628POPC   C4A22662  23.882  41.865   7.534
 1628POPC   C1B22663  23.455  41.392   8.715
 1628POPC   C2B22664  23.453  41.099   8.376
 1628POPC   C3B22665  23.476  41.168   7.947
 1628POPC   C4B22666  23.226  41.375   7.660
 1629POPC   NC322667   4.724  36.436   9.383
 1629POPC   PO422668   5.335  36.127   9.576
 1629POPC   GL122669   5.312  36.028   9.133
 1629POPC   GL222670   4.975  36.085   9.105
 1629POPC   C1A22671   5.272  36.110   8.678
 1629POPC   D2A22672   5.369  36.355   8.332
 1629POPC   C3A22673   5.294  36.068   8.025
 1629POPC   C4A22674   5.380  36.048   7.626
 1629POPC   C1B22675   4.778  36.187   8.730
 1629POPC   C2B22676   4.881  36.125   8.303
 1629POPC   C3B22677   4.847  36.218   7.861
 1629POPC   C4B22678   4.897  35.915   7.497
 1630POPC   NC322679   1.320  32.676   9.595
 1630POPC   PO422680   1.330  33.383   9.565
 1630POPC   GL122681   1.320  33.145   9.170
 1630POPC   GL222682   0.990  32.987   9.222
 1630POPC   C1A22683   1.410  33.293   8.736
 1630POPC   D2A22684   1.599  33.286   8.333
 1630POPC   C3A22685   1.386  33.009   8.022
 1630POPC   C4A22686   1.232  32.914   7.615
 1630POPC   C1B22687   0.899  33.187   8.816
 1630POPC   C2B22688   1.027  33.151   8.375
 1630POPC   C3B22689   0.882  33.008   7.989
 1630POPC   C4B22690   0.696  33.089   7.620
 1631POPC   NC322691  21.196  10.867   9.526
 1631POPC   PO422692  21.756  10.473   9.444
 1631POPC   GL122693  21.451  10.566   9.150
 1631POPC   GL222694  21.437  10.228   9.114
 1631POPC   C1A22695  21.411  10.827   8.772
 1631POPC   D2A22696  21.252  10.740   8.350
 1631POPC   C3A22697  21.480  10.426   8.116
 1631POPC   C4A22698  21.514  10.481   7.682
 1631POPC   C1B22699  21.335  10.325   8.679
 1631POPC   C2B22700  21.070  10.210   8.325
 1631POPC   C3B22701  21.036  10.357   7.894
 1631POPC   C4B22702  21.166  10.111   7.558
 1632POPC   NC322703  44.695   6.429   9.530
 1632POPC   PO422704  44.645   7.094   9.338
 1632POPC   GL122705  44.558   6.755   9.126
 1632POPC   GL222706  44.349   6.937   8.927
 1632POPC   C1A22707  44.767   6.563   8.761
 1632POPC   D2A22708   0.033   6.467   8.388
 1632POPC   C3A22709  44.816   6.504   7.989
 1632POPC   C4A22710  44.813   6.849   7.718
 1632POPC   C1B22711  44.258   6.527   8.736
 1632POPC   C2B22712  44.434   6.519   8.348
 1632POPC   C3B22713  44.389   6.769   7.995
 1632POPC   C4B22714  44.381   6.476   7.668
 1633POPC   NC322715  13.702  34.682   9.621
 1633POPC   PO422716  13.339  34.109   9.721
 1633POPC   GL122717  13.552  34.268   9.330
 1633POPC   GL222718  13.355  34.580   9.164
 1633POPC   C1A22719  13.707  34.284   8.912
 1633POPC   D2A22720  13.637  34.597   8.576
 1633POPC   C3A22721  13.670  34.524   8.119
 1633POPC   C4A22722  13.740  34.778   7.749
 1633POPC   C1B22723  13.211  34.376   8.757
 1633POPC   C2B22724  13.321  34.203   8.359
 1633POPC   C3B22725  13.204  34.286   7.944
 1633POPC   C4B22726  13.273  34.625   7.687
 1634POPC   NC322727  37.275  16.888   9.224
 1634POPC   PO422728  36.694  16.632   9.491
 1634POPC   GL122729  36.680  16.785   9.131
 1634POPC   GL222730  36.897  16.535   8.997
 1634POPC   C1A22731  36.730  17.067   8.830
 1634POPC   D2A22732  36.913  16.821   8.534
 1634POPC   C3A22733  36.758  16.959   8.163
 1634POPC   C4A22734  37.061  16.951   7.893
 1634POPC   C1B22735  36.700  16.321   8.648
 1634POPC   C2B22736  36.621  16.486   8.285
 1634POPC   C3B22737  36.805  16.507   7.885
 1634POPC   C4B22738  36.919  16.376   7.499
 1635POPC   NC322739  21.020  39.656   9.368
 1635POPC   PO422740  20.938  40.281   9.617
 1635POPC   GL122741  20.677  40.257   9.224
 1635POPC   GL222742  20.501  39.929   9.091
 1635POPC   C1A22743  20.574  40.336   8.796
 1635POPC   D2A22744  20.507  40.086   8.464
 1635POPC   C3A22745  20.719  40.230   8.137
 1635POPC   C4A22746  20.747  40.218   7.719
 1635POPC   C1B22747  20.871  39.905   8.794
 1635POPC   C2B22748  21.148  39.895   8.415
 1635POPC   C3B22749  21.061  39.889   7.968
 1635POPC   C4B22750  20.859  39.719   7.606
 1636POPC   NC322751  30.629  20.338   9.427
 1636POPC   PO422752  30.701  21.003   9.392
 1636POPC   GL122753  30.744  20.688   9.056
 1636POPC   GL222754  30.860  20.328   8.964
 1636POPC   C1A22755  30.642  20.756   8.654
 1636POPC   D2A22756  30.902  20.612   8.332
 1636POPC   C3A22757  30.981  20.801   7.950
 1636POPC   C4A22758  30.691  20.792   7.628
 1636POPC   C1B22759  30.474  20.294   8.741
 1636POPC   C2B22760  30.341  20.451   8.345
 1636POPC   C3B22761  30.605  20.391   7.997
 1636POPC   C4B22762  30.650  20.019   7.782
 1637POPC   NC322763   8.042  37.197   9.453
 1637POPC   PO422764   8.410  37.819   9.562
 1637POPC   GL122765   8.350  37.628   9.198
 1637POPC   GL222766   8.549  37.897   9.052
 1637POPC   C1A22767   8.077  37.477   8.876
 1637POPC   D2A22768   8.125  37.307   8.501
 1637POPC   C3A22769   7.769  37.374   8.195
 1637POPC   C4A22770   7.842  37.429   7.740
 1637POPC   C1B22771   8.418  37.770   8.651
 1637POPC   C2B22772   8.090  37.788   8.366
 1637POPC   C3B22773   8.134  37.806   7.947
 1637POPC   C4B22774   8.520  37.916   7.713
 1638POPC   NC322775  18.785  28.638   9.289
 1638POPC   PO422776  18.908  28.141   9.726
 1638POPC   GL122777  19.149  28.242   9.181
 1638POPC   GL222778  19.159  28.596   8.964
 1638POPC   C1A22779  19.085  28.181   8.700
 1638POPC   D2A22780  19.288  28.523   8.468
 1638POPC   C3A22781  19.156  28.550   8.062
 1638POPC   C4A22782  19.127  28.185   7.798
 1638POPC   C1B22783  18.781  28.646   8.653
 1638POPC   C2B22784  18.497  28.691   8.290
 1638POPC   C3B22785  18.714  28.811   7.909
 1638POPC   C4B22786  18.987  28.612   7.581
 1639POPC   NC322787  44.394   2.372   9.259
 1639POPC   PO422788  44.800   2.777   9.658
 1639POPC   GL122789  44.641   2.829   9.244
 1639POPC   GL222790  44.506   3.165   9.315
 1639POPC   C1A22791  44.692   2.702   8.785
 1639POPC   D2A22792  44.768   2.562   8.351
 1639POPC   C3A22793  44.617   2.684   7.942
 1639POPC   C4A22794  44.867   2.528   7.586
 1639POPC   C1B22795  44.490   3.157   8.867
 1639POPC   C2B22796  44.725   3.111   8.468
 1639POPC   C3B22797  44.695   3.220   8.030
 1639POPC   C4B22798  44.432   3.128   7.704
 1640POPC   NC322799  33.431  11.004   9.641
 1640POPC   PO422800  32.797  10.675   9.579
 1640POPC   GL122801  33.075  10.501   9.256
 1640POPC   GL222802  33.285  10.759   9.166
 1640POPC   C1A22803  33.152  10.340   8.836
 1640POPC   D2A22804  32.914  10.501   8.453
 1640POPC   C3A22805  33.043  10.460   8.037
 1640POPC   C4A22806  32.873  10.622   7.672
 1640POPC   C1B22807  33.106  10.845   8.765
 1640POPC   C2B22808  33.287  10.857   8.325
 1640POPC   C3B22809  33.362  10.805   7.870
 1640POPC   C4B22810  33.295  10.775   7.406
 1641POPC   NC322811   8.822  43.386   9.337
 1641POPC   PO422812   8.998  43.995   9.528
 1641POPC   GL122813   9.059  44.187   9.139
 1641POPC   GL222814   8.742  44.381   9.203
 1641POPC   C1A22815   9.217  44.075   8.704
 1641POPC   D2A22816   9.235  43.710   8.429
 1641POPC   C3A22817   9.026  43.732   8.035
 1641POPC   C4A22818   9.245  43.739   7.617
 1641POPC   C1B22819   8.657  44.144   8.842
 1641POPC   C2B22820   8.706  43.865   8.498
 1641POPC   C3B22821   8.546  43.981   8.087
 1641POPC   C4B22822   8.643  44.197   7.699
 1642POPC   NC322823  20.538  15.796   9.974
 1642POPC   PO422824  20.872  16.269   9.565
 1642POPC   GL122825  20.764  15.976   9.177
 1642POPC   GL222826  20.434  15.825   9.166
 1642POPC   C1A22827  20.645  15.839   8.708
 1642POPC   D2A22828  20.335  15.750   8.416
 1642POPC   C3A22829  20.616  15.782   8.104
 1642POPC   C4A22830  20.719  16.131   7.868
 1642POPC   C1B22831  20.387  16.231   8.844
 1642POPC   C2B22832  20.510  16.256   8.392
 1642POPC   C3B22833  20.270  16.328   8.008
 1642POPC   C4B22834  20.358  16.275   7.544
 1643POPC   NC322835  42.617  44.274   9.487
 1643POPC   PO422836  42.306  43.726   9.774
 1643POPC   GL122837  42.488  43.792   9.345
 1643POPC   GL222838  42.261  44.035   9.192
 1643POPC   C1A22839  42.581  43.788   8.877
 1643POPC   D2A22840  42.697  43.781   8.402
 1643POPC   C3A22841  42.573  43.673   7.964
 1643POPC   C4A22842  42.482  43.794   7.529
 1643POPC   C1B22843  42.112  43.891   8.756
 1643POPC   C2B22844  42.176  43.862   8.302
 1643POPC   C3B22845  42.082  43.842   7.843
 1643POPC   C4B22846  41.986  43.861   7.379
 1644POPC   NC322847  20.822   2.532   9.526
 1644POPC   PO422848  20.398   3.079   9.428
 1644POPC   GL122849  20.431   2.953   9.050
 1644POPC   GL222850  20.800   2.928   9.104
 1644POPC   C1A22851  20.285   2.836   8.640
 1644POPC   D2A22852  20.358   2.974   8.244
 1644POPC   C3A22853  20.602   2.702   8.026
 1644POPC   C4A22854  20.777   2.732   7.637
 1644POPC   C1B22855  20.657   2.541   8.879
 1644POPC   C2B22856  20.536   2.388   8.486
 1644POPC   C3B22857  20.475   2.217   8.100
 1644POPC   C4B22858  20.465   2.327   7.676
 1645POPC   NC322859  35.743  29.254   9.465
 1645POPC   PO422860  35.071  29.400   9.468
 1645POPC   GL122861  35.098  29.369   9.080
 1645POPC   GL222862  35.431  29.223   9.057
 1645POPC   C1A22863  35.185  29.555   8.706
 1645POPC   D2A22864  34.983  29.363   8.369
 1645POPC   C3A22865  35.107  29.410   7.952
 1645POPC   C4A22866  34.917  29.048   7.739
 1645POPC   C1B22867  35.266  29.036   8.683
 1645POPC   C2B22868  35.401  29.064   8.254
 1645POPC   C3B22869  35.578  29.176   7.861
 1645POPC   C4B22870  35.450  28.910   7.544
 1646POPC   NC322871  43.400  31.419   9.413
 1646POPC   PO422872  42.773  31.666   9.509
 1646POPC   GL122873  42.898  31.319   9.253
 1646POPC   GL222874  43.047  31.608   9.078
 1646POPC   C1A22875  43.093  31.171   8.868
 1646POPC   D2A22876  43.139  31.508   8.556
 1646POPC   C3A22877  43.124  31.380   8.128
 1646POPC   C4A22878  43.353  31.425   7.738
 1646POPC   C1B22879  42.821  31.871   8.821
 1646POPC   C2B22880  42.917  31.950   8.407
 1646POPC   C3B22881  42.886  31.808   7.980
 1646POPC   C4B22882  42.652  31.816   7.599
 1647POPC   NC322883  23.623  27.768   9.565
 1647POPC   PO422884  24.012  27.134   9.571
 1647POPC   GL122885  23.871  27.399   9.236
 1647POPC   GL222886  23.504  27.367   9.148
 1647POPC   C1A22887  23.840  27.633   8.855
 1647POPC   D2A22888  23.711  27.823   8.481
 1647POPC   C3A22889  23.773  27.609   8.103
 1647POPC   C4A22890  23.928  27.756   7.699
 1647POPC   C1B22891  23.274  27.414   8.756
 1647POPC   C2B22892  23.292  27.537   8.316
 1647POPC   C3B22893  23.359  27.368   7.930
 1647POPC   C4B22894  23.672  27.295   7.635
 1648POPC   NC322895  30.000   4.993   9.425
 1648POPC   PO422896  30.510   5.500   9.387
 1648POPC   GL122897  30.166   5.363   9.099
 1648POPC   GL222898  29.808   5.377   9.106
 1648POPC   C1A22899  30.032   5.056   8.766
 1648POPC   D2A22900  29.940   4.768   8.430
 1648POPC   C3A22901  29.640   4.859   8.111
 1648POPC   C4A22902  29.967   5.055   7.898
 1648POPC   C1B22903  29.773   5.528   8.727
 1648POPC   C2B22904  29.758   5.279   8.390
 1648POPC   C3B22905  29.641   5.424   8.045
 1648POPC   C4B22906  29.494   5.286   7.709
 1649POPC   NC322907   5.986  44.910   9.696
 1649POPC   PO422908   5.849  44.351   9.749
 1649POPC   GL122909   5.930  44.568   9.296
 1649POPC   GL222910   6.109  44.916   9.202
 1649POPC   C1A22911   5.791  44.603   8.835
 1649POPC   D2A22912   5.907  44.653   8.378
 1649POPC   C3A22913   5.583  44.630   8.028
 1649POPC   C4A22914   5.480  44.688   7.556
 1649POPC   C1B22915   6.255  44.784   8.789
 1649POPC   C2B22916   6.340  44.901   8.372
 1649POPC   C3B22917   6.282  44.722   7.988
 1649POPC   C4B22918   5.961  44.667   7.700
 1650POPC   NC322919   1.503  18.058   9.352
 1650POPC   PO422920   1.665  18.682   9.472
 1650POPC   GL122921   1.399  18.527   9.119
 1650POPC   GL222922   1.089  18.359   9.213
 1650POPC   C1A22923   1.331  18.265   8.757
 1650POPC   D2A22924   1.360  17.934   8.499
 1650POPC   C3A22925   1.166  18.026   8.132
 1650POPC   C4A22926   1.351  18.259   7.795
 1650POPC   C1B22927   0.886  18.475   8.861
 1650POPC   C2B22928   0.880  18.280   8.483
 1650POPC   C3B22929   0.910  18.457   8.073
 1650POPC   C4B22930   0.845  18.175   7.732
 1651POPC   NC322931  18.578  14.923   9.492
 1651POPC   PO422932  17.834  14.804   9.499
 1651POPC   GL122933  18.156  14.904   9.179
 1651POPC   GL222934  18.356  15.239   9.165
 1651POPC   C1A22935  18.244  14.807   8.756
 1651POPC   D2A22936  18.392  15.010   8.394
 1651POPC   C3A22937  18.180  14.842   8.063
 1651POPC   C4A22938  18.295  14.902   7.662
 1651POPC   C1B22939  18.159  15.329   8.755
 1651POPC   C2B22940  18.152  15.445   8.314
 1651POPC   C3B22941  18.294  15.349   7.909
 1651POPC   C4B22942  18.355  15.363   7.439
 1652POPC   NC322943   5.753  35.949   9.409
 1652POPC   PO422944   6.241  36.383   9.396
 1652POPC   GL122945   6.047  36.185   9.061
 1652POPC   GL222946   6.063  35.847   8.980
 1652POPC   C1A22947   5.771  36.274   8.734
 1652POPC   D2A22948   5.849  36.140   8.330
 1652POPC   C3A22949   5.726  36.327   7.938
 1652POPC   C4A22950   5.941  36.430   7.583
 1652POPC   C1B22951   5.637  35.784   8.786
 1652POPC   C2B22952   5.467  35.718   8.370
 1652POPC   C3B22953   5.707  35.796   7.989
 1652POPC   C4B22954   6.019  35.903   7.730
 1653POPC   NC322955  33.850   6.425   9.703
 1653POPC   PO422956  33.565   7.000   9.476
 1653POPC   GL122957  33.607   6.759   9.113
 1653POPC   GL222958  33.818   6.493   9.203
 1653POPC   C1A22959  33.883   6.728   8.740
 1653POPC   D2A22960  33.991   6.774   8.307
 1653POPC   C3A22961  33.676   6.856   7.993
 1653POPC   C4A22962  33.929   6.702   7.669
 1653POPC   C1B22963  33.648   6.289   8.854
 1653POPC   C2B22964  33.538   6.469   8.444
 1653POPC   C3B22965  33.738   6.354   8.073
 1653POPC   C4B22966  33.572   6.337   7.685
 1654POPC   NC322967  43.493  13.790   9.362
 1654POPC   PO422968  44.183  13.673   9.426
 1654POPC   GL122969  43.893  13.531   9.127
 1654POPC   GL222970  44.139  13.373   8.957
 1654POPC   C1A22971  43.609  13.530   8.767
 1654POPC   D2A22972  43.472  13.360   8.351
 1654POPC   C3A22973  43.714  13.494   7.946
 1654POPC   C4A22974  43.709  13.718   7.530
 1654POPC   C1B22975  44.085  13.741   8.691
 1654POPC   C2B22976  44.030  13.468   8.352
 1654POPC   C3B22977  44.238  13.378   7.972
 1654POPC   C4B22978  44.172  13.480   7.556
 1655POPC   NC322979   7.438  10.137   9.390
 1655POPC   PO422980   7.790   9.550   9.408
 1655POPC   GL122981   7.574   9.671   9.065
 1655POPC   GL222982   7.233   9.729   9.118
 1655POPC   C1A22983   7.479   9.758   8.647
 1655POPC   D2A22984   7.645   9.944   8.296
 1655POPC   C3A22985   7.393   9.831   7.935
 1655POPC   C4A22986   7.386   9.732   7.481
 1655POPC   C1B22987   7.028   9.961   8.767
 1655POPC   C2B22988   7.147  10.079   8.359
 1655POPC   C3B22989   6.951  10.060   7.954
 1655POPC   C4B22990   6.977  10.037   7.478
 1656POPC   NC322991  38.516  27.254   9.726
 1656POPC   PO422992  38.444  26.596   9.606
 1656POPC   GL122993  38.403  26.637   9.194
 1656POPC   GL222994  38.123  26.359   9.091
 1656POPC   C1A22995  38.620  26.829   8.830
 1656POPC   D2A22996  38.766  26.985   8.427
 1656POPC   C3A22997  38.577  26.831   8.076
 1656POPC   C4A22998  38.693  26.691   7.715
 1656POPC   C1B22999  38.113  26.697   8.807
 1656POPC   C2B23000  38.235  26.868   8.454
 1656POPC   C3B23001  38.094  26.677   8.079
 1656POPC   C4B23002  38.181  26.690   7.688
 1657POPC   NC323003  25.731  37.252   9.565
 1657POPC   PO423004  26.107  37.901   9.563
 1657POPC   GL123005  25.931  37.844   9.197
 1657POPC   GL223006  26.151  37.629   9.056
 1657POPC   C1A23007  25.874  37.988   8.779
 1657POPC   D2A23008  26.084  37.814   8.414
 1657POPC   C3A23009  25.867  37.910   8.024
 1657POPC   C4A23010  25.934  37.615   7.680
 1657POPC   C1B23011  26.398  37.513   8.709
 1657POPC   C2B23012  26.541  37.579   8.307
 1657POPC   C3B23013  26.378  37.462   7.924
 1657POPC   C4B23014  26.406  37.570   7.496
 1658POPC   NC323015  12.014  13.482   9.569
 1658POPC   PO423016  12.681  13.574   9.408
 1658POPC   GL123017  12.298  13.450   9.138
 1658POPC   GL223018  11.932  13.570   9.085
 1658POPC   C1A23019  12.115  13.274   8.725
 1658POPC   D2A23020  12.179  13.079   8.316
 1658POPC   C3A23021  12.036  13.375   7.992
 1658POPC   C4A23022  12.181  13.781   7.839
 1658POPC   C1B23023  12.008  13.775   8.698
 1658POPC   C2B23024  11.802  13.741   8.288
 1658POPC   C3B23025  11.708  13.973   7.891
 1658POPC   C4B23026  11.634  13.817   7.444
 1659POPC   NC323027  17.451  28.909   9.571
 1659POPC   PO423028  17.325  29.575   9.575
 1659POPC   GL123029  17.268  29.352   9.195
 1659POPC   GL223030  17.599  29.175   9.146
 1659POPC   C1A23031  17.363  29.409   8.739
 1659POPC   D2A23032  17.503  29.431   8.319
 1659POPC   C3A23033  17.228  29.520   7.977
 1659POPC   C4A23034  17.482  29.335   7.697
 1659POPC   C1B23035  17.280  28.927   8.918
 1659POPC   C2B23036  17.097  28.937   8.530
 1659POPC   C3B23037  17.220  29.022   8.110
 1659POPC   C4B23038  17.323  28.842   7.729
 1660POPC   NC323039  38.793  34.666   9.506
 1660POPC   PO423040  38.384  34.254   9.755
 1660POPC   GL123041  38.366  34.298   9.271
 1660POPC   GL223042  38.384  34.675   9.196
 1660POPC   C1A23043  38.575  34.360   8.856
 1660POPC   D2A23044  38.571  34.527   8.459
 1660POPC   C3A23045  38.405  34.404   8.053
 1660POPC   C4A23046  38.457  34.523   7.666
 1660POPC   C1B23047  38.274  34.818   8.764
 1660POPC   C2B23048  38.357  34.974   8.335
 1660POPC   C3B23049  38.574  34.923   7.976
 1660POPC   C4B23050  38.717  34.961   7.557
 1661POPC   NC323051  23.151   3.830   9.438
 1661POPC   PO423052  22.807   3.264   9.621
 1661POPC   GL123053  22.800   3.508   9.213
 1661POPC   GL223054  22.988   3.308   9.017
 1661POPC   C1A23055  22.785   3.764   8.801
 1661POPC   D2A23056  22.896   3.971   8.395
 1661POPC   C3A23057  22.788   3.787   8.006
 1661POPC   C4A23058  22.445   3.907   7.727
 1661POPC   C1B23059  23.253   3.542   8.722
 1661POPC   C2B23060  23.101   3.515   8.325
 1661POPC   C3B23061  22.894   3.286   8.014
 1661POPC   C4B23062  23.209   3.304   7.744
 1662POPC   NC323063  44.702  23.530   9.527
 1662POPC   PO423064  44.508  22.875   9.556
 1662POPC   GL123065  44.560  23.009   9.156
 1662POPC   GL223066  44.241  23.170   9.200
 1662POPC   C1A23067  44.679  22.882   8.709
 1662POPC   D2A23068  44.475  22.680   8.335
 1662POPC   C3A23069  44.735  22.745   7.969
 1662POPC   C4A23070   0.007  23.048   7.761
 1662POPC   C1B23071  44.218  23.045   8.783
 1662POPC   C2B23072  44.287  23.154   8.368
 1662POPC   C3B23073  44.335  23.037   7.952
 1662POPC   C4B23074  44.137  23.155   7.587
 1663POPC   NC323075  25.671   9.562   9.534
 1663POPC   PO423076  26.236   9.944   9.510
 1663POPC   GL123077  26.261   9.749   9.145
 1663POPC   GL223078  25.902   9.753   9.125
 1663POPC   C1A23079  26.210   9.742   8.710
 1663POPC   D2A23080  26.161   9.490   8.359
 1663POPC   C3A23081  26.254   9.750   7.998
 1663POPC   C4A23082  26.226  10.061   7.679
 1663POPC   C1B23083  25.764   9.509   8.772
 1663POPC   C2B23084  25.593   9.524   8.353
 1663POPC   C3B23085  25.800   9.450   7.998
 1663POPC   C4B23086  25.907   9.595   7.636
 1664POPC   NC323087  10.015  32.381   9.399
 1664POPC   PO423088   9.422  32.056   9.499
 1664POPC   GL123089   9.677  31.972   9.151
 1664POPC   GL223090  10.026  31.983   9.079
 1664POPC   C1A23091   9.634  32.121   8.744
 1664POPC   D2A23092   9.621  32.318   8.361
 1664POPC   C3A23093   9.584  32.058   8.042
 1664POPC   C4A23094   9.519  31.907   7.667
 1664POPC   C1B23095  10.136  32.264   8.738
 1664POPC   C2B23096  10.102  32.470   8.342
 1664POPC   C3B23097  10.008  32.315   7.919
 1664POPC   C4B23098  10.162  32.239   7.499
 1665POPC   NC323099   0.443   8.899   9.629
 1665POPC   PO423100   0.238   8.246   9.488
 1665POPC   GL123101   0.481   8.057   9.192
 1665POPC   GL223102   0.234   7.850   9.076
 1665POPC   C1A23103   0.522   8.107   8.745
 1665POPC   D2A23104   0.296   8.392   8.507
 1665POPC   C3A23105   0.373   8.341   8.080
 1665POPC   C4A23106   0.315   8.134   7.689
 1665POPC   C1B23107   0.011   7.790   8.722
 1665POPC   C2B23108   0.145   7.945   8.347
 1665POPC   C3B23109   0.412   7.793   8.054
 1665POPC   C4B23110   0.283   7.610   7.674
 1666POPC   NC323111  17.694  13.943   9.307
 1666POPC   PO423112  17.677  13.305   9.335
 1666POPC   GL123113  17.523  13.319   8.980
 1666POPC   GL223114  17.767  13.622   8.907
 1666POPC   C1A23115  17.551  13.317   8.556
 1666POPC   D2A23116  17.648  13.658   8.290
 1666POPC   C3A23117  17.685  13.417   7.900
 1666POPC   C4A23118  17.339  13.149   7.688
 1666POPC   C1B23119  17.347  13.772   8.734
 1666POPC   C2B23120  17.134  13.884   8.321
 1666POPC   C3B23121  17.392  13.887   7.906
 1666POPC   C4B23122  17.850  13.937   7.883
 1667POPC   NC323123  42.230  13.064   9.415
 1667POPC   PO423124  42.709  12.628   9.353
 1667POPC   GL123125  42.558  12.898   9.064
 1667POPC   GL223126  42.230  12.802   8.979
 1667POPC   C1A23127  42.534  13.039   8.660
 1667POPC   D2A23128  42.200  12.895   8.367
 1667POPC   C3A23129  42.055  13.193   8.042
 1667POPC   C4A23130  42.124  13.010   7.665
 1667POPC   C1B23131  42.510  12.533   8.703
 1667POPC   C2B23132  42.681  12.629   8.316
 1667POPC   C3B23133  42.529  12.864   7.947
 1667POPC   C4B23134  42.488  12.718   7.505
 1668POPC   NC323135   2.125  30.871   9.556
 1668POPC   PO423136   1.792  30.320   9.434
 1668POPC   GL123137   1.901  30.630   9.165
 1668POPC   GL223138   2.244  30.571   9.155
 1668POPC   C1A23139   1.913  30.995   8.891
 1668POPC   D2A23140   1.923  30.926   8.449
 1668POPC   C3A23141   1.880  30.761   8.027
 1668POPC   C4A23142   1.773  30.979   7.656
 1668POPC   C1B23143   2.330  30.734   8.764
 1668POPC   C2B23144   2.279  30.576   8.359
 1668POPC   C3B23145   2.220  30.399   7.959
 1668POPC   C4B23146   2.167  30.615   7.567
 1669POPC   NC323147  15.920  23.139  10.069
 1669POPC   PO423148  15.827  22.724   9.514
 1669POPC   GL123149  16.074  22.917   9.213
 1669POPC   GL223150  15.753  22.940   8.996
 1669POPC   C1A23151  16.201  22.813   8.802
 1669POPC   D2A23152  15.867  22.858   8.472
 1669POPC   C3A23153  16.001  22.776   8.052
 1669POPC   C4A23154  15.938  22.898   7.660
 1669POPC   C1B23155  15.600  23.319   8.769
 1669POPC   C2B23156  15.715  23.388   8.352
 1669POPC   C3B23157  15.617  23.143   8.007
 1669POPC   C4B23158  15.628  23.309   7.618
 1670POPC   NC323159  14.427  34.056   9.331
 1670POPC   PO423160  14.698  33.515   9.684
 1670POPC   GL123161  14.595  33.593   9.184
 1670POPC   GL223162  14.813  33.795   9.044
 1670POPC   C1A23163  14.380  33.717   8.753
 1670POPC   D2A23164  14.216  33.786   8.336
 1670POPC   C3A23165  14.247  34.143   8.119
 1670POPC   C4A23166  14.366  33.947   7.770
 1670POPC   C1B23167  14.709  34.100   8.716
 1670POPC   C2B23168  14.720  34.052   8.288
 1670POPC   C3B23169  14.777  33.772   7.988
 1670POPC   C4B23170  14.732  33.617   7.585
 1671POPC   NC323171  12.974  16.598   9.513
 1671POPC   PO423172  12.272  16.684   9.557
 1671POPC   GL123173  12.428  16.555   9.079
 1671POPC   GL223174  12.770  16.723   9.063
 1671POPC   C1A23175  12.525  16.636   8.649
 1671POPC   D2A23176  12.602  16.875   8.333
 1671POPC   C3A23177  12.641  16.630   8.028
 1671POPC   C4A23178  12.955  16.483   7.755
 1671POPC   C1B23179  12.974  16.891   8.684
 1671POPC   C2B23180  13.095  16.771   8.240
 1671POPC   C3B23181  13.222  16.906   7.832
 1671POPC   C4B23182  13.361  16.710   7.451
 1672POPC   NC323183  21.311  28.430   9.538
 1672POPC   PO423184  21.216  27.813   9.503
 1672POPC   GL123185  21.216  28.156   9.125
 1672POPC   GL223186  21.419  28.502   9.063
 1672POPC   C1A23187  21.455  28.126   8.723
 1672POPC   D2A23188  21.488  27.829   8.381
 1672POPC   C3A23189  21.453  28.066   8.009
 1672POPC   C4A23190  21.585  28.255   7.591
 1672POPC   C1B23191  21.107  28.538   8.754
 1672POPC   C2B23192  21.142  28.369   8.332
 1672POPC   C3B23193  21.260  28.529   7.922
 1672POPC   C4B23194  21.256  28.629   7.449
 1673POPC   NC323195  29.285  24.782   9.304
 1673POPC   PO423196  28.977  25.365   9.259
 1673POPC   GL123197  29.404  25.287   9.080
 1673POPC   GL223198  29.469  25.636   9.019
 1673POPC   C1A23199  29.559  24.988   8.718
 1673POPC   D2A23200  29.323  24.714   8.391
 1673POPC   C3A23201  29.045  24.998   8.121
 1673POPC   C4A23202  29.164  25.160   7.724
 1673POPC   C1B23203  29.219  25.560   8.637
 1673POPC   C2B23204  29.220  25.524   8.167
 1673POPC   C3B23205  29.191  25.655   7.739
 1673POPC   C4B23206  29.310  25.464   7.324
 1674POPC   NC323207  13.124  24.519   9.752
 1674POPC   PO423208  13.724  24.427   9.403
 1674POPC   GL123209  13.726  24.641   9.009
 1674POPC   GL223210  13.489  24.403   8.856
 1674POPC   C1A23211  13.708  24.695   8.544
 1674POPC   D2A23212  13.693  24.327   8.329
 1674POPC   C3A23213  13.554  24.399   7.962
 1674POPC   C4A23214  13.499  24.704   7.671
 1674POPC   C1B23215  13.281  24.041   8.783
 1674POPC   C2B23216  13.191  24.118   8.408
 1674POPC   C3B23217  13.062  24.176   8.025
 1674POPC   C4B23218  13.182  24.297   7.630
 1675POPC   NC323219  15.505  20.653   9.538
 1675POPC   PO423220  14.879  20.860   9.513
 1675POPC   GL123221  15.115  20.632   9.131
 1675POPC   GL223222  15.449  20.426   9.083
 1675POPC   C1A23223  15.041  20.399   8.742
 1675POPC   D2A23224  14.752  20.402   8.381
 1675POPC   C3A23225  14.896  20.384   7.956
 1675POPC   C4A23226  15.096  20.677   7.680
 1675POPC   C1B23227  15.507  20.647   8.697
 1675POPC   C2B23228  15.327  20.670   8.290
 1675POPC   C3B23229  15.414  20.413   7.963
 1675POPC   C4B23230  15.584  20.514   7.569
 1676POPC   NC323231  29.640  21.861   9.417
 1676POPC   PO423232  30.181  22.209   9.552
 1676POPC   GL123233  29.938  22.214   9.181
 1676POPC   GL223234  30.052  22.475   9.017
 1676POPC   C1A23235  29.633  22.145   8.831
 1676POPC   D2A23236  29.705  21.990   8.438
 1676POPC   C3A23237  29.520  22.100   8.060
 1676POPC   C4A23238  29.788  22.004   7.778
 1676POPC   C1B23239  30.061  22.353   8.624
 1676POPC   C2B23240  30.198  22.461   8.242
 1676POPC   C3B23241  30.164  22.375   7.821
 1676POPC   C4B23242  30.143  22.388   7.353
 1677POPC   NC323243  39.617   0.602   9.490
 1677POPC   PO423244  38.880   0.548   9.446
 1677POPC   GL123245  38.969   0.295   9.102
 1677POPC   GL223246  39.334   0.257   9.118
 1677POPC   C1A23247  39.065   0.416   8.667
 1677POPC   D2A23248  39.077   0.209   8.287
 1677POPC   C3A23249  39.183   0.391   7.921
 1677POPC   C4A23250  39.028   0.467   7.528
 1677POPC   C1B23251  39.555   0.309   8.714
 1677POPC   C2B23252  39.508   0.500   8.314
 1677POPC   C3B23253  39.549   0.723   7.932
 1677POPC   C4B23254  39.573   0.432   7.566
 1678POPC   NC323255  16.329  11.204   9.287
 1678POPC   PO423256  16.990  11.003   9.488
 1678POPC   GL123257  16.818  11.205   9.125
 1678POPC   GL223258  16.773  11.538   9.173
 1678POPC   C1A23259  16.925  11.275   8.692
 1678POPC   D2A23260  16.822  11.028   8.328
 1678POPC   C3A23261  16.896  11.202   7.920
 1678POPC   C4A23262  16.787  11.108   7.440
 1678POPC   C1B23263  16.552  11.624   8.762
 1678POPC   C2B23264  16.607  11.497   8.325
 1678POPC   C3B23265  16.409  11.227   8.037
 1678POPC   C4B23266  16.480  11.493   7.683
 1679POPC   NC323267  14.293  43.684   9.664
 1679POPC   PO423268  14.599  44.225   9.831
 1679POPC   GL123269  14.501  44.103   9.362
 1679POPC   GL223270  14.233  43.866   9.196
 1679POPC   C1A23271  14.641  44.081   8.913
 1679POPC   D2A23272  14.706  43.831   8.531
 1679POPC   C3A23273  14.455  43.744   8.191
 1679POPC   C4A23274  14.530  43.795   7.774
 1679POPC   C1B23275  14.080  44.092   8.847
 1679POPC   C2B23276  14.272  44.159   8.447
 1679POPC   C3B23277  14.162  44.165   8.028
 1679POPC   C4B23278  14.183  44.118   7.596
 1680POPC   NC323279  19.117   5.977   9.597
 1680POPC   PO423280  18.602   5.520   9.372
 1680POPC   GL123281  18.975   5.733   9.149
 1680POPC   GL223282  19.034   6.087   9.110
 1680POPC   C1A23283  19.286   5.743   8.790
 1680POPC   D2A23284  19.449   5.851   8.420
 1680POPC   C3A23285  19.250   5.659   8.095
 1680POPC   C4A23286  19.188   5.708   7.691
 1680POPC   C1B23287  19.236   6.276   8.760
 1680POPC   C2B23288  19.338   6.389   8.356
 1680POPC   C3B23289  19.363   6.183   7.959
 1680POPC   C4B23290  19.039   6.183   7.661
 1681POPC   NC323291  20.602  44.797   9.748
 1681POPC   PO423292  20.939   0.062   9.260
 1681POPC   GL123293  20.792  44.643   9.156
 1681POPC   GL223294  21.006  44.339   9.223
 1681POPC   C1A23295  20.853  44.666   8.723
 1681POPC   D2A23296  20.949  44.702   8.311
 1681POPC   C3A23297  20.589  44.744   8.053
 1681POPC   C4A23298  20.511  44.723   7.649
 1681POPC   C1B23299  20.841  44.152   8.833
 1681POPC   C2B23300  20.650  44.292   8.457
 1681POPC   C3B23301  20.747  44.249   8.062
 1681POPC   C4B23302  20.772  44.294   7.644
 1682POPC   NC323303  40.711  37.990   9.370
 1682POPC   PO423304  40.986  38.552   9.539
 1682POPC   GL123305  40.727  38.540   9.160
 1682POPC   GL223306  40.708  38.905   9.088
 1682POPC   C1A23307  40.591  38.261   8.770
 1682POPC   D2A23308  40.701  38.051   8.359
 1682POPC   C3A23309  40.576  38.241   7.956
 1682POPC   C4A23310  40.633  38.293   7.489
 1682POPC   C1B23311  40.467  38.753   8.740
 1682POPC   C2B23312  40.599  38.604   8.342
 1682POPC   C3B23313  40.646  38.784   7.938
 1682POPC   C4B23314  40.372  39.101   7.751
 1683POPC   NC323315  34.592  33.579   9.512
 1683POPC   PO423316  34.262  34.157   9.694
 1683POPC   GL123317  34.371  34.169   9.200
 1683POPC   GL223318  34.604  33.913   9.125
 1683POPC   C1A23319  34.239  34.162   8.754
 1683POPC   D2A23320  34.329  34.131   8.275
 1683POPC   C3A23321  34.313  33.773   8.009
 1683POPC   C4A23322  34.566  33.631   7.665
 1683POPC   C1B23323  34.818  33.640   8.842
 1683POPC   C2B23324  34.771  33.492   8.424
 1683POPC   C3B23325  34.945  33.620   8.030
 1683POPC   C4B23326  35.132  33.514   7.668
 1684POPC   NC323327  13.855  21.044   9.160
 1684POPC   PO423328  13.855  21.685   9.426
 1684POPC   GL123329  13.612  21.516   9.037
 1684POPC   GL223330  13.851  21.343   8.772
 1684POPC   C1A23331  13.510  21.633   8.591
 1684POPC   D2A23332  13.719  21.355   8.250
 1684POPC   C3A23333  13.930  21.528   7.889
 1684POPC   C4A23334  13.684  21.567   7.493
 1684POPC   C1B23335  13.458  21.109   8.648
 1684POPC   C2B23336  13.396  20.830   8.317
 1684POPC   C3B23337  13.557  20.741   7.906
 1684POPC   C4B23338  13.663  21.120   7.719
 1685POPC   NC323339  19.758  12.839   9.540
 1685POPC   PO423340  20.340  12.918   9.723
 1685POPC   GL123341  20.098  12.797   9.191
 1685POPC   GL223342  19.927  13.049   9.047
 1685POPC   C1A23343  19.841  12.687   8.738
 1685POPC   D2A23344  19.631  12.773   8.353
 1685POPC   C3A23345  19.816  12.764   7.916
 1685POPC   C4A23346  19.957  12.924   7.497
 1685POPC   C1B23347  19.713  13.270   8.752
 1685POPC   C2B23348  19.455  13.255   8.422
 1685POPC   C3B23349  19.530  13.207   8.022
 1685POPC   C4B23350  19.494  13.130   7.624
 1686POPC   NC323351   6.027  17.163   9.434
 1686POPC   PO423352   5.476  17.642   9.536
 1686POPC   GL123353   5.740  17.757   9.155
 1686POPC   GL223354   6.112  17.701   9.200
 1686POPC   C1A23355   5.800  17.564   8.732
 1686POPC   D2A23356   5.694  17.361   8.315
 1686POPC   C3A23357   5.663  17.430   7.852
 1686POPC   C4A23358   5.595  17.221   7.424
 1686POPC   C1B23359   6.331  17.596   8.820
 1686POPC   C2B23360   6.203  17.640   8.413
 1686POPC   C3B23361   6.139  17.446   8.038
 1686POPC   C4B23362   6.268  17.532   7.619
 1687POPC   NC323363  37.088  19.454   9.432
 1687POPC   PO423364  37.206  19.974   9.835
 1687POPC   GL123365  36.904  20.086   9.359
 1687POPC   GL223366  36.762  19.746   9.200
 1687POPC   C1A23367  36.566  20.160   9.002
 1687POPC   D2A23368  36.570  20.119   8.541
 1687POPC   C3A23369  36.582  19.844   8.157
 1687POPC   C4A23370  36.687  19.778   7.730
 1687POPC   C1B23371  36.927  19.817   8.761
 1687POPC   C2B23372  37.037  19.986   8.335
 1687POPC   C3B23373  37.182  19.812   7.917
 1687POPC   C4B23374  37.235  19.518   7.561
 1688POPC   NC323375  29.849  11.400   9.501
 1688POPC   PO423376  30.292  10.966   9.398
 1688POPC   GL123377  30.162  11.099   9.026
 1688POPC   GL223378  30.012  11.429   9.032
 1688POPC   C1A23379  30.146  11.182   8.595
 1688POPC   D2A23380  29.824  11.369   8.356
 1688POPC   C3A23381  29.803  11.183   7.946
 1688POPC   C4A23382  30.135  11.143   7.671
 1688POPC   C1B23383  29.825  11.721   8.751
 1688POPC   C2B23384  29.842  11.896   8.335
 1688POPC   C3B23385  29.823  11.701   7.955
 1688POPC   C4B23386  29.856  11.567   7.536
 1689POPC   NC323387  29.653   7.237   9.436
 1689POPC   PO423388  30.298   7.503   9.392
 1689POPC   GL123389  29.929   7.519   9.118
 1689POPC   GL223390  29.564   7.668   9.170
 1689POPC   C1A23391  29.936   7.257   8.749
 1689POPC   D2A23392  30.121   7.404   8.370
 1689POPC   C3A23393  29.942   7.269   7.997
 1689POPC   C4A23394  30.166   7.045   7.778
 1689POPC   C1B23395  29.469   7.443   8.796
 1689POPC   C2B23396  29.573   7.360   8.371
 1689POPC   C3B23397  29.517   7.539   7.971
 1689POPC   C4B23398  29.771   7.647   7.610
 1690POPC   NC323399  29.214  42.529   9.614
 1690POPC   PO423400  28.797  42.039   9.618
 1690POPC   GL123401  29.052  42.208   9.237
 1690POPC   GL223402  29.329  42.102   9.014
 1690POPC   C1A23403  29.109  42.538   8.882
 1690POPC   D2A23404  29.153  42.619   8.393
 1690POPC   C3A23405  29.098  42.422   7.992
 1690POPC   C4A23406  29.017  42.654   7.599
 1690POPC   C1B23407  29.422  42.222   8.600
 1690POPC   C2B23408  29.658  42.514   8.344
 1690POPC   C3B23409  29.662  42.610   7.914
 1690POPC   C4B23410  29.447  42.373   7.604
 1691POPC   NC323411  34.166   8.860   9.407
 1691POPC   PO423412  33.762   9.377   9.570
 1691POPC   GL123413  33.878   9.226   9.166
 1691POPC   GL223414  33.588   9.089   9.048
 1691POPC   C1A23415  33.972   9.123   8.722
 1691POPC   D2A23416  33.906   9.305   8.308
 1691POPC   C3A23417  33.963   9.032   7.898
 1691POPC   C4A23418  33.910   9.050   7.432
 1691POPC   C1B23419  33.479   9.252   8.645
 1691POPC   C2B23420  33.526   8.943   8.341
 1691POPC   C3B23421  33.528   8.765   7.961
 1691POPC   C4B23422  33.452   8.972   7.611
 1692POPC   NC323423   4.835  20.482   9.423
 1692POPC   PO423424   5.441  20.407   9.623
 1692POPC   GL123425   5.284  20.416   9.154
 1692POPC   GL223426   5.256  20.663   8.964
 1692POPC   C1A23427   4.950  20.322   8.769
 1692POPC   D2A23428   5.089  20.174   8.347
 1692POPC   C3A23429   4.802  20.219   7.991
 1692POPC   C4A23430   4.745  20.540   7.715
 1692POPC   C1B23431   5.050  20.788   8.626
 1692POPC   C2B23432   4.939  20.646   8.234
 1692POPC   C3B23433   5.223  20.500   7.911
 1692POPC   C4B23434   5.245  20.634   7.478
 1693POPC   NC323435  29.231  30.722   9.516
 1693POPC   PO423436  28.751  30.559   9.310
 1693POPC   GL123437  28.991  30.815   9.047
 1693POPC   GL223438  29.169  31.125   9.099
 1693POPC   C1A23439  29.006  30.756   8.621
 1693POPC   D2A23440  29.086  30.826   8.211
 1693POPC   C3A23441  29.111  30.470   7.939
 1693POPC   C4A23442  29.005  30.610   7.539
 1693POPC   C1B23443  29.451  30.985   8.767
 1693POPC   C2B23444  29.600  30.845   8.315
 1693POPC   C3B23445  29.462  30.818   7.869
 1693POPC   C4B23446  29.490  30.677   7.460
 1694POPC   NC323447  10.137  21.746   9.517
 1694POPC   PO423448   9.729  22.248   9.694
 1694POPC   GL123449   9.934  22.221   9.273
 1694POPC   GL223450   9.967  21.935   9.073
 1694POPC   C1A23451  10.043  22.376   8.852
 1694POPC   D2A23452  10.121  22.394   8.395
 1694POPC   C3A23453   9.843  22.122   8.185
 1694POPC   C4A23454   9.805  21.871   7.833
 1694POPC   C1B23455   9.734  21.952   8.677
 1694POPC   C2B23456   9.378  22.151   8.398
 1694POPC   C3B23457   9.321  22.044   7.964
 1694POPC   C4B23458   9.355  21.746   7.676
 1695POPC   NC323459   8.807  31.457   9.614
 1695POPC   PO423460   9.419  31.138   9.481
 1695POPC   GL123461   9.099  31.437   9.207
 1695POPC   GL223462   8.720  31.292   9.155
 1695POPC   C1A23463   8.983  31.681   8.860
 1695POPC   D2A23464   9.097  31.444   8.521
 1695POPC   C3A23465   8.839  31.288   8.223
 1695POPC   C4A23466   8.895  31.207   7.778
 1695POPC   C1B23467   8.532  31.438   8.783
 1695POPC   C2B23468   8.605  31.722   8.447
 1695POPC   C3B23469   8.731  31.733   8.017
 1695POPC   C4B23470   8.559  31.576   7.654
 1696POPC   NC323471  31.230  33.196   9.476
 1696POPC   PO423472  31.434  32.537   9.418
 1696POPC   GL123473  31.588  32.746   9.046
 1696POPC   GL223474  31.575  33.102   9.102
 1696POPC   C1A23475  31.513  32.817   8.611
 1696POPC   D2A23476  31.727  32.888   8.230
 1696POPC   C3A23477  31.604  32.808   7.817
 1696POPC   C4A23478  31.213  32.885   7.643
 1696POPC   C1B23479  31.218  33.179   8.810
 1696POPC   C2B23480  31.224  33.255   8.375
 1696POPC   C3B23481  31.394  33.236   7.990
 1696POPC   C4B23482  31.548  33.387   7.603
 1697POPC   NC323483  20.226  40.086   9.505
 1697POPC   PO423484  19.789  39.597   9.441
 1697POPC   GL123485  19.964  39.850   9.119
 1697POPC   GL223486  19.846  40.148   9.139
 1697POPC   C1A23487  20.173  39.779   8.714
 1697POPC   D2A23488  20.171  39.555   8.304
 1697POPC   C3A23489  20.027  39.790   7.959
 1697POPC   C4A23490  19.843  40.140   7.752
 1697POPC   C1B23491  20.066  40.265   8.714
 1697POPC   C2B23492  20.066  40.211   8.256
 1697POPC   C3B23493  20.285  40.309   7.882
 1697POPC   C4B23494  20.336  40.321   7.401
 1698POPC   NC323495  39.419  19.455   9.728
 1698POPC   PO423496  38.997  19.994   9.720
 1698POPC   GL123497  39.197  19.776   9.382
 1698POPC   GL223498  39.001  19.861   9.117
 1698POPC   C1A23499  39.458  19.671   9.014
 1698POPC   D2A23500  39.531  19.704   8.568
 1698POPC   C3A23501  39.211  19.657   8.250
 1698POPC   C4A23502  39.297  19.673   7.802
 1698POPC   C1B23503  39.165  20.091   8.758
 1698POPC   C2B23504  39.004  20.133   8.333
 1698POPC   C3B23505  39.206  20.158   7.932
 1698POPC   C4B23506  39.053  20.199   7.507
 1699POPC   NC323507  10.289   8.389   9.178
 1699POPC   PO423508  10.730   8.726   9.524
 1699POPC   GL123509  10.750   8.801   9.130
 1699POPC   GL223510  10.811   8.478   9.077
 1699POPC   C1A23511  10.834   9.114   8.814
 1699POPC   D2A23512  10.590   9.353   8.520
 1699POPC   C3A23513  10.346   9.084   8.244
 1699POPC   C4A23514  10.433   8.979   7.828
 1699POPC   C1B23515  10.949   8.626   8.708
 1699POPC   C2B23516  10.704   8.698   8.350
 1699POPC   C3B23517  10.630   8.446   7.977
 1699POPC   C4B23518  10.783   8.669   7.622
 1700POPC   NC323519  18.625  35.579   9.484
 1700POPC   PO423520  18.084  35.214   9.550
 1700POPC   GL123521  18.420  35.145   9.234
 1700POPC   GL223522  18.390  35.460   9.045
 1700POPC   C1A23523  18.480  35.030   8.802
 1700POPC   D2A23524  18.323  35.238   8.425
 1700POPC   C3A23525  18.411  35.097   8.016
 1700POPC   C4A23526  18.374  35.161   7.573
 1700POPC   C1B23527  17.997  35.444   8.772
 1700POPC   C2B23528  17.834  35.409   8.321
 1700POPC   C3B23529  17.982  35.333   7.885
 1700POPC   C4B23530  17.956  35.396   7.419
 1701POPC   NC323531  11.308  39.654   9.617
 1701POPC   PO423532  10.884  40.190   9.546
 1701POPC   GL123533  11.208  40.029   9.201
 1701POPC   GL223534  11.456  39.714   9.150
 1701POPC   C1A23535  11.192  39.939   8.753
 1701POPC   D2A23536  10.949  39.799   8.404
 1701POPC   C3A23537  11.083  39.917   7.965
 1701POPC   C4A23538  11.057  40.033   7.501
 1701POPC   C1B23539  11.705  39.829   8.830
 1701POPC   C2B23540  11.856  39.886   8.437
 1701POPC   C3B23541  11.651  39.879   8.043
 1701POPC   C4B23542  11.499  39.830   7.628
 1702POPC   NC323543  23.033   5.399   9.353
 1702POPC   PO423544  22.749   4.842   9.487
 1702POPC   GL123545  22.858   4.890   9.099
 1702POPC   GL223546  22.726   5.194   9.026
 1702POPC   C1A23547  22.648   4.818   8.685
 1702POPC   D2A23548  22.578   4.928   8.240
 1702POPC   C3A23549  22.774   4.784   7.884
 1702POPC   C4A23550  23.030   4.944   7.553
 1702POPC   C1B23551  23.028   5.155   8.705
 1702POPC   C2B23552  23.081   5.005   8.293
 1702POPC   C3B23553  22.967   5.272   7.946
 1702POPC   C4B23554  23.250   5.602   7.780
 1703POPC   NC323555  13.888  11.814   9.424
 1703POPC   PO423556  13.206  11.829   9.452
 1703POPC   GL123557  13.501  11.873   9.085
 1703POPC   GL223558  13.859  11.869   8.922
 1703POPC   C1A23559  13.470  12.148   8.726
 1703POPC   D2A23560  13.233  12.219   8.356
 1703POPC   C3A23561  13.397  12.033   7.966
 1703POPC   C4A23562  13.454  12.216   7.541
 1703POPC   C1B23563  13.978  12.314   8.727
 1703POPC   C2B23564  13.889  12.542   8.315
 1703POPC   C3B23565  13.857  12.266   7.944
 1703POPC   C4B23566  13.911  11.783   7.972
 1704POPC   NC323567  42.695   3.324   9.235
 1704POPC   PO423568  42.936   3.789   9.646
 1704POPC   GL123569  43.070   3.645   9.187
 1704POPC   GL223570  43.233   3.934   9.154
 1704POPC   C1A23571  43.191   3.323   8.779
 1704POPC   D2A23572  42.955   3.272   8.374
 1704POPC   C3A23573  43.198   3.324   7.969
 1704POPC   C4A23574  43.601   3.262   7.759
 1704POPC   C1B23575  43.049   3.784   8.713
 1704POPC   C2B23576  43.272   3.677   8.369
 1704POPC   C3B23577  43.100   3.818   8.031
 1704POPC   C4B23578  43.023   3.714   7.638
 1705POPC   NC323579  34.912  26.374   9.479
 1705POPC   PO423580  34.557  26.894   9.690
 1705POPC   GL123581  34.456  26.879   9.256
 1705POPC   GL223582  34.496  26.539   9.195
 1705POPC   C1A23583  34.561  26.889   8.809
 1705POPC   D2A23584  34.742  27.013   8.426
 1705POPC   C3A23585  34.546  26.925   8.030
 1705POPC   C4A23586  34.733  27.233   7.779
 1705POPC   C1B23587  34.266  26.472   8.822
 1705POPC   C2B23588  34.377  26.567   8.407
 1705POPC   C3B23589  34.363  26.430   7.998
 1705POPC   C4B23590  34.379  26.546   7.601
 1706POPC   NC323591  42.526  32.053   9.451
 1706POPC   PO423592  42.163  32.607   9.410
 1706POPC   GL123593  42.264  32.338   9.122
 1706POPC   GL223594  42.588  32.446   9.109
 1706POPC   C1A23595  42.413  32.169   8.731
 1706POPC   D2A23596  42.562  32.315   8.361
 1706POPC   C3A23597  42.437  31.996   8.119
 1706POPC   C4A23598  42.225  32.106   7.775
 1706POPC   C1B23599  42.536  32.708   8.758
 1706POPC   C2B23600  42.372  32.798   8.345
 1706POPC   C3B23601  42.323  32.600   7.949
 1706POPC   C4B23602  42.369  32.738   7.535
 1707POPC   NC323603  41.889  32.991   9.359
 1707POPC   PO423604  41.385  32.661   9.584
 1707POPC   GL123605  41.378  32.828   9.152
 1707POPC   GL223606  41.482  33.178   9.085
 1707POPC   C1A23607  41.617  32.825   8.737
 1707POPC   D2A23608  41.844  32.836   8.337
 1707POPC   C3A23609  41.553  32.819   7.984
 1707POPC   C4A23610  41.417  33.077   7.664
 1707POPC   C1B23611  41.603  33.301   8.629
 1707POPC   C2B23612  41.601  33.271   8.184
 1707POPC   C3B23613  41.787  33.414   7.788
 1707POPC   C4B23614  41.841  33.238   7.369
 1708POPC   NC323615  42.934   8.053   9.599
 1708POPC   PO423616  42.318   7.748   9.621
 1708POPC   GL123617  42.366   8.074   9.250
 1708POPC   GL223618  42.668   7.970   9.187
 1708POPC   C1A23619  42.149   8.176   8.808
 1708POPC   D2A23620  42.022   8.182   8.361
 1708POPC   C3A23621  42.357   8.161   8.056
 1708POPC   C4A23622  42.487   8.317   7.694
 1708POPC   C1B23623  42.662   8.240   8.875
 1708POPC   C2B23624  42.668   8.180   8.457
 1708POPC   C3B23625  42.791   7.863   8.171
 1708POPC   C4B23626  42.819   7.880   7.710
 1709POPC   NC323627  43.129  40.297   9.345
 1709POPC   PO423628  42.861  39.709   9.550
 1709POPC   GL123629  43.221  39.822   9.220
 1709POPC   GL223630  43.420  39.549   9.126
 1709POPC   C1A23631  43.425  40.083   8.803
 1709POPC   D2A23632  43.663  40.052   8.356
 1709POPC   C3A23633  43.316  40.148   8.017
 1709POPC   C4A23634  42.935  40.322   7.767
 1709POPC   C1B23635  43.188  39.626   8.770
 1709POPC   C2B23636  43.253  39.787   8.416
 1709POPC   C3B23637  43.292  39.642   8.062
 1709POPC   C4B23638  43.047  39.758   7.746
 1710POPC   NC323639   0.765  28.839   9.526
 1710POPC   PO423640   0.244  29.331   9.696
 1710POPC   GL123641   0.430  29.152   9.252
 1710POPC   GL223642   0.357  28.868   9.063
 1710POPC   C1A23643   0.388  29.287   8.773
 1710POPC   D2A23644   0.182  29.541   8.478
 1710POPC   C3A23645   0.419  29.522   8.116
 1710POPC   C4A23646   0.445  29.315   7.720
 1710POPC   C1B23647   0.581  28.832   8.695
 1710POPC   C2B23648   0.394  28.985   8.322
 1710POPC   C3B23649   0.477  28.849   7.914
 1710POPC   C4B23650   0.246  28.879   7.539
 1711POPC   NC323651  25.021  26.384   9.553
 1711POPC   PO423652  25.621  25.944   9.407
 1711POPC   GL123653  25.308  25.913   9.131
 1711POPC   GL223654  25.267  26.273   9.126
 1711POPC   C1A23655  25.336  25.971   8.686
 1711POPC   D2A23656  25.304  25.750   8.302
 1711POPC   C3A23657  25.003  25.881   7.982
 1711POPC   C4A23658  25.036  25.794   7.539
 1711POPC   C1B23659  25.105  26.435   8.756
 1711POPC   C2B23660  25.233  26.337   8.315
 1711POPC   C3B23661  25.254  26.333   7.871
 1711POPC   C4B23662  24.948  26.294   7.546
 1712POPC   NC323663   9.396  42.732   9.395
 1712POPC   PO423664   9.994  43.014   9.585
 1712POPC   GL123665   9.879  42.952   9.166
 1712POPC   GL223666   9.589  43.154   9.163
 1712POPC   C1A23667  10.073  43.006   8.746
 1712POPC   D2A23668   9.855  42.890   8.375
 1712POPC   C3A23669   9.985  43.009   7.992
 1712POPC   C4A23670   9.906  43.343   7.724
 1712POPC   C1B23671   9.575  43.144   8.747
 1712POPC   C2B23672   9.352  42.982   8.409
 1712POPC   C3B23673   9.495  43.148   8.053
 1712POPC   C4B23674   9.384  43.258   7.695
 1713POPC   NC323675   0.404  30.989   9.417
 1713POPC   PO423676   0.151  30.376   9.491
 1713POPC   GL123677   0.455  30.534   9.123
 1713POPC   GL223678   0.602  30.864   8.976
 1713POPC   C1A23679   0.544  30.450   8.693
 1713POPC   D2A23680   0.642  30.516   8.280
 1713POPC   C3A23681   0.378  30.780   8.054
 1713POPC   C4A23682   0.199  30.758   7.640
 1713POPC   C1B23683   0.485  30.954   8.557
 1713POPC   C2B23684   0.696  31.148   8.213
 1713POPC   C3B23685   0.652  31.073   7.760
 1713POPC   C4B23686   0.459  31.062   7.307
 1714POPC   NC323687  43.474  11.549   9.577
 1714POPC   PO423688  44.108  11.205   9.480
 1714POPC   GL123689  43.877  11.233   9.141
 1714POPC   GL223690  43.864  11.553   9.176
 1714POPC   C1A23691  43.679  11.297   8.746
 1714POPC   D2A23692  43.751  11.147   8.324
 1714POPC   C3A23693  43.551  11.428   8.084
 1714POPC   C4A23694  43.561  11.631   7.717
 1714POPC   C1B23695  44.132  11.537   8.815
 1714POPC   C2B23696  44.275  11.425   8.422
 1714POPC   C3B23697  44.104  11.471   8.043
 1714POPC   C4B23698  43.914  11.254   7.762
 1715POPC   NC323699  34.567   3.263   9.495
 1715POPC   PO423700  34.875   3.803   9.505
 1715POPC   GL123701  34.632   3.621   9.131
 1715POPC   GL223702  34.853   3.373   9.075
 1715POPC   C1A23703  34.379   3.571   8.731
 1715POPC   D2A23704  34.402   3.393   8.306
 1715POPC   C3A23705  34.381   3.668   7.958
 1715POPC   C4A23706  34.523   4.008   7.693
 1715POPC   C1B23707  34.742   3.215   8.638
 1715POPC   C2B23708  34.951   3.085   8.263
 1715POPC   C3B23709  34.786   3.269   7.893
 1715POPC   C4B23710  34.559   3.418   7.554
 1716POPC   NC323711  18.040   1.014   9.456
 1716POPC   PO423712  18.592   1.456   9.599
 1716POPC   GL123713  18.416   1.269   9.179
 1716POPC   GL223714  18.114   1.448   9.152
 1716POPC   C1A23715  18.248   1.278   8.685
 1716POPC   D2A23716  18.477   1.359   8.314
 1716POPC   C3A23717  18.350   1.073   8.011
 1716POPC   C4A23718  18.529   1.044   7.621
 1716POPC   C1B23719  18.373   1.709   8.874
 1716POPC   C2B23720  18.245   1.791   8.443
 1716POPC   C3B23721  18.105   1.595   8.055
 1716POPC   C4B23722  18.382   1.507   7.718
 1717POPC   NC323723  32.015  34.688   9.448
 1717POPC   PO423724  32.603  34.456   9.467
 1717POPC   GL123725  32.531  34.575   9.037
 1717POPC   GL223726  32.237  34.716   9.011
 1717POPC   C1A23727  32.422  34.517   8.604
 1717POPC   D2A23728  32.126  34.386   8.343
 1717POPC   C3A23729  32.281  34.533   7.981
 1717POPC   C4A23730  32.488  34.758   7.708
 1717POPC   C1B23731  32.118  34.965   8.674
 1717POPC   C2B23732  32.010  34.893   8.285
 1717POPC   C3B23733  32.155  35.041   7.920
 1717POPC   C4B23734  32.048  34.934   7.462
 1718POPC   NC323735  35.159  23.315   9.652
 1718POPC   PO423736  35.635  22.823   9.494
 1718POPC   GL123737  35.542  22.953   9.101
 1718POPC   GL223738  35.784  23.166   9.003
 1718POPC   C1A23739  35.171  22.873   8.822
 1718POPC   D2A23740  35.184  22.643   8.431
 1718POPC   C3A23741  35.296  22.918   8.112
 1718POPC   C4A23742  35.115  23.058   7.724
 1718POPC   C1B23743  35.579  23.112   8.610
 1718POPC   C2B23744  35.594  23.399   8.276
 1718POPC   C3B23745  35.555  23.297   7.851
 1718POPC   C4B23746  35.615  22.864   7.720
 1719POPC   NC323747  19.382  24.575   9.429
 1719POPC   PO423748  18.701  24.579   9.435
 1719POPC   GL123749  18.937  24.479   9.095
 1719POPC   GL223750  19.186  24.728   9.003
 1719POPC   C1A23751  18.717  24.407   8.727
 1719POPC   D2A23752  18.765  24.159   8.379
 1719POPC   C3A23753  18.905  24.413   8.073
 1719POPC   C4A23754  18.805  24.461   7.662
 1719POPC   C1B23755  19.246  24.502   8.642
 1719POPC   C2B23756  19.248  24.739   8.285
 1719POPC   C3B23757  19.324  24.640   7.876
 1719POPC   C4B23758  19.184  24.811   7.520
 1720POPC   NC323759   8.745  29.113   9.188
 1720POPC   PO423760   9.316  29.510   9.374
 1720POPC   GL123761   9.182  29.302   9.014
 1720POPC   GL223762   8.896  29.552   8.963
 1720POPC   C1A23763   9.048  29.041   8.636
 1720POPC   D2A23764   8.956  29.194   8.240
 1720POPC   C3A23765   8.675  29.030   7.931
 1720POPC   C4A23766   8.982  29.209   7.683
 1720POPC   C1B23767   8.597  29.348   8.645
 1720POPC   C2B23768   8.485  29.411   8.287
 1720POPC   C3B23769   8.663  29.537   7.933
 1720POPC   C4B23770   8.589  29.472   7.516
 1721POPC   NC323771  31.741  38.821   9.408
 1721POPC   PO423772  31.261  38.371   9.599
 1721POPC   GL123773  31.509  38.402   9.220
 1721POPC   GL223774  31.382  38.701   9.079
 1721POPC   C1A23775  31.545  38.317   8.766
 1721POPC   D2A23776  31.308  38.297   8.347
 1721POPC   C3A23777  31.545  38.375   7.962
 1721POPC   C4A23778  31.726  38.382   7.529
 1721POPC   C1B23779  31.124  38.858   8.773
 1721POPC   C2B23780  31.075  38.766   8.372
 1721POPC   C3B23781  31.230  38.819   7.970
 1721POPC   C4B23782  31.236  38.590   7.602
 1722POPC   NC323783  22.022  32.652   9.503
 1722POPC   PO423784  22.389  33.249   9.635
 1722POPC   GL123785  22.395  33.004   9.237
 1722POPC   GL223786  22.675  33.226   9.162
 1722POPC   C1A23787  22.242  32.856   8.804
 1722POPC   D2A23788  22.026  33.133   8.468
 1722POPC   C3A23789  22.155  33.186   8.043
 1722POPC   C4A23790  22.116  32.814   7.804
 1722POPC   C1B23791  22.430  33.339   8.822
 1722POPC   C2B23792  22.532  33.308   8.413
 1722POPC   C3B23793  22.604  33.542   8.085
 1722POPC   C4B23794  22.312  33.631   7.760
 1723POPC   NC323795   2.539   8.213   9.576
 1723POPC   PO423796   3.031   7.787   9.607
 1723POPC   GL123797   2.786   8.084   9.169
 1723POPC   GL223798   2.578   8.406   9.099
 1723POPC   C1A23799   2.890   8.226   8.717
 1723POPC   D2A23800   2.710   8.509   8.397
 1723POPC   C3A23801   2.801   8.373   7.965
 1723POPC   C4A23802   3.133   8.132   7.782
 1723POPC   C1B23803   2.386   8.233   8.712
 1723POPC   C2B23804   2.416   8.104   8.244
 1723POPC   C3B23805   2.279   7.965   7.815
 1723POPC   C4B23806   2.221   8.081   7.359
 1724POPC   NC323807  16.106  24.885   9.568
 1724POPC   PO423808  16.757  25.373   9.511
 1724POPC   GL123809  16.553  25.241   9.162
 1724POPC   GL223810  16.483  25.537   9.057
 1724POPC   C1A23811  16.652  25.080   8.771
 1724POPC   D2A23812  16.955  25.202   8.443
 1724POPC   C3A23813  16.866  25.120   8.029
 1724POPC   C4A23814  17.003  24.910   7.669
 1724POPC   C1B23815  16.809  25.593   8.793
 1724POPC   C2B23816  16.789  25.716   8.382
 1724POPC   C3B23817  16.616  25.619   7.965
 1724POPC   C4B23818  16.730  25.344   7.597
 1725POPC   NC323819  31.633   4.618   9.394
 1725POPC   PO423820  31.063   4.672   9.745
 1725POPC   GL123821  31.126   4.433   9.306
 1725POPC   GL223822  31.219   4.692   9.077
 1725POPC   C1A23823  31.210   4.243   8.833
 1725POPC   D2A23824  31.561   4.149   8.476
 1725POPC   C3A23825  31.469   4.267   8.016
 1725POPC   C4A23826  31.121   4.442   7.760
 1725POPC   C1B23827  31.550   4.636   8.743
 1725POPC   C2B23828  31.701   4.616   8.326
 1725POPC   C3B23829  31.636   4.772   7.961
 1725POPC   C4B23830  31.779   4.674   7.581
 1726POPC   NC323831   2.497  15.342   9.491
 1726POPC   PO423832   3.093  15.096   9.341
 1726POPC   GL123833   2.742  15.188   9.084
 1726POPC   GL223834   2.822  15.444   8.911
 1726POPC   C1A23835   2.475  15.090   8.749
 1726POPC   D2A23836   2.474  14.831   8.388
 1726POPC   C3A23837   2.326  15.054   8.019
 1726POPC   C4A23838   2.405  15.513   7.907
 1726POPC   C1B23839   3.006  15.049   8.675
 1726POPC   C2B23840   2.954  14.942   8.232
 1726POPC   C3B23841   2.815  15.189   7.898
 1726POPC   C4B23842   2.963  15.618   7.848
 1727POPC   NC323843  30.391  21.288   9.566
 1727POPC   PO423844  29.748  21.291   9.491
 1727POPC   GL123845  30.029  21.403   9.219
 1727POPC   GL223846  30.146  21.747   9.300
 1727POPC   C1A23847  30.167  21.275   8.835
 1727POPC   D2A23848  30.458  21.424   8.582
 1727POPC   C3A23849  30.373  21.426   8.158
 1727POPC   C4A23850  30.104  21.477   7.800
 1727POPC   C1B23851  29.971  21.756   8.858
 1727POPC   C2B23852  29.953  21.550   8.456
 1727POPC   C3B23853  29.727  21.598   8.097
 1727POPC   C4B23854  29.633  21.228   7.854
 1728POPC   NC323855   2.397  40.752   9.526
 1728POPC   PO423856   3.012  40.466   9.712
 1728POPC   GL123857   2.845  40.793   9.333
 1728POPC   GL223858   3.042  40.744   9.114
 1728POPC   C1A23859   2.605  40.805   8.886
 1728POPC   D2A23860   2.774  40.733   8.458
 1728POPC   C3A23861   2.553  40.804   8.081
 1728POPC   C4A23862   2.728  40.676   7.707
 1728POPC   C1B23863   3.247  40.820   8.724
 1728POPC   C2B23864   3.193  41.011   8.359
 1728POPC   C3B23865   3.080  40.909   7.978
 1728POPC   C4B23866   3.285  40.972   7.600
 1729POPC   NC323867  24.808   0.009   9.497
 1729POPC   PO423868  24.559  44.420   9.690
 1729POPC   GL123869  24.535  44.497   9.174
 1729POPC   GL223870  24.571  44.849   9.075
 1729POPC   C1A23871  24.252  44.539   8.772
 1729POPC   D2A23872  24.021  44.501   8.381
 1729POPC   C3A23873  24.145  44.842   8.146
 1729POPC   C4A23874  24.469  44.840   7.820
 1729POPC   C1B23875  24.720  44.720   8.715
 1729POPC   C2B23876  24.580  44.574   8.310
 1729POPC   C3B23877  24.906  44.744   8.037
 1729POPC   C4B23878  25.030  44.933   7.658
 1730POPC   NC323879  36.381  24.012   9.665
 1730POPC   PO423880  35.893  23.570   9.419
 1730POPC   GL123881  36.060  23.726   9.063
 1730POPC   GL223882  36.398  23.824   9.188
 1730POPC   C1A23883  35.905  23.826   8.643
 1730POPC   D2A23884  35.889  24.068   8.262
 1730POPC   C3A23885  35.852  23.741   7.930
 1730POPC   C4A23886  35.780  23.617   7.509
 1730POPC   C1B23887  36.372  24.025   8.789
 1730POPC   C2B23888  36.389  23.978   8.351
 1730POPC   C3B23889  36.286  24.003   7.916
 1730POPC   C4B23890  36.280  23.599   7.710
 1731POPC   NC323891  26.525  40.487   9.575
 1731POPC   PO423892  27.108  40.827   9.501
 1731POPC   GL123893  26.745  40.881   9.212
 1731POPC   GL223894  26.626  40.580   9.078
 1731POPC   C1A23895  26.665  41.081   8.804
 1731POPC   D2A23896  26.881  41.045   8.399
 1731POPC   C3A23897  26.647  41.011   8.021
 1731POPC   C4A23898  26.779  40.822   7.586
 1731POPC   C1B23899  26.422  40.337   8.754
 1731POPC   C2B23900  26.598  40.470   8.366
 1731POPC   C3B23901  26.497  40.529   7.926
 1731POPC   C4B23902  26.341  40.576   7.512
 1732POPC   NC323903  13.359  26.365   9.336
 1732POPC   PO423904  13.658  26.902   9.641
 1732POPC   GL123905  13.705  26.738   9.209
 1732POPC   GL223906  14.044  26.639   9.154
 1732POPC   C1A23907  13.519  26.769   8.783
 1732POPC   D2A23908  13.495  27.119   8.449
 1732POPC   C3A23909  13.595  26.971   8.030
 1732POPC   C4A23910  13.399  26.589   7.919
 1732POPC   C1B23911  13.962  26.502   8.737
 1732POPC   C2B23912  13.730  26.569   8.351
 1732POPC   C3B23913  13.953  26.626   7.947
 1732POPC   C4B23914  13.785  26.657   7.541
 1733POPC   NC323915  14.120  29.982   9.442
 1733POPC   PO423916  14.795  29.735   9.452
 1733POPC   GL123917  14.527  29.778   9.096
 1733POPC   GL223918  14.186  29.674   9.055
 1733POPC   C1A23919  14.501  29.882   8.668
 1733POPC   D2A23920  14.494  29.641   8.282
 1733POPC   C3A23921  14.670  29.790   7.907
 1733POPC   C4A23922  14.552  30.047   7.577
 1733POPC   C1B23923  14.021  29.994   8.782
 1733POPC   C2B23924  14.046  29.891   8.390
 1733POPC   C3B23925  14.188  29.975   7.988
 1733POPC   C4B23926  14.112  29.777   7.603
 1734POPC   NC323927  30.025  15.704   9.182
 1734POPC   PO423928  29.723  16.182   9.551
 1734POPC   GL123929  29.952  16.313   9.156
 1734POPC   GL223930  29.847  16.109   8.937
 1734POPC   C1A23931  30.288  16.194   8.771
 1734POPC   D2A23932  30.165  15.851   8.481
 1734POPC   C3A23933  30.062  16.017   8.091
 1734POPC   C4A23934  29.993  16.156   7.678
 1734POPC   C1B23935  29.634  15.924   8.634
 1734POPC   C2B23936  29.590  15.804   8.225
 1734POPC   C3B23937  29.658  15.810   7.777
 1734POPC   C4B23938  29.764  15.653   7.341
 1735POPC   NC323939  10.114  35.763   9.491
 1735POPC   PO423940   9.605  36.147   9.679
 1735POPC   GL123941   9.573  36.084   9.235
 1735POPC   GL223942   9.570  36.386   9.058
 1735POPC   C1A23943   9.652  35.922   8.792
 1735POPC   D2A23944   9.770  36.033   8.336
 1735POPC   C3A23945   9.579  35.898   7.949
 1735POPC   C4A23946   9.565  36.213   7.628
 1735POPC   C1B23947   9.886  36.396   8.700
 1735POPC   C2B23948  10.087  36.414   8.275
 1735POPC   C3B23949  10.020  36.168   7.868
 1735POPC   C4B23950  10.029  36.052   7.409
 1736POPC   NC323951  28.280  17.330   9.560
 1736POPC   PO423952  28.860  17.545   9.678
 1736POPC   GL123953  28.633  17.589   9.269
 1736POPC   GL223954  28.634  17.236   9.155
 1736POPC   C1A23955  28.397  17.584   8.872
 1736POPC   D2A23956  28.516  17.587   8.440
 1736POPC   C3A23957  28.236  17.537   8.104
 1736POPC   C4A23958  28.474  17.562   7.782
 1736POPC   C1B23959  28.507  17.121   8.698
 1736POPC   C2B23960  28.519  17.105   8.232
 1736POPC   C3B23961  28.344  17.060   7.826
 1736POPC   C4B23962  28.216  16.998   7.372
 1737POPC   NC323963  40.784  24.775   9.498
 1737POPC   PO423964  40.984  24.133   9.710
 1737POPC   GL123965  40.850  24.312   9.289
 1737POPC   GL223966  40.494  24.325   9.246
 1737POPC   C1A23967  40.973  24.562   8.911
 1737POPC   D2A23968  40.852  24.572   8.487
 1737POPC   C3A23969  41.023  24.573   8.066
 1737POPC   C4A23970  40.887  24.256   7.779
 1737POPC   C1B23971  40.443  24.439   8.802
 1737POPC   C2B23972  40.350  24.661   8.417
 1737POPC   C3B23973  40.520  24.533   8.039
 1737POPC   C4B23974  40.750  24.734   7.679
 1738POPC   NC323975  29.397  33.797   9.777
 1738POPC   PO423976  28.919  33.507   9.491
 1738POPC   GL123977  29.156  33.749   9.198
 1738POPC   GL223978  29.036  34.037   9.348
 1738POPC   C1A23979  29.369  33.750   8.739
 1738POPC   D2A23980  29.448  33.911   8.305
 1738POPC   C3A23981  29.631  33.662   7.989
 1738POPC   C4A23982  29.386  33.469   7.665
 1738POPC   C1B23983  29.119  34.146   8.900
 1738POPC   C2B23984  29.192  34.288   8.508
 1738POPC   C3B23985  29.126  34.295   8.078
 1738POPC   C4B23986  29.192  34.028   7.733
 1739POPC   NC323987   0.197  14.091   9.696
 1739POPC   PO423988   0.712  14.552   9.498
 1739POPC   GL123989   0.440  14.512   9.093
 1739POPC   GL223990   0.275  14.253   9.208
 1739POPC   C1A23991   0.580  14.412   8.698
 1739POPC   D2A23992   0.810  14.502   8.350
 1739POPC   C3A23993   0.625  14.304   8.072
 1739POPC   C4A23994   0.665  14.058   7.754
 1739POPC   C1B23995   0.081  14.232   8.793
 1739POPC   C2B23996   0.179  14.343   8.380
 1739POPC   C3B23997   0.139  14.181   7.981
 1739POPC   C4B23998   0.083  14.371   7.607
 1740POPC   NC323999  20.324  42.560   9.583
 1740POPC   PO424000  20.618  41.914   9.514
 1740POPC   GL124001  20.579  42.258   9.192
 1740POPC   GL224002  20.323  42.115   9.025
 1740POPC   C1A24003  20.641  42.417   8.739
 1740POPC   D2A24004  20.918  42.329   8.346
 1740POPC   C3A24005  20.922  42.544   7.904
 1740POPC   C4A24006  21.056  42.607   7.432
 1740POPC   C1B24007  20.674  41.893   8.789
 1740POPC   C2B24008  20.763  41.796   8.338
 1740POPC   C3B24009  20.638  42.073   7.974
 1740POPC   C4B24010  20.338  42.186   7.626
 1741POPC   NC324011  41.207  40.992   9.482
 1741POPC   PO424012  41.831  40.675   9.497
 1741POPC   GL124013  41.673  40.933   9.201
 1741POPC   GL224014  41.413  40.703   9.115
 1741POPC   C1A24015  41.666  41.078   8.777
 1741POPC   D2A24016  41.422  41.004   8.395
 1741POPC   C3A24017  41.676  40.881   8.029
 1741POPC   C4A24018  41.997  40.666   7.787
 1741POPC   C1B24019  41.586  40.560   8.746
 1741POPC   C2B24020  41.444  40.481   8.345
 1741POPC   C3B24021  41.632  40.367   7.981
 1741POPC   C4B24022  41.374  40.560   7.740
 1742POPC   NC324023   9.459  20.229   9.555
 1742POPC   PO424024  10.017  19.863   9.608
 1742POPC   GL124025   9.704  19.916   9.232
 1742POPC   GL224026   9.634  19.600   9.052
 1742POPC   C1A24027   9.628  20.238   8.859
 1742POPC   D2A24028   9.889  20.288   8.456
 1742POPC   C3A24029   9.921  20.061   8.051
 1742POPC   C4A24030   9.687  19.990   7.705
 1742POPC   C1B24031   9.566  19.485   8.629
 1742POPC   C2B24032   9.534  19.458   8.198
 1742POPC   C3B24033   9.821  19.522   7.905
 1742POPC   C4B24034   9.884  19.554   7.463
 1743POPC   NC324035  23.354  12.968   9.341
 1743POPC   PO424036  22.849  12.446   9.386
 1743POPC   GL124037  22.873  12.746   9.117
 1743POPC   GL224038  22.866  13.102   9.267
 1743POPC   C1A24039  23.005  12.575   8.749
 1743POPC   D2A24040  23.095  12.794   8.436
 1743POPC   C3A24041  22.788  12.849   8.191
 1743POPC   C4A24042  23.028  12.729   7.853
 1743POPC   C1B24043  22.990  13.130   8.819
 1743POPC   C2B24044  23.067  13.324   8.431
 1743POPC   C3B24045  23.151  13.202   8.038
 1743POPC   C4B24046  23.037  13.255   7.619
 1744POPC   NC324047  22.563  24.577   9.836
 1744POPC   PO424048  23.028  24.230   9.460
 1744POPC   GL124049  23.006  24.444   9.084
 1744POPC   GL224050  22.669  24.552   9.095
 1744POPC   C1A24051  23.223  24.433   8.677
 1744POPC   D2A24052  23.292  24.324   8.248
 1744POPC   C3A24053  23.003  24.574   7.954
 1744POPC   C4A24054  22.580  24.759   7.946
 1744POPC   C1B24055  22.735  24.612   8.662
 1744POPC   C2B24056  22.788  24.269   8.402
 1744POPC   C3B24057  22.885  24.074   8.043
 1744POPC   C4B24058  22.575  24.254   7.792
 1745POPC   NC324059   4.288  21.005   9.620
 1745POPC   PO424060   4.444  20.345   9.663
 1745POPC   GL124061   4.164  20.469   9.330
 1745POPC   GL224062   4.291  20.766   9.172
 1745POPC   C1A24063   4.204  20.368   8.879
 1745POPC   D2A24064   4.328  20.616   8.506
 1745POPC   C3A24065   4.091  20.539   8.136
 1745POPC   C4A24066   4.234  20.557   7.716
 1745POPC   C1B24067   4.597  20.878   8.858
 1745POPC   C2B24068   4.648  21.034   8.433
 1745POPC   C3B24069   4.520  20.860   8.052
 1745POPC   C4B24070   4.510  20.999   7.660
 1746POPC   NC324071   8.788  26.455   9.537
 1746POPC   PO424072   9.350  26.893   9.460
 1746POPC   GL124073   9.031  26.728   9.133
 1746POPC   GL224074   8.645  26.667   9.103
 1746POPC   C1A24075   8.857  26.903   8.707
 1746POPC   D2A24076   8.823  27.123   8.306
 1746POPC   C3A24077   8.948  26.889   7.918
 1746POPC   C4A24078   9.087  27.078   7.499
 1746POPC   C1B24079   8.588  26.435   8.688
 1746POPC   C2B24080   8.811  26.491   8.287
 1746POPC   C3B24081   8.723  26.412   7.850
 1746POPC   C4B24082   8.822  26.643   7.464
 1747POPC   NC324083  31.309  19.608   9.490
 1747POPC   PO424084  31.774  20.044   9.468
 1747POPC   GL124085  31.453  20.011   9.159
 1747POPC   GL224086  31.571  19.690   9.077
 1747POPC   C1A24087  31.280  20.025   8.740
 1747POPC   D2A24088  31.394  19.821   8.344
 1747POPC   C3A24089  31.486  20.024   7.943
 1747POPC   C4A24090  31.549  19.867   7.577
 1747POPC   C1B24091  31.769  19.450   8.774
 1747POPC   C2B24092  31.847  19.557   8.352
 1747POPC   C3B24093  31.620  19.506   7.982
 1747POPC   C4B24094  31.781  19.429   7.552
 1748POPC   NC324095  44.041  40.640   9.444
 1748POPC   PO424096  43.511  40.970   9.579
 1748POPC   GL124097  43.819  41.070   9.211
 1748POPC   GL224098  43.580  41.140   8.956
 1748POPC   C1A24099  44.089  40.996   8.796
 1748POPC   D2A24100  43.930  40.845   8.400
 1748POPC   C3A24101  44.180  40.756   8.025
 1748POPC   C4A24102  44.304  41.134   7.784
 1748POPC   C1B24103  43.668  40.694   8.832
 1748POPC   C2B24104  43.489  40.506   8.482
 1748POPC   C3B24105  43.681  40.511   8.109
 1748POPC   C4B24106  43.724  40.853   7.859
 1749POPC   NC324107  34.415  19.489   9.640
 1749POPC   PO424108  34.749  18.937   9.717
 1749POPC   GL124109  34.712  19.047   9.282
 1749POPC   GL224110  34.809  19.409   9.279
 1749POPC   C1A24111  34.613  18.905   8.857
 1749POPC   D2A24112  34.368  18.746   8.495
 1749POPC   C3A24113  34.439  18.894   8.078
 1749POPC   C4A24114  34.290  18.928   7.649
 1749POPC   C1B24115  34.552  19.425   8.917
 1749POPC   C2B24116  34.574  19.261   8.478
 1749POPC   C3B24117  34.468  19.399   8.054
 1749POPC   C4B24118  34.332  19.435   7.673
 1750POPC   NC324119  40.950  23.686   9.630
 1750POPC   PO424120  40.363  23.794   9.308
 1750POPC   GL124121  40.675  23.815   9.026
 1750POPC   GL224122  40.995  23.849   9.154
 1750POPC   C1A24123  40.786  24.079   8.697
 1750POPC   D2A24124  40.864  24.116   8.270
 1750POPC   C3A24125  40.612  23.867   7.988
 1750POPC   C4A24126  40.727  23.644   7.605
 1750POPC   C1B24127  41.174  23.732   8.769
 1750POPC   C2B24128  41.310  23.841   8.344
 1750POPC   C3B24129  41.122  23.824   7.914
 1750POPC   C4B24130  41.219  23.589   7.522
 1751POPC   NC324131  40.483  15.031   9.480
 1751POPC   PO424132  41.121  15.126   9.440
 1751POPC   GL124133  40.937  15.380   9.136
 1751POPC   GL224134  40.572  15.432   9.182
 1751POPC   C1A24135  40.985  15.643   8.785
 1751POPC   D2A24136  40.792  15.695   8.376
 1751POPC   C3A24137  40.930  15.428   8.077
 1751POPC   C4A24138  40.894  15.199   7.716
 1751POPC   C1B24139  40.586  15.273   8.777
 1751POPC   C2B24140  40.475  15.262   8.347
 1751POPC   C3B24141  40.457  14.977   8.022
 1751POPC   C4B24142  40.395  15.150   7.657
 1752POPC   NC324143   9.023  20.774   9.776
 1752POPC   PO424144   9.691  20.654   9.513
 1752POPC   GL124145   9.580  20.710   9.105
 1752POPC   GL224146   9.506  21.072   9.005
 1752POPC   C1A24147   9.794  20.752   8.726
 1752POPC   D2A24148   9.659  20.950   8.315
 1752POPC   C3A24149   9.836  20.770   7.941
 1752POPC   C4A24150   9.898  20.440   7.635
 1752POPC   C1B24151   9.309  20.847   8.694
 1752POPC   C2B24152   9.398  20.489   8.436
 1752POPC   C3B24153   9.523  20.381   8.040
 1752POPC   C4B24154   9.398  20.590   7.678
 1753POPC   NC324155  39.805  33.530   9.283
 1753POPC   PO424156  39.819  32.898   9.551
 1753POPC   GL124157  40.131  33.062   9.237
 1753POPC   GL224158  40.240  32.766   9.044
 1753POPC   C1A24159  40.127  33.189   8.798
 1753POPC   D2A24160  40.238  33.176   8.367
 1753POPC   C3A24161  39.987  33.129   7.988
 1753POPC   C4A24162  40.142  33.098   7.542
 1753POPC   C1B24163  40.309  32.693   8.594
 1753POPC   C2B24164  40.176  32.643   8.149
 1753POPC   C3B24165  39.925  32.672   7.755
 1753POPC   C4B24166  39.607  32.699   7.427
 1754POPC   NC324167  42.365  44.334  10.088
 1754POPC   PO424168  42.021  44.672   9.620
 1754POPC   GL124169  42.043  44.772   9.181
 1754POPC   GL224170  42.353  44.596   9.173
 1754POPC   C1A24171  42.180  44.852   8.738
 1754POPC   D2A24172  42.422  44.897   8.335
 1754POPC   C3A24173  42.254  44.704   7.956
 1754POPC   C4A24174  42.073  44.684   7.568
 1754POPC   C1B24175  42.363  44.353   8.801
 1754POPC   C2B24176  42.404  44.362   8.378
 1754POPC   C3B24177  42.465  44.174   7.994
 1754POPC   C4B24178  42.301  44.248   7.577
 1755POPC   NC324179   6.274   8.240   9.624
 1755POPC   PO424180   6.949   8.150   9.497
 1755POPC   GL124181   6.605   8.108   9.231
 1755POPC   GL224182   6.524   8.433   9.234
 1755POPC   C1A24183   6.589   7.957   8.814
 1755POPC   D2A24184   6.864   8.028   8.450
 1755POPC   C3A24185   6.747   8.281   8.085
 1755POPC   C4A24186   7.038   8.402   7.793
 1755POPC   C1B24187   6.710   8.463   8.840
 1755POPC   C2B24188   6.555   8.672   8.501
 1755POPC   C3B24189   6.370   8.636   8.111
 1755POPC   C4B24190   6.529   8.649   7.709
 1756POPC   NC324191  33.390  12.764   9.537
 1756POPC   PO424192  33.856  13.224   9.591
 1756POPC   GL124193  33.818  12.911   9.211
 1756POPC   GL224194  33.605  12.617   9.104
 1756POPC   C1A24195  33.886  12.826   8.754
 1756POPC   D2A24196  33.901  12.693   8.324
 1756POPC   C3A24197  33.908  12.969   7.984
 1756POPC   C4A24198  34.057  12.935   7.576
 1756POPC   C1B24199  33.393  12.787   8.723
 1756POPC   C2B24200  33.451  12.951   8.316
 1756POPC   C3B24201  33.504  12.663   7.965
 1756POPC   C4B24202  33.954  12.488   7.812
 1757POPC   NC324203  12.884  20.980   9.388
 1757POPC   PO424204  13.062  20.275   9.570
 1757POPC   GL124205  13.029  20.478   9.193
 1757POPC   GL224206  12.698  20.529   9.235
 1757POPC   C1A24207  13.052  20.615   8.754
 1757POPC   D2A24208  13.115  20.390   8.344
 1757POPC   C3A24209  13.070  20.642   7.975
 1757POPC   C4A24210  13.163  21.050   7.867
 1757POPC   C1B24211  12.522  20.503   8.827
 1757POPC   C2B24212  12.574  20.424   8.378
 1757POPC   C3B24213  12.582  20.535   7.944
 1757POPC   C4B24214  12.668  20.922   7.769
 1758POPC   NC324215  27.451  21.301   9.738
 1758POPC   PO424216  27.914  21.685   9.600
 1758POPC   GL124217  27.736  21.589   9.169
 1758POPC   GL224218  27.418  21.650   9.159
 1758POPC   C1A24219  27.597  21.363   8.774
 1758POPC   D2A24220  27.722  21.188   8.398
 1758POPC   C3A24221  27.582  21.071   8.029
 1758POPC   C4A24222  27.402  21.078   7.651
 1758POPC   C1B24223  27.400  21.813   8.737
 1758POPC   C2B24224  27.345  21.785   8.337
 1758POPC   C3B24225  27.467  21.545   8.055
 1758POPC   C4B24226  27.619  21.537   7.672
 1759POPC   NC324227  24.966   6.531   9.513
 1759POPC   PO424228  25.559   6.722   9.277
 1759POPC   GL124229  25.322   6.770   9.017
 1759POPC   GL224230  25.043   6.940   9.150
 1759POPC   C1A24231  25.398   6.766   8.595
 1759POPC   D2A24232  25.360   6.825   8.168
 1759POPC   C3A24233  25.523   6.537   7.880
 1759POPC   C4A24234  25.404   6.530   7.426
 1759POPC   C1B24235  24.911   6.682   8.767
 1759POPC   C2B24236  25.004   6.478   8.357
 1759POPC   C3B24237  25.015   6.524   7.908
 1759POPC   C4B24238  24.978   6.771   7.534
 1760POPC   NC324239  34.417  30.380   9.402
 1760POPC   PO424240  34.583  31.056   9.408
 1760POPC   GL124241  34.533  30.780   9.075
 1760POPC   GL224242  34.879  30.630   9.048
 1760POPC   C1A24243  34.593  30.707   8.634
 1760POPC   D2A24244  34.929  30.831   8.366
 1760POPC   C3A24245  34.764  30.760   7.950
 1760POPC   C4A24246  34.520  30.365   7.900
 1760POPC   C1B24247  35.003  30.372   8.654
 1760POPC   C2B24248  34.955  30.326   8.189
 1760POPC   C3B24249  35.003  30.370   7.709
 1760POPC   C4B24250  34.864  30.569   7.307
 1761POPC   NC324251  33.277   8.577   9.436
 1761POPC   PO424252  33.146   7.908   9.458
 1761POPC   GL124253  32.836   8.165   9.220
 1761POPC   GL224254  32.725   7.892   9.027
 1761POPC   C1A24255  32.710   8.360   8.793
 1761POPC   D2A24256  33.030   8.437   8.454
 1761POPC   C3A24257  33.030   8.263   8.037
 1761POPC   C4A24258  33.388   8.315   7.783
 1761POPC   C1B24259  33.109   8.049   8.801
 1761POPC   C2B24260  32.970   7.911   8.439
 1761POPC   C3B24261  32.724   7.781   8.119
 1761POPC   C4B24262  32.808   7.894   7.740
 1762POPC   NC324263  11.970  37.221   9.387
 1762POPC   PO424264  12.176  36.646   9.638
 1762POPC   GL124265  12.113  36.759   9.179
 1762POPC   GL224266  12.321  37.030   9.027
 1762POPC   C1A24267  11.850  36.917   8.822
 1762POPC   D2A24268  12.017  37.117   8.455
 1762POPC   C3A24269  11.921  37.066   8.032
 1762POPC   C4A24270  12.062  37.273   7.654
 1762POPC   C1B24271  12.299  36.714   8.666
 1762POPC   C2B24272  12.327  36.750   8.211
 1762POPC   C3B24273  12.386  36.815   7.759
 1762POPC   C4B24274  12.259  36.491   7.445
 1763POPC   NC324275   1.788  10.592   9.785
 1763POPC   PO424276   2.176  10.172   9.520
 1763POPC   GL124277   2.065  10.485   9.217
 1763POPC   GL224278   1.831  10.695   9.264
 1763POPC   C1A24279   2.165  10.713   8.846
 1763POPC   D2A24280   2.013  10.914   8.498
 1763POPC   C3A24281   1.952  10.821   8.075
 1763POPC   C4A24282   2.153  10.592   7.748
 1763POPC   C1B24283   1.661  10.642   8.833
 1763POPC   C2B24284   1.671  10.503   8.411
 1763POPC   C3B24285   1.886  10.311   8.095
 1763POPC   C4B24286   1.819  10.213   7.677
 1764POPC   NC324287  23.358  41.262   9.879
 1764POPC   PO424288  22.957  41.701   9.595
 1764POPC   GL124289  22.867  41.481   9.224
 1764POPC   GL224290  23.108  41.706   9.057
 1764POPC   C1A24291  22.902  41.324   8.805
 1764POPC   D2A24292  23.045  41.462   8.413
 1764POPC   C3A24293  22.899  41.311   8.037
 1764POPC   C4A24294  22.717  41.530   7.671
 1764POPC   C1B24295  23.225  41.907   8.675
 1764POPC   C2B24296  23.333  41.829   8.244
 1764POPC   C3B24297  23.120  41.815   7.875
 1764POPC   C4B24298  23.155  41.825   7.424
 1765POPC   NC324299  31.727  32.389   9.795
 1765POPC   PO424300  32.349  32.481   9.456
 1765POPC   GL124301  32.287  32.268   9.067
 1765POPC   GL224302  32.005  32.470   8.850
 1765POPC   C1A24303  32.450  32.239   8.669
 1765POPC   D2A24304  32.198  32.422   8.374
 1765POPC   C3A24305  32.205  32.300   7.964
 1765POPC   C4A24306  31.873  32.379   7.778
 1765POPC   C1B24307  32.368  32.736   8.815
 1765POPC   C2B24308  32.572  32.768   8.444
 1765POPC   C3B24309  32.647  32.515   8.090
 1765POPC   C4B24310  32.580  32.659   7.710
 1766POPC   NC324311  40.984   1.487   9.446
 1766POPC   PO424312  40.895   2.203   9.423
 1766POPC   GL124313  40.743   2.053   9.033
 1766POPC   GL224314  40.766   1.723   9.049
 1766POPC   C1A24315  40.589   1.905   8.635
 1766POPC   D2A24316  40.637   1.653   8.296
 1766POPC   C3A24317  40.539   1.931   7.963
 1766POPC   C4A24318  40.833   2.081   7.716
 1766POPC   C1B24319  41.087   1.620   8.714
 1766POPC   C2B24320  41.281   1.615   8.291
 1766POPC   C3B24321  41.194   1.773   7.880
 1766POPC   C4B24322  41.179   1.895   7.420
 1767POPC   NC324323  30.291  22.651   9.422
 1767POPC   PO424324  30.695  23.191   9.510
 1767POPC   GL124325  30.576  23.080   9.104
 1767POPC   GL224326  30.228  22.997   9.022
 1767POPC   C1A24327  30.595  23.178   8.674
 1767POPC   D2A24328  30.737  23.283   8.275
 1767POPC   C3A24329  30.530  23.080   7.950
 1767POPC   C4A24330  30.686  23.127   7.545
 1767POPC   C1B24331  30.449  22.692   8.758
 1767POPC   C2B24332  30.714  22.736   8.396
 1767POPC   C3B24333  30.649  22.580   8.006
 1767POPC   C4B24334  30.530  22.657   7.595
 1768POPC   NC324335  21.909  43.381   9.521
 1768POPC   PO424336  22.248  43.979   9.443
 1768POPC   GL124337  22.025  43.933   9.110
 1768POPC   GL224338  22.035  43.615   9.081
 1768POPC   C1A24339  22.175  44.001   8.704
 1768POPC   D2A24340  22.133  44.254   8.367
 1768POPC   C3A24341  22.146  43.961   8.055
 1768POPC   C4A24342  21.932  43.923   7.692
 1768POPC   C1B24343  21.840  43.606   8.695
 1768POPC   C2B24344  21.947  43.520   8.253
 1768POPC   C3B24345  21.876  43.426   7.815
 1768POPC   C4B24346  21.985  43.532   7.360
 1769POPC   NC324347  13.891  28.148   9.629
 1769POPC   PO424348  13.599  28.742   9.522
 1769POPC   GL124349  13.600  28.427   9.263
 1769POPC   GL224350  13.604  28.701   9.006
 1769POPC   C1A24351  13.625  28.229   8.877
 1769POPC   D2A24352  13.542  28.449   8.465
 1769POPC   C3A24353  13.772  28.339   8.118
 1769POPC   C4A24354  13.713  28.111   7.757
 1769POPC   C1B24355  13.197  28.497   8.823
 1769POPC   C2B24356  13.014  28.619   8.447
 1769POPC   C3B24357  13.227  28.716   8.088
 1769POPC   C4B24358  13.418  28.513   7.742
 1770POPC   NC324359  22.318  14.289   9.643
 1770POPC   PO424360  21.634  14.044   9.552
 1770POPC   GL124361  22.002  14.296   9.225
 1770POPC   GL224362  22.367  14.463   9.187
 1770POPC   C1A24363  22.097  14.418   8.778
 1770POPC   D2A24364  22.322  14.273   8.413
 1770POPC   C3A24365  22.077  14.312   8.031
 1770POPC   C4A24366  21.948  14.128   7.641
 1770POPC   C1B24367  22.537  14.752   8.874
 1770POPC   C2B24368  22.360  14.772   8.482
 1770POPC   C3B24369  22.483  14.678   8.073
 1770POPC   C4B24370  22.232  14.714   7.735
 1771POPC   NC324371   4.475  16.286   9.648
 1771POPC   PO424372   4.957  16.808   9.506
 1771POPC   GL124373   5.180  16.713   9.095
 1771POPC   GL224374   5.230  16.343   8.986
 1771POPC   C1A24375   5.047  16.704   8.677
 1771POPC   D2A24376   4.744  16.901   8.474
 1771POPC   C3A24377   4.946  16.921   8.091
 1771POPC   C4A24378   4.972  16.821   7.675
 1771POPC   C1B24379   5.007  16.195   8.643
 1771POPC   C2B24380   4.762  16.385   8.360
 1771POPC   C3B24381   4.861  16.418   7.963
 1771POPC   C4B24382   4.790  16.372   7.550
 1772POPC   NC324383  24.460  34.844   9.606
 1772POPC   PO424384  24.406  34.160   9.444
 1772POPC   GL124385  24.472  34.389   9.064
 1772POPC   GL224386  24.559  34.733   9.107
 1772POPC   C1A24387  24.506  34.456   8.641
 1772POPC   D2A24388  24.378  34.667   8.291
 1772POPC   C3A24389  24.416  34.359   7.969
 1772POPC   C4A24390  24.659  34.377   7.578
 1772POPC   C1B24391  24.547  34.963   8.718
 1772POPC   C2B24392  24.643  35.143   8.336
 1772POPC   C3B24393  24.694  34.980   7.936
 1772POPC   C4B24394  24.374  34.787   7.719
 1773POPC   NC324395  17.887  15.320   9.385
 1773POPC   PO424396  17.288  15.327   9.669
 1773POPC   GL124397  17.381  15.225   9.232
 1773POPC   GL224398  17.363  14.917   9.037
 1773POPC   C1A24399  17.434  15.417   8.822
 1773POPC   D2A24400  17.331  15.239   8.423
 1773POPC   C3A24401  17.348  15.464   8.039
 1773POPC   C4A24402  17.480  15.455   7.623
 1773POPC   C1B24403  17.738  15.016   8.825
 1773POPC   C2B24404  17.838  15.050   8.401
 1773POPC   C3B24405  17.799  15.190   7.971
 1773POPC   C4B24406  17.866  15.137   7.520
 1774POPC   NC324407  20.043  10.286   9.495
 1774POPC   PO424408  19.658   9.734   9.469
 1774POPC   GL124409  19.864   9.700   9.124
 1774POPC   GL224410  20.120   9.906   9.169
 1774POPC   C1A24411  19.764   9.876   8.765
 1774POPC   D2A24412  19.786   9.669   8.414
 1774POPC   C3A24413  19.657   9.864   8.069
 1774POPC   C4A24414  19.541   9.679   7.678
 1774POPC   C1B24415  20.263  10.014   8.764
 1774POPC   C2B24416  20.033  10.152   8.412
 1774POPC   C3B24417  20.118  10.100   8.010
 1774POPC   C4B24418  19.847  10.087   7.665
 1775POPC   NC324419   9.625  22.599   9.419
 1775POPC   PO424420   9.505  23.255   9.435
 1775POPC   GL124421   9.678  23.088   9.073
 1775POPC   GL224422   9.778  22.782   8.974
 1775POPC   C1A24423   9.785  23.236   8.676
 1775POPC   D2A24424   9.683  23.462   8.320
 1775POPC   C3A24425   9.758  23.275   7.970
 1775POPC   C4A24426   9.973  22.951   7.749
 1775POPC   C1B24427  10.110  22.841   8.684
 1775POPC   C2B24428  10.039  22.981   8.295
 1775POPC   C3B24429   9.670  22.777   8.125
 1775POPC   C4B24430   9.634  22.428   7.833
 1776POPC   NC324431  27.128  32.884   9.529
 1776POPC   PO424432  26.628  33.325   9.441
 1776POPC   GL124433  26.744  33.053   9.151
 1776POPC   GL224434  27.082  33.089   9.071
 1776POPC   C1A24435  26.657  33.019   8.727
 1776POPC   D2A24436  26.807  33.189   8.370
 1776POPC   C3A24437  26.642  32.989   8.029
 1776POPC   C4A24438  26.776  33.145   7.614
 1776POPC   C1B24439  27.108  32.783   8.755
 1776POPC   C2B24440  27.028  32.709   8.320
 1776POPC   C3B24441  27.149  32.991   8.010
 1776POPC   C4B24442  27.251  32.996   7.597
 1777POPC   NC324443   4.271  24.176   9.607
 1777POPC   PO424444   4.211  24.775   9.570
 1777POPC   GL124445   4.268  24.514   9.187
 1777POPC   GL224446   4.497  24.217   9.075
 1777POPC   C1A24447   4.306  24.596   8.734
 1777POPC   D2A24448   4.115  24.337   8.394
 1777POPC   C3A24449   4.065  24.511   7.999
 1777POPC   C4A24450   4.010  24.707   7.601
 1777POPC   C1B24451   4.570  24.193   8.595
 1777POPC   C2B24452   4.583  24.484   8.218
 1777POPC   C3B24453   4.522  24.498   7.764
 1777POPC   C4B24454   4.574  24.431   7.285
 1778POPC   NC324455  38.864  22.611   9.558
 1778POPC   PO424456  39.268  23.187   9.443
 1778POPC   GL124457  39.271  22.991   9.069
 1778POPC   GL224458  38.925  23.015   9.037
 1778POPC   C1A24459  39.499  23.046   8.687
 1778POPC   D2A24460  39.678  22.973   8.294
 1778POPC   C3A24461  39.481  23.227   8.003
 1778POPC   C4A24462  39.283  23.054   7.670
 1778POPC   C1B24463  39.003  22.900   8.613
 1778POPC   C2B24464  39.076  22.930   8.154
 1778POPC   C3B24465  38.919  22.733   7.752
 1778POPC   C4B24466  38.966  22.877   7.280
 1779POPC   NC324467  18.473  26.942   9.554
 1779POPC   PO424468  18.452  26.285   9.748
 1779POPC   GL124469  18.295  26.492   9.303
 1779POPC   GL224470  18.523  26.706   9.109
 1779POPC   C1A24471  18.093  26.677   8.873
 1779POPC   D2A24472  18.220  26.941   8.497
 1779POPC   C3A24473  18.161  26.809   8.064
 1779POPC   C4A24474  18.482  26.760   7.711
 1779POPC   C1B24475  18.561  27.052   8.848
 1779POPC   C2B24476  18.726  27.207   8.460
 1779POPC   C3B24477  18.750  27.292   8.006
 1779POPC   C4B24478  18.662  27.219   7.561
 1780POPC   NC324479   4.030   6.344   9.438
 1780POPC   PO424480   4.108   5.700   9.474
 1780POPC   GL124481   4.212   5.655   9.091
 1780POPC   GL224482   4.554   5.745   9.075
 1780POPC   C1A24483   4.271   5.525   8.691
 1780POPC   D2A24484   4.162   5.765   8.367
 1780POPC   C3A24485   4.150   5.641   7.959
 1780POPC   C4A24486   4.086   5.948   7.653
 1780POPC   C1B24487   4.335   6.047   8.787
 1780POPC   C2B24488   4.477   6.159   8.345
 1780POPC   C3B24489   4.538   6.023   7.907
 1780POPC   C4B24490   4.464   6.292   7.534
 1781POPC   NC324491   4.600   2.771   9.645
 1781POPC   PO424492   5.238   2.921   9.476
 1781POPC   GL124493   5.170   2.716   9.131
 1781POPC   GL224494   4.836   2.675   9.211
 1781POPC   C1A24495   5.223   2.814   8.692
 1781POPC   D2A24496   5.266   3.016   8.265
 1781POPC   C3A24497   5.152   2.733   7.929
 1781POPC   C4A24498   5.444   2.449   7.678
 1781POPC   C1B24499   4.722   2.853   8.830
 1781POPC   C2B24500   4.785   2.905   8.420
 1781POPC   C3B24501   4.749   3.050   8.022
 1781POPC   C4B24502   4.940   3.118   7.616
 1782POPC   NC324503  38.514  20.572   9.526
 1782POPC   PO424504  37.935  20.248   9.558
 1782POPC   GL124505  38.172  20.466   9.143
 1782POPC   GL224506  38.518  20.665   9.048
 1782POPC   C1A24507  38.214  20.584   8.680
 1782POPC   D2A24508  38.351  20.340   8.329
 1782POPC   C3A24509  38.284  20.584   7.972
 1782POPC   C4A24510  38.310  20.509   7.528
 1782POPC   C1B24511  38.720  20.460   8.678
 1782POPC   C2B24512  38.789  20.592   8.287
 1782POPC   C3B24513  38.828  20.503   7.916
 1782POPC   C4B24514  38.780  20.705   7.566
 1783POPC   NC324515  44.208   7.048   9.455
 1783POPC   PO424516  44.834   7.439   9.661
 1783POPC   GL124517  44.839   7.522   9.160
 1783POPC   GL224518  44.488   7.453   9.002
 1783POPC   C1A24519  44.851   7.264   8.730
 1783POPC   D2A24520  44.610   7.033   8.396
 1783POPC   C3A24521  44.541   7.265   7.990
 1783POPC   C4A24522  44.832   7.353   7.624
 1783POPC   C1B24523  44.271   7.339   8.647
 1783POPC   C2B24524  44.092   7.454   8.279
 1783POPC   C3B24525  44.252   7.775   8.053
 1783POPC   C4B24526  44.442   7.674   7.682
 1784POPC   NC324527  22.455   4.487   9.444
 1784POPC   PO424528  22.126   3.869   9.393
 1784POPC   GL124529  22.322   4.112   9.107
 1784POPC   GL224530  22.146   4.428   9.054
 1784POPC   C1A24531  22.269   4.064   8.677
 1784POPC   D2A24532  22.392   3.974   8.276
 1784POPC   C3A24533  22.062   4.039   8.021
 1784POPC   C4A24534  21.986   4.349   7.714
 1784POPC   C1B24535  21.936   4.602   8.722
 1784POPC   C2B24536  22.008   4.404   8.371
 1784POPC   C3B24537  22.310   4.500   8.105
 1784POPC   C4B24538  22.216   4.799   7.801
 1785POPC   NC324539  22.673  37.406   9.487
 1785POPC   PO424540  23.002  36.763   9.575
 1785POPC   GL124541  22.900  36.832   9.181
 1785POPC   GL224542  22.942  37.133   9.139
 1785POPC   C1A24543  23.009  36.785   8.732
 1785POPC   D2A24544  23.034  36.571   8.340
 1785POPC   C3A24545  22.765  36.675   7.970
 1785POPC   C4A24546  22.836  36.672   7.538
 1785POPC   C1B24547  22.702  37.201   8.806
 1785POPC   C2B24548  23.008  37.231   8.486
 1785POPC   C3B24549  23.075  37.053   8.096
 1785POPC   C4B24550  23.082  37.165   7.676
 1786POPC   NC324551  16.349  14.560   9.538
 1786POPC   PO424552  15.873  14.096   9.530
 1786POPC   GL124553  16.077  14.256   9.174
 1786POPC   GL224554  15.761  14.394   9.077
 1786POPC   C1A24555  16.325  14.276   8.785
 1786POPC   D2A24556  16.447  14.266   8.341
 1786POPC   C3A24557  16.228  14.411   7.952
 1786POPC   C4A24558  16.063  14.374   7.531
 1786POPC   C1B24559  15.897  14.547   8.684
 1786POPC   C2B24560  15.825  14.486   8.258
 1786POPC   C3B24561  15.767  14.638   7.847
 1786POPC   C4B24562  15.788  14.970   7.563
 1787POPC   NC324563   1.014   7.381   9.570
 1787POPC   PO424564   1.212   8.038   9.579
 1787POPC   GL124565   1.250   7.653   9.211
 1787POPC   GL224566   1.132   7.297   9.089
 1787POPC   C1A24567   1.340   7.589   8.739
 1787POPC   D2A24568   1.313   7.364   8.373
 1787POPC   C3A24569   1.514   7.512   8.023
 1787POPC   C4A24570   1.290   7.777   7.778
 1787POPC   C1B24571   0.921   7.248   8.719
 1787POPC   C2B24572   0.849   7.155   8.314
 1787POPC   C3B24573   1.090   7.223   7.923
 1787POPC   C4B24574   1.021   7.190   7.488
 1788POPC   NC324575  17.681  33.248   9.289
 1788POPC   PO424576  17.404  32.744   9.684
 1788POPC   GL124577  17.346  32.843   9.252
 1788POPC   GL224578  17.183  33.199   9.274
 1788POPC   C1A24579  17.576  32.711   8.865
 1788POPC   D2A24580  17.731  32.975   8.546
 1788POPC   C3A24581  17.611  32.866   8.155
 1788POPC   C4A24582  17.643  33.078   7.762
 1788POPC   C1B24583  17.260  33.105   8.810
 1788POPC   C2B24584  17.209  33.126   8.383
 1788POPC   C3B24585  17.464  33.362   8.144
 1788POPC   C4B24586  17.419  33.546   7.781
 1789POPC   NC324587  14.194   0.796   9.182
 1789POPC   PO424588  14.338   1.352   9.516
 1789POPC   GL124589  14.612   1.128   9.203
 1789POPC   GL224590  14.595   0.866   8.916
 1789POPC   C1A24591  14.838   1.299   8.852
 1789POPC   D2A24592  14.777   1.147   8.438
 1789POPC   C3A24593  14.698   1.326   8.043
 1789POPC   C4A24594  14.634   1.137   7.643
 1789POPC   C1B24595  14.347   1.210   8.728
 1789POPC   C2B24596  14.223   1.250   8.305
 1789POPC   C3B24597  14.207   1.211   7.862
 1789POPC   C4B24598  14.230   1.353   7.416
 1790POPC   NC324599   6.745  17.999   9.524
 1790POPC   PO424600   6.435  17.373   9.443
 1790POPC   GL124601   6.705  17.412   9.126
 1790POPC   GL224602   6.894  17.692   9.150
 1790POPC   C1A24603   6.700  17.184   8.781
 1790POPC   D2A24604   6.499  17.218   8.387
 1790POPC   C3A24605   6.623  17.573   8.121
 1790POPC   C4A24606   6.770  17.546   7.719
 1790POPC   C1B24607   6.985  17.947   8.784
 1790POPC   C2B24608   6.898  18.043   8.324
 1790POPC   C3B24609   6.932  18.015   7.845
 1790POPC   C4B24610   6.698  17.941   7.432
 1791POPC   NC324611  39.747   9.347   9.542
 1791POPC   PO424612  39.864  10.113   9.604
 1791POPC   GL124613  40.139  10.001   9.197
 1791POPC   GL224614  40.236   9.642   9.188
 1791POPC   C1A24615  39.985   9.747   8.781
 1791POPC   D2A24616  39.856   9.569   8.403
 1791POPC   C3A24617  39.978   9.786   8.038
 1791POPC   C4A24618  39.848   9.824   7.611
 1791POPC   C1B24619  40.343   9.378   8.818
 1791POPC   C2B24620  40.359   9.497   8.376
 1791POPC   C3B24621  40.435   9.585   7.942
 1791POPC   C4B24622  40.344   9.678   7.508
 1792POPC   NC324623  24.936  10.292   9.547
 1792POPC   PO424624  25.398  10.660   9.293
 1792POPC   GL124625  25.323  10.329   9.012
 1792POPC   GL224626  25.000  10.376   9.054
 1792POPC   C1A24627  25.444  10.438   8.565
 1792POPC   D2A24628  25.643  10.866   8.473
 1792POPC   C3A24629  25.748  10.899   8.037
 1792POPC   C4A24630  25.467  10.805   7.704
 1792POPC   C1B24631  25.046  10.683   8.739
 1792POPC   C2B24632  24.898  10.689   8.344
 1792POPC   C3B24633  25.060  10.619   7.936
 1792POPC   C4B24634  25.132  10.479   7.473
 1793POPC   NC324635  39.913  15.807   9.789
 1793POPC   PO424636  40.097  15.284   9.418
 1793POPC   GL124637  40.137  15.195   9.058
 1793POPC   GL224638  40.320  14.900   9.023
 1793POPC   C1A24639  40.090  15.352   8.687
 1793POPC   D2A24640  39.840  15.392   8.358
 1793POPC   C3A24641  40.072  15.340   8.011
 1793POPC   C4A24642  39.902  15.252   7.626
 1793POPC   C1B24643  39.980  14.818   8.761
 1793POPC   C2B24644  40.031  14.920   8.340
 1793POPC   C3B24645  39.730  14.962   8.024
 1793POPC   C4B24646  39.793  14.761   7.636
 1794POPC   NC324647  34.123  40.306   9.284
 1794POPC   PO424648  34.501  39.775   9.615
 1794POPC   GL124649  34.629  39.774   9.184
 1794POPC   GL224650  34.297  39.843   9.126
 1794POPC   C1A24651  34.815  40.039   8.825
 1794POPC   D2A24652  34.954  40.325   8.475
 1794POPC   C3A24653  34.783  40.262   8.044
 1794POPC   C4A24654  34.402  40.446   7.832
 1794POPC   C1B24655  34.319  39.931   8.712
 1794POPC   C2B24656  34.306  40.071   8.272
 1794POPC   C3B24657  34.394  39.951   7.845
 1794POPC   C4B24658  34.423  39.704   7.477
 1795POPC   NC324659  12.878  31.234   9.566
 1795POPC   PO424660  12.634  31.878   9.332
 1795POPC   GL124661  12.864  31.514   9.113
 1795POPC   GL224662  13.134  31.615   8.939
 1795POPC   C1A24663  12.863  31.224   8.715
 1795POPC   D2A24664  12.740  31.017   8.311
 1795POPC   C3A24665  12.705  31.324   7.988
 1795POPC   C4A24666  13.078  31.402   7.766
 1795POPC   C1B24667  12.782  31.751   8.673
 1795POPC   C2B24668  12.811  31.764   8.240
 1795POPC   C3B24669  12.948  31.876   7.851
 1795POPC   C4B24670  12.763  32.053   7.512
 1796POPC   NC324671  15.123  24.770   9.431
 1796POPC   PO424672  15.192  24.089   9.659
 1796POPC   GL124673  15.168  24.276   9.217
 1796POPC   GL224674  14.864  24.254   9.019
 1796POPC   C1A24675  15.325  24.380   8.778
 1796POPC   D2A24676  15.292  24.320   8.306
 1796POPC   C3A24677  15.499  24.241   7.882
 1796POPC   C4A24678  15.344  24.386   7.475
 1796POPC   C1B24679  14.880  24.658   8.753
 1796POPC   C2B24680  15.026  24.769   8.325
 1796POPC   C3B24681  15.100  24.619   7.893
 1796POPC   C4B24682  14.856  24.518   7.504
 1797POPC   NC324683  36.942   2.563   9.520
 1797POPC   PO424684  36.597   3.214   9.477
 1797POPC   GL124685  36.775   2.911   9.204
 1797POPC   GL224686  36.587   2.597   9.169
 1797POPC   C1A24687  36.949   2.782   8.829
 1797POPC   D2A24688  37.030   3.043   8.508
 1797POPC   C3A24689  37.013   2.804   8.130
 1797POPC   C4A24690  36.922   3.051   7.777
 1797POPC   C1B24691  36.595   2.398   8.822
 1797POPC   C2B24692  36.774   2.351   8.455
 1797POPC   C3B24693  36.599   2.409   8.095
 1797POPC   C4B24694  36.775   2.504   7.718
 1798POPC   NC324695  18.817  37.772   9.472
 1798POPC   PO424696  19.325  37.435   9.656
 1798POPC   GL124697  19.201  37.572   9.210
 1798POPC   GL224698  19.171  37.979   9.163
 1798POPC   C1A24699  19.153  37.564   8.754
 1798POPC   D2A24700  19.396  37.394   8.426
 1798POPC   C3A24701  19.190  37.180   8.091
 1798POPC   C4A24702  19.120  37.309   7.673
 1798POPC   C1B24703  18.858  37.988   8.817
 1798POPC   C2B24704  18.738  37.753   8.422
 1798POPC   C3B24705  18.842  37.604   7.990
 1798POPC   C4B24706  18.853  37.797   7.569
 1799POPC   NC324707   4.663  24.939   9.491
 1799POPC   PO424708   4.716  24.213   9.543
 1799POPC   GL124709   4.929  24.531   9.261
 1799POPC   GL224710   4.724  24.668   9.043
 1799POPC   C1A24711   5.246  24.629   8.924
 1799POPC   D2A24712   5.362  24.660   8.448
 1799POPC   C3A24713   5.325  24.437   8.004
 1799POPC   C4A24714   5.323  24.694   7.574
 1799POPC   C1B24715   4.832  24.658   8.634
 1799POPC   C2B24716   4.933  24.898   8.282
 1799POPC   C3B24717   4.941  24.730   7.922
 1799POPC   C4B24718   4.833  24.814   7.519
 1800POPC   NC324719  43.752  21.775   9.343
 1800POPC   PO424720  43.969  22.358   9.426
 1800POPC   GL124721  44.078  22.077   9.092
 1800POPC   GL224722  43.742  22.137   8.970
 1800POPC   C1A24723  44.057  21.829   8.702
 1800POPC   D2A24724  43.791  21.836   8.340
 1800POPC   C3A24725  44.005  22.053   8.031
 1800POPC   C4A24726  44.091  22.222   7.644
 1800POPC   C1B24727  43.583  22.363   8.614
 1800POPC   C2B24728  43.596  22.317   8.167
 1800POPC   C3B24729  43.573  22.303   7.706
 1800POPC   C4B24730  43.517  22.457   7.256
 1801POPC   NC324731  28.955  11.831   9.477
 1801POPC   PO424732  29.241  12.345   9.766
 1801POPC   GL124733  29.190  12.184   9.221
 1801POPC   GL224734  29.490  12.028   9.046
 1801POPC   C1A24735  29.051  11.953   8.809
 1801POPC   D2A24736  28.842  11.638   8.523
 1801POPC   C3A24737  28.912  11.712   8.078
 1801POPC   C4A24738  28.974  12.047   7.778
 1801POPC   C1B24739  29.351  12.389   8.769
 1801POPC   C2B24740  29.171  12.350   8.362
 1801POPC   C3B24741  29.365  12.014   8.094
 1801POPC   C4B24742  29.472  11.903   7.666
 1802POPC   NC324743   7.715   4.784   9.367
 1802POPC   PO424744   7.301   4.179   9.481
 1802POPC   GL124745   7.504   4.300   9.137
 1802POPC   GL224746   7.854   4.334   9.160
 1802POPC   C1A24747   7.604   4.091   8.762
 1802POPC   D2A24748   7.460   4.285   8.383
 1802POPC   C3A24749   7.394   4.089   7.981
 1802POPC   C4A24750   7.548   4.338   7.660
 1802POPC   C1B24751   7.787   4.579   8.772
 1802POPC   C2B24752   7.799   4.691   8.386
 1802POPC   C3B24753   7.606   4.705   8.024
 1802POPC   C4B24754   7.806   4.778   7.635
 1803POPC   NC324755  35.441  38.052   9.709
 1803POPC   PO424756  34.923  37.733   9.532
 1803POPC   GL124757  35.160  37.909   9.200
 1803POPC   GL224758  35.461  37.748   9.122
 1803POPC   C1A24759  35.129  37.871   8.730
 1803POPC   D2A24760  34.988  37.669   8.323
 1803POPC   C3A24761  35.306  37.734   7.988
 1803POPC   C4A24762  35.646  37.957   7.740
 1803POPC   C1B24763  35.607  37.506   8.749
 1803POPC   C2B24764  35.740  37.418   8.303
 1803POPC   C3B24765  35.561  37.286   7.903
 1803POPC   C4B24766  35.588  37.489   7.482
 1804POPC   NC324767  19.599   5.194   9.588
 1804POPC   PO424768  20.192   4.997   9.725
 1804POPC   GL124769  20.073   5.025   9.231
 1804POPC   GL224770  19.918   4.734   8.997
 1804POPC   C1A24771  20.060   5.149   8.764
 1804POPC   D2A24772  19.926   4.827   8.418
 1804POPC   C3A24773  19.987   4.957   7.981
 1804POPC   C4A24774  20.036   5.382   7.791
 1804POPC   C1B24775  19.572   4.969   8.776
 1804POPC   C2B24776  19.464   5.324   8.492
 1804POPC   C3B24777  19.586   5.285   8.054
 1804POPC   C4B24778  19.497   4.907   7.830
 1805POPC   NC324779  26.419   4.583   9.455
 1805POPC   PO424780  26.909   4.036   9.554
 1805POPC   GL124781  26.794   4.147   9.123
 1805POPC   GL224782  26.759   4.491   9.108
 1805POPC   C1A24783  26.755   4.099   8.648
 1805POPC   D2A24784  26.749   4.167   8.171
 1805POPC   C3A24785  26.810   3.957   7.751
 1805POPC   C4A24786  27.061   4.147   7.326
 1805POPC   C1B24787  26.932   4.559   8.747
 1805POPC   C2B24788  27.002   4.776   8.418
 1805POPC   C3B24789  27.119   4.561   8.082
 1805POPC   C4B24790  26.975   4.433   7.710
 1806POPC   NC324791  22.011   0.335   9.452
 1806POPC   PO424792  22.658   0.404   9.558
 1806POPC   GL124793  22.437   0.545   9.160
 1806POPC   GL224794  22.119   0.742   9.184
 1806POPC   C1A24795  22.240   0.434   8.759
 1806POPC   D2A24796  22.237   0.195   8.356
 1806POPC   C3A24797  22.112   0.483   8.035
 1806POPC   C4A24798  22.318   0.631   7.700
 1806POPC   C1B24799  21.783   0.682   8.838
 1806POPC   C2B24800  21.720   0.650   8.383
 1806POPC   C3B24801  21.737   0.910   8.003
 1806POPC   C4B24802  21.818   0.719   7.612
 1807POPC   NC324803  30.670  40.413   9.452
 1807POPC   PO424804  30.329  40.973   9.360
 1807POPC   GL124805  30.575  40.742   9.041
 1807POPC   GL224806  30.907  40.786   9.163
 1807POPC   C1A24807  30.644  40.705   8.572
 1807POPC   D2A24808  30.382  40.904   8.241
 1807POPC   C3A24809  30.469  41.040   7.822
 1807POPC   C4A24810  30.333  41.080   7.399
 1807POPC   C1B24811  30.921  41.080   8.821
 1807POPC   C2B24812  30.911  41.102   8.393
 1807POPC   C3B24813  30.893  40.860   8.052
 1807POPC   C4B24814  30.930  40.857   7.614
 1808POPC   NC324815  44.175   3.646   9.413
 1808POPC   PO424816  44.845   3.737   9.470
 1808POPC   GL124817  44.850   3.506   9.092
 1808POPC   GL224818  44.981   3.164   9.041
 1808POPC   C1A24819  44.630   3.611   8.731
 1808POPC   D2A24820  44.375   3.488   8.401
 1808POPC   C3A24821  44.453   3.744   8.081
 1808POPC   C4A24822  44.480   3.625   7.687
 1808POPC   C1B24823   0.114   3.397   8.656
 1808POPC   C2B24824  44.904   3.604   8.304
 1808POPC   C3B24825  44.957   3.668   7.879
 1808POPC   C4B24826   0.023   3.446   7.510
 1809POPC   NC324827  41.904  12.215   9.375
 1809POPC   PO424828  41.311  12.387   9.390
 1809POPC   GL124829  41.278  12.199   9.043
 1809POPC   GL224830  41.369  11.848   9.165
 1809POPC   C1A24831  41.364  12.367   8.647
 1809POPC   D2A24832  41.689  12.540   8.413
 1809POPC   C3A24833  41.736  12.244   8.099
 1809POPC   C4A24834  41.616  12.285   7.704
 1809POPC   C1B24835  41.595  11.888   8.773
 1809POPC   C2B24836  41.386  11.937   8.378
 1809POPC   C3B24837  41.421  11.747   8.006
 1809POPC   C4B24838  41.740  11.789   7.739
 1810POPC   NC324839   0.911   2.098   9.494
 1810POPC   PO424840   1.501   2.258   9.728
 1810POPC   GL124841   1.380   2.164   9.241
 1810POPC   GL224842   1.113   1.951   9.054
 1810POPC   C1A24843   1.547   2.009   8.799
 1810POPC   D2A24844   1.319   1.775   8.455
 1810POPC   C3A24845   1.366   1.833   7.989
 1810POPC   C4A24846   1.323   1.700   7.545
 1810POPC   C1B24847   0.835   1.942   8.687
 1810POPC   C2B24848   0.936   2.056   8.276
 1810POPC   C3B24849   1.025   2.221   7.857
 1810POPC   C4B24850   0.834   1.970   7.522
 1811POPC   NC324851  26.038  17.241   9.513
 1811POPC   PO424852  25.672  17.847   9.540
 1811POPC   GL124853  25.903  17.899   9.161
 1811POPC   GL224854  26.294  17.878   9.177
 1811POPC   C1A24855  25.844  17.654   8.800
 1811POPC   D2A24856  26.002  17.409   8.448
 1811POPC   C3A24857  25.764  17.442   8.065
 1811POPC   C4A24858  25.867  17.145   7.738
 1811POPC   C1B24859  26.353  17.852   8.732
 1811POPC   C2B24860  26.450  17.679   8.310
 1811POPC   C3B24861  26.301  17.387   7.982
 1811POPC   C4B24862  26.282  17.493   7.556
 1812POPC   NC324863  15.417  19.679   9.541
 1812POPC   PO424864  15.189  20.287   9.492
 1812POPC   GL124865  15.149  20.005   9.150
 1812POPC   GL224866  15.481  19.890   9.062
 1812POPC   C1A24867  15.083  19.879   8.709
 1812POPC   D2A24868  14.813  19.899   8.324
 1812POPC   C3A24869  15.077  19.852   7.964
 1812POPC   C4A24870  15.161  19.635   7.570
 1812POPC   C1B24871  15.603  19.753   8.629
 1812POPC   C2B24872  15.538  19.682   8.165
 1812POPC   C3B24873  15.626  19.605   7.714
 1812POPC   C4B24874  15.603  19.597   7.241
 1813POPC   NC324875  19.189  17.534   9.592
 1813POPC   PO424876  19.435  16.995   9.411
 1813POPC   GL124877  19.133  17.284   9.141
 1813POPC   GL224878  18.868  17.589   9.205
 1813POPC   C1A24879  19.295  17.481   8.751
 1813POPC   D2A24880  19.101  17.636   8.394
 1813POPC   C3A24881  19.310  17.589   8.035
 1813POPC   C4A24882  19.226  17.258   7.737
 1813POPC   C1B24883  18.781  17.448   8.788
 1813POPC   C2B24884  18.749  17.273   8.366
 1813POPC   C3B24885  18.792  17.440   7.959
 1813POPC   C4B24886  18.744  17.426   7.522
 1814POPC   NC324887  44.816   8.510   9.408
 1814POPC   PO424888  44.307   7.977   9.465
 1814POPC   GL124889  44.441   8.276   9.143
 1814POPC   GL224890  44.758   8.084   9.098
 1814POPC   C1A24891  44.587   8.382   8.687
 1814POPC   D2A24892  44.658   8.142   8.269
 1814POPC   C3A24893  44.897   8.355   7.923
 1814POPC   C4A24894  44.940   8.393   7.452
 1814POPC   C1B24895  44.495   7.885   8.753
 1814POPC   C2B24896  44.624   7.619   8.394
 1814POPC   C3B24897  44.854   7.689   8.014
 1814POPC   C4B24898  44.874   7.910   7.627
 1815POPC   NC324899   8.424  14.256   9.378
 1815POPC   PO424900   8.023  14.803   9.486
 1815POPC   GL124901   8.071  14.565   9.087
 1815POPC   GL224902   8.158  14.183   8.973
 1815POPC   C1A24903   8.265  14.600   8.690
 1815POPC   D2A24904   8.434  14.415   8.352
 1815POPC   C3A24905   8.372  14.632   7.976
 1815POPC   C4A24906   8.045  14.412   7.759
 1815POPC   C1B24907   8.570  14.058   8.748
 1815POPC   C2B24908   8.622  13.899   8.309
 1815POPC   C3B24909   8.418  14.093   7.943
 1815POPC   C4B24910   8.582  14.359   7.601
 1816POPC   NC324911  44.248  41.398   9.352
 1816POPC   PO424912  43.629  41.623   9.325
 1816POPC   GL124913  43.868  41.583   9.031
 1816POPC   GL224914  44.056  41.849   9.119
 1816POPC   C1A24915  43.850  41.425   8.641
 1816POPC   D2A24916  43.574  41.240   8.385
 1816POPC   C3A24917  43.895  41.260   8.091
 1816POPC   C4A24918  43.882  41.381   7.692
 1816POPC   C1B24919  44.276  41.680   8.742
 1816POPC   C2B24920  44.298  41.434   8.358
 1816POPC   C3B24921  44.292  41.622   7.933
 1816POPC   C4B24922  44.502  41.631   7.524
 1817POPC   NC324923  36.898  27.961   9.576
 1817POPC   PO424924  37.139  27.409   9.753
 1817POPC   GL124925  37.151  27.403   9.296
 1817POPC   GL224926  36.877  27.597   9.174
 1817POPC   C1A24927  37.118  27.223   8.867
 1817POPC   D2A24928  36.961  27.429   8.478
 1817POPC   C3A24929  36.990  27.500   8.030
 1817POPC   C4A24930  37.172  27.347   7.661
 1817POPC   C1B24931  36.739  27.796   8.763
 1817POPC   C2B24932  36.590  27.761   8.331
 1817POPC   C3B24933  36.518  27.584   7.912
 1817POPC   C4B24934  36.821  27.693   7.548
 1818POPC   NC324935  20.835  27.304   9.336
 1818POPC   PO424936  20.779  26.658   9.535
 1818POPC   GL124937  20.549  26.611   9.149
 1818POPC   GL224938  20.500  26.972   9.066
 1818POPC   C1A24939  20.378  26.635   8.725
 1818POPC   D2A24940  20.599  26.635   8.369
 1818POPC   C3A24941  20.577  26.873   8.011
 1818POPC   C4A24942  20.505  26.645   7.669
 1818POPC   C1B24943  20.795  26.961   8.729
 1818POPC   C2B24944  20.991  27.012   8.317
 1818POPC   C3B24945  20.972  27.195   7.879
 1818POPC   C4B24946  20.711  27.103   7.529
 1819POPC   NC324947  41.078   6.412   9.666
 1819POPC   PO424948  40.584   6.286   9.200
 1819POPC   GL124949  40.564   6.560   8.887
 1819POPC   GL224950  40.460   6.893   9.016
 1819POPC   C1A24951  40.612   6.487   8.453
 1819POPC   D2A24952  40.960   6.562   8.232
 1819POPC   C3A24953  40.956   6.715   7.847
 1819POPC   C4A24954  41.072   6.482   7.472
 1819POPC   C1B24955  40.380   6.925   8.585
 1819POPC   C2B24956  40.622   6.973   8.233
 1819POPC   C3B24957  40.536   7.030   7.821
 1819POPC   C4B24958  40.621   6.811   7.470
 1820POPC   NC324959  24.321  26.828   9.744
 1820POPC   PO424960  23.622  26.632   9.564
 1820POPC   GL124961  23.703  26.898   9.188
 1820POPC   GL224962  23.741  26.631   8.982
 1820POPC   C1A24963  23.730  27.102   8.764
 1820POPC   D2A24964  23.725  26.803   8.418
 1820POPC   C3A24965  23.570  26.903   7.990
 1820POPC   C4A24966  23.603  26.768   7.557
 1820POPC   C1B24967  24.111  26.737   8.752
 1820POPC   C2B24968  24.290  26.738   8.373
 1820POPC   C3B24969  24.061  26.725   8.039
 1820POPC   C4B24970  24.041  26.962   7.716
 1821POPC   NC324971   2.441  34.470   9.445
 1821POPC   PO424972   3.132  34.452   9.458
 1821POPC   GL124973   2.846  34.625   9.133
 1821POPC   GL224974   2.503  34.570   8.962
 1821POPC   C1A24975   2.928  34.745   8.721
 1821POPC   D2A24976   2.810  34.560   8.376
 1821POPC   C3A24977   2.819  34.782   8.035
 1821POPC   C4A24978   2.832  34.724   7.614
 1821POPC   C1B24979   2.398  34.330   8.622
 1821POPC   C2B24980   2.639  34.094   8.302
 1821POPC   C3B24981   2.716  34.278   7.920
 1821POPC   C4B24982   2.417  34.441   7.647
 1822POPC   NC324983   2.391  38.461   9.608
 1822POPC   PO424984   2.996  38.584   9.450
 1822POPC   GL124985   2.884  38.358   9.139
 1822POPC   GL224986   2.522  38.298   9.134
 1822POPC   C1A24987   3.004  38.288   8.732
 1822POPC   D2A24988   2.760  38.255   8.352
 1822POPC   C3A24989   2.898  38.456   8.011
 1822POPC   C4A24990   3.019  38.492   7.614
 1822POPC   C1B24991   2.554  38.531   8.767
 1822POPC   C2B24992   2.394  38.618   8.349
 1822POPC   C3B24993   2.420  38.532   7.912
 1822POPC   C4B24994   2.594  38.766   7.530
 1823POPC   NC324995  29.934   5.597   9.549
 1823POPC   PO424996  30.322   6.029   9.769
 1823POPC   GL124997  30.275   5.929   9.252
 1823POPC   GL224998  29.951   5.878   9.120
 1823POPC   C1A24999  30.243   5.728   8.774
 1823POPC   D2A25000  30.232   5.437   8.443
 1823POPC   C3A25001  30.104   5.656   8.074
 1823POPC   C4A25002  29.992   5.535   7.687
 1823POPC   C1B25003  29.704   6.035   8.755
 1823POPC   C2B25004  29.600   5.893   8.338
 1823POPC   C3B25005  29.610   5.907   7.880
 1823POPC   C4B25006  29.799   5.940   7.460
 1824POPC   NC325007  26.236   2.998   9.350
 1824POPC   PO425008  26.077   2.300   9.237
 1824POPC   GL125009  25.994   2.667   9.044
 1824POPC   GL225010  26.355   2.621   8.981
 1824POPC   C1A25011  25.868   2.891   8.656
 1824POPC   D2A25012  25.712   2.676   8.254
 1824POPC   C3A25013  25.932   2.769   7.863
 1824POPC   C4A25014  26.111   2.959   7.450
 1824POPC   C1B25015  26.246   2.535   8.580
 1824POPC   C2B25016  26.246   2.870   8.293
 1824POPC   C3B25017  26.379   2.975   7.902
 1824POPC   C4B25018  26.526   2.683   7.580
 1825POPC   NC325019  36.856  38.527   9.479
 1825POPC   PO425020  37.436  38.148   9.572
 1825POPC   GL125021  37.172  38.220   9.177
 1825POPC   GL225022  37.110  38.586   9.056
 1825POPC   C1A25023  36.917  38.173   8.782
 1825POPC   D2A25024  37.055  38.161   8.379
 1825POPC   C3A25025  36.881  38.216   7.976
 1825POPC   C4A25026  36.731  38.369   7.614
 1825POPC   C1B25027  36.855  38.660   8.687
 1825POPC   C2B25028  36.943  38.666   8.266
 1825POPC   C3B25029  36.911  38.782   7.865
 1825POPC   C4B25030  36.973  38.782   7.408
 1826POPC   NC325031  14.484  29.385   9.470
 1826POPC   PO425032  14.475  28.697   9.256
 1826POPC   GL125033  14.546  28.974   8.979
 1826POPC   GL225034  14.279  29.170   9.065
 1826POPC   C1A25035  14.793  29.060   8.615
 1826POPC   D2A25036  14.617  29.138   8.224
 1826POPC   C3A25037  14.629  28.874   7.850
 1826POPC   C4A25038  14.250  28.999   7.593
 1826POPC   C1B25039  14.347  29.357   8.690
 1826POPC   C2B25040  14.071  29.365   8.366
 1826POPC   C3B25041  14.158  29.391   7.951
 1826POPC   C4B25042  13.815  29.305   7.706
 1827POPC   NC325043  25.302  17.505   9.513
 1827POPC   PO425044  24.927  18.121   9.429
 1827POPC   GL125045  25.035  17.774   9.150
 1827POPC   GL225046  25.408  17.755   9.077
 1827POPC   C1A25047  25.080  17.578   8.747
 1827POPC   D2A25048  25.394  17.540   8.443
 1827POPC   C3A25049  25.204  17.519   8.052
 1827POPC   C4A25050  25.375  17.303   7.722
 1827POPC   C1B25051  25.430  17.996   8.676
 1827POPC   C2B25052  25.482  17.994   8.203
 1827POPC   C3B25053  25.531  17.813   7.783
 1827POPC   C4B25054  25.792  17.604   7.551
 1828POPC   NC325055  37.391  39.360   9.413
 1828POPC   PO425056  37.911  39.026   9.513
 1828POPC   GL125057  37.860  39.009   9.120
 1828POPC   GL225058  37.556  38.839   9.079
 1828POPC   C1A25059  37.677  39.284   8.824
 1828POPC   D2A25060  37.823  39.501   8.504
 1828POPC   C3A25061  37.625  39.392   8.145
 1828POPC   C4A25062  37.699  39.264   7.721
 1828POPC   C1B25063  37.762  38.799   8.674
 1828POPC   C2B25064  37.800  38.925   8.263
 1828POPC   C3B25065  37.544  38.797   7.917
 1828POPC   C4B25066  37.619  38.818   7.476
 1829POPC   NC325067  14.861  23.428   9.620
 1829POPC   PO425068  15.483  23.512   9.456
 1829POPC   GL125069  15.122  23.725   9.261
 1829POPC   GL225070  14.953  23.442   9.105
 1829POPC   C1A25071  15.155  23.875   8.840
 1829POPC   D2A25072  15.031  23.876   8.403
 1829POPC   C3A25073  15.336  23.742   8.070
 1829POPC   C4A25074  15.389  23.783   7.616
 1829POPC   C1B25075  14.917  23.394   8.667
 1829POPC   C2B25076  14.958  23.391   8.211
 1829POPC   C3B25077  14.892  23.598   7.806
 1829POPC   C4B25078  15.034  23.480   7.370
 1830POPC   NC325079  13.454  37.982   9.300
 1830POPC   PO425080  13.863  38.481   9.597
 1830POPC   GL125081  13.687  38.463   9.168
 1830POPC   GL225082  13.870  38.185   9.033
 1830POPC   C1A25083  13.824  38.593   8.733
 1830POPC   D2A25084  13.623  38.638   8.343
 1830POPC   C3A25085  13.683  38.428   7.954
 1830POPC   C4A25086  13.421  38.469   7.556
 1830POPC   C1B25087  13.530  38.181   8.692
 1830POPC   C2B25088  13.381  37.896   8.381
 1830POPC   C3B25089  13.352  38.000   7.930
 1830POPC   C4B25090  13.687  38.026   7.628
 1831POPC   NC325091  40.366  35.609   9.549
 1831POPC   PO425092  40.865  35.226   9.606
 1831POPC   GL125093  40.982  35.127   9.194
 1831POPC   GL225094  40.691  34.927   9.102
 1831POPC   C1A25095  40.877  35.417   8.876
 1831POPC   D2A25096  40.945  35.409   8.435
 1831POPC   C3A25097  40.600  35.434   8.140
 1831POPC   C4A25098  40.736  35.477   7.740
 1831POPC   C1B25099  40.908  34.946   8.691
 1831POPC   C2B25100  40.833  34.930   8.245
 1831POPC   C3B25101  40.569  34.983   7.886
 1831POPC   C4B25102  40.529  35.106   7.454
 1832POPC   NC325103  41.618  28.371   9.645
 1832POPC   PO425104  42.005  27.846   9.545
 1832POPC   GL125105  41.567  28.025   9.276
 1832POPC   GL225106  41.593  28.394   9.152
 1832POPC   C1A25107  41.366  28.087   8.826
 1832POPC   D2A25108  41.656  28.113   8.448
 1832POPC   C3A25109  41.487  28.297   8.064
 1832POPC   C4A25110  41.252  28.061   7.756
 1832POPC   C1B25111  41.799  28.478   8.784
 1832POPC   C2B25112  41.765  28.637   8.385
 1832POPC   C3B25113  41.749  28.797   8.010
 1832POPC   C4B25114  41.688  28.550   7.658
 1833POPC   NC325115  36.089  41.134   9.495
 1833POPC   PO425116  36.251  40.449   9.551
 1833POPC   GL125117  36.162  40.657   9.159
 1833POPC   GL225118  36.007  40.969   9.042
 1833POPC   C1A25119  36.125  40.596   8.723
 1833POPC   D2A25120  36.229  40.859   8.412
 1833POPC   C3A25121  36.197  40.673   8.028
 1833POPC   C4A25122  36.458  40.580   7.703
 1833POPC   C1B25123  35.786  41.030   8.693
 1833POPC   C2B25124  35.897  41.228   8.340
 1833POPC   C3B25125  35.862  41.050   7.952
 1833POPC   C4B25126  35.866  41.245   7.592
 1834POPC   NC325127  24.161  36.669   9.849
 1834POPC   PO425128  24.401  36.070   9.507
 1834POPC   GL125129  24.415  36.174   9.125
 1834POPC   GL225130  24.687  36.391   9.191
 1834POPC   C1A25131  24.341  35.950   8.767
 1834POPC   D2A25132  24.546  36.030   8.404
 1834POPC   C3A25133  24.316  35.983   8.028
 1834POPC   C4A25134  24.206  36.367   7.852
 1834POPC   C1B25135  24.841  36.462   8.772
 1834POPC   C2B25136  24.975  36.330   8.384
 1834POPC   C3B25137  24.799  36.343   8.005
 1834POPC   C4B25138  24.639  36.222   7.653
 1835POPC   NC325139   4.305  11.471   9.690
 1835POPC   PO425140   3.856  10.933   9.523
 1835POPC   GL125141   4.122  11.221   9.243
 1835POPC   GL225142   4.433  11.474   9.201
 1835POPC   C1A25143   4.145  11.249   8.802
 1835POPC   D2A25144   4.245  11.543   8.495
 1835POPC   C3A25145   4.054  11.383   8.124
 1835POPC   C4A25146   4.208  11.036   7.853
 1835POPC   C1B25147   4.643  11.266   8.826
 1835POPC   C2B25148   4.792  11.375   8.425
 1835POPC   C3B25149   4.542  11.489   8.058
 1835POPC   C4B25150   4.456  11.656   7.663
 1836POPC   NC325151   4.741  41.744   9.624
 1836POPC   PO425152   4.089  41.617   9.392
 1836POPC   GL125153   4.405  41.545   9.127
 1836POPC   GL225154   4.166  41.270   9.006
 1836POPC   C1A25155   4.569  41.777   8.775
 1836POPC   D2A25156   4.278  41.857   8.407
 1836POPC   C3A25157   4.367  41.728   7.961
 1836POPC   C4A25158   4.284  41.811   7.506
 1836POPC   C1B25159   4.310  41.364   8.647
 1836POPC   C2B25160   4.143  41.367   8.284
 1836POPC   C3B25161   4.015  41.332   7.900
 1836POPC   C4B25162   4.210  41.302   7.498
 1837POPC   NC325163  26.337  11.077   9.391
 1837POPC   PO425164  25.865  11.535   9.422
 1837POPC   GL125165  25.803  11.341   9.049
 1837POPC   GL225166  26.006  11.023   8.974
 1837POPC   C1A25167  26.021  11.441   8.703
 1837POPC   D2A25168  26.066  11.186   8.351
 1837POPC   C3A25169  25.892  11.394   7.998
 1837POPC   C4A25170  25.624  11.275   7.654
 1837POPC   C1B25171  26.390  10.868   8.722
 1837POPC   C2B25172  26.523  10.937   8.273
 1837POPC   C3B25173  26.246  11.005   7.887
 1837POPC   C4B25174  26.338  11.073   7.421
 1838POPC   NC325175   9.825   7.000   9.807
 1838POPC   PO425176  10.024   6.361   9.477
 1838POPC   GL125177   9.928   6.429   9.020
 1838POPC   GL225178   9.764   6.677   9.055
 1838POPC   C1A25179   9.857   6.742   8.581
 1838POPC   D2A25180   9.789   6.831   8.124
 1838POPC   C3A25181   9.837   6.445   7.859
 1838POPC   C4A25182  10.200   6.159   7.860
 1838POPC   C1B25183   9.414   6.858   8.782
 1838POPC   C2B25184   9.374   7.040   8.439
 1838POPC   C3B25185   9.292   6.983   8.042
 1838POPC   C4B25186   9.466   6.931   7.683
 1839POPC   NC325187  27.231  37.990   9.439
 1839POPC   PO425188  27.972  37.867   9.524
 1839POPC   GL125189  27.827  37.657   9.141
 1839POPC   GL225190  27.522  37.444   9.229
 1839POPC   C1A25191  27.933  37.696   8.694
 1839POPC   D2A25192  27.817  38.048   8.424
 1839POPC   C3A25193  27.587  37.961   8.053
 1839POPC   C4A25194  27.640  37.700   7.725
 1839POPC   C1B25195  27.357  37.582   8.840
 1839POPC   C2B25196  27.443  37.680   8.441
 1839POPC   C3B25197  27.318  37.480   8.050
 1839POPC   C4B25198  27.314  37.256   7.666
 1840POPC   NC325199  44.350  27.035   9.436
 1840POPC   PO425200  44.811  26.584   9.607
 1840POPC   GL125201  44.771  26.827   9.196
 1840POPC   GL225202  44.753  27.230   9.164
 1840POPC   C1A25203  44.614  26.752   8.768
 1840POPC   D2A25204  44.342  26.660   8.410
 1840POPC   C3A25205  44.580  26.679   8.045
 1840POPC   C4A25206  44.643  26.691   7.616
 1840POPC   C1B25207  44.488  27.245   8.772
 1840POPC   C2B25208  44.567  27.138   8.339
 1840POPC   C3B25209  44.691  27.157   7.890
 1840POPC   C4B25210  44.779  27.137   7.439
 1841POPC   NC325211  26.689  36.034   9.473
 1841POPC   PO425212  27.092  36.573   9.342
 1841POPC   GL125213  26.846  36.319   9.034
 1841POPC   GL225214  26.906  35.981   9.036
 1841POPC   C1A25215  26.859  36.241   8.582
 1841POPC   D2A25216  27.111  36.373   8.274
 1841POPC   C3A25217  26.826  36.442   7.982
 1841POPC   C4A25218  26.756  36.115   7.713
 1841POPC   C1B25219  26.771  35.664   8.825
 1841POPC   C2B25220  26.876  35.734   8.441
 1841POPC   C3B25221  26.682  35.814   8.108
 1841POPC   C4B25222  26.676  35.626   7.711
 1842POPC   NC325223  18.707  22.582   9.559
 1842POPC   PO425224  18.248  23.032   9.771
 1842POPC   GL125225  18.357  22.968   9.302
 1842POPC   GL225226  18.543  23.251   9.140
 1842POPC   C1A25227  18.266  22.959   8.826
 1842POPC   D2A25228  18.031  23.089   8.434
 1842POPC   C3A25229  18.179  22.867   8.073
 1842POPC   C4A25230  18.297  22.744   7.641
 1842POPC   C1B25231  18.720  23.240   8.775
 1842POPC   C2B25232  18.532  23.209   8.390
 1842POPC   C3B25233  18.576  23.217   7.969
 1842POPC   C4B25234  18.841  23.441   7.729
 1843POPC   NC325235  21.020  24.751   9.425
 1843POPC   PO425236  20.448  24.276   9.457
 1843POPC   GL125237  20.636  24.468   9.129
 1843POPC   GL225238  20.977  24.320   9.135
 1843POPC   C1A25239  20.426  24.610   8.727
 1843POPC   D2A25240  20.204  24.753   8.349
 1843POPC   C3A25241  20.359  24.611   7.958
 1843POPC   C4A25242  20.272  24.745   7.561
 1843POPC   C1B25243  20.926  24.536   8.720
 1843POPC   C2B25244  20.770  24.688   8.306
 1843POPC   C3B25245  20.864  24.680   7.864
 1843POPC   C4B25246  21.016  24.325   7.600
 1844POPC   NC325247  19.621  20.506   9.447
 1844POPC   PO425248  20.166  20.806   9.647
 1844POPC   GL125249  20.092  20.671   9.172
 1844POPC   GL225250  19.773  20.736   9.045
 1844POPC   C1A25251  20.053  20.664   8.666
 1844POPC   D2A25252  19.813  20.809   8.326
 1844POPC   C3A25253  20.104  20.667   8.056
 1844POPC   C4A25254  20.356  20.797   7.729
 1844POPC   C1B25255  19.532  20.444   8.760
 1844POPC   C2B25256  19.299  20.338   8.375
 1844POPC   C3B25257  19.409  20.488   7.955
 1844POPC   C4B25258  19.775  20.596   7.674
 1845POPC   NC325259  37.920  41.354   9.308
 1845POPC   PO425260  37.418  41.576   9.659
 1845POPC   GL125261  37.414  41.721   9.194
 1845POPC   GL225262  37.746  41.775   9.046
 1845POPC   C1A25263  37.397  41.445   8.798
 1845POPC   D2A25264  37.256  41.130   8.461
 1845POPC   C3A25265  37.415  41.219   8.035
 1845POPC   C4A25266  37.785  41.287   7.759
 1845POPC   C1B25267  37.858  41.598   8.634
 1845POPC   C2B25268  37.832  41.584   8.186
 1845POPC   C3B25269  37.965  41.850   7.840
 1845POPC   C4B25270  37.921  41.735   7.421
 1846POPC   NC325271  22.831  32.850   9.472
 1846POPC   PO425272  22.920  32.057   9.444
 1846POPC   GL125273  22.741  32.226   9.092
 1846POPC   GL225274  22.698  32.602   9.058
 1846POPC   C1A25275  23.057  32.359   8.786
 1846POPC   D2A25276  23.141  32.571   8.426
 1846POPC   C3A25277  23.118  32.234   8.108
 1846POPC   C4A25278  23.147  32.200   7.704
 1846POPC   C1B25279  22.562  32.446   8.662
 1846POPC   C2B25280  22.659  32.351   8.247
 1846POPC   C3B25281  22.541  32.536   7.872
 1846POPC   C4B25282  22.597  33.014   7.814
 1847POPC   NC325283   3.435  30.984   9.545
 1847POPC   PO425284   3.935  30.577   9.349
 1847POPC   GL125285   3.675  30.843   9.089
 1847POPC   GL225286   3.277  30.888   9.087
 1847POPC   C1A25287   3.820  30.847   8.681
 1847POPC   D2A25288   3.668  30.986   8.315
 1847POPC   C3A25289   3.639  30.755   7.987
 1847POPC   C4A25290   3.553  30.850   7.586
 1847POPC   C1B25291   3.304  30.841   8.672
 1847POPC   C2B25292   3.140  30.941   8.288
 1847POPC   C3B25293   3.143  30.730   7.915
 1847POPC   C4B25294   3.113  30.297   7.811
 1848POPC   NC325295  44.091  28.895   9.732
 1848POPC   PO425296  43.961  28.130   9.627
 1848POPC   GL125297  43.972  27.983   9.213
 1848POPC   GL225298  43.995  28.308   9.076
 1848POPC   C1A25299  43.810  27.939   8.774
 1848POPC   D2A25300  43.591  28.058   8.362
 1848POPC   C3A25301  43.863  28.286   8.048
 1848POPC   C4A25302  44.108  28.107   7.704
 1848POPC   C1B25303  43.834  28.444   8.657
 1848POPC   C2B25304  44.068  28.719   8.418
 1848POPC   C3B25305  44.148  28.759   8.030
 1848POPC   C4B25306  44.074  28.605   7.674
 1849POPC   NC325307   5.022  35.765   9.528
 1849POPC   PO425308   4.722  35.210   9.475
 1849POPC   GL125309   5.068  35.352   9.184
 1849POPC   GL225310   5.371  35.102   9.207
 1849POPC   C1A25311   5.101  35.592   8.768
 1849POPC   D2A25312   4.779  35.623   8.397
 1849POPC   C3A25313   4.931  35.513   7.972
 1849POPC   C4A25314   5.333  35.547   7.753
 1849POPC   C1B25315   5.188  35.052   8.794
 1849POPC   C2B25316   5.233  35.247   8.375
 1849POPC   C3B25317   5.243  35.089   7.963
 1849POPC   C4B25318   4.979  35.105   7.619
 1850POPC   NC325319   3.972  18.407   9.512
 1850POPC   PO425320   4.642  18.193   9.526
 1850POPC   GL125321   4.374  18.277   9.152
 1850POPC   GL225322   4.083  18.085   9.133
 1850POPC   C1A25323   4.290  18.269   8.685
 1850POPC   D2A25324   4.472  18.183   8.295
 1850POPC   C3A25325   4.504  18.493   7.992
 1850POPC   C4A25326   4.334  18.432   7.615
 1850POPC   C1B25327   3.807  18.323   8.837
 1850POPC   C2B25328   3.728  18.271   8.386
 1850POPC   C3B25329   3.999  18.222   8.014
 1850POPC   C4B25330   3.923  18.092   7.602
 1851POPC   NC325331  42.146  42.644   9.569
 1851POPC   PO425332  42.305  41.987   9.484
 1851POPC   GL125333  42.184  42.173   9.108
 1851POPC   GL225334  42.348  42.463   9.120
 1851POPC   C1A25335  42.439  42.141   8.712
 1851POPC   D2A25336  42.650  42.034   8.295
 1851POPC   C3A25337  42.414  42.120   7.909
 1851POPC   C4A25338  42.574  42.277   7.487
 1851POPC   C1B25339  42.496  42.655   8.769
 1851POPC   C2B25340  42.390  42.499   8.359
 1851POPC   C3B25341  42.462  42.616   7.974
 1851POPC   C4B25342  42.222  42.912   7.845
 1852POPC   NC325343  22.045  40.235   9.535
 1852POPC   PO425344  22.445  39.716   9.515
 1852POPC   GL125345  22.285  39.949   9.168
 1852POPC   GL225346  22.136  40.287   9.050
 1852POPC   C1A25347  21.935  39.854   8.915
 1852POPC   D2A25348  22.007  40.096   8.549
 1852POPC   C3A25349  22.024  39.819   8.166
 1852POPC   C4A25350  22.018  39.884   7.723
 1852POPC   C1B25351  22.449  40.366   8.771
 1852POPC   C2B25352  22.460  40.241   8.359
 1852POPC   C3B25353  22.285  40.256   7.963
 1852POPC   C4B25354  22.487  40.138   7.612
 1853POPC   NC325355  11.341   7.610   9.697
 1853POPC   PO425356  11.581   7.164   9.285
 1853POPC   GL125357  11.338   7.501   9.182
 1853POPC   GL225358  11.549   7.765   9.238
 1853POPC   C1A25359  11.186   7.653   8.799
 1853POPC   D2A25360  11.043   7.759   8.397
 1853POPC   C3A25361  11.039   7.421   8.136
 1853POPC   C4A25362  11.228   7.551   7.802
 1853POPC   C1B25363  11.690   7.703   8.791
 1853POPC   C2B25364  11.513   7.565   8.383
 1853POPC   C3B25365  11.671   7.392   8.001
 1853POPC   C4B25366  11.638   7.472   7.553
 1854POPC   NC325367  43.699   2.005   9.485
 1854POPC   PO425368  44.367   2.195   9.679
 1854POPC   GL125369  44.174   1.945   9.187
 1854POPC   GL225370  43.831   1.980   9.016
 1854POPC   C1A25371  44.211   1.862   8.732
 1854POPC   D2A25372  43.932   2.117   8.471
 1854POPC   C3A25373  43.953   1.968   8.039
 1854POPC   C4A25374  43.679   2.101   7.697
 1854POPC   C1B25375  43.727   1.677   8.700
 1854POPC   C2B25376  43.558   1.785   8.324
 1854POPC   C3B25377  43.576   1.632   7.912
 1854POPC   C4B25378  43.483   1.706   7.459
 1855POPC   NC325379   2.627  11.478   9.529
 1855POPC   PO425380   3.033  10.929   9.464
 1855POPC   GL125381   2.908  11.250   9.136
 1855POPC   GL225382   2.557  11.293   9.045
 1855POPC   C1A25383   2.896  11.396   8.682
 1855POPC   D2A25384   2.936  11.182   8.290
 1855POPC   C3A25385   3.066  11.450   7.953
 1855POPC   C4A25386   2.982  11.491   7.509
 1855POPC   C1B25387   2.539  11.019   8.667
 1855POPC   C2B25388   2.451  10.963   8.223
 1855POPC   C3B25389   2.613  11.181   7.864
 1855POPC   C4B25390   2.504  11.368   7.497
 1856POPC   NC325391   3.438  11.162   9.579
 1856POPC   PO425392   3.826  11.701   9.554
 1856POPC   GL125393   3.642  11.432   9.219
 1856POPC   GL225394   3.323  11.552   9.250
 1856POPC   C1A25395   3.652  11.143   8.856
 1856POPC   D2A25396   3.838  10.974   8.441
 1856POPC   C3A25397   3.650  11.053   8.008
 1856POPC   C4A25398   3.821  11.309   7.668
 1856POPC   C1B25399   3.344  11.571   8.821
 1856POPC   C2B25400   3.418  11.404   8.416
 1856POPC   C3B25401   3.572  11.553   8.047
 1856POPC   C4B25402   3.443  11.660   7.634
 1857POPC   NC325403  34.200  31.290   9.257
 1857POPC   PO425404  33.642  31.279   9.655
 1857POPC   GL125405  33.555  31.336   9.215
 1857POPC   GL225406  33.765  31.559   9.168
 1857POPC   C1A25407  33.722  31.233   8.779
 1857POPC   D2A25408  33.891  30.954   8.475
 1857POPC   C3A25409  33.893  31.169   8.080
 1857POPC   C4A25410  33.736  31.179   7.658
 1857POPC   C1B25411  33.982  31.687   8.779
 1857POPC   C2B25412  33.852  31.697   8.372
 1857POPC   C3B25413  34.008  31.663   7.983
 1857POPC   C4B25414  33.835  31.681   7.564
 1858POPC   NC325415   5.571   2.590   9.488
 1858POPC   PO425416   5.903   3.214   9.660
 1858POPC   GL125417   5.989   3.079   9.186
 1858POPC   GL225418   6.199   2.776   9.089
 1858POPC   C1A25419   5.790   2.920   8.781
 1858POPC   D2A25420   5.626   2.649   8.429
 1858POPC   C3A25421   5.687   2.820   8.018
 1858POPC   C4A25422   5.988   2.969   7.738
 1858POPC   C1B25423   6.106   2.526   8.730
 1858POPC   C2B25424   6.134   2.641   8.305
 1858POPC   C3B25425   6.307   2.594   7.930
 1858POPC   C4B25426   5.946   2.427   7.792
 1859POPC   NC325427  37.453  15.947   9.651
 1859POPC   PO425428  38.061  16.091   9.475
 1859POPC   GL125429  37.802  15.897   9.140
 1859POPC   GL225430  37.429  15.867   9.137
 1859POPC   C1A25431  37.696  16.002   8.699
 1859POPC   D2A25432  37.913  16.083   8.301
 1859POPC   C3A25433  37.763  15.893   7.931
 1859POPC   C4A25434  37.565  15.906   7.550
 1859POPC   C1B25435  37.310  15.687   8.717
 1859POPC   C2B25436  37.375  15.833   8.299
 1859POPC   C3B25437  37.363  15.566   7.942
 1859POPC   C4B25438  37.282  15.485   7.527
 1860POPC   NC325439  37.109  15.531   9.408
 1860POPC   PO425440  36.763  14.963   9.502
 1860POPC   GL125441  37.033  15.072   9.168
 1860POPC   GL225442  36.781  15.300   9.094
 1860POPC   C1A25443  37.121  15.192   8.727
 1860POPC   D2A25444  36.793  15.227   8.448
 1860POPC   C3A25445  36.775  15.133   8.037
 1860POPC   C4A25446  37.156  15.063   7.789
 1860POPC   C1B25447  36.822  15.609   8.786
 1860POPC   C2B25448  36.861  15.856   8.466
 1860POPC   C3B25449  36.899  15.627   8.113
 1860POPC   C4B25450  36.824  15.507   7.700
 1861POPC   NC325451  44.983  31.437   9.807
 1861POPC   PO425452   0.622  31.403   9.585
 1861POPC   GL125453   0.573  31.392   9.150
 1861POPC   GL225454   0.246  31.500   9.005
 1861POPC   C1A25455   0.737  31.359   8.747
 1861POPC   D2A25456   0.394  31.481   8.482
 1861POPC   C3A25457   0.429  31.546   8.052
 1861POPC   C4A25458   0.424  31.477   7.608
 1861POPC   C1B25459  44.928  31.356   8.701
 1861POPC   C2B25460   0.063  31.139   8.323
 1861POPC   C3B25461   0.087  31.195   7.886
 1861POPC   C4B25462  44.977  31.231   7.452
 1862POPC   NC325463  26.303  43.136   9.564
 1862POPC   PO425464  25.673  42.911   9.637
 1862POPC   GL125465  25.874  43.155   9.281
 1862POPC   GL225466  26.218  43.258   9.082
 1862POPC   C1A25467  25.825  43.070   8.840
 1862POPC   D2A25468  26.108  43.097   8.517
 1862POPC   C3A25469  25.946  42.949   8.168
 1862POPC   C4A25470  25.743  43.161   7.862
 1862POPC   C1B25471  26.291  43.546   8.718
 1862POPC   C2B25472  26.200  43.550   8.261
 1862POPC   C3B25473  26.280  43.256   7.923
 1862POPC   C4B25474  26.215  43.270   7.470
 1863POPC   NC325475  34.068   7.118   9.412
 1863POPC   PO425476  34.738   7.315   9.489
 1863POPC   GL125477  34.454   7.389   9.135
 1863POPC   GL225478  34.763   7.397   8.986
 1863POPC   C1A25479  34.350   7.621   8.732
 1863POPC   D2A25480  34.509   7.703   8.311
 1863POPC   C3A25481  34.572   7.383   7.941
 1863POPC   C4A25482  34.667   7.366   7.464
 1863POPC   C1B25483  34.915   7.127   8.672
 1863POPC   C2B25484  34.942   7.010   8.244
 1863POPC   C3B25485  35.036   6.831   7.888
 1863POPC   C4B25486  34.851   6.911   7.567
 1864POPC   NC325487  27.767  40.031   9.668
 1864POPC   PO425488  28.408  39.759   9.478
 1864POPC   GL125489  28.263  39.946   9.115
 1864POPC   GL225490  28.219  40.289   9.175
 1864POPC   C1A25491  28.342  40.120   8.701
 1864POPC   D2A25492  28.555  40.241   8.317
 1864POPC   C3A25493  28.383  39.966   8.018
 1864POPC   C4A25494  28.408  39.847   7.612
 1864POPC   C1B25495  27.928  40.439   8.832
 1864POPC   C2B25496  27.881  40.279   8.418
 1864POPC   C3B25497  28.112  40.410   8.061
 1864POPC   C4B25498  28.244  40.325   7.635
 1865POPC   NC325499  25.509  11.098   9.399
 1865POPC   PO425500  24.859  11.354   9.495
 1865POPC   GL125501  25.059  11.234   9.148
 1865POPC   GL225502  24.899  10.898   9.185
 1865POPC   C1A25503  25.328  11.364   8.798
 1865POPC   D2A25504  25.581  11.405   8.434
 1865POPC   C3A25505  25.367  11.237   8.096
 1865POPC   C4A25506  25.160  11.441   7.770
 1865POPC   C1B25507  24.744  11.072   8.791
 1865POPC   C2B25508  24.971  11.185   8.437
 1865POPC   C3B25509  24.869  11.092   8.000
 1865POPC   C4B25510  25.012  10.995   7.587
 1866POPC   NC325511  13.261   1.641   9.554
 1866POPC   PO425512  12.848   1.065   9.417
 1866POPC   GL125513  12.879   1.193   9.016
 1866POPC   GL225514  13.176   1.382   9.132
 1866POPC   C1A25515  12.668   1.262   8.601
 1866POPC   D2A25516  12.342   1.040   8.314
 1866POPC   C3A25517  12.484   1.070   7.867
 1866POPC   C4A25518  12.754   1.261   7.532
 1866POPC   C1B25519  13.093   1.575   8.781
 1866POPC   C2B25520  13.129   1.352   8.435
 1866POPC   C3B25521  12.868   1.396   8.075
 1866POPC   C4B25522  13.013   1.652   7.737
 1867POPC   NC325523  35.951  35.809   9.358
 1867POPC   PO425524  36.213  35.291   9.695
 1867POPC   GL125525  36.183  35.405   9.177
 1867POPC   GL225526  36.454  35.362   8.950
 1867POPC   C1A25527  35.968  35.481   8.746
 1867POPC   D2A25528  35.869  35.260   8.320
 1867POPC   C3A25529  35.905  35.242   7.861
 1867POPC   C4A25530  35.986  35.397   7.438
 1867POPC   C1B25531  36.380  35.257   8.537
 1867POPC   C2B25532  36.351  35.194   8.121
 1867POPC   C3B25533  36.356  35.475   7.806
 1867POPC   C4B25534  36.473  35.293   7.421
 1868POPC   NC325535   1.766  38.751   9.486
 1868POPC   PO425536   2.097  38.145   9.455
 1868POPC   GL125537   2.014  38.441   9.122
 1868POPC   GL225538   2.145  38.755   9.110
 1868POPC   C1A25539   2.068  38.400   8.674
 1868POPC   D2A25540   2.104  38.228   8.227
 1868POPC   C3A25541   1.752  38.205   7.996
 1868POPC   C4A25542   1.631  38.387   7.618
 1868POPC   C1B25543   1.942  38.883   8.701
 1868POPC   C2B25544   1.882  38.708   8.289
 1868POPC   C3B25545   1.832  38.783   7.867
 1868POPC   C4B25546   2.105  38.611   7.533
 1869POPC   NC325547  11.062  10.118   9.307
 1869POPC   PO425548  10.918   9.542   9.505
 1869POPC   GL125549  11.177   9.456   9.161
 1869POPC   GL225550  11.573   9.465   9.223
 1869POPC   C1A25551  10.980   9.611   8.788
 1869POPC   D2A25552  11.117   9.868   8.468
 1869POPC   C3A25553  11.217   9.759   8.077
 1869POPC   C4A25554  11.382  10.058   7.803
 1869POPC   C1B25555  11.481   9.714   8.850
 1869POPC   C2B25556  11.560   9.570   8.450
 1869POPC   C3B25557  11.723   9.626   8.065
 1869POPC   C4B25558  11.543   9.576   7.700
 1870POPC   NC325559  18.351   3.693   9.393
 1870POPC   PO425560  17.954   3.053   9.540
 1870POPC   GL125561  18.202   3.221   9.138
 1870POPC   GL225562  17.965   3.400   8.971
 1870POPC   C1A25563  18.389   3.524   8.733
 1870POPC   D2A25564  18.345   3.693   8.340
 1870POPC   C3A25565  18.506   3.553   7.975
 1870POPC   C4A25566  18.492   3.844   7.657
 1870POPC   C1B25567  17.960   3.783   8.693
 1870POPC   C2B25568  17.961   4.013   8.308
 1870POPC   C3B25569  18.013   3.791   7.905
 1870POPC   C4B25570  18.076   3.376   7.784
 1871POPC   NC325571  29.653  35.457   9.537
 1871POPC   PO425572  30.230  35.548   9.535
 1871POPC   GL125573  30.038  35.239   9.217
 1871POPC   GL225574  29.677  35.297   9.062
 1871POPC   C1A25575  30.052  35.155   8.769
 1871POPC   D2A25576  30.176  35.418   8.420
 1871POPC   C3A25577  29.949  35.408   8.062
 1871POPC   C4A25578  29.723  35.708   7.850
 1871POPC   C1B25579  29.669  35.467   8.610
 1871POPC   C2B25580  29.492  35.270   8.233
 1871POPC   C3B25581  29.453  35.284   7.776
 1871POPC   C4B25582  29.529  35.178   7.342
 1872POPC   NC325583  41.880  43.608   9.601
 1872POPC   PO425584  41.273  43.772   9.691
 1872POPC   GL125585  41.515  43.800   9.285
 1872POPC   GL225586  41.505  44.168   9.243
 1872POPC   C1A25587  41.613  43.870   8.838
 1872POPC   D2A25588  41.703  43.630   8.485
 1872POPC   C3A25589  41.669  43.864   8.136
 1872POPC   C4A25590  41.564  43.782   7.719
 1872POPC   C1B25591  41.873  44.305   8.976
 1872POPC   C2B25592  41.886  44.284   8.515
 1872POPC   C3B25593  41.969  44.285   8.074
 1872POPC   C4B25594  41.788  44.229   7.672
 1873POPC   NC325595  33.036  34.577   9.538
 1873POPC   PO425596  33.473  34.908   9.116
 1873POPC   GL125597  33.052  34.701   9.038
 1873POPC   GL225598  32.969  34.336   9.103
 1873POPC   C1A25599  32.931  34.627   8.625
 1873POPC   D2A25600  33.150  34.885   8.305
 1873POPC   C3A25601  33.217  34.823   7.858
 1873POPC   C4A25602  32.937  34.910   7.552
 1873POPC   C1B25603  32.780  34.151   8.754
 1873POPC   C2B25604  32.735  34.250   8.300
 1873POPC   C3B25605  32.835  34.495   7.942
 1873POPC   C4B25606  32.787  34.431   7.450
 1874POPC   NC325607  22.569  24.152   9.398
 1874POPC   PO425608  22.984  23.560   9.502
 1874POPC   GL125609  23.042  23.816   9.144
 1874POPC   GL225610  22.857  23.576   9.002
 1874POPC   C1A25611  23.289  23.939   8.770
 1874POPC   D2A25612  23.218  23.798   8.331
 1874POPC   C3A25613  23.361  23.898   7.896
 1874POPC   C4A25614  23.229  23.777   7.466
 1874POPC   C1B25615  22.792  23.830   8.668
 1874POPC   C2B25616  22.584  23.751   8.298
 1874POPC   C3B25617  22.514  23.767   7.897
 1874POPC   C4B25618  22.741  23.772   7.520
 1875POPC   NC325619   8.885  25.903   9.944
 1875POPC   PO425620   9.210  26.220   9.518
 1875POPC   GL125621   8.866  26.008   9.282
 1875POPC   GL225622   8.882  26.228   9.051
 1875POPC   C1A25623   8.813  25.764   8.888
 1875POPC   D2A25624   8.843  26.028   8.542
 1875POPC   C3A25625   8.738  25.974   8.141
 1875POPC   C4A25626   8.919  25.807   7.813
 1875POPC   C1B25627   9.104  26.439   8.713
 1875POPC   C2B25628   9.294  26.290   8.348
 1875POPC   C3B25629   9.232  26.383   7.922
 1875POPC   C4B25630   9.301  26.090   7.616
 1876POPC   NC325631   8.915  27.251   9.433
 1876POPC   PO425632   9.299  27.862   9.492
 1876POPC   GL125633   9.103  27.652   9.154
 1876POPC   GL225634   8.901  27.941   9.134
 1876POPC   C1A25635   9.075  27.431   8.748
 1876POPC   D2A25636   9.113  27.614   8.341
 1876POPC   C3A25637   9.146  27.369   7.964
 1876POPC   C4A25638   9.065  27.578   7.569
 1876POPC   C1B25639   8.653  28.038   8.766
 1876POPC   C2B25640   8.556  27.765   8.437
 1876POPC   C3B25641   8.686  27.645   8.052
 1876POPC   C4B25642   8.547  27.766   7.639
 1877POPC   NC325643   5.402   3.353   9.509
 1877POPC   PO425644   4.941   3.807   9.625
 1877POPC   GL125645   4.933   3.585   9.236
 1877POPC   GL225646   5.258   3.661   9.128
 1877POPC   C1A25647   4.962   3.463   8.770
 1877POPC   D2A25648   5.283   3.519   8.434
 1877POPC   C3A25649   5.070   3.437   8.033
 1877POPC   C4A25650   4.704   3.530   7.843
 1877POPC   C1B25651   5.330   3.949   8.814
 1877POPC   C2B25652   5.231   4.045   8.394
 1877POPC   C3B25653   5.361   3.839   8.032
 1877POPC   C4B25654   5.163   3.837   7.686
 1878POPC   NC325655  11.523  44.302   9.449
 1878POPC   PO425656  11.539   0.008   9.337
 1878POPC   GL125657  11.241  44.785   9.056
 1878POPC   GL225658  11.130  44.426   9.129
 1878POPC   C1A25659  11.343  44.692   8.626
 1878POPC   D2A25660  11.548  44.639   8.229
 1878POPC   C3A25661  11.325  44.855   7.890
 1878POPC   C4A25662  11.102  44.664   7.568
 1878POPC   C1B25663  11.353  44.205   8.788
 1878POPC   C2B25664  11.289  44.183   8.336
 1878POPC   C3B25665  11.251  44.311   7.903
 1878POPC   C4B25666  11.162  44.148   7.479
 1879POPC   NC325667  33.876  37.447   9.610
 1879POPC   PO425668  33.470  37.856   9.345
 1879POPC   GL125669  33.625  37.481   9.136
 1879POPC   GL225670  33.988  37.514   9.107
 1879POPC   C1A25671  33.696  37.483   8.685
 1879POPC   D2A25672  33.683  37.806   8.360
 1879POPC   C3A25673  33.687  37.597   7.971
 1879POPC   C4A25674  33.637  37.457   7.568
 1879POPC   C1B25675  33.977  37.882   8.795
 1879POPC   C2B25676  34.164  38.034   8.442
 1879POPC   C3B25677  34.111  37.893   8.035
 1879POPC   C4B25678  33.964  37.971   7.645
 1880POPC   NC325679  42.408   2.366   9.246
 1880POPC   PO425680  42.990   2.097   9.506
 1880POPC   GL125681  43.265   2.183   9.181
 1880POPC   GL225682  42.923   2.220   9.016
 1880POPC   C1A25683  43.360   2.044   8.770
 1880POPC   D2A25684  43.074   1.996   8.422
 1880POPC   C3A25685  43.234   2.035   8.011
 1880POPC   C4A25686  43.082   1.997   7.624
 1880POPC   C1B25687  43.001   2.430   8.659
 1880POPC   C2B25688  42.950   2.434   8.205
 1880POPC   C3B25689  42.796   2.396   7.770
 1880POPC   C4B25690  42.928   2.406   7.301
 1881POPC   NC325691  12.330   2.157   9.519
 1881POPC   PO425692  12.043   1.566   9.400
 1881POPC   GL125693  11.937   2.001   9.224
 1881POPC   GL225694  11.968   2.400   9.225
 1881POPC   C1A25695  12.066   1.988   8.831
 1881POPC   D2A25696  11.858   1.744   8.553
 1881POPC   C3A25697  11.893   1.831   8.142
 1881POPC   C4A25698  11.883   2.032   7.756
 1881POPC   C1B25699  11.732   2.377   8.825
 1881POPC   C2B25700  11.903   2.253   8.418
 1881POPC   C3B25701  12.029   2.427   8.049
 1881POPC   C4B25702  11.869   2.544   7.663
 1882POPC   NC325703  33.411  12.064   9.719
 1882POPC   PO425704  33.796  12.524   9.584
 1882POPC   GL125705  33.774  12.170   9.264
 1882POPC   GL225706  34.091  12.088   9.133
 1882POPC   C1A25707  33.741  12.214   8.783
 1882POPC   D2A25708  33.506  12.392   8.424
 1882POPC   C3A25709  33.673  12.206   8.110
 1882POPC   C4A25710  33.552  12.164   7.695
 1882POPC   C1B25711  34.185  11.885   8.724
 1882POPC   C2B25712  33.959  11.864   8.372
 1882POPC   C3B25713  34.060  11.742   7.979
 1882POPC   C4B25714  34.046  11.849   7.535
 1883POPC   NC325715   6.996   5.351   9.393
 1883POPC   PO425716   6.437   5.071   9.605
 1883POPC   GL125717   6.545   5.148   9.175
 1883POPC   GL225718   6.838   4.927   9.112
 1883POPC   C1A25719   6.682   5.257   8.744
 1883POPC   D2A25720   6.516   5.301   8.331
 1883POPC   C3A25721   6.698   5.250   7.911
 1883POPC   C4A25722   6.441   5.269   7.506
 1883POPC   C1B25723   6.754   4.718   8.710
 1883POPC   C2B25724   6.707   4.785   8.255
 1883POPC   C3B25725   6.731   4.750   7.807
 1883POPC   C4B25726   6.776   4.626   7.340
 1884POPC   NC325727  27.372  44.588   9.418
 1884POPC   PO425728  27.877   0.105   9.488
 1884POPC   GL125729  27.692  44.863   9.146
 1884POPC   GL225730  27.366  44.954   8.997
 1884POPC   C1A25731  27.586  44.547   8.792
 1884POPC   D2A25732  27.666  44.460   8.350
 1884POPC   C3A25733  27.440  44.553   7.935
 1884POPC   C4A25734  27.526  44.615   7.441
 1884POPC   C1B25735  27.681   0.137   8.736
 1884POPC   C2B25736  27.756  44.982   8.354
 1884POPC   C3B25737  27.582   0.072   7.988
 1884POPC   C4B25738  27.291  44.967   7.701
 1885POPC   NC325739   1.756  14.420   9.366
 1885POPC   PO425740   2.324  14.603   9.174
 1885POPC   GL125741   1.974  14.425   8.913
 1885POPC   GL225742   1.564  14.551   8.927
 1885POPC   C1A25743   2.162  14.321   8.527
 1885POPC   D2A25744   2.354  14.411   8.136
 1885POPC   C3A25745   2.022  14.285   7.941
 1885POPC   C4A25746   1.845  13.897   7.995
 1885POPC   C1B25747   1.621  14.501   8.531
 1885POPC   C2B25748   1.547  14.268   8.184
 1885POPC   C3B25749   1.522  14.342   7.749
 1885POPC   C4B25750   1.716  14.696   7.471
 1886POPC   NC325751   3.345  28.118   9.363
 1886POPC   PO425752   3.713  28.678   9.555
 1886POPC   GL125753   3.651  28.480   9.165
 1886POPC   GL225754   3.292  28.560   9.108
 1886POPC   C1A25755   3.709  28.454   8.737
 1886POPC   D2A25756   3.672  28.648   8.363
 1886POPC   C3A25757   3.839  28.506   7.993
 1886POPC   C4A25758   3.813  28.509   7.537
 1886POPC   C1B25759   3.216  28.313   8.730
 1886POPC   C2B25760   3.347  28.222   8.313
 1886POPC   C3B25761   3.222  28.005   7.937
 1886POPC   C4B25762   3.381  28.274   7.651
 1887POPC   NC325763   7.884  41.444   9.455
 1887POPC   PO425764   7.251  41.225   9.429
 1887POPC   GL125765   7.433  41.533   9.144
 1887POPC   GL225766   7.634  41.289   9.028
 1887POPC   C1A25767   7.514  41.673   8.726
 1887POPC   D2A25768   7.526  41.370   8.401
 1887POPC   C3A25769   7.714  41.471   8.045
 1887POPC   C4A25770   7.562  41.492   7.652
 1887POPC   C1B25771   7.207  41.236   8.782
 1887POPC   C2B25772   7.045  41.118   8.366
 1887POPC   C3B25773   7.262  41.161   7.971
 1887POPC   C4B25774   7.099  41.344   7.587
 1888POPC   NC325775  27.993  34.713   9.304
 1888POPC   PO425776  28.584  34.579   9.564
 1888POPC   GL125777  28.395  34.508   9.104
 1888POPC   GL225778  28.287  34.152   8.989
 1888POPC   C1A25779  28.331  34.822   8.727
 1888POPC   D2A25780  28.505  34.987   8.318
 1888POPC   C3A25781  28.339  34.809   7.929
 1888POPC   C4A25782  28.549  34.791   7.517
 1888POPC   C1B25783  28.139  34.358   8.649
 1888POPC   C2B25784  28.415  34.459   8.334
 1888POPC   C3B25785  28.556  34.255   7.989
 1888POPC   C4B25786  28.331  34.349   7.635
 1889POPC   NC325787  10.526  24.693   9.444
 1889POPC   PO425788  10.664  23.948   9.495
 1889POPC   GL125789  10.739  24.297   9.141
 1889POPC   GL225790  10.407  24.409   9.033
 1889POPC   C1A25791  10.661  24.310   8.630
 1889POPC   D2A25792  10.519  24.600   8.289
 1889POPC   C3A25793  10.706  24.560   7.855
 1889POPC   C4A25794  10.795  24.172   7.631
 1889POPC   C1B25795  10.153  24.533   8.667
 1889POPC   C2B25796  10.033  24.536   8.210
 1889POPC   C3B25797  10.200  24.555   7.827
 1889POPC   C4B25798  10.088  24.757   7.435
 1890POPC   NC325799   5.462   5.964   9.332
 1890POPC   PO425800   6.083   5.941   9.690
 1890POPC   GL125801   6.015   5.731   9.209
 1890POPC   GL225802   5.725   5.545   9.133
 1890POPC   C1A25803   5.871   5.807   8.711
 1890POPC   D2A25804   5.761   5.972   8.294
 1890POPC   C3A25805   6.008   5.997   7.928
 1890POPC   C4A25806   5.878   5.988   7.516
 1890POPC   C1B25807   6.135   5.402   8.846
 1890POPC   C2B25808   5.999   5.282   8.418
 1890POPC   C3B25809   5.856   5.483   8.035
 1890POPC   C4B25810   5.960   5.509   7.607
 1891POPC   NC325811   2.686  19.294   9.731
 1891POPC   PO425812   2.597  19.910   9.519
 1891POPC   GL125813   2.588  19.886   9.111
 1891POPC   GL225814   2.860  19.698   9.051
 1891POPC   C1A25815   2.652  20.060   8.665
 1891POPC   D2A25816   2.682  19.902   8.227
 1891POPC   C3A25817   2.588  20.122   7.849
 1891POPC   C4A25818   2.800  20.091   7.448
 1891POPC   C1B25819   2.540  19.567   8.738
 1891POPC   C2B25820   2.533  19.441   8.344
 1891POPC   C3B25821   2.474  19.490   7.899
 1891POPC   C4B25822   2.828  19.665   7.744
 1892POPC   NC325823  16.515   7.537   9.389
 1892POPC   PO425824  16.054   7.438   9.849
 1892POPC   GL125825  16.007   7.551   9.362
 1892POPC   GL225826  15.868   7.283   9.183
 1892POPC   C1A25827  15.954   7.631   8.847
 1892POPC   D2A25828  15.818   7.775   8.403
 1892POPC   C3A25829  15.949   7.570   8.021
 1892POPC   C4A25830  16.301   7.510   7.734
 1892POPC   C1B25831  15.699   7.168   8.812
 1892POPC   C2B25832  15.773   7.260   8.403
 1892POPC   C3B25833  15.827   7.067   8.024
 1892POPC   C4B25834  15.885   6.983   7.641
 1893POPC   NC325835  27.373   9.552   9.636
 1893POPC   PO425836  27.431   8.809   9.478
 1893POPC   GL125837  27.479   8.940   9.073
 1893POPC   GL225838  27.345   9.260   9.197
 1893POPC   C1A25839  27.756   8.910   8.709
 1893POPC   D2A25840  27.716   9.034   8.301
 1893POPC   C3A25841  27.784   8.787   7.954
 1893POPC   C4A25842  27.577   8.784   7.609
 1893POPC   C1B25843  27.045   9.057   8.871
 1893POPC   C2B25844  27.143   8.898   8.457
 1893POPC   C3B25845  27.286   8.941   8.021
 1893POPC   C4B25846  27.087   8.945   7.630
 1894POPC   NC325847  30.696   0.513   9.828
 1894POPC   PO425848  30.126   0.504   9.607
 1894POPC   GL125849  30.351   0.533   9.206
 1894POPC   GL225850  30.194   0.272   9.047
 1894POPC   C1A25851  30.569   0.461   8.763
 1894POPC   D2A25852  30.371   0.380   8.338
 1894POPC   C3A25853  30.684   0.313   8.011
 1894POPC   C4A25854  30.873   0.265   7.609
 1894POPC   C1B25855  30.125   0.684   8.763
 1894POPC   C2B25856  30.370   0.882   8.428
 1894POPC   C3B25857  30.289   0.819   8.003
 1894POPC   C4B25858  30.450   0.584   7.642
 1895POPC   NC325859  11.761  23.830   9.547
 1895POPC   PO425860  11.759  23.297   9.304
 1895POPC   GL125861  11.866  23.619   9.098
 1895POPC   GL225862  12.165  23.556   9.056
 1895POPC   C1A25863  11.938  23.875   8.758
 1895POPC   D2A25864  12.217  23.879   8.428
 1895POPC   C3A25865  11.983  23.862   8.050
 1895POPC   C4A25866  12.074  23.729   7.668
 1895POPC   C1B25867  12.454  23.353   8.831
 1895POPC   C2B25868  12.600  23.425   8.436
 1895POPC   C3B25869  12.343  23.493   8.106
 1895POPC   C4B25870  12.506  23.521   7.721
 1896POPC   NC325871  20.369   7.772   9.377
 1896POPC   PO425872  20.778   7.144   9.418
 1896POPC   GL125873  20.696   7.384   9.106
 1896POPC   GL225874  20.803   7.697   9.122
 1896POPC   C1A25875  20.573   7.452   8.718
 1896POPC   D2A25876  20.338   7.432   8.400
 1896POPC   C3A25877  20.468   7.689   8.088
 1896POPC   C4A25878  20.692   7.488   7.783
 1896POPC   C1B25879  21.033   7.646   8.732
 1896POPC   C2B25880  20.935   7.542   8.300
 1896POPC   C3B25881  21.152   7.639   7.902
 1896POPC   C4B25882  21.034   7.669   7.451
 1897POPC   NC325883   0.980  19.680   9.418
 1897POPC   PO425884   0.303  19.509   9.492
 1897POPC   GL125885   0.508  19.775   9.165
 1897POPC   GL225886   0.166  19.880   9.111
 1897POPC   C1A25887   0.471  20.038   8.767
 1897POPC   D2A25888   0.462  19.932   8.368
 1897POPC   C3A25889   0.770  19.891   8.112
 1897POPC   C4A25890   0.580  19.791   7.721
 1897POPC   C1B25891   0.272  19.556   8.781
 1897POPC   C2B25892   0.129  19.544   8.383
 1897POPC   C3B25893   0.110  19.705   8.011
 1897POPC   C4B25894   0.211  19.341   7.779
 1898POPC   NC325895   7.617  25.378   9.401
 1898POPC   PO425896   7.317  25.921   9.363
 1898POPC   GL125897   7.239  25.565   9.076
 1898POPC   GL225898   7.195  25.193   9.092
 1898POPC   C1A25899   7.394  25.461   8.668
 1898POPC   D2A25900   7.173  25.475   8.280
 1898POPC   C3A25901   7.412  25.623   7.914
 1898POPC   C4A25902   7.681  25.337   7.712
 1898POPC   C1B25903   7.510  24.986   8.804
 1898POPC   C2B25904   7.718  25.062   8.439
 1898POPC   C3B25905   7.591  24.946   8.041
 1898POPC   C4B25906   7.225  25.159   7.838
 1899POPC   NC325907  23.202   4.690   9.517
 1899POPC   PO425908  22.739   4.099   9.521
 1899POPC   GL125909  22.847   4.131   9.133
 1899POPC   GL225910  23.025   4.407   9.144
 1899POPC   C1A25911  22.723   4.306   8.743
 1899POPC   D2A25912  22.861   4.498   8.351
 1899POPC   C3A25913  22.772   4.287   7.991
 1899POPC   C4A25914  22.524   4.400   7.648
 1899POPC   C1B25915  23.164   4.619   8.776
 1899POPC   C2B25916  23.366   4.565   8.375
 1899POPC   C3B25917  23.225   4.580   7.974
 1899POPC   C4B25918  23.428   4.649   7.610
 1900POPC   NC325919  27.999   7.572   9.603
 1900POPC   PO425920  28.345   7.068   9.493
 1900POPC   GL125921  28.317   7.430   9.221
 1900POPC   GL225922  28.602   7.348   9.104
 1900POPC   C1A25923  28.076   7.690   8.881
 1900POPC   D2A25924  28.156   7.824   8.472
 1900POPC   C3A25925  28.079   7.484   8.227
 1900POPC   C4A25926  28.118   7.394   7.812
 1900POPC   C1B25927  28.371   7.299   8.730
 1900POPC   C2B25928  28.573   7.445   8.393
 1900POPC   C3B25929  28.588   7.331   8.019
 1900POPC   C4B25930  28.654   7.481   7.665
 1901POPC   NC325931  42.713  13.988   9.954
 1901POPC   PO425932  42.331  13.606   9.480
 1901POPC   GL125933  42.222  13.537   9.095
 1901POPC   GL225934  41.965  13.335   9.028
 1901POPC   C1A25935  42.253  13.818   8.793
 1901POPC   D2A25936  42.449  13.769   8.399
 1901POPC   C3A25937  42.183  13.727   8.058
 1901POPC   C4A25938  42.326  13.909   7.680
 1901POPC   C1B25939  42.131  13.365   8.570
 1901POPC   C2B25940  42.499  13.305   8.240
 1901POPC   C3B25941  42.513  13.377   7.818
 1901POPC   C4B25942  42.841  13.478   7.588
 1902POPC   NC325943  13.886   9.513   9.453
 1902POPC   PO425944  14.597   9.781   9.491
 1902POPC   GL125945  14.469   9.861   9.102
 1902POPC   GL225946  14.120   9.855   9.116
 1902POPC   C1A25947  14.381   9.543   8.811
 1902POPC   D2A25948  14.324   9.448   8.400
 1902POPC   C3A25949  14.336   9.761   8.105
 1902POPC   C4A25950  14.317   9.607   7.697
 1902POPC   C1B25951  14.173  10.040   8.707
 1902POPC   C2B25952  14.024  10.212   8.309
 1902POPC   C3B25953  13.938  10.016   7.914
 1902POPC   C4B25954  13.999   9.948   7.499
 1903POPC   NC325955  18.341   1.888   9.580
 1903POPC   PO425956  18.117   2.519   9.292
 1903POPC   GL125957  18.397   2.184   9.165
 1903POPC   GL225958  18.067   1.976   9.178
 1903POPC   C1A25959  18.606   2.135   8.770
 1903POPC   D2A25960  18.482   2.236   8.353
 1903POPC   C3A25961  18.495   1.945   8.016
 1903POPC   C4A25962  18.344   2.000   7.633
 1903POPC   C1B25963  18.074   2.119   8.775
 1903POPC   C2B25964  17.902   2.246   8.420
 1903POPC   C3B25965  18.002   2.104   8.045
 1903POPC   C4B25966  17.848   1.897   7.695
 1904POPC   NC325967   3.265  25.881   9.506
 1904POPC   PO425968   3.481  25.296   9.566
 1904POPC   GL125969   3.681  25.286   9.152
 1904POPC   GL225970   3.880  25.549   9.265
 1904POPC   C1A25971   3.719  25.252   8.698
 1904POPC   D2A25972   3.505  25.082   8.327
 1904POPC   C3A25973   3.579  25.140   7.890
 1904POPC   C4A25974   3.243  25.342   7.659
 1904POPC   C1B25975   3.663  25.740   8.942
 1904POPC   C2B25976   3.733  25.742   8.536
 1904POPC   C3B25977   3.822  25.524   8.174
 1904POPC   C4B25978   3.706  25.606   7.742
 1905POPC   NC325979  14.584  14.887   9.525
 1905POPC   PO425980  14.079  15.384   9.552
 1905POPC   GL125981  14.095  15.268   9.126
 1905POPC   GL225982  14.264  14.959   9.122
 1905POPC   C1A25983  14.253  15.298   8.704
 1905POPC   D2A25984  14.061  15.280   8.303
 1905POPC   C3A25985  14.296  15.295   7.881
 1905POPC   C4A25986  14.513  15.227   7.485
 1905POPC   C1B25987  13.996  14.775   8.837
 1905POPC   C2B25988  13.990  14.719   8.389
 1905POPC   C3B25989  14.003  14.896   7.975
 1905POPC   C4B25990  14.094  14.956   7.551
 1906POPC   NC325991   7.065  12.024   9.506
 1906POPC   PO425992   7.713  12.094   9.518
 1906POPC   GL125993   7.680  12.113   9.103
 1906POPC   GL225994   7.371  11.954   9.056
 1906POPC   C1A25995   7.574  12.345   8.774
 1906POPC   D2A25996   7.378  12.208   8.449
 1906POPC   C3A25997   7.557  12.314   8.095
 1906POPC   C4A25998   7.636  12.029   7.810
 1906POPC   C1B25999   7.138  11.799   8.674
 1906POPC   C2B26000   7.092  11.832   8.262
 1906POPC   C3B26001   7.166  11.815   7.875
 1906POPC   C4B26002   6.889  11.668   7.607
 1907POPC   NC326003  32.930  36.863   9.785
 1907POPC   PO426004  33.100  36.692   9.188
 1907POPC   GL126005  32.969  37.028   9.025
 1907POPC   GL226006  32.661  36.947   9.080
 1907POPC   C1A26007  32.948  37.092   8.627
 1907POPC   D2A26008  32.932  36.882   8.286
 1907POPC   C3A26009  32.922  37.155   7.998
 1907POPC   C4A26010  33.193  37.241   7.702
 1907POPC   C1B26011  32.621  36.676   8.646
 1907POPC   C2B26012  32.596  36.495   8.201
 1907POPC   C3B26013  32.820  36.672   7.839
 1907POPC   C4B26014  32.674  37.023   7.564
 1908POPC   NC326015  39.080  14.114   9.481
 1908POPC   PO426016  39.196  14.850   9.441
 1908POPC   GL126017  39.055  14.583   9.145
 1908POPC   GL226018  39.312  14.346   9.087
 1908POPC   C1A26019  38.970  14.531   8.713
 1908POPC   D2A26020  39.215  14.386   8.369
 1908POPC   C3A26021  39.035  14.453   7.957
 1908POPC   C4A26022  38.730  14.194   7.762
 1908POPC   C1B26023  39.495  14.619   8.788
 1908POPC   C2B26024  39.721  14.516   8.397
 1908POPC   C3B26025  39.542  14.496   7.984
 1908POPC   C4B26026  39.582  14.279   7.572
 1909POPC   NC326027  15.593  36.116   9.715
 1909POPC   PO426028  16.175  36.167   9.443
 1909POPC   GL126029  16.012  36.184   9.088
 1909POPC   GL226030  15.702  36.298   9.242
 1909POPC   C1A26031  16.016  36.008   8.689
 1909POPC   D2A26032  15.784  36.057   8.366
 1909POPC   C3A26033  15.951  36.023   7.974
 1909POPC   C4A26034  15.715  36.083   7.594
 1909POPC   C1B26035  15.632  36.356   8.806
 1909POPC   C2B26036  15.563  36.503   8.412
 1909POPC   C3B26037  15.582  36.375   7.998
 1909POPC   C4B26038  15.944  36.527   7.752
 1910POPC   NC326039  26.099  18.104   9.589
 1910POPC   PO426040  25.644  18.541   9.525
 1910POPC   GL126041  25.787  18.453   9.117
 1910POPC   GL226042  26.123  18.374   9.131
 1910POPC   C1A26043  25.998  18.669   8.718
 1910POPC   D2A26044  26.203  18.687   8.322
 1910POPC   C3A26045  25.946  18.359   8.112
 1910POPC   C4A26046  25.799  18.233   7.721
 1910POPC   C1B26047  25.941  18.166   8.725
 1910POPC   C2B26048  25.947  17.898   8.364
 1910POPC   C3B26049  26.059  17.847   7.953
 1910POPC   C4B26050  26.335  18.144   7.841
 1911POPC   NC326051  22.371   5.271   9.531
 1911POPC   PO426052  21.954   4.716   9.473
 1911POPC   GL126053  22.152   4.948   9.113
 1911POPC   GL226054  22.240   5.308   9.056
 1911POPC   C1A26055  21.946   5.111   8.724
 1911POPC   D2A26056  22.099   4.964   8.367
 1911POPC   C3A26057  21.964   5.214   8.077
 1911POPC   C4A26058  21.797   5.122   7.718
 1911POPC   C1B26059  22.464   5.324   8.618
 1911POPC   C2B26060  22.462   5.406   8.154
 1911POPC   C3B26061  22.512   5.189   7.742
 1911POPC   C4B26062  22.444   5.323   7.306
 1912POPC   NC326063  22.306  20.001   9.467
 1912POPC   PO426064  21.894  19.533   9.710
 1912POPC   GL126065  21.956  19.719   9.249
 1912POPC   GL226066  21.844  20.060   9.203
 1912POPC   C1A26067  22.051  19.668   8.793
 1912POPC   D2A26068  22.301  19.761   8.399
 1912POPC   C3A26069  22.060  19.701   8.009
 1912POPC   C4A26070  22.010  19.505   7.591
 1912POPC   C1B26071  22.132  20.211   8.862
 1912POPC   C2B26072  22.050  20.254   8.414
 1912POPC   C3B26073  22.257  20.183   8.037
 1912POPC   C4B26074  22.170  20.038   7.632
 1913POPC   NC326075   9.721  29.781   9.390
 1913POPC   PO426076  10.337  29.944   9.484
 1913POPC   GL126077  10.168  29.789   9.124
 1913POPC   GL226078   9.991  30.092   9.049
 1913POPC   C1A26079   9.985  29.706   8.716
 1913POPC   D2A26080  10.143  29.820   8.316
 1913POPC   C3A26081   9.829  29.857   8.069
 1913POPC   C4A26082   9.712  29.727   7.710
 1913POPC   C1B26083   9.591  30.176   8.836
 1913POPC   C2B26084   9.599  30.171   8.395
 1913POPC   C3B26085   9.426  30.143   7.975
 1913POPC   C4B26086   9.564  30.177   7.545
 1914POPC   NC326087  11.958  39.468   9.549
 1914POPC   PO426088  12.487  39.794   9.433
 1914POPC   GL126089  12.331  39.426   9.160
 1914POPC   GL226090  11.931  39.392   9.052
 1914POPC   C1A26091  12.293  39.265   8.720
 1914POPC   D2A26092  11.911  39.304   8.432
 1914POPC   C3A26093  12.021  39.378   7.977
 1914POPC   C4A26094  12.376  39.363   7.693
 1914POPC   C1B26095  11.858  38.961   8.861
 1914POPC   C2B26096  11.833  38.758   8.452
 1914POPC   C3B26097  11.740  38.933   8.066
 1914POPC   C4B26098  11.561  38.895   7.691
 1915POPC   NC326099   6.157   4.703   9.611
 1915POPC   PO426100   5.712   5.223   9.598
 1915POPC   GL126101   5.958   5.117   9.256
 1915POPC   GL226102   5.900   4.793   9.181
 1915POPC   C1A26103   5.727   5.109   8.831
 1915POPC   D2A26104   5.724   4.843   8.514
 1915POPC   C3A26105   5.652   5.001   8.116
 1915POPC   C4A26106   5.804   5.051   7.728
 1915POPC   C1B26107   6.212   4.891   8.849
 1915POPC   C2B26108   6.232   4.830   8.405
 1915POPC   C3B26109   6.242   5.027   7.995
 1915POPC   C4B26110   6.265   4.793   7.614
 1916POPC   NC326111  21.653  17.687   9.599
 1916POPC   PO426112  21.263  17.182   9.452
 1916POPC   GL126113  21.408  17.490   9.153
 1916POPC   GL226114  21.725  17.388   9.191
 1916POPC   C1A26115  21.425  17.733   8.749
 1916POPC   D2A26116  21.179  17.681   8.362
 1916POPC   C3A26117  21.345  17.670   7.954
 1916POPC   C4A26118  21.118  17.281   7.990
 1916POPC   C1B26119  21.687  17.274   8.772
 1916POPC   C2B26120  21.571  17.344   8.366
 1916POPC   C3B26121  21.599  17.127   7.997
 1916POPC   C4B26122  21.579  17.329   7.612
 1917POPC   NC326123   6.538   2.337   9.489
 1917POPC   PO426124   6.642   1.762   9.621
 1917POPC   GL126125   6.589   1.928   9.179
 1917POPC   GL226126   6.376   2.220   9.045
 1917POPC   C1A26127   6.712   1.890   8.747
 1917POPC   D2A26128   6.680   1.751   8.359
 1917POPC   C3A26129   6.914   1.953   8.061
 1917POPC   C4A26130   6.855   2.066   7.662
 1917POPC   C1B26131   6.225   2.016   8.712
 1917POPC   C2B26132   6.405   2.209   8.378
 1917POPC   C3B26133   6.436   2.091   7.987
 1917POPC   C4B26134   6.350   2.169   7.586
 1918POPC   NC326135  21.759  42.215   9.466
 1918POPC   PO426136  22.315  42.196   9.846
 1918POPC   GL126137  22.266  42.169   9.364
 1918POPC   GL226138  22.109  42.470   9.190
 1918POPC   C1A26139  22.280  42.078   8.896
 1918POPC   D2A26140  22.251  42.257   8.502
 1918POPC   C3A26141  22.255  42.091   8.101
 1918POPC   C4A26142  22.235  42.259   7.699
 1918POPC   C1B26143  22.000  42.631   8.782
 1918POPC   C2B26144  21.849  42.557   8.349
 1918POPC   C3B26145  21.824  42.545   7.896
 1918POPC   C4B26146  21.945  42.889   7.686
 1919POPC   NC326147   4.158  25.846   9.563
 1919POPC   PO426148   4.694  26.253   9.528
 1919POPC   GL126149   4.477  26.032   9.232
 1919POPC   GL226150   4.673  25.877   9.054
 1919POPC   C1A26151   4.177  25.868   8.900
 1919POPC   D2A26152   4.158  26.013   8.475
 1919POPC   C3A26153   4.477  25.944   8.163
 1919POPC   C4A26154   4.135  25.853   7.879
 1919POPC   C1B26155   4.536  26.217   8.769
 1919POPC   C2B26156   4.474  26.432   8.384
 1919POPC   C3B26157   4.165  26.348   8.068
 1919POPC   C4B26158   4.459  26.247   7.732
 1920POPC   NC326159  27.751  17.997   9.450
 1920POPC   PO426160  27.764  18.673   9.435
 1920POPC   GL126161  27.629  18.374   9.107
 1920POPC   GL226162  27.369  18.531   8.968
 1920POPC   C1A26163  27.607  18.166   8.679
 1920POPC   D2A26164  27.525  17.952   8.295
 1920POPC   C3A26165  27.672  18.074   7.893
 1920POPC   C4A26166  28.006  18.331   7.827
 1920POPC   C1B26167  27.627  18.672   8.633
 1920POPC   C2B26168  27.705  18.513   8.210
 1920POPC   C3B26169  27.576  18.583   7.777
 1920POPC   C4B26170  27.385  18.620   7.379
 1921POPC   NC326171  12.514   9.775   9.553
 1921POPC   PO426172  13.140  10.062   9.464
 1921POPC   GL126173  12.896   9.855   9.127
 1921POPC   GL226174  12.567   9.990   9.109
 1921POPC   C1A26175  12.834   9.848   8.672
 1921POPC   D2A26176  13.033   9.910   8.274
 1921POPC   C3A26177  12.972   9.626   7.911
 1921POPC   C4A26178  13.214   9.468   7.525
 1921POPC   C1B26179  12.480   9.565   8.912
 1921POPC   C2B26180  12.553   9.363   8.530
 1921POPC   C3B26181  12.578   9.691   8.232
 1921POPC   C4B26182  12.464   9.950   7.864
 1922POPC   NC326183  24.750  16.005   9.503
 1922POPC   PO426184  24.213  15.694   9.349
 1922POPC   GL126185  24.422  15.975   9.060
 1922POPC   GL226186  24.775  16.008   9.002
 1922POPC   C1A26187  24.354  16.182   8.667
 1922POPC   D2A26188  24.509  16.287   8.228
 1922POPC   C3A26189  24.251  16.009   7.937
 1922POPC   C4A26190  24.186  15.581   7.756
 1922POPC   C1B26191  24.867  16.115   8.598
 1922POPC   C2B26192  24.908  15.918   8.209
 1922POPC   C3B26193  24.759  16.010   7.818
 1922POPC   C4B26194  24.994  15.950   7.460
 1923POPC   NC326195  10.129   2.539   9.620
 1923POPC   PO426196   9.590   3.049   9.703
 1923POPC   GL126197   9.651   2.878   9.256
 1923POPC   GL226198   9.947   2.668   9.157
 1923POPC   C1A26199   9.529   2.634   8.862
 1923POPC   D2A26200   9.609   2.757   8.414
 1923POPC   C3A26201   9.510   2.477   8.069
 1923POPC   C4A26202   9.612   2.409   7.629
 1923POPC   C1B26203  10.031   2.586   8.700
 1923POPC   C2B26204  10.019   2.509   8.229
 1923POPC   C3B26205   9.889   2.772   7.883
 1923POPC   C4B26206  10.060   2.648   7.476
 1924POPC   NC326207  21.757  24.107   9.507
 1924POPC   PO426208  21.342  24.600   9.712
 1924POPC   GL126209  21.437  24.459   9.272
 1924POPC   GL226210  21.531  24.171   9.066
 1924POPC   C1A26211  21.426  24.586   8.810
 1924POPC   D2A26212  21.287  24.683   8.390
 1924POPC   C3A26213  21.247  24.402   8.058
 1924POPC   C4A26214  21.355  24.669   7.705
 1924POPC   C1B26215  21.795  24.242   8.689
 1924POPC   C2B26216  21.698  24.246   8.240
 1924POPC   C3B26217  21.690  24.290   7.769
 1924POPC   C4B26218  21.452  24.291   7.350
 1925POPC   NC326219  43.214  12.950   9.550
 1925POPC   PO426220  43.107  12.328   9.665
 1925POPC   GL126221  43.191  12.572   9.200
 1925POPC   GL226222  43.066  12.941   9.092
 1925POPC   C1A26223  43.032  12.618   8.726
 1925POPC   D2A26224  43.243  12.665   8.335
 1925POPC   C3A26225  43.024  12.752   7.952
 1925POPC   C4A26226  42.918  12.983   7.576
 1925POPC   C1B26227  43.172  13.177   8.746
 1925POPC   C2B26228  42.954  13.099   8.375
 1925POPC   C3B26229  43.024  13.267   8.009
 1925POPC   C4B26230  43.415  13.093   7.913
 1926POPC   NC326231   8.926  37.138   9.418
 1926POPC   PO426232   9.298  36.595   9.445
 1926POPC   GL126233   9.135  36.686   9.076
 1926POPC   GL226234   9.147  37.041   8.978
 1926POPC   C1A26235   8.988  36.541   8.697
 1926POPC   D2A26236   9.020  36.853   8.432
 1926POPC   C3A26237   9.073  36.750   8.060
 1926POPC   C4A26238   9.330  36.674   7.747
 1926POPC   C1B26239   8.722  36.936   8.819
 1926POPC   C2B26240   8.491  36.936   8.447
 1926POPC   C3B26241   8.667  37.050   8.085
 1926POPC   C4B26242   8.766  36.932   7.693
 1927POPC   NC326243  31.436  35.902   9.628
 1927POPC   PO426244  31.123  35.347   9.460
 1927POPC   GL126245  31.365  35.426   9.119
 1927POPC   GL226246  31.732  35.498   9.070
 1927POPC   C1A26247  31.416  35.204   8.758
 1927POPC   D2A26248  31.489  35.022   8.386
 1927POPC   C3A26249  31.286  35.248   8.061
 1927POPC   C4A26250  31.197  35.110   7.634
 1927POPC   C1B26251  31.857  35.413   8.618
 1927POPC   C2B26252  31.811  35.351   8.154
 1927POPC   C3B26253  31.679  35.113   7.775
 1927POPC   C4B26254  31.650  35.357   7.361
 1928POPC   NC326255  19.685   0.069   9.601
 1928POPC   PO426256  20.164  44.604   9.695
 1928POPC   GL126257  20.168  44.585   9.229
 1928POPC   GL226258  19.936  44.857   9.092
 1928POPC   C1A26259  20.341  44.602   8.784
 1928POPC   D2A26260  20.215  44.535   8.321
 1928POPC   C3A26261  20.010  44.673   7.898
 1928POPC   C4A26262  20.082  44.833   7.443
 1928POPC   C1B26263  19.833  44.575   8.715
 1928POPC   C2B26264  19.743  44.353   8.305
 1928POPC   C3B26265  19.525  44.509   7.933
 1928POPC   C4B26266  19.241  44.866   7.903
 1929POPC   NC326267   7.712  22.854   9.472
 1929POPC   PO426268   7.066  23.205   9.517
 1929POPC   GL126269   7.275  22.989   9.223
 1929POPC   GL226270   7.553  23.182   9.105
 1929POPC   C1A26271   7.260  22.845   8.818
 1929POPC   D2A26272   7.398  23.002   8.442
 1929POPC   C3A26273   7.498  22.749   8.099
 1929POPC   C4A26274   7.350  22.867   7.718
 1929POPC   C1B26275   7.704  23.368   8.716
 1929POPC   C2B26276   7.595  23.444   8.294
 1929POPC   C3B26277   7.730  23.169   7.925
 1929POPC   C4B26278   7.717  23.098   7.444
 1930POPC   NC326279  18.406  28.629   9.670
 1930POPC   PO426280  18.667  28.193   9.211
 1930POPC   GL126281  18.343  28.451   9.060
 1930POPC   GL226282  18.090  28.193   9.129
 1930POPC   C1A26283  18.147  28.503   8.655
 1930POPC   D2A26284  17.879  28.429   8.307
 1930POPC   C3A26285  18.160  28.375   7.970
 1930POPC   C4A26286  18.225  28.771   7.814
 1930POPC   C1B26287  18.273  28.021   8.727
 1930POPC   C2B26288  18.577  28.195   8.423
 1930POPC   C3B26289  18.669  28.307   7.996
 1930POPC   C4B26290  18.608  28.074   7.648
 1931POPC   NC326291  10.842  28.435   9.635
 1931POPC   PO426292  10.222  28.246   9.481
 1931POPC   GL126293  10.477  28.424   9.216
 1931POPC   GL226294  10.758  28.214   9.175
 1931POPC   C1A26295  10.471  28.496   8.795
 1931POPC   D2A26296  10.408  28.248   8.411
 1931POPC   C3A26297  10.657  28.425   8.100
 1931POPC   C4A26298  10.526  28.639   7.744
 1931POPC   C1B26299  10.745  28.073   8.767
 1931POPC   C2B26300  11.043  28.141   8.402
 1931POPC   C3B26301  10.996  28.066   7.954
 1931POPC   C4B26302  10.666  28.156   7.657
 1932POPC   NC326303  40.228   5.698   9.547
 1932POPC   PO426304  39.516   5.643   9.536
 1932POPC   GL126305  39.813   5.766   9.212
 1932POPC   GL226306  40.059   6.069   9.215
 1932POPC   C1A26307  40.088   5.634   8.875
 1932POPC   D2A26308  40.274   5.707   8.484
 1932POPC   C3A26309  40.078   5.553   8.126
 1932POPC   C4A26310  40.124   5.738   7.709
 1932POPC   C1B26311  39.777   6.101   8.839
 1932POPC   C2B26312  39.799   5.933   8.411
 1932POPC   C3B26313  40.109   6.070   8.126
 1932POPC   C4B26314  40.034   6.310   7.801
 1933POPC   NC326315  20.395  43.233   9.753
 1933POPC   PO426316  20.746  42.713   9.492
 1933POPC   GL126317  20.635  43.128   9.288
 1933POPC   GL226318  20.941  43.328   9.228
 1933POPC   C1A26319  20.521  43.233   8.854
 1933POPC   D2A26320  20.596  42.896   8.516
 1933POPC   C3A26321  20.544  43.020   8.062
 1933POPC   C4A26322  20.703  42.931   7.645
 1933POPC   C1B26323  20.992  43.058   8.849
 1933POPC   C2B26324  20.971  43.233   8.442
 1933POPC   C3B26325  21.042  43.111   8.012
 1933POPC   C4B26326  20.863  43.413   7.724
 1934POPC   NC326327   0.137  34.075   9.654
 1934POPC   PO426328   0.068  34.715   9.478
 1934POPC   GL126329   0.263  34.385   9.240
 1934POPC   GL226330  44.962  34.260   9.176
 1934POPC   C1A26331   0.471  34.259   8.834
 1934POPC   D2A26332   0.376  34.379   8.409
 1934POPC   C3A26333   0.563  34.295   8.048
 1934POPC   C4A26334   0.644  34.680   7.866
 1934POPC   C1B26335   0.019  34.469   8.778
 1934POPC   C2B26336  44.891  34.293   8.362
 1934POPC   C3B26337   0.064  34.468   7.985
 1934POPC   C4B26338   0.026  34.673   7.586
 1935POPC   NC326339  37.985  26.553   9.532
 1935POPC   PO426340  37.504  27.000   9.476
 1935POPC   GL126341  37.739  26.885   9.102
 1935POPC   GL226342  38.069  27.059   9.169
 1935POPC   C1A26343  37.613  26.787   8.635
 1935POPC   D2A26344  37.563  26.652   8.168
 1935POPC   C3A26345  37.441  26.942   7.819
 1935POPC   C4A26346  37.349  26.870   7.336
 1935POPC   C1B26347  37.940  27.176   8.723
 1935POPC   C2B26348  37.826  27.074   8.254
 1935POPC   C3B26349  37.904  27.116   7.800
 1935POPC   C4B26350  37.634  27.307   7.464
 1936POPC   NC326351   9.830  16.880   9.245
 1936POPC   PO426352   9.605  16.299   9.300
 1936POPC   GL126353   9.872  16.338   9.006
 1936POPC   GL226354   9.603  16.618   8.897
 1936POPC   C1A26355   9.937  16.385   8.588
 1936POPC   D2A26356   9.730  16.777   8.432
 1936POPC   C3A26357   9.882  16.966   8.070
 1936POPC   C4A26358   9.781  17.145   7.715
 1936POPC   C1B26359   9.398  16.388   8.649
 1936POPC   C2B26360   9.555  16.220   8.294
 1936POPC   C3B26361   9.855  16.437   8.066
 1936POPC   C4B26362   9.583  16.622   7.778
 1937POPC   NC326363  27.886  32.743   9.533
 1937POPC   PO426364  27.381  33.161   9.820
 1937POPC   GL126365  27.569  33.044   9.328
 1937POPC   GL226366  27.887  33.288   9.197
 1937POPC   C1A26367  27.655  32.923   8.859
 1937POPC   D2A26368  27.475  32.995   8.432
 1937POPC   C3A26369  27.698  32.954   8.048
 1937POPC   C4A26370  27.707  32.758   7.654
 1937POPC   C1B26371  27.879  33.388   8.720
 1937POPC   C2B26372  27.757  33.485   8.268
 1937POPC   C3B26373  27.456  33.385   7.908
 1937POPC   C4B26374  27.627  33.278   7.460
 1938POPC   NC326375  36.789  44.273   9.473
 1938POPC   PO426376  37.175  44.813   9.468
 1938POPC   GL126377  37.003  44.608   9.104
 1938POPC   GL226378  36.662  44.538   9.077
 1938POPC   C1A26379  36.920  44.670   8.660
 1938POPC   D2A26380  36.870  44.497   8.256
 1938POPC   C3A26381  37.179  44.749   8.041
 1938POPC   C4A26382  37.146  44.884   7.622
 1938POPC   C1B26383  36.438  44.488   8.724
 1938POPC   C2B26384  36.390  44.698   8.315
 1938POPC   C3B26385  36.550  44.699   7.864
 1938POPC   C4B26386  36.711  44.552   7.454
 1939POPC   NC326387  27.985  25.773   9.562
 1939POPC   PO426388  27.434  26.225   9.565
 1939POPC   GL126389  27.736  26.103   9.251
 1939POPC   GL226390  27.922  26.368   9.146
 1939POPC   C1A26391  27.727  25.938   8.837
 1939POPC   D2A26392  27.726  25.742   8.433
 1939POPC   C3A26393  27.504  25.955   8.116
 1939POPC   C4A26394  27.651  25.891   7.716
 1939POPC   C1B26395  27.529  26.419   8.874
 1939POPC   C2B26396  27.359  26.357   8.448
 1939POPC   C3B26397  27.541  26.471   8.067
 1939POPC   C4B26398  27.723  26.390   7.683
 1940POPC   NC326399  22.703  36.407   9.448
 1940POPC   PO426400  22.067  36.159   9.595
 1940POPC   GL126401  22.033  36.098   9.193
 1940POPC   GL226402  22.296  36.341   9.156
 1940POPC   C1A26403  22.232  35.944   8.828
 1940POPC   D2A26404  22.298  35.809   8.424
 1940POPC   C3A26405  22.226  36.008   8.044
 1940POPC   C4A26406  22.096  35.932   7.686
 1940POPC   C1B26407  22.054  36.445   8.817
 1940POPC   C2B26408  22.081  36.282   8.443
 1940POPC   C3B26409  21.850  36.328   8.071
 1940POPC   C4B26410  22.073  36.471   7.734
 1941POPC   NC326411   9.611  26.443   9.477
 1941POPC   PO426412  10.204  26.773   9.434
 1941POPC   GL126413   9.960  26.702   9.071
 1941POPC   GL226414   9.625  26.754   9.075
 1941POPC   C1A26415   9.871  26.924   8.667
 1941POPC   D2A26416  10.077  26.794   8.306
 1941POPC   C3A26417  10.011  27.041   7.960
 1941POPC   C4A26418   9.943  26.879   7.574
 1941POPC   C1B26419   9.356  26.910   8.785
 1941POPC   C2B26420   9.264  26.802   8.380
 1941POPC   C3B26421   9.596  26.689   8.127
 1941POPC   C4B26422   9.455  26.859   7.765
 1942POPC   NC326423  39.181  16.395   9.447
 1942POPC   PO426424  39.644  16.940   9.492
 1942POPC   GL126425  39.336  17.028   9.163
 1942POPC   GL226426  38.943  16.969   9.105
 1942POPC   C1A26427  39.295  17.055   8.735
 1942POPC   D2A26428  39.221  16.802   8.385
 1942POPC   C3A26429  39.470  16.790   8.047
 1942POPC   C4A26430  39.365  16.669   7.666
 1942POPC   C1B26431  38.790  16.896   8.643
 1942POPC   C2B26432  38.738  16.825   8.179
 1942POPC   C3B26433  38.836  16.730   7.702
 1942POPC   C4B26434  38.807  16.469   7.241
 1943POPC   NC326435  26.862  31.421   9.488
 1943POPC   PO426436  26.699  32.084   9.317
 1943POPC   GL126437  26.988  31.744   9.092
 1943POPC   GL226438  27.208  31.411   9.108
 1943POPC   C1A26439  26.828  31.420   8.771
 1943POPC   D2A26440  26.898  31.473   8.332
 1943POPC   C3A26441  26.558  31.330   8.055
 1943POPC   C4A26442  26.430  31.501   7.607
 1943POPC   C1B26443  27.323  31.456   8.654
 1943POPC   C2B26444  27.348  31.163   8.282
 1943POPC   C3B26445  27.047  31.181   7.937
 1943POPC   C4B26446  26.899  31.606   7.823
 1944POPC   NC326447  12.199  23.288   9.481
 1944POPC   PO426448  11.802  22.750   9.699
 1944POPC   GL126449  11.838  22.789   9.176
 1944POPC   GL226450  12.114  23.034   9.061
 1944POPC   C1A26451  12.023  22.742   8.691
 1944POPC   D2A26452  12.143  23.033   8.337
 1944POPC   C3A26453  11.897  22.829   8.065
 1944POPC   C4A26454  12.114  22.606   7.783
 1944POPC   C1B26455  11.911  23.276   8.707
 1944POPC   C2B26456  11.848  23.499   8.367
 1944POPC   C3B26457  11.862  23.349   7.956
 1944POPC   C4B26458  12.194  23.116   7.763
 1945POPC   NC326459  31.984  42.572   9.434
 1945POPC   PO426460  32.524  42.127   9.404
 1945POPC   GL126461  32.261  42.289   9.090
 1945POPC   GL226462  31.941  42.126   9.027
 1945POPC   C1A26463  32.370  42.352   8.665
 1945POPC   D2A26464  32.279  42.130   8.301
 1945POPC   C3A26465  32.565  42.088   7.971
 1945POPC   C4A26466  32.475  42.332   7.642
 1945POPC   C1B26467  31.915  42.541   8.762
 1945POPC   C2B26468  32.022  42.586   8.302
 1945POPC   C3B26469  32.017  42.485   7.829
 1945POPC   C4B26470  31.819  42.616   7.374
 1946POPC   NC326471  29.371  36.380   9.275
 1946POPC   PO426472  28.902  36.003   9.486
 1946POPC   GL126473  29.130  35.954   9.097
 1946POPC   GL226474  29.053  36.267   8.889
 1946POPC   C1A26475  29.401  35.956   8.721
 1946POPC   D2A26476  29.253  36.149   8.315
 1946POPC   C3A26477  28.944  36.067   7.993
 1946POPC   C4A26478  28.750  36.035   7.607
 1946POPC   C1B26479  29.421  36.491   8.650
 1946POPC   C2B26480  29.590  36.535   8.232
 1946POPC   C3B26481  29.408  36.329   7.854
 1946POPC   C4B26482  29.229  36.211   7.444
 1947POPC   NC326483  43.372   3.566   9.572
 1947POPC   PO426484  44.000   3.202   9.455
 1947POPC   GL126485  43.893   3.393   9.080
 1947POPC   GL226486  43.553   3.493   9.077
 1947POPC   C1A26487  43.976   3.577   8.702
 1947POPC   D2A26488  43.838   3.372   8.315
 1947POPC   C3A26489  44.077   3.416   7.940
 1947POPC   C4A26490  43.999   3.503   7.502
 1947POPC   C1B26491  43.552   3.850   8.776
 1947POPC   C2B26492  43.738   3.930   8.392
 1947POPC   C3B26493  43.687   3.745   7.995
 1947POPC   C4B26494  43.940   3.970   7.700
 1948POPC   NC326495  34.996  16.696   9.424
 1948POPC   PO426496  34.676  16.239   9.687
 1948POPC   GL126497  34.531  16.489   9.293
 1948POPC   GL226498  34.479  16.835   9.312
 1948POPC   C1A26499  34.559  16.676   8.842
 1948POPC   D2A26500  34.531  16.615   8.372
 1948POPC   C3A26501  34.751  16.800   8.017
 1948POPC   C4A26502  34.454  16.682   7.746
 1948POPC   C1B26503  34.322  17.103   8.974
 1948POPC   C2B26504  34.293  17.049   8.522
 1948POPC   C3B26505  34.331  17.089   8.063
 1948POPC   C4B26506  34.489  17.195   7.659
 1949POPC   NC326507   6.970  44.875   9.526
 1949POPC   PO426508   7.285  44.338   9.434
 1949POPC   GL126509   7.428  44.709   9.200
 1949POPC   GL226510   7.154  44.882   9.061
 1949POPC   C1A26511   7.655  44.958   8.869
 1949POPC   D2A26512   7.683   0.102   8.441
 1949POPC   C3A26513   7.699  44.752   8.159
 1949POPC   C4A26514   7.681  44.767   7.728
 1949POPC   C1B26515   7.128  44.520   8.795
 1949POPC   C2B26516   7.252  44.433   8.371
 1949POPC   C3B26517   7.191  44.624   7.979
 1949POPC   C4B26518   7.250  44.551   7.569
 1950POPC   NC326519  44.125  42.987   9.448
 1950POPC   PO426520  43.464  43.207   9.471
 1950POPC   GL126521  43.683  43.178   9.101
 1950POPC   GL226522  43.856  43.486   9.142
 1950POPC   C1A26523  43.926  43.031   8.734
 1950POPC   D2A26524  44.069  42.896   8.300
 1950POPC   C3A26525  43.701  42.778   8.088
 1950POPC   C4A26526  43.561  42.975   7.720
 1950POPC   C1B26527  43.683  43.585   8.738
 1950POPC   C2B26528  43.690  43.321   8.364
 1950POPC   C3B26529  43.866  43.288   7.975
 1950POPC   C4B26530  43.870  43.556   7.641
 1951POPC   NC326531  11.445  34.266   9.513
 1951POPC   PO426532  10.888  34.616   9.450
 1951POPC   GL126533  11.245  34.729   9.150
 1951POPC   GL226534  11.608  34.580   9.143
 1951POPC   C1A26535  11.319  34.673   8.727
 1951POPC   D2A26536  11.496  34.655   8.342
 1951POPC   C3A26537  11.196  34.467   8.064
 1951POPC   C4A26538  11.037  34.602   7.663
 1951POPC   C1B26539  11.643  34.289   8.785
 1951POPC   C2B26540  11.639  34.163   8.350
 1951POPC   C3B26541  11.651  34.358   7.904
 1951POPC   C4B26542  11.522  34.465   7.457
 1952POPC   NC326543  29.765  40.295   9.435
 1952POPC   PO426544  30.278  39.774   9.439
 1952POPC   GL126545  30.125  39.853   9.049
 1952POPC   GL226546  30.276  40.144   9.079
 1952POPC   C1A26547  29.970  39.988   8.637
 1952POPC   D2A26548  30.057  40.020   8.176
 1952POPC   C3A26549  29.837  39.796   7.867
 1952POPC   C4A26550  29.400  39.783   7.775
 1952POPC   C1B26551  30.331  40.350   8.750
 1952POPC   C2B26552  30.157  40.476   8.383
 1952POPC   C3B26553  30.345  40.428   7.995
 1952POPC   C4B26554  30.110  40.258   7.653
 1953POPC   NC326555   4.769   6.155   9.439
 1953POPC   PO426556   5.069   5.736   9.198
 1953POPC   GL126557   5.135   6.126   8.992
 1953POPC   GL226558   4.823   6.136   8.898
 1953POPC   C1A26559   5.404   6.149   8.637
 1953POPC   D2A26560   5.251   5.912   8.263
 1953POPC   C3A26561   5.493   5.850   7.865
 1953POPC   C4A26562   5.480   5.611   7.470
 1953POPC   C1B26563   4.724   5.774   8.596
 1953POPC   C2B26564   4.627   5.564   8.193
 1953POPC   C3B26565   4.947   5.680   7.885
 1953POPC   C4B26566   5.049   6.137   7.851
 1954POPC   NC326567  37.439  20.243   9.536
 1954POPC   PO426568  37.407  20.950   9.460
 1954POPC   GL126569  37.677  20.665   9.188
 1954POPC   GL226570  37.686  20.287   9.109
 1954POPC   C1A26571  37.708  20.621   8.736
 1954POPC   D2A26572  37.847  20.383   8.394
 1954POPC   C3A26573  37.730  20.555   8.063
 1954POPC   C4A26574  37.819  20.598   7.686
 1954POPC   C1B26575  37.493  20.154   8.747
 1954POPC   C2B26576  37.349  20.388   8.411
 1954POPC   C3B26577  37.278  20.333   8.016
 1954POPC   C4B26578  37.551  20.143   7.759
 1955POPC   NC326579  42.516  29.563   9.319
 1955POPC   PO426580  42.632  30.221   9.511
 1955POPC   GL126581  42.494  30.187   9.117
 1955POPC   GL226582  42.220  29.962   9.134
 1955POPC   C1A26583  42.443  30.041   8.692
 1955POPC   D2A26584  42.228  30.132   8.321
 1955POPC   C3A26585  42.427  29.960   7.982
 1955POPC   C4A26586  42.417  29.645   7.730
 1955POPC   C1B26587  41.957  30.186   8.810
 1955POPC   C2B26588  41.791  30.371   8.443
 1955POPC   C3B26589  41.764  30.207   8.079
 1955POPC   C4B26590  42.016  30.138   7.775
 1956POPC   NC326591  36.405  15.327   9.470
 1956POPC   PO426592  36.000  14.772   9.396
 1956POPC   GL126593  36.158  14.963   9.074
 1956POPC   GL226594  36.044  15.302   9.093
 1956POPC   C1A26595  36.034  14.982   8.650
 1956POPC   D2A26596  36.309  15.069   8.343
 1956POPC   C3A26597  36.270  15.132   7.940
 1956POPC   C4A26598  36.401  14.913   7.592
 1956POPC   C1B26599  36.394  15.334   8.782
 1956POPC   C2B26600  36.435  15.557   8.367
 1956POPC   C3B26601  36.384  15.636   7.930
 1956POPC   C4B26602  36.352  15.411   7.516
 1957POPC   NC326603  36.962  24.376  10.058
 1957POPC   PO426604  36.820  23.866   9.643
 1957POPC   GL126605  36.907  23.706   9.246
 1957POPC   GL226606  37.244  23.789   9.282
 1957POPC   C1A26607  36.702  23.607   8.841
 1957POPC   D2A26608  36.765  23.564   8.403
 1957POPC   C3A26609  36.693  23.726   8.008
 1957POPC   C4A26610  36.857  23.509   7.649
 1957POPC   C1B26611  37.218  23.802   8.806
 1957POPC   C2B26612  37.360  23.915   8.353
 1957POPC   C3B26613  37.163  23.875   7.932
 1957POPC   C4B26614  37.087  23.901   7.454
 1958POPC   NC326615  36.013  31.117   9.418
 1958POPC   PO426616  35.944  31.859   9.488
 1958POPC   GL126617  36.089  31.635   9.108
 1958POPC   GL226618  35.907  31.329   8.972
 1958POPC   C1A26619  36.192  31.623   8.664
 1958POPC   D2A26620  36.073  31.321   8.373
 1958POPC   C3A26621  35.987  31.484   7.956
 1958POPC   C4A26622  36.229  31.682   7.612
 1958POPC   C1B26623  36.300  31.139   8.808
 1958POPC   C2B26624  36.498  31.033   8.433
 1958POPC   C3B26625  36.327  31.007   7.986
 1958POPC   C4B26626  36.172  31.179   7.592
 1959POPC   NC326627  17.800  10.687   9.520
 1959POPC   PO426628  17.267  10.222   9.421
 1959POPC   GL126629  17.514  10.405   9.086
 1959POPC   GL226630  17.638  10.775   9.062
 1959POPC   C1A26631  17.560  10.487   8.653
 1959POPC   D2A26632  17.633  10.705   8.297
 1959POPC   C3A26633  17.441  10.499   7.971
 1959POPC   C4A26634  17.564  10.646   7.583
 1959POPC   C1B26635  17.868  10.932   8.697
 1959POPC   C2B26636  17.882  11.153   8.266
 1959POPC   C3B26637  17.926  10.883   7.854
 1959POPC   C4B26638  18.007  10.737   7.350
 1960POPC   NC326639  21.302  44.930   9.515
 1960POPC   PO426640  21.287  44.324   9.666
 1960POPC   GL126641  21.522  44.543   9.249
 1960POPC   GL226642  21.290  44.776   9.038
 1960POPC   C1A26643  21.712  44.680   8.818
 1960POPC   D2A26644  21.429  44.846   8.448
 1960POPC   C3A26645  21.529  44.778   7.972
 1960POPC   C4A26646  21.363  44.979   7.563
 1960POPC   C1B26647  21.277  44.407   8.792
 1960POPC   C2B26648  21.159  44.233   8.413
 1960POPC   C3B26649  21.239  44.356   8.029
 1960POPC   C4B26650  21.047  44.678   7.824
 1961POPC   NC326651  14.342  31.623   9.359
 1961POPC   PO426652  14.633  31.135   9.495
 1961POPC   GL126653  14.625  31.321   9.079
 1961POPC   GL226654  14.632  31.647   8.963
 1961POPC   C1A26655  14.477  31.269   8.666
 1961POPC   D2A26656  14.650  31.642   8.452
 1961POPC   C3A26657  14.746  31.502   8.100
 1961POPC   C4A26658  14.444  31.217   8.035
 1961POPC   C1B26659  14.230  31.723   8.740
 1961POPC   C2B26660  14.109  31.502   8.385
 1961POPC   C3B26661  13.941  31.511   7.979
 1961POPC   C4B26662  14.221  31.469   7.661
 1962POPC   NC326663  18.274  17.259   9.296
 1962POPC   PO426664  18.314  17.916   9.474
 1962POPC   GL126665  18.366  17.758   9.066
 1962POPC   GL226666  18.612  18.035   9.048
 1962POPC   C1A26667  18.295  17.461   8.668
 1962POPC   D2A26668  18.250  17.176   8.311
 1962POPC   C3A26669  18.267  17.384   7.895
 1962POPC   C4A26670  18.268  17.215   7.465
 1962POPC   C1B26671  18.558  17.908   8.627
 1962POPC   C2B26672  18.482  17.735   8.255
 1962POPC   C3B26673  18.449  17.905   7.863
 1962POPC   C4B26674  18.326  17.725   7.494
 1963POPC   NC326675  11.649  43.310   9.413
 1963POPC   PO426676  11.104  43.128   9.833
 1963POPC   GL126677  11.158  43.219   9.305
 1963POPC   GL226678  11.261  42.927   9.078
 1963POPC   C1A26679  11.078  43.304   8.820
 1963POPC   D2A26680  11.241  43.174   8.397
 1963POPC   C3A26681  11.128  43.280   7.952
 1963POPC   C4A26682  10.933  43.052   7.629
 1963POPC   C1B26683  11.568  42.956   8.758
 1963POPC   C2B26684  11.746  43.145   8.389
 1963POPC   C3B26685  11.605  43.045   7.995
 1963POPC   C4B26686  11.423  42.877   7.638
 1964POPC   NC326687   7.121  13.025   9.464
 1964POPC   PO426688   7.771  12.883   9.531
 1964POPC   GL126689   7.558  12.809   9.169
 1964POPC   GL226690   7.478  13.148   9.122
 1964POPC   C1A26691   7.353  12.816   8.746
 1964POPC   D2A26692   7.174  12.676   8.363
 1964POPC   C3A26693   7.340  12.775   7.981
 1964POPC   C4A26694   7.626  12.951   7.687
 1964POPC   C1B26695   7.110  13.260   8.815
 1964POPC   C2B26696   7.175  13.200   8.360
 1964POPC   C3B26697   7.275  13.274   7.919
 1964POPC   C4B26698   7.161  13.067   7.533
 1965POPC   NC326699  26.157   8.722   9.291
 1965POPC   PO426700  25.981   9.256   9.706
 1965POPC   GL126701  26.068   9.266   9.237
 1965POPC   GL226702  25.801   9.065   9.161
 1965POPC   C1A26703  26.145   9.147   8.778
 1965POPC   D2A26704  26.174   8.756   8.523
 1965POPC   C3A26705  26.260   8.857   8.090
 1965POPC   C4A26706  26.190   9.182   7.753
 1965POPC   C1B26707  25.663   8.989   8.750
 1965POPC   C2B26708  25.825   9.076   8.357
 1965POPC   C3B26709  25.765   8.928   7.961
 1965POPC   C4B26710  25.667   9.129   7.599
 1966POPC   NC326711  41.079  44.088   9.958
 1966POPC   PO426712  40.614  43.855   9.475
 1966POPC   GL126713  40.700  43.910   9.056
 1966POPC   GL226714  41.033  43.900   9.199
 1966POPC   C1A26715  40.663  43.845   8.604
 1966POPC   D2A26716  40.777  44.113   8.273
 1966POPC   C3A26717  40.466  44.051   8.004
 1966POPC   C4A26718  40.589  43.858   7.645
 1966POPC   C1B26719  41.126  43.949   8.788
 1966POPC   C2B26720  41.134  43.722   8.407
 1966POPC   C3B26721  40.992  43.732   7.974
 1966POPC   C4B26722  41.091  43.911   7.588
 1967POPC   NC326723  32.249  14.680   9.524
 1967POPC   PO426724  32.357  14.028   9.493
 1967POPC   GL126725  32.227  14.287   9.168
 1967POPC   GL226726  32.501  14.486   9.129
 1967POPC   C1A26727  32.014  14.262   8.780
 1967POPC   D2A26728  32.295  14.140   8.425
 1967POPC   C3A26729  32.118  14.028   8.041
 1967POPC   C4A26730  32.045  14.367   7.832
 1967POPC   C1B26731  32.315  14.663   8.780
 1967POPC   C2B26732  32.096  14.614   8.394
 1967POPC   C3B26733  32.242  14.822   8.045
 1967POPC   C4B26734  32.372  14.711   7.647
 1968POPC   NC326735  21.001  23.365   9.499
 1968POPC   PO426736  21.308  23.992   9.506
 1968POPC   GL126737  21.164  23.824   9.139
 1968POPC   GL226738  21.318  23.524   9.124
 1968POPC   C1A26739  21.357  23.843   8.704
 1968POPC   D2A26740  21.165  23.907   8.294
 1968POPC   C3A26741  21.435  23.867   7.941
 1968POPC   C4A26742  21.294  23.858   7.529
 1968POPC   C1B26743  21.060  23.425   8.766
 1968POPC   C2B26744  21.215  23.353   8.339
 1968POPC   C3B26745  21.079  23.472   7.929
 1968POPC   C4B26746  21.345  23.350   7.606
 1969POPC   NC326747  15.908  10.452   9.633
 1969POPC   PO426748  16.434  10.748   9.253
 1969POPC   GL126749  16.037  10.553   9.144
 1969POPC   GL226750  15.661  10.595   9.199
 1969POPC   C1A26751  15.956  10.532   8.736
 1969POPC   D2A26752  16.136  10.467   8.356
 1969POPC   C3A26753  16.069  10.746   8.014
 1969POPC   C4A26754  15.845  10.676   7.643
 1969POPC   C1B26755  15.495  10.369   8.857
 1969POPC   C2B26756  15.636  10.287   8.430
 1969POPC   C3B26757  15.567  10.501   8.042
 1969POPC   C4B26758  15.425  10.369   7.637
 1970POPC   NC326759   0.042  33.372   9.441
 1970POPC   PO426760   0.545  33.846   9.611
 1970POPC   GL126761   0.457  33.631   9.245
 1970POPC   GL226762   0.153  33.795   9.171
 1970POPC   C1A26763   0.518  33.742   8.807
 1970POPC   D2A26764   0.704  33.979   8.459
 1970POPC   C3A26765   0.802  33.827   8.008
 1970POPC   C4A26766   0.662  33.650   7.585
 1970POPC   C1B26767   0.039  33.955   8.748
 1970POPC   C2B26768   0.221  33.874   8.330
 1970POPC   C3B26769   0.290  33.872   7.881
 1970POPC   C4B26770   0.160  34.169   7.583
 1971POPC   NC326771  22.313  19.468   9.947
 1971POPC   PO426772  22.854  19.927   9.696
 1971POPC   GL126773  22.971  19.917   9.261
 1971POPC   GL226774  23.128  19.603   9.095
 1971POPC   C1A26775  22.853  19.976   8.854
 1971POPC   D2A26776  23.089  19.758   8.555
 1971POPC   C3A26777  22.886  19.811   8.159
 1971POPC   C4A26778  23.026  19.662   7.776
 1971POPC   C1B26779  22.784  19.430   8.796
 1971POPC   C2B26780  22.791  19.152   8.456
 1971POPC   C3B26781  22.592  19.389   8.142
 1971POPC   C4B26782  22.500  19.626   7.753
 1972POPC   NC326783  19.520  25.469   9.401
 1972POPC   PO426784  19.988  25.094   9.588
 1972POPC   GL126785  20.108  25.145   9.187
 1972POPC   GL226786  19.813  25.256   9.054
 1972POPC   C1A26787  20.192  25.075   8.761
 1972POPC   D2A26788  20.092  25.281   8.394
 1972POPC   C3A26789  20.147  25.134   7.984
 1972POPC   C4A26790  19.778  25.243   7.763
 1972POPC   C1B26791  19.524  25.435   8.753
 1972POPC   C2B26792  19.527  25.765   8.476
 1972POPC   C3B26793  19.503  25.688   8.050
 1972POPC   C4B26794  19.428  25.650   7.636
 1973POPC   NC326795  23.014  28.537   9.689
 1973POPC   PO426796  22.481  28.097   9.490
 1973POPC   GL126797  22.760  28.329   9.259
 1973POPC   GL226798  23.129  28.410   9.203
 1973POPC   C1A26799  22.803  28.232   8.844
 1973POPC   D2A26800  22.670  28.240   8.441
 1973POPC   C3A26801  22.884  28.485   8.145
 1973POPC   C4A26802  22.729  28.264   7.831
 1973POPC   C1B26803  23.317  28.322   8.767
 1973POPC   C2B26804  23.319  28.128   8.329
 1973POPC   C3B26805  23.258  28.220   7.899
 1973POPC   C4B26806  23.277  28.653   7.813
 1974POPC   NC326807   7.199   2.983   9.441
 1974POPC   PO426808   7.890   2.810   9.369
 1974POPC   GL126809   7.552   2.653   9.080
 1974POPC   GL226810   7.174   2.790   8.984
 1974POPC   C1A26811   7.422   2.494   8.668
 1974POPC   D2A26812   7.138   2.738   8.422
 1974POPC   C3A26813   7.274   2.711   8.008
 1974POPC   C4A26814   7.231   2.937   7.684
 1974POPC   C1B26815   7.467   3.017   8.722
 1974POPC   C2B26816   7.654   2.865   8.338
 1974POPC   C3B26817   7.662   3.069   7.922
 1974POPC   C4B26818   7.888   3.098   7.520
 1975POPC   NC326819   6.741  17.034   9.476
 1975POPC   PO426820   6.491  16.430   9.595
 1975POPC   GL126821   6.519  16.615   9.170
 1975POPC   GL226822   6.376  16.934   9.139
 1975POPC   C1A26823   6.548  16.696   8.712
 1975POPC   D2A26824   6.489  16.554   8.305
 1975POPC   C3A26825   6.743  16.690   7.978
 1975POPC   C4A26826   6.814  16.761   7.532
 1975POPC   C1B26827   6.167  17.095   8.787
 1975POPC   C2B26828   6.004  16.971   8.408
 1975POPC   C3B26829   6.243  16.908   8.075
 1975POPC   C4B26830   6.528  17.122   7.833
 1976POPC   NC326831  38.577  42.399   9.475
 1976POPC   PO426832  37.971  42.408   9.598
 1976POPC   GL126833  38.187  42.204   9.193
 1976POPC   GL226834  38.543  42.071   9.076
 1976POPC   C1A26835  38.242  42.439   8.823
 1976POPC   D2A26836  37.999  42.565   8.445
 1976POPC   C3A26837  38.222  42.363   8.106
 1976POPC   C4A26838  38.425  42.241   7.742
 1976POPC   C1B26839  38.734  42.101   8.622
 1976POPC   C2B26840  38.719  42.187   8.196
 1976POPC   C3B26841  38.915  42.335   7.826
 1976POPC   C4B26842  38.839  42.477   7.387
 1977POPC   NC326843   5.001  37.396   9.434
 1977POPC   PO426844   5.388  37.855   9.794
 1977POPC   GL126845   5.241  37.886   9.317
 1977POPC   GL226846   4.869  37.849   9.182
 1977POPC   C1A26847   5.254  37.812   8.830
 1977POPC   D2A26848   5.222  37.505   8.480
 1977POPC   C3A26849   5.415  37.635   8.079
 1977POPC   C4A26850   5.453  37.948   7.752
 1977POPC   C1B26851   4.799  37.526   8.812
 1977POPC   C2B26852   4.747  37.307   8.427
 1977POPC   C3B26853   4.770  37.472   8.040
 1977POPC   C4B26854   4.975  37.726   7.769
 1978POPC   NC326855  39.697  44.610   9.586
 1978POPC   PO426856  40.345  44.661   9.525
 1978POPC   GL126857  40.011  44.629   9.171
 1978POPC   GL226858  39.679  44.830   9.126
 1978POPC   C1A26859  40.022  44.387   8.776
 1978POPC   D2A26860  40.295  44.390   8.402
 1978POPC   C3A26861  40.037  44.320   8.019
 1978POPC   C4A26862  40.105  44.510   7.609
 1978POPC   C1B26863  39.791  44.847   8.731
 1978POPC   C2B26864  39.875  44.672   8.346
 1978POPC   C3B26865  40.073  44.847   7.998
 1978POPC   C4B26866  39.851  44.979   7.641
 1979POPC   NC326867   0.083  11.577   9.268
 1979POPC   PO426868   0.525  11.234   9.669
 1979POPC   GL126869   0.584  11.227   9.238
 1979POPC   GL226870   0.587  11.589   9.289
 1979POPC   C1A26871   0.328  11.136   8.871
 1979POPC   D2A26872   0.223  11.343   8.497
 1979POPC   C3A26873   0.530  11.138   8.259
 1979POPC   C4A26874   0.439  10.949   7.904
 1979POPC   C1B26875   0.548  11.615   8.834
 1979POPC   C2B26876   0.735  11.551   8.484
 1979POPC   C3B26877   0.816  11.538   8.055
 1979POPC   C4B26878   0.852  11.592   7.628
 1980POPC   NC326879  42.364  17.038   9.587
 1980POPC   PO426880  42.879  16.930   9.201
 1980POPC   GL126881  42.419  16.853   9.074
 1980POPC   GL226882  42.391  16.499   8.986
 1980POPC   C1A26883  42.187  16.788   8.647
 1980POPC   D2A26884  42.148  17.071   8.329
 1980POPC   C3A26885  42.172  16.924   7.914
 1980POPC   C4A26886  42.201  16.502   7.765
 1980POPC   C1B26887  42.644  16.551   8.641
 1980POPC   C2B26888  42.512  16.621   8.218
 1980POPC   C3B26889  42.696  16.511   7.852
 1980POPC   C4B26890  42.621  16.348   7.436
 1981POPC   NC326891  11.535  15.507   9.396
 1981POPC   PO426892  11.242  16.160   9.640
 1981POPC   GL126893  11.257  16.100   9.232
 1981POPC   GL226894  11.580  16.234   9.101
 1981POPC   C1A26895  10.989  16.000   8.870
 1981POPC   D2A26896  10.939  15.855   8.429
 1981POPC   C3A26897  11.137  16.109   8.100
 1981POPC   C4A26898  11.355  16.181   7.678
 1981POPC   C1B26899  11.513  15.903   8.857
 1981POPC   C2B26900  11.469  15.962   8.462
 1981POPC   C3B26901  11.606  15.933   8.048
 1981POPC   C4B26902  11.532  15.715   7.669
 1982POPC   NC326903  13.475  10.412   9.458
 1982POPC   PO426904  14.140  10.605   9.649
 1982POPC   GL126905  13.915  10.625   9.233
 1982POPC   GL226906  13.841  10.290   9.087
 1982POPC   C1A26907  13.805  10.692   8.789
 1982POPC   D2A26908  13.630  10.544   8.417
 1982POPC   C3A26909  13.792  10.672   8.007
 1982POPC   C4A26910  13.463  10.721   7.666
 1982POPC   C1B26911  13.667  10.102   8.712
 1982POPC   C2B26912  13.519  10.070   8.272
 1982POPC   C3B26913  13.507  10.273   7.871
 1982POPC   C4B26914  13.706  10.353   7.441
 1983POPC   NC326915  33.398  37.009   9.321
 1983POPC   PO426916  34.082  37.065   9.430
 1983POPC   GL126917  33.859  37.004   9.090
 1983POPC   GL226918  33.757  36.660   9.141
 1983POPC   C1A26919  33.592  36.999   8.724
 1983POPC   D2A26920  33.345  36.702   8.541
 1983POPC   C3A26921  33.390  36.700   8.086
 1983POPC   C4A26922  33.657  36.970   7.796
 1983POPC   C1B26923  33.953  36.620   8.734
 1983POPC   C2B26924  33.853  36.811   8.334
 1983POPC   C3B26925  34.065  36.717   7.995
 1983POPC   C4B26926  34.178  36.749   7.619
 1984POPC   NC326927  25.997   8.648   9.777
 1984POPC   PO426928  25.849   8.433   9.153
 1984POPC   GL126929  25.978   8.040   9.049
 1984POPC   GL226930  26.313   8.132   9.119
 1984POPC   C1A26931  26.007   8.011   8.621
 1984POPC   D2A26932  25.907   8.345   8.327
 1984POPC   C3A26933  25.847   8.197   7.919
 1984POPC   C4A26934  25.763   7.786   7.723
 1984POPC   C1B26935  26.397   8.355   8.763
 1984POPC   C2B26936  26.418   8.217   8.358
 1984POPC   C3B26937  26.358   8.019   7.986
 1984POPC   C4B26938  26.325   8.401   7.812
 1985POPC   NC326939   0.395   0.059   9.406
 1985POPC   PO426940   0.554  44.424   9.563
 1985POPC   GL126941   0.444  44.415   9.140
 1985POPC   GL226942   0.255  44.696   9.078
 1985POPC   C1A26943   0.493  44.340   8.700
 1985POPC   D2A26944   0.593  44.631   8.358
 1985POPC   C3A26945   0.317  44.596   8.088
 1985POPC   C4A26946   0.472  44.293   7.809
 1985POPC   C1B26947   0.188  44.751   8.656
 1985POPC   C2B26948  44.935  44.972   8.386
 1985POPC   C3B26949   0.059   0.097   7.990
 1985POPC   C4B26950   0.215  44.842   7.666
 1986POPC   NC326951   7.083  19.584   9.407
 1986POPC   PO426952   7.705  19.964   9.397
 1986POPC   GL126953   7.336  19.970   9.109
 1986POPC   GL226954   7.102  20.291   9.083
 1986POPC   C1A26955   7.382  19.830   8.720
 1986POPC   D2A26956   7.384  19.710   8.328
 1986POPC   C3A26957   7.607  19.426   8.153
 1986POPC   C4A26958   7.504  19.618   7.777
 1986POPC   C1B26959   7.028  20.191   8.695
 1986POPC   C2B26960   6.910  19.867   8.394
 1986POPC   C3B26961   7.030  19.780   7.929
 1986POPC   C4B26962   7.007  19.937   7.479
 1987POPC   NC326963  23.263  21.052   9.163
 1987POPC   PO426964  23.884  21.340   9.399
 1987POPC   GL126965  23.767  21.435   9.041
 1987POPC   GL226966  23.470  21.575   9.128
 1987POPC   C1A26967  23.840  21.386   8.646
 1987POPC   D2A26968  23.656  21.555   8.298
 1987POPC   C3A26969  23.917  21.411   8.025
 1987POPC   C4A26970  23.809  21.487   7.632
 1987POPC   C1B26971  23.331  21.482   8.698
 1987POPC   C2B26972  23.276  21.192   8.337
 1987POPC   C3B26973  23.408  21.218   7.874
 1987POPC   C4B26974  23.462  21.187   7.398
 1988POPC   NC326975  43.259  44.578   9.713
 1988POPC   PO426976  43.348   0.168   9.422
 1988POPC   GL126977  43.241  44.751   9.222
 1988POPC   GL226978  42.901  44.657   9.293
 1988POPC   C1A26979  43.224  44.517   8.846
 1988POPC   D2A26980  43.458  44.483   8.465
 1988POPC   C3A26981  43.255  44.695   8.142
 1988POPC   C4A26982  43.176  44.630   7.739
 1988POPC   C1B26983  42.740  44.719   8.866
 1988POPC   C2B26984  42.865  44.644   8.462
 1988POPC   C3B26985  42.750  44.604   8.060
 1988POPC   C4B26986  42.673  44.714   7.680
 1989POPC   NC326987  28.370  21.549   9.710
 1989POPC   PO426988  28.578  21.024   9.259
 1989POPC   GL126989  28.213  21.294   9.195
 1989POPC   GL226990  28.236  21.647   9.147
 1989POPC   C1A26991  28.088  21.294   8.760
 1989POPC   D2A26992  28.231  21.203   8.337
 1989POPC   C3A26993  27.997  21.382   7.992
 1989POPC   C4A26994  28.128  21.638   7.625
 1989POPC   C1B26995  28.408  21.682   8.751
 1989POPC   C2B26996  28.334  21.735   8.324
 1989POPC   C3B26997  28.472  21.554   7.982
 1989POPC   C4B26998  28.792  21.646   7.717
 1990POPC   NC326999   7.427  38.913   9.338
 1990POPC   PO427000   7.076  38.229   9.474
 1990POPC   GL127001   7.385  38.406   9.180
 1990POPC   GL227002   7.174  38.606   9.026
 1990POPC   C1A27003   7.605  38.476   8.774
 1990POPC   D2A27004   7.541  38.642   8.333
 1990POPC   C3A27005   7.511  38.351   7.974
 1990POPC   C4A27006   7.572  38.295   7.525
 1990POPC   C1B27007   7.086  38.714   8.618
 1990POPC   C2B27008   6.973  38.429   8.297
 1990POPC   C3B27009   7.018  38.426   7.845
 1990POPC   C4B27010   7.081  38.203   7.465
 1991POPC   NC327011  31.643   5.593   9.613
 1991POPC   PO427012  31.267   6.137   9.531
 1991POPC   GL127013  31.442   5.907   9.204
 1991POPC   GL227014  31.331   5.525   9.224
 1991POPC   C1A27015  31.668   6.091   8.817
 1991POPC   D2A27016  31.608   5.992   8.410
 1991POPC   C3A27017  31.691   6.246   8.048
 1991POPC   C4A27018  31.522   6.129   7.635
 1991POPC   C1B27019  31.411   5.614   8.791
 1991POPC   C2B27020  31.514   5.441   8.414
 1991POPC   C3B27021  31.463   5.653   8.057
 1991POPC   C4B27022  31.421   5.617   7.656
 1992POPC   NC327023  37.024   3.367   9.375
 1992POPC   PO427024  36.529   3.910   9.396
 1992POPC   GL127025  36.710   3.726   9.038
 1992POPC   GL227026  37.042   3.764   9.038
 1992POPC   C1A27027  36.819   3.583   8.605
 1992POPC   D2A27028  36.770   3.366   8.207
 1992POPC   C3A27029  36.719   3.606   7.838
 1992POPC   C4A27030  36.676   3.369   7.467
 1992POPC   C1B27031  37.302   3.719   8.720
 1992POPC   C2B27032  37.292   3.491   8.341
 1992POPC   C3B27033  37.208   3.558   7.919
 1992POPC   C4B27034  37.200   3.654   7.474
 1993POPC   NC327035  40.256  28.793   9.313
 1993POPC   PO427036  39.642  29.059   9.508
 1993POPC   GL127037  39.875  29.102   9.145
 1993POPC   GL227038  40.192  29.307   9.202
 1993POPC   C1A27039  39.939  29.041   8.716
 1993POPC   D2A27040  39.844  29.373   8.412
 1993POPC   C3A27041  39.854  29.218   7.992
 1993POPC   C4A27042  39.628  29.154   7.605
 1993POPC   C1B27043  40.260  29.428   8.774
 1993POPC   C2B27044  40.320  29.164   8.397
 1993POPC   C3B27045  40.367  29.180   7.974
 1993POPC   C4B27046  40.518  29.206   7.556
 1994POPC   NC327047  32.251  15.373   9.532
 1994POPC   PO427048  32.688  14.794   9.477
 1994POPC   GL127049  32.348  15.040   9.152
 1994POPC   GL227050  32.427  15.448   9.080
 1994POPC   C1A27051  32.327  15.159   8.682
 1994POPC   D2A27052  32.607  15.053   8.352
 1994POPC   C3A27053  32.559  15.257   7.967
 1994POPC   C4A27054  32.265  15.196   7.681
 1994POPC   C1B27055  32.153  15.655   8.778
 1994POPC   C2B27056  32.085  15.519   8.355
 1994POPC   C3B27057  32.143  15.613   7.924
 1994POPC   C4B27058  32.504  15.651   7.626
 1995POPC   NC327059  41.697  18.330   9.558
 1995POPC   PO427060  41.437  17.696   9.422
 1995POPC   GL127061  41.558  18.045   9.130
 1995POPC   GL227062  41.723  18.378   9.058
 1995POPC   C1A27063  41.580  18.089   8.682
 1995POPC   D2A27064  41.788  18.168   8.342
 1995POPC   C3A27065  41.552  18.132   8.034
 1995POPC   C4A27066  41.683  18.081   7.662
 1995POPC   C1B27067  41.740  18.591   8.671
 1995POPC   C2B27068  41.556  18.599   8.259
 1995POPC   C3B27069  41.689  18.600   7.833
 1995POPC   C4B27070  41.866  18.496   7.446
 1996POPC   NC327071  35.190  21.544   9.652
 1996POPC   PO427072  35.831  21.229   9.665
 1996POPC   GL127073  35.583  21.286   9.283
 1996POPC   GL227074  35.274  21.066   9.235
 1996POPC   C1A27075  35.446  21.427   8.880
 1996POPC   D2A27076  35.470  21.218   8.491
 1996POPC   C3A27077  35.432  21.458   8.109
 1996POPC   C4A27078  35.487  21.391   7.683
 1996POPC   C1B27079  35.054  21.083   8.799
 1996POPC   C2B27080  34.981  21.285   8.363
 1996POPC   C3B27081  35.019  21.225   7.875
 1996POPC   C4B27082  35.047  21.533   7.502
 1997POPC   NC327083   1.641  11.143   9.372
 1997POPC   PO427084   2.289  11.164   9.458
 1997POPC   GL127085   2.067  11.465   9.161
 1997POPC   GL227086   1.696  11.502   9.006
 1997POPC   C1A27087   2.111  11.344   8.741
 1997POPC   D2A27088   1.874  11.390   8.382
 1997POPC   C3A27089   2.096  11.311   7.997
 1997POPC   C4A27090   2.051  11.548   7.631
 1997POPC   C1B27091   1.513  11.136   8.758
 1997POPC   C2B27092   1.530  10.989   8.384
 1997POPC   C3B27093   1.562  11.195   8.017
 1997POPC   C4B27094   1.739  11.097   7.644
 1998POPC   NC327095   9.789  19.483   9.518
 1998POPC   PO427096   9.917  18.828   9.470
 1998POPC   GL127097   9.760  19.089   9.143
 1998POPC   GL227098  10.079  19.241   9.176
 1998POPC   C1A27099   9.610  18.979   8.714
 1998POPC   D2A27100   9.328  18.988   8.332
 1998POPC   C3A27101   9.533  18.929   7.959
 1998POPC   C4A27102   9.732  19.079   7.621
 1998POPC   C1B27103  10.050  19.383   8.783
 1998POPC   C2B27104   9.958  19.211   8.368
 1998POPC   C3B27105  10.142  19.124   7.957
 1998POPC   C4B27106  10.300  19.263   7.568
 1999POPC   NC327107  42.129   4.038   9.624
 1999POPC   PO427108  42.507   4.582   9.489
 1999POPC   GL127109  42.435   4.534   9.069
 1999POPC   GL227110  42.384   4.231   9.134
 1999POPC   C1A27111  42.297   4.334   8.644
 1999POPC   D2A27112  42.212   4.112   8.253
 1999POPC   C3A27113  42.252   4.360   7.878
 1999POPC   C4A27114  42.239   4.275   7.412
 1999POPC   C1B27115  42.695   4.096   8.863
 1999POPC   C2B27116  42.800   4.149   8.411
 1999POPC   C3B27117  42.682   4.134   7.986
 1999POPC   C4B27118  42.658   4.041   7.536
 2000POPC   NC327119   8.571   2.294   9.398
 2000POPC   PO427120   8.938   1.877   9.731
 2000POPC   GL127121   8.977   1.809   9.212
 2000POPC   GL227122   8.701   1.948   9.061
 2000POPC   C1A27123   9.078   1.730   8.748
 2000POPC   D2A27124   9.334   1.870   8.351
 2000POPC   C3A27125   9.153   1.677   7.971
 2000POPC   C4A27126   8.719   1.594   7.845
 2000POPC   C1B27127   8.802   2.167   8.681
 2000POPC   C2B27128   8.813   1.946   8.285
 2000POPC   C3B27129   8.846   2.089   7.878
 2000POPC   C4B27130   8.583   2.422   7.789
 2001POPC   NC327131  15.850   8.258   9.583
 2001POPC   PO427132  16.425   7.991   9.470
 2001POPC   GL127133  16.081   8.040   9.127
 2001POPC   GL227134  15.709   8.203   9.102
 2001POPC   C1A27135  16.154   8.086   8.660
 2001POPC   D2A27136  16.295   8.258   8.259
 2001POPC   C3A27137  16.090   8.050   7.898
 2001POPC   C4A27138  15.641   7.921   7.826
 2001POPC   C1B27139  15.724   8.344   8.688
 2001POPC   C2B27140  15.779   8.260   8.253
 2001POPC   C3B27141  15.747   8.444   7.833
 2001POPC   C4B27142  15.612   8.252   7.436
 2002POPC   NC327143  28.911  23.378   9.595
 2002POPC   PO427144  28.336  23.749   9.448
 2002POPC   GL127145  28.533  23.794   9.023
 2002POPC   GL227146  28.901  23.856   9.044
 2002POPC   C1A27147  28.318  23.811   8.599
 2002POPC   D2A27148  28.173  23.525   8.282
 2002POPC   C3A27149  28.302  23.528   7.843
 2002POPC   C4A27150  28.018  23.600   7.470
 2002POPC   C1B27151  28.833  23.896   8.617
 2002POPC   C2B27152  28.683  23.729   8.240
 2002POPC   C3B27153  28.800  24.021   7.946
 2002POPC   C4B27154  28.954  24.151   7.537
 2003POPC   NC327155  43.451  18.341   9.353
 2003POPC   PO427156  42.690  18.160   9.314
 2003POPC   GL127157  43.017  18.242   9.093
 2003POPC   GL227158  42.953  18.578   8.997
 2003POPC   C1A27159  43.087  18.095   8.686
 2003POPC   D2A27160  42.770  17.997   8.397
 2003POPC   C3A27161  42.947  18.031   8.018
 2003POPC   C4A27162  42.828  18.056   7.595
 2003POPC   C1B27163  43.350  18.515   8.742
 2003POPC   C2B27164  43.438  18.346   8.362
 2003POPC   C3B27165  43.504  18.498   7.980
 2003POPC   C4B27166  43.159  18.421   7.719
 2004POPC   NC327167   7.117   3.752   9.542
 2004POPC   PO427168   6.565   3.373   9.519
 2004POPC   GL127169   6.637   3.588   9.171
 2004POPC   GL227170   6.952   3.493   9.146
 2004POPC   C1A27171   6.583   3.679   8.735
 2004POPC   D2A27172   6.731   3.807   8.331
 2004POPC   C3A27173   6.502   3.639   7.944
 2004POPC   C4A27174   6.184   3.430   7.669
 2004POPC   C1B27175   6.971   3.261   8.795
 2004POPC   C2B27176   6.725   3.236   8.437
 2004POPC   C3B27177   6.898   3.116   8.046
 2004POPC   C4B27178   6.894   3.305   7.654
 2005POPC   NC327179  11.143  13.066   9.308
 2005POPC   PO427180  11.393  12.436   9.447
 2005POPC   GL127181  11.197  12.612   9.056
 2005POPC   GL227182  10.893  12.857   8.951
 2005POPC   C1A27183  11.238  12.566   8.624
 2005POPC   D2A27184  11.289  12.814   8.242
 2005POPC   C3A27185  11.202  12.658   7.833
 2005POPC   C4A27186  11.501  12.496   7.548
 2005POPC   C1B27187  11.124  13.086   8.647
 2005POPC   C2B27188  10.902  13.142   8.275
 2005POPC   C3B27189  10.937  13.263   7.892
 2005POPC   C4B27190  11.047  13.059   7.541
 2006POPC   NC327191   1.428   6.471   9.595
 2006POPC   PO427192   1.426   7.140   9.474
 2006POPC   GL127193   1.370   6.795   9.179
 2006POPC   GL227194   1.086   6.536   9.207
 2006POPC   C1A27195   1.405   6.629   8.780
 2006POPC   D2A27196   1.311   6.825   8.387
 2006POPC   C3A27197   1.439   6.610   8.037
 2006POPC   C4A27198   1.313   6.830   7.687
 2006POPC   C1B27199   1.019   6.292   8.831
 2006POPC   C2B27200   1.237   6.262   8.445
 2006POPC   C3B27201   1.027   6.282   8.070
 2006POPC   C4B27202   1.100   6.383   7.657
 2007POPC   NC327203  14.838  39.177   9.499
 2007POPC   PO427204  14.126  39.445   9.525
 2007POPC   GL127205  14.240  39.336   9.073
 2007POPC   GL227206  14.633  39.314   9.039
 2007POPC   C1A27207  14.316  39.393   8.614
 2007POPC   D2A27208  14.294  39.490   8.148
 2007POPC   C3A27209  14.132  39.319   7.731
 2007POPC   C4A27210  14.198  39.559   7.307
 2007POPC   C1B27211  14.719  39.056   8.715
 2007POPC   C2B27212  14.522  39.023   8.302
 2007POPC   C3B27213  14.682  39.135   7.943
 2007POPC   C4B27214  14.571  39.103   7.512
 2008POPC   NC327215  17.380  21.975   9.672
 2008POPC   PO427216  17.628  22.526   9.503
 2008POPC   GL127217  17.405  22.353   9.151
 2008POPC   GL227218  17.364  21.995   9.164
 2008POPC   C1A27219  17.488  22.350   8.739
 2008POPC   D2A27220  17.624  22.085   8.451
 2008POPC   C3A27221  17.466  22.220   8.097
 2008POPC   C4A27222  17.515  22.237   7.690
 2008POPC   C1B27223  17.241  21.899   8.747
 2008POPC   C2B27224  17.272  21.752   8.289
 2008POPC   C3B27225  17.407  21.775   7.836
 2008POPC   C4B27226  17.321  21.848   7.366
 2009POPC   NC327227  12.930  44.565   9.501
 2009POPC   PO427228  12.443  44.167   9.388
 2009POPC   GL127229  12.755  44.349   9.069
 2009POPC   GL227230  12.875  44.754   9.041
 2009POPC   C1A27231  12.634  44.521   8.685
 2009POPC   D2A27232  12.887  44.715   8.417
 2009POPC   C3A27233  12.826  44.434   8.132
 2009POPC   C4A27234  12.902  44.517   7.733
 2009POPC   C1B27235  12.716   0.087   8.752
 2009POPC   C2B27236  12.505   0.053   8.336
 2009POPC   C3B27237  12.540  44.803   7.943
 2009POPC   C4B27238  12.692  44.932   7.497
 2010POPC   NC327239  16.413  25.680   9.519
 2010POPC   PO427240  16.883  26.165   9.534
 2010POPC   GL127241  16.798  25.936   9.183
 2010POPC   GL227242  16.476  26.041   9.145
 2010POPC   C1A27243  16.788  26.135   8.768
 2010POPC   D2A27244  16.917  26.330   8.413
 2010POPC   C3A27245  16.946  26.089   8.061
 2010POPC   C4A27246  16.679  26.142   7.760
 2010POPC   C1B27247  16.363  25.896   8.688
 2010POPC   C2B27248  16.417  26.063   8.246
 2010POPC   C3B27249  16.240  25.940   7.820
 2010POPC   C4B27250  16.475  25.757   7.447
 2011POPC   NC327251  39.874  16.465   9.555
 2011POPC   PO427252  40.438  16.779   9.502
 2011POPC   GL127253  40.213  16.584   9.190
 2011POPC   GL227254  40.357  16.294   9.127
 2011POPC   C1A27255  40.018  16.680   8.809
 2011POPC   D2A27256  39.756  16.751   8.468
 2011POPC   C3A27257  39.972  16.790   8.063
 2011POPC   C4A27258  39.865  16.933   7.652
 2011POPC   C1B27259  40.181  16.189   8.773
 2011POPC   C2B27260  40.056  16.329   8.391
 2011POPC   C3B27261  40.238  16.344   7.987
 2011POPC   C4B27262  40.015  16.450   7.588
 2012POPC   NC327263  29.776  13.759   9.218
 2012POPC   PO427264  30.309  14.013   9.355
 2012POPC   GL127265  30.272  13.636   9.038
 2012POPC   GL227266  30.061  13.305   9.082
 2012POPC   C1A27267  30.076  13.589   8.620
 2012POPC   D2A27268  29.965  13.889   8.285
 2012POPC   C3A27269  29.813  13.861   7.871
 2012POPC   C4A27270  30.030  13.696   7.508
 2012POPC   C1B27271  30.114  13.086   8.671
 2012POPC   C2B27272  30.134  13.204   8.242
 2012POPC   C3B27273  29.903  13.366   7.896
 2012POPC   C4B27274  29.824  13.246   7.470
 2013POPC   NC327275  40.283  32.691   9.542
 2013POPC   PO427276  40.216  31.988   9.669
 2013POPC   GL127277  40.062  32.148   9.225
 2013POPC   GL227278  39.861  32.470   9.272
 2013POPC   C1A27279  40.070  32.045   8.715
 2013POPC   D2A27280  40.223  31.987   8.260
 2013POPC   C3A27281  40.024  32.189   7.921
 2013POPC   C4A27282  40.062  32.078   7.469
 2013POPC   C1B27283  39.885  32.500   8.819
 2013POPC   C2B27284  39.768  32.339   8.409
 2013POPC   C3B27285  39.572  32.442   8.037
 2013POPC   C4B27286  39.599  32.215   7.634
 2014POPC   NC327287   8.914  10.202   9.796
 2014POPC   PO427288   9.263  10.692   9.415
 2014POPC   GL127289   9.149  10.623   8.997
 2014POPC   GL227290   8.788  10.602   9.041
 2014POPC   C1A27291   9.050  10.523   8.624
 2014POPC   D2A27292   8.896  10.645   8.280
 2014POPC   C3A27293   9.126  10.423   8.037
 2014POPC   C4A27294   9.131  10.251   7.687
 2014POPC   C1B27295   8.661  10.863   8.727
 2014POPC   C2B27296   8.479  10.926   8.344
 2014POPC   C3B27297   8.693  11.029   8.008
 2014POPC   C4B27298   8.777  10.665   7.720
 2015POPC   NC327299  37.931  29.146   9.582
 2015POPC   PO427300  38.658  29.226   9.460
 2015POPC   GL127301  38.275  29.253   9.209
 2015POPC   GL227302  38.158  28.947   9.063
 2015POPC   C1A27303  38.276  29.381   8.787
 2015POPC   D2A27304  38.605  29.314   8.462
 2015POPC   C3A27305  38.379  29.249   8.079
 2015POPC   C4A27306  38.558  29.189   7.697
 2015POPC   C1B27307  38.480  28.908   8.798
 2015POPC   C2B27308  38.387  28.842   8.380
 2015POPC   C3B27309  38.580  28.733   7.993
 2015POPC   C4B27310  38.756  28.747   7.580
 2016POPC   NC327311  24.198   9.160   9.365
 2016POPC   PO427312  24.815   8.997   9.415
 2016POPC   GL127313  24.533   8.795   9.110
 2016POPC   GL227314  24.309   9.045   8.899
 2016POPC   C1A27315  24.470   8.626   8.689
 2016POPC   D2A27316  24.269   8.923   8.384
 2016POPC   C3A27317  24.378   8.834   7.977
 2016POPC   C4A27318  24.329   8.964   7.571
 2016POPC   C1B27319  24.691   9.110   8.688
 2016POPC   C2B27320  24.809   9.104   8.234
 2016POPC   C3B27321  24.665   9.257   7.831
 2016POPC   C4B27322  24.560   9.475   7.448
 2017POPC   NC327323  24.835  19.244   9.478
 2017POPC   PO427324  24.227  18.834   9.392
 2017POPC   GL127325  24.286  19.056   9.021
 2017POPC   GL227326  24.594  19.232   9.034
 2017POPC   C1A27327  24.424  19.038   8.576
 2017POPC   D2A27328  24.440  19.112   8.125
 2017POPC   C3A27329  24.598  18.826   7.830
 2017POPC   C4A27330  24.383  18.468   7.623
 2017POPC   C1B27331  24.673  19.503   8.685
 2017POPC   C2B27332  24.819  19.462   8.260
 2017POPC   C3B27333  24.880  19.301   7.860
 2017POPC   C4B27334  24.621  19.213   7.495
 2018POPC   NC327335  25.172  36.263   9.500
 2018POPC   PO427336  25.727  36.261   9.298
 2018POPC   GL127337  25.423  36.145   9.030
 2018POPC   GL227338  25.063  36.080   9.017
 2018POPC   C1A27339  25.403  36.153   8.614
 2018POPC   D2A27340  25.270  35.938   8.265
 2018POPC   C3A27341  25.517  35.985   7.923
 2018POPC   C4A27342  25.454  36.151   7.497
 2018POPC   C1B27343  25.119  35.714   8.739
 2018POPC   C2B27344  24.882  35.592   8.385
 2018POPC   C3B27345  24.815  35.818   8.043
 2018POPC   C4B27346  25.057  35.932   7.756
 2019POPC   NC327347   0.039  13.127   9.907
 2019POPC   PO427348  44.536  12.833   9.474
 2019POPC   GL127349  44.579  13.114   9.111
 2019POPC   GL227350  44.918  13.260   8.935
 2019POPC   C1A27351  44.539  13.004   8.703
 2019POPC   D2A27352  44.856  13.056   8.414
 2019POPC   C3A27353  44.643  13.016   8.035
 2019POPC   C4A27354  44.840  12.937   7.653
 2019POPC   C1B27355   0.113  12.900   8.836
 2019POPC   C2B27356  44.880  12.588   8.637
 2019POPC   C3B27357  44.852  12.575   8.193
 2019POPC   C4B27358  44.885  12.448   7.784
 2020POPC   NC327359  35.751  32.345   9.494
 2020POPC   PO427360  35.118  32.080   9.482
 2020POPC   GL127361  35.420  32.080   9.183
 2020POPC   GL227362  35.442  32.428   9.077
 2020POPC   C1A27363  35.327  32.045   8.761
 2020POPC   D2A27364  35.462  32.100   8.367
 2020POPC   C3A27365  35.126  32.158   8.134
 2020POPC   C4A27366  35.194  32.027   7.740
 2020POPC   C1B27367  35.697  32.476   8.707
 2020POPC   C2B27368  35.845  32.418   8.275
 2020POPC   C3B27369  35.521  32.427   7.953
 2020POPC   C4B27370  35.540  32.711   7.610
 2021POPC   NC327371  12.003  41.252   9.482
 2021POPC   PO427372  12.356  40.636   9.427
 2021POPC   GL127373  12.161  40.710   9.090
 2021POPC   GL227374  11.883  40.933   9.083
 2021POPC   C1A27375  12.204  40.812   8.676
 2021POPC   D2A27376  12.096  41.020   8.323
 2021POPC   C3A27377  12.189  40.802   7.933
 2021POPC   C4A27378  12.227  40.779   7.516
 2021POPC   C1B27379  11.742  40.551   8.858
 2021POPC   C2B27380  11.693  40.387   8.455
 2021POPC   C3B27381  11.751  40.664   8.125
 2021POPC   C4B27382  11.730  40.688   7.690
 2022POPC   NC327383  18.065  13.179   9.129
 2022POPC   PO427384  18.606  12.911   9.528
 2022POPC   GL127385  18.391  12.690   9.148
 2022POPC   GL227386  18.499  12.935   9.034
 2022POPC   C1A27387  18.239  12.607   8.736
 2022POPC   D2A27388  18.040  12.520   8.356
 2022POPC   C3A27389  18.241  12.755   8.034
 2022POPC   C4A27390  18.082  13.085   7.791
 2022POPC   C1B27391  18.759  12.778   8.737
 2022POPC   C2B27392  18.708  12.544   8.366
 2022POPC   C3B27393  18.786  12.783   8.002
 2022POPC   C4B27394  18.585  12.850   7.650
 2023POPC   NC327395  41.135  10.633   9.357
 2023POPC   PO427396  40.586  10.261   9.492
 2023POPC   GL127397  40.475  10.418   9.085
 2023POPC   GL227398  40.750  10.677   9.010
 2023POPC   C1A27399  40.539  10.413   8.639
 2023POPC   D2A27400  40.627  10.601   8.274
 2023POPC   C3A27401  40.952  10.327   8.200
 2023POPC   C4A27402  41.065  10.142   7.826
 2023POPC   C1B27403  40.977  10.840   8.617
 2023POPC   C2B27404  41.141  10.809   8.192
 2023POPC   C3B27405  40.992  10.667   7.810
 2023POPC   C4B27406  41.129  10.681   7.364
 2024POPC   NC327407   8.578  32.997   9.318
 2024POPC   PO427408   9.255  32.881   9.398
 2024POPC   GL127409   9.192  33.080   9.065
 2024POPC   GL227410   8.979  33.304   9.168
 2024POPC   C1A27411   9.045  32.988   8.676
 2024POPC   D2A27412   8.898  32.758   8.328
 2024POPC   C3A27413   9.071  32.958   8.001
 2024POPC   C4A27414   9.060  33.245   7.715
 2024POPC   C1B27415   8.748  33.399   8.809
 2024POPC   C2B27416   8.810  33.352   8.385
 2024POPC   C3B27417   8.659  33.268   8.026
 2024POPC   C4B27418   8.592  33.409   7.623
 2025POPC   NC327419  37.594  27.462   9.608
 2025POPC   PO427420  37.342  28.098   9.507
 2025POPC   GL127421  37.494  27.791   9.180
 2025POPC   GL227422  37.638  27.411   9.110
 2025POPC   C1A27423  37.328  27.663   8.791
 2025POPC   D2A27424  37.481  27.328   8.531
 2025POPC   C3A27425  37.470  27.409   8.098
 2025POPC   C4A27426  37.376  27.817   7.872
 2025POPC   C1B27427  37.833  27.664   8.789
 2025POPC   C2B27428  37.917  27.551   8.358
 2025POPC   C3B27429  37.889  27.618   7.932
 2025POPC   C4B27430  38.181  27.518   7.652
 2026POPC   NC327431  36.578  35.232   9.429
 2026POPC   PO427432  37.166  35.572   9.457
 2026POPC   GL127433  36.934  35.431   9.102
 2026POPC   GL227434  36.898  35.038   9.076
 2026POPC   C1A27435  36.909  35.369   8.642
 2026POPC   D2A27436  36.742  35.516   8.241
 2026POPC   C3A27437  36.814  35.277   7.860
 2026POPC   C4A27438  36.821  35.606   7.573
 2026POPC   C1B27439  37.317  35.160   8.934
 2026POPC   C2B27440  37.417  35.217   8.522
 2026POPC   C3B27441  37.230  35.271   8.150
 2026POPC   C4B27442  37.312  35.272   7.690
 2027POPC   NC327443  15.119  32.428   9.792
 2027POPC   PO427444  14.647  31.891   9.613
 2027POPC   GL127445  14.863  32.005   9.236
 2027POPC   GL227446  15.042  32.278   9.317
 2027POPC   C1A27447  15.138  32.085   8.857
 2027POPC   D2A27448  15.390  32.391   8.624
 2027POPC   C3A27449  15.392  32.415   8.144
 2027POPC   C4A27450  15.446  32.070   7.871
 2027POPC   C1B27451  14.867  32.494   8.985
 2027POPC   C2B27452  14.878  32.480   8.558
 2027POPC   C3B27453  14.766  32.508   8.149
 2027POPC   C4B27454  14.950  32.198   7.870
 2028POPC   NC327455  40.528  36.554   9.837
 2028POPC   PO427456  40.342  36.044   9.365
 2028POPC   GL127457  40.623  36.207   9.036
 2028POPC   GL227458  40.906  36.337   9.249
 2028POPC   C1A27459  40.569  36.259   8.593
 2028POPC   D2A27460  40.630  35.939   8.271
 2028POPC   C3A27461  40.749  36.030   7.856
 2028POPC   C4A27462  41.078  35.867   7.672
 2028POPC   C1B27463  41.014  36.452   8.781
 2028POPC   C2B27464  40.941  36.501   8.309
 2028POPC   C3B27465  41.109  36.406   7.885
 2028POPC   C4B27466  40.903  36.400   7.508
 2029POPC   NC327467  28.238   0.326   9.717
 2029POPC   PO427468  28.413   0.948   9.534
 2029POPC   GL127469  28.384   0.598   9.235
 2029POPC   GL227470  28.038   0.464   9.149
 2029POPC   C1A27471  28.386   0.711   8.795
 2029POPC   D2A27472  28.456   0.567   8.390
 2029POPC   C3A27473  28.238   0.688   8.033
 2029POPC   C4A27474  28.418   0.470   7.707
 2029POPC   C1B27475  28.173   0.268   8.749
 2029POPC   C2B27476  28.239   0.120   8.376
 2029POPC   C3B27477  28.084   0.187   8.008
 2029POPC   C4B27478  28.276  44.977   7.726
 2030POPC   NC327479  33.968  33.426   9.636
 2030POPC   PO427480  33.806  32.792   9.471
 2030POPC   GL127481  33.914  33.119   9.201
 2030POPC   GL227482  33.567  33.086   9.074
 2030POPC   C1A27483  33.974  33.161   8.766
 2030POPC   D2A27484  33.624  33.076   8.518
 2030POPC   C3A27485  33.779  33.090   8.088
 2030POPC   C4A27486  33.781  32.979   7.640
 2030POPC   C1B27487  33.329  32.766   8.884
 2030POPC   C2B27488  33.400  32.578   8.494
 2030POPC   C3B27489  33.367  32.823   8.162
 2030POPC   C4B27490  33.308  32.814   7.759
 2031POPC   NC327491  24.798  11.801   9.405
 2031POPC   PO427492  25.353  12.214   9.465
 2031POPC   GL127493  25.247  12.113   9.111
 2031POPC   GL227494  25.262  11.746   9.159
 2031POPC   C1A27495  25.333  12.281   8.726
 2031POPC   D2A27496  25.157  12.257   8.329
 2031POPC   C3A27497  25.395  12.240   7.966
 2031POPC   C4A27498  25.074  12.348   7.687
 2031POPC   C1B27499  25.110  11.820   8.723
 2031POPC   C2B27500  25.096  11.663   8.313
 2031POPC   C3B27501  24.997  11.903   7.972
 2031POPC   C4B27502  24.998  11.852   7.547
 2032POPC   NC327503  29.600  15.103   9.560
 2032POPC   PO427504  30.290  15.376   9.455
 2032POPC   GL127505  30.246  15.254   9.072
 2032POPC   GL227506  29.881  15.214   9.093
 2032POPC   C1A27507  30.264  15.374   8.668
 2032POPC   D2A27508  30.033  15.244   8.351
 2032POPC   C3A27509  29.974  15.515   8.057
 2032POPC   C4A27510  29.758  15.325   7.756
 2032POPC   C1B27511  29.693  15.402   8.687
 2032POPC   C2B27512  29.527  15.281   8.238
 2032POPC   C3B27513  29.376  15.029   7.849
 2032POPC   C4B27514  29.396  15.245   7.406
 2033POPC   NC327515  43.749   4.513   9.469
 2033POPC   PO427516  43.746   3.806   9.424
 2033POPC   GL127517  43.795   4.165   9.099
 2033POPC   GL227518  44.027   4.481   9.013
 2033POPC   C1A27519  43.653   4.370   8.721
 2033POPC   D2A27520  43.747   4.657   8.415
 2033POPC   C3A27521  43.618   4.468   8.054
 2033POPC   C4A27522  43.638   4.527   7.628
 2033POPC   C1B27523  44.154   4.184   8.698
 2033POPC   C2B27524  44.194   4.178   8.247
 2033POPC   C3B27525  44.109   4.475   7.927
 2033POPC   C4B27526  44.090   4.404   7.462
 2034POPC   NC327527  20.098  40.916   9.400
 2034POPC   PO427528  19.741  40.386   9.620
 2034POPC   GL127529  19.727  40.625   9.200
 2034POPC   GL227530  19.608  40.933   9.132
 2034POPC   C1A27531  19.657  40.543   8.778
 2034POPC   D2A27532  19.909  40.665   8.410
 2034POPC   C3A27533  19.817  40.609   8.005
 2034POPC   C4A27534  19.959  40.621   7.608
 2034POPC   C1B27535  19.884  41.005   8.781
 2034POPC   C2B27536  20.009  41.160   8.338
 2034POPC   C3B27537  19.963  41.085   7.856
 2034POPC   C4B27538  19.618  41.072   7.544
 2035POPC   NC327539   3.159   6.526   9.527
 2035POPC   PO427540   3.640   7.000   9.501
 2035POPC   GL127541   3.490   6.729   9.160
 2035POPC   GL227542   3.269   6.453   9.044
 2035POPC   C1A27543   3.669   6.724   8.758
 2035POPC   D2A27544   3.829   6.419   8.474
 2035POPC   C3A27545   3.581   6.484   8.127
 2035POPC   C4A27546   3.591   6.530   7.700
 2035POPC   C1B27547   3.085   6.773   8.789
 2035POPC   C2B27548   3.107   6.825   8.336
 2035POPC   C3B27549   3.147   6.693   7.912
 2035POPC   C4B27550   3.230   6.778   7.454
 2036POPC   NC327551  41.429  24.030   9.671
 2036POPC   PO427552  41.923  24.306   9.414
 2036POPC   GL127553  41.579  24.481   9.199
 2036POPC   GL227554  41.340  24.229   9.134
 2036POPC   C1A27555  41.529  24.656   8.788
 2036POPC   D2A27556  41.774  24.732   8.419
 2036POPC   C3A27557  41.633  24.732   7.996
 2036POPC   C4A27558  41.866  24.432   7.764
 2036POPC   C1B27559  41.275  24.231   8.674
 2036POPC   C2B27560  41.418  24.351   8.266
 2036POPC   C3B27561  41.380  24.313   7.774
 2036POPC   C4B27562  41.375  24.044   7.338
 2037POPC   NC327563  30.512   8.865   9.450
 2037POPC   PO427564  30.806   9.463   9.604
 2037POPC   GL127565  30.815   9.233   9.217
 2037POPC   GL227566  30.489   9.288   9.163
 2037POPC   C1A27567  30.736   8.944   8.858
 2037POPC   D2A27568  30.613   8.867   8.447
 2037POPC   C3A27569  30.927   8.865   8.111
 2037POPC   C4A27570  30.798   8.912   7.688
 2037POPC   C1B27571  30.327   9.245   8.767
 2037POPC   C2B27572  30.448   9.351   8.367
 2037POPC   C3B27573  30.453   9.127   8.006
 2037POPC   C4B27574  30.348   9.083   7.589
 2038POPC   NC327575  26.348   3.793   9.434
 2038POPC   PO427576  25.859   3.292   9.300
 2038POPC   GL127577  26.083   3.531   9.080
 2038POPC   GL227578  25.894   3.823   9.156
 2038POPC   C1A27579  26.140   3.623   8.666
 2038POPC   D2A27580  26.249   3.394   8.314
 2038POPC   C3A27581  25.892   3.232   8.101
 2038POPC   C4A27582  25.735   3.212   7.673
 2038POPC   C1B27583  25.621   3.753   8.785
 2038POPC   C2B27584  25.780   3.798   8.358
 2038POPC   C3B27585  26.050   3.756   8.023
 2038POPC   C4B27586  25.827   3.722   7.683
 2039POPC   NC327587  29.059  44.787   9.525
 2039POPC   PO427588  29.338  44.153   9.377
 2039POPC   GL127589  29.053  44.446   9.119
 2039POPC   GL227590  29.257  44.755   9.062
 2039POPC   C1A27591  28.985  44.611   8.653
 2039POPC   D2A27592  29.221  44.803   8.268
 2039POPC   C3A27593  29.218  44.763   7.794
 2039POPC   C4A27594  29.227  44.384   7.498
 2039POPC   C1B27595  29.446  44.446   8.796
 2039POPC   C2B27596  29.661  44.465   8.408
 2039POPC   C3B27597  29.537  44.426   7.994
 2039POPC   C4B27598  29.713  44.424   7.587
 2040POPC   NC327599  20.381  29.570   9.310
 2040POPC   PO427600  20.172  28.983   9.310
 2040POPC   GL127601  20.513  29.147   9.055
 2040POPC   GL227602  20.837  29.372   9.107
 2040POPC   C1A27603  20.434  29.215   8.627
 2040POPC   D2A27604  20.170  29.020   8.327
 2040POPC   C3A27605  20.208  29.157   7.950
 2040POPC   C4A27606  20.482  28.965   7.710
 2040POPC   C1B27607  20.919  29.036   8.772
 2040POPC   C2B27608  21.093  28.901   8.372
 2040POPC   C3B27609  21.003  28.977   7.935
 2040POPC   C4B27610  20.797  29.368   7.834
 2041POPC   NC327611   3.943  38.722   9.467
 2041POPC   PO427612   4.591  38.452   9.703
 2041POPC   GL127613   4.417  38.510   9.267
 2041POPC   GL227614   4.442  38.170   9.103
 2041POPC   C1A27615   4.376  38.742   8.853
 2041POPC   D2A27616   4.606  38.896   8.474
 2041POPC   C3A27617   4.323  38.865   8.105
 2041POPC   C4A27618   3.905  38.764   7.883
 2041POPC   C1B27619   4.327  38.261   8.681
 2041POPC   C2B27620   4.059  38.411   8.349
 2041POPC   C3B27621   4.253  38.396   7.956
 2041POPC   C4B27622   4.603  38.323   7.677
 2042POPC   NC327623  17.625  23.637   9.458
 2042POPC   PO427624  16.998  23.816   9.601
 2042POPC   GL127625  17.209  23.886   9.211
 2042POPC   GL227626  17.309  23.560   9.083
 2042POPC   C1A27627  17.454  24.005   8.824
 2042POPC   D2A27628  17.597  23.861   8.409
 2042POPC   C3A27629  17.489  24.128   8.059
 2042POPC   C4A27630  17.465  23.930   7.664
 2042POPC   C1B27631  17.539  23.435   8.724
 2042POPC   C2B27632  17.525  23.095   8.439
 2042POPC   C3B27633  17.610  23.326   8.079
 2042POPC   C4B27634  17.432  23.375   7.687
 2043POPC   NC327635  16.174  44.320   9.778
 2043POPC   PO427636  15.692  44.574   9.469
 2043POPC   GL127637  15.764  44.709   9.016
 2043POPC   GL227638  16.096  44.853   8.977
 2043POPC   C1A27639  15.835  44.676   8.569
 2043POPC   D2A27640  15.977  44.728   8.140
 2043POPC   C3A27641  15.661  44.664   7.794
 2043POPC   C4A27642  15.666  44.369   7.438
 2043POPC   C1B27643  16.267   0.152   8.640
 2043POPC   C2B27644  16.330   0.160   8.181
 2043POPC   C3B27645  16.359  44.926   7.781
 2043POPC   C4B27646  16.481  44.692   7.388
 2044POPC   NC327647  17.867  18.943   9.593
 2044POPC   PO427648  18.366  19.434   9.441
 2044POPC   GL127649  18.238  19.140   9.170
 2044POPC   GL227650  18.034  19.400   9.036
 2044POPC   C1A27651  18.394  18.931   8.799
 2044POPC   D2A27652  18.291  18.703   8.429
 2044POPC   C3A27653  18.390  18.818   7.986
 2044POPC   C4A27654  18.109  18.880   7.652
 2044POPC   C1B27655  18.363  19.467   8.745
 2044POPC   C2B27656  18.346  19.234   8.372
 2044POPC   C3B27657  18.189  19.285   7.983
 2044POPC   C4B27658  18.297  19.459   7.641
 2045POPC   NC327659  33.599   3.142   9.273
 2045POPC   PO427660  33.564   3.741   9.655
 2045POPC   GL127661  33.774   3.640   9.237
 2045POPC   GL227662  33.449   3.625   9.135
 2045POPC   C1A27663  33.805   3.465   8.763
 2045POPC   D2A27664  33.687   3.260   8.360
 2045POPC   C3A27665  33.952   3.383   8.053
 2045POPC   C4A27666  34.057   3.419   7.606
 2045POPC   C1B27667  33.527   3.920   8.781
 2045POPC   C2B27668  33.457   4.107   8.349
 2045POPC   C3B27669  33.363   3.910   7.942
 2045POPC   C4B27670  33.571   3.539   7.763
 2046POPC   NC327671  37.869   3.238   9.438
 2046POPC   PO427672  37.365   3.747   9.429
 2046POPC   GL127673  37.478   3.438   9.142
 2046POPC   GL227674  37.771   3.629   9.104
 2046POPC   C1A27675  37.570   3.280   8.736
 2046POPC   D2A27676  37.853   3.369   8.385
 2046POPC   C3A27677  37.703   3.430   7.982
 2046POPC   C4A27678  37.447   3.157   7.728
 2046POPC   C1B27679  37.802   3.750   8.711
 2046POPC   C2B27680  37.576   3.918   8.333
 2046POPC   C3B27681  37.593   3.914   7.906
 2046POPC   C4B27682  38.006   3.796   7.733
 2047POPC   NC327683  27.013  39.705   9.963
 2047POPC   PO427684  26.567  39.989   9.577
 2047POPC   GL127685  26.605  40.071   9.166
 2047POPC   GL227686  26.717  39.767   9.013
 2047POPC   C1A27687  26.907  40.210   8.848
 2047POPC   D2A27688  26.920  40.002   8.454
 2047POPC   C3A27689  26.728  40.093   8.068
 2047POPC   C4A27690  26.959  40.288   7.739
 2047POPC   C1B27691  27.055  39.580   8.739
 2047POPC   C2B27692  27.323  39.372   8.444
 2047POPC   C3B27693  27.169  39.358   8.010
 2047POPC   C4B27694  26.975  39.733   7.830
 2048POPC   NC327695  27.946  37.291   9.481
 2048POPC   PO427696  27.407  36.926   9.663
 2048POPC   GL127697  27.470  36.923   9.221
 2048POPC   GL227698  27.811  37.006   9.075
 2048POPC   C1A27699  27.355  37.056   8.807
 2048POPC   D2A27700  27.572  37.187   8.433
 2048POPC   C3A27701  27.607  36.850   8.150
 2048POPC   C4A27702  27.647  36.780   7.713
 2048POPC   C1B27703  28.067  37.156   8.699
 2048POPC   C2B27704  28.090  37.188   8.232
 2048POPC   C3B27705  27.778  37.250   7.904
 2048POPC   C4B27706  27.743  37.277   7.415
 2049POPC   NC327707   7.199  27.883   9.787
 2049POPC   PO427708   7.768  28.155   9.451
 2049POPC   GL127709   7.526  28.286   9.116
 2049POPC   GL227710   7.430  28.648   9.099
 2049POPC   C1A27711   7.368  28.267   8.718
 2049POPC   D2A27712   7.254  28.004   8.406
 2049POPC   C3A27713   7.359  28.201   8.057
 2049POPC   C4A27714   7.247  28.306   7.669
 2049POPC   C1B27715   7.678  28.711   8.716
 2049POPC   C2B27716   7.843  28.632   8.295
 2049POPC   C3B27717   7.539  28.676   7.958
 2049POPC   C4B27718   7.056  28.700   7.944
 2050POPC   NC327719  34.087  17.973   9.459
 2050POPC   PO427720  33.851  18.581   9.457
 2050POPC   GL127721  33.972  18.350   9.113
 2050POPC   GL227722  33.741  18.143   9.092
 2050POPC   C1A27723  34.106  18.342   8.668
 2050POPC   D2A27724  34.048  18.325   8.247
 2050POPC   C3A27725  33.670  18.372   8.021
 2050POPC   C4A27726  34.004  18.422   7.691
 2050POPC   C1B27727  33.863  17.911   8.790
 2050POPC   C2B27728  33.750  17.890   8.393
 2050POPC   C3B27729  33.839  17.887   7.999
 2050POPC   C4B27730  33.661  18.030   7.640
 2051POPC   NC327731  41.315  35.293   9.555
 2051POPC   PO427732  41.543  35.853   9.534
 2051POPC   GL127733  41.526  35.502   9.138
 2051POPC   GL227734  41.805  35.250   9.023
 2051POPC   C1A27735  41.348  35.194   8.802
 2051POPC   D2A27736  41.338  34.992   8.374
 2051POPC   C3A27737  41.194  35.252   8.006
 2051POPC   C4A27738  41.454  35.605   7.870
 2051POPC   C1B27739  41.818  35.204   8.543
 2051POPC   C2B27740  41.729  35.283   8.135
 2051POPC   C3B27741  41.894  35.245   7.716
 2051POPC   C4B27742  42.154  35.385   7.361
 2052POPC   NC327743  10.613  15.362   9.765
 2052POPC   PO427744  10.441  14.731   9.561
 2052POPC   GL127745  10.477  14.969   9.254
 2052POPC   GL227746  10.628  15.284   9.263
 2052POPC   C1A27747  10.425  14.908   8.866
 2052POPC   D2A27748  10.392  15.221   8.586
 2052POPC   C3A27749  10.326  15.220   8.131
 2052POPC   C4A27750  10.356  15.451   7.705
 2052POPC   C1B27751  10.837  15.194   8.866
 2052POPC   C2B27752  10.867  15.327   8.447
 2052POPC   C3B27753  10.917  15.136   8.070
 2052POPC   C4B27754  10.671  15.084   7.746
 2053POPC   NC327755   0.998  25.012   9.513
 2053POPC   PO427756   1.632  25.043   9.515
 2053POPC   GL127757   1.325  25.212   9.183
 2053POPC   GL227758   1.129  24.946   9.025
 2053POPC   C1A27759   1.194  25.426   8.811
 2053POPC   D2A27760   1.233  25.240   8.417
 2053POPC   C3A27761   1.322  25.471   8.035
 2053POPC   C4A27762   1.251  25.439   7.601
 2053POPC   C1B27763   0.896  24.887   8.649
 2053POPC   C2B27764   1.000  24.829   8.224
 2053POPC   C3B27765   1.144  24.988   7.824
 2053POPC   C4B27766   1.118  24.985   7.351
 2054POPC   NC327767  15.420  14.157   9.385
 2054POPC   PO427768  14.967  14.630   9.529
 2054POPC   GL127769  14.992  14.380   9.169
 2054POPC   GL227770  14.862  14.074   9.109
 2054POPC   C1A27771  15.191  14.323   8.785
 2054POPC   D2A27772  15.043  14.382   8.394
 2054POPC   C3A27773  15.350  14.336   8.114
 2054POPC   C4A27774  15.349  14.379   7.727
 2054POPC   C1B27775  14.776  13.987   8.689
 2054POPC   C2B27776  14.912  13.911   8.251
 2054POPC   C3B27777  14.949  14.080   7.864
 2054POPC   C4B27778  14.822  14.481   7.775
 2055POPC   NC327779  13.367  18.132   9.978
 2055POPC   PO427780  13.534  18.528   9.553
 2055POPC   GL127781  13.489  18.612   9.112
 2055POPC   GL227782  13.629  18.328   8.979
 2055POPC   C1A27783  13.455  18.663   8.632
 2055POPC   D2A27784  13.610  18.533   8.202
 2055POPC   C3A27785  13.430  18.370   7.839
 2055POPC   C4A27786  13.516  18.130   7.484
 2055POPC   C1B27787  13.672  18.164   8.565
 2055POPC   C2B27788  13.971  18.154   8.236
 2055POPC   C3B27789  13.933  18.159   7.801
 2055POPC   C4B27790  13.968  17.876   7.445
 2056POPC   NC327791  41.305  30.714   9.404
 2056POPC   PO427792  40.658  30.573   9.454
 2056POPC   GL127793  40.644  30.451   9.069
 2056POPC   GL227794  40.978  30.569   9.011
 2056POPC   C1A27795  40.512  30.669   8.704
 2056POPC   D2A27796  40.363  30.655   8.282
 2056POPC   C3A27797  40.738  30.553   8.058
 2056POPC   C4A27798  40.862  30.668   7.625
 2056POPC   C1B27799  41.228  30.826   8.744
 2056POPC   C2B27800  41.156  30.751   8.336
 2056POPC   C3B27801  41.103  30.915   7.970
 2056POPC   C4B27802  41.064  31.143   7.597
 2057POPC   NC327803  27.978  39.587   9.373
 2057POPC   PO427804  27.963  38.864   9.449
 2057POPC   GL127805  28.121  39.119   9.092
 2057POPC   GL227806  28.486  39.076   9.011
 2057POPC   C1A27807  28.205  39.449   8.769
 2057POPC   D2A27808  28.355  39.428   8.348
 2057POPC   C3A27809  28.181  39.174   8.023
 2057POPC   C4A27810  28.185  39.404   7.708
 2057POPC   C1B27811  28.335  38.950   8.618
 2057POPC   C2B27812  28.546  38.903   8.243
 2057POPC   C3B27813  28.690  39.229   7.979
 2057POPC   C4B27814  28.678  39.429   7.554
 2058POPC   NC327815   5.763  38.029   9.525
 2058POPC   PO427816   5.527  38.665   9.762
 2058POPC   GL127817   5.893  38.573   9.366
 2058POPC   GL227818   5.942  38.263   9.146
 2058POPC   C1A27819   6.061  38.606   8.840
 2058POPC   D2A27820   6.077  38.416   8.431
 2058POPC   C3A27821   5.935  38.566   8.030
 2058POPC   C4A27822   6.063  38.695   7.679
 2058POPC   C1B27823   5.662  38.153   8.789
 2058POPC   C2B27824   5.542  38.002   8.408
 2058POPC   C3B27825   5.822  38.078   8.085
 2058POPC   C4B27826   5.926  38.190   7.658
 2059POPC   NC327827   6.066  41.628   9.554
 2059POPC   PO427828   5.634  41.359   9.127
 2059POPC   GL127829   6.060  41.498   9.057
 2059POPC   GL227830   5.972  41.853   9.064
 2059POPC   C1A27831   6.190  41.293   8.683
 2059POPC   D2A27832   5.970  41.129   8.318
 2059POPC   C3A27833   5.933  41.324   7.908
 2059POPC   C4A27834   5.868  41.752   7.766
 2059POPC   C1B27835   5.962  41.744   8.618
 2059POPC   C2B27836   6.143  41.680   8.194
 2059POPC   C3B27837   6.353  41.921   7.848
 2059POPC   C4B27838   6.334  41.984   7.355
 2060POPC   NC327839   9.882  17.873   9.355
 2060POPC   PO427840  10.108  17.248   9.204
 2060POPC   GL127841   9.865  17.554   8.950
 2060POPC   GL227842   9.526  17.493   9.081
 2060POPC   C1A27843   9.622  17.784   8.609
 2060POPC   D2A27844   9.576  17.898   8.144
 2060POPC   C3A27845   9.876  17.646   7.884
 2060POPC   C4A27846  10.215  17.417   7.735
 2060POPC   C1B27847   9.536  17.250   8.664
 2060POPC   C2B27848   9.592  17.372   8.209
 2060POPC   C3B27849   9.400  17.450   7.771
 2060POPC   C4B27850   9.426  17.319   7.248
 2061POPC   NC327851  34.534  23.848   9.549
 2061POPC   PO427852  35.098  24.077   9.191
 2061POPC   GL127853  34.751  23.833   9.081
 2061POPC   GL227854  34.685  23.499   9.205
 2061POPC   C1A27855  34.443  24.001   8.796
 2061POPC   D2A27856  34.627  24.191   8.422
 2061POPC   C3A27857  34.464  24.029   8.044
 2061POPC   C4A27858  34.619  23.947   7.641
 2061POPC   C1B27859  34.486  23.499   8.766
 2061POPC   C2B27860  34.647  23.611   8.316
 2061POPC   C3B27861  34.438  23.527   7.892
 2061POPC   C4B27862  34.480  23.541   7.399
 2062POPC   NC327863  17.665  15.978   9.685
 2062POPC   PO427864  18.176  15.692   9.389
 2062POPC   GL127865  17.848  15.961   9.185
 2062POPC   GL227866  17.474  16.024   9.210
 2062POPC   C1A27867  17.717  15.913   8.755
 2062POPC   D2A27868  17.686  15.608   8.410
 2062POPC   C3A27869  17.834  15.697   7.983
 2062POPC   C4A27870  17.632  15.981   7.729
 2062POPC   C1B27871  17.218  15.878   8.822
 2062POPC   C2B27872  17.220  15.871   8.337
 2062POPC   C3B27873  17.106  15.884   7.847
 2062POPC   C4B27874  17.211  16.219   7.537
 2063POPC   NC327875  23.203  38.832   9.851
 2063POPC   PO427876  22.912  39.263   9.415
 2063POPC   GL127877  22.911  39.217   9.044
 2063POPC   GL227878  22.772  38.881   9.054
 2063POPC   C1A27879  23.149  39.402   8.742
 2063POPC   D2A27880  22.973  39.285   8.350
 2063POPC   C3A27881  23.176  39.397   7.996
 2063POPC   C4A27882  22.974  39.427   7.599
 2063POPC   C1B27883  23.071  38.875   8.682
 2063POPC   C2B27884  23.157  38.806   8.225
 2063POPC   C3B27885  22.869  38.979   7.908
 2063POPC   C4B27886  22.813  38.938   7.473
 2064POPC   NC327887  39.364  40.648   9.753
 2064POPC   PO427888  39.080  41.241   9.481
 2064POPC   GL127889  39.204  40.993   9.107
 2064POPC   GL227890  39.362  40.670   9.172
 2064POPC   C1A27891  39.107  40.770   8.721
 2064POPC   D2A27892  38.968  40.549   8.347
 2064POPC   C3A27893  39.180  40.740   7.998
 2064POPC   C4A27894  39.131  40.984   7.613
 2064POPC   C1B27895  39.449  40.384   8.786
 2064POPC   C2B27896  39.571  40.423   8.341
 2064POPC   C3B27897  39.660  40.634   7.937
 2064POPC   C4B27898  39.352  40.508   7.580
 2065POPC   NC327899  19.678   7.738   9.493
 2065POPC   PO427900  20.199   7.358   9.277
 2065POPC   GL127901  19.843   7.471   9.095
 2065POPC   GL227902  19.781   7.832   9.016
 2065POPC   C1A27903  19.589   7.378   8.783
 2065POPC   D2A27904  19.549   7.551   8.400
 2065POPC   C3A27905  19.498   7.286   8.046
 2065POPC   C4A27906  19.474   7.489   7.654
 2065POPC   C1B27907  20.147   7.824   8.757
 2065POPC   C2B27908  20.018   7.812   8.350
 2065POPC   C3B27909  19.987   7.494   8.037
 2065POPC   C4B27910  20.179   7.567   7.659
 2066POPC   NC327911  14.236  19.560   9.445
 2066POPC   PO427912  14.904  19.593   9.621
 2066POPC   GL127913  14.647  19.904   9.253
 2066POPC   GL227914  14.308  19.814   9.038
 2066POPC   C1A27915  14.622  20.091   8.789
 2066POPC   D2A27916  14.310  19.853   8.499
 2066POPC   C3A27917  14.334  19.825   8.073
 2066POPC   C4A27918  14.601  19.987   7.803
 2066POPC   C1B27919  14.021  19.562   8.805
 2066POPC   C2B27920  14.071  19.403   8.420
 2066POPC   C3B27921  14.129  19.360   8.016
 2066POPC   C4B27922  14.289  19.463   7.615
 2067POPC   NC327923   6.662   0.571   9.812
 2067POPC   PO427924   6.001   0.373   9.609
 2067POPC   GL127925   6.013   0.476   9.182
 2067POPC   GL227926   5.684   0.467   9.134
 2067POPC   C1A27927   6.028   0.635   8.750
 2067POPC   D2A27928   6.092   0.413   8.354
 2067POPC   C3A27929   5.945   0.588   7.966
 2067POPC   C4A27930   5.499   0.638   7.926
 2067POPC   C1B27931   5.858   0.153   8.814
 2067POPC   C2B27932   5.684   0.105   8.410
 2067POPC   C3B27933   5.877   0.057   8.036
 2067POPC   C4B27934   5.800   0.171   7.648
 2068POPC   NC327935  22.461   0.824   9.611
 2068POPC   PO427936  23.069   0.965   9.515
 2068POPC   GL127937  22.954   1.151   9.131
 2068POPC   GL227938  22.619   1.035   9.166
 2068POPC   C1A27939  23.143   1.160   8.711
 2068POPC   D2A27940  23.166   1.455   8.376
 2068POPC   C3A27941  22.978   1.411   7.973
 2068POPC   C4A27942  23.100   1.143   7.621
 2068POPC   C1B27943  22.708   0.886   8.761
 2068POPC   C2B27944  22.754   1.085   8.381
 2068POPC   C3B27945  22.832   0.914   8.020
 2068POPC   C4B27946  22.632   1.042   7.721
 2069POPC   NC327947  17.924  18.102   9.635
 2069POPC   PO427948  17.358  18.310   9.583
 2069POPC   GL127949  17.684  18.285   9.197
 2069POPC   GL227950  17.887  17.971   9.143
 2069POPC   C1A27951  17.664  18.249   8.702
 2069POPC   D2A27952  17.422  18.093   8.306
 2069POPC   C3A27953  17.375  18.351   7.933
 2069POPC   C4A27954  17.737  18.469   7.747
 2069POPC   C1B27955  17.902  17.773   8.729
 2069POPC   C2B27956  17.958  17.647   8.265
 2069POPC   C3B27957  17.939  17.931   7.898
 2069POPC   C4B27958  17.868  18.030   7.467
 2070POPC   NC327959  22.600   9.734   9.290
 2070POPC   PO427960  21.981   9.500   9.499
 2070POPC   GL127961  22.113   9.721   9.136
 2070POPC   GL227962  22.292   9.407   9.032
 2070POPC   C1A27963  22.237   9.956   8.751
 2070POPC   D2A27964  22.485  10.056   8.392
 2070POPC   C3A27965  22.231  10.121   8.068
 2070POPC   C4A27966  22.246   9.876   7.711
 2070POPC   C1B27967  22.009   9.502   8.706
 2070POPC   C2B27968  22.020   9.703   8.328
 2070POPC   C3B27969  21.997   9.487   7.938
 2070POPC   C4B27970  22.281   9.370   7.625
 2071POPC   NC327971  36.919  30.268   9.408
 2071POPC   PO427972  36.840  29.601   9.528
 2071POPC   GL127973  36.997  29.789   9.173
 2071POPC   GL227974  36.657  29.888   9.111
 2071POPC   C1A27975  37.094  29.915   8.739
 2071POPC   D2A27976  36.896  29.805   8.340
 2071POPC   C3A27977  37.078  29.967   7.944
 2071POPC   C4A27978  37.079  30.273   7.555
 2071POPC   C1B27979  36.624  30.159   8.798
 2071POPC   C2B27980  36.452  30.137   8.446
 2071POPC   C3B27981  36.596  30.110   8.046
 2071POPC   C4B27982  36.458  30.129   7.667
 2072POPC   NC327983  27.202  20.705   9.335
 2072POPC   PO427984  27.799  20.615   9.487
 2072POPC   GL127985  27.697  20.871   9.125
 2072POPC   GL227986  27.440  21.135   9.196
 2072POPC   C1A27987  27.826  20.791   8.690
 2072POPC   D2A27988  27.962  20.740   8.235
 2072POPC   C3A27989  27.631  20.597   7.926
 2072POPC   C4A27990  27.661  20.661   7.466
 2072POPC   C1B27991  27.308  20.945   8.768
 2072POPC   C2B27992  27.369  20.738   8.391
 2072POPC   C3B27993  27.145  20.796   8.022
 2072POPC   C4B27994  27.187  20.634   7.649
 2073POPC   NC327995  16.443  39.117   9.395
 2073POPC   PO427996  17.039  39.556   9.545
 2073POPC   GL127997  17.000  39.376   9.121
 2073POPC   GL227998  16.843  39.042   9.080
 2073POPC   C1A27999  16.900  39.384   8.685
 2073POPC   D2A28000  17.063  39.328   8.292
 2073POPC   C3A28001  16.837  39.332   7.914
 2073POPC   C4A28002  16.427  39.337   7.893
 2073POPC   C1B28003  16.673  38.911   8.740
 2073POPC   C2B28004  16.562  39.076   8.345
 2073POPC   C3B28005  16.576  38.847   7.981
 2073POPC   C4B28006  16.646  38.983   7.571
 2074POPC   NC328007  37.099  41.946   9.548
 2074POPC   PO428008  36.893  41.338   9.828
 2074POPC   GL128009  37.005  41.412   9.342
 2074POPC   GL228010  36.841  41.687   9.191
 2074POPC   C1A28011  36.908  41.320   8.854
 2074POPC   D2A28012  36.952  41.559   8.462
 2074POPC   C3A28013  36.894  41.337   8.047
 2074POPC   C4A28014  37.123  41.360   7.625
 2074POPC   C1B28015  36.592  41.773   8.822
 2074POPC   C2B28016  36.551  41.923   8.405
 2074POPC   C3B28017  36.828  41.863   8.062
 2074POPC   C4B28018  36.742  42.059   7.708
 2075POPC   NC328019  43.073  24.142   9.415
 2075POPC   PO428020  43.331  24.756   9.431
 2075POPC   GL128021  43.287  24.537   9.073
 2075POPC   GL228022  42.952  24.657   8.999
 2075POPC   C1A28023  43.178  24.244   8.746
 2075POPC   D2A28024  43.064  24.129   8.333
 2075POPC   C3A28025  43.228  24.446   8.037
 2075POPC   C4A28026  43.114  24.440   7.591
 2075POPC   C1B28027  42.708  24.893   8.642
 2075POPC   C2B28028  42.734  24.978   8.173
 2075POPC   C3B28029  42.985  24.881   7.845
 2075POPC   C4B28030  43.361  24.937   7.658
 2076POPC   NC328031  15.002  10.040   9.534
 2076POPC   PO428032  15.298   9.415   9.504
 2076POPC   GL128033  15.270   9.594   9.104
 2076POPC   GL228034  15.298   9.956   9.101
 2076POPC   C1A28035  14.903   9.705   8.852
 2076POPC   D2A28036  14.635   9.901   8.525
 2076POPC   C3A28037  14.816   9.904   8.124
 2076POPC   C4A28038  14.822   9.625   7.810
 2076POPC   C1B28039  15.500   9.864   8.719
 2076POPC   C2B28040  15.555   9.781   8.276
 2076POPC   C3B28041  15.391   9.905   7.867
 2076POPC   C4B28042  15.455   9.898   7.406
 2077POPC   NC328043  34.530  34.987   9.484
 2077POPC   PO428044  34.952  35.397   9.525
 2077POPC   GL128045  34.752  35.392   9.106
 2077POPC   GL228046  34.420  35.397   9.082
 2077POPC   C1A28047  34.733  35.587   8.683
 2077POPC   D2A28048  34.439  35.503   8.347
 2077POPC   C3A28049  34.525  35.650   7.923
 2077POPC   C4A28050  34.777  35.588   7.542
 2077POPC   C1B28051  34.468  35.122   8.761
 2077POPC   C2B28052  34.471  35.007   8.334
 2077POPC   C3B28053  34.259  35.030   7.967
 2077POPC   C4B28054  34.151  35.322   7.684
 2078POPC   NC328055  22.774  23.175   9.358
 2078POPC   PO428056  22.919  22.577   9.674
 2078POPC   GL128057  23.087  22.870   9.180
 2078POPC   GL228058  23.220  23.231   9.134
 2078POPC   C1A28059  22.928  22.951   8.739
 2078POPC   D2A28060  23.122  22.897   8.322
 2078POPC   C3A28061  22.847  23.008   7.975
 2078POPC   C4A28062  22.749  22.867   7.560
 2078POPC   C1B28063  23.213  23.419   8.709
 2078POPC   C2B28064  22.932  23.377   8.353
 2078POPC   C3B28065  22.984  23.517   7.908
 2078POPC   C4B28066  23.049  23.286   7.495
 2079POPC   NC328067  15.158  35.232   9.541
 2079POPC   PO428068  15.544  35.760   9.441
 2079POPC   GL128069  15.380  35.481   9.124
 2079POPC   GL228070  15.054  35.482   9.113
 2079POPC   C1A28071  15.381  35.259   8.723
 2079POPC   D2A28072  15.527  35.091   8.307
 2079POPC   C3A28073  15.413  35.346   7.924
 2079POPC   C4A28074  15.462  35.348   7.440
 2079POPC   C1B28075  15.050  35.674   8.750
 2079POPC   C2B28076  15.062  35.507   8.367
 2079POPC   C3B28077  14.911  35.451   7.999
 2079POPC   C4B28078  14.920  35.327   7.587
 2080POPC   NC328079  36.614  39.359   9.481
 2080POPC   PO428080  37.200  38.925   9.460
 2080POPC   GL128081  36.974  39.215   9.176
 2080POPC   GL228082  36.735  38.983   9.063
 2080POPC   C1A28083  36.797  39.403   8.775
 2080POPC   D2A28084  36.659  39.113   8.435
 2080POPC   C3A28085  36.729  39.247   8.026
 2080POPC   C4A28086  36.888  39.505   7.672
 2080POPC   C1B28087  37.174  39.033   8.772
 2080POPC   C2B28088  37.301  39.050   8.353
 2080POPC   C3B28089  37.221  39.180   7.927
 2080POPC   C4B28090  37.246  39.188   7.504
 2081POPC   NC328091  22.563  11.635   9.422
 2081POPC   PO428092  21.972  11.974   9.475
 2081POPC   GL128093  22.189  12.091   9.120
 2081POPC   GL228094  22.290  11.787   8.995
 2081POPC   C1A28095  22.094  12.184   8.690
 2081POPC   D2A28096  21.834  12.077   8.362
 2081POPC   C3A28097  21.997  12.158   7.950
 2081POPC   C4A28098  21.726  12.168   7.593
 2081POPC   C1B28099  22.664  11.709   8.775
 2081POPC   C2B28100  22.768  11.857   8.412
 2081POPC   C3B28101  22.495  11.943   8.106
 2081POPC   C4B28102  22.448  12.013   7.693
 2082POPC   NC328103  26.921  42.771   9.398
 2082POPC   PO428104  26.717  43.297   9.440
 2082POPC   GL128105  26.700  43.084   9.053
 2082POPC   GL228106  26.939  42.860   8.901
 2082POPC   C1A28107  26.602  43.151   8.633
 2082POPC   D2A28108  26.686  43.451   8.342
 2082POPC   C3A28109  26.790  43.202   8.024
 2082POPC   C4A28110  26.717  43.274   7.607
 2082POPC   C1B28111  26.552  42.663   8.743
 2082POPC   C2B28112  26.427  42.734   8.310
 2082POPC   C3B28113  26.566  42.761   7.886
 2082POPC   C4B28114  26.976  42.841   7.664
 2083POPC   NC328115  20.141  32.735   9.534
 2083POPC   PO428116  20.664  33.104   9.520
 2083POPC   GL128117  20.625  32.952   9.119
 2083POPC   GL228118  20.315  32.860   9.087
 2083POPC   C1A28119  20.537  33.042   8.672
 2083POPC   D2A28120  20.797  33.085   8.324
 2083POPC   C3A28121  20.591  33.181   7.933
 2083POPC   C4A28122  20.694  32.855   7.694
 2083POPC   C1B28123  20.139  32.681   8.729
 2083POPC   C2B28124  20.058  32.863   8.343
 2083POPC   C3B28125  20.220  32.812   7.940
 2083POPC   C4B28126  20.048  32.838   7.535
 2084POPC   NC328127   9.111  25.019   9.535
 2084POPC   PO428128   8.839  25.609   9.594
 2084POPC   GL128129   8.942  25.381   9.200
 2084POPC   GL228130   8.759  25.024   9.175
 2084POPC   C1A28131   9.240  25.441   8.835
 2084POPC   D2A28132   9.296  25.220   8.434
 2084POPC   C3A28133   9.090  25.386   8.076
 2084POPC   C4A28134   9.012  25.226   7.694
 2084POPC   C1B28135   8.981  25.015   8.795
 2084POPC   C2B28136   8.722  24.990   8.420
 2084POPC   C3B28137   8.655  25.039   8.011
 2084POPC   C4B28138   8.720  24.796   7.636
 2085POPC   NC328139   2.654  12.293   9.322
 2085POPC   PO428140   3.025  11.766   9.588
 2085POPC   GL128141   2.849  11.770   9.157
 2085POPC   GL228142   2.479  11.810   9.156
 2085POPC   C1A28143   2.938  11.937   8.747
 2085POPC   D2A28144   2.753  11.894   8.319
 2085POPC   C3A28145   2.911  11.944   7.887
 2085POPC   C4A28146   2.744  12.273   7.674
 2085POPC   C1B28147   2.471  11.698   8.727
 2085POPC   C2B28148   2.484  11.462   8.324
 2085POPC   C3B28149   2.463  11.693   7.900
 2085POPC   C4B28150   2.605  11.847   7.443
 2086POPC   NC328151  31.135   8.395   9.520
 2086POPC   PO428152  30.494   8.278   9.428
 2086POPC   GL128153  30.761   8.290   9.134
 2086POPC   GL228154  30.969   8.002   9.235
 2086POPC   C1A28155  30.534   8.454   8.767
 2086POPC   D2A28156  30.358   8.413   8.379
 2086POPC   C3A28157  30.519   8.579   8.017
 2086POPC   C4A28158  30.619   8.456   7.630
 2086POPC   C1B28159  30.972   7.986   8.777
 2086POPC   C2B28160  30.642   7.978   8.440
 2086POPC   C3B28161  30.567   8.043   7.991
 2086POPC   C4B28162  30.839   8.016   7.617
 2087POPC   NC328163  22.135   1.695   9.464
 2087POPC   PO428164  22.079   1.085   9.587
 2087POPC   GL128165  22.167   1.257   9.184
 2087POPC   GL228166  21.933   1.430   8.991
 2087POPC   C1A28167  22.225   1.032   8.799
 2087POPC   D2A28168  22.021   1.044   8.429
 2087POPC   C3A28169  22.272   1.006   8.082
 2087POPC   C4A28170  22.148   1.099   7.663
 2087POPC   C1B28171  22.190   1.498   8.600
 2087POPC   C2B28172  22.075   1.515   8.168
 2087POPC   C3B28173  21.905   1.529   7.766
 2087POPC   C4B28174  22.170   1.517   7.383
 2088POPC   NC328175  19.943   3.786   9.715
 2088POPC   PO428176  19.628   3.286   9.406
 2088POPC   GL128177  19.827   3.623   9.233
 2088POPC   GL228178  20.196   3.600   9.192
 2088POPC   C1A28179  19.750   3.624   8.819
 2088POPC   D2A28180  19.972   3.807   8.510
 2088POPC   C3A28181  19.914   3.743   8.123
 2088POPC   C4A28182  19.960   3.906   7.744
 2088POPC   C1B28183  20.165   3.340   8.787
 2088POPC   C2B28184  19.965   3.280   8.361
 2088POPC   C3B28185  20.163   3.351   7.925
 2088POPC   C4B28186  20.065   3.266   7.487
 2089POPC   NC328187  33.641  18.998   9.351
 2089POPC   PO428188  33.961  19.552   9.670
 2089POPC   GL128189  34.198  19.225   9.267
 2089POPC   GL228190  34.203  18.840   9.179
 2089POPC   C1A28191  34.162  19.156   8.773
 2089POPC   D2A28192  34.091  19.197   8.343
 2089POPC   C3A28193  33.721  19.249   8.143
 2089POPC   C4A28194  33.872  19.222   7.728
 2089POPC   C1B28195  33.880  18.755   8.824
 2089POPC   C2B28196  33.835  18.755   8.412
 2089POPC   C3B28197  33.933  18.806   8.012
 2089POPC   C4B28198  33.540  18.852   7.792
 2090POPC   NC328199  27.433  40.514   9.345
 2090POPC   PO428200  27.302  39.965   9.664
 2090POPC   GL128201  27.391  40.019   9.180
 2090POPC   GL228202  27.731  40.111   9.172
 2090POPC   C1A28203  27.392  40.067   8.683
 2090POPC   D2A28204  27.368  39.844   8.238
 2090POPC   C3A28205  27.412  39.995   7.799
 2090POPC   C4A28206  27.518  39.851   7.350
 2090POPC   C1B28207  27.865  39.912   8.813
 2090POPC   C2B28208  27.793  39.670   8.483
 2090POPC   C3B28209  27.961  39.663   8.100
 2090POPC   C4B28210  27.924  39.949   7.768
 2091POPC   NC328211  27.340  23.160   9.700
 2091POPC   PO428212  27.813  22.677   9.534
 2091POPC   GL128213  27.714  22.832   9.093
 2091POPC   GL228214  27.416  23.091   9.115
 2091POPC   C1A28215  27.932  22.855   8.659
 2091POPC   D2A28216  27.846  22.671   8.217
 2091POPC   C3A28217  27.733  22.899   7.812
 2091POPC   C4A28218  27.672  23.233   7.461
 2091POPC   C1B28219  27.416  22.919   8.667
 2091POPC   C2B28220  27.329  22.643   8.301
 2091POPC   C3B28221  27.275  22.692   7.877
 2091POPC   C4B28222  27.264  23.116   7.763
 2092POPC   NC328223  27.822   2.870   9.298
 2092POPC   PO428224  28.351   2.956   9.740
 2092POPC   GL128225  28.398   2.767   9.261
 2092POPC   GL228226  28.732   2.538   9.250
 2092POPC   C1A28227  28.254   2.821   8.781
 2092POPC   D2A28228  28.121   2.853   8.320
 2092POPC   C3A28229  28.161   2.699   7.857
 2092POPC   C4A28230  28.433   2.902   7.482
 2092POPC   C1B28231  28.747   2.669   8.844
 2092POPC   C2B28232  28.690   2.533   8.427
 2092POPC   C3B28233  28.416   2.357   8.135
 2092POPC   C4B28234  28.512   2.388   7.683
 2093POPC   NC328235   8.393  15.854   9.483
 2093POPC   PO428236   7.802  16.233   9.370
 2093POPC   GL128237   8.053  15.976   9.103
 2093POPC   GL228238   8.375  16.129   9.042
 2093POPC   C1A28239   8.258  15.622   8.876
 2093POPC   D2A28240   8.357  15.557   8.429
 2093POPC   C3A28241   8.140  15.838   8.143
 2093POPC   C4A28242   8.065  15.865   7.708
 2093POPC   C1B28243   8.221  16.065   8.609
 2093POPC   C2B28244   8.540  16.143   8.274
 2093POPC   C3B28245   8.538  16.058   7.829
 2093POPC   C4B28246   8.514  15.918   7.384
 2094POPC   NC328247  40.914   8.214   9.574
 2094POPC   PO428248  40.339   7.806   9.569
 2094POPC   GL128249  40.583   8.091   9.200
 2094POPC   GL228250  40.670   7.824   9.011
 2094POPC   C1A28251  40.753   8.288   8.763
 2094POPC   D2A28252  40.937   8.376   8.375
 2094POPC   C3A28253  40.700   8.312   8.027
 2094POPC   C4A28254  40.390   8.568   7.906
 2094POPC   C1B28255  40.625   7.844   8.575
 2094POPC   C2B28256  40.385   7.970   8.234
 2094POPC   C3B28257  40.455   7.957   7.766
 2094POPC   C4B28258  40.601   7.838   7.325
 2095POPC   NC328259  13.079  18.692   9.458
 2095POPC   PO428260  12.963  18.077   9.748
 2095POPC   GL128261  12.873  18.204   9.268
 2095POPC   GL228262  12.651  18.451   9.081
 2095POPC   C1A28263  13.107  18.347   8.870
 2095POPC   D2A28264  13.192  18.268   8.415
 2095POPC   C3A28265  12.924  18.389   8.093
 2095POPC   C4A28266  12.959  18.443   7.658
 2095POPC   C1B28267  12.673  18.425   8.620
 2095POPC   C2B28268  12.470  18.236   8.288
 2095POPC   C3B28269  12.552  18.050   7.901
 2095POPC   C4B28270  12.580  18.142   7.504
 2096POPC   NC328271   7.603  14.817   9.274
 2096POPC   PO428272   7.201  14.251   9.466
 2096POPC   GL128273   7.246  14.457   9.115
 2096POPC   GL228274   7.587  14.333   9.102
 2096POPC   C1A28275   7.288  14.544   8.696
 2096POPC   D2A28276   7.474  14.568   8.317
 2096POPC   C3A28277   7.350  14.409   7.914
 2096POPC   C4A28278   7.492  14.627   7.535
 2096POPC   C1B28279   7.751  14.326   8.728
 2096POPC   C2B28280   7.610  14.087   8.444
 2096POPC   C3B28281   7.776  14.170   8.106
 2096POPC   C4B28282   7.734  14.011   7.736
 2097POPC   NC328283  40.405  36.525   9.345
 2097POPC   PO428284  40.978  36.654   9.731
 2097POPC   GL128285  40.799  36.963   9.304
 2097POPC   GL228286  40.714  36.754   9.042
 2097POPC   C1A28287  40.729  37.167   8.798
 2097POPC   D2A28288  40.743  36.971   8.387
 2097POPC   C3A28289  40.827  37.130   7.982
 2097POPC   C4A28290  40.958  36.895   7.612
 2097POPC   C1B28291  40.401  36.750   8.709
 2097POPC   C2B28292  40.354  36.615   8.275
 2097POPC   C3B28293  40.614  36.621   7.891
 2097POPC   C4B28294  40.516  36.737   7.436
 2098POPC   NC328295  27.142   1.366   9.452
 2098POPC   PO428296  26.764   0.863   9.544
 2098POPC   GL128297  26.713   1.151   9.174
 2098POPC   GL228298  26.649   1.535   9.210
 2098POPC   C1A28299  26.933   1.327   8.823
 2098POPC   D2A28300  27.184   1.340   8.486
 2098POPC   C3A28301  26.947   1.205   8.161
 2098POPC   C4A28302  26.922   1.441   7.806
 2098POPC   C1B28303  26.431   1.446   8.810
 2098POPC   C2B28304  26.433   1.161   8.464
 2098POPC   C3B28305  26.458   1.243   8.026
 2098POPC   C4B28306  26.550   1.107   7.610
 2099POPC   NC328307  22.973  21.203   9.632
 2099POPC   PO428308  23.014  21.823   9.493
 2099POPC   GL128309  22.963  21.526   9.151
 2099POPC   GL228310  22.642  21.398   9.063
 2099POPC   C1A28311  22.884  21.714   8.749
 2099POPC   D2A28312  22.753  21.653   8.335
 2099POPC   C3A28313  22.991  21.489   8.036
 2099POPC   C4A28314  22.883  21.179   7.752
 2099POPC   C1B28315  22.824  21.227   8.650
 2099POPC   C2B28316  22.652  21.134   8.247
 2099POPC   C3B28317  22.418  21.000   7.913
 2099POPC   C4B28318  22.489  20.978   7.460
 2100POPC   NC328319   6.639  37.539   9.441
 2100POPC   PO428320   6.157  37.889   9.749
 2100POPC   GL128321   6.336  37.927   9.277
 2100POPC   GL228322   6.661  38.059   9.216
 2100POPC   C1A28323   6.543  37.736   8.823
 2100POPC   D2A28324   6.731  37.392   8.525
 2100POPC   C3A28325   6.706  37.507   8.105
 2100POPC   C4A28326   6.435  37.842   7.947
 2100POPC   C1B28327   6.869  38.164   8.813
 2100POPC   C2B28328   6.948  37.884   8.496
 2100POPC   C3B28329   6.953  37.968   8.076
 2100POPC   C4B28330   6.973  37.744   7.729
 2101POPC   NC328331  28.074  23.070   9.382
 2101POPC   PO428332  28.774  22.946   9.457
 2101POPC   GL128333  28.560  22.976   9.108
 2101POPC   GL228334  28.384  22.666   9.191
 2101POPC   C1A28335  28.451  23.114   8.681
 2101POPC   D2A28336  28.527  23.168   8.250
 2101POPC   C3A28337  28.162  23.076   8.024
 2101POPC   C4A28338  28.143  23.095   7.585
 2101POPC   C1B28339  28.506  22.603   8.763
 2101POPC   C2B28340  28.337  22.691   8.363
 2101POPC   C3B28341  28.478  22.704   7.949
 2101POPC   C4B28342  28.733  22.492   7.714
 2102POPC   NC328343  10.964  12.139   9.582
 2102POPC   PO428344  11.496  11.813   9.662
 2102POPC   GL128345  11.125  11.863   9.221
 2102POPC   GL228346  10.898  11.580   9.134
 2102POPC   C1A28347  11.146  12.056   8.819
 2102POPC   D2A28348  11.479  12.120   8.528
 2102POPC   C3A28349  11.285  12.267   8.165
 2102POPC   C4A28350  11.216  12.120   7.770
 2102POPC   C1B28351  11.085  11.547   8.711
 2102POPC   C2B28352  11.193  11.747   8.328
 2102POPC   C3B28353  11.062  11.666   7.922
 2102POPC   C4B28354  11.280  11.633   7.529
 2103POPC   NC328355  20.640  12.367   9.516
 2103POPC   PO428356  20.218  11.795   9.360
 2103POPC   GL128357  20.467  12.152   9.112
 2103POPC   GL228358  20.333  12.393   9.067
 2103POPC   C1A28359  20.704  12.253   8.731
 2103POPC   D2A28360  20.746  12.357   8.289
 2103POPC   C3A28361  20.939  12.007   8.067
 2103POPC   C4A28362  20.795  11.800   7.706
 2103POPC   C1B28363  20.310  12.550   8.656
 2103POPC   C2B28364  20.135  12.636   8.289
 2103POPC   C3B28365  20.369  12.537   7.940
 2103POPC   C4B28366  20.744  12.351   7.723
 2104POPC   NC328367  35.757  43.285   9.506
 2104POPC   PO428368  35.087  43.114   9.489
 2104POPC   GL128369  35.363  43.025   9.149
 2104POPC   GL228370  35.475  43.366   9.075
 2104POPC   C1A28371  35.499  42.982   8.708
 2104POPC   D2A28372  35.759  43.094   8.370
 2104POPC   C3A28373  35.640  42.966   7.980
 2104POPC   C4A28374  35.485  43.102   7.601
 2104POPC   C1B28375  35.169  43.364   8.774
 2104POPC   C2B28376  35.059  43.358   8.360
 2104POPC   C3B28377  35.221  43.332   7.975
 2104POPC   C4B28378  35.004  43.322   7.594
 2105POPC   NC328379  42.486  21.000   9.296
 2105POPC   PO428380  42.411  21.601   9.588
 2105POPC   GL128381  42.282  21.560   9.138
 2105POPC   GL228382  42.222  21.300   9.015
 2105POPC   C1A28383  42.422  21.614   8.661
 2105POPC   D2A28384  42.525  21.322   8.304
 2105POPC   C3A28385  42.288  21.333   7.903
 2105POPC   C4A28386  42.081  21.684   7.673
 2105POPC   C1B28387  41.967  21.408   8.706
 2105POPC   C2B28388  41.987  21.299   8.322
 2105POPC   C3B28389  42.126  20.929   8.187
 2105POPC   C4B28390  42.074  20.869   7.803
 2106POPC   NC328391  21.493   4.795   9.565
 2106POPC   PO428392  21.129   5.340   9.662
 2106POPC   GL128393  21.298   5.228   9.228
 2106POPC   GL228394  21.653   5.086   9.174
 2106POPC   C1A28395  21.394   5.385   8.802
 2106POPC   D2A28396  21.555   5.497   8.410
 2106POPC   C3A28397  21.430   5.342   8.040
 2106POPC   C4A28398  21.273   5.064   7.760
 2106POPC   C1B28399  21.484   4.881   8.801
 2106POPC   C2B28400  21.578   4.970   8.374
 2106POPC   C3B28401  21.759   4.724   8.055
 2106POPC   C4B28402  21.558   4.636   7.702
 2107POPC   NC328403  40.017  25.867   9.503
 2107POPC   PO428404  40.274  26.508   9.472
 2107POPC   GL128405  40.181  26.181   9.154
 2107POPC   GL228406  40.406  25.817   9.192
 2107POPC   C1A28407  39.986  26.250   8.764
 2107POPC   D2A28408  39.795  26.297   8.367
 2107POPC   C3A28409  39.973  26.186   8.021
 2107POPC   C4A28410  39.792  26.190   7.633
 2107POPC   C1B28411  40.116  25.760   8.834
 2107POPC   C2B28412  39.903  25.797   8.456
 2107POPC   C3B28413  40.123  25.698   8.099
 2107POPC   C4B28414  40.158  25.842   7.696
 2108POPC   NC328415  25.743  31.484   9.637
 2108POPC   PO428416  26.428  31.242   9.611
 2108POPC   GL128417  26.135  31.182   9.250
 2108POPC   GL228418  25.771  31.192   9.229
 2108POPC   C1A28419  26.160  31.266   8.801
 2108POPC   D2A28420  26.377  31.553   8.495
 2108POPC   C3A28421  26.169  31.647   8.086
 2108POPC   C4A28422  26.079  31.232   7.878
 2108POPC   C1B28423  25.740  31.547   8.930
 2108POPC   C2B28424  25.850  31.515   8.471
 2108POPC   C3B28425  25.686  31.510   8.006
 2108POPC   C4B28426  25.923  31.672   7.616
 2109POPC   NC328427  44.065  15.865   9.459
 2109POPC   PO428428  43.581  16.328   9.574
 2109POPC   GL128429  43.463  16.043   9.224
 2109POPC   GL228430  43.756  15.853   9.058
 2109POPC   C1A28431  43.455  16.140   8.771
 2109POPC   D2A28432  43.550  16.248   8.334
 2109POPC   C3A28433  43.925  16.054   8.116
 2109POPC   C4A28434  44.175  16.100   7.727
 2109POPC   C1B28435  43.831  15.827   8.599
 2109POPC   C2B28436  43.513  15.672   8.307
 2109POPC   C3B28437  43.441  15.554   7.891
 2109POPC   C4B28438  43.774  15.716   7.686
 2110POPC   NC328439  20.322   6.289   9.828
 2110POPC   PO428440  20.567   5.704   9.611
 2110POPC   GL128441  20.514   5.825   9.195
 2110POPC   GL228442  20.792   6.017   9.178
 2110POPC   C1A28443  20.368   5.629   8.798
 2110POPC   D2A28444  20.621   5.599   8.426
 2110POPC   C3A28445  20.427   5.615   8.047
 2110POPC   C4A28446  20.631   5.859   7.824
 2110POPC   C1B28447  20.656   6.051   8.755
 2110POPC   C2B28448  20.740   6.117   8.327
 2110POPC   C3B28449  20.651   6.366   7.990
 2110POPC   C4B28450  20.438   6.255   7.581
 2111POPC   NC328451  36.169   6.116   9.547
 2111POPC   PO428452  36.418   5.530   9.475
 2111POPC   GL128453  36.274   5.752   9.134
 2111POPC   GL228454  36.440   6.063   9.112
 2111POPC   C1A28455  36.217   5.584   8.722
 2111POPC   D2A28456  35.962   5.742   8.379
 2111POPC   C3A28457  36.127   5.616   7.995
 2111POPC   C4A28458  35.928   5.838   7.611
 2111POPC   C1B28459  36.171   6.088   8.734
 2111POPC   C2B28460  36.135   6.226   8.278
 2111POPC   C3B28461  36.336   6.065   7.896
 2111POPC   C4B28462  36.486   6.207   7.506
 2112POPC   NC328463  36.189  26.637   9.504
 2112POPC   PO428464  36.452  27.245   9.480
 2112POPC   GL128465  36.272  26.996   9.157
 2112POPC   GL228466  35.917  26.862   9.138
 2112POPC   C1A28467  36.354  26.834   8.764
 2112POPC   D2A28468  36.269  26.829   8.341
 2112POPC   C3A28469  36.533  26.617   8.075
 2112POPC   C4A28470  36.579  26.568   7.643
 2112POPC   C1B28471  35.995  26.488   8.860
 2112POPC   C2B28472  35.816  26.543   8.456
 2112POPC   C3B28473  35.822  26.817   8.120
 2112POPC   C4B28474  36.133  26.774   7.798
 2113POPC   NC328475  23.349  37.112   9.469
 2113POPC   PO428476  23.978  36.976   9.513
 2113POPC   GL128477  23.761  36.886   9.154
 2113POPC   GL228478  23.720  37.255   9.108
 2113POPC   C1A28479  23.859  36.769   8.708
 2113POPC   D2A28480  24.004  36.917   8.291
 2113POPC   C3A28481  24.037  36.868   7.815
 2113POPC   C4A28482  23.987  37.048   7.381
 2113POPC   C1B28483  23.413  37.083   8.818
 2113POPC   C2B28484  23.451  36.910   8.413
 2113POPC   C3B28485  23.588  37.108   8.011
 2113POPC   C4B28486  23.554  36.913   7.630
 2114POPC   NC328487   0.828  37.643   9.438
 2114POPC   PO428488   1.451  37.351   9.545
 2114POPC   GL128489   1.528  37.448   9.114
 2114POPC   GL228490   1.229  37.649   9.077
 2114POPC   C1A28491   1.574  37.569   8.708
 2114POPC   D2A28492   1.329  37.593   8.366
 2114POPC   C3A28493   1.393  37.727   7.971
 2114POPC   C4A28494   1.314  37.539   7.611
 2114POPC   C1B28495   0.958  37.697   8.692
 2114POPC   C2B28496   0.900  37.848   8.244
 2114POPC   C3B28497   0.904  37.825   7.791
 2114POPC   C4B28498   0.747  37.958   7.375
 2115POPC   NC328499  12.578  40.231   9.487
 2115POPC   PO428500  13.164  39.982   9.516
 2115POPC   GL128501  13.020  39.915   9.100
 2115POPC   GL228502  12.669  40.044   9.007
 2115POPC   C1A28503  13.067  39.949   8.666
 2115POPC   D2A28504  12.873  40.260   8.451
 2115POPC   C3A28505  12.781  40.166   8.038
 2115POPC   C4A28506  12.510  40.409   7.774
 2115POPC   C1B28507  12.705  39.614   8.828
 2115POPC   C2B28508  12.817  39.574   8.430
 2115POPC   C3B28509  12.632  39.601   8.050
 2115POPC   C4B28510  12.538  39.881   7.684
 2116POPC   NC328511  31.259  41.221   9.434
 2116POPC   PO428512  31.956  41.329   9.424
 2116POPC   GL128513  31.634  41.703   9.233
 2116POPC   GL228514  31.337  41.595   9.098
 2116POPC   C1A28515  31.618  41.801   8.757
 2116POPC   D2A28516  31.603  41.547   8.329
 2116POPC   C3A28517  31.739  41.723   7.973
 2116POPC   C4A28518  32.082  41.971   7.854
 2116POPC   C1B28519  31.248  41.458   8.681
 2116POPC   C2B28520  31.120  41.520   8.225
 2116POPC   C3B28521  31.236  41.750   7.821
 2116POPC   C4B28522  31.132  41.793   7.372
 2117POPC   NC328523   0.963  44.606   9.664
 2117POPC   PO428524   0.843   0.167   9.470
 2117POPC   GL128525   0.796  44.805   9.191
 2117POPC   GL228526   1.151  44.676   9.175
 2117POPC   C1A28527   0.883  44.690   8.754
 2117POPC   D2A28528   1.111  44.733   8.331
 2117POPC   C3A28529   0.927  44.660   7.914
 2117POPC   C4A28530   0.928  44.398   7.553
 2117POPC   C1B28531   1.413  44.625   8.760
 2117POPC   C2B28532   1.594  44.550   8.313
 2117POPC   C3B28533   1.457  44.634   7.870
 2117POPC   C4B28534   1.694  44.813   7.505
 2118POPC   NC328535  41.148  13.841   9.453
 2118POPC   PO428536  40.400  13.649   9.542
 2118POPC   GL128537  40.750  13.560   9.260
 2118POPC   GL228538  40.807  13.891   9.072
 2118POPC   C1A28539  40.988  13.467   8.868
 2118POPC   D2A28540  40.792  13.615   8.464
 2118POPC   C3A28541  40.945  13.537   8.041
 2118POPC   C4A28542  40.846  13.396   7.623
 2118POPC   C1B28543  41.117  13.952   8.707
 2118POPC   C2B28544  40.993  14.036   8.258
 2118POPC   C3B28545  40.604  13.949   8.050
 2118POPC   C4B28546  40.480  13.832   7.657
 2119POPC   NC328547  20.543  22.758   9.686
 2119POPC   PO428548  20.623  23.343   9.772
 2119POPC   GL128549  20.634  23.077   9.309
 2119POPC   GL228550  20.324  22.889   9.256
 2119POPC   C1A28551  20.605  23.116   8.840
 2119POPC   D2A28552  20.825  23.029   8.464
 2119POPC   C3A28553  20.667  23.051   8.051
 2119POPC   C4A28554  20.939  23.032   7.680
 2119POPC   C1B28555  20.417  22.630   8.901
 2119POPC   C2B28556  20.368  22.761   8.470
 2119POPC   C3B28557  20.393  22.556   8.091
 2119POPC   C4B28558  20.438  22.702   7.698
 2120POPC   NC328559  11.165   1.909   9.560
 2120POPC   PO428560  11.520   2.460   9.500
 2120POPC   GL128561  11.408   2.148   9.161
 2120POPC   GL228562  11.031   2.095   9.110
 2120POPC   C1A28563  11.397   1.929   8.744
 2120POPC   D2A28564  11.387   1.735   8.317
 2120POPC   C3A28565  11.418   1.994   7.971
 2120POPC   C4A28566  11.445   1.901   7.530
 2120POPC   C1B28567  10.904   1.733   8.834
 2120POPC   C2B28568  10.866   1.588   8.384
 2120POPC   C3B28569  10.955   1.776   7.995
 2120POPC   C4B28570  10.989   1.684   7.562
 2121POPC   NC328571   9.166  36.182   9.586
 2121POPC   PO428572   8.506  36.005   9.598
 2121POPC   GL128573   8.801  36.041   9.256
 2121POPC   GL228574   8.750  36.353   9.134
 2121POPC   C1A28575   9.165  36.129   8.927
 2121POPC   D2A28576   9.404  36.308   8.559
 2121POPC   C3A28577   9.272  36.272   8.129
 2121POPC   C4A28578   9.068  35.974   7.850
 2121POPC   C1B28579   8.704  36.028   8.770
 2121POPC   C2B28580   8.808  36.023   8.351
 2121POPC   C3B28581   8.586  36.147   7.989
 2121POPC   C4B28582   8.811  36.435   7.784
 2122POPC   NC328583  30.246  12.916   9.480
 2122POPC   PO428584  29.647  12.643   9.402
 2122POPC   GL128585  29.802  12.824   9.049
 2122POPC   GL228586  30.148  12.754   9.035
 2122POPC   C1A28587  29.687  12.778   8.639
 2122POPC   D2A28588  29.510  12.955   8.271
 2122POPC   C3A28589  29.794  12.863   7.948
 2122POPC   C4A28590  30.198  12.955   7.773
 2122POPC   C1B28591  30.193  12.563   8.696
 2122POPC   C2B28592  30.098  12.673   8.306
 2122POPC   C3B28593  30.244  12.476   7.957
 2122POPC   C4B28594  30.427  12.530   7.558
 2123POPC   NC328595  25.242  21.805   9.269
 2123POPC   PO428596  25.283  22.495   9.250
 2123POPC   GL128597  25.278  22.209   8.957
 2123POPC   GL228598  24.940  22.124   9.028
 2123POPC   C1A28599  25.459  22.097   8.580
 2123POPC   D2A28600  25.562  21.971   8.195
 2123POPC   C3A28601  25.541  22.238   7.851
 2123POPC   C4A28602  25.483  21.967   7.494
 2123POPC   C1B28603  24.992  21.892   8.636
 2123POPC   C2B28604  25.066  22.027   8.213
 2123POPC   C3B28605  25.026  22.163   7.781
 2123POPC   C4B28606  24.753  22.391   7.452
 2124POPC   NC328607   8.906   8.559   9.523
 2124POPC   PO428608   9.294   7.930   9.477
 2124POPC   GL128609   9.054   8.146   9.195
 2124POPC   GL228610   9.211   8.473   9.139
 2124POPC   C1A28611   9.107   8.042   8.784
 2124POPC   D2A28612   8.865   8.030   8.411
 2124POPC   C3A28613   9.085   7.933   8.031
 2124POPC   C4A28614   8.832   8.061   7.684
 2124POPC   C1B28615   8.945   8.515   8.786
 2124POPC   C2B28616   8.988   8.649   8.398
 2124POPC   C3B28617   8.959   8.435   8.025
 2124POPC   C4B28618   8.882   8.591   7.637
 2125POPC   NC328619  41.873   2.627   9.749
 2125POPC   PO428620  42.476   2.785   9.441
 2125POPC   GL128621  42.390   2.791   8.979
 2125POPC   GL228622  42.154   2.482   8.837
 2125POPC   C1A28623  42.484   2.723   8.548
 2125POPC   D2A28624  42.247   2.562   8.264
 2125POPC   C3A28625  42.434   2.765   7.931
 2125POPC   C4A28626  42.099   2.764   7.669
 2125POPC   C1B28627  42.527   2.222   8.622
 2125POPC   C2B28628  42.548   2.142   8.189
 2125POPC   C3B28629  42.308   2.291   7.826
 2125POPC   C4B28630  42.448   2.230   7.380
 2126POPC   NC328631  25.437  28.658   9.433
 2126POPC   PO428632  25.080  29.236   9.399
 2126POPC   GL128633  25.402  29.234   9.112
 2126POPC   GL228634  25.281  28.928   8.986
 2126POPC   C1A28635  25.496  29.259   8.672
 2126POPC   D2A28636  25.435  28.993   8.291
 2126POPC   C3A28637  25.443  29.199   7.896
 2126POPC   C4A28638  25.420  29.246   7.447
 2126POPC   C1B28639  25.000  29.194   8.753
 2126POPC   C2B28640  25.018  29.283   8.325
 2126POPC   C3B28641  24.940  29.108   7.945
 2126POPC   C4B28642  24.921  29.330   7.556
 2127POPC   NC328643   0.520  32.553   9.427
 2127POPC   PO428644   0.124  32.080   9.756
 2127POPC   GL128645   0.442  31.961   9.304
 2127POPC   GL228646   0.611  32.239   9.063
 2127POPC   C1A28647   0.554  31.837   8.815
 2127POPC   D2A28648   0.268  31.982   8.477
 2127POPC   C3A28649   0.326  32.054   8.042
 2127POPC   C4A28650   0.626  31.926   7.755
 2127POPC   C1B28651   0.215  32.357   8.834
 2127POPC   C2B28652   0.248  32.499   8.400
 2127POPC   C3B28653   0.581  32.495   8.115
 2127POPC   C4B28654   0.699  32.594   7.744
 2128POPC   NC328655  32.985   4.666   9.383
 2128POPC   PO428656  32.604   4.014   9.586
 2128POPC   GL128657  32.952   4.160   9.290
 2128POPC   GL228658  32.727   4.325   9.122
 2128POPC   C1A28659  33.132   4.264   8.844
 2128POPC   D2A28660  33.105   4.468   8.414
 2128POPC   C3A28661  33.008   4.284   8.012
 2128POPC   C4A28662  33.167   4.230   7.599
 2128POPC   C1B28663  32.761   4.632   8.755
 2128POPC   C2B28664  32.712   4.794   8.334
 2128POPC   C3B28665  32.657   4.679   7.911
 2128POPC   C4B28666  32.869   4.769   7.527
 2129POPC   NC328667   5.843  31.366   9.507
 2129POPC   PO428668   5.473  32.029   9.454
 2129POPC   GL128669   5.765  31.770   9.202
 2129POPC   GL228670   6.142  31.681   9.228
 2129POPC   C1A28671   5.727  31.563   8.797
 2129POPC   D2A28672   5.635  31.733   8.403
 2129POPC   C3A28673   5.597  31.426   8.124
 2129POPC   C4A28674   5.689  31.286   7.713
 2129POPC   C1B28675   6.244  31.550   8.794
 2129POPC   C2B28676   6.089  31.400   8.390
 2129POPC   C3B28677   6.244  31.353   7.970
 2129POPC   C4B28678   6.337  31.665   7.667
 2130POPC   NC328679  44.845   4.205   9.476
 2130POPC   PO428680  44.203   4.391   9.459
 2130POPC   GL128681  44.483   4.299   9.137
 2130POPC   GL228682  44.685   4.596   9.203
 2130POPC   C1A28683  44.679   4.114   8.772
 2130POPC   D2A28684  44.985   4.109   8.416
 2130POPC   C3A28685  44.795   4.138   8.005
 2130POPC   C4A28686  44.442   4.140   7.740
 2130POPC   C1B28687  44.513   4.662   8.791
 2130POPC   C2B28688  44.610   4.471   8.404
 2130POPC   C3B28689  44.670   4.647   8.021
 2130POPC   C4B28690  44.494   4.655   7.644
 2131POPC   NC328691  40.933  19.594   9.549
 2131POPC   PO428692  40.602  20.185   9.529
 2131POPC   GL128693  40.704  19.917   9.197
 2131POPC   GL228694  40.519  19.600   9.199
 2131POPC   C1A28695  40.954  19.936   8.841
 2131POPC   D2A28696  40.781  20.013   8.456
 2131POPC   C3A28697  40.972  19.736   8.158
 2131POPC   C4A28698  41.002  19.803   7.705
 2131POPC   C1B28699  40.461  19.747   8.758
 2131POPC   C2B28700  40.477  19.634   8.300
 2131POPC   C3B28701  40.495  19.778   7.863
 2131POPC   C4B28702  40.602  19.601   7.442
 2132POPC   NC328703  29.858  19.191   9.560
 2132POPC   PO428704  30.480  18.765   9.596
 2132POPC   GL128705  30.181  18.933   9.241
 2132POPC   GL228706  29.947  18.680   9.120
 2132POPC   C1A28707  29.963  19.124   8.847
 2132POPC   D2A28708  29.826  19.103   8.390
 2132POPC   C3A28709  29.929  19.316   7.954
 2132POPC   C4A28710  30.029  19.270   7.477
 2132POPC   C1B28711  29.639  18.738   8.761
 2132POPC   C2B28712  29.627  18.581   8.332
 2132POPC   C3B28713  29.771  18.805   7.969
 2132POPC   C4B28714  29.649  19.003   7.614
 2133POPC   NC328715  34.697  31.844   9.410
 2133POPC   PO428716  34.571  32.481   9.310
 2133POPC   GL128717  34.704  32.179   9.026
 2133POPC   GL228718  34.338  32.129   9.007
 2133POPC   C1A28719  34.771  32.286   8.597
 2133POPC   D2A28720  34.413  32.516   8.409
 2133POPC   C3A28721  34.383  32.416   8.008
 2133POPC   C4A28722  34.718  32.212   7.833
 2133POPC   C1B28723  34.337  32.004   8.589
 2133POPC   C2B28724  34.506  31.744   8.260
 2133POPC   C3B28725  34.483  31.755   7.818
 2133POPC   C4B28726  34.197  32.051   7.712
 2134POPC   NC328727   7.926  19.557   9.274
 2134POPC   PO428728   8.434  19.691   9.640
 2134POPC   GL128729   8.391  19.807   9.166
 2134POPC   GL228730   8.292  19.549   8.915
 2134POPC   C1A28731   8.459  20.006   8.725
 2134POPC   D2A28732   8.579  19.793   8.333
 2134POPC   C3A28733   8.335  19.772   7.952
 2134POPC   C4A28734   8.262  20.059   7.602
 2134POPC   C1B28735   7.977  19.844   8.701
 2134POPC   C2B28736   8.098  20.039   8.330
 2134POPC   C3B28737   7.860  19.898   7.980
 2134POPC   C4B28738   7.951  19.674   7.541
 2135POPC   NC328739   8.381  11.588   9.733
 2135POPC   PO428740   8.051  11.061   9.483
 2135POPC   GL128741   8.139  11.143   9.069
 2135POPC   GL228742   7.846  11.291   9.028
 2135POPC   C1A28743   8.341  11.268   8.695
 2135POPC   D2A28744   8.530  11.445   8.310
 2135POPC   C3A28745   8.358  11.440   7.888
 2135POPC   C4A28746   8.520  11.190   7.566
 2135POPC   C1B28747   7.814  11.207   8.607
 2135POPC   C2B28748   8.058  11.202   8.236
 2135POPC   C3B28749   8.210  10.944   7.887
 2135POPC   C4B28750   8.206  10.812   7.441
 2136POPC   NC328751  42.381  43.307   9.585
 2136POPC   PO428752  42.604  42.698   9.493
 2136POPC   GL128753  42.327  42.973   9.208
 2136POPC   GL228754  42.482  43.322   9.107
 2136POPC   C1A28755  42.160  43.049   8.808
 2136POPC   D2A28756  42.375  43.023   8.408
 2136POPC   C3A28757  42.235  43.352   8.162
 2136POPC   C4A28758  42.222  43.385   7.717
 2136POPC   C1B28759  42.699  43.313   8.738
 2136POPC   C2B28760  42.834  43.287   8.342
 2136POPC   C3B28761  42.668  43.152   7.956
 2136POPC   C4B28762  42.698  43.318   7.558
 2137POPC   NC328763  10.131   4.877   9.543
 2137POPC   PO428764  10.398   5.434   9.452
 2137POPC   GL128765  10.507   5.250   9.028
 2137POPC   GL228766  10.433   4.877   9.077
 2137POPC   C1A28767  10.594   5.055   8.629
 2137POPC   D2A28768  10.310   4.909   8.339
 2137POPC   C3A28769  10.339   5.132   7.980
 2137POPC   C4A28770  10.681   5.412   7.889
 2137POPC   C1B28771  10.373   4.563   8.722
 2137POPC   C2B28772  10.569   4.472   8.310
 2137POPC   C3B28773  10.704   4.787   7.967
 2137POPC   C4B28774  10.460   4.809   7.570
 2138POPC   NC328775  16.325  19.375   9.515
 2138POPC   PO428776  16.968  19.142   9.538
 2138POPC   GL128777  16.797  19.217   9.139
 2138POPC   GL228778  16.793  18.852   9.109
 2138POPC   C1A28779  16.890  19.147   8.670
 2138POPC   D2A28780  17.069  19.080   8.259
 2138POPC   C3A28781  16.760  19.067   7.911
 2138POPC   C4A28782  16.308  19.250   7.908
 2138POPC   C1B28783  17.023  18.657   8.762
 2138POPC   C2B28784  17.116  18.562   8.317
 2138POPC   C3B28785  16.895  18.552   7.899
 2138POPC   C4B28786  16.683  18.516   7.477
 2139POPC   NC328787  30.557   9.834   9.639
 2139POPC   PO428788  30.347  10.349   9.676
 2139POPC   GL128789  30.503  10.050   9.184
 2139POPC   GL228790  30.745   9.751   9.163
 2139POPC   C1A28791  30.761  10.007   8.735
 2139POPC   D2A28792  30.771   9.749   8.350
 2139POPC   C3A28793  30.763   9.882   7.926
 2139POPC   C4A28794  30.520  10.202   7.766
 2139POPC   C1B28795  30.802   9.469   8.777
 2139POPC   C2B28796  30.974   9.295   8.371
 2139POPC   C3B28797  30.900   9.376   7.914
 2139POPC   C4B28798  30.991   9.340   7.459
 2140POPC   NC328799  29.507  32.886   9.561
 2140POPC   PO428800  29.987  33.352   9.392
 2140POPC   GL128801  29.769  33.094   9.150
 2140POPC   GL228802  29.665  33.304   8.898
 2140POPC   C1A28803  29.814  32.794   8.822
 2140POPC   D2A28804  29.608  32.757   8.429
 2140POPC   C3A28805  29.849  32.705   8.057
 2140POPC   C4A28806  30.253  32.727   7.810
 2140POPC   C1B28807  30.130  33.220   8.761
 2140POPC   C2B28808  30.306  33.046   8.369
 2140POPC   C3B28809  30.083  33.155   8.004
 2140POPC   C4B28810  29.710  33.132   7.821
 2141POPC   NC328811  25.600  40.836   9.720
 2141POPC   PO428812  25.035  40.528   9.593
 2141POPC   GL128813  25.075  40.602   9.150
 2141POPC   GL228814  25.411  40.605   9.077
 2141POPC   C1A28815  25.067  40.869   8.780
 2141POPC   D2A28816  25.360  40.897   8.448
 2141POPC   C3A28817  25.157  40.954   8.074
 2141POPC   C4A28818  25.148  40.807   7.676
 2141POPC   C1B28819  25.344  40.421   8.723
 2141POPC   C2B28820  25.522  40.401   8.357
 2141POPC   C3B28821  25.484  40.570   8.002
 2141POPC   C4B28822  25.504  40.353   7.650
 2142POPC   NC328823   7.334  16.289   9.331
 2142POPC   PO428824   7.187  16.890   9.474
 2142POPC   GL128825   7.536  16.759   9.205
 2142POPC   GL228826   7.585  17.058   9.043
 2142POPC   C1A28827   7.619  16.610   8.778
 2142POPC   D2A28828   7.400  16.717   8.392
 2142POPC   C3A28829   7.326  16.464   8.042
 2142POPC   C4A28830   7.617  16.593   7.772
 2142POPC   C1B28831   7.172  16.924   8.807
 2142POPC   C2B28832   6.959  16.969   8.383
 2142POPC   C3B28833   7.160  16.979   7.961
 2142POPC   C4B28834   7.086  17.179   7.561
 2143POPC   NC328835  24.057  26.590   9.384
 2143POPC   PO428836  24.555  27.050   9.422
 2143POPC   GL128837  24.396  26.897   9.129
 2143POPC   GL228838  24.506  26.591   9.163
 2143POPC   C1A28839  24.587  26.924   8.740
 2143POPC   D2A28840  24.607  27.278   8.468
 2143POPC   C3A28841  24.571  27.078   8.089
 2143POPC   C4A28842  24.586  27.178   7.671
 2143POPC   C1B28843  24.557  26.409   8.769
 2143POPC   C2B28844  24.766  26.551   8.396
 2143POPC   C3B28845  24.714  26.380   8.003
 2143POPC   C4B28846  24.474  26.665   7.764
 2144POPC   NC328847  22.321  21.944   9.475
 2144POPC   PO428848  22.012  22.544   9.654
 2144POPC   GL128849  22.143  22.350   9.219
 2144POPC   GL228850  22.464  22.174   9.059
 2144POPC   C1A28851  22.117  22.402   8.770
 2144POPC   D2A28852  22.149  22.288   8.364
 2144POPC   C3A28853  22.255  22.501   8.037
 2144POPC   C4A28854  22.309  22.448   7.598
 2144POPC   C1B28855  22.486  22.010   8.641
 2144POPC   C2B28856  22.603  22.113   8.226
 2144POPC   C3B28857  22.314  22.008   7.932
 2144POPC   C4B28858  22.007  21.715   7.843
 2145POPC   NC328859  17.373  31.612   9.529
 2145POPC   PO428860  17.925  31.275   9.406
 2145POPC   GL128861  17.694  31.577   9.132
 2145POPC   GL228862  17.288  31.549   9.037
 2145POPC   C1A28863  17.650  31.697   8.714
 2145POPC   D2A28864  17.414  31.459   8.388
 2145POPC   C3A28865  17.539  31.473   7.962
 2145POPC   C4A28866  17.861  31.444   7.642
 2145POPC   C1B28867  17.120  31.775   8.658
 2145POPC   C2B28868  16.943  31.650   8.240
 2145POPC   C3B28869  17.138  31.827   7.857
 2145POPC   C4B28870  17.583  31.975   7.741
 2146POPC   NC328871  27.715  26.604   9.543
 2146POPC   PO428872  27.433  27.148   9.683
 2146POPC   GL128873  27.616  27.045   9.263
 2146POPC   GL228874  27.343  27.243   9.140
 2146POPC   C1A28875  27.881  26.815   8.897
 2146POPC   D2A28876  27.733  26.716   8.491
 2146POPC   C3A28877  27.885  26.855   8.097
 2146POPC   C4A28878  27.630  26.898   7.746
 2146POPC   C1B28879  27.399  26.970   8.801
 2146POPC   C2B28880  27.254  26.887   8.412
 2146POPC   C3B28881  27.178  26.847   8.021
 2146POPC   C4B28882  27.135  26.989   7.619
 2147POPC   NC328883  19.490  10.912   9.486
 2147POPC   PO428884  18.944  10.434   9.452
 2147POPC   GL128885  18.896  10.593   9.039
 2147POPC   GL228886  19.162  10.864   9.074
 2147POPC   C1A28887  18.851  10.422   8.613
 2147POPC   D2A28888  18.817  10.043   8.322
 2147POPC   C3A28889  18.828  10.260   7.929
 2147POPC   C4A28890  19.014  10.583   7.708
 2147POPC   C1B28891  19.322  10.649   8.693
 2147POPC   C2B28892  19.262  10.459   8.246
 2147POPC   C3B28893  19.352  10.218   7.846
 2147POPC   C4B28894  19.327  10.272   7.392
 2148POPC   NC328895   4.738   9.126   9.313
 2148POPC   PO428896   5.362   8.823   9.622
 2148POPC   GL128897   5.276   9.042   9.232
 2148POPC   GL228898   5.322   8.739   9.058
 2148POPC   C1A28899   5.156   9.154   8.788
 2148POPC   D2A28900   4.864   8.990   8.443
 2148POPC   C3A28901   5.056   8.982   8.017
 2148POPC   C4A28902   4.862   9.021   7.625
 2148POPC   C1B28903   5.251   8.649   8.609
 2148POPC   C2B28904   5.492   8.636   8.219
 2148POPC   C3B28905   5.471   8.669   7.773
 2148POPC   C4B28906   5.213   8.744   7.392
 2149POPC   NC328907  24.370  37.633   9.825
 2149POPC   PO428908  24.705  37.499   9.293
 2149POPC   GL128909  24.540  37.750   9.062
 2149POPC   GL228910  24.348  37.537   8.894
 2149POPC   C1A28911  24.618  37.964   8.697
 2149POPC   D2A28912  24.331  38.016   8.359
 2149POPC   C3A28913  24.336  37.800   7.988
 2149POPC   C4A28914  24.663  37.697   7.708
 2149POPC   C1B28915  24.715  37.467   8.626
 2149POPC   C2B28916  24.734  37.491   8.187
 2149POPC   C3B28917  24.678  37.201   7.885
 2149POPC   C4B28918  24.429  37.229   7.552
 2150POPC   NC328919  32.091  23.009   9.569
 2150POPC   PO428920  32.459  22.443   9.482
 2150POPC   GL128921  32.392  22.820   9.195
 2150POPC   GL228922  32.609  23.133   9.236
 2150POPC   C1A28923  32.191  22.994   8.837
 2150POPC   D2A28924  31.924  23.060   8.480
 2150POPC   C3A28925  32.096  22.986   8.073
 2150POPC   C4A28926  31.811  23.120   7.737
 2150POPC   C1B28927  32.565  23.347   8.840
 2150POPC   C2B28928  32.401  23.262   8.436
 2150POPC   C3B28929  32.556  23.209   8.031
 2150POPC   C4B28930  32.285  23.309   7.709
 2151POPC   NC328931  15.855  11.554   9.593
 2151POPC   PO428932  15.694  10.894   9.646
 2151POPC   GL128933  15.822  11.079   9.251
 2151POPC   GL228934  15.860  11.420   9.111
 2151POPC   C1A28935  15.709  10.987   8.821
 2151POPC   D2A28936  15.691  10.907   8.367
 2151POPC   C3A28937  15.876  11.216   8.086
 2151POPC   C4A28938  16.052  11.175   7.668
 2151POPC   C1B28939  16.024  11.693   8.838
 2151POPC   C2B28940  16.118  11.511   8.465
 2151POPC   C3B28941  16.179  11.672   8.080
 2151POPC   C4B28942  16.023  11.737   7.714
 2152POPC   NC328943  20.419  10.619   9.714
 2152POPC   PO428944  19.649  10.485   9.586
 2152POPC   GL128945  19.759  10.552   9.129
 2152POPC   GL228946  20.090  10.408   9.020
 2152POPC   C1A28947  19.847  10.642   8.670
 2152POPC   D2A28948  19.711  10.789   8.295
 2152POPC   C3A28949  19.762  10.461   8.048
 2152POPC   C4A28950  19.647  10.606   7.687
 2152POPC   C1B28951  20.339  10.500   8.638
 2152POPC   C2B28952  20.235  10.624   8.269
 2152POPC   C3B28953  20.144  10.781   7.921
 2152POPC   C4B28954  20.149  10.474   7.654
 2153POPC   NC328955  32.582  43.231   9.528
 2153POPC   PO428956  31.958  43.039   9.496
 2153POPC   GL128957  32.255  42.946   9.188
 2153POPC   GL228958  32.332  43.270   9.082
 2153POPC   C1A28959  32.312  42.859   8.762
 2153POPC   D2A28960  32.483  42.845   8.375
 2153POPC   C3A28961  32.296  42.899   7.999
 2153POPC   C4A28962  32.130  42.930   7.611
 2153POPC   C1B28963  32.310  43.403   8.660
 2153POPC   C2B28964  32.447  43.333   8.253
 2153POPC   C3B28965  32.365  43.374   7.819
 2153POPC   C4B28966  32.428  43.631   7.484
 2154POPC   NC328967   4.590  27.638   9.392
 2154POPC   PO428968   3.902  27.836   9.336
 2154POPC   GL128969   4.232  27.718   8.993
 2154POPC   GL228970   4.500  27.439   8.900
 2154POPC   C1A28971   4.136  27.706   8.575
 2154POPC   D2A28972   4.299  27.841   8.220
 2154POPC   C3A28973   4.188  27.696   7.808
 2154POPC   C4A28974   4.268  27.955   7.448
 2154POPC   C1B28975   4.207  27.212   8.636
 2154POPC   C2B28976   4.154  27.324   8.217
 2154POPC   C3B28977   4.305  27.211   7.846
 2154POPC   C4B28978   3.928  27.228   7.618
 2155POPC   NC328979   1.450  33.870   9.598
 2155POPC   PO428980   1.206  34.329   9.265
 2155POPC   GL128981   1.429  34.038   9.052
 2155POPC   GL228982   1.352  33.673   9.121
 2155POPC   C1A28983   1.356  34.072   8.614
 2155POPC   D2A28984   1.107  34.187   8.275
 2155POPC   C3A28985   1.295  33.990   7.951
 2155POPC   C4A28986   1.681  33.949   7.783
 2155POPC   C1B28987   1.056  33.683   8.767
 2155POPC   C2B28988   1.175  33.649   8.339
 2155POPC   C3B28989   1.364  33.507   7.947
 2155POPC   C4B28990   1.094  33.402   7.668
 2156POPC   NC328991  40.357  23.330   9.276
 2156POPC   PO428992  39.894  23.726   9.697
 2156POPC   GL128993  39.860  23.719   9.241
 2156POPC   GL228994  39.643  23.977   9.139
 2156POPC   C1A28995  39.900  23.577   8.835
 2156POPC   D2A28996  39.795  23.475   8.395
 2156POPC   C3A28997  40.158  23.650   8.153
 2156POPC   C4A28998  40.226  23.653   7.709
 2156POPC   C1B28999  39.551  23.881   8.672
 2156POPC   C2B29000  39.770  23.960   8.269
 2156POPC   C3B29001  39.762  23.838   7.828
 2156POPC   C4B29002  39.937  24.076   7.490
 2157POPC   NC329003  40.082  24.113   9.527
 2157POPC   PO429004  40.319  24.800   9.486
 2157POPC   GL129005  40.168  24.727   9.089
 2157POPC   GL229006  39.986  24.400   9.122
 2157POPC   C1A29007  39.931  24.673   8.725
 2157POPC   D2A29008  39.875  24.449   8.358
 2157POPC   C3A29009  40.013  24.628   7.996
 2157POPC   C4A29010  40.241  24.788   7.651
 2157POPC   C1B29011  40.012  24.132   8.761
 2157POPC   C2B29012  40.284  24.122   8.384
 2157POPC   C3B29013  40.178  24.144   7.949
 2157POPC   C4B29014  40.422  24.298   7.598
 2158POPC   NC329015  36.571  17.103   9.532
 2158POPC   PO429016  36.160  16.491   9.532
 2158POPC   GL129017  36.171  16.712   9.145
 2158POPC   GL229018  35.908  16.951   9.111
 2158POPC   C1A29019  36.351  16.698   8.721
 2158POPC   D2A29020  36.123  16.490   8.376
 2158POPC   C3A29021  36.253  16.634   7.976
 2158POPC   C4A29022  35.933  16.582   7.706
 2158POPC   C1B29023  35.857  16.816   8.703
 2158POPC   C2B29024  36.105  16.999   8.352
 2158POPC   C3B29025  35.952  17.056   7.944
 2158POPC   C4B29026  36.116  17.115   7.550
 2159POPC   NC329027  19.888  27.320   9.435
 2159POPC   PO429028  19.347  27.748   9.534
 2159POPC   GL129029  19.718  27.763   9.210
 2159POPC   GL229030  19.936  27.486   8.970
 2159POPC   C1A29031  19.961  27.975   8.889
 2159POPC   D2A29032  19.876  27.748   8.514
 2159POPC   C3A29033  19.907  27.924   8.085
 2159POPC   C4A29034  19.818  27.744   7.681
 2159POPC   C1B29035  20.289  27.305   8.683
 2159POPC   C2B29036  20.218  27.193   8.213
 2159POPC   C3B29037  20.190  27.433   7.808
 2159POPC   C4B29038  20.300  27.327   7.371
 2160POPC   NC329039  25.446  43.437   9.478
 2160POPC   PO429040  24.984  42.939   9.545
 2160POPC   GL129041  25.132  43.091   9.164
 2160POPC   GL229042  25.428  42.928   9.200
 2160POPC   C1A29043  25.372  43.305   8.827
 2160POPC   D2A29044  25.513  43.138   8.410
 2160POPC   C3A29045  25.221  43.205   8.077
 2160POPC   C4A29046  24.816  43.017   7.994
 2160POPC   C1B29047  25.392  42.788   8.806
 2160POPC   C2B29048  25.572  42.625   8.457
 2160POPC   C3B29049  25.478  42.743   8.065
 2160POPC   C4B29050  25.348  42.881   7.677
 2161POPC   NC329051  17.860  24.399   9.406
 2161POPC   PO429052  17.182  24.490   9.313
 2161POPC   GL129053  17.418  24.868   9.123
 2161POPC   GL229054  17.789  24.894   9.146
 2161POPC   C1A29055  17.311  24.895   8.698
 2161POPC   D2A29056  17.318  24.541   8.422
 2161POPC   C3A29057  17.415  24.662   8.022
 2161POPC   C4A29058  17.289  24.460   7.664
 2161POPC   C1B29059  17.692  24.554   8.821
 2161POPC   C2B29060  17.810  24.321   8.473
 2161POPC   C3B29061  17.904  24.464   8.087
 2161POPC   C4B29062  17.806  24.586   7.682
 2162POPC   NC329063  32.441  38.329   9.544
 2162POPC   PO429064  32.069  38.654   9.142
 2162POPC   GL129065  32.437  38.440   8.986
 2162POPC   GL229066  32.616  38.138   9.115
 2162POPC   C1A29067  32.347  38.382   8.563
 2162POPC   D2A29068  31.970  38.417   8.321
 2162POPC   C3A29069  32.052  38.515   7.903
 2162POPC   C4A29070  32.298  38.363   7.632
 2162POPC   C1B29071  32.503  37.926   8.751
 2162POPC   C2B29072  32.551  38.005   8.303
 2162POPC   C3B29073  32.426  37.963   7.891
 2162POPC   C4B29074  32.805  38.040   7.660
 2163POPC   NC329075  15.113  21.573   9.519
 2163POPC   PO429076  15.658  21.758   9.318
 2163POPC   GL129077  15.357  21.700   9.020
 2163POPC   GL229078  14.990  21.677   9.039
 2163POPC   C1A29079  15.276  21.662   8.590
 2163POPC   D2A29080  15.193  21.365   8.274
 2163POPC   C3A29081  15.288  21.287   7.851
 2163POPC   C4A29082  15.535  20.929   7.848
 2163POPC   C1B29083  14.782  21.546   8.678
 2163POPC   C2B29084  14.691  21.382   8.311
 2163POPC   C3B29085  14.818  21.086   8.010
 2163POPC   C4B29086  14.860  21.151   7.570
 2164POPC   NC329087  23.612  30.881   9.425
 2164POPC   PO429088  23.952  30.394   9.446
 2164POPC   GL129089  23.761  30.558   9.087
 2164POPC   GL229090  23.375  30.502   9.089
 2164POPC   C1A29091  23.872  30.786   8.759
 2164POPC   D2A29092  23.761  30.885   8.366
 2164POPC   C3A29093  24.020  30.774   8.039
 2164POPC   C4A29094  23.889  30.906   7.689
 2164POPC   C1B29095  23.455  30.505   8.613
 2164POPC   C2B29096  23.581  30.455   8.142
 2164POPC   C3B29097  23.420  30.625   7.728
 2164POPC   C4B29098  23.315  30.463   7.310
 2165POPC   NC329099  14.092  27.015   9.535
 2165POPC   PO429100  14.644  26.669   9.398
 2165POPC   GL129101  14.515  26.850   9.038
 2165POPC   GL229102  14.300  27.080   9.092
 2165POPC   C1A29103  14.416  26.820   8.628
 2165POPC   D2A29104  14.282  26.524   8.338
 2165POPC   C3A29105  14.483  26.494   7.963
 2165POPC   C4A29106  14.346  26.709   7.580
 2165POPC   C1B29107  13.964  27.024   8.818
 2165POPC   C2B29108  14.004  26.993   8.379
 2165POPC   C3B29109  14.289  26.990   8.041
 2165POPC   C4B29110  14.137  27.231   7.721
 2166POPC   NC329111   8.911  18.016   9.404
 2166POPC   PO429112   9.028  18.738   9.472
 2166POPC   GL129113   8.856  18.493   9.169
 2166POPC   GL229114   9.195  18.384   9.078
 2166POPC   C1A29115   8.775  18.297   8.778
 2166POPC   D2A29116   8.767  18.000   8.443
 2166POPC   C3A29117   8.869  18.230   8.098
 2166POPC   C4A29118   8.878  18.302   7.683
 2166POPC   C1B29119   9.119  18.703   8.752
 2166POPC   C2B29120   8.921  18.664   8.373
 2166POPC   C3B29121   9.097  18.668   7.963
 2166POPC   C4B29122   9.237  18.632   7.567
 2167POPC   NC329123   4.090  10.510   9.513
 2167POPC   PO429124   4.730  10.426   9.553
 2167POPC   GL129125   4.480  10.323   9.192
 2167POPC   GL229126   4.341  10.656   9.094
 2167POPC   C1A29127   4.297  10.238   8.779
 2167POPC   D2A29128   4.107  10.356   8.423
 2167POPC   C3A29129   4.329  10.281   8.068
 2167POPC   C4A29130   4.187  10.508   7.751
 2167POPC   C1B29131   4.313  10.773   8.666
 2167POPC   C2B29132   4.396  11.062   8.364
 2167POPC   C3B29133   4.714  11.011   8.081
 2167POPC   C4B29134   4.616  10.729   7.837
 2168POPC   NC329135  13.448   2.289   9.287
 2168POPC   PO429136  12.806   2.057   9.536
 2168POPC   GL129137  12.850   1.867   9.159
 2168POPC   GL229138  12.480   1.809   9.151
 2168POPC   C1A29139  12.992   2.070   8.772
 2168POPC   D2A29140  12.959   1.851   8.368
 2168POPC   C3A29141  13.144   2.041   8.031
 2168POPC   C4A29142  12.791   2.113   7.771
 2168POPC   C1B29143  12.554   1.786   8.717
 2168POPC   C2B29144  12.349   2.009   8.392
 2168POPC   C3B29145  12.345   2.005   7.977
 2168POPC   C4B29146  12.520   1.679   7.740
 2169POPC   NC329147   9.676  12.347   9.515
 2169POPC   PO429148  10.131  11.937   9.605
 2169POPC   GL129149   9.880  11.971   9.230
 2169POPC   GL229150   9.807  11.671   9.079
 2169POPC   C1A29151   9.656  12.148   8.871
 2169POPC   D2A29152   9.544  12.014   8.474
 2169POPC   C3A29153   9.564  12.190   8.064
 2169POPC   C4A29154   9.458  12.090   7.619
 2169POPC   C1B29155  10.028  11.810   8.732
 2169POPC   C2B29156  10.075  11.992   8.361
 2169POPC   C3B29157   9.985  11.906   7.990
 2169POPC   C4B29158   9.953  11.990   7.585
 2170POPC   NC329159   1.344  12.666   9.943
 2170POPC   PO429160   1.111  13.086   9.457
 2170POPC   GL129161   1.208  12.948   9.076
 2170POPC   GL229162   1.371  12.651   9.203
 2170POPC   C1A29163   1.144  13.129   8.668
 2170POPC   D2A29164   1.013  12.965   8.287
 2170POPC   C3A29165   1.011  13.097   7.854
 2170POPC   C4A29166   0.706  13.013   7.497
 2170POPC   C1B29167   1.436  12.600   8.752
 2170POPC   C2B29168   1.423  12.626   8.306
 2170POPC   C3B29169   1.171  12.557   7.984
 2170POPC   C4B29170   1.290  12.531   7.586
 2171POPC   NC329171  27.757  22.253   9.755
 2171POPC   PO429172  28.401  21.985   9.475
 2171POPC   GL129173  28.581  22.071   9.061
 2171POPC   GL229174  28.285  22.198   8.989
 2171POPC   C1A29175  28.537  22.135   8.573
 2171POPC   D2A29176  28.682  22.316   8.228
 2171POPC   C3A29177  28.501  22.068   7.915
 2171POPC   C4A29178  28.371  22.088   7.515
 2171POPC   C1B29179  28.061  22.350   8.662
 2171POPC   C2B29180  28.129  22.220   8.259
 2171POPC   C3B29181  28.072  22.359   7.857
 2171POPC   C4B29182  28.223  22.577   7.508
 2172POPC   NC329183   6.822  43.269   9.479
 2172POPC   PO429184   6.247  42.813   9.487
 2172POPC   GL129185   6.542  42.722   9.137
 2172POPC   GL229186   6.908  42.825   9.158
 2172POPC   C1A29187   6.659  42.853   8.709
 2172POPC   D2A29188   6.695  43.242   8.449
 2172POPC   C3A29189   6.714  43.128   8.016
 2172POPC   C4A29190   6.726  43.413   7.707
 2172POPC   C1B29191   7.071  43.104   8.813
 2172POPC   C2B29192   7.177  43.089   8.382
 2172POPC   C3B29193   7.143  43.402   8.050
 2172POPC   C4B29194   7.203  43.276   7.653
 2173POPC   NC329195  28.340  42.040   9.712
 2173POPC   PO429196  28.419  41.314   9.728
 2173POPC   GL129197  28.405  41.598   9.238
 2173POPC   GL229198  28.609  41.869   9.197
 2173POPC   C1A29199  28.208  41.546   8.823
 2173POPC   D2A29200  28.280  41.453   8.402
 2173POPC   C3A29201  28.112  41.678   8.072
 2173POPC   C4A29202  28.086  41.319   7.810
 2173POPC   C1B29203  28.605  41.839   8.771
 2173POPC   C2B29204  28.398  42.002   8.398
 2173POPC   C3B29205  28.524  41.965   7.958
 2173POPC   C4B29206  28.367  41.696   7.610
 2174POPC   NC329207  16.218  21.032   9.267
 2174POPC   PO429208  15.983  20.462   9.627
 2174POPC   GL129209  15.913  20.626   9.206
 2174POPC   GL229210  16.237  20.532   9.172
 2174POPC   C1A29211  16.010  20.682   8.753
 2174POPC   D2A29212  16.129  20.744   8.358
 2174POPC   C3A29213  15.843  20.629   8.128
 2174POPC   C4A29214  16.008  20.657   7.781
 2174POPC   C1B29215  16.339  20.263   8.871
 2174POPC   C2B29216  16.188  20.255   8.487
 2174POPC   C3B29217  16.195  20.259   8.089
 2174POPC   C4B29218  16.237  20.223   7.653
 2175POPC   NC329219  19.202  39.111   9.627
 2175POPC   PO429220  19.073  38.393   9.520
 2175POPC   GL129221  19.256  38.559   9.172
 2175POPC   GL229222  18.982  38.469   9.015
 2175POPC   C1A29223  19.251  38.789   8.766
 2175POPC   D2A29224  19.011  38.673   8.423
 2175POPC   C3A29225  19.187  38.577   8.034
 2175POPC   C4A29226  19.342  38.748   7.645
 2175POPC   C1B29227  19.293  38.261   8.755
 2175POPC   C2B29228  19.182  38.012   8.397
 2175POPC   C3B29229  19.003  38.088   7.999
 2175POPC   C4B29230  19.138  38.268   7.619
 2176POPC   NC329231  25.816  20.432   9.355
 2176POPC   PO429232  26.162  20.976   9.617
 2176POPC   GL129233  26.014  20.878   9.173
 2176POPC   GL229234  26.246  20.621   9.154
 2176POPC   C1A29235  25.945  20.632   8.741
 2176POPC   D2A29236  25.952  20.343   8.372
 2176POPC   C3A29237  25.931  20.557   7.980
 2176POPC   C4A29238  25.717  20.628   7.582
 2176POPC   C1B29239  26.449  20.547   8.755
 2176POPC   C2B29240  26.370  20.607   8.319
 2176POPC   C3B29241  26.461  20.392   7.922
 2176POPC   C4B29242  26.441  20.417   7.426
 2177POPC   NC329243  44.928  12.562   9.363
 2177POPC   PO429244  44.906  11.906   9.531
 2177POPC   GL129245  44.634  11.933   9.189
 2177POPC   GL229246  44.439  12.249   9.244
 2177POPC   C1A29247  44.694  12.113   8.802
 2177POPC   D2A29248  44.788  12.135   8.404
 2177POPC   C3A29249  44.651  12.057   8.022
 2177POPC   C4A29250  44.964  11.895   7.795
 2177POPC   C1B29251  44.409  12.511   8.858
 2177POPC   C2B29252  44.377  12.474   8.405
 2177POPC   C3B29253  44.395  12.561   7.957
 2177POPC   C4B29254  44.392  12.284   7.621
 2178POPC   NC329255  41.466  36.297   9.604
 2178POPC   PO429256  41.925  36.745   9.545
 2178POPC   GL129257  41.589  36.881   9.221
 2178POPC   GL229258  41.259  36.715   9.295
 2178POPC   C1A29259  41.664  37.051   8.778
 2178POPC   D2A29260  41.983  36.893   8.477
 2178POPC   C3A29261  41.746  36.601   8.218
 2178POPC   C4A29262  41.633  36.633   7.804
 2178POPC   C1B29263  41.172  36.926   8.904
 2178POPC   C2B29264  41.261  36.898   8.461
 2178POPC   C3B29265  41.252  36.868   8.035
 2178POPC   C4B29266  41.387  37.159   7.706
 2179POPC   NC329267   3.332  12.955   9.416
 2179POPC   PO429268   3.876  12.719   9.732
 2179POPC   GL129269   3.766  12.754   9.240
 2179POPC   GL229270   4.019  12.666   8.992
 2179POPC   C1A29271   3.556  12.841   8.824
 2179POPC   D2A29272   3.522  13.083   8.435
 2179POPC   C3A29273   3.221  12.944   8.140
 2179POPC   C4A29274   3.337  12.888   7.720
 2179POPC   C1B29275   3.980  12.544   8.557
 2179POPC   C2B29276   4.047  12.694   8.136
 2179POPC   C3B29277   3.788  12.628   7.782
 2179POPC   C4B29278   3.838  12.921   7.466
 2180POPC   NC329279  42.523  33.601   9.429
 2180POPC   PO429280  41.915  33.419   9.202
 2180POPC   GL129281  42.210  33.617   9.022
 2180POPC   GL229282  42.285  33.960   9.117
 2180POPC   C1A29283  42.111  33.714   8.648
 2180POPC   D2A29284  42.324  33.824   8.320
 2180POPC   C3A29285  42.238  33.646   7.926
 2180POPC   C4A29286  42.183  33.918   7.569
 2180POPC   C1B29287  42.598  33.888   8.766
 2180POPC   C2B29288  42.821  33.937   8.368
 2180POPC   C3B29289  42.652  33.963   7.945
 2180POPC   C4B29290  42.662  34.151   7.547
 2181POPC   NC329291  43.700  10.845   9.422
 2181POPC   PO429292  44.233  10.425   9.514
 2181POPC   GL129293  43.951  10.435   9.203
 2181POPC   GL229294  44.075  10.753   9.079
 2181POPC   C1A29295  43.772  10.376   8.807
 2181POPC   D2A29296  43.780  10.628   8.439
 2181POPC   C3A29297  43.584  10.415   8.094
 2181POPC   C4A29298  43.456  10.431   7.656
 2181POPC   C1B29299  44.087  11.003   8.696
 2181POPC   C2B29300  44.230  10.930   8.278
 2181POPC   C3B29301  43.967  10.757   7.978
 2181POPC   C4B29302  43.559  10.893   7.891
 2182POPC   NC329303   4.489  14.101   9.589
 2182POPC   PO429304   4.115  14.632   9.533
 2182POPC   GL129305   4.357  14.515   9.212
 2182POPC   GL229306   4.127  14.250   9.137
 2182POPC   C1A29307   4.523  14.357   8.816
 2182POPC   D2A29308   4.387  14.246   8.399
 2182POPC   C3A29309   4.590  14.222   8.042
 2182POPC   C4A29310   4.671  14.400   7.691
 2182POPC   C1B29311   4.034  14.447   8.706
 2182POPC   C2B29312   3.961  14.520   8.229
 2182POPC   C3B29313   4.141  14.406   7.798
 2182POPC   C4B29314   4.012  14.045   7.486
 2183POPC   NC329315  21.536  26.226   9.203
 2183POPC   PO429316  21.665  25.624   9.444
 2183POPC   GL129317  21.336  25.750   9.084
 2183POPC   GL229318  20.963  25.684   9.094
 2183POPC   C1A29319  21.183  26.018   8.728
 2183POPC   D2A29320  21.482  26.227   8.488
 2183POPC   C3A29321  21.447  26.009   8.109
 2183POPC   C4A29322  21.318  26.116   7.686
 2183POPC   C1B29323  20.933  25.585   8.639
 2183POPC   C2B29324  21.062  25.670   8.204
 2183POPC   C3B29325  20.878  25.841   7.814
 2183POPC   C4B29326  21.064  25.881   7.332
 2184POPC   NC329327  35.005  39.683   9.556
 2184POPC   PO429328  35.354  40.267   9.425
 2184POPC   GL129329  35.447  40.043   9.062
 2184POPC   GL229330  35.168  39.784   9.077
 2184POPC   C1A29331  35.363  40.027   8.616
 2184POPC   D2A29332  35.426  40.240   8.232
 2184POPC   C3A29333  35.511  39.987   7.872
 2184POPC   C4A29334  35.699  39.591   7.799
 2184POPC   C1B29335  35.080  39.611   8.654
 2184POPC   C2B29336  35.163  39.747   8.202
 2184POPC   C3B29337  35.036  39.754   7.746
 2184POPC   C4B29338  34.884  39.655   7.291
 2185POPC   NC329339  17.790  34.948   9.795
 2185POPC   PO429340  17.433  35.378   9.506
 2185POPC   GL129341  17.624  35.239   9.133
 2185POPC   GL229342  17.319  35.055   9.095
 2185POPC   C1A29343  17.601  35.087   8.681
 2185POPC   D2A29344  17.507  34.786   8.342
 2185POPC   C3A29345  17.579  34.979   7.981
 2185POPC   C4A29346  17.548  35.201   7.634
 2185POPC   C1B29347  17.220  35.462   8.869
 2185POPC   C2B29348  17.129  35.684   8.498
 2185POPC   C3B29349  17.348  35.627   8.105
 2185POPC   C4B29350  17.175  35.604   7.702
 2186POPC   NC329351  43.736   0.236   9.665
 2186POPC   PO429352  44.217   0.669   9.486
 2186POPC   GL129353  43.984   0.630   9.130
 2186POPC   GL229354  43.785   0.319   9.062
 2186POPC   C1A29355  44.112   0.498   8.695
 2186POPC   D2A29356  43.861   0.410   8.321
 2186POPC   C3A29357  44.045   0.186   7.949
 2186POPC   C4A29358  44.415   0.354   7.714
 2186POPC   C1B29359  43.649   0.696   8.768
 2186POPC   C2B29360  43.461   0.755   8.383
 2186POPC   C3B29361  43.556   0.632   7.977
 2186POPC   C4B29362  43.527   0.314   7.652
 2187POPC   NC329363   4.868  34.763   9.451
 2187POPC   PO429364   5.556  34.658   9.441
 2187POPC   GL129365   5.227  34.611   9.109
 2187POPC   GL229366   5.024  34.320   9.181
 2187POPC   C1A29367   4.896  34.619   8.741
 2187POPC   D2A29368   4.668  34.582   8.327
 2187POPC   C3A29369   4.941  34.679   7.958
 2187POPC   C4A29370   5.281  34.692   7.620
 2187POPC   C1B29371   5.282  34.265   8.756
 2187POPC   C2B29372   5.128  34.336   8.336
 2187POPC   C3B29373   5.206  34.262   7.911
 2187POPC   C4B29374   5.011  34.288   7.500
 2188POPC   NC329375   6.886  22.692   9.480
 2188POPC   PO429376   6.331  23.111   9.479
 2188POPC   GL129377   6.351  23.007   9.058
 2188POPC   GL229378   6.462  22.684   9.146
 2188POPC   C1A29379   6.469  22.927   8.624
 2188POPC   D2A29380   6.870  22.903   8.418
 2188POPC   C3A29381   6.759  23.032   8.005
 2188POPC   C4A29382   6.892  23.211   7.618
 2188POPC   C1B29383   6.643  22.498   8.800
 2188POPC   C2B29384   6.740  22.385   8.379
 2188POPC   C3B29385   6.999  22.564   8.020
 2188POPC   C4B29386   6.894  22.688   7.636
 2189POPC   NC329387   4.984  17.880   9.642
 2189POPC   PO429388   5.376  18.279   9.804
 2189POPC   GL129389   5.305  18.058   9.293
 2189POPC   GL229390   4.997  18.098   9.170
 2189POPC   C1A29391   5.440  18.053   8.845
 2189POPC   D2A29392   5.421  18.231   8.430
 2189POPC   C3A29393   5.525  18.221   8.005
 2189POPC   C4A29394   5.275  18.340   7.685
 2189POPC   C1B29395   4.782  18.161   8.816
 2189POPC   C2B29396   4.947  18.071   8.450
 2189POPC   C3B29397   4.977  18.279   8.089
 2189POPC   C4B29398   4.762  18.091   7.754
 2190POPC   NC329399  22.595  27.645   9.523
 2190POPC   PO429400  23.253  27.471   9.571
 2190POPC   GL129401  22.970  27.421   9.235
 2190POPC   GL229402  22.992  27.120   9.111
 2190POPC   C1A29403  22.769  27.583   8.854
 2190POPC   D2A29404  22.967  27.837   8.551
 2190POPC   C3A29405  22.885  27.841   8.084
 2190POPC   C4A29406  22.979  27.890   7.613
 2190POPC   C1B29407  22.825  27.111   8.667
 2190POPC   C2B29408  22.807  27.343   8.238
 2190POPC   C3B29409  22.892  27.407   7.766
 2190POPC   C4B29410  23.221  27.478   7.425
 2191POPC   NC329411  41.424  17.219   9.414
 2191POPC   PO429412  42.086  17.428   9.630
 2191POPC   GL129413  41.847  17.468   9.254
 2191POPC   GL229414  41.910  17.110   9.275
 2191POPC   C1A29415  41.629  17.592   8.821
 2191POPC   D2A29416  41.460  17.680   8.371
 2191POPC   C3A29417  41.305  17.349   8.074
 2191POPC   C4A29418  41.487  17.636   7.791
 2191POPC   C1B29419  41.910  17.163   8.839
 2191POPC   C2B29420  41.674  17.208   8.459
 2191POPC   C3B29421  41.815  17.332   8.060
 2191POPC   C4B29422  41.781  17.229   7.657
 2192POPC   NC329423  21.915  10.032   9.487
 2192POPC   PO429424  21.249   9.621   9.576
 2192POPC   GL129425  21.200   9.773   9.183
 2192POPC   GL229426  21.587   9.738   9.190
 2192POPC   C1A29427  21.158   9.857   8.749
 2192POPC   D2A29428  21.439   9.823   8.383
 2192POPC   C3A29429  21.278   9.868   7.989
 2192POPC   C4A29430  21.191   9.609   7.652
 2192POPC   C1B29431  21.713   9.939   8.799
 2192POPC   C2B29432  21.829  10.178   8.423
 2192POPC   C3B29433  21.760   9.995   7.990
 2192POPC   C4B29434  21.646   9.929   7.574
 2193POPC   NC329435   0.107  10.138   9.377
 2193POPC   PO429436   0.354   9.545   9.506
 2193POPC   GL129437   0.293   9.712   9.111
 2193POPC   GL229438   0.468  10.010   9.033
 2193POPC   C1A29439   0.431   9.652   8.675
 2193POPC   D2A29440   0.736   9.554   8.362
 2193POPC   C3A29441   0.454   9.662   8.057
 2193POPC   C4A29442   0.364   9.559   7.659
 2193POPC   C1B29443   0.312  10.263   8.731
 2193POPC   C2B29444   0.048  10.286   8.403
 2193POPC   C3B29445   0.190  10.141   8.024
 2193POPC   C4B29446   0.485  10.059   7.708
 2194POPC   NC329447  20.433  10.734   9.203
 2194POPC   PO429448  20.879  10.543   9.687
 2194POPC   GL129449  20.921  10.565   9.226
 2194POPC   GL229450  20.939  10.256   9.095
 2194POPC   C1A29451  20.924  10.678   8.769
 2194POPC   D2A29452  20.751  10.609   8.350
 2194POPC   C3A29453  20.669  10.856   7.988
 2194POPC   C4A29454  20.670  10.766   7.580
 2194POPC   C1B29455  20.747  10.197   8.718
 2194POPC   C2B29456  20.550  10.131   8.321
 2194POPC   C3B29457  20.542  10.360   7.929
 2194POPC   C4B29458  20.661  10.279   7.482
 2195POPC   NC329459   7.977  42.202   9.517
 2195POPC   PO429460   8.601  42.435   9.810
 2195POPC   GL129461   8.433  42.489   9.310
 2195POPC   GL229462   8.169  42.327   9.084
 2195POPC   C1A29463   8.450  42.599   8.797
 2195POPC   D2A29464   8.283  42.311   8.497
 2195POPC   C3A29465   8.214  42.433   8.071
 2195POPC   C4A29466   8.057  42.152   7.766
 2195POPC   C1B29467   7.883  42.491   8.763
 2195POPC   C2B29468   7.768  42.347   8.330
 2195POPC   C3B29469   7.724  42.504   7.915
 2195POPC   C4B29470   8.005  42.615   7.571
 2196POPC   NC329471   6.525  30.145   9.422
 2196POPC   PO429472   6.787  29.546   9.456
 2196POPC   GL129473   6.642  29.766   9.096
 2196POPC   GL229474   6.860  30.025   8.993
 2196POPC   C1A29475   6.525  29.833   8.662
 2196POPC   D2A29476   6.750  29.983   8.314
 2196POPC   C3A29477   6.436  29.973   7.996
 2196POPC   C4A29478   6.453  29.949   7.570
 2196POPC   C1B29479   6.622  30.340   8.761
 2196POPC   C2B29480   6.395  30.350   8.401
 2196POPC   C3B29481   6.676  30.415   8.022
 2196POPC   C4B29482   6.985  30.139   7.843
 2197POPC   NC329483   4.592  13.118   9.438
 2197POPC   PO429484   4.320  13.673   9.726
 2197POPC   GL129485   4.315  13.771   9.242
 2197POPC   GL229486   4.384  13.487   9.066
 2197POPC   C1A29487   4.230  13.909   8.786
 2197POPC   D2A29488   3.945  14.006   8.431
 2197POPC   C3A29489   4.138  13.955   8.019
 2197POPC   C4A29490   4.110  13.614   7.725
 2197POPC   C1B29491   4.180  13.415   8.638
 2197POPC   C2B29492   4.365  13.534   8.217
 2197POPC   C3B29493   4.601  13.407   7.827
 2197POPC   C4B29494   4.673  13.516   7.395
 2198POPC   NC329495  25.764   6.338   9.444
 2198POPC   PO429496  26.396   6.499   9.524
 2198POPC   GL129497  26.111   6.607   9.158
 2198POPC   GL229498  26.013   6.966   9.217
 2198POPC   C1A29499  25.876   6.468   8.750
 2198POPC   D2A29500  25.836   6.713   8.354
 2198POPC   C3A29501  26.032   6.642   7.976
 2198POPC   C4A29502  25.906   6.454   7.566
 2198POPC   C1B29503  25.910   7.003   8.775
 2198POPC   C2B29504  26.123   7.140   8.386
 2198POPC   C3B29505  26.306   7.093   7.953
 2198POPC   C4B29506  26.205   6.883   7.576
 2199POPC   NC329507  40.125  20.182   9.525
 2199POPC   PO429508  39.868  19.512   9.627
 2199POPC   GL129509  39.979  19.744   9.269
 2199POPC   GL229510  39.737  20.029   9.223
 2199POPC   C1A29511  39.967  19.672   8.842
 2199POPC   D2A29512  40.044  19.879   8.450
 2199POPC   C3A29513  40.004  19.636   8.057
 2199POPC   C4A29514  39.797  19.861   7.727
 2199POPC   C1B29515  39.721  20.141   8.786
 2199POPC   C2B29516  39.522  20.172   8.368
 2199POPC   C3B29517  39.709  20.305   7.990
 2199POPC   C4B29518  40.119  20.285   7.796
 2200POPC   NC329519  33.370  32.668   9.532
 2200POPC   PO429520  32.965  33.146   9.879
 2200POPC   GL129521  32.950  33.103   9.383
 2200POPC   GL229522  33.097  33.374   9.196
 2200POPC   C1A29523  32.799  33.025   8.922
 2200POPC   D2A29524  33.028  32.957   8.502
 2200POPC   C3A29525  32.883  32.962   8.060
 2200POPC   C4A29526  32.883  33.055   7.628
 2200POPC   C1B29527  33.196  33.318   8.797
 2200POPC   C2B29528  33.267  33.421   8.383
 2200POPC   C3B29529  33.293  33.292   7.975
 2200POPC   C4B29530  33.348  33.283   7.546
 2201POPC   NC329531  37.140   1.044   9.901
 2201POPC   PO429532  36.664   1.304   9.545
 2201POPC   GL129533  36.939   1.191   9.186
 2201POPC   GL229534  37.184   0.991   9.317
 2201POPC   C1A29535  37.196   1.334   8.822
 2201POPC   D2A29536  37.067   1.584   8.450
 2201POPC   C3A29537  36.869   1.457   8.073
 2201POPC   C4A29538  37.164   1.547   7.833
 2201POPC   C1B29539  37.178   0.807   8.878
 2201POPC   C2B29540  37.182   0.951   8.463
 2201POPC   C3B29541  37.247   1.089   8.077
 2201POPC   C4B29542  36.977   1.020   7.743
 2202POPC   NC329543   9.158  16.282   9.434
 2202POPC   PO429544   9.365  16.908   9.269
 2202POPC   GL129545   9.083  16.572   9.035
 2202POPC   GL229546   8.796  16.780   8.937
 2202POPC   C1A29547   8.876  16.410   8.619
 2202POPC   D2A29548   8.678  16.761   8.373
 2202POPC   C3A29549   8.818  16.886   7.984
 2202POPC   C4A29550   9.035  16.570   7.798
 2202POPC   C1B29551   9.141  16.870   8.638
 2202POPC   C2B29552   9.248  16.691   8.263
 2202POPC   C3B29553   9.325  16.993   7.986
 2202POPC   C4B29554   9.203  17.000   7.570
 2203POPC   NC329555  23.467   7.827   9.482
 2203POPC   PO429556  23.850   8.412   9.671
 2203POPC   GL129557  23.660   8.357   9.220
 2203POPC   GL229558  23.415   8.629   9.086
 2203POPC   C1A29559  23.486   8.181   8.822
 2203POPC   D2A29560  23.596   8.258   8.382
 2203POPC   C3A29561  23.872   7.994   8.154
 2203POPC   C4A29562  23.975   8.002   7.709
 2203POPC   C1B29563  23.623   8.669   8.699
 2203POPC   C2B29564  23.703   8.788   8.277
 2203POPC   C3B29565  23.508   8.556   7.953
 2203POPC   C4B29566  23.684   8.374   7.562
 2204POPC   NC329567   9.209  30.639   9.503
 2204POPC   PO429568   8.578  30.970   9.634
 2204POPC   GL129569   8.824  30.783   9.216
 2204POPC   GL229570   9.116  30.948   9.108
 2204POPC   C1A29571   9.050  30.532   8.824
 2204POPC   D2A29572   9.112  30.363   8.373
 2204POPC   C3A29573   8.825  30.379   8.009
 2204POPC   C4A29574   9.115  30.411   7.661
 2204POPC   C1B29575   8.861  31.018   8.751
 2204POPC   C2B29576   9.073  30.885   8.428
 2204POPC   C3B29577   9.111  30.799   8.037
 2204POPC   C4B29578   9.316  30.894   7.720
 2205POPC   NC329579  42.139  11.387   9.646
 2205POPC   PO429580  42.486  10.893   9.377
 2205POPC   GL129581  42.343  11.279   9.177
 2205POPC   GL229582  42.126  11.080   8.978
 2205POPC   C1A29583  42.542  11.558   8.834
 2205POPC   D2A29584  42.440  11.622   8.389
 2205POPC   C3A29585  42.629  11.453   8.041
 2205POPC   C4A29586  42.322  11.475   7.752
 2205POPC   C1B29587  42.492  11.059   8.734
 2205POPC   C2B29588  42.424  11.034   8.366
 2205POPC   C3B29589  42.187  11.074   8.055
 2205POPC   C4B29590  42.246  10.985   7.656
 2206POPC   NC329591  27.869  28.119   9.440
 2206POPC   PO429592  27.315  28.482   9.503
 2206POPC   GL129593  27.488  28.376   9.140
 2206POPC   GL229594  27.408  28.704   9.017
 2206POPC   C1A29595  27.558  28.183   8.749
 2206POPC   D2A29596  27.562  28.447   8.389
 2206POPC   C3A29597  27.634  28.232   8.073
 2206POPC   C4A29598  27.765  28.201   7.681
 2206POPC   C1B29599  27.167  28.492   8.688
 2206POPC   C2B29600  26.974  28.539   8.317
 2206POPC   C3B29601  27.147  28.790   8.006
 2206POPC   C4B29602  27.484  28.635   7.783
 2207POPC   NC329603   8.694  39.678   9.441
 2207POPC   PO429604   9.296  39.881   9.294
 2207POPC   GL129605   8.975  40.070   9.041
 2207POPC   GL229606   8.641  40.161   9.150
 2207POPC   C1A29607   9.152  40.324   8.722
 2207POPC   D2A29608   9.362  40.045   8.464
 2207POPC   C3A29609   9.160  40.079   8.095
 2207POPC   C4A29610   9.150  39.957   7.682
 2207POPC   C1B29611   8.447  40.190   8.760
 2207POPC   C2B29612   8.711  40.116   8.431
 2207POPC   C3B29613   8.672  39.881   8.068
 2207POPC   C4B29614   8.638  40.004   7.662
 2208POPC   NC329615  22.554  33.705   9.515
 2208POPC   PO429616  21.877  33.971   9.551
 2208POPC   GL129617  22.136  33.828   9.218
 2208POPC   GL229618  22.162  33.486   9.237
 2208POPC   C1A29619  22.284  33.869   8.800
 2208POPC   D2A29620  22.211  33.701   8.401
 2208POPC   C3A29621  22.259  34.014   8.082
 2208POPC   C4A29622  22.144  34.123   7.672
 2208POPC   C1B29623  21.943  33.467   8.841
 2208POPC   C2B29624  21.722  33.563   8.456
 2208POPC   C3B29625  21.863  33.641   8.013
 2208POPC   C4B29626  21.869  33.407   7.615
 2209POPC   NC329627  22.668  34.699   9.503
 2209POPC   PO429628  23.388  34.498   9.458
 2209POPC   GL129629  23.132  34.629   9.124
 2209POPC   GL229630  22.823  34.448   9.088
 2209POPC   C1A29631  22.985  34.761   8.704
 2209POPC   D2A29632  22.910  34.992   8.306
 2209POPC   C3A29633  22.945  34.749   7.934
 2209POPC   C4A29634  23.034  34.363   7.765
 2209POPC   C1B29635  22.565  34.419   8.735
 2209POPC   C2B29636  22.692  34.503   8.320
 2209POPC   C3B29637  22.514  34.458   7.926
 2209POPC   C4B29638  22.610  34.545   7.505
 2210POPC   NC329639  38.983  38.597   9.515
 2210POPC   PO429640  39.607  38.516   9.525
 2210POPC   GL129641  39.332  38.386   9.157
 2210POPC   GL229642  39.030  38.176   9.177
 2210POPC   C1A29643  39.057  38.570   8.831
 2210POPC   D2A29644  38.986  38.691   8.375
 2210POPC   C3A29645  39.322  38.630   8.042
 2210POPC   C4A29646  39.381  38.801   7.636
 2210POPC   C1B29647  39.113  38.093   8.732
 2210POPC   C2B29648  39.325  38.269   8.389
 2210POPC   C3B29649  39.428  38.140   7.968
 2210POPC   C4B29650  39.386  38.270   7.543
 2211POPC   NC329651   7.192   7.736   9.531
 2211POPC   PO429652   7.629   7.182   9.482
 2211POPC   GL129653   7.379   7.232   9.146
 2211POPC   GL229654   7.277   7.566   9.069
 2211POPC   C1A29655   7.281   7.177   8.740
 2211POPC   D2A29656   7.212   7.433   8.416
 2211POPC   C3A29657   7.259   7.221   8.022
 2211POPC   C4A29658   7.262   7.455   7.619
 2211POPC   C1B29659   7.476   7.820   8.765
 2211POPC   C2B29660   7.696   7.707   8.392
 2211POPC   C3B29661   7.427   7.714   8.025
 2211POPC   C4B29662   7.338   7.966   7.651
 2212POPC   NC329663  20.624  26.225   9.612
 2212POPC   PO429664  21.228  26.073   9.494
 2212POPC   GL129665  20.921  26.223   9.173
 2212POPC   GL229666  20.591  26.039   9.156
 2212POPC   C1A29667  20.736  26.274   8.743
 2212POPC   D2A29668  20.798  26.088   8.345
 2212POPC   C3A29669  20.746  26.334   7.982
 2212POPC   C4A29670  20.816  26.268   7.553
 2212POPC   C1B29671  20.300  26.036   8.835
 2212POPC   C2B29672  20.299  26.213   8.437
 2212POPC   C3B29673  20.346  26.052   8.037
 2212POPC   C4B29674  20.188  26.237   7.711
 2213POPC   NC329675  24.149  24.266   9.327
 2213POPC   PO429676  24.678  24.602   9.481
 2213POPC   GL129677  24.579  24.540   9.083
 2213POPC   GL229678  24.841  24.305   9.066
 2213POPC   C1A29679  24.298  24.582   8.742
 2213POPC   D2A29680  24.424  24.417   8.353
 2213POPC   C3A29681  24.210  24.637   8.027
 2213POPC   C4A29682  24.180  24.725   7.589
 2213POPC   C1B29683  24.779  24.148   8.658
 2213POPC   C2B29684  24.866  24.075   8.211
 2213POPC   C3B29685  24.978  24.274   7.872
 2213POPC   C4B29686  24.637  24.512   7.759
 2214POPC   NC329687  11.044  43.755   9.628
 2214POPC   PO429688  11.674  43.844   9.430
 2214POPC   GL129689  11.451  43.663   9.110
 2214POPC   GL229690  11.147  43.803   9.117
 2214POPC   C1A29691  11.552  43.492   8.739
 2214POPC   D2A29692  11.540  43.738   8.406
 2214POPC   C3A29693  11.553  43.547   8.074
 2214POPC   C4A29694  11.355  43.766   7.770
 2214POPC   C1B29695  11.094  43.788   8.660
 2214POPC   C2B29696  11.052  43.726   8.215
 2214POPC   C3B29697  10.890  43.948   7.865
 2214POPC   C4B29698  10.666  43.880   7.483
 2215POPC   NC329699  24.615  29.226   9.476
 2215POPC   PO429700  24.300  28.696   9.694
 2215POPC   GL129701  24.512  28.826   9.199
 2215POPC   GL229702  24.838  28.829   9.212
 2215POPC   C1A29703  24.497  29.130   8.819
 2215POPC   D2A29704  24.429  29.209   8.358
 2215POPC   C3A29705  24.189  29.073   8.012
 2215POPC   C4A29706  24.475  29.115   7.708
 2215POPC   C1B29707  24.852  28.680   8.821
 2215POPC   C2B29708  24.783  28.852   8.445
 2215POPC   C3B29709  24.589  28.770   8.093
 2215POPC   C4B29710  24.659  28.557   7.726
 2216POPC   NC329711  17.617  38.634   9.584
 2216POPC   PO429712  16.965  38.653   9.410
 2216POPC   GL129713  17.331  38.424   9.145
 2216POPC   GL229714  17.711  38.419   9.149
 2216POPC   C1A29715  17.543  38.379   8.691
 2216POPC   D2A29716  17.741  38.316   8.289
 2216POPC   C3A29717  17.430  38.498   8.030
 2216POPC   C4A29718  17.221  38.517   7.640
 2216POPC   C1B29719  17.755  38.801   8.921
 2216POPC   C2B29720  17.854  38.835   8.497
 2216POPC   C3B29721  17.885  38.782   8.040
 2216POPC   C4B29722  17.785  38.506   7.651
 2217POPC   NC329723  32.666  16.944   9.470
 2217POPC   PO429724  33.342  17.072   9.501
 2217POPC   GL129725  33.054  16.866   9.143
 2217POPC   GL229726  32.711  16.614   9.090
 2217POPC   C1A29727  33.120  16.611   8.783
 2217POPC   D2A29728  33.214  16.429   8.386
 2217POPC   C3A29729  33.099  16.571   7.981
 2217POPC   C4A29730  33.385  16.633   7.641
 2217POPC   C1B29731  32.667  16.930   8.747
 2217POPC   C2B29732  32.770  17.036   8.310
 2217POPC   C3B29733  32.624  16.785   7.965
 2217POPC   C4B29734  32.509  16.793   7.539
 2218POPC   NC329735  10.721   5.089   9.449
 2218POPC   PO429736  11.355   5.247   9.532
 2218POPC   GL129737  11.134   5.178   9.160
 2218POPC   GL229738  11.431   5.035   9.066
 2218POPC   C1A29739  11.059   5.318   8.742
 2218POPC   D2A29740  11.286   5.156   8.382
 2218POPC   C3A29741  11.103   5.129   7.980
 2218POPC   C4A29742  11.146   4.959   7.561
 2218POPC   C1B29743  11.569   4.874   8.718
 2218POPC   C2B29744  11.540   4.691   8.331
 2218POPC   C3B29745  11.561   4.905   7.950
 2218POPC   C4B29746  11.566   4.668   7.614
 2219POPC   NC329747  24.493   7.344   9.718
 2219POPC   PO429748  24.051   7.745   9.416
 2219POPC   GL129749  24.278   7.435   9.191
 2219POPC   GL229750  24.645   7.306   9.185
 2219POPC   C1A29751  24.300   7.489   8.754
 2219POPC   D2A29752  24.718   7.572   8.536
 2219POPC   C3A29753  24.666   7.587   8.082
 2219POPC   C4A29754  24.251   7.619   7.872
 2219POPC   C1B29755  24.610   7.096   8.758
 2219POPC   C2B29756  24.410   7.185   8.330
 2219POPC   C3B29757  24.466   7.155   7.855
 2219POPC   C4B29758  24.536   7.015   7.403
 2220POPC   NC329759  28.142  10.939   9.459
 2220POPC   PO429760  28.664  11.438   9.528
 2220POPC   GL129761  28.504  11.195   9.207
 2220POPC   GL229762  28.204  11.400   9.214
 2220POPC   C1A29763  28.259  11.050   8.829
 2220POPC   D2A29764  28.065  11.033   8.437
 2220POPC   C3A29765  28.267  11.145   8.047
 2220POPC   C4A29766  28.299  10.914   7.656
 2220POPC   C1B29767  28.414  11.547   8.833
 2220POPC   C2B29768  28.288  11.547   8.402
 2220POPC   C3B29769  28.410  11.648   7.969
 2220POPC   C4B29770  28.294  11.429   7.617
 2221POPC   NC329771  31.426  17.872   9.431
 2221POPC   PO429772  31.452  18.536   9.643
 2221POPC   GL129773  31.501  18.507   9.144
 2221POPC   GL229774  31.714  18.239   9.032
 2221POPC   C1A29775  31.236  18.516   8.747
 2221POPC   D2A29776  31.144  18.259   8.392
 2221POPC   C3A29777  31.401  18.390   8.063
 2221POPC   C4A29778  31.337  18.603   7.699
 2221POPC   C1B29779  31.646  18.273   8.555
 2221POPC   C2B29780  31.649  17.974   8.219
 2221POPC   C3B29781  31.920  17.886   7.835
 2221POPC   C4B29782  31.835  18.021   7.351
 2222POPC   NC329783  25.788  38.249   9.516
 2222POPC   PO429784  26.213  38.727   9.577
 2222POPC   GL129785  26.077  38.522   9.190
 2222POPC   GL229786  26.261  38.238   9.199
 2222POPC   C1A29787  26.102  38.451   8.752
 2222POPC   D2A29788  25.977  38.298   8.377
 2222POPC   C3A29789  25.711  38.436   8.084
 2222POPC   C4A29790  25.937  38.415   7.709
 2222POPC   C1B29791  26.395  38.018   8.836
 2222POPC   C2B29792  26.526  38.102   8.418
 2222POPC   C3B29793  26.335  38.147   8.043
 2222POPC   C4B29794  26.233  38.003   7.664
 2223POPC   NC329795   0.930  14.974   9.470
 2223POPC   PO429796   1.306  15.481   9.594
 2223POPC   GL129797   1.272  15.272   9.210
 2223POPC   GL229798   1.546  15.415   9.043
 2223POPC   C1A29799   1.008  15.247   8.846
 2223POPC   D2A29800   1.128  15.191   8.416
 2223POPC   C3A29801   0.839  15.023   8.119
 2223POPC   C4A29802   0.878  15.042   7.654
 2223POPC   C1B29803   1.520  15.068   8.753
 2223POPC   C2B29804   1.626  15.095   8.318
 2223POPC   C3B29805   1.365  15.139   7.934
 2223POPC   C4B29806   1.454  15.517   7.692
 2224POPC   NC329807   1.727  19.132   9.499
 2224POPC   PO429808   1.766  19.633   9.182
 2224POPC   GL129809   1.996  19.271   9.046
 2224POPC   GL229810   2.052  18.927   9.128
 2224POPC   C1A29811   1.893  19.117   8.666
 2224POPC   D2A29812   2.087  19.245   8.356
 2224POPC   C3A29813   1.935  19.390   8.022
 2224POPC   C4A29814   1.685  19.141   7.754
 2224POPC   C1B29815   2.120  18.665   8.782
 2224POPC   C2B29816   2.024  18.664   8.365
 2224POPC   C3B29817   2.062  18.897   8.003
 2224POPC   C4B29818   2.371  18.994   7.756
 2225POPC   NC329819   3.420  17.438   9.613
 2225POPC   PO429820   2.713  17.526   9.642
 2225POPC   GL129821   2.757  17.525   9.092
 2225POPC   GL229822   2.740  17.185   8.903
 2225POPC   C1A29823   2.450  17.645   8.755
 2225POPC   D2A29824   2.254  17.564   8.346
 2225POPC   C3A29825   2.495  17.409   7.994
 2225POPC   C4A29826   2.845  17.396   7.715
 2225POPC   C1B29827   2.736  17.333   8.469
 2225POPC   C2B29828   3.074  17.495   8.196
 2225POPC   C3B29829   3.301  17.544   7.791
 2225POPC   C4B29830   3.200  17.435   7.336
 2226POPC   NC329831  24.678  13.140   9.540
 2226POPC   PO429832  24.093  12.889   9.529
 2226POPC   GL129833  24.287  12.821   9.076
 2226POPC   GL229834  24.582  13.043   9.018
 2226POPC   C1A29835  24.515  12.622   8.707
 2226POPC   D2A29836  24.683  12.477   8.276
 2226POPC   C3A29837  24.457  12.645   7.961
 2226POPC   C4A29838  24.122  12.962   8.010
 2226POPC   C1B29839  24.844  13.144   8.646
 2226POPC   C2B29840  24.891  12.981   8.221
 2226POPC   C3B29841  24.793  12.982   7.793
 2226POPC   C4B29842  24.763  13.294   7.489
 2227POPC   NC329843  15.238  29.493   9.449
 2227POPC   PO429844  14.797  29.068   9.635
 2227POPC   GL129845  14.981  29.037   9.240
 2227POPC   GL229846  14.874  29.362   9.081
 2227POPC   C1A29847  15.254  29.037   8.882
 2227POPC   D2A29848  15.340  29.234   8.508
 2227POPC   C3A29849  15.198  29.064   8.127
 2227POPC   C4A29850  15.370  29.233   7.768
 2227POPC   C1B29851  14.906  29.566   8.664
 2227POPC   C2B29852  14.987  29.511   8.212
 2227POPC   C3B29853  14.869  29.311   7.802
 2227POPC   C4B29854  15.059  29.187   7.368
 2228POPC   NC329855   3.105  36.597   9.549
 2228POPC   PO429856   2.428  36.576   9.484
 2228POPC   GL129857   2.702  36.825   9.265
 2228POPC   GL229858   2.835  36.567   9.131
 2228POPC   C1A29859   2.707  37.014   8.861
 2228POPC   D2A29860   2.471  37.147   8.526
 2228POPC   C3A29861   2.603  37.051   8.125
 2228POPC   C4A29862   2.717  36.986   7.726
 2228POPC   C1B29863   2.999  36.610   8.762
 2228POPC   C2B29864   2.823  36.688   8.414
 2228POPC   C3B29865   2.831  36.545   8.023
 2228POPC   C4B29866   3.073  36.619   7.657
 2229POPC   NC329867   9.987  40.760   9.752
 2229POPC   PO429868   9.556  41.067   9.277
 2229POPC   GL129869   9.658  41.031   8.877
 2229POPC   GL229870   9.701  40.645   8.903
 2229POPC   C1A29871   9.519  40.892   8.492
 2229POPC   D2A29872   9.552  40.496   8.364
 2229POPC   C3A29873   9.383  40.531   7.970
 2229POPC   C4A29874   9.491  40.886   7.739
 2229POPC   C1B29875  10.018  40.787   8.583
 2229POPC   C2B29876   9.884  40.849   8.148
 2229POPC   C3B29877   9.893  40.570   7.884
 2229POPC   C4B29878  10.268  40.470   7.775
 2230POPC   NC329879  39.650   7.747   9.273
 2230POPC   PO429880  40.034   7.221   9.615
 2230POPC   GL129881  39.938   7.189   9.218
 2230POPC   GL229882  40.087   7.481   9.178
 2230POPC   C1A29883  39.970   7.102   8.818
 2230POPC   D2A29884  39.911   7.317   8.432
 2230POPC   C3A29885  40.116   7.164   8.112
 2230POPC   C4A29886  39.957   7.324   7.753
 2230POPC   C1B29887  40.398   7.392   8.899
 2230POPC   C2B29888  40.398   7.418   8.454
 2230POPC   C3B29889  40.501   7.508   8.019
 2230POPC   C4B29890  40.407   7.468   7.592
 2231POPC   NC329891  35.195  17.653   9.594
 2231POPC   PO429892  35.664  17.180   9.477
 2231POPC   GL129893  35.410  17.441   9.178
 2231POPC   GL229894  35.622  17.647   8.953
 2231POPC   C1A29895  35.148  17.475   8.861
 2231POPC   D2A29896  35.191  17.414   8.446
 2231POPC   C3A29897  35.174  17.756   8.165
 2231POPC   C4A29898  35.168  17.726   7.735
 2231POPC   C1B29899  35.707  17.302   8.751
 2231POPC   C2B29900  35.616  17.143   8.359
 2231POPC   C3B29901  35.483  17.356   8.014
 2231POPC   C4B29902  35.708  17.420   7.670
 2232POPC   NC329903  10.748  19.761   9.474
 2232POPC   PO429904  10.673  20.398   9.287
 2232POPC   GL129905  10.563  19.967   9.053
 2232POPC   GL229906  10.278  19.730   9.173
 2232POPC   C1A29907  10.457  19.759   8.657
 2232POPC   D2A29908  10.365  20.052   8.331
 2232POPC   C3A29909  10.651  19.998   7.996
 2232POPC   C4A29910  10.741  19.631   7.764
 2232POPC   C1B29911  10.004  19.895   8.830
 2232POPC   C2B29912   9.960  19.733   8.427
 2232POPC   C3B29913  10.271  19.580   8.158
 2232POPC   C4B29914  10.248  19.749   7.772
 2233POPC   NC329915  43.242  39.478   9.619
 2233POPC   PO429916  43.123  38.869   9.576
 2233POPC   GL129917  43.171  39.119   9.217
 2233POPC   GL229918  42.923  39.373   9.178
 2233POPC   C1A29919  43.092  39.127   8.756
 2233POPC   D2A29920  43.006  38.955   8.350
 2233POPC   C3A29921  43.043  39.207   8.005
 2233POPC   C4A29922  43.259  39.282   7.663
 2233POPC   C1B29923  42.702  39.476   8.778
 2233POPC   C2B29924  42.837  39.508   8.370
 2233POPC   C3B29925  42.656  39.523   7.960
 2233POPC   C4B29926  42.785  39.381   7.521
 2234POPC   NC329927  18.933  21.940   9.275
 2234POPC   PO429928  19.137  22.456   9.666
 2234POPC   GL129929  19.000  22.457   9.179
 2234POPC   GL229930  19.287  22.535   9.037
 2234POPC   C1A29931  18.944  22.286   8.725
 2234POPC   D2A29932  19.115  22.055   8.371
 2234POPC   C3A29933  18.963  22.121   7.950
 2234POPC   C4A29934  19.137  22.471   7.704
 2234POPC   C1B29935  19.509  22.294   8.718
 2234POPC   C2B29936  19.626  22.087   8.393
 2234POPC   C3B29937  19.485  22.152   8.031
 2234POPC   C4B29938  19.561  22.147   7.633
 2235POPC   NC329939  18.776  27.721   9.869
 2235POPC   PO429940  18.840  27.228   9.410
 2235POPC   GL129941  18.898  27.415   9.047
 2235POPC   GL229942  19.256  27.484   9.084
 2235POPC   C1A29943  18.942  27.677   8.704
 2235POPC   D2A29944  19.042  27.607   8.316
 2235POPC   C3A29945  18.845  27.821   8.038
 2235POPC   C4A29946  18.950  27.670   7.665
 2235POPC   C1B29947  19.435  27.778   8.773
 2235POPC   C2B29948  19.406  27.954   8.335
 2235POPC   C3B29949  19.379  27.767   7.923
 2235POPC   C4B29950  19.369  27.888   7.460
 2236POPC   NC329951   2.404   6.304   9.454
 2236POPC   PO429952   2.820   6.886   9.534
 2236POPC   GL129953   2.645   6.876   9.143
 2236POPC   GL229954   2.737   6.535   9.133
 2236POPC   C1A29955   2.553   6.772   8.717
 2236POPC   D2A29956   2.609   6.905   8.312
 2236POPC   C3A29957   2.659   6.617   7.974
 2236POPC   C4A29958   2.741   6.736   7.517
 2236POPC   C1B29959   2.815   6.317   8.772
 2236POPC   C2B29960   3.005   6.319   8.371
 2236POPC   C3B29961   3.184   6.191   7.994
 2236POPC   C4B29962   3.039   6.301   7.608
 2237POPC   NC329963  38.723   2.718   9.468
 2237POPC   PO429964  38.057   2.810   9.451
 2237POPC   GL129965  38.286   2.716   9.068
 2237POPC   GL229966  38.646   2.649   8.992
 2237POPC   C1A29967  38.291   2.557   8.635
 2237POPC   D2A29968  38.068   2.315   8.329
 2237POPC   C3A29969  38.197   2.553   7.952
 2237POPC   C4A29970  38.453   2.939   7.907
 2237POPC   C1B29971  38.628   2.979   8.761
 2237POPC   C2B29972  38.720   2.873   8.351
 2237POPC   C3B29973  38.937   2.613   8.166
 2237POPC   C4B29974  38.784   2.454   7.809
 2238POPC   NC329975  22.785  16.969   9.522
 2238POPC   PO429976  23.329  16.600   9.504
 2238POPC   GL129977  22.998  16.662   9.170
 2238POPC   GL229978  22.979  17.029   9.065
 2238POPC   C1A29979  23.085  16.662   8.722
 2238POPC   D2A29980  22.893  16.779   8.301
 2238POPC   C3A29981  23.000  16.551   7.931
 2238POPC   C4A29982  23.339  16.627   7.636
 2238POPC   C1B29983  22.698  17.014   8.709
 2238POPC   C2B29984  22.474  17.056   8.308
 2238POPC   C3B29985  22.521  16.992   7.823
 2238POPC   C4B29986  22.563  17.255   7.425
 2239POPC   NC329987  17.542   9.776   9.475
 2239POPC   PO429988  17.473   9.127   9.198
 2239POPC   GL129989  17.442   9.536   9.027
 2239POPC   GL229990  17.198   9.814   9.108
 2239POPC   C1A29991  17.787   9.652   8.764
 2239POPC   D2A29992  17.857   9.756   8.317
 2239POPC   C3A29993  17.573   9.519   8.063
 2239POPC   C4A29994  17.277   9.548   7.704
 2239POPC   C1B29995  17.408  10.004   8.745
 2239POPC   C2B29996  17.418  10.065   8.294
 2239POPC   C3B29997  17.560   9.994   7.861
 2239POPC   C4B29998  17.296  10.005   7.471
 2240POPC   NC329999  22.605  13.608   9.514
 2240POPC   PO430000  23.237  13.347   9.563
 2240POPC   GL130001  23.061  13.593   9.235
 2240POPC   GL230002  22.753  13.789   9.073
 2240POPC   C1A30003  23.160  13.637   8.833
 2240POPC   D2A30004  22.951  13.916   8.556
 2240POPC   C3A30005  23.037  13.764   8.157
 2240POPC   C4A30006  22.928  13.870   7.766
 2240POPC   C1B30007  22.662  13.506   8.739
 2240POPC   C2B30008  22.563  13.303   8.343
 2240POPC   C3B30009  22.677  13.436   7.923
 2240POPC   C4B30010  22.681  13.549   7.457
 2241POPC   NC330011  40.416  13.175   9.594
 2241POPC   PO430012  40.882  12.744   9.646
 2241POPC   GL130013  40.705  12.750   9.259
 2241POPC   GL230014  41.009  12.676   9.112
 2241POPC   C1A30015  40.656  12.998   8.879
 2241POPC   D2A30016  40.916  13.103   8.533
 2241POPC   C3A30017  40.805  13.014   8.118
 2241POPC   C4A30018  40.638  12.927   7.717
 2241POPC   C1B30019  40.910  12.582   8.732
 2241POPC   C2B30020  40.857  12.452   8.357
 2241POPC   C3B30021  40.744  12.511   7.980
 2241POPC   C4B30022  40.960  12.356   7.647
 2242POPC   NC330023  41.810  32.332   9.555
 2242POPC   PO430024  41.243  31.987   9.397
 2242POPC   GL130025  41.467  32.292   9.144
 2242POPC   GL230026  41.771  32.504   9.086
 2242POPC   C1A30027  41.317  32.419   8.754
 2242POPC   D2A30028  41.500  32.475   8.370
 2242POPC   C3A30029  41.252  32.407   8.041
 2242POPC   C4A30030  41.338  32.086   7.797
 2242POPC   C1B30031  42.035  32.522   8.702
 2242POPC   C2B30032  42.030  32.327   8.290
 2242POPC   C3B30033  41.831  32.414   7.888
 2242POPC   C4B30034  41.872  32.798   7.607
 2243POPC   NC330035  14.395  11.736   9.678
 2243POPC   PO430036  13.994  12.275   9.407
 2243POPC   GL130037  14.292  12.106   9.091
 2243POPC   GL230038  14.338  11.794   9.182
 2243POPC   C1A30039  14.529  12.192   8.705
 2243POPC   D2A30040  14.350  12.339   8.324
 2243POPC   C3A30041  14.338  12.104   7.943
 2243POPC   C4A30042  14.656  12.080   7.651
 2243POPC   C1B30043  14.529  11.699   8.815
 2243POPC   C2B30044  14.701  11.769   8.406
 2243POPC   C3B30045  14.661  11.699   7.987
 2243POPC   C4B30046  14.354  11.665   7.660
 2244POPC   NC330047  42.451   8.991   9.468
 2244POPC   PO430048  41.983   8.450   9.373
 2244POPC   GL130049  42.348   8.596   9.096
 2244POPC   GL230050  42.438   8.971   8.969
 2244POPC   C1A30051  42.410   8.599   8.644
 2244POPC   D2A30052  42.414   8.921   8.395
 2244POPC   C3A30053  42.437   8.676   8.080
 2244POPC   C4A30054  42.196   8.735   7.759
 2244POPC   C1B30055  42.422   9.328   8.676
 2244POPC   C2B30056  42.357   9.425   8.263
 2244POPC   C3B30057  42.500   9.172   7.952
 2244POPC   C4B30058  42.483   9.149   7.551
 2245POPC   NC330059   9.162  32.428   9.460
 2245POPC   PO430060   8.756  31.886   9.472
 2245POPC   GL130061   8.829  32.144   9.110
 2245POPC   GL230062   9.200  32.144   9.023
 2245POPC   C1A30063   8.849  32.159   8.650
 2245POPC   D2A30064   9.164  32.062   8.353
 2245POPC   C3A30065   9.081  32.071   7.899
 2245POPC   C4A30066   8.718  32.076   7.586
 2245POPC   C1B30067   9.272  32.519   8.731
 2245POPC   C2B30068   9.420  32.778   8.364
 2245POPC   C3B30069   9.326  32.529   7.975
 2245POPC   C4B30070   8.869  32.524   7.824
 2246POPC   NC330071  19.926   9.304   9.447
 2246POPC   PO430072  19.404   8.881   9.458
 2246POPC   GL130073  19.640   8.975   9.137
 2246POPC   GL230074  19.954   8.850   9.157
 2246POPC   C1A30075  19.818   9.190   8.780
 2246POPC   D2A30076  19.989   9.207   8.365
 2246POPC   C3A30077  19.663   9.308   8.050
 2246POPC   C4A30078  19.624   9.101   7.648
 2246POPC   C1B30079  20.231   8.835   8.791
 2246POPC   C2B30080  20.261   8.753   8.343
 2246POPC   C3B30081  19.957   8.803   7.990
 2246POPC   C4B30082  20.071   8.798   7.553
 2247POPC   NC330083   1.120  14.182   9.489
 2247POPC   PO430084   1.409  14.755   9.386
 2247POPC   GL130085   1.049  14.590   9.105
 2247POPC   GL230086   0.840  14.227   9.093
 2247POPC   C1A30087   1.104  14.739   8.680
 2247POPC   D2A30088   1.271  14.720   8.231
 2247POPC   C3A30089   1.022  14.591   7.864
 2247POPC   C4A30090   0.921  14.368   7.444
 2247POPC   C1B30091   1.080  14.211   8.743
 2247POPC   C2B30092   1.061  14.000   8.371
 2247POPC   C3B30093   1.112  14.112   7.979
 2247POPC   C4B30094   1.143  13.931   7.603
 2248POPC   NC330095  26.612   6.875   9.308
 2248POPC   PO430096  26.961   6.595   9.773
 2248POPC   GL130097  26.779   6.421   9.225
 2248POPC   GL230098  26.501   6.273   9.045
 2248POPC   C1A30099  26.897   6.424   8.748
 2248POPC   D2A30100  27.049   6.354   8.312
 2248POPC   C3A30101  27.161   6.656   7.980
 2248POPC   C4A30102  26.991   6.512   7.593
 2248POPC   C1B30103  26.383   6.570   8.707
 2248POPC   C2B30104  26.475   6.734   8.287
 2248POPC   C3B30105  26.581   6.661   7.843
 2248POPC   C4B30106  26.667   6.846   7.370
 2249POPC   NC330107  23.966  14.609   9.509
 2249POPC   PO430108  23.605  14.122   9.493
 2249POPC   GL130109  23.667  14.393   9.098
 2249POPC   GL230110  23.837  14.729   9.036
 2249POPC   C1A30111  23.744  14.335   8.642
 2249POPC   D2A30112  23.911  14.057   8.365
 2249POPC   C3A30113  24.093  14.306   8.085
 2249POPC   C4A30114  23.755  14.379   7.818
 2249POPC   C1B30115  23.575  14.797   8.673
 2249POPC   C2B30116  23.604  14.668   8.236
 2249POPC   C3B30117  23.528  14.875   7.856
 2249POPC   C4B30118  23.769  14.822   7.499
 2250POPC   NC330119   7.729  44.253   9.335
 2250POPC   PO430120   7.524  43.621   9.399
 2250POPC   GL130121   7.418  43.912   9.076
 2250POPC   GL230122   7.297  43.645   8.838
 2250POPC   C1A30123   7.492  44.117   8.702
 2250POPC   D2A30124   7.324  43.922   8.345
 2250POPC   C3A30125   7.340  44.126   7.938
 2250POPC   C4A30126   7.360  43.779   7.663
 2250POPC   C1B30127   7.753  43.674   8.783
 2250POPC   C2B30128   7.939  43.811   8.425
 2250POPC   C3B30129   7.746  43.838   8.042
 2250POPC   C4B30130   7.906  43.819   7.663
 2251POPC   NC330131  35.667  12.226   9.669
 2251POPC   PO430132  35.194  11.748   9.536
 2251POPC   GL130133  35.144  11.903   9.133
 2251POPC   GL230134  35.013  12.219   9.242
 2251POPC   C1A30135  35.379  11.941   8.723
 2251POPC   D2A30136  35.513  12.292   8.446
 2251POPC   C3A30137  35.452  12.188   8.015
 2251POPC   C4A30138  35.431  11.790   7.841
 2251POPC   C1B30139  35.034  12.311   8.797
 2251POPC   C2B30140  35.027  12.117   8.376
 2251POPC   C3B30141  34.913  12.214   7.964
 2251POPC   C4B30142  35.130  12.187   7.603
 2252POPC   NC330143   3.279  31.653   9.424
 2252POPC   PO430144   3.806  31.237   9.458
 2252POPC   GL130145   3.548  31.346   9.119
 2252POPC   GL230146   3.612  31.713   9.024
 2252POPC   C1A30147   3.623  31.319   8.695
 2252POPC   D2A30148   3.583  31.490   8.282
 2252POPC   C3A30149   3.628  31.275   7.889
 2252POPC   C4A30150   3.684  31.383   7.459
 2252POPC   C1B30151   3.346  31.769   8.656
 2252POPC   C2B30152   3.059  31.875   8.336
 2252POPC   C3B30153   3.162  31.922   7.922
 2252POPC   C4B30154   3.271  31.663   7.585
 2253POPC   NC330155  42.616  19.677   9.509
 2253POPC   PO430156  42.153  20.108   9.540
 2253POPC   GL130157  42.211  20.115   9.069
 2253POPC   GL230158  41.903  20.298   8.946
 2253POPC   C1A30159  42.414  19.847   8.747
 2253POPC   D2A30160  42.291  19.681   8.322
 2253POPC   C3A30161  42.407  19.890   7.926
 2253POPC   C4A30162  42.769  19.714   7.733
 2253POPC   C1B30163  41.958  20.008   8.605
 2253POPC   C2B30164  41.951  20.044   8.175
 2253POPC   C3B30165  41.963  20.156   7.767
 2253POPC   C4B30166  42.155  20.086   7.394
 2254POPC   NC330167  25.993  23.831   9.442
 2254POPC   PO430168  25.647  23.295   9.391
 2254POPC   GL130169  25.882  23.507   9.039
 2254POPC   GL230170  26.239  23.644   9.040
 2254POPC   C1A30171  25.872  23.729   8.649
 2254POPC   D2A30172  25.763  23.852   8.240
 2254POPC   C3A30173  25.788  23.493   7.988
 2254POPC   C4A30174  25.922  23.406   7.606
 2254POPC   C1B30175  26.305  23.986   8.715
 2254POPC   C2B30176  26.241  24.026   8.273
 2254POPC   C3B30177  26.172  23.830   7.886
 2254POPC   C4B30178  26.290  23.739   7.468
 2255POPC   NC330179  21.947  25.259   9.390
 2255POPC   PO430180  22.209  24.829   9.710
 2255POPC   GL130181  22.370  24.994   9.240
 2255POPC   GL230182  22.366  25.365   9.109
 2255POPC   C1A30183  22.393  25.003   8.754
 2255POPC   D2A30184  22.123  25.128   8.374
 2255POPC   C3A30185  22.206  25.133   7.899
 2255POPC   C4A30186  22.041  25.068   7.453
 2255POPC   C1B30187  22.209  25.579   8.722
 2255POPC   C2B30188  22.038  25.629   8.317
 2255POPC   C3B30189  22.209  25.669   7.915
 2255POPC   C4B30190  22.075  25.556   7.526
 2256POPC   NC330191  31.517  40.257   9.486
 2256POPC   PO430192  31.482  39.582   9.481
 2256POPC   GL130193  31.410  39.732   9.038
 2256POPC   GL230194  31.290  40.031   9.005
 2256POPC   C1A30195  31.408  39.812   8.564
 2256POPC   D2A30196  31.301  39.650   8.149
 2256POPC   C3A30197  31.558  39.784   7.773
 2256POPC   C4A30198  31.586  39.667   7.320
 2256POPC   C1B30199  31.594  40.269   8.713
 2256POPC   C2B30200  31.659  40.163   8.274
 2256POPC   C3B30201  31.291  40.141   8.009
 2256POPC   C4B30202  31.322  40.200   7.560
 2257POPC   NC330203  22.951  40.416   9.536
 2257POPC   PO430204  23.026  41.105   9.584
 2257POPC   GL130205  23.034  40.986   9.188
 2257POPC   GL230206  22.803  40.742   9.179
 2257POPC   C1A30207  23.179  40.901   8.795
 2257POPC   D2A30208  22.958  40.959   8.428
 2257POPC   C3A30209  23.104  40.816   8.072
 2257POPC   C4A30210  22.992  40.938   7.682
 2257POPC   C1B30211  22.615  40.879   8.803
 2257POPC   C2B30212  22.492  40.758   8.400
 2257POPC   C3B30213  22.589  40.867   8.016
 2257POPC   C4B30214  22.564  40.663   7.661
 2258POPC   NC330215  42.858  30.606   9.624
 2258POPC   PO430216  43.463  30.945   9.450
 2258POPC   GL130217  43.296  30.699   9.098
 2258POPC   GL230218  42.942  30.689   9.112
 2258POPC   C1A30219  43.159  30.730   8.654
 2258POPC   D2A30220  43.111  30.475   8.326
 2258POPC   C3A30221  43.313  30.700   8.012
 2258POPC   C4A30222  43.464  30.460   7.723
 2258POPC   C1B30223  42.777  30.426   8.766
 2258POPC   C2B30224  42.574  30.522   8.359
 2258POPC   C3B30225  42.787  30.711   8.013
 2258POPC   C4B30226  42.939  30.395   7.790
 2259POPC   NC330227   0.161  43.237   9.330
 2259POPC   PO430228  44.549  43.051   9.635
 2259POPC   GL130229  44.655  42.867   9.201
 2259POPC   GL230230   0.021  42.795   9.076
 2259POPC   C1A30231  44.650  42.671   8.769
 2259POPC   D2A30232  44.960  42.759   8.407
 2259POPC   C3A30233  44.726  42.854   8.008
 2259POPC   C4A30234  44.373  43.167   7.913
 2259POPC   C1B30235  44.842  43.140   8.783
 2259POPC   C2B30236  44.942  43.388   8.423
 2259POPC   C3B30237  44.999  43.548   8.014
 2259POPC   C4B30238  44.825  43.309   7.713
 2260POPC   NC330239  10.509  34.857   9.347
 2260POPC   PO430240  10.191  34.310   9.359
 2260POPC   GL130241  10.398  34.475   9.023
 2260POPC   GL230242  10.755  34.455   8.995
 2260POPC   C1A30243  10.439  34.580   8.608
 2260POPC   D2A30244  10.395  34.823   8.259
 2260POPC   C3A30245  10.578  34.561   7.928
 2260POPC   C4A30246  10.818  34.170   7.909
 2260POPC   C1B30247  10.843  34.834   8.774
 2260POPC   C2B30248  10.876  34.737   8.345
 2260POPC   C3B30249  10.796  35.044   8.018
 2260POPC   C4B30250  10.666  34.969   7.629
 2261POPC   NC330251  29.837  43.505   9.304
 2261POPC   PO430252  30.259  44.050   9.408
 2261POPC   GL130253  30.012  43.910   9.052
 2261POPC   GL230254  29.632  43.877   9.045
 2261POPC   C1A30255  30.057  43.803   8.651
 2261POPC   D2A30256  30.175  43.635   8.276
 2261POPC   C3A30257  30.229  43.957   7.976
 2261POPC   C4A30258  30.173  44.130   7.577
 2261POPC   C1B30259  29.582  43.987   8.639
 2261POPC   C2B30260  29.749  43.983   8.240
 2261POPC   C3B30261  29.743  43.961   7.828
 2261POPC   C4B30262  29.701  43.599   7.581
 2262POPC   NC330263  25.735  35.800   9.336
 2262POPC   PO430264  26.266  36.199   9.575
 2262POPC   GL130265  26.154  36.037   9.162
 2262POPC   GL230266  26.385  35.817   9.108
 2262POPC   C1A30267  25.928  36.108   8.719
 2262POPC   D2A30268  25.778  36.269   8.281
 2262POPC   C3A30269  25.971  36.179   7.908
 2262POPC   C4A30270  26.270  35.905   7.826
 2262POPC   C1B30271  26.438  36.044   8.757
 2262POPC   C2B30272  26.297  36.085   8.353
 2262POPC   C3B30273  26.316  36.458   8.144
 2262POPC   C4B30274  26.386  36.439   7.722
 2263POPC   NC330275   5.305   4.164   9.542
 2263POPC   PO430276   4.968   4.802   9.540
 2263POPC   GL130277   5.012   4.458   9.236
 2263POPC   GL230278   4.828   4.143   9.273
 2263POPC   C1A30279   4.997   4.337   8.798
 2263POPC   D2A30280   4.970   4.493   8.354
 2263POPC   C3A30281   5.091   4.312   7.929
 2263POPC   C4A30282   5.041   4.382   7.493
 2263POPC   C1B30283   4.739   3.924   8.893
 2263POPC   C2B30284   4.652   4.089   8.484
 2263POPC   C3B30285   4.825   3.930   8.112
 2263POPC   C4B30286   4.686   4.017   7.679
 2264POPC   NC330287  13.799  15.753   9.585
 2264POPC   PO430288  13.258  16.199   9.608
 2264POPC   GL130289  13.395  15.924   9.177
 2264POPC   GL230290  13.713  15.732   9.091
 2264POPC   C1A30291  13.364  15.792   8.719
 2264POPC   D2A30292  13.399  15.978   8.276
 2264POPC   C3A30293  13.543  15.872   7.848
 2264POPC   C4A30294  13.560  15.715   7.400
 2264POPC   C1B30295  13.915  15.703   8.701
 2264POPC   C2B30296  13.971  15.813   8.287
 2264POPC   C3B30297  13.994  15.680   7.899
 2264POPC   C4B30298  14.009  15.938   7.552
 2265POPC   NC330299   1.076  21.551   9.574
 2265POPC   PO430300   1.292  20.992   9.564
 2265POPC   GL130301   1.179  21.232   9.165
 2265POPC   GL230302   0.837  21.352   9.153
 2265POPC   C1A30303   1.317  21.430   8.753
 2265POPC   D2A30304   1.540  21.496   8.343
 2265POPC   C3A30305   1.349  21.496   7.943
 2265POPC   C4A30306   1.287  21.770   7.602
 2265POPC   C1B30307   0.814  21.373   8.717
 2265POPC   C2B30308   1.016  21.337   8.337
 2265POPC   C3B30309   0.861  21.589   8.012
 2265POPC   C4B30310   0.746  21.338   7.722
 2266POPC   NC330311  17.585  12.372   9.474
 2266POPC   PO430312  17.140  11.895   9.488
 2266POPC   GL130313  17.421  12.055   9.136
 2266POPC   GL230314  17.665  11.814   9.027
 2266POPC   C1A30315  17.705  12.286   8.832
 2266POPC   D2A30316  17.751  12.109   8.460
 2266POPC   C3A30317  17.578  12.206   8.062
 2266POPC   C4A30318  17.743  11.922   7.766
 2266POPC   C1B30319  17.235  11.651   8.880
 2266POPC   C2B30320  16.984  11.772   8.521
 2266POPC   C3B30321  17.066  11.692   8.083
 2266POPC   C4B30322  17.202  11.971   7.757
 2267POPC   NC330323  11.559  16.499   9.518
 2267POPC   PO430324  11.026  16.973   9.489
 2267POPC   GL130325  11.158  16.618   9.209
 2267POPC   GL230326  11.451  16.761   9.081
 2267POPC   C1A30327  11.225  16.438   8.765
 2267POPC   D2A30328  11.440  16.455   8.357
 2267POPC   C3A30329  11.206  16.612   7.992
 2267POPC   C4A30330  11.331  16.698   7.570
 2267POPC   C1B30331  11.601  16.834   8.663
 2267POPC   C2B30332  11.350  16.977   8.330
 2267POPC   C3B30333  11.450  17.084   7.920
 2267POPC   C4B30334  11.769  16.916   7.668
 2268POPC   NC330335  22.398  38.281   9.631
 2268POPC   PO430336  22.085  38.843   9.509
 2268POPC   GL130337  22.308  38.619   9.214
 2268POPC   GL230338  22.011  38.434   9.116
 2268POPC   C1A30339  22.408  38.637   8.777
 2268POPC   D2A30340  22.243  38.668   8.365
 2268POPC   C3A30341  22.200  38.376   8.041
 2268POPC   C4A30342  22.112  38.518   7.614
 2268POPC   C1B30343  22.017  38.309   8.662
 2268POPC   C2B30344  21.727  38.289   8.299
 2268POPC   C3B30345  21.727  38.268   7.841
 2268POPC   C4B30346  21.878  38.106   7.434
 2269POPC   NC330347  16.355  22.542   9.488
 2269POPC   PO430348  17.020  22.251   9.492
 2269POPC   GL130349  16.861  22.089   9.072
 2269POPC   GL230350  16.502  21.992   9.095
 2269POPC   C1A30351  16.740  21.867   8.676
 2269POPC   D2A30352  16.594  22.106   8.329
 2269POPC   C3A30353  16.941  22.150   8.063
 2269POPC   C4A30354  16.927  21.885   7.704
 2269POPC   C1B30355  16.405  22.305   8.781
 2269POPC   C2B30356  16.277  22.519   8.386
 2269POPC   C3B30357  16.356  22.401   7.950
 2269POPC   C4B30358  16.710  22.342   7.647
 2270POPC   NC330359  32.093  41.774   9.426
 2270POPC   PO430360  32.593  41.241   9.501
 2270POPC   GL130361  32.403  41.499   9.115
 2270POPC   GL230362  32.037  41.542   8.984
 2270POPC   C1A30363  32.352  41.851   8.789
 2270POPC   D2A30364  32.048  41.728   8.497
 2270POPC   C3A30365  32.223  41.565   8.154
 2270POPC   C4A30366  32.529  41.543   7.844
 2270POPC   C1B30367  31.781  41.307   8.739
 2270POPC   C2B30368  31.934  41.146   8.353
 2270POPC   C3B30369  31.940  41.216   7.925
 2270POPC   C4B30370  32.063  41.519   7.622
 2271POPC   NC330371  20.412  36.746   9.421
 2271POPC   PO430372  19.657  36.869   9.497
 2271POPC   GL130373  19.801  36.916   9.131
 2271POPC   GL230374  20.077  37.122   9.175
 2271POPC   C1A30375  19.705  37.175   8.789
 2271POPC   D2A30376  19.703  36.992   8.389
 2271POPC   C3A30377  19.682  37.235   8.002
 2271POPC   C4A30378  19.655  36.948   7.672
 2271POPC   C1B30379  20.212  37.000   8.816
 2271POPC   C2B30380  20.268  37.043   8.413
 2271POPC   C3B30381  20.130  36.984   8.005
 2271POPC   C4B30382  20.168  36.821   7.622
 2272POPC   NC330383  27.911  29.751   9.494
 2272POPC   PO430384  27.308  30.050   9.335
 2272POPC   GL130385  27.571  30.208   9.021
 2272POPC   GL230386  27.875  30.207   9.215
 2272POPC   C1A30387  27.555  30.111   8.569
 2272POPC   D2A30388  27.319  29.815   8.315
 2272POPC   C3A30389  27.277  29.890   7.895
 2272POPC   C4A30390  27.574  29.690   7.636
 2272POPC   C1B30391  27.946  29.902   8.848
 2272POPC   C2B30392  28.014  29.901   8.383
 2272POPC   C3B30393  27.747  30.048   8.031
 2272POPC   C4B30394  27.759  30.181   7.584
 2273POPC   NC330395  21.274  40.505   9.831
 2273POPC   PO430396  21.218  41.114   9.505
 2273POPC   GL130397  21.283  40.805   9.183
 2273POPC   GL230398  21.472  40.552   9.332
 2273POPC   C1A30399  21.323  40.796   8.743
 2273POPC   D2A30400  21.604  40.806   8.412
 2273POPC   C3A30401  21.437  40.779   7.990
 2273POPC   C4A30402  21.355  40.843   7.543
 2273POPC   C1B30403  21.683  40.506   8.938
 2273POPC   C2B30404  21.526  40.290   8.579
 2273POPC   C3B30405  21.666  40.180   8.183
 2273POPC   C4B30406  21.733  40.381   7.811
 2274POPC   NC330407  11.767  25.584   9.036
 2274POPC   PO430408  11.989  25.068   9.493
 2274POPC   GL130409  12.095  25.213   9.157
 2274POPC   GL230410  11.769  25.072   9.039
 2274POPC   C1A30411  12.337  25.322   8.824
 2274POPC   D2A30412  12.166  25.208   8.436
 2274POPC   C3A30413  12.325  25.265   8.073
 2274POPC   C4A30414  12.274  25.230   7.638
 2274POPC   C1B30415  11.697  25.070   8.605
 2274POPC   C2B30416  11.715  25.414   8.284
 2274POPC   C3B30417  11.866  25.405   7.874
 2274POPC   C4B30418  11.821  25.038   7.583
 2275POPC   NC330419  20.256  15.402   9.595
 2275POPC   PO430420  19.601  15.242   9.619
 2275POPC   GL130421  19.903  15.161   9.274
 2275POPC   GL230422  20.063  15.463   9.134
 2275POPC   C1A30423  19.909  14.964   8.859
 2275POPC   D2A30424  19.669  15.094   8.490
 2275POPC   C3A30425  19.857  14.955   8.098
 2275POPC   C4A30426  19.825  15.123   7.699
 2275POPC   C1B30427  19.740  15.454   8.847
 2275POPC   C2B30428  19.788  15.615   8.459
 2275POPC   C3B30429  19.675  15.464   8.069
 2275POPC   C4B30430  19.793  15.617   7.684
 2276POPC   NC330431  17.211  27.428   9.426
 2276POPC   PO430432  16.537  27.686   9.365
 2276POPC   GL130433  16.784  27.557   9.086
 2276POPC   GL230434  17.087  27.777   9.079
 2276POPC   C1A30435  16.726  27.709   8.673
 2276POPC   D2A30436  16.949  27.640   8.311
 2276POPC   C3A30437  16.645  27.687   8.035
 2276POPC   C4A30438  16.587  27.874   7.660
 2276POPC   C1B30439  17.142  27.425   8.762
 2276POPC   C2B30440  17.268  27.237   8.370
 2276POPC   C3B30441  17.072  27.222   8.013
 2276POPC   C4B30442  16.973  27.520   7.694
 2277POPC   NC330443   2.301   1.185   9.760
 2277POPC   PO430444   2.852   1.409   9.514
 2277POPC   GL130445   2.798   1.230   9.101
 2277POPC   GL230446   2.420   1.113   9.160
 2277POPC   C1A30447   2.966   1.324   8.661
 2277POPC   D2A30448   2.927   1.042   8.299
 2277POPC   C3A30449   2.704   1.145   7.937
 2277POPC   C4A30450   2.603   1.514   7.763
 2277POPC   C1B30451   2.493   1.156   8.700
 2277POPC   C2B30452   2.426   1.416   8.335
 2277POPC   C3B30453   2.193   1.284   7.992
 2277POPC   C4B30454   2.261   0.903   7.755
 2278POPC   NC330455  36.409   4.403   9.461
 2278POPC   PO430456  35.791   4.213   9.507
 2278POPC   GL130457  36.011   4.342   9.124
 2278POPC   GL230458  36.015   4.070   8.863
 2278POPC   C1A30459  36.199   4.533   8.743
 2278POPC   D2A30460  36.085   4.740   8.351
 2278POPC   C3A30461  36.325   4.578   7.983
 2278POPC   C4A30462  36.591   4.215   7.848
 2278POPC   C1B30463  36.452   4.039   8.688
 2278POPC   C2B30464  36.523   3.847   8.265
 2278POPC   C3B30465  36.253   3.837   7.881
 2278POPC   C4B30466  35.887   4.091   7.792
 2279POPC   NC330467  21.052  10.107   9.577
 2279POPC   PO430468  20.477  10.298   9.361
 2279POPC   GL130469  20.626   9.853   9.137
 2279POPC   GL230470  20.435   9.501   9.178
 2279POPC   C1A30471  20.672   9.696   8.698
 2279POPC   D2A30472  20.900   9.686   8.295
 2279POPC   C3A30473  20.775   9.905   7.899
 2279POPC   C4A30474  20.400   9.846   7.656
 2279POPC   C1B30475  20.198   9.520   8.778
 2279POPC   C2B30476  20.292   9.681   8.354
 2279POPC   C3B30477  20.099   9.594   7.986
 2279POPC   C4B30478  20.109   9.245   7.783
 2280POPC   NC330479  31.285   3.828   9.434
 2280POPC   PO430480  31.844   3.368   9.653
 2280POPC   GL130481  31.487   3.337   9.349
 2280POPC   GL230482  31.689   3.588   9.187
 2280POPC   C1A30483  31.233   3.363   8.920
 2280POPC   D2A30484  31.370   3.428   8.503
 2280POPC   C3A30485  31.318   3.252   8.143
 2280POPC   C4A30486  31.200   3.371   7.786
 2280POPC   C1B30487  31.608   3.748   8.793
 2280POPC   C2B30488  31.838   3.634   8.409
 2280POPC   C3B30489  31.784   3.497   7.991
 2280POPC   C4B30490  31.912   3.852   7.731
 2281POPC   NC330491   8.636  20.766   9.366
 2281POPC   PO430492   9.033  20.317   9.725
 2281POPC   GL130493   9.116  20.516   9.289
 2281POPC   GL230494   9.083  20.864   9.179
 2281POPC   C1A30495   9.092  20.405   8.836
 2281POPC   D2A30496   8.970  20.137   8.470
 2281POPC   C3A30497   9.010  20.340   8.063
 2281POPC   C4A30498   8.796  20.464   7.682
 2281POPC   C1B30499   8.825  20.945   8.783
 2281POPC   C2B30500   8.910  20.722   8.414
 2281POPC   C3B30501   9.155  20.826   8.073
 2281POPC   C4B30502   8.970  20.935   7.691
 2282POPC   NC330503  23.479  43.623   9.367
 2282POPC   PO430504  23.588  44.278   9.499
 2282POPC   GL130505  23.500  44.111   9.114
 2282POPC   GL230506  23.830  43.960   9.147
 2282POPC   C1A30507  23.536  43.869   8.728
 2282POPC   D2A30508  23.745  43.723   8.318
 2282POPC   C3A30509  23.527  43.905   7.948
 2282POPC   C4A30510  23.522  43.878   7.501
 2282POPC   C1B30511  23.987  44.108   8.756
 2282POPC   C2B30512  24.239  44.037   8.401
 2282POPC   C3B30513  24.073  44.056   8.001
 2282POPC   C4B30514  24.014  44.083   7.565
 2283POPC   NC330515  36.527   8.028   9.622
 2283POPC   PO430516  35.974   8.298   9.354
 2283POPC   GL130517  35.997   8.472   9.023
 2283POPC   GL230518  36.112   8.191   8.880
 2283POPC   C1A30519  35.848   8.585   8.663
 2283POPC   D2A30520  36.141   8.669   8.383
 2283POPC   C3A30521  36.102   8.392   8.040
 2283POPC   C4A30522  36.247   8.507   7.658
 2283POPC   C1B30523  36.156   7.920   8.602
 2283POPC   C2B30524  35.914   7.924   8.238
 2283POPC   C3B30525  36.143   7.853   7.874
 2283POPC   C4B30526  36.517   7.781   7.604
 2284POPC   NC330527  33.806  22.434   9.409
 2284POPC   PO430528  33.336  22.085   9.759
 2284POPC   GL130529  33.509  22.010   9.275
 2284POPC   GL230530  33.871  21.935   9.226
 2284POPC   C1A30531  33.571  22.096   8.819
 2284POPC   D2A30532  33.812  22.300   8.454
 2284POPC   C3A30533  33.825  22.084   8.066
 2284POPC   C4A30534  33.515  22.181   7.741
 2284POPC   C1B30535  34.077  22.146   8.856
 2284POPC   C2B30536  34.317  22.264   8.480
 2284POPC   C3B30537  34.200  22.423   8.047
 2284POPC   C4B30538  33.962  22.387   7.649
 2285POPC   NC330539  21.540  31.952   9.521
 2285POPC   PO430540  21.539  31.264   9.478
 2285POPC   GL130541  21.418  31.362   9.075
 2285POPC   GL230542  21.354  31.698   9.053
 2285POPC   C1A30543  21.574  31.384   8.671
 2285POPC   D2A30544  21.692  31.306   8.268
 2285POPC   C3A30545  21.397  31.243   7.951
 2285POPC   C4A30546  21.686  31.288   7.639
 2285POPC   C1B30547  21.271  31.812   8.633
 2285POPC   C2B30548  21.440  31.736   8.244
 2285POPC   C3B30549  21.472  31.762   7.831
 2285POPC   C4B30550  21.185  31.998   7.629
 2286POPC   NC330551  17.724  21.208   9.548
 2286POPC   PO430552  17.180  21.621   9.490
 2286POPC   GL130553  17.466  21.488   9.154
 2286POPC   GL230554  17.588  21.135   9.071
 2286POPC   C1A30555  17.580  21.504   8.712
 2286POPC   D2A30556  17.447  21.239   8.359
 2286POPC   C3A30557  17.664  21.364   7.975
 2286POPC   C4A30558  17.643  21.455   7.499
 2286POPC   C1B30559  17.994  21.069   8.870
 2286POPC   C2B30560  18.140  21.048   8.432
 2286POPC   C3B30561  17.886  20.831   8.105
 2286POPC   C4B30562  17.711  20.944   7.692
 2287POPC   NC330563  38.572  17.161   9.652
 2287POPC   PO430564  38.689  16.499   9.493
 2287POPC   GL130565  38.673  16.518   9.056
 2287POPC   GL230566  38.416  16.789   8.953
 2287POPC   C1A30567  38.489  16.347   8.698
 2287POPC   D2A30568  38.339  16.468   8.325
 2287POPC   C3A30569  38.578  16.382   8.015
 2287POPC   C4A30570  38.524  16.336   7.634
 2287POPC   C1B30571  38.139  16.879   8.579
 2287POPC   C2B30572  38.196  16.932   8.121
 2287POPC   C3B30573  38.257  16.869   7.659
 2287POPC   C4B30574  38.114  17.008   7.181
 2288POPC   NC330575  19.663  19.563   9.442
 2288POPC   PO430576  20.072  20.118   9.489
 2288POPC   GL130577  19.992  19.858   9.155
 2288POPC   GL230578  19.727  20.075   9.093
 2288POPC   C1A30579  19.803  19.668   8.776
 2288POPC   D2A30580  19.725  19.805   8.386
 2288POPC   C3A30581  19.567  19.538   8.138
 2288POPC   C4A30582  19.694  19.629   7.765
 2288POPC   C1B30583  19.953  20.156   8.704
 2288POPC   C2B30584  19.810  20.291   8.271
 2288POPC   C3B30585  19.778  20.117   7.821
 2288POPC   C4B30586  19.853  20.203   7.336
 2289POPC   NC330587  13.942  30.758   9.376
 2289POPC   PO430588  13.321  30.295   9.435
 2289POPC   GL130589  13.537  30.532   9.124
 2289POPC   GL230590  13.570  30.891   9.044
 2289POPC   C1A30591  13.787  30.461   8.799
 2289POPC   D2A30592  13.714  30.705   8.475
 2289POPC   C3A30593  13.764  30.603   8.064
 2289POPC   C4A30594  13.499  30.641   7.747
 2289POPC   C1B30595  13.905  31.105   8.739
 2289POPC   C2B30596  14.068  31.001   8.286
 2289POPC   C3B30597  13.953  31.025   7.826
 2289POPC   C4B30598  14.004  31.141   7.334
 2290POPC   NC330599  32.671  11.145   9.488
 2290POPC   PO430600  33.278  11.484   9.592
 2290POPC   GL130601  33.393  11.268   9.196
 2290POPC   GL230602  33.046  11.217   9.159
 2290POPC   C1A30603  33.543  11.130   8.771
 2290POPC   D2A30604  33.416  11.371   8.400
 2290POPC   C3A30605  33.303  11.285   8.001
 2290POPC   C4A30606  33.186  11.587   7.699
 2290POPC   C1B30607  33.071  11.340   8.755
 2290POPC   C2B30608  32.874  11.173   8.380
 2290POPC   C3B30609  32.798  11.283   7.965
 2290POPC   C4B30610  32.996  11.122   7.600
 2291POPC   NC330611   0.032  43.142   9.841
 2291POPC   PO430612   0.452  42.862   9.362
 2291POPC   GL130613   0.503  43.029   9.028
 2291POPC   GL230614   0.773  43.207   9.110
 2291POPC   C1A30615   0.325  43.065   8.641
 2291POPC   D2A30616   0.483  42.947   8.280
 2291POPC   C3A30617   0.194  43.061   8.035
 2291POPC   C4A30618   0.335  43.276   7.731
 2291POPC   C1B30619   0.836  43.089   8.670
 2291POPC   C2B30620   0.897  43.277   8.287
 2291POPC   C3B30621   0.819  43.369   7.865
 2291POPC   C4B30622   1.067  43.238   7.509
 2292POPC   NC330623  23.271  24.727   9.453
 2292POPC   PO430624  23.731  24.280   9.495
 2292POPC   GL130625  23.503  24.300   9.126
 2292POPC   GL230626  23.516  24.654   9.023
 2292POPC   C1A30627  23.721  24.277   8.737
 2292POPC   D2A30628  23.878  24.522   8.416
 2292POPC   C3A30629  23.766  24.334   8.041
 2292POPC   C4A30630  23.460  24.399   7.768
 2292POPC   C1B30631  23.667  24.943   8.703
 2292POPC   C2B30632  23.936  25.023   8.326
 2292POPC   C3B30633  23.757  24.842   7.940
 2292POPC   C4B30634  23.371  24.925   7.796
 2293POPC   NC330635  16.277  13.805   9.384
 2293POPC   PO430636  15.633  13.452   9.451
 2293POPC   GL130637  15.736  13.538   9.037
 2293POPC   GL230638  15.713  13.868   9.085
 2293POPC   C1A30639  15.824  13.516   8.588
 2293POPC   D2A30640  15.686  13.464   8.165
 2293POPC   C3A30641  16.041  13.613   7.943
 2293POPC   C4A30642  16.366  13.923   7.953
 2293POPC   C1B30643  15.874  14.025   8.721
 2293POPC   C2B30644  16.003  13.997   8.297
 2293POPC   C3B30645  15.806  14.102   7.890
 2293POPC   C4B30646  15.585  14.016   7.471
 2294POPC   NC330647  23.473  34.962   9.493
 2294POPC   PO430648  24.045  34.659   9.685
 2294POPC   GL130649  24.070  34.635   9.242
 2294POPC   GL230650  23.754  34.503   9.095
 2294POPC   C1A30651  24.101  34.734   8.807
 2294POPC   D2A30652  23.834  34.748   8.438
 2294POPC   C3A30653  23.955  34.687   8.005
 2294POPC   C4A30654  23.916  34.491   7.615
 2294POPC   C1B30655  23.467  34.495   8.723
 2294POPC   C2B30656  23.338  34.670   8.299
 2294POPC   C3B30657  23.459  34.647   7.856
 2294POPC   C4B30658  23.573  34.882   7.480
 2295POPC   NC330659  18.806  11.642   9.508
 2295POPC   PO430660  19.528  11.494   9.517
 2295POPC   GL130661  19.337  11.370   9.103
 2295POPC   GL230662  18.954  11.378   9.088
 2295POPC   C1A30663  19.208  11.288   8.659
 2295POPC   D2A30664  19.002  11.462   8.306
 2295POPC   C3A30665  19.250  11.348   7.987
 2295POPC   C4A30666  19.317  10.978   7.804
 2295POPC   C1B30667  18.771  11.040   8.804
 2295POPC   C2B30668  18.689  10.884   8.386
 2295POPC   C3B30669  18.838  11.015   7.992
 2295POPC   C4B30670  18.751  11.420   7.803
 2296POPC   NC330671  20.620  11.703   9.146
 2296POPC   PO430672  20.780  11.090   9.443
 2296POPC   GL130673  20.632  11.194   9.112
 2296POPC   GL230674  20.311  11.266   9.270
 2296POPC   C1A30675  20.835  11.188   8.730
 2296POPC   D2A30676  20.610  11.153   8.382
 2296POPC   C3A30677  20.721  11.378   7.998
 2296POPC   C4A30678  20.875  11.236   7.603
 2296POPC   C1B30679  20.199  11.246   8.823
 2296POPC   C2B30680  20.100  11.090   8.438
 2296POPC   C3B30681  20.219  11.269   8.072
 2296POPC   C4B30682  20.370  11.164   7.662
 2297POPC   NC330683   8.487  28.868   9.694
 2297POPC   PO430684   7.877  28.971   9.391
 2297POPC   GL130685   8.178  28.979   9.081
 2297POPC   GL230686   8.269  29.317   9.057
 2297POPC   C1A30687   8.118  29.010   8.639
 2297POPC   D2A30688   8.291  28.908   8.255
 2297POPC   C3A30689   8.060  28.892   7.862
 2297POPC   C4A30690   8.357  28.956   7.515
 2297POPC   C1B30691   8.062  29.543   8.729
 2297POPC   C2B30692   8.067  29.715   8.319
 2297POPC   C3B30693   8.093  29.410   7.982
 2297POPC   C4B30694   8.047  29.334   7.568
 2298POPC   NC330695   2.407  42.539   9.408
 2298POPC   PO430696   2.942  42.144   9.518
 2298POPC   GL130697   2.804  42.181   9.125
 2298POPC   GL230698   2.869  42.512   9.117
 2298POPC   C1A30699   3.019  42.183   8.722
 2298POPC   D2A30700   2.815  42.221   8.356
 2298POPC   C3A30701   2.808  42.254   7.945
 2298POPC   C4A30702   2.374  42.106   7.874
 2298POPC   C1B30703   2.606  42.494   8.741
 2298POPC   C2B30704   2.664  42.702   8.330
 2298POPC   C3B30705   2.470  42.639   7.913
 2298POPC   C4B30706   2.673  42.540   7.539
 2299POPC   NC330707   7.822   5.774   9.459
 2299POPC   PO430708   8.377   6.093   9.431
 2299POPC   GL130709   8.166   5.933   9.111
 2299POPC   GL230710   8.217   5.585   9.110
 2299POPC   C1A30711   7.887   6.059   8.799
 2299POPC   D2A30712   7.919   5.906   8.407
 2299POPC   C3A30713   8.218   6.024   8.136
 2299POPC   C4A30714   8.184   5.853   7.757
 2299POPC   C1B30715   8.205   5.551   8.670
 2299POPC   C2B30716   8.218   5.510   8.214
 2299POPC   C3B30717   8.490   5.469   7.882
 2299POPC   C4B30718   8.596   5.668   7.481
 2300POPC   NC330719  31.071   2.853   9.492
 2300POPC   PO430720  30.599   2.329   9.504
 2300POPC   GL130721  30.630   2.600   9.161
 2300POPC   GL230722  30.461   2.922   9.161
 2300POPC   C1A30723  30.496   2.567   8.737
 2300POPC   D2A30724  30.513   2.812   8.365
 2300POPC   C3A30725  30.652   2.633   7.940
 2300POPC   C4A30726  30.612   2.602   7.470
 2300POPC   C1B30727  30.829   2.980   8.840
 2300POPC   C2B30728  30.902   3.167   8.415
 2300POPC   C3B30729  30.674   3.158   8.017
 2300POPC   C4B30730  30.834   3.032   7.637
 2301POPC   NC330731  20.304  36.760  10.024
 2301POPC   PO430732  20.356  37.204   9.573
 2301POPC   GL130733  20.641  37.184   9.217
 2301POPC   GL230734  20.797  36.880   9.085
 2301POPC   C1A30735  20.660  37.242   8.774
 2301POPC   D2A30736  20.790  37.042   8.392
 2301POPC   C3A30737  20.592  37.216   8.050
 2301POPC   C4A30738  20.580  37.116   7.629
 2301POPC   C1B30739  20.596  36.691   8.703
 2301POPC   C2B30740  20.513  36.621   8.242
 2301POPC   C3B30741  20.646  36.639   7.806
 2301POPC   C4B30742  20.461  36.475   7.416
 2302POPC   NC330743   5.986  43.265   9.450
 2302POPC   PO430744   5.406  42.878   9.647
 2302POPC   GL130745   5.591  43.008   9.224
 2302POPC   GL230746   5.921  42.894   9.115
 2302POPC   C1A30747   5.709  43.243   8.817
 2302POPC   D2A30748   5.837  43.141   8.380
 2302POPC   C3A30749   5.636  43.294   8.012
 2302POPC   C4A30750   5.533  43.062   7.672
 2302POPC   C1B30751   6.156  42.911   8.732
 2302POPC   C2B30752   6.303  42.962   8.289
 2302POPC   C3B30753   6.195  43.120   7.892
 2302POPC   C4B30754   6.357  43.193   7.469
 2303POPC   NC330755  22.249  18.483   9.579
 2303POPC   PO430756  21.947  17.948   9.833
 2303POPC   GL130757  21.909  18.150   9.366
 2303POPC   GL230758  21.682  17.954   9.147
 2303POPC   C1A30759  22.180  18.272   8.962
 2303POPC   D2A30760  22.261  18.100   8.535
 2303POPC   C3A30761  22.321  18.301   8.130
 2303POPC   C4A30762  22.293  18.126   7.731
 2303POPC   C1B30763  21.743  18.166   8.732
 2303POPC   C2B30764  21.839  18.366   8.361
 2303POPC   C3B30765  21.827  18.157   7.978
 2303POPC   C4B30766  21.828  18.303   7.568
 2304POPC   NC330767  35.033   5.020   9.556
 2304POPC   PO430768  34.400   5.293   9.504
 2304POPC   GL130769  34.699   5.186   9.182
 2304POPC   GL230770  34.990   5.369   9.180
 2304POPC   C1A30771  34.750   5.119   8.746
 2304POPC   D2A30772  34.384   5.135   8.436
 2304POPC   C3A30773  34.457   4.946   8.049
 2304POPC   C4A30774  34.854   4.893   7.856
 2304POPC   C1B30775  34.952   5.578   8.799
 2304POPC   C2B30776  34.943   5.589   8.374
 2304POPC   C3B30777  34.717   5.394   8.062
 2304POPC   C4B30778  34.558   5.295   7.679
 2305POPC   NC330779  43.184  40.676   9.704
 2305POPC   PO430780  42.782  41.109   9.458
 2305POPC   GL130781  42.972  40.807   9.220
 2305POPC   GL230782  43.288  40.741   9.143
 2305POPC   C1A30783  42.996  40.986   8.802
 2305POPC   D2A30784  43.110  40.943   8.389
 2305POPC   C3A30785  42.789  40.948   8.015
 2305POPC   C4A30786  42.976  40.887   7.576
 2305POPC   C1B30787  43.052  40.485   8.756
 2305POPC   C2B30788  42.978  40.454   8.300
 2305POPC   C3B30789  43.219  40.675   7.992
 2305POPC   C4B30790  43.388  40.540   7.678
 2306POPC   NC330791  12.383  16.997   9.248
 2306POPC   PO430792  11.723  16.992   9.475
 2306POPC   GL130793  11.933  16.690   9.180
 2306POPC   GL230794  11.951  16.961   8.996
 2306POPC   C1A30795  12.027  16.519   8.736
 2306POPC   D2A30796  12.159  16.636   8.308
 2306POPC   C3A30797  11.830  16.798   8.156
 2306POPC   C4A30798  11.690  16.460   7.915
 2306POPC   C1B30799  12.140  17.025   8.628
 2306POPC   C2B30800  12.241  17.202   8.262
 2306POPC   C3B30801  12.261  16.983   7.883
 2306POPC   C4B30802  12.179  16.554   7.794
 2307POPC   NC330803  29.472  22.553   9.661
 2307POPC   PO430804  29.953  23.011   9.442
 2307POPC   GL130805  29.723  22.825   9.144
 2307POPC   GL230806  29.530  22.518   9.163
 2307POPC   C1A30807  29.830  22.855   8.724
 2307POPC   D2A30808  29.821  23.161   8.405
 2307POPC   C3A30809  30.050  22.977   8.078
 2307POPC   C4A30810  30.023  22.828   7.662
 2307POPC   C1B30811  29.393  22.573   8.751
 2307POPC   C2B30812  29.636  22.501   8.401
 2307POPC   C3B30813  29.705  22.602   8.003
 2307POPC   C4B30814  29.684  22.444   7.588
 2308POPC   NC330815  26.145  22.128   9.552
 2308POPC   PO430816  25.723  21.687   9.642
 2308POPC   GL130817  25.775  22.042   9.223
 2308POPC   GL230818  26.174  22.113   9.067
 2308POPC   C1A30819  25.812  22.350   8.837
 2308POPC   D2A30820  25.858  22.381   8.356
 2308POPC   C3A30821  26.029  22.043   8.076
 2308POPC   C4A30822  25.962  22.010   7.648
 2308POPC   C1B30823  26.383  21.924   8.724
 2308POPC   C2B30824  26.483  21.940   8.275
 2308POPC   C3B30825  26.459  22.092   7.804
 2308POPC   C4B30826  26.304  22.260   7.374
 2309POPC   NC330827   0.023  17.517   9.490
 2309POPC   PO430828  44.362  17.763   9.457
 2309POPC   GL130829  44.648  17.623   9.099
 2309POPC   GL230830  44.934  17.819   8.976
 2309POPC   C1A30831  44.687  17.577   8.615
 2309POPC   D2A30832  44.901  17.495   8.216
 2309POPC   C3A30833  44.596  17.267   7.965
 2309POPC   C4A30834  44.340  17.049   7.655
 2309POPC   C1B30835  44.540  18.045   8.830
 2309POPC   C2B30836  44.261  17.961   8.478
 2309POPC   C3B30837  44.401  17.733   8.128
 2309POPC   C4B30838  44.726  17.802   7.825
 2310POPC   NC330839  39.219  21.801   9.406
 2310POPC   PO430840  39.279  22.420   9.612
 2310POPC   GL130841  39.129  22.256   9.197
 2310POPC   GL230842  39.044  22.521   9.046
 2310POPC   C1A30843  39.183  22.039   8.759
 2310POPC   D2A30844  39.371  21.875   8.338
 2310POPC   C3A30845  39.477  22.087   7.951
 2310POPC   C4A30846  39.425  21.969   7.511
 2310POPC   C1B30847  39.382  22.527   8.764
 2310POPC   C2B30848  39.541  22.458   8.323
 2310POPC   C3B30849  39.433  22.627   7.925
 2310POPC   C4B30850  39.320  22.546   7.478
 2311POPC   NC330851  22.436  31.989   9.517
 2311POPC   PO430852  22.480  32.580   9.540
 2311POPC   GL130853  22.248  32.388   9.133
 2311POPC   GL230854  22.207  32.041   9.084
 2311POPC   C1A30855  22.069  32.341   8.701
 2311POPC   D2A30856  22.174  32.571   8.315
 2311POPC   C3A30857  22.061  32.324   7.947
 2311POPC   C4A30858  22.049  32.373   7.492
 2311POPC   C1B30859  22.382  31.907   8.733
 2311POPC   C2B30860  22.281  32.046   8.330
 2311POPC   C3B30861  22.468  32.008   7.916
 2311POPC   C4B30862  22.375  31.953   7.470
 2312POPC   NC330863   5.898   1.870   9.681
 2312POPC   PO430864   6.099   2.489   9.499
 2312POPC   GL130865   5.886   2.168   9.243
 2312POPC   GL230866   6.050   1.825   9.179
 2312POPC   C1A30867   5.702   2.196   8.832
 2312POPC   D2A30868   5.862   2.203   8.406
 2312POPC   C3A30869   5.650   2.093   8.056
 2312POPC   C4A30870   5.992   1.911   7.811
 2312POPC   C1B30871   5.832   1.697   8.786
 2312POPC   C2B30872   5.882   1.690   8.327
 2312POPC   C3B30873   5.649   1.587   7.945
 2312POPC   C4B30874   5.542   1.908   7.588
 2313POPC   NC330875  11.548  21.288   9.534
 2313POPC   PO430876  11.141  21.738   9.281
 2313POPC   GL130877  11.348  21.449   9.075
 2313POPC   GL230878  11.217  21.131   9.163
 2313POPC   C1A30879  11.556  21.258   8.737
 2313POPC   D2A30880  11.389  21.216   8.360
 2313POPC   C3A30881  11.436  21.397   8.013
 2313POPC   C4A30882  11.409  21.464   7.600
 2313POPC   C1B30883  11.053  21.155   8.727
 2313POPC   C2B30884  10.920  21.320   8.307
 2313POPC   C3B30885  10.973  21.287   7.859
 2313POPC   C4B30886  10.939  21.398   7.388
 2314POPC   NC330887  38.213  22.431   9.334
 2314POPC   PO430888  38.729  21.895   9.377
 2314POPC   GL130889  38.591  22.192   9.032
 2314POPC   GL230890  38.552  22.570   8.978
 2314POPC   C1A30891  38.362  22.154   8.619
 2314POPC   D2A30892  38.091  21.943   8.292
 2314POPC   C3A30893  38.337  21.973   7.899
 2314POPC   C4A30894  38.687  22.256   7.781
 2314POPC   C1B30895  38.259  22.679   8.668
 2314POPC   C2B30896  38.185  22.590   8.208
 2314POPC   C3B30897  38.294  22.592   7.753
 2314POPC   C4B30898  38.600  22.572   7.387
 2315POPC   NC330899  10.829   8.283   9.580
 2315POPC   PO430900  10.284   7.936   9.336
 2315POPC   GL130901  10.618   8.024   9.081
 2315POPC   GL230902  10.836   7.774   9.136
 2315POPC   C1A30903  10.549   8.252   8.633
 2315POPC   D2A30904  10.119   8.202   8.426
 2315POPC   C3A30905  10.134   8.160   7.982
 2315POPC   C4A30906  10.456   8.000   7.718
 2315POPC   C1B30907  10.633   7.752   8.682
 2315POPC   C2B30908  10.574   7.929   8.245
 2315POPC   C3B30909  10.897   7.940   7.928
 2315POPC   C4B30910  10.866   7.741   7.504
 2316POPC   NC330911  26.411  25.793   9.560
 2316POPC   PO430912  26.200  25.137   9.522
 2316POPC   GL130913  26.021  25.202   9.136
 2316POPC   GL230914  25.679  25.162   9.127
 2316POPC   C1A30915  25.973  25.197   8.700
 2316POPC   D2A30916  26.205  25.342   8.357
 2316POPC   C3A30917  26.277  25.112   7.992
 2316POPC   C4A30918  26.231  25.136   7.530
 2316POPC   C1B30919  25.608  25.538   8.861
 2316POPC   C2B30920  25.774  25.717   8.512
 2316POPC   C3B30921  25.792  25.586   8.111
 2316POPC   C4B30922  25.845  25.306   7.800
 2317POPC   NC330923  10.826  18.006   9.536
 2317POPC   PO430924  10.181  18.219   9.432
 2317POPC   GL130925  10.538  18.268   9.174
 2317POPC   GL230926  10.332  18.453   8.976
 2317POPC   C1A30927  10.786  18.057   8.879
 2317POPC   D2A30928  10.801  17.856   8.491
 2317POPC   C3A30929  10.711  18.068   8.121
 2317POPC   C4A30930  10.861  17.924   7.744
 2317POPC   C1B30931  10.453  18.287   8.584
 2317POPC   C2B30932  10.860  18.420   8.467
 2317POPC   C3B30933  10.682  18.612   8.147
 2317POPC   C4B30934  10.407  18.419   7.873
 2318POPC   NC330935  16.702   5.447   9.581
 2318POPC   PO430936  16.906   4.876   9.607
 2318POPC   GL130937  16.797   5.026   9.187
 2318POPC   GL230938  16.460   5.191   9.202
 2318POPC   C1A30939  16.920   5.053   8.742
 2318POPC   D2A30940  16.940   5.320   8.388
 2318POPC   C3A30941  16.816   5.153   7.996
 2318POPC   C4A30942  17.132   5.235   7.683
 2318POPC   C1B30943  16.400   5.008   8.803
 2318POPC   C2B30944  16.539   4.949   8.388
 2318POPC   C3B30945  16.321   4.783   8.036
 2318POPC   C4B30946  16.446   4.976   7.691
 2319POPC   NC330947   4.246   8.580   9.510
 2319POPC   PO430948   4.710   8.067   9.560
 2319POPC   GL130949   4.504   8.226   9.174
 2319POPC   GL230950   4.191   8.279   9.109
 2319POPC   C1A30951   4.458   8.073   8.746
 2319POPC   D2A30952   4.237   8.088   8.349
 2319POPC   C3A30953   4.483   8.194   7.972
 2319POPC   C4A30954   4.515   8.236   7.531
 2319POPC   C1B30955   4.051   8.437   8.751
 2319POPC   C2B30956   3.783   8.392   8.430
 2319POPC   C3B30957   3.894   8.339   8.041
 2319POPC   C4B30958   4.118   8.494   7.730
 2320POPC   NC330959  41.487  29.940   9.576
 2320POPC   PO430960  42.035  29.570   9.421
 2320POPC   GL130961  41.592  29.584   9.236
 2320POPC   GL230962  41.713  29.889   9.127
 2320POPC   C1A30963  41.327  29.748   8.859
 2320POPC   D2A30964  41.582  29.875   8.480
 2320POPC   C3A30965  41.427  29.819   8.055
 2320POPC   C4A30966  41.508  30.047   7.674
 2320POPC   C1B30967  41.866  29.590   8.808
 2320POPC   C2B30968  41.906  29.425   8.408
 2320POPC   C3B30969  41.967  29.711   8.093
 2320POPC   C4B30970  41.868  29.674   7.696
 2321POPC   NC330971  18.104  26.060   9.557
 2321POPC   PO430972  18.503  25.655   9.250
 2321POPC   GL130973  18.373  26.020   9.105
 2321POPC   GL230974  18.015  25.994   9.063
 2321POPC   C1A30975  18.398  26.278   8.770
 2321POPC   D2A30976  18.173  26.423   8.406
 2321POPC   C3A30977  18.422  26.358   8.034
 2321POPC   C4A30978  18.524  26.203   7.624
 2321POPC   C1B30979  18.185  25.809   8.684
 2321POPC   C2B30980  18.274  25.927   8.287
 2321POPC   C3B30981  18.106  25.923   7.884
 2321POPC   C4B30982  18.268  25.705   7.561
 2322POPC   NC330983  11.095   0.201   9.354
 2322POPC   PO430984  11.396   0.806   9.456
 2322POPC   GL130985  11.362   0.547   9.084
 2322POPC   GL230986  11.039   0.518   8.962
 2322POPC   C1A30987  11.458   0.335   8.696
 2322POPC   D2A30988  11.320   0.122   8.337
 2322POPC   C3A30989  11.181   0.354   8.013
 2322POPC   C4A30990  11.377   0.352   7.625
 2322POPC   C1B30991  10.978   0.128   8.727
 2322POPC   C2B30992  10.777   0.075   8.349
 2322POPC   C3B30993  10.822  44.956   7.940
 2322POPC   C4B30994  10.922   0.151   7.586
 2323POPC   NC330995  41.413  42.753   9.376
 2323POPC   PO430996  41.542  42.156   9.436
 2323POPC   GL130997  41.689  42.379   9.101
 2323POPC   GL230998  41.880  42.684   9.137
 2323POPC   C1A30999  41.502  42.366   8.711
 2323POPC   D2A31000  41.659  42.330   8.311
 2323POPC   C3A31001  41.358  42.390   7.966
 2323POPC   C4A31002  41.424  42.541   7.548
 2323POPC   C1B31003  41.982  42.581   8.708
 2323POPC   C2B31004  41.907  42.802   8.314
 2323POPC   C3B31005  41.834  42.599   7.931
 2323POPC   C4B31006  41.867  42.159   7.831
 2324POPC   NC331007   7.371  18.246   9.699
 2324POPC   PO431008   7.738  18.810   9.542
 2324POPC   GL131009   7.502  18.517   9.228
 2324POPC   GL231010   7.436  18.144   9.202
 2324POPC   C1A31011   7.300  18.419   8.819
 2324POPC   D2A31012   7.466  18.472   8.437
 2324POPC   C3A31013   7.269  18.339   8.087
 2324POPC   C4A31014   7.383  18.549   7.729
 2324POPC   C1B31015   7.498  17.917   8.770
 2324POPC   C2B31016   7.411  17.873   8.308
 2324POPC   C3B31017   7.580  17.973   7.867
 2324POPC   C4B31018   7.681  17.904   7.396
 2325POPC   NC331019  23.530   6.379   9.421
 2325POPC   PO431020  23.997   6.822   9.477
 2325POPC   GL131021  23.819   6.678   9.091
 2325POPC   GL231022  23.953   6.395   8.963
 2325POPC   C1A31023  23.613   6.836   8.704
 2325POPC   D2A31024  23.698   6.965   8.277
 2325POPC   C3A31025  23.422   6.789   8.004
 2325POPC   C4A31026  23.505   6.589   7.639
 2325POPC   C1B31027  23.535   6.341   8.748
 2325POPC   C2B31028  23.519   6.317   8.299
 2325POPC   C3B31029  23.796   6.453   8.020
 2325POPC   C4B31030  24.149   6.358   7.827
 2326POPC   NC331031   1.767   7.766   9.333
 2326POPC   PO431032   2.229   7.213   9.288
 2326POPC   GL131033   1.974   7.403   9.010
 2326POPC   GL231034   1.645   7.359   9.067
 2326POPC   C1A31035   1.847   7.527   8.608
 2326POPC   D2A31036   2.065   7.721   8.275
 2326POPC   C3A31037   2.048   7.480   7.946
 2326POPC   C4A31038   2.409   7.335   7.727
 2326POPC   C1B31039   1.569   7.109   8.736
 2326POPC   C2B31040   1.747   7.103   8.321
 2326POPC   C3B31041   1.703   7.063   7.905
 2326POPC   C4B31042   1.952   7.133   7.551
 2327POPC   NC331043  33.484  42.835   9.645
 2327POPC   PO431044  33.714  42.240   9.554
 2327POPC   GL131045  33.714  42.172   9.133
 2327POPC   GL231046  33.349  42.198   9.184
 2327POPC   C1A31047  33.889  42.443   8.800
 2327POPC   D2A31048  33.824  42.611   8.401
 2327POPC   C3A31049  34.053  42.419   8.056
 2327POPC   C4A31050  33.920  42.183   7.734
 2327POPC   C1B31051  33.379  42.441   8.817
 2327POPC   C2B31052  33.282  42.509   8.405
 2327POPC   C3B31053  33.531  42.390   8.036
 2327POPC   C4B31054  33.413  42.185   7.648
 2328POPC   NC331055  23.096  42.177   9.570
 2328POPC   PO431056  22.597  42.551   9.467
 2328POPC   GL131057  22.959  42.538   9.176
 2328POPC   GL231058  23.205  42.242   9.093
 2328POPC   C1A31059  23.010  42.516   8.727
 2328POPC   D2A31060  22.782  42.279   8.436
 2328POPC   C3A31061  23.045  42.282   8.086
 2328POPC   C4A31062  22.922  42.510   7.733
 2328POPC   C1B31063  22.792  42.091   8.942
 2328POPC   C2B31064  22.680  41.787   8.622
 2328POPC   C3B31065  22.666  41.771   8.160
 2328POPC   C4B31066  22.681  42.046   7.779
 2329POPC   NC331067  36.392  29.777   9.536
 2329POPC   PO431068  35.800  30.030   9.456
 2329POPC   GL131069  36.084  29.916   9.161
 2329POPC   GL231070  36.140  29.542   9.136
 2329POPC   C1A31071  36.100  30.083   8.802
 2329POPC   D2A31072  35.889  29.970   8.454
 2329POPC   C3A31073  36.082  30.060   8.089
 2329POPC   C4A31074  35.967  29.980   7.702
 2329POPC   C1B31075  36.212  29.583   8.701
 2329POPC   C2B31076  36.382  29.676   8.289
 2329POPC   C3B31077  36.275  29.599   7.895
 2329POPC   C4B31078  35.985  29.467   7.642
 2330POPC   NC331079  16.707  33.151   9.492
 2330POPC   PO431080  16.854  32.615   9.274
 2330POPC   GL131081  16.563  32.888   9.072
 2330POPC   GL231082  16.791  33.108   8.976
 2330POPC   C1A31083  16.375  33.281   8.804
 2330POPC   D2A31084  16.394  33.391   8.351
 2330POPC   C3A31085  16.627  33.096   8.053
 2330POPC   C4A31086  17.048  33.169   7.864
 2330POPC   C1B31087  16.891  32.773   8.659
 2330POPC   C2B31088  17.244  32.612   8.454
 2330POPC   C3B31089  17.124  32.706   8.046
 2330POPC   C4B31090  16.769  32.654   7.779
 2331POPC   NC331091   6.672  24.129   9.173
 2331POPC   PO431092   6.511  24.663   9.573
 2331POPC   GL131093   6.529  24.651   9.193
 2331POPC   GL231094   6.285  24.437   9.105
 2331POPC   C1A31095   6.604  24.705   8.806
 2331POPC   D2A31096   6.692  24.485   8.423
 2331POPC   C3A31097   6.646  24.708   8.055
 2331POPC   C4A31098   6.697  24.618   7.623
 2331POPC   C1B31099   6.252  24.342   8.688
 2331POPC   C2B31100   6.268  24.193   8.275
 2331POPC   C3B31101   6.294  24.390   7.881
 2331POPC   C4B31102   6.254  24.386   7.465
 2332POPC   NC331103  28.467  36.047   9.608
 2332POPC   PO431104  27.910  36.120   9.447
 2332POPC   GL131105  28.226  36.183   9.128
 2332POPC   GL231106  28.580  36.290   9.168
 2332POPC   C1A31107  28.256  36.119   8.689
 2332POPC   D2A31108  28.024  36.245   8.320
 2332POPC   C3A31109  28.124  35.941   8.021
 2332POPC   C4A31110  28.263  35.969   7.594
 2332POPC   C1B31111  28.618  36.479   8.758
 2332POPC   C2B31112  28.663  36.253   8.382
 2332POPC   C3B31113  28.478  36.304   7.983
 2332POPC   C4B31114  28.388  36.548   7.664
 2333POPC   NC331115  30.171  42.596   9.331
 2333POPC   PO431116  29.569  42.329   9.411
 2333POPC   GL131117  29.774  42.391   9.035
 2333POPC   GL231118  29.620  42.659   8.847
 2333POPC   C1A31119  29.927  42.156   8.692
 2333POPC   D2A31120  29.927  41.973   8.337
 2333POPC   C3A31121  29.755  42.124   8.001
 2333POPC   C4A31122  29.934  42.218   7.620
 2333POPC   C1B31123  30.053  42.627   8.655
 2333POPC   C2B31124  30.161  42.419   8.252
 2333POPC   C3B31125  30.170  42.593   7.847
 2333POPC   C4B31126  29.940  42.772   7.506
 2334POPC   NC331127  25.363  40.246   9.443
 2334POPC   PO431128  24.928  39.724   9.382
 2334POPC   GL131129  25.285  39.853   9.131
 2334POPC   GL231130  25.067  40.113   9.033
 2334POPC   C1A31131  25.397  39.911   8.708
 2334POPC   D2A31132  25.106  40.085   8.400
 2334POPC   C3A31133  25.307  40.065   8.031
 2334POPC   C4A31134  25.381  39.843   7.696
 2334POPC   C1B31135  24.824  40.382   8.749
 2334POPC   C2B31136  24.948  40.583   8.369
 2334POPC   C3B31137  24.972  40.442   7.985
 2334POPC   C4B31138  25.009  40.311   7.584
 2335POPC   NC331139  28.020   0.970   9.293
 2335POPC   PO431140  28.265   1.580   9.574
 2335POPC   GL131141  28.393   1.469   9.143
 2335POPC   GL231142  28.451   1.133   9.076
 2335POPC   C1A31143  28.231   1.371   8.705
 2335POPC   D2A31144  28.253   1.044   8.424
 2335POPC   C3A31145  28.384   1.185   8.046
 2335POPC   C4A31146  28.274   1.434   7.724
 2335POPC   C1B31147  28.699   1.111   8.710
 2335POPC   C2B31148  28.797   0.939   8.322
 2335POPC   C3B31149  28.870   1.041   7.926
 2335POPC   C4B31150  28.601   0.968   7.631
 2336POPC   NC331151  13.072  32.638   9.601
 2336POPC   PO431152  13.596  33.164   9.517
 2336POPC   GL131153  13.537  33.031   9.094
 2336POPC   GL231154  13.436  32.645   9.096
 2336POPC   C1A31155  13.624  33.279   8.704
 2336POPC   D2A31156  13.878  33.410   8.333
 2336POPC   C3A31157  13.618  33.348   7.996
 2336POPC   C4A31158  13.557  33.062   7.715
 2336POPC   C1B31159  13.712  32.722   8.716
 2336POPC   C2B31160  13.755  32.921   8.317
 2336POPC   C3B31161  13.909  32.783   7.954
 2336POPC   C4B31162  13.823  32.424   7.686
 2337POPC   NC331163   9.481  31.601   9.494
 2337POPC   PO431164  10.094  31.430   9.574
 2337POPC   GL131165  10.022  31.485   9.179
 2337POPC   GL231166   9.724  31.343   9.117
 2337POPC   C1A31167  10.012  31.578   8.740
 2337POPC   D2A31168   9.899  31.373   8.365
 2337POPC   C3A31169   9.830  31.598   7.983
 2337POPC   C4A31170  10.018  31.419   7.616
 2337POPC   C1B31171   9.500  31.614   8.840
 2337POPC   C2B31172   9.527  31.714   8.425
 2337POPC   C3B31173   9.273  31.625   8.073
 2337POPC   C4B31174   9.397  31.408   7.759
 2338POPC   NC331175  24.573  33.025   9.580
 2338POPC   PO431176  24.332  33.361   9.021
 2338POPC   GL131177  24.433  32.924   9.093
 2338POPC   GL231178  24.190  32.713   9.280
 2338POPC   C1A31179  24.601  32.739   8.728
 2338POPC   D2A31180  24.678  32.945   8.315
 2338POPC   C3A31181  24.723  32.850   7.870
 2338POPC   C4A31182  25.016  33.142   7.668
 2338POPC   C1B31183  24.041  32.722   8.837
 2338POPC   C2B31184  24.184  32.788   8.423
 2338POPC   C3B31185  24.215  33.099   8.114
 2338POPC   C4B31186  24.230  33.044   7.703
 2339POPC   NC331187  13.565  39.749   9.534
 2339POPC   PO431188  13.772  40.380   9.536
 2339POPC   GL131189  13.700  40.123   9.212
 2339POPC   GL231190  13.962  39.822   9.199
 2339POPC   C1A31191  13.539  39.912   8.877
 2339POPC   D2A31192  13.523  39.790   8.465
 2339POPC   C3A31193  13.301  40.044   8.195
 2339POPC   C4A31194  13.381  40.122   7.768
 2339POPC   C1B31195  14.053  40.101   8.858
 2339POPC   C2B31196  13.857  40.156   8.477
 2339POPC   C3B31197  13.818  39.974   8.058
 2339POPC   C4B31198  13.873  40.238   7.699
 2340POPC   NC331199   5.254  16.390   9.479
 2340POPC   PO431200   5.866  16.729   9.417
 2340POPC   GL131201   6.015  16.545   9.037
 2340POPC   GL231202   5.742  16.303   9.045
 2340POPC   C1A31203   6.071  16.493   8.602
 2340POPC   D2A31204   5.790  16.511   8.238
 2340POPC   C3A31205   5.863  16.677   7.840
 2340POPC   C4A31206   6.007  17.091   7.690
 2340POPC   C1B31207   5.570  16.612   8.708
 2340POPC   C2B31208   5.431  16.901   8.343
 2340POPC   C3B31209   5.439  16.931   7.863
 2340POPC   C4B31210   5.375  16.766   7.399
 2341POPC   NC331211  11.163  17.325   9.827
 2341POPC   PO431212  10.750  17.535   9.447
 2341POPC   GL131213  10.623  17.630   9.086
 2341POPC   GL231214  10.319  17.814   9.094
 2341POPC   C1A31215  10.742  17.408   8.742
 2341POPC   D2A31216  10.670  17.334   8.328
 2341POPC   C3A31217  10.934  17.137   8.039
 2341POPC   C4A31218  10.739  17.392   7.731
 2341POPC   C1B31219  10.317  17.757   8.647
 2341POPC   C2B31220  10.342  17.718   8.177
 2341POPC   C3B31221  10.350  17.898   7.749
 2341POPC   C4B31222  10.135  17.788   7.355
 2342POPC   NC331223  32.141   3.744   9.689
 2342POPC   PO431224  31.853   4.364   9.738
 2342POPC   GL131225  32.091   3.978   9.262
 2342POPC   GL231226  32.233   3.584   9.193
 2342POPC   C1A31227  32.101   3.886   8.802
 2342POPC   D2A31228  32.407   3.767   8.473
 2342POPC   C3A31229  32.290   3.721   8.042
 2342POPC   C4A31230  32.209   3.394   7.731
 2342POPC   C1B31231  32.563   3.424   8.843
 2342POPC   C2B31232  32.766   3.398   8.409
 2342POPC   C3B31233  32.666   3.391   7.939
 2342POPC   C4B31234  32.646   3.074   7.600
 2343POPC   NC331235   9.667  37.491   9.351
 2343POPC   PO431236   9.741  38.156   9.455
 2343POPC   GL131237   9.684  37.959   9.073
 2343POPC   GL231238   9.827  37.638   8.906
 2343POPC   C1A31239   9.753  38.105   8.690
 2343POPC   D2A31240   9.539  38.102   8.323
 2343POPC   C3A31241   9.591  37.737   8.098
 2343POPC   C4A31242   9.435  37.742   7.714
 2343POPC   C1B31243   9.412  37.656   8.755
 2343POPC   C2B31244   9.256  37.297   8.554
 2343POPC   C3B31245   9.128  37.257   8.138
 2343POPC   C4B31246   9.157  37.282   7.713
 2344POPC   NC331247  44.412  24.198   9.425
 2344POPC   PO431248  44.820  24.697   9.748
 2344POPC   GL131249  44.802  24.479   9.294
 2344POPC   GL231250  44.805  24.763   9.179
 2344POPC   C1A31251  44.716  24.409   8.788
 2344POPC   D2A31252  44.543  24.543   8.319
 2344POPC   C3A31253  44.707  24.309   7.898
 2344POPC   C4A31254  44.488  24.087   7.529
 2344POPC   C1B31255  44.870  24.889   8.772
 2344POPC   C2B31256   0.028  24.705   8.409
 2344POPC   C3B31257  44.901  24.781   8.001
 2344POPC   C4B31258  44.687  24.730   7.626
 2345POPC   NC331259  19.645  11.879   9.283
 2345POPC   PO431260  19.501  12.485   9.392
 2345POPC   GL131261  19.774  12.296   9.029
 2345POPC   GL231262  19.997  12.003   8.978
 2345POPC   C1A31263  19.737  12.115   8.581
 2345POPC   D2A31264  19.721  12.297   8.195
 2345POPC   C3A31265  19.959  12.254   7.847
 2345POPC   C4A31266  20.035  12.421   7.441
 2345POPC   C1B31267  20.242  12.038   8.675
 2345POPC   C2B31268  20.223  12.143   8.290
 2345POPC   C3B31269  20.410  12.021   7.943
 2345POPC   C4B31270  20.388  12.029   7.492
 2346POPC   NC331271  12.503  41.984   9.351
 2346POPC   PO431272  11.848  41.754   9.502
 2346POPC   GL131273  11.920  41.563   9.103
 2346POPC   GL231274  11.611  41.364   9.144
 2346POPC   C1A31275  12.221  41.627   8.737
 2346POPC   D2A31276  12.470  41.578   8.347
 2346POPC   C3A31277  12.308  41.813   7.982
 2346POPC   C4A31278  11.984  41.650   7.686
 2346POPC   C1B31279  11.755  41.321   8.704
 2346POPC   C2B31280  11.593  41.189   8.322
 2346POPC   C3B31281  11.793  41.168   7.943
 2346POPC   C4B31282  11.895  41.157   7.552
 2347POPC   NC331283  11.645  26.459   9.326
 2347POPC   PO431284  11.284  26.945   9.652
 2347POPC   GL131285  11.419  26.950   9.207
 2347POPC   GL231286  11.133  26.757   9.119
 2347POPC   C1A31287  11.359  27.008   8.731
 2347POPC   D2A31288  11.126  26.985   8.334
 2347POPC   C3A31289  11.309  27.182   7.984
 2347POPC   C4A31290  11.653  27.015   7.725
 2347POPC   C1B31291  10.944  26.688   8.715
 2347POPC   C2B31292  10.951  26.515   8.285
 2347POPC   C3B31293  11.179  26.686   7.899
 2347POPC   C4B31294  11.251  26.806   7.456
 2348POPC   NC331295   1.811  31.811   9.694
 2348POPC   PO431296   2.206  31.315   9.483
 2348POPC   GL131297   1.964  31.586   9.252
 2348POPC   GL231298   2.249  31.751   9.168
 2348POPC   C1A31299   1.760  31.605   8.850
 2348POPC   D2A31300   1.719  31.390   8.464
 2348POPC   C3A31301   1.794  31.530   8.034
 2348POPC   C4A31302   1.520  31.446   7.678
 2348POPC   C1B31303   2.255  31.414   8.856
 2348POPC   C2B31304   2.262  31.321   8.453
 2348POPC   C3B31305   2.223  31.138   8.067
 2348POPC   C4B31306   2.178  31.341   7.697
 2349POPC   NC331307  20.960  20.843   9.523
 2349POPC   PO431308  20.648  21.399   9.756
 2349POPC   GL131309  20.707  21.313   9.328
 2349POPC   GL231310  20.441  21.084   9.313
 2349POPC   C1A31311  20.684  21.515   8.914
 2349POPC   D2A31312  20.481  21.603   8.507
 2349POPC   C3A31313  20.613  21.538   8.070
 2349POPC   C4A31314  20.469  21.629   7.626
 2349POPC   C1B31315  20.535  20.982   8.915
 2349POPC   C2B31316  20.744  21.158   8.540
 2349POPC   C3B31317  20.823  21.043   8.132
 2349POPC   C4B31318  20.704  21.163   7.722
 2350POPC   NC331319   7.832  43.260   9.397
 2350POPC   PO431320   7.214  43.017   9.521
 2350POPC   GL131321   7.439  42.901   9.148
 2350POPC   GL231322   7.455  43.224   9.086
 2350POPC   C1A31323   7.416  42.724   8.727
 2350POPC   D2A31324   7.630  42.830   8.335
 2350POPC   C3A31325   7.403  42.898   7.950
 2350POPC   C4A31326   7.555  42.940   7.512
 2350POPC   C1B31327   7.591  43.206   8.692
 2350POPC   C2B31328   7.554  43.454   8.337
 2350POPC   C3B31329   7.655  43.362   7.897
 2350POPC   C4B31330   7.657  43.428   7.453
 2351POPC   NC331331   0.233  39.140   9.588
 2351POPC   PO431332   0.659  38.709   9.295
 2351POPC   GL131333   0.457  39.124   9.135
 2351POPC   GL231334   0.047  39.215   9.128
 2351POPC   C1A31335   0.396  39.354   8.762
 2351POPC   D2A31336   0.242  39.434   8.359
 2351POPC   C3A31337   0.484  39.358   8.018
 2351POPC   C4A31338   0.446  39.364   7.585
 2351POPC   C1B31339  44.991  39.034   8.724
 2351POPC   C2B31340   0.128  38.918   8.302
 2351POPC   C3B31341   0.135  39.016   7.864
 2351POPC   C4B31342   0.324  38.894   7.462
 2352POPC   NC331343  37.395  22.812   9.765
 2352POPC   PO431344  38.048  22.727   9.654
 2352POPC   GL131345  37.722  22.679   9.304
 2352POPC   GL231346  37.564  22.988   9.175
 2352POPC   C1A31347  37.752  22.711   8.805
 2352POPC   D2A31348  37.479  22.909   8.458
 2352POPC   C3A31349  37.688  22.979   8.054
 2352POPC   C4A31350  37.761  22.709   7.680
 2352POPC   C1B31351  37.279  23.194   8.846
 2352POPC   C2B31352  37.259  23.421   8.422
 2352POPC   C3B31353  37.264  23.370   7.958
 2352POPC   C4B31354  37.338  23.025   7.659
 2353POPC   NC331355  33.446  18.352   9.458
 2353POPC   PO431356  32.850  18.048   9.455
 2353POPC   GL131357  33.032  18.248   9.134
 2353POPC   GL231358  33.256  18.003   9.117
 2353POPC   C1A31359  33.209  18.405   8.755
 2353POPC   D2A31360  33.039  18.571   8.345
 2353POPC   C3A31361  33.112  18.335   7.930
 2353POPC   C4A31362  32.781  18.132   7.705
 2353POPC   C1B31363  33.353  17.883   8.736
 2353POPC   C2B31364  33.265  18.066   8.357
 2353POPC   C3B31365  33.322  17.861   7.989
 2353POPC   C4B31366  33.188  17.844   7.572
 2354POPC   NC331367  18.472  24.167   9.484
 2354POPC   PO431368  18.124  24.764   9.501
 2354POPC   GL131369  18.281  24.574   9.127
 2354POPC   GL231370  18.210  24.212   9.059
 2354POPC   C1A31371  18.212  24.563   8.693
 2354POPC   D2A31372  18.241  24.806   8.361
 2354POPC   C3A31373  18.420  24.599   8.027
 2354POPC   C4A31374  18.262  24.319   7.752
 2354POPC   C1B31375  18.274  24.028   8.667
 2354POPC   C2B31376  18.241  24.102   8.236
 2354POPC   C3B31377  17.962  23.933   7.915
 2354POPC   C4B31378  17.915  24.020   7.465
 2355POPC   NC331379   6.174  36.856   9.430
 2355POPC   PO431380   5.667  37.025   9.868
 2355POPC   GL131381   5.644  36.922   9.350
 2355POPC   GL231382   5.782  36.607   9.172
 2355POPC   C1A31383   5.697  36.994   8.844
 2355POPC   D2A31384   5.737  36.714   8.470
 2355POPC   C3A31385   5.544  36.788   8.081
 2355POPC   C4A31386   5.626  36.841   7.654
 2355POPC   C1B31387   6.125  36.647   8.817
 2355POPC   C2B31388   6.215  36.539   8.408
 2355POPC   C3B31389   6.049  36.732   8.041
 2355POPC   C4B31390   6.180  36.903   7.667
 2356POPC   NC331391  24.878   3.440   9.567
 2356POPC   PO431392  24.273   3.710   9.471
 2356POPC   GL131393  24.332   3.616   9.103
 2356POPC   GL231394  24.663   3.573   9.110
 2356POPC   C1A31395  24.219   3.704   8.731
 2356POPC   D2A31396  24.446   3.569   8.404
 2356POPC   C3A31397  24.361   3.723   8.029
 2356POPC   C4A31398  24.623   3.938   7.759
 2356POPC   C1B31399  24.796   3.263   8.832
 2356POPC   C2B31400  24.852   3.259   8.414
 2356POPC   C3B31401  24.859   3.516   8.050
 2356POPC   C4B31402  24.634   3.428   7.688
 2357POPC   NC331403  14.148   7.867   9.628
 2357POPC   PO431404  14.782   7.803   9.435
 2357POPC   GL131405  14.508   7.657   9.134
 2357POPC   GL231406  14.176   7.559   9.221
 2357POPC   C1A31407  14.464   7.423   8.758
 2357POPC   D2A31408  14.579   7.296   8.338
 2357POPC   C3A31409  14.455   7.505   7.970
 2357POPC   C4A31410  14.593   7.494   7.528
 2357POPC   C1B31411  14.083   7.762   8.838
 2357POPC   C2B31412  14.154   7.636   8.409
 2357POPC   C3B31413  13.990   7.724   8.023
 2357POPC   C4B31414  14.080   7.613   7.632
 2358POPC   NC331415   8.407  38.247   9.401
 2358POPC   PO431416   7.791  38.580   9.495
 2358POPC   GL131417   8.048  38.467   9.123
 2358POPC   GL231418   8.418  38.571   9.003
 2358POPC   C1A31419   8.119  38.215   8.752
 2358POPC   D2A31420   7.886  38.247   8.385
 2358POPC   C3A31421   8.026  38.425   8.034
 2358POPC   C4A31422   7.834  38.748   7.819
 2358POPC   C1B31423   8.633  38.268   8.705
 2358POPC   C2B31424   8.523  38.127   8.281
 2358POPC   C3B31425   8.508  38.373   7.904
 2358POPC   C4B31426   8.279  38.610   7.574
 2359POPC   NC331427  37.095  34.381   9.516
 2359POPC   PO431428  36.566  34.773   9.416
 2359POPC   GL131429  36.726  34.515   9.069
 2359POPC   GL231430  37.060  34.521   9.030
 2359POPC   C1A31431  36.768  34.363   8.613
 2359POPC   D2A31432  37.054  34.407   8.237
 2359POPC   C3A31433  36.905  34.402   7.805
 2359POPC   C4A31434  36.656  34.430   7.413
 2359POPC   C1B31435  37.156  34.748   8.670
 2359POPC   C2B31436  37.426  34.736   8.310
 2359POPC   C3B31437  37.210  34.822   7.922
 2359POPC   C4B31438  36.962  34.870   7.559
 2360POPC   NC331439  15.806  30.229   9.554
 2360POPC   PO431440  15.149  30.582   9.508
 2360POPC   GL131441  15.077  30.691   9.111
 2360POPC   GL231442  15.042  31.017   9.187
 2360POPC   C1A31443  15.269  30.644   8.728
 2360POPC   D2A31444  15.328  30.824   8.313
 2360POPC   C3A31445  15.260  30.511   7.975
 2360POPC   C4A31446  15.465  30.356   7.620
 2360POPC   C1B31447  14.992  31.085   8.755
 2360POPC   C2B31448  14.813  31.022   8.362
 2360POPC   C3B31449  14.804  30.849   7.967
 2360POPC   C4B31450  15.101  30.840   7.639
 2361POPC   NC331451  20.434  18.564   9.382
 2361POPC   PO431452  20.570  17.892   9.319
 2361POPC   GL131453  20.678  18.202   9.084
 2361POPC   GL231454  20.342  18.254   8.991
 2361POPC   C1A31455  20.745  18.348   8.693
 2361POPC   D2A31456  20.899  18.495   8.333
 2361POPC   C3A31457  20.611  18.399   8.032
 2361POPC   C4A31458  20.602  18.359   7.615
 2361POPC   C1B31459  20.406  17.902   8.694
 2361POPC   C2B31460  20.243  17.845   8.290
 2361POPC   C3B31461  20.402  17.948   7.895
 2361POPC   C4B31462  20.347  17.925   7.477
 2362POPC   NC331463   2.830  17.149   9.412
 2362POPC   PO431464   2.465  16.490   9.437
 2362POPC   GL131465   2.621  16.741   9.153
 2362POPC   GL231466   2.975  16.709   9.220
 2362POPC   C1A31467   2.539  16.654   8.754
 2362POPC   D2A31468   2.620  16.362   8.453
 2362POPC   C3A31469   2.660  16.507   8.035
 2362POPC   C4A31470   2.420  16.477   7.656
 2362POPC   C1B31471   3.073  16.676   8.817
 2362POPC   C2B31472   2.910  16.812   8.433
 2362POPC   C3B31473   2.879  17.039   8.072
 2362POPC   C4B31474   2.653  16.935   7.715
 2363POPC   NC331475  21.149  15.553   9.419
 2363POPC   PO431476  21.437  14.941   9.360
 2363POPC   GL131477  21.279  15.193   9.034
 2363POPC   GL231478  21.402  15.509   8.982
 2363POPC   C1A31479  21.127  15.306   8.602
 2363POPC   D2A31480  20.965  15.391   8.200
 2363POPC   C3A31481  21.083  15.027   7.985
 2363POPC   C4A31482  21.325  14.873   7.647
 2363POPC   C1B31483  21.650  15.296   8.666
 2363POPC   C2B31484  21.535  15.132   8.267
 2363POPC   C3B31485  21.530  15.296   7.853
 2363POPC   C4B31486  21.809  15.587   7.669
 2364POPC   NC331487  14.479  21.070   9.549
 2364POPC   PO431488  14.666  21.721   9.437
 2364POPC   GL131489  14.451  21.488   9.159
 2364POPC   GL231490  14.428  21.771   8.939
 2364POPC   C1A31491  14.366  21.252   8.790
 2364POPC   D2A31492  14.199  21.385   8.403
 2364POPC   C3A31493  14.304  21.188   8.031
 2364POPC   C4A31494  14.325  21.169   7.619
 2364POPC   C1B31495  14.421  21.952   8.547
 2364POPC   C2B31496  14.437  21.803   8.136
 2364POPC   C3B31497  14.605  21.537   7.817
 2364POPC   C4B31498  14.667  21.604   7.366
 2365POPC   NC331499  39.805  21.090   9.793
 2365POPC   PO431500  39.762  20.490   9.446
 2365POPC   GL131501  40.068  20.483   9.115
 2365POPC   GL231502  40.206  20.136   9.006
 2365POPC   C1A31503  40.054  20.715   8.752
 2365POPC   D2A31504  39.780  20.608   8.416
 2365POPC   C3A31505  39.799  20.820   8.036
 2365POPC   C4A31506  39.804  20.684   7.632
 2365POPC   C1B31507  40.342  20.321   8.594
 2365POPC   C2B31508  40.269  20.681   8.261
 2365POPC   C3B31509  40.290  20.793   7.808
 2365POPC   C4B31510  40.263  20.579   7.387
 2366POPC   NC331511  28.156  43.372   9.439
 2366POPC   PO431512  28.666  42.944   9.364
 2366POPC   GL131513  28.549  43.227   9.083
 2366POPC   GL231514  28.239  43.038   9.058
 2366POPC   C1A31515  28.592  43.046   8.675
 2366POPC   D2A31516  28.548  43.188   8.277
 2366POPC   C3A31517  28.340  42.858   8.030
 2366POPC   C4A31518  28.505  42.932   7.626
 2366POPC   C1B31519  28.167  43.355   8.725
 2366POPC   C2B31520  28.050  43.242   8.301
 2366POPC   C3B31521  28.212  43.309   7.854
 2366POPC   C4B31522  28.013  43.552   7.520
 2367POPC   NC331523   2.121  13.618   9.688
 2367POPC   PO431524   1.577  13.971   9.432
 2367POPC   GL131525   1.885  13.760   9.156
 2367POPC   GL231526   2.178  13.523   9.185
 2367POPC   C1A31527   2.185  13.888   8.825
 2367POPC   D2A31528   2.149  13.776   8.397
 2367POPC   C3A31529   1.858  13.471   8.276
 2367POPC   C4A31530   1.781  13.395   7.833
 2367POPC   C1B31531   2.163  13.357   8.770
 2367POPC   C2B31532   2.266  13.171   8.382
 2367POPC   C3B31533   2.286  13.409   7.989
 2367POPC   C4B31534   2.221  13.270   7.590
 2368POPC   NC331535  24.886  20.780   9.466
 2368POPC   PO431536  24.225  20.543   9.486
 2368POPC   GL131537  24.350  20.432   9.095
 2368POPC   GL231538  24.698  20.440   9.113
 2368POPC   C1A31539  24.271  20.703   8.747
 2368POPC   D2A31540  24.460  20.767   8.352
 2368POPC   C3A31541  24.377  20.528   8.031
 2368POPC   C4A31542  24.046  20.563   7.795
 2368POPC   C1B31543  24.789  20.656   8.731
 2368POPC   C2B31544  24.918  20.957   8.355
 2368POPC   C3B31545  24.815  20.789   7.953
 2368POPC   C4B31546  24.793  20.393   7.775
 2369POPC   NC331547  11.711  19.682   9.478
 2369POPC   PO431548  11.120  20.067   9.539
 2369POPC   GL131549  11.110  19.913   9.135
 2369POPC   GL231550  11.359  19.638   9.084
 2369POPC   C1A31551  10.959  19.726   8.771
 2369POPC   D2A31552  11.221  19.549   8.480
 2369POPC   C3A31553  11.161  19.691   8.060
 2369POPC   C4A31554  11.113  20.020   7.747
 2369POPC   C1B31555  11.483  19.922   8.739
 2369POPC   C2B31556  11.587  20.023   8.304
 2369POPC   C3B31557  11.621  19.861   7.910
 2369POPC   C4B31558  11.540  19.448   7.790
 2370POPC   NC331559   6.018   4.082   9.337
 2370POPC   PO431560   5.574   4.574   9.517
 2370POPC   GL131561   5.623   4.349   9.143
 2370POPC   GL231562   5.453   4.597   9.002
 2370POPC   C1A31563   5.940   4.454   8.798
 2370POPC   D2A31564   5.938   4.403   8.364
 2370POPC   C3A31565   5.942   4.613   7.986
 2370POPC   C4A31566   6.007   4.310   7.680
 2370POPC   C1B31567   5.465   4.422   8.628
 2370POPC   C2B31568   5.465   4.507   8.225
 2370POPC   C3B31569   5.596   4.254   7.945
 2370POPC   C4B31570   5.497   4.203   7.527
 2371POPC   NC331571  11.942  22.356   9.922
 2371POPC   PO431572  12.351  22.011   9.480
 2371POPC   GL131573  12.115  21.930   9.103
 2371POPC   GL231574  11.993  22.280   9.081
 2371POPC   C1A31575  12.177  22.015   8.643
 2371POPC   D2A31576  12.126  22.337   8.309
 2371POPC   C3A31577  12.307  22.159   7.935
 2371POPC   C4A31578  12.440  22.329   7.506
 2371POPC   C1B31579  11.746  22.312   8.710
 2371POPC   C2B31580  11.676  22.082   8.339
 2371POPC   C3B31581  11.777  22.195   7.926
 2371POPC   C4B31582  11.609  22.045   7.555
 2372POPC   NC331583  34.576  17.215   9.640
 2372POPC   PO431584  34.565  17.973   9.530
 2372POPC   GL131585  34.511  17.603   9.212
 2372POPC   GL231586  34.754  17.312   9.169
 2372POPC   C1A31587  34.637  17.564   8.758
 2372POPC   D2A31588  34.796  17.851   8.502
 2372POPC   C3A31589  34.664  17.709   8.122
 2372POPC   C4A31590  34.639  17.687   7.707
 2372POPC   C1B31591  34.814  17.099   8.764
 2372POPC   C2B31592  34.746  17.220   8.328
 2372POPC   C3B31593  34.934  17.297   7.909
 2372POPC   C4B31594  34.917  17.365   7.414
 2373POPC   NC331595   7.979  27.113   9.458
 2373POPC   PO431596   8.352  26.593   9.540
 2373POPC   GL131597   8.140  26.726   9.150
 2373POPC   GL231598   8.289  27.051   9.070
 2373POPC   C1A31599   7.858  26.858   8.757
 2373POPC   D2A31600   7.810  27.129   8.341
 2373POPC   C3A31601   7.951  26.934   7.954
 2373POPC   C4A31602   8.074  26.514   7.838
 2373POPC   C1B31603   8.355  26.868   8.720
 2373POPC   C2B31604   8.190  26.736   8.379
 2373POPC   C3B31605   8.452  26.802   8.089
 2373POPC   C4B31606   8.435  26.840   7.699
 2374POPC   NC331607   7.812  38.955   9.765
 2374POPC   PO431608   8.387  39.250  10.007
 2374POPC   GL131609   8.217  39.237   9.461
 2374POPC   GL231610   7.958  39.005   9.229
 2374POPC   C1A31611   8.327  39.247   8.950
 2374POPC   D2A31612   8.243  39.174   8.458
 2374POPC   C3A31613   8.266  39.498   8.107
 2374POPC   C4A31614   8.349  39.536   7.621
 2374POPC   C1B31615   8.006  38.813   8.771
 2374POPC   C2B31616   8.290  38.617   8.455
 2374POPC   C3B31617   8.457  38.837   8.098
 2374POPC   C4B31618   8.254  39.077   7.810
 2375POPC   NC331619  41.149  27.693   9.526
 2375POPC   PO431620  40.529  27.472   9.398
 2375POPC   GL131621  40.862  27.593   9.119
 2375POPC   GL231622  40.998  27.244   9.194
 2375POPC   C1A31623  40.869  27.861   8.738
 2375POPC   D2A31624  40.628  27.932   8.366
 2375POPC   C3A31625  40.789  27.897   7.963
 2375POPC   C4A31626  40.690  27.750   7.545
 2375POPC   C1B31627  40.857  27.260   8.743
 2375POPC   C2B31628  40.811  27.430   8.330
 2375POPC   C3B31629  40.670  27.384   7.918
 2375POPC   C4B31630  40.886  27.225   7.568
 2376POPC   NC331631   5.716  34.350   9.784
 2376POPC   PO431632   6.002  33.789   9.498
 2376POPC   GL131633   6.017  33.617   9.125
 2376POPC   GL231634   5.691  33.615   9.053
 2376POPC   C1A31635   6.124  33.645   8.715
 2376POPC   D2A31636   6.013  33.873   8.336
 2376POPC   C3A31637   6.136  33.706   7.955
 2376POPC   C4A31638   6.042  34.015   7.684
 2376POPC   C1B31639   5.674  33.892   8.721
 2376POPC   C2B31640   5.436  33.934   8.361
 2376POPC   C3B31641   5.591  33.943   7.995
 2376POPC   C4B31642   5.670  33.665   7.739
 2377POPC   NC331643  38.958   0.974   9.263
 2377POPC   PO431644  39.580   1.072   9.461
 2377POPC   GL131645  39.442   1.072   9.090
 2377POPC   GL231646  39.523   0.733   9.001
 2377POPC   C1A31647  39.307   1.352   8.770
 2377POPC   D2A31648  39.421   1.458   8.339
 2377POPC   C3A31649  39.071   1.528   8.053
 2377POPC   C4A31650  38.996   1.356   7.653
 2377POPC   C1B31651  39.354   0.869   8.613
 2377POPC   C2B31652  39.065   0.778   8.259
 2377POPC   C3B31653  39.020   0.878   7.822
 2377POPC   C4B31654  39.320   0.880   7.471
 2378POPC   NC331655   8.458  21.549   9.492
 2378POPC   PO431656   7.756  21.539   9.631
 2378POPC   GL131657   7.827  21.409   9.161
 2378POPC   GL231658   8.115  21.230   9.190
 2378POPC   C1A31659   8.046  21.465   8.709
 2378POPC   D2A31660   8.248  21.445   8.267
 2378POPC   C3A31661   8.078  21.376   7.831
 2378POPC   C4A31662   8.131  21.385   7.362
 2378POPC   C1B31663   8.303  21.018   8.837
 2378POPC   C2B31664   8.271  20.912   8.420
 2378POPC   C3B31665   8.053  20.899   8.033
 2378POPC   C4B31666   7.916  20.948   7.606
 2379POPC   NC331667  32.300  10.573   9.588
 2379POPC   PO431668  32.266  11.266   9.655
 2379POPC   GL131669  32.320  10.936   9.208
 2379POPC   GL231670  32.553  10.651   9.134
 2379POPC   C1A31671  32.129  10.738   8.811
 2379POPC   D2A31672  32.059  10.474   8.413
 2379POPC   C3A31673  32.074  10.604   7.943
 2379POPC   C4A31674  32.372  10.639   7.548
 2379POPC   C1B31675  32.409  10.307   8.847
 2379POPC   C2B31676  32.508  10.201   8.416
 2379POPC   C3B31677  32.523  10.332   7.991
 2379POPC   C4B31678  32.222  10.164   7.719
 2380POPC   NC331679  39.675  29.523   9.589
 2380POPC   PO431680  40.076  29.958   9.461
 2380POPC   GL131681  40.005  29.832   9.072
 2380POPC   GL231682  39.792  29.602   9.096
 2380POPC   C1A31683  39.988  29.857   8.659
 2380POPC   D2A31684  40.000  30.048   8.302
 2380POPC   C3A31685  40.107  29.730   8.021
 2380POPC   C4A31686  39.993  29.933   7.641
 2380POPC   C1B31687  39.517  29.717   8.801
 2380POPC   C2B31688  39.556  29.794   8.396
 2380POPC   C3B31689  39.608  29.860   8.004
 2380POPC   C4B31690  39.578  29.640   7.691
 2381POPC   NC331691  12.873  34.901   9.582
 2381POPC   PO431692  12.339  35.319   9.625
 2381POPC   GL131693  12.627  35.203   9.236
 2381POPC   GL231694  13.005  35.211   9.200
 2381POPC   C1A31695  12.698  35.270   8.783
 2381POPC   D2A31696  12.736  35.048   8.412
 2381POPC   C3A31697  12.867  35.281   8.045
 2381POPC   C4A31698  12.973  35.128   7.651
 2381POPC   C1B31699  13.198  35.373   8.831
 2381POPC   C2B31700  13.256  35.368   8.396
 2381POPC   C3B31701  13.335  35.588   8.012
 2381POPC   C4B31702  13.100  35.628   7.674
 2382POPC   NC331703  10.356  18.662   9.453
 2382POPC   PO431704  10.649  19.303   9.442
 2382POPC   GL131705  10.559  19.304   9.029
 2382POPC   GL231706  10.534  18.943   9.042
 2382POPC   C1A31707  10.512  19.255   8.588
 2382POPC   D2A31708  10.751  19.460   8.293
 2382POPC   C3A31709  10.662  19.181   7.996
 2382POPC   C4A31710  10.617  18.879   7.714
 2382POPC   C1B31711  10.176  18.888   8.758
 2382POPC   C2B31712  10.208  18.756   8.325
 2382POPC   C3B31713   9.968  18.650   7.949
 2382POPC   C4B31714  10.153  18.775   7.556
 2383POPC   NC331715   1.293   3.866   9.597
 2383POPC   PO431716   1.437   3.203   9.406
 2383POPC   GL131717   1.176   3.407   9.092
 2383POPC   GL231718   1.103   3.742   9.146
 2383POPC   C1A31719   1.266   3.530   8.669
 2383POPC   D2A31720   1.212   3.275   8.286
 2383POPC   C3A31721   0.939   3.388   7.965
 2383POPC   C4A31722   1.266   3.623   7.793
 2383POPC   C1B31723   0.846   3.811   8.784
 2383POPC   C2B31724   0.872   3.677   8.384
 2383POPC   C3B31725   0.800   3.880   8.022
 2383POPC   C4B31726   0.862   3.855   7.585
 2384POPC   NC331727  15.498  23.054   9.428
 2384POPC   PO431728  14.848  22.907   9.595
 2384POPC   GL131729  15.027  22.901   9.214
 2384POPC   GL231730  15.295  22.635   9.196
 2384POPC   C1A31731  15.201  23.012   8.832
 2384POPC   D2A31732  15.359  22.961   8.427
 2384POPC   C3A31733  15.066  22.891   8.091
 2384POPC   C4A31734  15.153  23.172   7.764
 2384POPC   C1B31735  15.030  22.534   8.826
 2384POPC   C2B31736  15.205  22.462   8.393
 2384POPC   C3B31737  15.508  22.625   8.038
 2384POPC   C4B31738  15.438  22.780   7.595
 2385POPC   NC331739  21.790  24.635   9.654
 2385POPC   PO431740  22.255  24.195   9.757
 2385POPC   GL131741  22.215  24.513   9.324
 2385POPC   GL231742  21.923  24.519   9.141
 2385POPC   C1A31743  22.279  24.436   8.801
 2385POPC   D2A31744  22.299  24.632   8.387
 2385POPC   C3A31745  22.138  24.454   8.015
 2385POPC   C4A31746  22.206  24.559   7.623
 2385POPC   C1B31747  21.906  24.772   8.727
 2385POPC   C2B31748  21.785  24.748   8.281
 2385POPC   C3B31749  21.814  24.803   7.834
 2385POPC   C4B31750  21.747  24.695   7.354
 2386POPC   NC331751  42.852   2.530   9.575
 2386POPC   PO431752  43.127   3.154   9.397
 2386POPC   GL131753  42.914   2.857   9.169
 2386POPC   GL231754  43.202   2.679   9.103
 2386POPC   C1A31755  42.896   2.909   8.754
 2386POPC   D2A31756  43.195   2.840   8.426
 2386POPC   C3A31757  42.935   2.894   8.028
 2386POPC   C4A31758  42.994   2.832   7.608
 2386POPC   C1B31759  43.507   2.532   8.786
 2386POPC   C2B31760  43.453   2.365   8.370
 2386POPC   C3B31761  43.387   2.630   8.009
 2386POPC   C4B31762  43.297   2.449   7.681
 2387POPC   NC331763  41.383  21.144   9.495
 2387POPC   PO431764  42.057  20.973   9.457
 2387POPC   GL131765  41.759  21.207   9.170
 2387POPC   GL231766  41.764  21.576   9.140
 2387POPC   C1A31767  41.543  21.154   8.786
 2387POPC   D2A31768  41.701  20.901   8.468
 2387POPC   C3A31769  41.592  21.028   8.089
 2387POPC   C4A31770  41.757  21.310   7.836
 2387POPC   C1B31771  41.567  21.736   8.760
 2387POPC   C2B31772  41.562  21.625   8.324
 2387POPC   C3B31773  41.660  21.800   7.932
 2387POPC   C4B31774  41.495  21.654   7.536
 2388POPC   NC331775  28.181  19.787   9.492
 2388POPC   PO431776  28.671  19.274   9.377
 2388POPC   GL131777  28.483  19.597   9.006
 2388POPC   GL231778  28.135  19.789   9.006
 2388POPC   C1A31779  28.465  19.999   8.730
 2388POPC   D2A31780  28.126  19.946   8.440
 2388POPC   C3A31781  28.317  19.851   8.027
 2388POPC   C4A31782  28.432  19.908   7.590
 2388POPC   C1B31783  27.852  19.628   8.756
 2388POPC   C2B31784  27.677  19.629   8.373
 2388POPC   C3B31785  27.816  19.728   7.973
 2388POPC   C4B31786  27.956  19.727   7.520
 2389POPC   NC331787  41.639   1.070   9.652
 2389POPC   PO431788  41.036   0.997   9.432
 2389POPC   GL131789  41.328   1.207   9.120
 2389POPC   GL231790  41.711   1.235   9.162
 2389POPC   C1A31791  41.451   1.259   8.661
 2389POPC   D2A31792  41.775   1.155   8.333
 2389POPC   C3A31793  41.556   1.072   7.962
 2389POPC   C4A31794  41.192   1.276   7.822
 2389POPC   C1B31795  41.900   1.443   8.802
 2389POPC   C2B31796  41.782   1.649   8.395
 2389POPC   C3B31797  41.804   1.515   7.936
 2389POPC   C4B31798  41.989   1.373   7.493
 2390POPC   NC331799  33.351  38.734   9.454
 2390POPC   PO431800  32.881  38.299   9.659
 2390POPC   GL131801  33.050  38.336   9.286
 2390POPC   GL231802  32.864  38.623   9.227
 2390POPC   C1A31803  33.059  38.186   8.867
 2390POPC   D2A31804  33.241  38.336   8.488
 2390POPC   C3A31805  33.085  38.223   8.073
 2390POPC   C4A31806  33.356  38.207   7.705
 2390POPC   C1B31807  32.942  38.691   8.796
 2390POPC   C2B31808  32.806  38.597   8.363
 2390POPC   C3B31809  33.013  38.738   7.982
 2390POPC   C4B31810  32.946  38.527   7.621
 2391POPC   NC331811  34.870  41.614   9.401
 2391POPC   PO431812  34.204  41.782   9.524
 2391POPC   GL131813  34.445  41.875   9.156
 2391POPC   GL231814  34.447  41.529   9.093
 2391POPC   C1A31815  34.524  41.830   8.698
 2391POPC   D2A31816  34.257  41.567   8.451
 2391POPC   C3A31817  34.450  41.442   8.068
 2391POPC   C4A31818  34.717  41.734   7.789
 2391POPC   C1B31819  34.765  41.380   8.780
 2391POPC   C2B31820  34.942  41.571   8.413
 2391POPC   C3B31821  35.041  41.421   8.009
 2391POPC   C4B31822  34.776  41.220   7.734
 2392POPC   NC331823  21.754   2.468   9.303
 2392POPC   PO431824  22.196   2.873   9.443
 2392POPC   GL131825  22.135   2.786   9.060
 2392POPC   GL231826  22.383   2.511   9.028
 2392POPC   C1A31827  22.274   2.881   8.650
 2392POPC   D2A31828  22.415   2.806   8.226
 2392POPC   C3A31829  22.114   2.962   7.920
 2392POPC   C4A31830  22.131   2.919   7.454
 2392POPC   C1B31831  22.069   2.409   8.719
 2392POPC   C2B31832  21.938   2.533   8.306
 2392POPC   C3B31833  22.140   2.428   7.920
 2392POPC   C4B31834  22.214   2.411   7.474
 2393POPC   NC331835  29.228   2.247   9.470
 2393POPC   PO431836  29.188   1.660   9.355
 2393POPC   GL131837  29.272   1.918   9.035
 2393POPC   GL231838  28.977   2.069   9.071
 2393POPC   C1A31839  29.193   1.918   8.602
 2393POPC   D2A31840  29.187   1.768   8.193
 2393POPC   C3A31841  29.344   1.984   7.863
 2393POPC   C4A31842  29.412   1.906   7.471
 2393POPC   C1B31843  28.729   2.151   8.768
 2393POPC   C2B31844  28.732   2.012   8.362
 2393POPC   C3B31845  28.838   2.078   7.950
 2393POPC   C4B31846  28.942   2.122   7.524
 2394POPC   NC331847  25.231  12.702   9.436
 2394POPC   PO431848  24.591  12.688   9.457
 2394POPC   GL131849  24.914  12.642   9.048
 2394POPC   GL231850  25.305  12.812   8.967
 2394POPC   C1A31851  25.021  12.666   8.605
 2394POPC   D2A31852  25.362  12.757   8.335
 2394POPC   C3A31853  25.245  12.764   7.912
 2394POPC   C4A31854  25.244  13.087   7.575
 2394POPC   C1B31855  25.652  12.668   8.768
 2394POPC   C2B31856  25.728  12.407   8.403
 2394POPC   C3B31857  25.746  12.604   7.979
 2394POPC   C4B31858  25.528  12.560   7.550
 2395POPC   NC331859  14.049   1.978   9.226
 2395POPC   PO431860  14.648   1.907   9.575
 2395POPC   GL131861  14.546   1.913   9.133
 2395POPC   GL231862  14.437   1.598   9.066
 2395POPC   C1A31863  14.499   2.172   8.747
 2395POPC   D2A31864  14.257   2.154   8.346
 2395POPC   C3A31865  14.418   1.974   7.971
 2395POPC   C4A31866  14.451   2.089   7.512
 2395POPC   C1B31867  14.345   1.704   8.632
 2395POPC   C2B31868  13.991   1.688   8.371
 2395POPC   C3B31869  13.906   1.592   7.989
 2395POPC   C4B31870  14.046   1.775   7.630
 2396POPC   NC331871  27.746  31.912   9.579
 2396POPC   PO431872  27.438  32.536   9.513
 2396POPC   GL131873  27.516  32.193   9.214
 2396POPC   GL231874  27.572  32.456   9.018
 2396POPC   C1A31875  27.610  32.010   8.785
 2396POPC   D2A31876  27.808  32.167   8.397
 2396POPC   C3A31877  27.664  32.028   8.015
 2396POPC   C4A31878  27.586  32.255   7.678
 2396POPC   C1B31879  27.471  32.489   8.584
 2396POPC   C2B31880  27.464  32.491   8.145
 2396POPC   C3B31881  27.197  32.534   7.806
 2396POPC   C4B31882  26.797  32.632   7.720
 2397POPC   NC331883   5.570  24.968   9.473
 2397POPC   PO431884   6.116  25.311   9.482
 2397POPC   GL131885   5.850  25.257   9.132
 2397POPC   GL231886   5.458  25.310   9.091
 2397POPC   C1A31887   5.870  25.374   8.721
 2397POPC   D2A31888   5.818  25.530   8.324
 2397POPC   C3A31889   5.875  25.315   7.955
 2397POPC   C4A31890   5.600  25.415   7.688
 2397POPC   C1B31891   5.595  24.965   8.802
 2397POPC   C2B31892   5.729  25.018   8.383
 2397POPC   C3B31893   5.566  24.895   8.004
 2397POPC   C4B31894   5.778  24.912   7.636
 2398POPC   NC331895   3.226  13.941   9.501
 2398POPC   PO431896   2.537  13.689   9.522
 2398POPC   GL131897   2.817  13.547   9.146
 2398POPC   GL231898   3.103  13.761   9.053
 2398POPC   C1A31899   2.708  13.346   8.757
 2398POPC   D2A31900   2.605  13.543   8.373
 2398POPC   C3A31901   2.796  13.518   7.980
 2398POPC   C4A31902   2.643  13.597   7.559
 2398POPC   C1B31903   2.960  13.779   8.667
 2398POPC   C2B31904   3.041  13.896   8.255
 2398POPC   C3B31905   3.133  13.883   7.821
 2398POPC   C4B31906   3.173  13.470   7.593
 2399POPC   NC331907  33.273  22.567   9.717
 2399POPC   PO431908  33.869  22.894   9.516
 2399POPC   GL131909  33.637  22.947   9.161
 2399POPC   GL231910  33.430  22.684   9.224
 2399POPC   C1A31911  33.824  23.075   8.759
 2399POPC   D2A31912  33.993  23.263   8.373
 2399POPC   C3A31913  33.778  23.170   8.017
 2399POPC   C4A31914  33.867  22.942   7.651
 2399POPC   C1B31915  33.536  22.602   8.780
 2399POPC   C2B31916  33.622  22.791   8.372
 2399POPC   C3B31917  33.660  22.633   7.972
 2399POPC   C4B31918  33.393  22.695   7.577
 2400POPC   NC331919  33.601  25.074   9.449
 2400POPC   PO431920  34.294  25.446   9.477
 2400POPC   GL131921  33.969  25.352   9.155
 2400POPC   GL231922  33.637  25.458   9.123
 2400POPC   C1A31923  33.923  25.536   8.701
 2400POPC   D2A31924  33.904  25.476   8.280
 2400POPC   C3A31925  33.953  25.034   8.180
 2400POPC   C4A31926  33.837  25.124   7.783
 2400POPC   C1B31927  33.731  25.088   8.796
 2400POPC   C2B31928  33.524  25.028   8.431
 2400POPC   C3B31929  33.437  25.245   8.074
 2400POPC   C4B31930  33.421  25.354   7.640
 2401POPC   NC331931   3.453  11.984   9.621
 2401POPC   PO431932   3.790  12.221   9.133
 2401POPC   GL131933   3.436  12.020   9.053
 2401POPC   GL231934   3.158  12.177   9.222
 2401POPC   C1A31935   3.418  12.027   8.606
 2401POPC   D2A31936   3.282  11.952   8.221
 2401POPC   C3A31937   3.605  12.039   7.934
 2401POPC   C4A31938   3.972  11.799   7.794
 2401POPC   C1B31939   3.179  12.434   8.828
 2401POPC   C2B31940   3.423  12.532   8.457
 2401POPC   C3B31941   3.364  12.469   8.058
 2401POPC   C4B31942   3.248  12.327   7.709
 2402POPC   NC331943   3.029  39.040   9.493
 2402POPC   PO431944   2.784  39.649   9.545
 2402POPC   GL131945   2.747  39.333   9.157
 2402POPC   GL231946   2.639  38.925   9.195
 2402POPC   C1A31947   2.570  39.478   8.723
 2402POPC   D2A31948   2.390  39.620   8.313
 2402POPC   C3A31949   2.605  39.430   7.958
 2402POPC   C4A31950   2.625  39.269   7.529
 2402POPC   C1B31951   2.928  38.920   8.829
 2402POPC   C2B31952   2.852  38.809   8.398
 2402POPC   C3B31953   2.782  38.948   7.976
 2402POPC   C4B31954   3.045  39.011   7.606
 2403POPC   NC331955  11.624  38.698   9.530
 2403POPC   PO431956  10.952  38.544   9.556
 2403POPC   GL131957  11.238  38.541   9.195
 2403POPC   GL231958  11.535  38.275   9.233
 2403POPC   C1A31959  11.208  38.822   8.812
 2403POPC   D2A31960  11.371  38.996   8.417
 2403POPC   C3A31961  11.180  38.847   8.024
 2403POPC   C4A31962  11.259  38.482   7.696
 2403POPC   C1B31963  11.599  38.455   8.826
 2403POPC   C2B31964  11.394  38.483   8.432
 2403POPC   C3B31965  11.592  38.437   8.066
 2403POPC   C4B31966  11.575  38.042   7.881
 2404POPC   NC331967  31.970  33.864   9.405
 2404POPC   PO431968  32.567  33.461   9.453
 2404POPC   GL131969  32.361  33.697   9.108
 2404POPC   GL231970  32.401  34.072   9.198
 2404POPC   C1A31971  31.996  33.646   8.802
 2404POPC   D2A31972  31.902  33.872   8.439
 2404POPC   C3A31973  32.162  33.577   8.188
 2404POPC   C4A31974  32.156  33.669   7.772
 2404POPC   C1B31975  32.215  34.118   8.825
 2404POPC   C2B31976  32.400  33.903   8.506
 2404POPC   C3B31977  32.336  34.025   8.090
 2404POPC   C4B31978  32.500  34.130   7.732
 2405POPC   NC331979  44.070   8.444   9.576
 2405POPC   PO431980  43.399   8.206   9.636
 2405POPC   GL131981  43.590   8.326   9.247
 2405POPC   GL231982  43.882   8.134   9.196
 2405POPC   C1A31983  43.566   8.185   8.780
 2405POPC   D2A31984  43.706   8.375   8.369
 2405POPC   C3A31985  43.653   8.204   7.942
 2405POPC   C4A31986  43.604   8.322   7.483
 2405POPC   C1B31987  44.073   8.264   8.805
 2405POPC   C2B31988  44.166   8.152   8.417
 2405POPC   C3B31989  44.154   8.317   8.020
 2405POPC   C4B31990  44.458   8.159   7.766
 2406POPC   NC331991  14.197  35.092   9.302
 2406POPC   PO431992  14.678  35.565   9.450
 2406POPC   GL131993  14.531  35.430   9.102
 2406POPC   GL231994  14.243  35.618   9.056
 2406POPC   C1A31995  14.622  35.396   8.710
 2406POPC   D2A31996  14.509  35.423   8.326
 2406POPC   C3A31997  14.541  35.068   8.072
 2406POPC   C4A31998  14.437  35.351   7.764
 2406POPC   C1B31999  14.107  35.417   8.703
 2406POPC   C2B32000  14.112  35.102   8.408
 2406POPC   C3B32001  14.032  35.122   7.982
 2406POPC   C4B32002  14.016  35.141   7.533
 2407POPC   NC332003  40.978   6.055   9.305
 2407POPC   PO432004  41.491   6.519   9.483
 2407POPC   GL132005  41.330   6.503   9.104
 2407POPC   GL232006  41.012   6.558   9.145
 2407POPC   C1A32007  41.430   6.357   8.695
 2407POPC   D2A32008  41.459   6.563   8.337
 2407POPC   C3A32009  41.612   6.460   7.951
 2407POPC   C4A32010  41.929   6.671   7.706
 2407POPC   C1B32011  41.026   6.710   8.726
 2407POPC   C2B32012  41.180   6.996   8.404
 2407POPC   C3B32013  41.469   6.997   8.069
 2407POPC   C4B32014  41.400   6.846   7.666
 2408POPC   NC332015   4.489  14.928   9.555
 2408POPC   PO432016   4.231  15.558   9.488
 2408POPC   GL132017   4.393  15.282   9.188
 2408POPC   GL232018   4.117  15.047   9.232
 2408POPC   C1A32019   4.520  15.332   8.764
 2408POPC   D2A32020   4.302  15.287   8.378
 2408POPC   C3A32021   4.501  15.453   8.018
 2408POPC   C4A32022   4.526  15.236   7.665
 2408POPC   C1B32023   4.262  14.882   8.863
 2408POPC   C2B32024   4.351  14.776   8.451
 2408POPC   C3B32025   4.372  14.844   8.026
 2408POPC   C4B32026   3.976  14.913   7.806
 2409POPC   NC332027   1.584   5.908   9.462
 2409POPC   PO432028   2.279   5.744   9.411
 2409POPC   GL132029   2.155   6.031   9.109
 2409POPC   GL232030   1.827   6.004   9.030
 2409POPC   C1A32031   2.312   6.092   8.713
 2409POPC   D2A32032   2.092   6.072   8.307
 2409POPC   C3A32033   2.219   5.785   7.972
 2409POPC   C4A32034   2.405   5.793   7.588
 2409POPC   C1B32035   1.937   5.630   8.797
 2409POPC   C2B32036   1.979   5.517   8.369
 2409POPC   C3B32037   1.741   5.607   7.999
 2409POPC   C4B32038   1.813   5.928   7.683
 2410POPC   NC332039  24.647  18.514   9.369
 2410POPC   PO432040  24.122  18.068   9.365
 2410POPC   GL132041  24.416  18.168   9.066
 2410POPC   GL232042  24.278  18.501   8.991
 2410POPC   C1A32043  24.383  18.090   8.636
 2410POPC   D2A32044  24.280  17.826   8.288
 2410POPC   C3A32045  24.423  18.086   7.970
 2410POPC   C4A32046  24.652  18.047   7.641
 2410POPC   C1B32047  24.622  18.561   8.717
 2410POPC   C2B32048  24.568  18.498   8.299
 2410POPC   C3B32049  24.849  18.426   8.007
 2410POPC   C4B32050  24.910  18.480   7.599
 2411POPC   NC332051  34.069   8.116   9.338
 2411POPC   PO432052  33.730   8.687   9.344
 2411POPC   GL132053  33.761   8.434   8.996
 2411POPC   GL232054  34.109   8.419   8.912
 2411POPC   C1A32055  33.526   8.324   8.612
 2411POPC   D2A32056  33.448   8.038   8.257
 2411POPC   C3A32057  33.785   8.036   7.944
 2411POPC   C4A32058  34.067   8.231   7.632
 2411POPC   C1B32059  33.926   7.986   8.738
 2411POPC   C2B32060  33.906   7.733   8.372
 2411POPC   C3B32061  34.123   7.661   7.967
 2411POPC   C4B32062  34.373   7.801   7.634
 2412POPC   NC332063   0.606  28.051   9.559
 2412POPC   PO432064   0.313  28.688   9.517
 2412POPC   GL132065   0.598  28.451   9.203
 2412POPC   GL232066   0.431  28.167   9.096
 2412POPC   C1A32067   0.764  28.353   8.762
 2412POPC   D2A32068   0.496  28.216   8.381
 2412POPC   C3A32069   0.719  28.195   7.994
 2412POPC   C4A32070   0.903  28.556   7.777
 2412POPC   C1B32071   0.264  28.439   8.783
 2412POPC   C2B32072   0.057  28.555   8.458
 2412POPC   C3B32073   0.063  28.544   8.046
 2412POPC   C4B32074   0.327  28.381   7.729
 2413POPC   NC332075  17.068  19.503   9.813
 2413POPC   PO432076  17.481  19.900   9.415
 2413POPC   GL132077  17.319  19.955   9.043
 2413POPC   GL232078  17.545  19.661   8.970
 2413POPC   C1A32079  17.479  20.054   8.659
 2413POPC   D2A32080  17.547  19.820   8.341
 2413POPC   C3A32081  17.345  19.931   8.005
 2413POPC   C4A32082  17.300  20.185   7.690
 2413POPC   C1B32083  17.223  19.558   8.674
 2413POPC   C2B32084  17.061  19.607   8.285
 2413POPC   C3B32085  17.221  19.443   7.890
 2413POPC   C4B32086  17.446  19.688   7.566
 2414POPC   NC332087  11.939  25.704   9.545
 2414POPC   PO432088  11.751  26.372   9.773
 2414POPC   GL132089  12.106  26.281   9.330
 2414POPC   GL232090  12.225  25.954   9.168
 2414POPC   C1A32091  12.064  26.247   8.793
 2414POPC   D2A32092  12.009  26.379   8.363
 2414POPC   C3A32093  11.950  26.083   8.005
 2414POPC   C4A32094  12.127  26.256   7.655
 2414POPC   C1B32095  12.361  25.832   8.724
 2414POPC   C2B32096  12.254  25.726   8.293
 2414POPC   C3B32097  12.361  25.716   7.846
 2414POPC   C4B32098  12.146  25.719   7.463
 2415POPC   NC332099  25.345  13.475   9.611
 2415POPC   PO432100  25.031  13.103   9.258
 2415POPC   GL132101  25.240  13.416   9.068
 2415POPC   GL232102  25.592  13.408   9.151
 2415POPC   C1A32103  25.425  13.691   8.734
 2415POPC   D2A32104  25.528  13.948   8.365
 2415POPC   C3A32105  25.307  13.715   8.065
 2415POPC   C4A32106  24.992  13.426   7.938
 2415POPC   C1B32107  25.540  13.191   8.736
 2415POPC   C2B32108  25.291  13.274   8.399
 2415POPC   C3B32109  25.450  13.201   8.022
 2415POPC   C4B32110  25.628  13.485   7.745
 2416POPC   NC332111  34.696  14.296   9.595
 2416POPC   PO432112  34.349  14.840   9.381
 2416POPC   GL132113  34.698  14.548   9.155
 2416POPC   GL232114  34.647  14.146   9.107
 2416POPC   C1A32115  34.917  14.396   8.782
 2416POPC   D2A32116  34.807  14.407   8.369
 2416POPC   C3A32117  35.136  14.476   8.101
 2416POPC   C4A32118  34.992  14.343   7.686
 2416POPC   C1B32119  34.463  14.168   8.679
 2416POPC   C2B32120  34.308  14.236   8.273
 2416POPC   C3B32121  34.519  14.309   7.897
 2416POPC   C4B32122  34.523  14.254   7.445
 2417POPC   NC332123  19.642   6.827   9.549
 2417POPC   PO432124  19.097   6.436   9.700
 2417POPC   GL132125  19.023   6.581   9.249
 2417POPC   GL232126  19.352   6.635   9.136
 2417POPC   C1A32127  18.791   6.514   8.860
 2417POPC   D2A32128  18.944   6.695   8.471
 2417POPC   C3A32129  18.884   6.475   8.078
 2417POPC   C4A32130  18.905   6.674   7.683
 2417POPC   C1B32131  19.314   6.928   8.798
 2417POPC   C2B32132  19.459   6.896   8.391
 2417POPC   C3B32133  19.323   6.767   7.991
 2417POPC   C4B32134  19.385   6.982   7.624
 2418POPC   NC332135  34.993  25.709   9.849
 2418POPC   PO432136  34.485  26.096   9.517
 2418POPC   GL132137  34.414  26.039   9.104
 2418POPC   GL232138  34.743  26.102   9.083
 2418POPC   C1A32139  34.547  25.944   8.665
 2418POPC   D2A32140  34.696  26.155   8.298
 2418POPC   C3A32141  34.635  26.019   7.871
 2418POPC   C4A32142  34.357  26.047   7.502
 2418POPC   C1B32143  34.764  26.412   8.745
 2418POPC   C2B32144  34.964  26.564   8.354
 2418POPC   C3B32145  34.865  26.510   7.915
 2418POPC   C4B32146  34.813  26.312   7.489
 2419POPC   NC332147  37.827  41.986   9.502
 2419POPC   PO432148  37.303  42.345   9.391
 2419POPC   GL132149  37.522  42.254   9.101
 2419POPC   GL232150  37.781  42.484   9.081
 2419POPC   C1A32151  37.409  42.476   8.720
 2419POPC   D2A32152  37.424  42.374   8.319
 2419POPC   C3A32153  37.283  42.628   8.008
 2419POPC   C4A32154  37.430  42.605   7.618
 2419POPC   C1B32155  37.831  42.156   8.731
 2419POPC   C2B32156  37.831  42.074   8.308
 2419POPC   C3B32157  37.746  42.323   7.928
 2419POPC   C4B32158  37.988  42.564   7.609
 2420POPC   NC332159   6.564  34.352   9.742
 2420POPC   PO432160   6.714  34.912   9.406
 2420POPC   GL132161   6.613  34.605   9.118
 2420POPC   GL232162   6.849  34.389   9.286
 2420POPC   C1A32163   6.539  34.548   8.658
 2420POPC   D2A32164   6.760  34.647   8.277
 2420POPC   C3A32165   6.561  34.738   7.876
 2420POPC   C4A32166   6.169  34.594   7.685
 2420POPC   C1B32167   6.828  34.207   8.889
 2420POPC   C2B32168   6.976  34.226   8.497
 2420POPC   C3B32169   6.896  34.047   8.125
 2420POPC   C4B32170   6.869  34.350   7.816
 2421POPC   NC332171  13.109  14.320   9.604
 2421POPC   PO432172  12.457  14.547   9.475
 2421POPC   GL132173  12.762  14.379   9.197
 2421POPC   GL232174  13.091  14.553   9.162
 2421POPC   C1A32175  12.787  14.320   8.773
 2421POPC   D2A32176  12.724  14.029   8.487
 2421POPC   C3A32177  12.714  14.252   8.125
 2421POPC   C4A32178  12.898  14.143   7.768
 2421POPC   C1B32179  12.890  14.796   8.898
 2421POPC   C2B32180  13.052  14.696   8.515
 2421POPC   C3B32181  12.945  14.716   8.121
 2421POPC   C4B32182  13.097  14.598   7.775
 2422POPC   NC332183   7.073  21.179   9.497
 2422POPC   PO432184   6.515  21.623   9.592
 2422POPC   GL132185   6.792  21.522   9.207
 2422POPC   GL232186   6.703  21.189   9.120
 2422POPC   C1A32187   6.878  21.495   8.744
 2422POPC   D2A32188   6.658  21.442   8.364
 2422POPC   C3A32189   6.811  21.548   7.956
 2422POPC   C4A32190   6.800  21.651   7.511
 2422POPC   C1B32191   6.496  21.118   8.739
 2422POPC   C2B32192   6.351  21.039   8.314
 2422POPC   C3B32193   6.384  21.267   7.939
 2422POPC   C4B32194   6.660  21.168   7.595
 2423POPC   NC332195  29.807   0.876   9.551
 2423POPC   PO432196  30.070   1.485   9.418
 2423POPC   GL132197  29.771   1.306   9.054
 2423POPC   GL232198  29.837   0.969   9.055
 2423POPC   C1A32199  29.647   1.141   8.627
 2423POPC   D2A32200  29.879   0.968   8.333
 2423POPC   C3A32201  29.765   1.067   7.943
 2423POPC   C4A32202  29.564   1.123   7.555
 2423POPC   C1B32203  30.148   1.200   8.762
 2423POPC   C2B32204  30.178   1.382   8.358
 2423POPC   C3B32205  30.216   1.342   7.915
 2423POPC   C4B32206  30.479   1.109   7.620
 2424POPC   NC332207   2.680  14.801   9.397
 2424POPC   PO432208   3.224  14.413   9.568
 2424POPC   GL132209   3.074  14.307   9.138
 2424POPC   GL232210   2.852  14.589   8.965
 2424POPC   C1A32211   3.114  14.253   8.690
 2424POPC   D2A32212   2.861  14.454   8.413
 2424POPC   C3A32213   2.835  14.302   8.015
 2424POPC   C4A32214   2.695  14.675   7.838
 2424POPC   C1B32215   2.640  14.177   8.825
 2424POPC   C2B32216   2.578  14.036   8.422
 2424POPC   C3B32217   2.464  13.921   8.001
 2424POPC   C4B32218   2.450  14.212   7.657
 2425POPC   NC332219  36.024  28.305   9.323
 2425POPC   PO432220  36.595  28.686   9.508
 2425POPC   GL132221  36.401  28.549   9.099
 2425POPC   GL232222  36.311  28.180   8.941
 2425POPC   C1A32223  36.114  28.601   8.738
 2425POPC   D2A32224  36.382  28.687   8.419
 2425POPC   C3A32225  36.320  28.485   8.059
 2425POPC   C4A32226  36.321  28.592   7.642
 2425POPC   C1B32227  36.326  28.181   8.506
 2425POPC   C2B32228  35.920  28.218   8.352
 2425POPC   C3B32229  35.699  28.038   8.014
 2425POPC   C4B32230  35.951  28.254   7.738
 2426POPC   NC332231  43.043  29.867   9.558
 2426POPC   PO432232  42.929  29.423   9.111
 2426POPC   GL132233  42.881  29.866   9.064
 2426POPC   GL232234  43.079  30.191   9.144
 2426POPC   C1A32235  42.957  29.964   8.661
 2426POPC   D2A32236  42.789  30.066   8.302
 2426POPC   C3A32237  42.918  29.804   7.979
 2426POPC   C4A32238  43.239  30.014   7.802
 2426POPC   C1B32239  43.341  30.269   8.749
 2426POPC   C2B32240  43.381  30.012   8.316
 2426POPC   C3B32241  43.497  29.638   7.973
 2426POPC   C4B32242  43.360  29.661   7.474
 2427POPC   NC332243   8.150  31.108   9.782
 2427POPC   PO432244   7.979  31.732   9.569
 2427POPC   GL132245   8.192  31.574   9.226
 2427POPC   GL232246   8.006  31.269   9.206
 2427POPC   C1A32247   8.052  31.635   8.810
 2427POPC   D2A32248   7.919  31.480   8.407
 2427POPC   C3A32249   8.184  31.503   8.018
 2427POPC   C4A32250   7.957  31.477   7.613
 2427POPC   C1B32251   8.112  31.122   8.776
 2427POPC   C2B32252   8.330  31.164   8.383
 2427POPC   C3B32253   8.159  30.994   7.978
 2427POPC   C4B32254   8.311  31.124   7.595
 2428POPC   NC332255  35.783  17.630   9.437
 2428POPC   PO432256  36.473  17.579   9.544
 2428POPC   GL132257  36.207  17.421   9.217
 2428POPC   GL232258  36.182  17.752   9.063
 2428POPC   C1A32259  36.225  17.263   8.799
 2428POPC   D2A32260  36.377  17.438   8.403
 2428POPC   C3A32261  36.045  17.534   8.097
 2428POPC   C4A32262  36.169  17.633   7.674
 2428POPC   C1B32263  36.016  17.754   8.636
 2428POPC   C2B32264  35.647  17.695   8.383
 2428POPC   C3B32265  35.631  17.842   7.940
 2428POPC   C4B32266  35.785  17.893   7.514
 2429POPC   NC332267  13.904  31.567   9.635
 2429POPC   PO432268  13.354  31.213   9.529
 2429POPC   GL132269  13.551  31.389   9.147
 2429POPC   GL232270  13.878  31.577   9.122
 2429POPC   C1A32271  13.405  31.262   8.715
 2429POPC   D2A32272  13.161  31.325   8.315
 2429POPC   C3A32273  13.422  31.106   7.997
 2429POPC   C4A32274  13.586  31.298   7.610
 2429POPC   C1B32275  13.685  31.745   8.782
 2429POPC   C2B32276  13.617  31.591   8.383
 2429POPC   C3B32277  13.424  31.647   8.035
 2429POPC   C4B32278  13.472  31.796   7.671
 2430POPC   NC332279  31.265  37.919   9.522
 2430POPC   PO432280  31.645  37.324   9.547
 2430POPC   GL132281  31.771  37.587   9.189
 2430POPC   GL232282  31.613  37.906   9.132
 2430POPC   C1A32283  31.630  37.545   8.756
 2430POPC   D2A32284  31.659  37.499   8.330
 2430POPC   C3A32285  31.392  37.365   8.047
 2430POPC   C4A32286  31.687  37.539   7.749
 2430POPC   C1B32287  31.256  37.898   8.832
 2430POPC   C2B32288  31.234  37.782   8.403
 2430POPC   C3B32289  31.394  37.874   8.014
 2430POPC   C4B32290  31.451  37.974   7.588
 2431POPC   NC332291   6.412  27.678   9.513
 2431POPC   PO432292   7.037  27.527   9.509
 2431POPC   GL132293   6.815  27.519   9.143
 2431POPC   GL232294   6.671  27.197   9.208
 2431POPC   C1A32295   6.665  27.670   8.736
 2431POPC   D2A32296   6.518  27.841   8.353
 2431POPC   C3A32297   6.612  27.723   7.942
 2431POPC   C4A32298   6.929  27.867   7.639
 2431POPC   C1B32299   6.512  27.173   8.784
 2431POPC   C2B32300   6.551  27.312   8.361
 2431POPC   C3B32301   6.476  27.221   7.941
 2431POPC   C4B32302   6.805  27.340   7.633
 2432POPC   NC332303  10.266  11.584   9.314
 2432POPC   PO432304  10.676  11.100   9.562
 2432POPC   GL132305  10.543  11.197   9.141
 2432POPC   GL232306  10.212  11.078   9.111
 2432POPC   C1A32307  10.592  11.384   8.729
 2432POPC   D2A32308  10.699  11.626   8.353
 2432POPC   C3A32309  10.651  11.378   8.031
 2432POPC   C4A32310  10.762  11.416   7.591
 2432POPC   C1B32311  10.082  11.297   8.755
 2432POPC   C2B32312  10.212  11.470   8.380
 2432POPC   C3B32313  10.088  11.394   7.997
 2432POPC   C4B32314  10.310  11.237   7.689
 2433POPC   NC332315  13.473  29.865   9.551
 2433POPC   PO432316  13.871  30.358   9.565
 2433POPC   GL132317  13.713  30.072   9.167
 2433POPC   GL232318  13.659  29.722   9.123
 2433POPC   C1A32319  13.494  30.040   8.769
 2433POPC   D2A32320  13.627  30.187   8.381
 2433POPC   C3A32321  13.473  30.171   7.977
 2433POPC   C4A32322  13.830  30.220   7.703
 2433POPC   C1B32323  13.765  29.552   8.780
 2433POPC   C2B32324  13.595  29.579   8.430
 2433POPC   C3B32325  13.728  29.692   8.057
 2433POPC   C4B32326  13.610  29.763   7.701
 2434POPC   NC332327   0.212  10.833   9.612
 2434POPC   PO432328   0.565  10.259   9.451
 2434POPC   GL132329   0.554  10.550   9.114
 2434POPC   GL232330   0.217  10.585   9.141
 2434POPC   C1A32331   0.563  10.713   8.665
 2434POPC   D2A32332   0.503  10.536   8.218
 2434POPC   C3A32333   0.800  10.541   7.839
 2434POPC   C4A32334   0.817  10.337   7.400
 2434POPC   C1B32335   0.059  10.720   8.744
 2434POPC   C2B32336   0.119  10.841   8.372
 2434POPC   C3B32337   0.035  10.633   8.023
 2434POPC   C4B32338   0.296  10.525   7.698
 2435POPC   NC332339  41.443  34.064   9.433
 2435POPC   PO432340  41.407  34.813   9.529
 2435POPC   GL132341  41.580  34.796   9.151
 2435POPC   GL232342  41.574  34.439   9.116
 2435POPC   C1A32343  41.683  34.783   8.759
 2435POPC   D2A32344  41.714  34.626   8.366
 2435POPC   C3A32345  41.934  34.818   8.077
 2435POPC   C4A32346  41.539  34.901   7.862
 2435POPC   C1B32347  41.632  34.270   8.708
 2435POPC   C2B32348  41.518  34.174   8.246
 2435POPC   C3B32349  41.695  34.420   7.881
 2435POPC   C4B32350  41.802  34.268   7.474
 2436POPC   NC332351  38.710  19.662   9.540
 2436POPC   PO432352  38.793  20.296   9.289
 2436POPC   GL132353  38.525  20.093   8.996
 2436POPC   GL232354  38.512  19.733   9.074
 2436POPC   C1A32355  38.509  19.885   8.581
 2436POPC   D2A32356  38.680  19.591   8.278
 2436POPC   C3A32357  38.796  19.832   7.935
 2436POPC   C4A32358  38.589  20.124   7.683
 2436POPC   C1B32359  38.186  19.541   8.830
 2436POPC   C2B32360  38.067  19.410   8.429
 2436POPC   C3B32361  38.225  19.546   8.029
 2436POPC   C4B32362  38.230  19.769   7.664
 2437POPC   NC332363   6.689  36.459   9.406
 2437POPC   PO432364   6.578  37.087   9.460
 2437POPC   GL132365   6.817  36.922   9.152
 2437POPC   GL232366   6.840  37.264   9.008
 2437POPC   C1A32367   6.703  36.667   8.794
 2437POPC   D2A32368   6.611  36.873   8.436
 2437POPC   C3A32369   6.599  36.700   8.058
 2437POPC   C4A32370   6.676  36.974   7.739
 2437POPC   C1B32371   6.417  37.105   8.845
 2437POPC   C2B32372   6.139  37.073   8.492
 2437POPC   C3B32373   6.331  37.151   8.102
 2437POPC   C4B32374   6.366  37.390   7.736
 2438POPC   NC332375  44.101  44.330   9.449
 2438POPC   PO432376  43.698  44.764   9.755
 2438POPC   GL132377  43.741  44.845   9.286
 2438POPC   GL232378  43.753  44.539   9.129
 2438POPC   C1A32379  43.610  44.887   8.803
 2438POPC   D2A32380  43.687  44.934   8.330
 2438POPC   C3A32381  43.708  44.702   7.919
 2438POPC   C4A32382  43.762  44.877   7.509
 2438POPC   C1B32383  44.045  44.555   8.778
 2438POPC   C2B32384  44.001  44.494   8.333
 2438POPC   C3B32385  44.214  44.625   7.940
 2438POPC   C4B32386  44.079  44.460   7.559
 2439POPC   NC332387  10.211  33.271   9.544
 2439POPC   PO432388  10.893  33.074   9.566
 2439POPC   GL132389  10.617  33.012   9.171
 2439POPC   GL232390  10.263  33.050   9.092
 2439POPC   C1A32391  10.541  33.244   8.720
 2439POPC   D2A32392  10.332  33.336   8.298
 2439POPC   C3A32393  10.620  33.253   7.957
 2439POPC   C4A32394  10.628  32.941   7.646
 2439POPC   C1B32395  10.287  32.775   8.783
 2439POPC   C2B32396  10.459  32.842   8.411
 2439POPC   C3B32397  10.326  32.816   8.035
 2439POPC   C4B32398  10.170  32.736   7.643
 2440POPC   NC332399   6.199  13.101   9.655
 2440POPC   PO432400   6.799  12.651   9.499
 2440POPC   GL132401   6.755  12.877   9.127
 2440POPC   GL232402   6.529  13.156   9.166
 2440POPC   C1A32403   6.813  12.815   8.703
 2440POPC   D2A32404   6.600  12.960   8.349
 2440POPC   C3A32405   6.857  12.980   8.019
 2440POPC   C4A32406   6.874  12.695   7.710
 2440POPC   C1B32407   6.317  12.889   8.846
 2440POPC   C2B32408   6.106  12.873   8.446
 2440POPC   C3B32409   6.127  13.040   8.082
 2440POPC   C4B32410   6.416  12.944   7.765
 2441POPC   NC332411  20.325  28.587   9.484
 2441POPC   PO432412  20.512  27.982   9.419
 2441POPC   GL132413  20.697  28.272   9.087
 2441POPC   GL232414  20.798  28.638   9.169
 2441POPC   C1A32415  20.720  28.238   8.619
 2441POPC   D2A32416  20.774  27.964   8.253
 2441POPC   C3A32417  20.422  28.002   7.930
 2441POPC   C4A32418  20.136  28.257   7.652
 2441POPC   C1B32419  20.531  28.695   8.798
 2441POPC   C2B32420  20.619  28.733   8.374
 2441POPC   C3B32421  20.715  28.448   8.055
 2441POPC   C4B32422  20.814  28.556   7.663
 2442POPC   NC332423   5.005  26.435   9.808
 2442POPC   PO432424   5.339  25.980   9.531
 2442POPC   GL132425   5.230  25.924   9.128
 2442POPC   GL232426   5.068  26.205   9.116
 2442POPC   C1A32427   5.058  25.836   8.726
 2442POPC   D2A32428   4.916  26.110   8.402
 2442POPC   C3A32429   5.094  26.014   7.989
 2442POPC   C4A32430   4.854  25.944   7.616
 2442POPC   C1B32431   5.352  26.249   8.731
 2442POPC   C2B32432   5.334  26.385   8.293
 2442POPC   C3B32433   5.444  26.580   7.891
 2442POPC   C4B32434   5.529  26.499   7.459
 2443POPC   NC332435  38.042   9.036   9.416
 2443POPC   PO432436  38.685   8.817   9.459
 2443POPC   GL132437  38.501   8.806   9.091
 2443POPC   GL232438  38.601   8.527   8.946
 2443POPC   C1A32439  38.401   8.956   8.698
 2443POPC   D2A32440  38.302   8.871   8.281
 2443POPC   C3A32441  38.406   9.089   7.918
 2443POPC   C4A32442  38.397   9.437   7.607
 2443POPC   C1B32443  38.664   8.555   8.506
 2443POPC   C2B32444  38.696   8.503   8.106
 2443POPC   C3B32445  38.885   8.737   7.805
 2443POPC   C4B32446  38.626   8.962   7.484
 2444POPC   NC332447  24.270   6.425   9.410
 2444POPC   PO432448  24.688   6.934   9.551
 2444POPC   GL132449  24.584   6.733   9.171
 2444POPC   GL232450  24.310   6.913   9.110
 2444POPC   C1A32451  24.441   6.499   8.800
 2444POPC   D2A32452  24.523   6.680   8.431
 2444POPC   C3A32453  24.548   6.408   8.118
 2444POPC   C4A32454  24.550   6.658   7.765
 2444POPC   C1B32455  24.127   6.905   8.732
 2444POPC   C2B32456  24.018   6.595   8.459
 2444POPC   C3B32457  24.157   6.801   8.085
 2444POPC   C4B32458  24.081   6.837   7.660
 2445POPC   NC332459  21.516   3.753   9.548
 2445POPC   PO432460  21.228   3.108   9.530
 2445POPC   GL132461  21.213   3.349   9.169
 2445POPC   GL232462  21.505   3.556   9.069
 2445POPC   C1A32463  21.108   3.353   8.761
 2445POPC   D2A32464  21.300   3.172   8.422
 2445POPC   C3A32465  21.295   3.376   8.038
 2445POPC   C4A32466  21.568   3.322   7.681
 2445POPC   C1B32467  21.331   3.813   8.721
 2445POPC   C2B32468  20.999   3.746   8.420
 2445POPC   C3B32469  21.056   3.881   7.996
 2445POPC   C4B32470  21.219   3.699   7.617
 2446POPC   NC332471  24.330   2.612   9.686
 2446POPC   PO432472  24.902   2.988   9.460
 2446POPC   GL132473  24.638   2.858   9.133
 2446POPC   GL232474  24.415   3.103   9.178
 2446POPC   C1A32475  24.390   2.693   8.761
 2446POPC   D2A32476  24.293   2.490   8.349
 2446POPC   C3A32477  24.340   2.723   7.964
 2446POPC   C4A32478  24.524   2.952   7.611
 2446POPC   C1B32479  24.294   3.202   8.761
 2446POPC   C2B32480  24.306   3.071   8.339
 2446POPC   C3B32481  24.194   3.237   7.920
 2446POPC   C4B32482  24.093   3.155   7.452
 2447POPC   NC332483   6.404  42.360   9.498
 2447POPC   PO432484   7.052  42.202   9.509
 2447POPC   GL132485   6.740  42.128   9.165
 2447POPC   GL232486   6.442  41.919   9.246
 2447POPC   C1A32487   6.488  42.318   8.833
 2447POPC   D2A32488   6.468  42.499   8.417
 2447POPC   C3A32489   6.745  42.589   8.072
 2447POPC   C4A32490   6.543  42.763   7.690
 2447POPC   C1B32491   6.450  41.796   8.822
 2447POPC   C2B32492   6.645  41.990   8.470
 2447POPC   C3B32493   6.872  42.045   8.109
 2447POPC   C4B32494   6.758  42.195   7.706
 2448POPC   NC332495   2.559  31.760   9.706
 2448POPC   PO432496   3.041  31.225   9.591
 2448POPC   GL132497   2.961  31.291   9.202
 2448POPC   GL232498   2.681  31.486   9.285
 2448POPC   C1A32499   3.126  31.318   8.792
 2448POPC   D2A32500   2.900  31.395   8.413
 2448POPC   C3A32501   3.138  31.404   8.041
 2448POPC   C4A32502   3.164  31.170   7.656
 2448POPC   C1B32503   2.722  31.635   8.869
 2448POPC   C2B32504   2.539  31.769   8.479
 2448POPC   C3B32505   2.531  31.571   8.068
 2448POPC   C4B32506   2.769  31.525   7.711
 2449POPC   NC332507  21.705  27.742   9.532
 2449POPC   PO432508  21.187  27.275   9.630
 2449POPC   GL132509  21.307  27.399   9.174
 2449POPC   GL232510  21.466  27.719   9.078
 2449POPC   C1A32511  21.377  27.395   8.705
 2449POPC   D2A32512  21.652  27.277   8.356
 2449POPC   C3A32513  21.512  27.458   7.982
 2449POPC   C4A32514  21.539  27.742   7.634
 2449POPC   C1B32515  21.815  27.731   8.821
 2449POPC   C2B32516  21.985  27.699   8.437
 2449POPC   C3B32517  21.896  27.785   8.023
 2449POPC   C4B32518  21.956  27.485   7.695
 2450POPC   NC332519  35.323  36.574   9.433
 2450POPC   PO432520  35.505  35.949   9.441
 2450POPC   GL132521  35.223  36.125   9.168
 2450POPC   GL232522  35.022  35.818   9.196
 2450POPC   C1A32523  35.365  36.304   8.770
 2450POPC   D2A32524  35.667  36.216   8.430
 2450POPC   C3A32525  35.538  36.046   8.042
 2450POPC   C4A32526  35.606  36.251   7.693
 2450POPC   C1B32527  35.225  35.771   8.807
 2450POPC   C2B32528  35.154  35.932   8.417
 2450POPC   C3B32529  35.020  35.719   8.079
 2450POPC   C4B32530  35.188  35.839   7.707
 2451POPC   NC332531  21.589   6.702   9.850
 2451POPC   PO432532  21.534   6.806   9.218
 2451POPC   GL132533  21.572   6.406   9.152
 2451POPC   GL232534  21.226   6.279   9.147
 2451POPC   C1A32535  21.541   6.308   8.745
 2451POPC   D2A32536  21.589   6.512   8.364
 2451POPC   C3A32537  21.443   6.378   7.965
 2451POPC   C4A32538  21.516   6.742   7.727
 2451POPC   C1B32539  21.053   6.413   8.740
 2451POPC   C2B32540  21.047   6.546   8.331
 2451POPC   C3B32541  20.891   6.846   8.058
 2451POPC   C4B32542  21.019   6.671   7.703
 2452POPC   NC332543   4.656  22.365   9.332
 2452POPC   PO432544   4.106  22.174   9.583
 2452POPC   GL132545   4.249  22.112   9.137
 2452POPC   GL232546   4.326  21.750   9.140
 2452POPC   C1A32547   4.385  22.357   8.722
 2452POPC   D2A32548   4.331  22.291   8.261
 2452POPC   C3A32549   4.246  22.339   7.803
 2452POPC   C4A32550   4.416  22.474   7.395
 2452POPC   C1B32551   4.333  21.857   8.693
 2452POPC   C2B32552   4.117  21.841   8.272
 2452POPC   C3B32553   4.413  21.873   7.947
 2452POPC   C4B32554   4.479  21.975   7.496
 2453POPC   NC332555  35.303  11.315   9.643
 2453POPC   PO432556  34.682  11.409   9.608
 2453POPC   GL132557  35.057  11.398   9.206
 2453POPC   GL232558  35.442  11.285   9.155
 2453POPC   C1A32559  35.197  11.462   8.767
 2453POPC   D2A32560  35.412  11.549   8.347
 2453POPC   C3A32561  35.301  11.297   7.971
 2453POPC   C4A32562  35.294  11.311   7.530
 2453POPC   C1B32563  35.574  11.115   8.702
 2453POPC   C2B32564  35.700  11.087   8.233
 2453POPC   C3B32565  35.798  11.104   7.762
 2453POPC   C4B32566  35.711  11.135   7.293
 2454POPC   NC332567  26.502  18.917   9.497
 2454POPC   PO432568  27.160  18.970   9.576
 2454POPC   GL132569  26.930  19.088   9.232
 2454POPC   GL232570  26.891  18.738   9.179
 2454POPC   C1A32571  26.844  19.355   8.863
 2454POPC   D2A32572  26.730  19.246   8.441
 2454POPC   C3A32573  26.964  19.288   8.053
 2454POPC   C4A32574  26.702  19.272   7.703
 2454POPC   C1B32575  26.669  18.837   8.825
 2454POPC   C2B32576  26.752  18.746   8.408
 2454POPC   C3B32577  26.666  18.845   8.011
 2454POPC   C4B32578  26.612  18.546   7.720
 2455POPC   NC332579   9.529  40.226   9.497
 2455POPC   PO432580   9.962  39.782   9.760
 2455POPC   GL132581   9.881  39.902   9.290
 2455POPC   GL232582  10.176  39.925   9.059
 2455POPC   C1A32583   9.744  40.108   8.860
 2455POPC   D2A32584   9.887  40.010   8.440
 2455POPC   C3A32585   9.689  40.115   8.053
 2455POPC   C4A32586   9.601  39.741   7.887
 2455POPC   C1B32587  10.235  40.278   8.742
 2455POPC   C2B32588  10.193  40.376   8.288
 2455POPC   C3B32589  10.180  40.026   7.996
 2455POPC   C4B32590  10.038  39.857   7.615
 2456POPC   NC332591  29.629  33.653   9.317
 2456POPC   PO432592  30.129  34.084   9.507
 2456POPC   GL132593  30.042  33.988   9.119
 2456POPC   GL232594  30.061  33.683   9.028
 2456POPC   C1A32595  30.150  34.124   8.714
 2456POPC   D2A32596  29.942  34.037   8.320
 2456POPC   C3A32597  30.068  34.158   7.958
 2456POPC   C4A32598  30.002  34.032   7.546
 2456POPC   C1B32599  29.881  33.681   8.660
 2456POPC   C2B32600  30.110  33.548   8.319
 2456POPC   C3B32601  30.144  33.643   7.885
 2456POPC   C4B32602  29.869  33.533   7.528
 2457POPC   NC332603  19.349  28.244   9.624
 2457POPC   PO432604  19.903  28.568   9.675
 2457POPC   GL132605  19.648  28.469   9.261
 2457POPC   GL232606  19.645  28.742   9.009
 2457POPC   C1A32607  19.555  28.276   8.861
 2457POPC   D2A32608  19.776  28.249   8.489
 2457POPC   C3A32609  19.651  28.385   8.108
 2457POPC   C4A32610  19.639  28.224   7.726
 2457POPC   C1B32611  20.031  28.520   8.843
 2457POPC   C2B32612  20.251  28.394   8.437
 2457POPC   C3B32613  20.218  28.601   8.022
 2457POPC   C4B32614  20.011  28.774   7.642
 2458POPC   NC332615  25.316  15.361   9.670
 2458POPC   PO432616  25.862  15.349   9.561
 2458POPC   GL132617  25.504  15.356   9.184
 2458POPC   GL232618  25.127  15.229   9.198
 2458POPC   C1A32619  25.247  15.466   8.764
 2458POPC   D2A32620  24.913  15.417   8.407
 2458POPC   C3A32621  25.089  15.292   7.975
 2458POPC   C4A32622  25.079  15.442   7.503
 2458POPC   C1B32623  24.975  15.022   8.769
 2458POPC   C2B32624  24.930  14.905   8.304
 2458POPC   C3B32625  25.079  14.727   7.914
 2458POPC   C4B32626  25.199  14.764   7.482
 2459POPC   NC332627  17.345  36.670   9.417
 2459POPC   PO432628  17.155  37.311   9.228
 2459POPC   GL132629  17.390  37.027   9.049
 2459POPC   GL232630  17.726  37.016   9.207
 2459POPC   C1A32631  17.250  36.760   8.738
 2459POPC   D2A32632  17.145  36.563   8.348
 2459POPC   C3A32633  17.280  36.778   8.031
 2459POPC   C4A32634  17.271  36.926   7.652
 2459POPC   C1B32635  17.788  36.898   8.774
 2459POPC   C2B32636  17.634  36.887   8.382
 2459POPC   C3B32637  17.794  36.847   7.970
 2459POPC   C4B32638  17.790  37.100   7.609
 2460POPC   NC332639  19.430  35.589   9.364
 2460POPC   PO432640  18.882  35.189   9.471
 2460POPC   GL132641  18.926  35.215   9.058
 2460POPC   GL232642  18.905  35.572   9.062
 2460POPC   C1A32643  19.253  35.358   8.761
 2460POPC   D2A32644  19.224  35.585   8.394
 2460POPC   C3A32645  19.280  35.299   8.084
 2460POPC   C4A32646  19.446  35.199   7.708
 2460POPC   C1B32647  18.733  35.492   8.652
 2460POPC   C2B32648  18.788  35.376   8.221
 2460POPC   C3B32649  18.840  35.246   7.800
 2460POPC   C4B32650  18.706  35.501   7.417
 2461POPC   NC332651  33.739  41.774   9.621
 2461POPC   PO432652  33.759  41.117   9.309
 2461POPC   GL132653  33.883  41.528   9.190
 2461POPC   GL232654  33.538  41.681   9.173
 2461POPC   C1A32655  33.925  41.765   8.826
 2461POPC   D2A32656  33.710  41.620   8.454
 2461POPC   C3A32657  33.936  41.775   8.100
 2461POPC   C4A32658  34.196  41.755   7.749
 2461POPC   C1B32659  33.415  41.893   8.800
 2461POPC   C2B32660  33.603  42.108   8.458
 2461POPC   C3B32661  33.449  41.897   8.075
 2461POPC   C4B32662  33.618  41.719   7.692
 2462POPC   NC332663  15.049   2.207   9.659
 2462POPC   PO432664  15.311   1.582   9.522
 2462POPC   GL132665  15.267   1.901   9.239
 2462POPC   GL232666  15.017   1.732   9.093
 2462POPC   C1A32667  15.397   1.988   8.803
 2462POPC   D2A32668  15.486   1.840   8.371
 2462POPC   C3A32669  15.284   1.919   7.989
 2462POPC   C4A32670  15.325   2.130   7.599
 2462POPC   C1B32671  14.859   1.804   8.694
 2462POPC   C2B32672  14.880   2.026   8.295
 2462POPC   C3B32673  14.901   2.261   7.886
 2462POPC   C4B32674  14.850   2.391   7.451
 2463POPC   NC332675   5.011  39.964   9.460
 2463POPC   PO432676   5.613  40.251   9.674
 2463POPC   GL132677   5.467  39.985   9.229
 2463POPC   GL232678   5.091  40.144   9.006
 2463POPC   C1A32679   5.415  39.846   8.804
 2463POPC   D2A32680   5.251  40.119   8.520
 2463POPC   C3A32681   5.191  40.071   8.097
 2463POPC   C4A32682   5.262  40.172   7.698
 2463POPC   C1B32683   4.787  39.921   8.799
 2463POPC   C2B32684   4.574  40.061   8.445
 2463POPC   C3B32685   4.697  40.191   8.044
 2463POPC   C4B32686   4.780  39.992   7.668
 2464POPC   NC332687  27.386  11.670   9.511
 2464POPC   PO432688  27.649  10.975   9.512
 2464POPC   GL132689  27.663  11.131   9.127
 2464POPC   GL232690  27.704  11.454   9.169
 2464POPC   C1A32691  27.459  11.162   8.725
 2464POPC   D2A32692  27.510  10.935   8.349
 2464POPC   C3A32693  27.487  11.184   7.968
 2464POPC   C4A32694  27.817  11.110   7.687
 2464POPC   C1B32695  27.904  11.423   8.772
 2464POPC   C2B32696  27.749  11.412   8.353
 2464POPC   C3B32697  27.906  11.519   7.970
 2464POPC   C4B32698  27.827  11.587   7.527
 2465POPC   NC332699  35.181  13.432   9.458
 2465POPC   PO432700  35.070  14.142   9.376
 2465POPC   GL132701  35.235  13.801   9.065
 2465POPC   GL232702  35.066  13.459   8.978
 2465POPC   C1A32703  35.502  13.537   8.751
 2465POPC   D2A32704  35.685  13.377   8.362
 2465POPC   C3A32705  35.654  13.689   8.027
 2465POPC   C4A32706  35.319  13.693   7.702
 2465POPC   C1B32707  35.042  13.443   8.544
 2465POPC   C2B32708  35.218  13.490   8.191
 2465POPC   C3B32709  35.223  13.218   7.871
 2465POPC   C4B32710  34.941  13.077   7.628
 2466POPC   NC332711   4.788   1.950   9.710
 2466POPC   PO432712   5.453   1.973   9.586
 2466POPC   GL132713   5.108   1.895   9.289
 2466POPC   GL232714   4.902   2.179   9.262
 2466POPC   C1A32715   5.155   1.851   8.853
 2466POPC   D2A32716   5.426   1.899   8.505
 2466POPC   C3A32717   5.231   1.756   8.165
 2466POPC   C4A32718   5.068   1.833   7.771
 2466POPC   C1B32719   4.984   2.341   8.848
 2466POPC   C2B32720   5.046   2.331   8.437
 2466POPC   C3B32721   5.136   2.246   8.046
 2466POPC   C4B32722   4.881   2.294   7.686
 2467POPC   NC332723  10.302   7.444   9.443
 2467POPC   PO432724  10.789   7.002   9.414
 2467POPC   GL132725  10.871   7.265   9.064
 2467POPC   GL232726  10.524   7.376   8.998
 2467POPC   C1A32727  10.851   7.292   8.607
 2467POPC   D2A32728  10.532   7.415   8.313
 2467POPC   C3A32729  10.585   7.523   7.894
 2467POPC   C4A32730  10.842   7.267   7.657
 2467POPC   C1B32731  10.238   7.233   8.690
 2467POPC   C2B32732  10.255   6.970   8.344
 2467POPC   C3B32733  10.225   7.163   7.959
 2467POPC   C4B32734  10.382   7.147   7.545
 2468POPC   NC332735  15.614  25.496   9.327
 2468POPC   PO432736  15.666  24.832   9.349
 2468POPC   GL132737  15.765  25.061   9.019
 2468POPC   GL232738  16.038  25.266   9.097
 2468POPC   C1A32739  15.720  25.284   8.653
 2468POPC   D2A32740  15.963  25.251   8.280
 2468POPC   C3A32741  15.876  25.396   7.888
 2468POPC   C4A32742  15.716  25.048   7.719
 2468POPC   C1B32743  16.215  25.413   8.682
 2468POPC   C2B32744  16.462  25.281   8.337
 2468POPC   C3B32745  16.350  25.166   7.926
 2468POPC   C4B32746  16.219  25.331   7.527
 2469POPC   NC332747  22.526  41.800   9.742
 2469POPC   PO432748  22.124  41.324   9.485
 2469POPC   GL132749  22.047  41.665   9.237
 2469POPC   GL232750  22.409  41.700   9.198
 2469POPC   C1A32751  21.941  41.680   8.810
 2469POPC   D2A32752  22.198  41.703   8.456
 2469POPC   C3A32753  22.011  41.643   8.074
 2469POPC   C4A32754  22.223  41.739   7.700
 2469POPC   C1B32755  22.396  41.399   8.848
 2469POPC   C2B32756  22.544  41.287   8.435
 2469POPC   C3B32757  22.390  41.335   8.039
 2469POPC   C4B32758  22.270  41.181   7.664
 2470POPC   NC332759  39.371  27.365   9.880
 2470POPC   PO432760  39.321  26.810   9.506
 2470POPC   GL132761  39.082  26.897   9.144
 2470POPC   GL232762  39.085  26.553   9.025
 2470POPC   C1A32763  39.205  26.949   8.714
 2470POPC   D2A32764  39.307  26.759   8.302
 2470POPC   C3A32765  39.092  26.948   7.941
 2470POPC   C4A32766  39.352  27.242   7.737
 2470POPC   C1B32767  38.952  26.510   8.590
 2470POPC   C2B32768  38.921  26.473   8.153
 2470POPC   C3B32769  39.221  26.461   7.836
 2470POPC   C4B32770  39.100  26.641   7.424
 2471POPC   NC332771   4.341  17.824   9.552
 2471POPC   PO432772   4.068  17.240   9.355
 2471POPC   GL132773   4.394  17.472   9.169
 2471POPC   GL232774   4.582  17.795   9.118
 2471POPC   C1A32775   4.613  17.427   8.786
 2471POPC   D2A32776   4.598  17.691   8.420
 2471POPC   C3A32777   4.534  17.384   8.106
 2471POPC   C4A32778   4.657  17.205   7.736
 2471POPC   C1B32779   4.229  17.768   8.778
 2471POPC   C2B32780   4.081  17.823   8.335
 2471POPC   C3B32781   4.330  17.844   7.933
 2471POPC   C4B32782   4.349  17.835   7.480
 2472POPC   NC332783  24.456  25.808   9.567
 2472POPC   PO432784  24.592  26.443   9.699
 2472POPC   GL132785  24.668  26.140   9.274
 2472POPC   GL232786  24.364  25.975   9.068
 2472POPC   C1A32787  24.847  25.984   8.897
 2472POPC   D2A32788  24.834  26.043   8.455
 2472POPC   C3A32789  24.504  25.896   8.150
 2472POPC   C4A32790  24.565  25.965   7.688
 2472POPC   C1B32791  24.060  26.225   8.804
 2472POPC   C2B32792  24.119  26.261   8.349
 2472POPC   C3B32793  24.173  26.234   7.901
 2472POPC   C4B32794  24.102  26.040   7.501
 2473POPC   NC332795  14.305  35.846   9.502
 2473POPC   PO432796  14.717  36.321   9.404
 2473POPC   GL132797  14.501  36.072   9.081
 2473POPC   GL232798  14.129  36.161   9.120
 2473POPC   C1A32799  14.553  35.924   8.644
 2473POPC   D2A32800  14.611  36.257   8.309
 2473POPC   C3A32801  14.599  36.192   7.863
 2473POPC   C4A32802  14.706  35.810   7.731
 2473POPC   C1B32803  14.044  35.949   8.726
 2473POPC   C2B32804  14.161  35.811   8.305
 2473POPC   C3B32805  14.112  36.035   7.910
 2473POPC   C4B32806  13.925  36.396   7.664
 2474POPC   NC332807  25.686   5.306   9.483
 2474POPC   PO432808  26.279   4.951   9.729
 2474POPC   GL132809  26.158   5.051   9.286
 2474POPC   GL232810  26.071   5.389   9.177
 2474POPC   C1A32811  26.109   5.032   8.821
 2474POPC   D2A32812  26.036   4.734   8.484
 2474POPC   C3A32813  26.161   4.860   8.064
 2474POPC   C4A32814  26.331   5.213   7.802
 2474POPC   C1B32815  25.902   5.502   8.752
 2474POPC   C2B32816  25.944   5.253   8.371
 2474POPC   C3B32817  25.851   5.277   7.960
 2474POPC   C4B32818  25.934   5.547   7.655
 2475POPC   NC332819  39.308  25.674   9.513
 2475POPC   PO432820  39.161  24.973   9.580
 2475POPC   GL132821  39.039  25.146   9.193
 2475POPC   GL232822  39.358  25.313   9.136
 2475POPC   C1A32823  39.035  25.176   8.736
 2475POPC   D2A32824  39.206  25.162   8.323
 2475POPC   C3A32825  39.136  25.517   8.083
 2475POPC   C4A32826  38.924  25.460   7.714
 2475POPC   C1B32827  39.543  24.996   8.864
 2475POPC   C2B32828  39.477  24.768   8.481
 2475POPC   C3B32829  39.534  24.853   8.034
 2475POPC   C4B32830  39.391  25.193   7.768
 2476POPC   NC332831  21.937   7.003   9.358
 2476POPC   PO432832  22.308   6.502   9.661
 2476POPC   GL132833  22.369   6.746   9.298
 2476POPC   GL232834  22.116   6.560   9.144
 2476POPC   C1A32835  22.335   6.941   8.860
 2476POPC   D2A32836  21.963   6.839   8.597
 2476POPC   C3A32837  22.028   6.703   8.166
 2476POPC   C4A32838  21.997   6.933   7.792
 2476POPC   C1B32839  22.020   6.232   8.878
 2476POPC   C2B32840  22.051   6.089   8.464
 2476POPC   C3B32841  21.934   6.201   8.066
 2476POPC   C4B32842  21.929   6.420   7.724
 2477POPC   NC332843  13.595   0.094   9.415
 2477POPC   PO432844  13.796   0.713   9.379
 2477POPC   GL132845  13.595   0.597   8.998
 2477POPC   GL232846  13.475   0.949   9.056
 2477POPC   C1A32847  13.644   0.183   8.739
 2477POPC   D2A32848  13.838   0.093   8.317
 2477POPC   C3A32849  13.799   0.378   7.951
 2477POPC   C4A32850  13.512   0.251   7.628
 2477POPC   C1B32851  13.330   0.890   8.652
 2477POPC   C2B32852  13.508   0.572   8.399
 2477POPC   C3B32853  13.313   0.497   8.025
 2477POPC   C4B32854  13.439   0.735   7.684
 2478POPC   NC332855  10.762  41.963   9.449
 2478POPC   PO432856  10.607  42.594   9.561
 2478POPC   GL132857  10.558  42.375   9.209
 2478POPC   GL232858  10.909  42.398   9.182
 2478POPC   C1A32859  10.322  42.277   8.828
 2478POPC   D2A32860  10.061  42.395   8.475
 2478POPC   C3A32861  10.140  42.268   8.061
 2478POPC   C4A32862  10.338  42.584   7.841
 2478POPC   C1B32863  10.836  42.165   8.823
 2478POPC   C2B32864  10.910  42.106   8.409
 2478POPC   C3B32865  10.668  42.190   8.061
 2478POPC   C4B32866  10.464  41.939   7.804
 2479POPC   NC332867  39.629  39.002   9.441
 2479POPC   PO432868  38.909  39.039   9.566
 2479POPC   GL132869  39.173  38.944   9.196
 2479POPC   GL232870  39.244  39.285   9.182
 2479POPC   C1A32871  39.163  39.045   8.742
 2479POPC   D2A32872  39.439  38.996   8.415
 2479POPC   C3A32873  39.229  39.118   8.038
 2479POPC   C4A32874  39.395  39.320   7.675
 2479POPC   C1B32875  39.065  39.538   8.874
 2479POPC   C2B32876  39.198  39.476   8.447
 2479POPC   C3B32877  39.068  39.591   8.018
 2479POPC   C4B32878  39.278  39.843   7.724
 2480POPC   NC332879  35.377   0.247   9.654
 2480POPC   PO432880  35.786   0.769   9.534
 2480POPC   GL132881  35.778   0.400   9.228
 2480POPC   GL232882  35.423   0.335   9.149
 2480POPC   C1A32883  35.734   0.187   8.786
 2480POPC   D2A32884  35.465   0.148   8.395
 2480POPC   C3A32885  35.369   0.433   8.018
 2480POPC   C4A32886  35.142   0.358   7.601
 2480POPC   C1B32887  35.562   0.677   8.855
 2480POPC   C2B32888  35.448   0.949   8.496
 2480POPC   C3B32889  35.298   0.960   8.082
 2480POPC   C4B32890  35.313   0.832   7.651
 2481POPC   NC332891  26.231  26.768   9.696
 2481POPC   PO432892  25.848  27.136   9.363
 2481POPC   GL132893  26.197  26.978   9.117
 2481POPC   GL232894  26.221  26.629   9.197
 2481POPC   C1A32895  26.160  27.138   8.701
 2481POPC   D2A32896  25.791  27.190   8.382
 2481POPC   C3A32897  25.946  27.179   7.947
 2481POPC   C4A32898  26.365  27.311   7.975
 2481POPC   C1B32899  26.102  26.617   8.739
 2481POPC   C2B32900  26.152  26.808   8.312
 2481POPC   C3B32901  26.023  26.675   7.901
 2481POPC   C4B32902  25.737  26.415   7.662
 2482POPC   NC332903  12.599  40.999   9.241
 2482POPC   PO432904  13.237  41.167   9.419
 2482POPC   GL132905  13.101  40.846   9.092
 2482POPC   GL232906  12.876  40.538   9.189
 2482POPC   C1A32907  12.864  40.741   8.698
 2482POPC   D2A32908  12.621  41.054   8.438
 2482POPC   C3A32909  12.669  40.925   8.023
 2482POPC   C4A32910  12.668  41.011   7.595
 2482POPC   C1B32911  13.206  40.373   8.913
 2482POPC   C2B32912  13.323  40.495   8.494
 2482POPC   C3B32913  13.165  40.526   8.081
 2482POPC   C4B32914  12.982  40.643   7.723
 2483POPC   NC332915   9.165   3.776   9.318
 2483POPC   PO432916   8.841   4.393   9.479
 2483POPC   GL132917   8.849   4.159   9.143
 2483POPC   GL232918   9.194   4.250   9.024
 2483POPC   C1A32919   8.755   4.315   8.761
 2483POPC   D2A32920   8.983   4.268   8.376
 2483POPC   C3A32921   8.705   4.441   8.119
 2483POPC   C4A32922   8.585   4.522   7.720
 2483POPC   C1B32923   9.163   4.620   8.722
 2483POPC   C2B32924   9.190   4.747   8.284
 2483POPC   C3B32925   9.142   4.516   7.895
 2483POPC   C4B32926   9.145   4.575   7.472
 2484POPC   NC332927  17.096  20.412   9.397
 2484POPC   PO432928  17.594  20.754   9.520
 2484POPC   GL132929  17.553  20.584   9.120
 2484POPC   GL232930  17.245  20.759   9.050
 2484POPC   C1A32931  17.610  20.756   8.695
 2484POPC   D2A32932  17.359  20.713   8.337
 2484POPC   C3A32933  17.552  20.407   8.088
 2484POPC   C4A32934  17.755  20.430   7.684
 2484POPC   C1B32935  17.169  20.446   8.742
 2484POPC   C2B32936  17.080  20.208   8.360
 2484POPC   C3B32937  17.023  20.451   8.010
 2484POPC   C4B32938  17.236  20.787   7.843
 2485POPC   NC332939  15.640   0.059   9.369
 2485POPC   PO432940  16.143   0.498   9.587
 2485POPC   GL132941  16.016   0.660   9.147
 2485POPC   GL232942  15.966   0.331   9.047
 2485POPC   C1A32943  15.873   0.661   8.675
 2485POPC   D2A32944  15.758   0.845   8.297
 2485POPC   C3A32945  15.784   0.629   7.884
 2485POPC   C4A32946  16.030   0.501   7.543
 2485POPC   C1B32947  15.764   0.167   8.669
 2485POPC   C2B32948  15.862   0.299   8.274
 2485POPC   C3B32949  15.887   0.135   7.869
 2485POPC   C4B32950  15.616   0.198   7.557
 2486POPC   NC332951  42.826   4.244   9.528
 2486POPC   PO432952  43.318   4.704   9.522
 2486POPC   GL132953  43.267   4.454   9.166
 2486POPC   GL232954  42.935   4.520   9.117
 2486POPC   C1A32955  43.171   4.257   8.765
 2486POPC   D2A32956  43.304   4.197   8.359
 2486POPC   C3A32957  43.149   4.304   7.938
 2486POPC   C4A32958  43.441   4.083   7.736
 2486POPC   C1B32959  42.765   4.563   8.689
 2486POPC   C2B32960  42.572   4.598   8.286
 2486POPC   C3B32961  42.721   4.656   7.889
 2486POPC   C4B32962  42.782   4.532   7.466
 2487POPC   NC332963  32.515  30.448   9.437
 2487POPC   PO432964  33.194  30.457   9.643
 2487POPC   GL132965  33.242  30.593   9.204
 2487POPC   GL232966  33.204  30.960   9.190
 2487POPC   C1A32967  33.056  30.703   8.752
 2487POPC   D2A32968  32.802  30.806   8.345
 2487POPC   C3A32969  32.974  30.748   7.926
 2487POPC   C4A32970  33.173  30.582   7.560
 2487POPC   C1B32971  33.223  31.192   8.812
 2487POPC   C2B32972  33.364  30.983   8.437
 2487POPC   C3B32973  33.404  31.029   8.028
 2487POPC   C4B32974  33.244  31.066   7.635
 2488POPC   NC332975  13.283  24.519   9.287
 2488POPC   PO432976  12.682  24.621   9.564
 2488POPC   GL132977  12.688  24.396   9.167
 2488POPC   GL232978  12.958  24.418   8.940
 2488POPC   C1A32979  12.510  24.458   8.757
 2488POPC   D2A32980  12.777  24.434   8.411
 2488POPC   C3A32981  12.613  24.461   8.024
 2488POPC   C4A32982  12.715  24.480   7.603
 2488POPC   C1B32983  13.108  24.718   8.682
 2488POPC   C2B32984  13.254  24.641   8.304
 2488POPC   C3B32985  13.075  24.696   7.938
 2488POPC   C4B32986  13.101  25.055   7.698
 2489POPC   NC332987   8.310  32.048   9.479
 2489POPC   PO432988   8.327  32.670   9.513
 2489POPC   GL132989   8.250  32.401   9.130
 2489POPC   GL232990   7.938  32.172   9.135
 2489POPC   C1A32991   8.351  32.062   8.806
 2489POPC   D2A32992   8.124  31.943   8.417
 2489POPC   C3A32993   8.300  32.009   8.021
 2489POPC   C4A32994   8.195  31.920   7.614
 2489POPC   C1B32995   7.964  32.388   8.710
 2489POPC   C2B32996   8.131  32.432   8.292
 2489POPC   C3B32997   7.865  32.293   7.949
 2489POPC   C4B32998   7.905  32.314   7.506
 2490POPC   NC332999   3.887  25.101   9.571
 2490POPC   PO433000   4.464  25.499   9.477
 2490POPC   GL133001   4.307  25.383   9.061
 2490POPC   GL233002   4.329  25.036   9.117
 2490POPC   C1A33003   4.183  25.428   8.595
 2490POPC   D2A33004   4.379  25.447   8.175
 2490POPC   C3A33005   4.143  25.335   7.805
 2490POPC   C4A33006   4.082  25.394   7.371
 2490POPC   C1B33007   4.548  25.053   8.742
 2490POPC   C2B33008   4.428  24.957   8.341
 2490POPC   C3B33009   4.514  24.995   7.915
 2490POPC   C4B33010   4.384  25.010   7.480
 2491POPC   NC333011  25.385  18.177   9.367
 2491POPC   PO433012  25.051  18.785   9.455
 2491POPC   GL133013  25.277  18.615   9.141
 2491POPC   GL233014  25.033  18.398   9.015
 2491POPC   C1A33015  25.450  18.514   8.742
 2491POPC   D2A33016  25.201  18.407   8.380
 2491POPC   C3A33017  25.400  18.441   7.955
 2491POPC   C4A33018  25.396  18.441   7.483
 2491POPC   C1B33019  24.901  18.079   8.731
 2491POPC   C2B33020  24.976  17.913   8.319
 2491POPC   C3B33021  25.090  18.014   7.871
 2491POPC   C4B33022  25.102  18.048   7.388
 2492POPC   NC333023  11.480  14.835   9.858
 2492POPC   PO433024  11.035  15.219   9.633
 2492POPC   GL133025  11.172  15.209   9.226
 2492POPC   GL233026  11.059  15.573   9.181
 2492POPC   C1A33027  11.445  15.093   8.849
 2492POPC   D2A33028  11.280  14.988   8.424
 2492POPC   C3A33029  11.421  15.138   7.978
 2492POPC   C4A33030  11.368  14.929   7.564
 2492POPC   C1B33031  11.203  15.532   8.764
 2492POPC   C2B33032  11.346  15.492   8.356
 2492POPC   C3B33033  11.172  15.600   7.996
 2492POPC   C4B33034  11.124  15.372   7.613
 2493POPC   NC333035  29.017   4.849   9.544
 2493POPC   PO433036  29.541   5.322   9.517
 2493POPC   GL133037  29.415   4.991   9.222
 2493POPC   GL233038  29.097   5.173   9.153
 2493POPC   C1A33039  29.207   4.767   8.844
 2493POPC   D2A33040  28.985   4.947   8.466
 2493POPC   C3A33041  29.114   4.794   8.053
 2493POPC   C4A33042  29.073   4.971   7.660
 2493POPC   C1B33043  29.340   5.254   8.780
 2493POPC   C2B33044  29.288   5.465   8.404
 2493POPC   C3B33045  29.119   5.318   8.050
 2493POPC   C4B33046  28.931   5.453   7.674
 2494POPC   NC333047  37.064  26.976   9.598
 2494POPC   PO433048  36.626  26.545   9.627
 2494POPC   GL133049  36.683  26.670   9.172
 2494POPC   GL233050  36.785  27.024   9.173
 2494POPC   C1A33051  36.864  26.796   8.731
 2494POPC   D2A33052  37.154  26.930   8.396
 2494POPC   C3A33053  37.055  26.685   8.033
 2494POPC   C4A33054  36.962  26.892   7.669
 2494POPC   C1B33055  36.593  27.297   8.853
 2494POPC   C2B33056  36.454  27.292   8.471
 2494POPC   C3B33057  36.682  27.109   8.141
 2494POPC   C4B33058  36.527  27.105   7.749
 2495POPC   NC333059   9.210   0.189   9.566
 2495POPC   PO433060   8.813   0.599   9.453
 2495POPC   GL133061   8.980   0.428   9.137
 2495POPC   GL233062   9.285   0.545   9.195
 2495POPC   C1A33063   8.885   0.560   8.733
 2495POPC   D2A33064   8.629   0.323   8.474
 2495POPC   C3A33065   8.863   0.404   8.118
 2495POPC   C4A33066   8.954   0.722   7.818
 2495POPC   C1B33067   9.382   0.392   8.799
 2495POPC   C2B33068   9.353   0.558   8.404
 2495POPC   C3B33069   9.350   0.432   7.964
 2495POPC   C4B33070   9.295   0.511   7.501
 2496POPC   NC333071   4.011  36.201   9.692
 2496POPC   PO433072   4.608  35.941   9.440
 2496POPC   GL133073   4.427  36.045   9.065
 2496POPC   GL233074   4.122  36.144   9.157
 2496POPC   C1A33075   4.358  35.939   8.616
 2496POPC   D2A33076   4.086  36.029   8.269
 2496POPC   C3A33077   4.310  36.145   7.943
 2496POPC   C4A33078   4.535  35.819   7.830
 2496POPC   C1B33079   3.913  36.171   8.760
 2496POPC   C2B33080   3.908  36.491   8.436
 2496POPC   C3B33081   3.862  36.422   8.010
 2496POPC   C4B33082   4.012  36.427   7.600
 2497POPC   NC333083   1.839   6.975   9.327
 2497POPC   PO433084   1.853   6.308   9.485
 2497POPC   GL133085   1.832   6.510   9.113
 2497POPC   GL233086   2.176   6.630   9.062
 2497POPC   C1A33087   1.877   6.404   8.689
 2497POPC   D2A33088   1.943   6.624   8.315
 2497POPC   C3A33089   1.963   6.410   7.928
 2497POPC   C4A33090   1.786   6.643   7.637
 2497POPC   C1B33091   2.067   6.953   8.716
 2497POPC   C2B33092   2.238   7.240   8.409
 2497POPC   C3B33093   2.192   6.991   8.030
 2497POPC   C4B33094   2.274   6.759   7.672
 2498POPC   NC333095   7.383  23.559   9.494
 2498POPC   PO433096   7.620  24.218   9.540
 2498POPC   GL133097   7.531  24.012   9.087
 2498POPC   GL233098   7.412  23.674   9.020
 2498POPC   C1A33099   7.597  23.885   8.620
 2498POPC   D2A33100   7.335  23.994   8.271
 2498POPC   C3A33101   7.495  23.842   7.887
 2498POPC   C4A33102   7.497  23.867   7.433
 2498POPC   C1B33103   7.198  23.376   8.772
 2498POPC   C2B33104   7.032  23.405   8.357
 2498POPC   C3B33105   7.211  23.262   8.012
 2498POPC   C4B33106   7.371  23.396   7.647
 2499POPC   NC333107   5.417  26.434   9.428
 2499POPC   PO433108   4.901  26.862   9.706
 2499POPC   GL133109   5.036  26.737   9.252
 2499POPC   GL233110   4.726  26.577   9.115
 2499POPC   C1A33111   5.202  26.929   8.810
 2499POPC   D2A33112   5.017  27.206   8.429
 2499POPC   C3A33113   4.958  27.019   7.981
 2499POPC   C4A33114   5.132  26.893   7.573
 2499POPC   C1B33115   4.932  26.516   8.743
 2499POPC   C2B33116   4.936  26.686   8.374
 2499POPC   C3B33117   4.904  26.484   8.003
 2499POPC   C4B33118   5.071  26.385   7.608
 2500POPC   NC333119  27.289   9.887   9.185
 2500POPC   PO433120  27.798   9.534   9.440
 2500POPC   GL133121  27.777   9.842   9.094
 2500POPC   GL233122  27.698   9.534   8.948
 2500POPC   C1A33123  27.635   9.903   8.637
 2500POPC   D2A33124  27.768   9.722   8.263
 2500POPC   C3A33125  27.740  10.060   7.972
 2500POPC   C4A33126  27.519   9.877   7.625
 2500POPC   C1B33127  27.451   9.330   8.691
 2500POPC   C2B33128  27.349   9.372   8.296
 2500POPC   C3B33129  27.557   9.402   7.893
 2500POPC   C4B33130  27.500   9.266   7.468
 2501POPC   NC333131  27.434  38.791   9.437
 2501POPC   PO433132  27.520  39.570   9.418
 2501POPC   GL133133  27.608  39.227   9.205
 2501POPC   GL233134  27.262  39.185   9.113
 2501POPC   C1A33135  27.707  39.272   8.800
 2501POPC   D2A33136  27.903  39.176   8.440
 2501POPC   C3A33137  27.667  39.234   8.075
 2501POPC   C4A33138  27.637  39.517   7.732
 2501POPC   C1B33139  27.347  38.911   8.758
 2501POPC   C2B33140  27.225  38.889   8.345
 2501POPC   C3B33141  27.342  38.852   7.947
 2501POPC   C4B33142  27.483  39.041   7.601
 2502POPC   NC333143  30.969  11.347   9.646
 2502POPC   PO433144  30.969  10.780   9.357
 2502POPC   GL133145  30.801  11.148   9.169
 2502POPC   GL233146  30.549  11.418   9.268
 2502POPC   C1A33147  30.641  11.074   8.770
 2502POPC   D2A33148  30.565  10.992   8.339
 2502POPC   C3A33149  30.906  11.104   8.076
 2502POPC   C4A33150  30.844  11.229   7.665
 2502POPC   C1B33151  30.449  11.547   8.840
 2502POPC   C2B33152  30.290  11.649   8.439
 2502POPC   C3B33153  30.277  11.439   8.061
 2502POPC   C4B33154  30.416  11.587   7.652
 2503POPC   NC333155   3.060  32.479   9.225
 2503POPC   PO433156   2.982  31.920   9.660
 2503POPC   GL133157   2.802  31.990   9.227
 2503POPC   GL233158   2.507  32.171   9.288
 2503POPC   C1A33159   2.844  32.114   8.749
 2503POPC   D2A33160   2.934  32.511   8.525
 2503POPC   C3A33161   3.006  32.404   8.084
 2503POPC   C4A33162   2.666  32.329   7.774
 2503POPC   C1B33163   2.348  32.125   8.844
 2503POPC   C2B33164   2.423  32.283   8.413
 2503POPC   C3B33165   2.300  32.044   8.040
 2503POPC   C4B33166   2.402  31.888   7.628
 2504POPC   NC333167   0.810  20.592   9.505
 2504POPC   PO433168   1.349  20.352   9.285
 2504POPC   GL133169   1.214  20.469   8.916
 2504POPC   GL233170   1.057  20.740   9.093
 2504POPC   C1A33171   1.218  20.363   8.480
 2504POPC   D2A33172   1.430  20.491   8.099
 2504POPC   C3A33173   1.144  20.441   7.789
 2504POPC   C4A33174   1.100  20.208   7.352
 2504POPC   C1B33175   1.080  20.931   8.717
 2504POPC   C2B33176   1.050  20.814   8.318
 2504POPC   C3B33177   1.291  20.985   8.039
 2504POPC   C4B33178   1.198  21.081   7.666
 2505POPC   NC333179   7.737   5.231   9.767
 2505POPC   PO433180   7.263   4.901   9.402
 2505POPC   GL133181   7.436   5.185   9.122
 2505POPC   GL233182   7.745   5.319   9.215
 2505POPC   C1A33183   7.501   5.050   8.704
 2505POPC   D2A33184   7.255   4.763   8.450
 2505POPC   C3A33185   7.142   4.954   8.057
 2505POPC   C4A33186   7.221   4.734   7.691
 2505POPC   C1B33187   7.705   5.558   8.843
 2505POPC   C2B33188   7.752   5.426   8.438
 2505POPC   C3B33189   7.646   5.529   8.029
 2505POPC   C4B33190   7.517   5.164   7.785
 2506POPC   NC333191  36.313  42.557   9.508
 2506POPC   PO433192  36.190  41.929   9.348
 2506POPC   GL133193  36.158  42.272   9.040
 2506POPC   GL233194  35.880  42.472   9.202
 2506POPC   C1A33195  36.085  42.241   8.563
 2506POPC   D2A33196  35.797  42.074   8.214
 2506POPC   C3A33197  36.059  42.093   7.813
 2506POPC   C4A33198  36.391  42.431   7.786
 2506POPC   C1B33199  35.860  42.639   8.797
 2506POPC   C2B33200  35.697  42.586   8.391
 2506POPC   C3B33201  35.905  42.531   8.005
 2506POPC   C4B33202  35.911  42.663   7.608
 2507POPC   NC333203  29.685  10.316   9.559
 2507POPC   PO433204  29.028  10.614   9.633
 2507POPC   GL133205  29.251  10.567   9.258
 2507POPC   GL233206  28.970  10.421   9.131
 2507POPC   C1A33207  29.333  10.548   8.772
 2507POPC   D2A33208  29.315  10.317   8.332
 2507POPC   C3A33209  29.115  10.554   7.967
 2507POPC   C4A33210  29.211  10.963   7.781
 2507POPC   C1B33211  28.896  10.283   8.709
 2507POPC   C2B33212  28.783  10.307   8.269
 2507POPC   C3B33213  28.862  10.073   7.880
 2507POPC   C4B33214  28.805  10.243   7.427
 2508POPC   NC333215  26.667  38.713   9.626
 2508POPC   PO433216  27.174  38.439   9.240
 2508POPC   GL133217  26.709  38.509   9.162
 2508POPC   GL233218  26.491  38.830   9.149
 2508POPC   C1A33219  26.604  38.488   8.763
 2508POPC   D2A33220  26.878  38.538   8.441
 2508POPC   C3A33221  26.834  38.339   8.059
 2508POPC   C4A33222  27.045  38.514   7.712
 2508POPC   C1B33223  26.329  38.913   8.719
 2508POPC   C2B33224  26.383  38.617   8.309
 2508POPC   C3B33225  26.442  38.593   7.828
 2508POPC   C4B33226  26.455  38.984   7.635
 2509POPC   NC333227  39.136   0.027   9.530
 2509POPC   PO433228  39.305  44.408   9.466
 2509POPC   GL133229  39.314  44.491   9.069
 2509POPC   GL233230  39.069  44.746   9.102
 2509POPC   C1A33231  39.487  44.416   8.655
 2509POPC   D2A33232  39.284  44.380   8.242
 2509POPC   C3A33233  39.547  44.527   7.910
 2509POPC   C4A33234  39.600  44.570   7.468
 2509POPC   C1B33235  39.274  44.899   8.769
 2509POPC   C2B33236  39.418  44.863   8.390
 2509POPC   C3B33237  39.514   0.017   8.042
 2509POPC   C4B33238  39.340  44.990   7.661
 2510POPC   NC333239   5.152   8.327   9.539
 2510POPC   PO433240   4.675   8.681   9.388
 2510POPC   GL133241   4.950   8.407   9.090
 2510POPC   GL233242   5.036   8.009   9.158
 2510POPC   C1A33243   4.952   8.221   8.712
 2510POPC   D2A33244   4.837   8.163   8.343
 2510POPC   C3A33245   4.946   8.497   8.131
 2510POPC   C4A33246   4.926   8.485   7.703
 2510POPC   C1B33247   5.384   7.990   8.830
 2510POPC   C2B33248   5.369   8.170   8.382
 2510POPC   C3B33249   5.282   8.152   7.918
 2510POPC   C4B33250   5.372   8.274   7.461
 2511POPC   NC333251  10.368  37.227   9.574
 2511POPC   PO433252  10.654  37.797   9.653
 2511POPC   GL133253  10.440  37.672   9.244
 2511POPC   GL233254  10.135  37.829   9.289
 2511POPC   C1A33255  10.591  37.580   8.796
 2511POPC   D2A33256  10.403  37.472   8.385
 2511POPC   C3A33257  10.598  37.686   8.030
 2511POPC   C4A33258  10.661  37.637   7.609
 2511POPC   C1B33259  10.218  37.912   8.828
 2511POPC   C2B33260  10.070  37.870   8.387
 2511POPC   C3B33261  10.094  37.666   7.988
 2511POPC   C4B33262  10.179  37.849   7.600
 2512POPC   NC333263  11.525  18.173   9.588
 2512POPC   PO433264  10.870  18.527   9.483
 2512POPC   GL133265  11.146  18.261   9.189
 2512POPC   GL233266  11.488  18.397   9.124
 2512POPC   C1A33267  11.250  18.190   8.721
 2512POPC   D2A33268  11.233  18.068   8.283
 2512POPC   C3A33269  11.120  18.359   7.993
 2512POPC   C4A33270  11.072  18.775   7.893
 2512POPC   C1B33271  11.721  18.352   8.718
 2512POPC   C2B33272  11.716  18.271   8.283
 2512POPC   C3B33273  11.647  18.218   7.887
 2512POPC   C4B33274  11.343  18.009   7.711
 2513POPC   NC333275   1.541  19.959   9.422
 2513POPC   PO433276   0.830  20.107   9.508
 2513POPC   GL133277   0.935  20.066   9.068
 2513POPC   GL233278   1.257  19.861   9.012
 2513POPC   C1A33279   0.947  19.960   8.633
 2513POPC   D2A33280   1.309  19.837   8.438
 2513POPC   C3A33281   1.247  20.021   8.078
 2513POPC   C4A33282   1.095  19.817   7.716
 2513POPC   C1B33283   1.295  19.436   8.784
 2513POPC   C2B33284   1.492  19.325   8.391
 2513POPC   C3B33285   1.458  19.560   8.019
 2513POPC   C4B33286   1.671  19.643   7.675
 2514POPC   NC333287   9.822   7.933   9.531
 2514POPC   PO433288  10.010   8.591   9.465
 2514POPC   GL133289   9.732   8.360   9.180
 2514POPC   GL233290   9.864   8.048   9.026
 2514POPC   C1A33291   9.524   8.371   8.768
 2514POPC   D2A33292   9.325   8.261   8.379
 2514POPC   C3A33293   9.501   8.416   8.002
 2514POPC   C4A33294   9.382   8.567   7.620
 2514POPC   C1B33295   9.628   7.888   8.651
 2514POPC   C2B33296   9.685   7.956   8.189
 2514POPC   C3B33297   9.653   7.973   7.741
 2514POPC   C4B33298  10.016   8.080   7.488
 2515POPC   NC333299  27.704  24.774   9.577
 2515POPC   PO433300  28.044  25.319   9.617
 2515POPC   GL133301  27.844  25.480   9.182
 2515POPC   GL233302  27.496  25.649   9.247
 2515POPC   C1A33303  27.601  25.413   8.788
 2515POPC   D2A33304  27.576  25.038   8.495
 2515POPC   C3A33305  27.816  25.014   8.121
 2515POPC   C4A33306  27.779  25.252   7.754
 2515POPC   C1B33307  27.241  25.835   8.891
 2515POPC   C2B33308  27.216  25.664   8.473
 2515POPC   C3B33309  27.433  25.432   8.139
 2515POPC   C4B33310  27.259  25.336   7.746
 2516POPC   NC333311  31.731   8.727   9.332
 2516POPC   PO433312  31.047   8.848   9.467
 2516POPC   GL133313  31.257   8.959   9.109
 2516POPC   GL233314  31.504   9.214   9.089
 2516POPC   C1A33315  31.202   8.969   8.684
 2516POPC   D2A33316  31.425   8.641   8.465
 2516POPC   C3A33317  31.431   8.715   8.042
 2516POPC   C4A33318  31.271   9.030   7.753
 2516POPC   C1B33319  31.686   9.038   8.735
 2516POPC   C2B33320  31.517   9.193   8.357
 2516POPC   C3B33321  31.668   9.176   8.001
 2516POPC   C4B33322  31.802   9.259   7.624
 2517POPC   NC333323  30.322  37.732   9.633
 2517POPC   PO433324  30.953  37.583   9.508
 2517POPC   GL133325  30.646  37.780   9.220
 2517POPC   GL233326  30.377  37.542   9.161
 2517POPC   C1A33327  30.646  37.806   8.760
 2517POPC   D2A33328  30.796  37.532   8.417
 2517POPC   C3A33329  30.845  37.771   8.007
 2517POPC   C4A33330  31.036  38.163   7.802
 2517POPC   C1B33331  30.477  37.251   8.823
 2517POPC   C2B33332  30.435  37.147   8.380
 2517POPC   C3B33333  30.620  37.285   7.987
 2517POPC   C4B33334  30.674  37.397   7.535
 2518POPC   NC333335  17.946  25.183   9.587
 2518POPC   PO433336  18.503  25.405   9.755
 2518POPC   GL133337  18.270  25.224   9.238
 2518POPC   GL233338  18.022  25.453   9.080
 2518POPC   C1A33339  18.314  25.064   8.839
 2518POPC   D2A33340  18.516  25.325   8.534
 2518POPC   C3A33341  18.461  25.190   8.125
 2518POPC   C4A33342  18.511  25.310   7.739
 2518POPC   C1B33343  17.792  25.190   8.748
 2518POPC   C2B33344  17.749  24.861   8.421
 2518POPC   C3B33345  17.876  24.978   8.017
 2518POPC   C4B33346  17.817  25.186   7.640
 2519POPC   NC333347  11.237  14.031   9.555
 2519POPC   PO433348  11.268  13.391   9.618
 2519POPC   GL133349  11.397  13.564   9.184
 2519POPC   GL233350  11.197  13.859   9.071
 2519POPC   C1A33351  11.531  13.523   8.727
 2519POPC   D2A33352  11.331  13.427   8.304
 2519POPC   C3A33353  11.444  13.536   7.875
 2519POPC   C4A33354  11.200  13.542   7.472
 2519POPC   C1B33355  11.066  13.747   8.658
 2519POPC   C2B33356  10.857  13.658   8.292
 2519POPC   C3B33357  10.979  13.766   7.881
 2519POPC   C4B33358  10.779  13.853   7.505
 2520POPC   NC333359  18.390  21.617   9.553
 2520POPC   PO433360  17.778  21.731   9.544
 2520POPC   GL133361  17.995  21.493   9.180
 2520POPC   GL233362  18.362  21.366   9.114
 2520POPC   C1A33363  18.099  21.542   8.720
 2520POPC   D2A33364  18.419  21.514   8.402
 2520POPC   C3A33365  18.363  21.722   7.992
 2520POPC   C4A33366  18.106  21.495   7.735
 2520POPC   C1B33367  18.637  21.242   8.789
 2520POPC   C2B33368  18.717  21.067   8.368
 2520POPC   C3B33369  18.532  21.237   7.983
 2520POPC   C4B33370  18.526  21.289   7.529
 2521POPC   NC333371  34.061  25.849   9.514
 2521POPC   PO433372  33.616  26.278   9.549
 2521POPC   GL133373  33.608  25.968   9.192
 2521POPC   GL233374  33.926  25.874   9.050
 2521POPC   C1A33375  33.549  25.899   8.731
 2521POPC   D2A33376  33.691  26.008   8.293
 2521POPC   C3A33377  33.543  25.878   7.862
 2521POPC   C4A33378  33.411  26.207   7.518
 2521POPC   C1B33379  34.047  26.041   8.684
 2521POPC   C2B33380  34.203  26.040   8.288
 2521POPC   C3B33381  34.181  25.803   7.945
 2521POPC   C4B33382  33.947  25.611   7.658
 2522POPC   NC333383   7.195   6.876   9.461
 2522POPC   PO433384   7.619   6.247   9.411
 2522POPC   GL133385   7.671   6.518   9.064
 2522POPC   GL233386   7.337   6.616   9.060
 2522POPC   C1A33387   7.645   6.814   8.714
 2522POPC   D2A33388   7.393   6.812   8.378
 2522POPC   C3A33389   7.657   6.826   8.047
 2522POPC   C4A33390   7.641   6.561   7.759
 2522POPC   C1B33391   7.033   6.747   8.755
 2522POPC   C2B33392   6.896   6.760   8.305
 2522POPC   C3B33393   7.162   6.726   7.901
 2522POPC   C4B33394   7.444   6.981   7.594
 2523POPC   NC333395  44.214  19.005   9.502
 2523POPC   PO433396  43.691  19.429   9.518
 2523POPC   GL133397  43.882  19.116   9.130
 2523POPC   GL233398  44.085  18.776   9.080
 2523POPC   C1A33399  43.735  19.009   8.693
 2523POPC   D2A33400  43.585  19.231   8.310
 2523POPC   C3A33401  43.907  19.405   8.082
 2523POPC   C4A33402  43.915  19.072   7.772
 2523POPC   C1B33403  44.227  18.870   8.696
 2523POPC   C2B33404  44.134  18.985   8.288
 2523POPC   C3B33405  44.290  18.769   7.948
 2523POPC   C4B33406  43.987  18.540   7.766
 2524POPC   NC333407  33.285  43.362   9.395
 2524POPC   PO433408  32.760  43.633   9.431
 2524POPC   GL133409  32.854  43.278   9.107
 2524POPC   GL233410  33.158  43.098   8.984
 2524POPC   C1A33411  32.738  43.141   8.718
 2524POPC   D2A33412  32.982  42.995   8.376
 2524POPC   C3A33413  32.800  43.104   7.984
 2524POPC   C4A33414  32.829  43.296   7.565
 2524POPC   C1B33415  33.444  42.927   8.682
 2524POPC   C2B33416  33.484  42.943   8.244
 2524POPC   C3B33417  33.207  42.769   7.970
 2524POPC   C4B33418  33.237  43.035   7.711
 2525POPC   NC333419  22.671  29.216   9.475
 2525POPC   PO433420  23.243  29.217   9.760
 2525POPC   GL133421  23.165  28.940   9.347
 2525POPC   GL233422  22.817  28.826   9.196
 2525POPC   C1A33423  23.208  28.862   8.876
 2525POPC   D2A33424  23.069  29.143   8.508
 2525POPC   C3A33425  23.053  29.003   8.109
 2525POPC   C4A33426  22.963  29.292   7.808
 2525POPC   C1B33427  22.701  29.103   8.840
 2525POPC   C2B33428  22.436  29.162   8.489
 2525POPC   C3B33429  22.529  29.120   8.049
 2525POPC   C4B33430  22.471  29.429   7.705
 2526POPC   NC333431  11.702  26.833   9.881
 2526POPC   PO433432  12.033  26.932   9.321
 2526POPC   GL133433  11.950  26.725   9.000
 2526POPC   GL233434  12.272  26.631   8.996
 2526POPC   C1A33435  11.820  26.805   8.606
 2526POPC   D2A33436  11.647  26.848   8.210
 2526POPC   C3A33437  11.957  26.668   7.949
 2526POPC   C4A33438  12.076  26.784   7.517
 2526POPC   C1B33439  12.351  26.860   8.641
 2526POPC   C2B33440  12.430  26.722   8.242
 2526POPC   C3B33441  12.456  26.614   7.838
 2526POPC   C4B33442  12.505  26.554   7.403
 2527POPC   NC333443  29.332  32.072   9.467
 2527POPC   PO433444  29.040  32.670   9.500
 2527POPC   GL133445  28.975  32.405   9.133
 2527POPC   GL233446  28.918  32.058   9.064
 2527POPC   C1A33447  29.026  32.389   8.697
 2527POPC   D2A33448  29.373  32.293   8.429
 2527POPC   C3A33449  29.349  32.493   8.069
 2527POPC   C4A33450  29.537  32.369   7.743
 2527POPC   C1B33451  29.283  31.963   8.796
 2527POPC   C2B33452  29.289  31.760   8.380
 2527POPC   C3B33453  29.344  31.964   7.991
 2527POPC   C4B33454  29.052  32.170   7.760
 2528POPC   NC333455   6.787  16.106   9.729
 2528POPC   PO433456   6.444  15.635   9.574
 2528POPC   GL133457   6.685  15.827   9.215
 2528POPC   GL233458   6.739  16.154   9.228
 2528POPC   C1A33459   6.731  15.744   8.788
 2528POPC   D2A33460   6.995  15.875   8.438
 2528POPC   C3A33461   6.879  15.726   8.030
 2528POPC   C4A33462   6.580  15.763   7.741
 2528POPC   C1B33463   6.869  16.307   8.832
 2528POPC   C2B33464   6.964  16.431   8.434
 2528POPC   C3B33465   6.884  16.221   8.074
 2528POPC   C4B33466   6.730  16.261   7.670
 2529POPC   NC333467  31.702  31.751   9.479
 2529POPC   PO433468  31.349  31.214   9.442
 2529POPC   GL133469  31.467  31.444   9.115
 2529POPC   GL233470  31.224  31.721   9.163
 2529POPC   C1A33471  31.441  31.266   8.696
 2529POPC   D2A33472  31.680  31.133   8.326
 2529POPC   C3A33473  31.510  31.187   7.916
 2529POPC   C4A33474  31.533  31.472   7.590
 2529POPC   C1B33475  31.438  31.804   8.770
 2529POPC   C2B33476  31.530  31.652   8.388
 2529POPC   C3B33477  31.395  31.684   8.028
 2529POPC   C4B33478  31.244  31.877   7.702
 2530POPC   NC333479  28.338  40.592   9.589
 2530POPC   PO433480  28.635  41.108   9.292
 2530POPC   GL133481  28.490  40.736   9.083
 2530POPC   GL233482  28.179  40.794   9.093
 2530POPC   C1A33483  28.376  40.636   8.624
 2530POPC   D2A33484  28.403  40.942   8.261
 2530POPC   C3A33485  28.503  40.700   7.907
 2530POPC   C4A33486  28.717  40.319   7.820
 2530POPC   C1B33487  28.097  41.041   8.702
 2530POPC   C2B33488  27.911  40.815   8.329
 2530POPC   C3B33489  27.776  40.893   7.902
 2530POPC   C4B33490  28.069  40.803   7.576
 2531POPC   NC333491  26.424  35.338   9.892
 2531POPC   PO433492  25.858  35.290   9.495
 2531POPC   GL133493  26.068  35.414   9.110
 2531POPC   GL233494  26.427  35.313   8.993
 2531POPC   C1A33495  26.041  35.619   8.724
 2531POPC   D2A33496  25.752  35.764   8.379
 2531POPC   C3A33497  25.833  35.610   7.978
 2531POPC   C4A33498  25.909  35.324   7.672
 2531POPC   C1B33499  26.187  35.115   8.696
 2531POPC   C2B33500  26.106  35.316   8.320
 2531POPC   C3B33501  26.306  35.415   7.975
 2531POPC   C4B33502  26.434  35.154   7.650
 2532POPC   NC333503  15.304  10.938   9.402
 2532POPC   PO433504  15.459  10.235   9.511
 2532POPC   GL133505  15.122  10.445   9.240
 2532POPC   GL233506  14.858  10.211   9.088
 2532POPC   C1A33507  15.022  10.646   8.855
 2532POPC   D2A33508  15.264  10.655   8.499
 2532POPC   C3A33509  15.031  10.776   8.161
 2532POPC   C4A33510  15.131  10.792   7.760
 2532POPC   C1B33511  15.065  10.166   8.671
 2532POPC   C2B33512  15.170  10.236   8.242
 2532POPC   C3B33513  14.966  10.317   7.871
 2532POPC   C4B33514  14.993  10.026   7.556
 2533POPC   NC333515  21.039  12.978   9.369
 2533POPC   PO433516  21.115  12.327   9.500
 2533POPC   GL133517  21.320  12.602   9.167
 2533POPC   GL233518  21.586  12.861   9.185
 2533POPC   C1A33519  21.283  12.886   8.775
 2533POPC   D2A33520  21.201  12.747   8.361
 2533POPC   C3A33521  21.380  12.884   8.009
 2533POPC   C4A33522  21.209  12.989   7.679
 2533POPC   C1B33523  21.695  12.589   8.760
 2533POPC   C2B33524  21.703  12.581   8.273
 2533POPC   C3B33525  21.778  12.625   7.804
 2533POPC   C4B33526  21.744  12.619   7.321
 2534POPC   NC333527  17.131   9.003   9.465
 2534POPC   PO433528  16.496   8.824   9.337
 2534POPC   GL133529  16.827   8.879   9.055
 2534POPC   GL233530  16.541   9.083   8.889
 2534POPC   C1A33531  16.947   8.963   8.621
 2534POPC   D2A33532  16.681   9.110   8.286
 2534POPC   C3A33533  16.946   9.236   7.958
 2534POPC   C4A33534  16.960   9.170   7.487
 2534POPC   C1B33535  16.523   8.651   8.711
 2534POPC   C2B33536  16.694   8.566   8.347
 2534POPC   C3B33537  16.443   8.733   8.049
 2534POPC   C4B33538  16.517   9.074   7.753
 2535POPC   NC333539  41.322  23.103   9.409
 2535POPC   PO433540  41.798  22.652   9.621
 2535POPC   GL133541  41.704  22.784   9.209
 2535POPC   GL233542  41.368  22.603   9.192
 2535POPC   C1A33543  41.839  22.957   8.803
 2535POPC   D2A33544  41.715  23.170   8.388
 2535POPC   C3A33545  41.548  22.921   8.033
 2535POPC   C4A33546  41.243  22.629   7.847
 2535POPC   C1B33547  41.353  22.828   8.789
 2535POPC   C2B33548  41.215  22.749   8.377
 2535POPC   C3B33549  40.998  23.026   8.095
 2535POPC   C4B33550  41.196  23.122   7.715
 2536POPC   NC333551  10.687  44.513   9.955
 2536POPC   PO433552  10.209  44.917   9.703
 2536POPC   GL133553  10.330  44.877   9.238
 2536POPC   GL233554  10.643  44.651   9.153
 2536POPC   C1A33555  10.443  44.957   8.783
 2536POPC   D2A33556  10.251   0.084   8.373
 2536POPC   C3A33557  10.326  44.795   8.016
 2536POPC   C4A33558  10.491  44.803   7.578
 2536POPC   C1B33559  10.851  44.625   8.716
 2536POPC   C2B33560  10.976  44.592   8.260
 2536POPC   C3B33561  10.749  44.449   7.866
 2536POPC   C4B33562  10.713  44.379   7.400
 2537POPC   NC333563   8.269   9.700   9.543
 2537POPC   PO433564   8.602  10.403   9.494
 2537POPC   GL133565   8.451  10.038   9.212
 2537POPC   GL233566   8.073   9.974   9.143
 2537POPC   C1A33567   8.459   9.841   8.778
 2537POPC   D2A33568   8.603   9.687   8.355
 2537POPC   C3A33569   8.381   9.831   7.977
 2537POPC   C4A33570   8.264   9.807   7.535
 2537POPC   C1B33571   7.970   9.755   8.731
 2537POPC   C2B33572   8.042   9.603   8.298
 2537POPC   C3B33573   7.879   9.688   7.882
 2537POPC   C4B33574   7.850   9.544   7.454
 2538POPC   NC333575  17.426  14.881   9.720
 2538POPC   PO433576  17.365  14.252   9.420
 2538POPC   GL133577  17.488  14.393   9.054
 2538POPC   GL233578  17.794  14.549   9.056
 2538POPC   C1A33579  17.347  14.283   8.673
 2538POPC   D2A33580  17.495  14.230   8.281
 2538POPC   C3A33581  17.267  14.402   7.985
 2538POPC   C4A33582  17.532  14.355   7.682
 2538POPC   C1B33583  17.771  14.566   8.617
 2538POPC   C2B33584  17.408  14.729   8.407
 2538POPC   C3B33585  17.367  14.917   8.017
 2538POPC   C4B33586  17.405  14.849   7.585
 2539POPC   NC333587  40.165  10.452   9.518
 2539POPC   PO433588  40.124  11.107   9.493
 2539POPC   GL133589  40.109  10.788   9.117
 2539POPC   GL233590  39.887  10.467   9.096
 2539POPC   C1A33591  40.156  10.751   8.650
 2539POPC   D2A33592  40.017  10.692   8.212
 2539POPC   C3A33593  40.313  10.621   7.846
 2539POPC   C4A33594  40.221  10.641   7.390
 2539POPC   C1B33595  40.069  10.250   8.736
 2539POPC   C2B33596  40.193  10.214   8.284
 2539POPC   C3B33597  39.929  10.277   7.893
 2539POPC   C4B33598  39.815  10.331   7.427
 2540POPC   NC333599  39.416   6.098   9.558
 2540POPC   PO433600  38.822   5.851   9.654
 2540POPC   GL133601  39.002   6.065   9.268
 2540POPC   GL233602  39.291   5.871   9.105
 2540POPC   C1A33603  38.908   6.081   8.835
 2540POPC   D2A33604  38.906   5.838   8.478
 2540POPC   C3A33605  39.257   5.850   8.219
 2540POPC   C4A33606  39.122   5.902   7.799
 2540POPC   C1B33607  39.496   5.662   8.736
 2540POPC   C2B33608  39.582   5.438   8.328
 2540POPC   C3B33609  39.615   5.640   7.916
 2540POPC   C4B33610  39.628   6.029   7.722
 2541POPC   NC333611   9.038  42.589   9.897
 2541POPC   PO433612   9.215  43.160   9.505
 2541POPC   GL133613   9.062  43.001   9.105
 2541POPC   GL233614   9.239  42.813   8.903
 2541POPC   C1A33615   9.070  43.272   8.735
 2541POPC   D2A33616   8.849  43.369   8.389
 2541POPC   C3A33617   8.968  43.211   8.032
 2541POPC   C4A33618   8.852  43.445   7.667
 2541POPC   C1B33619   8.899  42.800   8.593
 2541POPC   C2B33620   8.710  42.516   8.281
 2541POPC   C3B33621   8.626  42.651   7.848
 2541POPC   C4B33622   8.865  42.956   7.611
 2542POPC   NC333623  25.306  39.478   9.474
 2542POPC   PO433624  24.895  39.001   9.608
 2542POPC   GL133625  25.090  39.095   9.183
 2542POPC   GL233626  25.446  39.040   9.165
 2542POPC   C1A33627  25.252  39.419   8.847
 2542POPC   D2A33628  25.573  39.447   8.541
 2542POPC   C3A33629  25.415  39.546   8.133
 2542POPC   C4A33630  25.465  39.311   7.756
 2542POPC   C1B33631  25.355  38.952   8.709
 2542POPC   C2B33632  25.181  38.672   8.425
 2542POPC   C3B33633  25.302  38.770   8.031
 2542POPC   C4B33634  25.204  38.747   7.595
 2543POPC   NC333635  30.563  12.091   9.546
 2543POPC   PO433636  31.088  12.612   9.511
 2543POPC   GL133637  30.894  12.264   9.197
 2543POPC   GL233638  30.713  11.924   9.063
 2543POPC   C1A33639  30.678  12.332   8.786
 2543POPC   D2A33640  30.869  12.171   8.393
 2543POPC   C3A33641  30.711  12.268   7.994
 2543POPC   C4A33642  30.596  12.069   7.629
 2543POPC   C1B33643  30.950  11.549   8.857
 2543POPC   C2B33644  30.806  11.459   8.450
 2543POPC   C3B33645  30.714  11.732   8.104
 2543POPC   C4B33646  30.957  11.720   7.741
 2544POPC   NC333647  33.288  27.620   9.490
 2544POPC   PO433648  32.694  27.612   9.577
 2544POPC   GL133649  32.909  27.491   9.172
 2544POPC   GL233650  32.720  27.697   8.949
 2544POPC   C1A33651  33.154  27.505   8.767
 2544POPC   D2A33652  32.948  27.655   8.403
 2544POPC   C3A33653  33.183  27.724   8.050
 2544POPC   C4A33654  33.170  27.504   7.678
 2544POPC   C1B33655  32.698  27.284   8.746
 2544POPC   C2B33656  32.785  27.169   8.336
 2544POPC   C3B33657  32.765  27.404   7.953
 2544POPC   C4B33658  32.695  27.628   7.529
 2545POPC   NC333659  34.613  35.693   9.497
 2545POPC   PO433660  34.276  36.188   9.459
 2545POPC   GL133661  34.633  36.169   9.191
 2545POPC   GL233662  34.513  35.888   9.035
 2545POPC   C1A33663  34.835  36.146   8.761
 2545POPC   D2A33664  34.639  35.997   8.350
 2545POPC   C3A33665  34.762  36.133   7.913
 2545POPC   C4A33666  34.588  36.051   7.476
 2545POPC   C1B33667  34.305  36.203   8.753
 2545POPC   C2B33668  34.306  36.410   8.338
 2545POPC   C3B33669  34.271  36.271   7.886
 2545POPC   C4B33670  34.118  36.279   7.444
 2546POPC   NC333671  21.162  19.249   9.380
 2546POPC   PO433672  21.652  18.795   9.390
 2546POPC   GL133673  21.496  18.996   9.055
 2546POPC   GL233674  21.167  18.835   9.050
 2546POPC   C1A33675  21.704  19.154   8.667
 2546POPC   D2A33676  21.714  18.964   8.261
 2546POPC   C3A33677  21.749  19.139   7.847
 2546POPC   C4A33678  21.556  18.932   7.491
 2546POPC   C1B33679  21.112  19.128   8.726
 2546POPC   C2B33680  21.059  19.022   8.329
 2546POPC   C3B33681  21.270  19.030   7.963
 2546POPC   C4B33682  21.102  19.155   7.579
 2547POPC   NC333683  33.312   5.599   9.532
 2547POPC   PO433684  33.894   5.971   9.703
 2547POPC   GL133685  33.955   6.002   9.267
 2547POPC   GL233686  33.618   5.921   9.232
 2547POPC   C1A33687  34.045   5.838   8.856
 2547POPC   D2A33688  33.914   5.601   8.499
 2547POPC   C3A33689  33.980   5.892   8.136
 2547POPC   C4A33690  33.788   5.882   7.734
 2547POPC   C1B33691  33.541   5.779   8.834
 2547POPC   C2B33692  33.565   5.963   8.448
 2547POPC   C3B33693  33.429   5.944   8.068
 2547POPC   C4B33694  33.341   5.617   7.761
 2548POPC   NC333695  36.865   0.163   9.517
 2548POPC   PO433696  37.333   0.660   9.709
 2548POPC   GL133697  37.185   0.471   9.274
 2548POPC   GL233698  36.855   0.556   9.173
 2548POPC   C1A33699  37.014   0.219   8.841
 2548POPC   D2A33700  37.224   0.189   8.411
 2548POPC   C3A33701  37.241   0.552   8.104
 2548POPC   C4A33702  37.044   0.395   7.767
 2548POPC   C1B33703  36.643   0.571   8.774
 2548POPC   C2B33704  36.800   0.538   8.371
 2548POPC   C3B33705  36.670   0.645   7.953
 2548POPC   C4B33706  36.673   0.655   7.522
 2549POPC   NC333707   5.609  20.038   9.404
 2549POPC   PO433708   5.911  19.421   9.530
 2549POPC   GL133709   5.886  19.668   9.157
 2549POPC   GL233710   5.542  19.697   9.040
 2549POPC   C1A33711   5.948  19.835   8.743
 2549POPC   D2A33712   5.916  19.672   8.322
 2549POPC   C3A33713   6.019  19.985   8.040
 2549POPC   C4A33714   5.918  20.010   7.670
 2549POPC   C1B33715   5.495  19.616   8.611
 2549POPC   C2B33716   5.443  19.527   8.194
 2549POPC   C3B33717   5.689  19.614   7.845
 2549POPC   C4B33718   5.741  19.555   7.381
 2550POPC   NC333719  17.481   3.203   9.453
 2550POPC   PO433720  17.844   3.774   9.325
 2550POPC   GL133721  17.552   3.700   8.987
 2550POPC   GL233722  17.303   3.562   9.101
 2550POPC   C1A33723  17.477   3.711   8.555
 2550POPC   D2A33724  17.768   3.531   8.281
 2550POPC   C3A33725  17.593   3.367   7.942
 2550POPC   C4A33726  17.345   3.105   7.727
 2550POPC   C1B33727  17.364   3.224   8.767
 2550POPC   C2B33728  17.251   3.285   8.340
 2550POPC   C3B33729  17.194   3.669   8.106
 2550POPC   C4B33730  17.183   3.580   7.673
 2551POPC   NC333731  41.214   4.426   9.508
 2551POPC   PO433732  40.506   4.254   9.424
 2551POPC   GL133733  40.598   4.297   9.019
 2551POPC   GL233734  40.963   4.356   9.074
 2551POPC   C1A33735  40.764   4.172   8.623
 2551POPC   D2A33736  40.553   4.342   8.289
 2551POPC   C3A33737  40.626   4.361   7.877
 2551POPC   C4A33738  40.964   4.441   7.730
 2551POPC   C1B33739  41.251   4.054   8.837
 2551POPC   C2B33740  41.154   3.845   8.468
 2551POPC   C3B33741  40.949   4.019   8.107
 2551POPC   C4B33742  40.940   3.910   7.677
 2552POPC   NC333743   0.307   2.395   9.347
 2552POPC   PO433744   0.461   3.026   9.527
 2552POPC   GL133745   0.478   3.062   9.133
 2552POPC   GL233746   0.660   2.789   9.108
 2552POPC   C1A33747   0.357   2.943   8.716
 2552POPC   D2A33748   0.268   2.696   8.358
 2552POPC   C3A33749   0.127   2.864   7.930
 2552POPC   C4A33750   0.277   2.815   7.481
 2552POPC   C1B33751   0.837   2.695   8.742
 2552POPC   C2B33752   0.789   2.533   8.353
 2552POPC   C3B33753   0.590   2.604   7.984
 2552POPC   C4B33754   0.758   2.670   7.615
 2553POPC   NC333755  37.297  40.088   9.434
 2553POPC   PO433756  37.911  40.024   9.450
 2553POPC   GL133757  37.726  39.835   9.079
 2553POPC   GL233758  37.359  39.835   9.005
 2553POPC   C1A33759  37.773  39.984   8.665
 2553POPC   D2A33760  37.595  39.892   8.273
 2553POPC   C3A33761  37.908  39.797   7.970
 2553POPC   C4A33762  37.803  39.970   7.595
 2553POPC   C1B33763  37.294  39.595   8.627
 2553POPC   C2B33764  37.158  39.595   8.203
 2553POPC   C3B33765  37.396  39.677   7.794
 2553POPC   C4B33766  37.413  39.682   7.348
 2554POPC   NC333767  28.497  37.899   9.571
 2554POPC   PO433768  28.376  37.305   9.320
 2554POPC   GL133769  28.352  37.706   9.120
 2554POPC   GL233770  28.712  37.833   9.119
 2554POPC   C1A33771  28.419  37.984   8.736
 2554POPC   D2A33772  28.333  38.013   8.296
 2554POPC   C3A33773  28.047  37.710   8.103
 2554POPC   C4A33774  28.134  37.536   7.699
 2554POPC   C1B33775  28.667  37.534   8.772
 2554POPC   C2B33776  28.398  37.524   8.470
 2554POPC   C3B33777  28.518  37.510   8.059
 2554POPC   C4B33778  28.609  37.394   7.647
 2555POPC   NC333779  12.138  31.107   9.523
 2555POPC   PO433780  11.679  30.603   9.607
 2555POPC   GL133781  11.827  30.682   9.186
 2555POPC   GL233782  11.952  30.376   9.057
 2555POPC   C1A33783  12.053  30.793   8.799
 2555POPC   D2A33784  12.309  30.795   8.447
 2555POPC   C3A33785  12.229  31.057   8.140
 2555POPC   C4A33786  12.370  30.963   7.750
 2555POPC   C1B33787  11.711  30.425   8.689
 2555POPC   C2B33788  11.840  30.655   8.339
 2555POPC   C3B33789  12.055  30.612   7.977
 2555POPC   C4B33790  11.708  30.483   7.800
 2556POPC   NC333791  38.781  29.740   9.442
 2556POPC   PO433792  38.251  30.147   9.340
 2556POPC   GL133793  38.485  29.947   9.087
 2556POPC   GL233794  38.710  30.203   9.088
 2556POPC   C1A33795  38.666  29.719   8.782
 2556POPC   D2A33796  38.637  29.829   8.342
 2556POPC   C3A33797  38.668  29.642   7.943
 2556POPC   C4A33798  38.282  29.614   7.724
 2556POPC   C1B33799  38.643  30.231   8.666
 2556POPC   C2B33800  38.915  30.262   8.339
 2556POPC   C3B33801  38.743  30.156   7.958
 2556POPC   C4B33802  38.360  30.095   7.787
 2557POPC   NC333803  14.275  36.559   9.436
 2557POPC   PO433804  14.627  37.148   9.371
 2557POPC   GL133805  14.294  37.000   9.080
 2557POPC   GL233806  14.115  36.687   8.989
 2557POPC   C1A33807  14.387  36.997   8.672
 2557POPC   D2A33808  14.620  36.778   8.379
 2557POPC   C3A33809  14.544  37.063   8.089
 2557POPC   C4A33810  14.589  37.136   7.697
 2557POPC   C1B33811  14.296  36.418   8.706
 2557POPC   C2B33812  14.098  36.320   8.337
 2557POPC   C3B33813  14.274  36.554   8.015
 2557POPC   C4B33814  14.156  36.861   7.757
 2558POPC   NC333815  26.190  29.264   9.469
 2558POPC   PO433816  25.902  28.676   9.498
 2558POPC   GL133817  25.773  28.850   9.091
 2558POPC   GL233818  25.941  29.133   9.046
 2558POPC   C1A33819  25.821  28.878   8.628
 2558POPC   D2A33820  25.876  29.280   8.342
 2558POPC   C3A33821  25.942  29.140   7.912
 2558POPC   C4A33822  25.724  28.829   7.623
 2558POPC   C1B33823  26.170  29.415   8.799
 2558POPC   C2B33824  26.323  29.527   8.406
 2558POPC   C3B33825  26.440  29.349   8.048
 2558POPC   C4B33826  26.228  29.521   7.722
 2559POPC   NC333827  31.252  34.154   9.336
 2559POPC   PO433828  31.575  33.575   9.395
 2559POPC   GL133829  31.487  33.797   9.033
 2559POPC   GL233830  31.711  34.068   8.948
 2559POPC   C1A33831  31.481  33.627   8.640
 2559POPC   D2A33832  31.730  33.389   8.365
 2559POPC   C3A33833  31.683  33.674   8.004
 2559POPC   C4A33834  31.261  33.732   7.870
 2559POPC   C1B33835  31.379  34.163   8.649
 2559POPC   C2B33836  31.332  34.142   8.196
 2559POPC   C3B33837  31.457  34.166   7.759
 2559POPC   C4B33838  31.201  34.215   7.354
 2560POPC   NC333839  21.337  16.240   9.584
 2560POPC   PO433840  21.600  15.668   9.420
 2560POPC   GL133841  21.575  16.005   9.106
 2560POPC   GL233842  21.251  16.122   9.098
 2560POPC   C1A33843  21.641  15.937   8.649
 2560POPC   D2A33844  21.423  15.636   8.348
 2560POPC   C3A33845  21.310  15.757   7.932
 2560POPC   C4A33846  21.577  16.045   7.730
 2560POPC   C1B33847  21.148  15.857   8.744
 2560POPC   C2B33848  21.031  15.988   8.330
 2560POPC   C3B33849  21.195  16.264   7.993
 2560POPC   C4B33850  21.115  16.200   7.562
 2561POPC   NC333851  37.534  30.874   9.629
 2561POPC   PO433852  37.302  30.422   9.190
 2561POPC   GL133853  37.637  30.716   9.097
 2561POPC   GL233854  37.864  31.016   9.125
 2561POPC   C1A33855  37.611  30.648   8.664
 2561POPC   D2A33856  37.328  30.714   8.334
 2561POPC   C3A33857  37.549  30.746   7.937
 2561POPC   C4A33858  37.489  30.602   7.511
 2561POPC   C1B33859  38.072  30.844   8.752
 2561POPC   C2B33860  37.973  30.743   8.301
 2561POPC   C3B33861  38.020  30.927   7.890
 2561POPC   C4B33862  37.881  30.916   7.473
 2562POPC   NC333863  28.550  12.701   9.432
 2562POPC   PO433864  27.870  12.758   9.303
 2562POPC   GL133865  28.229  12.719   9.041
 2562POPC   GL233866  28.402  12.411   9.033
 2562POPC   C1A33867  28.524  12.826   8.727
 2562POPC   D2A33868  28.433  13.020   8.357
 2562POPC   C3A33869  28.479  12.848   7.968
 2562POPC   C4A33870  28.211  12.992   7.613
 2562POPC   C1B33871  28.182  12.399   8.641
 2562POPC   C2B33872  28.157  12.513   8.215
 2562POPC   C3B33873  28.087  12.521   7.794
 2562POPC   C4B33874  27.801  12.707   7.483
 2563POPC   NC333875  40.340  14.168   9.508
 2563POPC   PO433876  40.996  14.289   9.481
 2563POPC   GL133877  40.685  14.378   9.205
 2563POPC   GL233878  40.751  14.692   9.214
 2563POPC   C1A33879  40.711  14.327   8.782
 2563POPC   D2A33880  40.905  14.517   8.439
 2563POPC   C3A33881  40.630  14.479   8.067
 2563POPC   C4A33882  40.683  14.311   7.651
 2563POPC   C1B33883  40.916  14.861   8.855
 2563POPC   C2B33884  40.937  15.077   8.478
 2563POPC   C3B33885  40.961  14.906   8.114
 2563POPC   C4B33886  40.993  14.708   7.758
 2564POPC   NC333887   2.049  27.369   9.511
 2564POPC   PO433888   2.464  27.900   9.570
 2564POPC   GL133889   2.265  27.680   9.177
 2564POPC   GL233890   1.864  27.612   9.104
 2564POPC   C1A33891   2.196  27.644   8.731
 2564POPC   D2A33892   1.977  27.692   8.390
 2564POPC   C3A33893   2.203  27.584   8.048
 2564POPC   C4A33894   2.343  27.538   7.652
 2564POPC   C1B33895   1.702  27.916   8.766
 2564POPC   C2B33896   1.505  27.932   8.325
 2564POPC   C3B33897   1.759  27.810   7.950
 2564POPC   C4B33898   1.874  27.804   7.509
 2565POPC   NC333899   7.275  34.199   9.510
 2565POPC   PO433900   7.520  34.854   9.528
 2565POPC   GL133901   7.298  34.631   9.226
 2565POPC   GL233902   7.583  34.420   9.178
 2565POPC   C1A33903   7.091  34.652   8.822
 2565POPC   D2A33904   7.287  34.692   8.416
 2565POPC   C3A33905   7.144  34.905   8.057
 2565POPC   C4A33906   7.208  34.708   7.690
 2565POPC   C1B33907   7.636  34.694   8.833
 2565POPC   C2B33908   7.823  34.741   8.425
 2565POPC   C3B33909   7.642  34.659   7.985
 2565POPC   C4B33910   7.551  34.382   7.562
 2566POPC   NC333911  39.153  24.550   9.795
 2566POPC   PO433912  39.694  24.386   9.530
 2566POPC   GL133913  39.398  24.606   9.271
 2566POPC   GL233914  39.234  24.291   9.203
 2566POPC   C1A33915  39.121  24.699   8.909
 2566POPC   D2A33916  38.937  24.492   8.550
 2566POPC   C3A33917  39.079  24.589   8.142
 2566POPC   C4A33918  39.043  24.293   7.830
 2566POPC   C1B33919  39.507  24.368   8.821
 2566POPC   C2B33920  39.397  24.281   8.388
 2566POPC   C3B33921  39.559  24.334   7.946
 2566POPC   C4B33922  39.434  24.273   7.500
 2567POPC   NC333923  11.961   9.210   9.527
 2567POPC   PO433924  12.162   8.568   9.552
 2567POPC   GL133925  12.078   8.810   9.176
 2567POPC   GL233926  12.214   9.154   9.078
 2567POPC   C1A33927  12.222   8.722   8.761
 2567POPC   D2A33928  12.209   8.918   8.388
 2567POPC   C3A33929  12.210   8.740   7.995
 2567POPC   C4A33930  12.271   9.041   7.673
 2567POPC   C1B33931  11.844   9.085   8.804
 2567POPC   C2B33932  11.697   9.037   8.383
 2567POPC   C3B33933  11.841   9.129   7.974
 2567POPC   C4B33934  11.819   9.206   7.510
 2568POPC   NC333935   6.734  40.339   9.455
 2568POPC   PO433936   6.362  39.831   9.412
 2568POPC   GL133937   6.500  40.063   9.097
 2568POPC   GL233938   6.833  39.980   9.096
 2568POPC   C1A33939   6.373  40.077   8.689
 2568POPC   D2A33940   6.191  40.136   8.327
 2568POPC   C3A33941   6.395  40.150   7.975
 2568POPC   C4A33942   6.435  39.761   7.764
 2568POPC   C1B33943   6.776  39.750   8.702
 2568POPC   C2B33944   6.746  39.896   8.263
 2568POPC   C3B33945   6.923  39.880   7.828
 2568POPC   C4B33946   7.012  39.917   7.361
 2569POPC   NC333947   5.675   9.179   9.557
 2569POPC   PO433948   6.072   8.624   9.408
 2569POPC   GL133949   5.800   8.837   9.207
 2569POPC   GL233950   6.039   9.121   9.184
 2569POPC   C1A33951   5.731   8.939   8.782
 2569POPC   D2A33952   5.981   8.712   8.477
 2569POPC   C3A33953   5.928   8.875   8.058
 2569POPC   C4A33954   5.998   8.647   7.680
 2569POPC   C1B33955   6.065   9.381   8.818
 2569POPC   C2B33956   5.882   9.451   8.428
 2569POPC   C3B33957   6.003   9.405   7.993
 2569POPC   C4B33958   5.907   9.197   7.646
 2570POPC   NC333959  34.751  34.166   9.536
 2570POPC   PO433960  34.253  34.637   9.379
 2570POPC   GL133961  34.540  34.658   9.055
 2570POPC   GL233962  34.828  34.429   9.098
 2570POPC   C1A33963  34.715  34.695   8.660
 2570POPC   D2A33964  34.740  34.506   8.277
 2570POPC   C3A33965  34.759  34.801   7.955
 2570POPC   C4A33966  34.479  34.640   7.690
 2570POPC   C1B33967  34.747  34.185   8.736
 2570POPC   C2B33968  34.846  34.009   8.348
 2570POPC   C3B33969  34.731  34.107   7.911
 2570POPC   C4B33970  34.899  34.356   7.571
 2571POPC   NC333971  40.464  21.462   9.560
 2571POPC   PO433972  40.936  21.053   9.468
 2571POPC   GL133973  40.714  21.298   9.142
 2571POPC   GL233974  40.827  21.645   9.223
 2571POPC   C1A33975  40.659  21.559   8.755
 2571POPC   D2A33976  40.834  21.763   8.396
 2571POPC   C3A33977  40.731  21.576   8.028
 2571POPC   C4A33978  40.762  21.252   7.727
 2571POPC   C1B33979  41.141  21.475   8.903
 2571POPC   C2B33980  41.154  21.357   8.450
 2571POPC   C3B33981  41.226  21.378   7.978
 2571POPC   C4B33982  41.208  21.007   7.716
 2572POPC   NC333983  24.738  35.768   9.342
 2572POPC   PO433984  24.465  35.310   9.636
 2572POPC   GL133985  24.589  35.257   9.200
 2572POPC   GL233986  24.276  35.174   9.101
 2572POPC   C1A33987  24.571  35.468   8.772
 2572POPC   D2A33988  24.351  35.559   8.382
 2572POPC   C3A33989  24.459  35.469   7.958
 2572POPC   C4A33990  24.575  35.736   7.595
 2572POPC   C1B33991  24.091  35.221   8.680
 2572POPC   C2B33992  24.127  35.125   8.234
 2572POPC   C3B33993  24.072  35.181   7.792
 2572POPC   C4B33994  24.066  35.019   7.386
 2573POPC   NC333995  44.423  14.116   9.453
 2573POPC   PO433996  44.903  14.544   9.644
 2573POPC   GL133997  44.771  14.447   9.164
 2573POPC   GL233998  44.460  14.580   9.136
 2573POPC   C1A33999  44.578  14.094   8.816
 2573POPC   D2A34000  44.384  14.140   8.403
 2573POPC   C3A34001  44.650  14.370   8.108
 2573POPC   C4A34002  44.607  14.253   7.671
 2573POPC   C1B34003  44.582  14.581   8.695
 2573POPC   C2B34004  44.280  14.680   8.401
 2573POPC   C3B34005  44.329  14.860   8.033
 2573POPC   C4B34006  44.728  14.786   7.796
 2574POPC   NC334007  36.365  20.739   9.401
 2574POPC   PO434008  35.823  20.379   9.398
 2574POPC   GL134009  36.045  20.559   9.051
 2574POPC   GL234010  35.996  20.923   9.077
 2574POPC   C1A34011  36.196  20.441   8.631
 2574POPC   D2A34012  36.261  20.277   8.167
 2574POPC   C3A34013  36.332  20.479   7.757
 2574POPC   C4A34014  36.362  20.870   7.545
 2574POPC   C1B34015  35.814  20.865   8.679
 2574POPC   C2B34016  35.893  20.673   8.297
 2574POPC   C3B34017  35.946  20.764   7.902
 2574POPC   C4B34018  35.921  21.141   7.679
 2575POPC   NC334019  18.161   5.768   9.804
 2575POPC   PO434020  18.654   6.101   9.472
 2575POPC   GL134021  18.516   6.049   9.020
 2575POPC   GL234022  18.532   5.666   8.896
 2575POPC   C1A34023  18.195   5.936   8.668
 2575POPC   D2A34024  18.411   6.022   8.319
 2575POPC   C3A34025  18.162   5.876   8.028
 2575POPC   C4A34026  18.240   5.606   7.743
 2575POPC   C1B34027  18.827   5.926   8.676
 2575POPC   C2B34028  18.980   6.037   8.341
 2575POPC   C3B34029  18.809   5.920   8.011
 2575POPC   C4B34030  18.549   6.110   7.746
 2576POPC   NC334031  34.370   2.562   9.460
 2576POPC   PO434032  34.918   2.985   9.604
 2576POPC   GL134033  34.624   2.886   9.172
 2576POPC   GL234034  34.411   3.137   9.012
 2576POPC   C1A34035  34.580   2.698   8.743
 2576POPC   D2A34036  34.526   2.837   8.326
 2576POPC   C3A34037  34.692   2.716   7.909
 2576POPC   C4A34038  34.579   2.478   7.508
 2576POPC   C1B34039  34.166   3.070   8.643
 2576POPC   C2B34040  34.038   2.905   8.251
 2576POPC   C3B34041  34.317   3.065   7.923
 2576POPC   C4B34042  34.368   2.938   7.547
 2577POPC   NC334043  28.776  20.632   9.402
 2577POPC   PO434044  29.462  20.659   9.475
 2577POPC   GL134045  29.222  20.558   9.100
 2577POPC   GL234046  28.969  20.779   8.951
 2577POPC   C1A34047  29.341  20.413   8.683
 2577POPC   D2A34048  29.406  20.632   8.295
 2577POPC   C3A34049  29.421  20.381   7.931
 2577POPC   C4A34050  29.323  20.420   7.483
 2577POPC   C1B34051  28.834  20.398   8.671
 2577POPC   C2B34052  28.962  20.377   8.236
 2577POPC   C3B34053  28.917  20.505   7.805
 2577POPC   C4B34054  28.641  20.777   7.587
 2578POPC   NC334055  38.777  18.115   9.480
 2578POPC   PO434056  38.233  18.605   9.521
 2578POPC   GL134057  38.270  18.415   9.113
 2578POPC   GL234058  38.450  18.111   9.083
 2578POPC   C1A34059  38.222  18.437   8.657
 2578POPC   D2A34060  38.351  18.129   8.366
 2578POPC   C3A34061  38.219  18.192   7.964
 2578POPC   C4A34062  38.485  18.148   7.602
 2578POPC   C1B34063  38.722  18.376   8.832
 2578POPC   C2B34064  38.705  18.522   8.411
 2578POPC   C3B34065  38.727  18.328   8.024
 2578POPC   C4B34066  38.870  18.480   7.631
 2579POPC   NC334067  23.341  27.020   9.528
 2579POPC   PO434068  22.621  26.986   9.464
 2579POPC   GL134069  22.796  26.632   9.216
 2579POPC   GL234070  23.191  26.648   9.191
 2579POPC   C1A34071  22.884  26.475   8.792
 2579POPC   D2A34072  22.830  26.660   8.390
 2579POPC   C3A34073  22.765  26.438   7.999
 2579POPC   C4A34074  22.789  26.679   7.632
 2579POPC   C1B34075  23.285  26.867   8.798
 2579POPC   C2B34076  23.245  27.023   8.386
 2579POPC   C3B34077  23.042  26.938   8.006
 2579POPC   C4B34078  23.175  27.007   7.603
 2580POPC   NC334079  37.625  28.463   9.610
 2580POPC   PO434080  38.137  28.704   9.492
 2580POPC   GL134081  37.854  28.425   9.149
 2580POPC   GL234082  37.458  28.454   9.124
 2580POPC   C1A34083  37.672  28.177   8.765
 2580POPC   D2A34084  37.574  27.917   8.399
 2580POPC   C3A34085  37.756  28.115   8.048
 2580POPC   C4A34086  38.117  28.056   7.813
 2580POPC   C1B34087  37.268  28.571   8.719
 2580POPC   C2B34088  37.401  28.397   8.346
 2580POPC   C3B34089  37.295  28.369   7.952
 2580POPC   C4B34090  37.320  28.659   7.619
 2581POPC   NC334091  17.279   8.040   9.491
 2581POPC   PO434092  17.856   8.330   9.372
 2581POPC   GL134093  17.602   8.144   9.097
 2581POPC   GL234094  17.666   7.824   9.197
 2581POPC   C1A34095  17.478   8.216   8.689
 2581POPC   D2A34096  17.403   8.012   8.293
 2581POPC   C3A34097  17.631   8.231   7.974
 2581POPC   C4A34098  17.680   8.431   7.588
 2581POPC   C1B34099  17.487   7.702   8.780
 2581POPC   C2B34100  17.696   7.604   8.368
 2581POPC   C3B34101  17.689   7.741   7.904
 2581POPC   C4B34102  17.803   7.772   7.426
 2582POPC   NC334103  26.991  21.749   9.387
 2582POPC   PO434104  27.081  21.084   9.571
 2582POPC   GL134105  26.916  21.253   9.208
 2582POPC   GL234106  26.532  21.207   9.242
 2582POPC   C1A34107  27.075  21.405   8.799
 2582POPC   D2A34108  26.892  21.532   8.406
 2582POPC   C3A34109  27.021  21.310   8.021
 2582POPC   C4A34110  27.112  21.499   7.639
 2582POPC   C1B34111  26.571  21.457   8.855
 2582POPC   C2B34112  26.346  21.466   8.465
 2582POPC   C3B34113  26.515  21.459   8.074
 2582POPC   C4B34114  26.592  21.280   7.699
 2583POPC   NC334115  36.999  33.351   9.407
 2583POPC   PO434116  36.875  33.960   9.587
 2583POPC   GL134117  36.833  34.015   9.155
 2583POPC   GL234118  36.894  33.681   9.053
 2583POPC   C1A34119  37.129  34.053   8.805
 2583POPC   D2A34120  37.089  33.926   8.397
 2583POPC   C3A34121  36.713  34.020   8.150
 2583POPC   C4A34122  36.569  34.032   7.715
 2583POPC   C1B34123  37.018  33.492   8.665
 2583POPC   C2B34124  36.851  33.501   8.233
 2583POPC   C3B34125  36.968  33.706   7.837
 2583POPC   C4B34126  37.156  33.516   7.456
 2584POPC   NC334127  22.888  39.712   9.416
 2584POPC   PO434128  23.342  40.158   9.535
 2584POPC   GL134129  23.162  40.113   9.156
 2584POPC   GL234130  22.787  40.143   9.126
 2584POPC   C1A34131  23.258  40.018   8.738
 2584POPC   D2A34132  23.210  39.767   8.365
 2584POPC   C3A34133  23.280  39.926   7.938
 2584POPC   C4A34134  22.941  39.932   7.649
 2584POPC   C1B34135  22.954  40.436   8.816
 2584POPC   C2B34136  22.934  40.449   8.401
 2584POPC   C3B34137  22.813  40.366   8.000
 2584POPC   C4B34138  23.031  40.426   7.655
 2585POPC   NC334139  27.036  27.339   9.535
 2585POPC   PO434140  26.545  27.845   9.465
 2585POPC   GL134141  26.691  27.530   9.200
 2585POPC   GL234142  26.992  27.635   9.083
 2585POPC   C1A34143  26.544  27.499   8.802
 2585POPC   D2A34144  26.699  27.521   8.402
 2585POPC   C3A34145  26.908  27.741   8.090
 2585POPC   C4A34146  26.781  27.486   7.761
 2585POPC   C1B34147  27.035  27.337   8.752
 2585POPC   C2B34148  27.194  27.394   8.347
 2585POPC   C3B34149  27.248  27.360   7.928
 2585POPC   C4B34150  27.167  27.537   7.473
 2586POPC   NC334151   0.099   7.076   9.500
 2586POPC   PO434152   0.189   6.368   9.489
 2586POPC   GL134153   0.244   6.466   9.101
 2586POPC   GL234154   0.568   6.576   9.155
 2586POPC   C1A34155   0.241   6.762   8.766
 2586POPC   D2A34156   0.413   6.885   8.364
 2586POPC   C3A34157   0.281   6.710   7.974
 2586POPC   C4A34158   0.249   6.595   7.552
 2586POPC   C1B34159   0.768   6.759   8.816
 2586POPC   C2B34160   0.856   6.616   8.431
 2586POPC   C3B34161   0.896   6.751   8.016
 2586POPC   C4B34162   0.723   6.819   7.652
 2587POPC   NC334163  12.616  19.259   9.519
 2587POPC   PO434164  13.260  19.123   9.414
 2587POPC   GL134165  13.112  18.942   9.024
 2587POPC   GL234166  12.757  18.975   9.082
 2587POPC   C1A34167  12.955  18.855   8.629
 2587POPC   D2A34168  12.752  19.242   8.485
 2587POPC   C3A34169  12.909  19.454   8.142
 2587POPC   C4A34170  12.998  19.225   7.769
 2587POPC   C1B34171  12.454  18.910   8.726
 2587POPC   C2B34172  12.516  18.811   8.303
 2587POPC   C3B34173  12.691  18.822   7.912
 2587POPC   C4B34174  12.470  18.632   7.601
 2588POPC   NC334175  27.846   9.081   9.383
 2588POPC   PO434176  28.422   8.807   9.351
 2588POPC   GL134177  28.492   9.202   9.106
 2588POPC   GL234178  28.154   9.294   9.025
 2588POPC   C1A34179  28.527   9.392   8.673
 2588POPC   D2A34180  28.552   9.238   8.252
 2588POPC   C3A34181  28.701   8.828   8.154
 2588POPC   C4A34182  28.722   8.634   7.759
 2588POPC   C1B34183  28.278   8.946   8.690
 2588POPC   C2B34184  28.201   8.838   8.253
 2588POPC   C3B34185  28.254   8.822   7.789
 2588POPC   C4B34186  28.000   8.718   7.362
 2589POPC   NC334187   8.395   0.755   9.440
 2589POPC   PO434188   7.969   0.284   9.585
 2589POPC   GL134189   8.106   0.235   9.164
 2589POPC   GL234190   8.053   0.584   9.094
 2589POPC   C1A34191   8.138   0.214   8.715
 2589POPC   D2A34192   8.059   0.442   8.332
 2589POPC   C3A34193   7.977   0.167   7.976
 2589POPC   C4A34194   7.975   0.144   7.514
 2589POPC   C1B34195   8.335   0.739   8.753
 2589POPC   C2B34196   8.461   0.772   8.323
 2589POPC   C3B34197   8.399   0.561   7.935
 2589POPC   C4B34198   8.537   0.647   7.523
 2590POPC   NC334199  20.923  11.481   9.652
 2590POPC   PO434200  21.531  11.297   9.603
 2590POPC   GL134201  21.452  11.185   9.165
 2590POPC   GL234202  21.746  10.986   9.154
 2590POPC   C1A34203  21.338  11.344   8.716
 2590POPC   D2A34204  21.160  11.251   8.265
 2590POPC   C3A34205  21.207  11.529   7.861
 2590POPC   C4A34206  21.105  11.614   7.361
 2590POPC   C1B34207  21.814  11.154   8.759
 2590POPC   C2B34208  21.703  11.269   8.338
 2590POPC   C3B34209  21.543  11.029   7.983
 2590POPC   C4B34210  21.162  10.861   7.824
 2591POPC   NC334211  28.494  28.886   9.299
 2591POPC   PO434212  28.209  29.397   9.627
 2591POPC   GL134213  28.114  29.212   9.196
 2591POPC   GL234214  28.021  28.833   9.088
 2591POPC   C1A34215  28.117  29.206   8.719
 2591POPC   D2A34216  28.143  29.007   8.284
 2591POPC   C3A34217  28.332  29.269   7.945
 2591POPC   C4A34218  28.661  29.365   7.640
 2591POPC   C1B34219  28.234  28.658   8.710
 2591POPC   C2B34220  28.526  28.641   8.343
 2591POPC   C3B34221  28.461  28.709   7.899
 2591POPC   C4B34222  28.388  28.945   7.541
 2592POPC   NC334223  18.508  10.035   9.501
 2592POPC   PO434224  18.039   9.593   9.516
 2592POPC   GL134225  18.232   9.587   9.097
 2592POPC   GL234226  18.236   9.934   9.090
 2592POPC   C1A34227  18.266   9.709   8.621
 2592POPC   D2A34228  18.373   9.603   8.215
 2592POPC   C3A34229  18.097   9.598   7.875
 2592POPC   C4A34230  18.195   9.400   7.458
 2592POPC   C1B34231  18.459  10.157   8.790
 2592POPC   C2B34232  18.378  10.294   8.409
 2592POPC   C3B34233  18.311  10.087   8.052
 2592POPC   C4B34234  18.559   9.853   7.813
 2593POPC   NC334235  13.748  20.389   9.489
 2593POPC   PO434236  13.427  20.976   9.313
 2593POPC   GL134237  13.520  20.629   9.063
 2593POPC   GL234238  13.876  20.560   9.034
 2593POPC   C1A34239  13.544  20.465   8.656
 2593POPC   D2A34240  13.747  20.433   8.266
 2593POPC   C3A34241  13.568  20.223   7.895
 2593POPC   C4A34242  13.397  20.362   7.459
 2593POPC   C1B34243  14.012  20.730   8.628
 2593POPC   C2B34244  13.956  20.891   8.226
 2593POPC   C3B34245  14.046  20.778   7.791
 2593POPC   C4B34246  13.798  20.694   7.434
 2594POPC   NC334247   6.071  21.670   9.424
 2594POPC   PO434248   5.589  21.276   9.442
 2594POPC   GL134249   5.869  21.133   9.134
 2594POPC   GL234250   6.157  20.934   9.171
 2594POPC   C1A34251   6.005  21.341   8.757
 2594POPC   D2A34252   6.101  21.507   8.340
 2594POPC   C3A34253   5.758  21.410   8.050
 2594POPC   C4A34254   5.752  21.367   7.640
 2594POPC   C1B34255   6.065  20.850   8.722
 2594POPC   C2B34256   5.847  21.031   8.368
 2594POPC   C3B34257   5.987  20.962   7.924
 2594POPC   C4B34258   6.203  20.958   7.515
 2595POPC   NC334259  17.131  18.703   9.535
 2595POPC   PO434260  17.545  19.292   9.558
 2595POPC   GL134261  17.592  19.166   9.128
 2595POPC   GL234262  17.279  19.098   8.992
 2595POPC   C1A34263  17.711  19.299   8.676
 2595POPC   D2A34264  17.517  19.316   8.287
 2595POPC   C3A34265  17.690  19.196   7.892
 2595POPC   C4A34266  17.825  19.342   7.521
 2595POPC   C1B34267  17.452  18.872   8.616
 2595POPC   C2B34268  17.558  18.790   8.185
 2595POPC   C3B34269  17.290  18.876   7.844
 2595POPC   C4B34270  17.161  18.695   7.466
 2596POPC   NC334271   4.201  33.264   9.752
 2596POPC   PO434272   4.631  32.837   9.446
 2596POPC   GL134273   4.275  33.120   9.223
 2596POPC   GL234274   4.028  32.955   8.976
 2596POPC   C1A34275   4.249  33.350   8.806
 2596POPC   D2A34276   4.232  33.057   8.455
 2596POPC   C3A34277   4.113  33.261   8.114
 2596POPC   C4A34278   4.127  33.372   7.710
 2596POPC   C1B34279   4.458  32.768   8.802
 2596POPC   C2B34280   4.538  32.470   8.423
 2596POPC   C3B34281   4.418  32.533   7.986
 2596POPC   C4B34282   4.433  32.944   7.893
 2597POPC   NC334283  21.050  30.128   9.550
 2597POPC   PO434284  21.587  29.649   9.599
 2597POPC   GL134285  21.536  29.797   9.189
 2597POPC   GL234286  21.193  29.810   9.139
 2597POPC   C1A34287  21.697  29.648   8.769
 2597POPC   D2A34288  21.740  29.889   8.391
 2597POPC   C3A34289  21.501  29.873   8.012
 2597POPC   C4A34290  21.174  29.875   7.694
 2597POPC   C1B34291  21.393  30.051   8.784
 2597POPC   C2B34292  21.419  30.285   8.429
 2597POPC   C3B34293  21.168  30.267   8.086
 2597POPC   C4B34294  21.360  30.334   7.712
 2598POPC   NC334295  13.504  22.768   9.312
 2598POPC   PO434296  13.639  23.361   9.485
 2598POPC   GL134297  13.372  23.247   9.159
 2598POPC   GL234298  13.699  23.139   8.997
 2598POPC   C1A34299  13.297  23.188   8.713
 2598POPC   D2A34300  13.590  23.352   8.404
 2598POPC   C3A34301  13.625  23.166   8.033
 2598POPC   C4A34302  13.512  22.803   7.861
 2598POPC   C1B34303  13.697  22.876   8.627
 2598POPC   C2B34304  13.577  22.574   8.361
 2598POPC   C3B34305  13.674  22.357   8.038
 2598POPC   C4B34306  13.818  22.459   7.632
 2599POPC   NC334307  30.126   6.347   9.517
 2599POPC   PO434308  29.604   6.796   9.526
 2599POPC   GL134309  29.898   6.704   9.212
 2599POPC   GL234310  29.807   6.364   9.124
 2599POPC   C1A34311  29.912   6.712   8.763
 2599POPC   D2A34312  29.927   6.502   8.387
 2599POPC   C3A34313  29.841   6.745   8.052
 2599POPC   C4A34314  29.869   6.667   7.660
 2599POPC   C1B34315  30.161   6.248   8.820
 2599POPC   C2B34316  30.158   6.060   8.372
 2599POPC   C3B34317  30.049   6.208   7.897
 2599POPC   C4B34318  30.110   6.316   7.398
 2600POPC   NC334319  30.646  43.772   9.543
 2600POPC   PO434320  30.084  43.435   9.683
 2600POPC   GL134321  30.338  43.534   9.209
 2600POPC   GL234322  30.705  43.577   9.093
 2600POPC   C1A34323  30.401  43.414   8.735
 2600POPC   D2A34324  30.561  43.297   8.305
 2600POPC   C3A34325  30.630  43.626   8.003
 2600POPC   C4A34326  30.857  43.970   7.805
 2600POPC   C1B34327  30.528  43.902   8.817
 2600POPC   C2B34328  30.564  43.980   8.375
 2600POPC   C3B34329  30.554  44.333   8.074
 2600POPC   C4B34330  30.611  44.388   7.648
 2601POPC   NC334331  10.196   5.875   9.550
 2601POPC   PO434332  10.768   6.212   9.372
 2601POPC   GL134333  10.352   6.128   9.093
 2601POPC   GL234334  10.232   5.765   9.071
 2601POPC   C1A34335  10.286   6.002   8.628
 2601POPC   D2A34336  10.600   5.816   8.358
 2601POPC   C3A34337  10.648   5.921   7.914
 2601POPC   C4A34338  10.581   6.191   7.541
 2601POPC   C1B34339  10.113   5.482   8.787
 2601POPC   C2B34340  10.242   5.421   8.407
 2601POPC   C3B34341  10.231   5.645   8.051
 2601POPC   C4B34342  10.203   5.486   7.653
 2602POPC   NC334343  37.900  19.786   9.591
 2602POPC   PO434344  37.331  19.842   9.304
 2602POPC   GL134345  37.714  19.752   9.109
 2602POPC   GL234346  38.046  19.931   9.143
 2602POPC   C1A34347  37.714  19.689   8.696
 2602POPC   D2A34348  37.530  19.853   8.326
 2602POPC   C3A34349  37.703  19.627   8.012
 2602POPC   C4A34350  37.735  19.698   7.614
 2602POPC   C1B34351  38.049  20.081   8.750
 2602POPC   C2B34352  38.042  19.922   8.324
 2602POPC   C3B34353  38.028  20.145   7.921
 2602POPC   C4B34354  37.944  20.152   7.440
 2603POPC   NC334355   7.364   9.291   9.422
 2603POPC   PO434356   7.690   8.669   9.438
 2603POPC   GL134357   7.478   8.866   9.120
 2603POPC   GL234358   7.724   9.144   9.071
 2603POPC   C1A34359   7.440   8.741   8.701
 2603POPC   D2A34360   7.336   8.952   8.328
 2603POPC   C3A34361   7.621   8.890   8.006
 2603POPC   C4A34362   7.292   8.833   7.765
 2603POPC   C1B34363   7.465   9.261   8.714
 2603POPC   C2B34364   7.545   9.419   8.255
 2603POPC   C3B34365   7.491   9.342   7.809
 2603POPC   C4B34366   7.687   9.079   7.513
 2604POPC   NC334367  21.306  42.984   9.422
 2604POPC   PO434368  21.994  42.937   9.421
 2604POPC   GL134369  21.733  42.881   9.139
 2604POPC   GL234370  21.715  43.210   9.061
 2604POPC   C1A34371  21.540  42.833   8.763
 2604POPC   D2A34372  21.342  42.888   8.403
 2604POPC   C3A34373  21.585  43.024   8.063
 2604POPC   C4A34374  21.393  42.831   7.757
 2604POPC   C1B34375  21.410  43.327   8.788
 2604POPC   C2B34376  21.469  43.390   8.413
 2604POPC   C3B34377  21.256  43.554   8.148
 2604POPC   C4B34378  21.371  43.433   7.778
 2605POPC   NC334379  24.085  38.323   9.638
 2605POPC   PO434380  23.470  38.576   9.550
 2605POPC   GL134381  23.821  38.593   9.297
 2605POPC   GL234382  23.793  38.246   9.229
 2605POPC   C1A34383  23.943  38.605   8.873
 2605POPC   D2A34384  23.917  38.783   8.450
 2605POPC   C3A34385  23.786  38.600   8.106
 2605POPC   C4A34386  23.591  38.647   7.744
 2605POPC   C1B34387  23.647  38.128   8.841
 2605POPC   C2B34388  23.859  38.234   8.474
 2605POPC   C3B34389  23.904  38.103   8.076
 2605POPC   C4B34390  23.984  38.311   7.711
 2606POPC   NC334391  37.439  25.681   9.533
 2606POPC   PO434392  37.927  26.095   9.526
 2606POPC   GL134393  37.737  26.000   9.180
 2606POPC   GL234394  37.855  25.663   9.224
 2606POPC   C1A34395  37.679  26.268   8.816
 2606POPC   D2A34396  37.912  26.398   8.465
 2606POPC   C3A34397  37.848  26.213   8.096
 2606POPC   C4A34398  37.862  26.068   7.712
 2606POPC   C1B34399  37.551  25.654   8.864
 2606POPC   C2B34400  37.689  25.854   8.494
 2606POPC   C3B34401  37.702  25.717   8.091
 2606POPC   C4B34402  37.824  25.561   7.712
 2607POPC   NC334403  17.194  30.671   9.384
 2607POPC   PO434404  17.755  30.478   9.617
 2607POPC   GL134405  17.693  30.787   9.232
 2607POPC   GL234406  17.468  31.102   9.259
 2607POPC   C1A34407  17.747  30.678   8.808
 2607POPC   D2A34408  17.596  30.362   8.507
 2607POPC   C3A34409  17.639  30.425   8.038
 2607POPC   C4A34410  17.874  30.709   7.768
 2607POPC   C1B34411  17.558  31.160   8.804
 2607POPC   C2B34412  17.608  30.962   8.385
 2607POPC   C3B34413  17.462  30.950   7.952
 2607POPC   C4B34414  17.546  31.059   7.528
 2608POPC   NC334415   2.579  10.795   9.370
 2608POPC   PO434416   2.986  10.187   9.423
 2608POPC   GL134417   2.893  10.475   9.116
 2608POPC   GL234418   2.558  10.333   9.161
 2608POPC   C1A34419   2.950  10.545   8.670
 2608POPC   D2A34420   3.170  10.281   8.374
 2608POPC   C3A34421   2.980  10.354   7.988
 2608POPC   C4A34422   2.672  10.668   7.864
 2608POPC   C1B34423   2.486  10.337   8.745
 2608POPC   C2B34424   2.306  10.481   8.365
 2608POPC   C3B34425   2.387  10.234   8.009
 2608POPC   C4B34426   2.600  10.209   7.646
 2609POPC   NC334427   8.483  41.302   9.505
 2609POPC   PO434428   8.283  41.834   9.542
 2609POPC   GL134429   8.433  41.722   9.162
 2609POPC   GL234430   8.236  41.435   9.061
 2609POPC   C1A34431   8.274  41.857   8.761
 2609POPC   D2A34432   7.939  41.867   8.452
 2609POPC   C3A34433   8.143  41.762   8.082
 2609POPC   C4A34434   8.026  41.671   7.670
 2609POPC   C1B34435   7.991  41.387   8.676
 2609POPC   C2B34436   8.049  41.165   8.290
 2609POPC   C3B34437   8.198  41.257   7.873
 2609POPC   C4B34438   7.941  41.201   7.468
 2610POPC   NC334439   0.621   6.174   9.497
 2610POPC   PO434440   0.480   5.454   9.512
 2610POPC   GL134441   0.589   5.695   9.152
 2610POPC   GL234442   0.584   6.069   9.018
 2610POPC   C1A34443   0.349   5.708   8.775
 2610POPC   D2A34444   0.258   5.919   8.412
 2610POPC   C3A34445   0.466   5.846   8.032
 2610POPC   C4A34446   0.340   5.679   7.641
 2610POPC   C1B34447   0.491   6.315   8.666
 2610POPC   C2B34448   0.496   6.331   8.217
 2610POPC   C3B34449   0.604   6.338   7.800
 2610POPC   C4B34450   0.697   6.396   7.352
 2611POPC   NC334451   5.810  42.672   9.575
 2611POPC   PO434452   6.022  42.100   9.523
 2611POPC   GL134453   5.991  42.382   9.176
 2611POPC   GL234454   5.618  42.478   9.119
 2611POPC   C1A34455   5.977  42.294   8.749
 2611POPC   D2A34456   6.135  42.143   8.363
 2611POPC   C3A34457   5.947  42.232   7.964
 2611POPC   C4A34458   6.198  42.385   7.629
 2611POPC   C1B34459   5.679  42.716   8.723
 2611POPC   C2B34460   5.921  42.628   8.355
 2611POPC   C3B34461   5.843  42.745   7.947
 2611POPC   C4B34462   5.638  42.567   7.585
 2612POPC   NC334463   8.945  33.680   9.498
 2612POPC   PO434464   8.548  34.143   9.300
 2612POPC   GL134465   8.809  33.870   9.026
 2612POPC   GL234466   9.184  33.761   9.040
 2612POPC   C1A34467   8.906  33.824   8.592
 2612POPC   D2A34468   8.824  33.836   8.187
 2612POPC   C3A34469   8.939  33.715   7.853
 2612POPC   C4A34470   8.706  33.911   7.585
 2612POPC   C1B34471   9.221  34.159   8.808
 2612POPC   C2B34472   9.152  34.222   8.366
 2612POPC   C3B34473   9.355  33.887   8.111
 2612POPC   C4B34474   9.410  33.647   7.691
 2613POPC   NC334475  40.495  11.389   9.497
 2613POPC   PO434476  41.033  11.076   9.263
 2613POPC   GL134477  40.982  11.439   9.068
 2613POPC   GL234478  40.655  11.480   9.014
 2613POPC   C1A34479  41.158  11.595   8.729
 2613POPC   D2A34480  41.022  11.573   8.299
 2613POPC   C3A34481  40.888  11.210   8.064
 2613POPC   C4A34482  41.009  11.136   7.642
 2613POPC   C1B34483  40.541  11.091   8.781
 2613POPC   C2B34484  40.444  11.093   8.339
 2613POPC   C3B34485  40.465  11.471   8.054
 2613POPC   C4B34486  40.530  11.345   7.635
 2614POPC   NC334487  20.044  17.050   9.780
 2614POPC   PO434488  19.669  16.523   9.624
 2614POPC   GL134489  19.693  16.605   9.194
 2614POPC   GL234490  19.594  16.285   9.134
 2614POPC   C1A34491  19.964  16.552   8.825
 2614POPC   D2A34492  20.185  16.660   8.420
 2614POPC   C3A34493  19.994  16.817   8.037
 2614POPC   C4A34494  19.961  16.599   7.658
 2614POPC   C1B34495  19.439  16.413   8.753
 2614POPC   C2B34496  19.648  16.580   8.425
 2614POPC   C3B34497  19.738  16.388   8.082
 2614POPC   C4B34498  19.507  16.408   7.752
 2615POPC   NC334499  38.823  40.579   9.332
 2615POPC   PO434500  38.184  40.985   9.406
 2615POPC   GL134501  38.374  40.741   9.116
 2615POPC   GL234502  38.062  40.631   8.960
 2615POPC   C1A34503  38.502  40.672   8.693
 2615POPC   D2A34504  38.167  40.663   8.387
 2615POPC   C3A34505  38.386  40.623   8.029
 2615POPC   C4A34506  38.708  40.817   7.835
 2615POPC   C1B34507  38.143  41.055   8.757
 2615POPC   C2B34508  38.344  41.371   8.531
 2615POPC   C3B34509  38.441  41.109   8.203
 2615POPC   C4B34510  38.245  41.069   7.799
 2616POPC   NC334511  28.765   1.601   9.512
 2616POPC   PO434512  29.354   1.139   9.634
 2616POPC   GL134513  29.290   1.177   9.178
 2616POPC   GL234514  28.938   1.270   9.138
 2616POPC   C1A34515  29.266   1.417   8.782
 2616POPC   D2A34516  29.075   1.338   8.425
 2616POPC   C3A34517  29.300   1.270   8.061
 2616POPC   C4A34518  29.236   1.494   7.726
 2616POPC   C1B34519  28.779   1.607   8.816
 2616POPC   C2B34520  28.594   1.531   8.394
 2616POPC   C3B34521  28.768   1.550   7.985
 2616POPC   C4B34522  28.747   1.443   7.556
 2617POPC   NC334523  22.668   6.225   9.582
 2617POPC   PO434524  22.624   5.615   9.325
 2617POPC   GL134525  22.876   5.962   9.189
 2617POPC   GL234526  23.193   5.824   9.100
 2617POPC   C1A34527  23.035   6.212   8.819
 2617POPC   D2A34528  23.112   6.033   8.428
 2617POPC   C3A34529  22.944   6.267   8.092
 2617POPC   C4A34530  22.865   6.109   7.677
 2617POPC   C1B34531  22.904   5.681   8.759
 2617POPC   C2B34532  22.904   5.528   8.390
 2617POPC   C3B34533  22.861   5.755   8.057
 2617POPC   C4B34534  22.624   5.667   7.728
 2618POPC   NC334535  25.297  18.636   9.811
 2618POPC   PO434536  25.291  19.344   9.552
 2618POPC   GL134537  25.173  19.201   9.118
 2618POPC   GL234538  25.012  19.534   9.069
 2618POPC   C1A34539  25.047  18.892   8.774
 2618POPC   D2A34540  24.887  18.911   8.338
 2618POPC   C3A34541  25.144  18.873   7.961
 2618POPC   C4A34542  25.086  18.953   7.504
 2618POPC   C1B34543  25.186  19.369   8.648
 2618POPC   C2B34544  25.525  19.371   8.365
 2618POPC   C3B34545  25.506  19.251   7.928
 2618POPC   C4B34546  25.514  19.254   7.497
 2619POPC   NC334547  18.578  30.085   9.515
 2619POPC   PO434548  18.014  29.731   9.463
 2619POPC   GL134549  18.175  29.999   9.114
 2619POPC   GL234550  18.526  30.134   9.018
 2619POPC   C1A34551  18.218  29.931   8.667
 2619POPC   D2A34552  18.330  30.162   8.338
 2619POPC   C3A34553  18.036  30.092   8.031
 2619POPC   C4A34554  18.141  29.831   7.669
 2619POPC   C1B34555  18.639  29.721   8.872
 2619POPC   C2B34556  18.549  29.558   8.446
 2619POPC   C3B34557  18.511  29.746   8.045
 2619POPC   C4B34558  18.614  29.684   7.621
 2620POPC   NC334559   6.284   6.264   9.426
 2620POPC   PO434560   6.885   6.515   9.442
 2620POPC   GL134561   6.578   6.640   9.130
 2620POPC   GL234562   6.395   6.380   8.951
 2620POPC   C1A34563   6.537   6.797   8.704
 2620POPC   D2A34564   6.348   6.616   8.360
 2620POPC   C3A34565   6.504   6.682   7.975
 2620POPC   C4A34566   6.766   7.043   7.884
 2620POPC   C1B34567   6.251   6.170   8.587
 2620POPC   C2B34568   6.471   6.142   8.181
 2620POPC   C3B34569   6.851   6.302   8.006
 2620POPC   C4B34570   6.806   6.472   7.611
 2621POPC   NC334571  41.920  14.426   9.457
 2621POPC   PO434572  42.567  14.275   9.598
 2621POPC   GL134573  42.351  14.281   9.209
 2621POPC   GL234574  42.415  14.653   9.179
 2621POPC   C1A34575  42.224  14.363   8.782
 2621POPC   D2A34576  42.129  14.145   8.422
 2621POPC   C3A34577  42.348  14.248   8.071
 2621POPC   C4A34578  42.187  14.396   7.651
 2621POPC   C1B34579  42.393  14.852   8.764
 2621POPC   C2B34580  42.259  14.709   8.348
 2621POPC   C3B34581  42.437  14.740   7.926
 2621POPC   C4B34582  42.531  14.709   7.432
 2622POPC   NC334583  32.977  35.848   9.560
 2622POPC   PO434584  32.741  36.428   9.704
 2622POPC   GL134585  33.061  36.211   9.262
 2622POPC   GL234586  32.846  36.102   8.966
 2622POPC   C1A34587  33.320  36.201   8.858
 2622POPC   D2A34588  33.309  36.219   8.406
 2622POPC   C3A34589  33.001  36.109   8.120
 2622POPC   C4A34590  33.169  36.259   7.732
 2622POPC   C1B34591  32.747  35.738   8.739
 2622POPC   C2B34592  32.640  35.754   8.309
 2622POPC   C3B34593  32.768  35.684   7.888
 2622POPC   C4B34594  32.909  35.860   7.481
 2623POPC   NC334595  38.078  31.193   9.547
 2623POPC   PO434596  38.580  31.681   9.503
 2623POPC   GL134597  38.520  31.573   9.122
 2623POPC   GL234598  38.203  31.482   9.157
 2623POPC   C1A34599  38.728  31.609   8.727
 2623POPC   D2A34600  38.906  31.699   8.311
 2623POPC   C3A34601  38.628  31.579   7.988
 2623POPC   C4A34602  38.530  31.736   7.574
 2623POPC   C1B34603  38.010  31.355   8.767
 2623POPC   C2B34604  38.123  31.222   8.370
 2623POPC   C3B34605  38.102  31.427   7.989
 2623POPC   C4B34606  38.183  31.351   7.592
 2624POPC   NC334607  20.926   9.293   9.467
 2624POPC   PO434608  20.339   9.032   9.438
 2624POPC   GL134609  20.654   9.015   9.107
 2624POPC   GL234610  20.859   9.298   8.952
 2624POPC   C1A34611  20.855   8.799   8.783
 2624POPC   D2A34612  20.749   8.500   8.480
 2624POPC   C3A34613  20.762   8.708   8.090
 2624POPC   C4A34614  20.527   8.931   7.765
 2624POPC   C1B34615  20.552   9.191   8.625
 2624POPC   C2B34616  20.470   9.208   8.201
 2624POPC   C3B34617  20.613   9.426   7.873
 2624POPC   C4B34618  20.803   9.348   7.492
 2625POPC   NC334619  34.253   1.827  10.128
 2625POPC   PO434620  34.517   2.099   9.569
 2625POPC   GL134621  34.538   2.068   9.111
 2625POPC   GL234622  34.402   1.741   9.160
 2625POPC   C1A34623  34.772   2.183   8.717
 2625POPC   D2A34624  34.879   2.410   8.306
 2625POPC   C3A34625  34.740   2.198   7.902
 2625POPC   C4A34626  34.780   2.013   7.457
 2625POPC   C1B34627  34.602   1.572   8.811
 2625POPC   C2B34628  34.590   1.475   8.376
 2625POPC   C3B34629  34.481   1.725   8.034
 2625POPC   C4B34630  34.519   1.618   7.632
 2626POPC   NC334631   3.466  26.564   9.488
 2626POPC   PO434632   3.713  25.941   9.578
 2626POPC   GL134633   3.729  26.188   9.222
 2626POPC   GL234634   3.370  26.175   9.087
 2626POPC   C1A34635   3.771  26.208   8.785
 2626POPC   D2A34636   3.482  26.196   8.449
 2626POPC   C3A34637   3.690  26.034   8.106
 2626POPC   C4A34638   3.723  26.137   7.706
 2626POPC   C1B34639   3.206  25.885   8.731
 2626POPC   C2B34640   3.291  25.725   8.268
 2626POPC   C3B34641   3.243  25.837   7.817
 2626POPC   C4B34642   2.962  25.692   7.443
 2627POPC   NC334643   0.576  30.187   9.472
 2627POPC   PO434644   0.231  29.623   9.261
 2627POPC   GL134645   0.304  30.008   9.087
 2627POPC   GL234646   0.683  30.045   9.005
 2627POPC   C1A34647   0.273  30.035   8.687
 2627POPC   D2A34648   0.457  30.022   8.304
 2627POPC   C3A34649   0.230  30.290   8.063
 2627POPC   C4A34650   0.168  30.230   7.662
 2627POPC   C1B34651   0.684  29.734   8.677
 2627POPC   C2B34652   0.903  29.747   8.255
 2627POPC   C3B34653   0.786  29.715   7.797
 2627POPC   C4B34654   0.654  29.556   7.349
 2628POPC   NC334655  19.574  39.277   9.201
 2628POPC   PO434656  19.161  39.575   9.545
 2628POPC   GL134657  19.048  39.406   9.148
 2628POPC   GL234658  19.070  39.047   9.140
 2628POPC   C1A34659  19.163  39.303   8.715
 2628POPC   D2A34660  18.951  39.186   8.390
 2628POPC   C3A34661  19.147  39.080   8.056
 2628POPC   C4A34662  19.177  39.225   7.687
 2628POPC   C1B34663  18.762  38.935   8.803
 2628POPC   C2B34664  18.526  38.909   8.427
 2628POPC   C3B34665  18.619  39.023   8.007
 2628POPC   C4B34666  18.835  38.852   7.649
 2629POPC   NC334667  33.346  26.710   9.421
 2629POPC   PO434668  32.730  26.677   9.692
 2629POPC   GL134669  32.729  26.775   9.185
 2629POPC   GL234670  32.978  26.983   9.046
 2629POPC   C1A34671  32.911  26.611   8.716
 2629POPC   D2A34672  33.120  26.752   8.324
 2629POPC   C3A34673  32.994  26.621   7.915
 2629POPC   C4A34674  33.096  26.648   7.462
 2629POPC   C1B34675  33.294  26.998   8.730
 2629POPC   C2B34676  33.294  27.249   8.344
 2629POPC   C3B34677  33.172  27.108   7.971
 2629POPC   C4B34678  33.433  26.947   7.711
 2630POPC   NC334679  36.567   5.023   9.438
 2630POPC   PO434680  37.217   5.325   9.532
 2630POPC   GL134681  37.116   5.157   9.138
 2630POPC   GL234682  37.073   4.818   9.137
 2630POPC   C1A34683  36.913   5.093   8.725
 2630POPC   D2A34684  36.761   5.360   8.373
 2630POPC   C3A34685  36.841   5.172   7.954
 2630POPC   C4A34686  36.873   5.380   7.518
 2630POPC   C1B34687  37.303   4.726   8.800
 2630POPC   C2B34688  37.179   4.708   8.391
 2630POPC   C3B34689  37.321   4.897   8.008
 2630POPC   C4B34690  37.157   4.963   7.604
 2631POPC   NC334691  27.196  35.321   9.643
 2631POPC   PO434692  26.536  35.544   9.499
 2631POPC   GL134693  26.860  35.343   9.260
 2631POPC   GL234694  27.132  35.556   9.193
 2631POPC   C1A34695  26.931  35.170   8.851
 2631POPC   D2A34696  26.629  35.278   8.511
 2631POPC   C3A34697  26.775  35.307   8.113
 2631POPC   C4A34698  26.929  35.176   7.768
 2631POPC   C1B34699  27.255  35.553   8.777
 2631POPC   C2B34700  27.192  35.341   8.401
 2631POPC   C3B34701  27.310  35.453   7.989
 2631POPC   C4B34702  27.160  35.571   7.572
 2632POPC   NC334703  29.463  26.708   9.592
 2632POPC   PO434704  28.832  26.945   9.549
 2632POPC   GL134705  29.125  26.829   9.213
 2632POPC   GL234706  28.970  26.520   9.191
 2632POPC   C1A34707  29.045  26.859   8.744
 2632POPC   D2A34708  28.676  26.928   8.446
 2632POPC   C3A34709  28.875  27.022   8.039
 2632POPC   C4A34710  29.342  27.117   7.892
 2632POPC   C1B34711  28.919  26.365   8.775
 2632POPC   C2B34712  28.951  26.486   8.341
 2632POPC   C3B34713  28.904  26.467   7.908
 2632POPC   C4B34714  29.089  26.756   7.647
 2633POPC   NC334715  10.966  25.510   9.421
 2633POPC   PO434716  10.395  25.192   9.425
 2633POPC   GL134717  10.591  25.248   9.089
 2633POPC   GL234718  10.461  24.930   8.937
 2633POPC   C1A34719  10.475  25.414   8.701
 2633POPC   D2A34720  10.224  25.459   8.316
 2633POPC   C3A34721  10.486  25.464   7.959
 2633POPC   C4A34722  10.691  25.483   7.562
 2633POPC   C1B34723  10.181  25.020   8.572
 2633POPC   C2B34724  10.241  24.999   8.107
 2633POPC   C3B34725  10.446  24.994   7.716
 2633POPC   C4B34726  10.365  25.179   7.307
 2634POPC   NC334727  43.653  30.512   9.457
 2634POPC   PO434728  44.222  30.723   9.357
 2634POPC   GL134729  43.877  30.904   9.140
 2634POPC   GL234730  43.792  30.596   8.994
 2634POPC   C1A34731  43.601  30.985   8.772
 2634POPC   D2A34732  43.625  30.647   8.453
 2634POPC   C3A34733  43.839  30.813   8.098
 2634POPC   C4A34734  43.944  30.594   7.740
 2634POPC   C1B34735  44.095  30.667   8.699
 2634POPC   C2B34736  44.135  30.451   8.328
 2634POPC   C3B34737  44.358  30.652   8.011
 2634POPC   C4B34738  44.251  31.040   7.821
 2635POPC   NC334739  10.453  43.017   9.629
 2635POPC   PO434740  10.764  43.524   9.351
 2635POPC   GL134741  10.628  43.232   9.067
 2635POPC   GL234742  10.741  42.908   9.170
 2635POPC   C1A34743  10.596  43.119   8.620
 2635POPC   D2A34744  10.367  42.872   8.309
 2635POPC   C3A34745  10.495  43.086   7.933
 2635POPC   C4A34746  10.578  43.554   7.922
 2635POPC   C1B34747  10.681  42.657   8.790
 2635POPC   C2B34748  10.788  42.603   8.345
 2635POPC   C3B34749  10.868  42.620   7.867
 2635POPC   C4B34750  10.611  42.699   7.435
 2636POPC   NC334751  43.823  24.775   9.458
 2636POPC   PO434752  43.967  24.128   9.571
 2636POPC   GL134753  43.930  24.344   9.150
 2636POPC   GL234754  44.000  24.695   8.994
 2636POPC   C1A34755  43.683  24.389   8.754
 2636POPC   D2A34756  43.576  24.186   8.365
 2636POPC   C3A34757  43.771  24.385   8.022
 2636POPC   C4A34758  43.609  24.503   7.655
 2636POPC   C1B34759  44.210  24.421   8.724
 2636POPC   C2B34760  44.110  24.145   8.395
 2636POPC   C3B34761  44.236  24.153   7.990
 2636POPC   C4B34762  44.233  24.551   7.775
 2637POPC   NC334763  23.990  42.279   9.426
 2637POPC   PO434764  23.367  42.596   9.519
 2637POPC   GL134765  23.632  42.534   9.146
 2637POPC   GL234766  23.970  42.555   9.008
 2637POPC   C1A34767  23.591  42.302   8.776
 2637POPC   D2A34768  23.487  42.281   8.382
 2637POPC   C3A34769  23.716  42.116   8.031
 2637POPC   C4A34770  23.411  42.210   7.684
 2637POPC   C1B34771  24.085  42.204   8.745
 2637POPC   C2B34772  24.205  42.213   8.319
 2637POPC   C3B34773  24.118  42.446   7.943
 2637POPC   C4B34774  23.879  42.368   7.580
 2638POPC   NC334775   6.336  12.436   9.536
 2638POPC   PO434776   6.618  11.855   9.563
 2638POPC   GL134777   6.660  12.076   9.201
 2638POPC   GL234778   6.871  11.805   9.087
 2638POPC   C1A34779   6.530  11.990   8.774
 2638POPC   D2A34780   6.633  11.741   8.462
 2638POPC   C3A34781   6.639  11.994   8.073
 2638POPC   C4A34782   6.453  11.943   7.694
 2638POPC   C1B34783   6.984  12.240   8.858
 2638POPC   C2B34784   6.872  12.273   8.438
 2638POPC   C3B34785   7.044  12.311   8.016
 2638POPC   C4B34786   6.902  12.197   7.608
 2639POPC   NC334787   1.826  33.385   9.503
 2639POPC   PO434788   1.893  33.983   9.674
 2639POPC   GL134789   1.851  33.783   9.211
 2639POPC   GL234790   2.156  33.604   9.079
 2639POPC   C1A34791   1.740  33.751   8.751
 2639POPC   D2A34792   1.666  33.808   8.284
 2639POPC   C3A34793   1.887  33.530   7.941
 2639POPC   C4A34794   1.954  33.622   7.497
 2639POPC   C1B34795   2.252  33.852   8.711
 2639POPC   C2B34796   2.136  34.013   8.296
 2639POPC   C3B34797   2.294  33.919   7.897
 2639POPC   C4B34798   2.413  33.562   7.665
 2640POPC   NC334799  17.824  32.494   9.636
 2640POPC   PO434800  18.407  32.140   9.546
 2640POPC   GL134801  18.399  32.287   9.149
 2640POPC   GL234802  18.103  32.485   9.170
 2640POPC   C1A34803  18.321  32.056   8.759
 2640POPC   D2A34804  18.058  32.004   8.390
 2640POPC   C3A34805  18.246  32.092   7.982
 2640POPC   C4A34806  18.096  31.881   7.619
 2640POPC   C1B34807  18.182  32.641   8.728
 2640POPC   C2B34808  18.288  32.578   8.252
 2640POPC   C3B34809  18.254  32.587   7.752
 2640POPC   C4B34810  18.270  32.609   7.265
 2641POPC   NC334811   5.411  22.411   9.548
 2641POPC   PO434812   4.883  21.981   9.496
 2641POPC   GL134813   5.080  22.133   9.147
 2641POPC   GL234814   5.424  22.006   9.210
 2641POPC   C1A34815   4.863  22.149   8.733
 2641POPC   D2A34816   4.819  22.417   8.358
 2641POPC   C3A34817   4.753  22.254   7.952
 2641POPC   C4A34818   4.874  22.294   7.538
 2641POPC   C1B34819   5.393  22.063   8.752
 2641POPC   C2B34820   5.189  22.047   8.355
 2641POPC   C3B34821   5.268  22.188   7.967
 2641POPC   C4B34822   5.397  22.025   7.611
 2642POPC   NC334823  30.127  31.928   9.551
 2642POPC   PO434824  29.876  32.559   9.512
 2642POPC   GL134825  29.810  32.190   9.245
 2642POPC   GL234826  30.154  32.133   9.062
 2642POPC   C1A34827  29.684  32.284   8.851
 2642POPC   D2A34828  29.954  32.373   8.519
 2642POPC   C3A34829  29.804  32.221   8.157
 2642POPC   C4A34830  30.028  32.276   7.823
 2642POPC   C1B34831  30.334  31.988   8.636
 2642POPC   C2B34832  30.232  31.908   8.194
 2642POPC   C3B34833  30.329  31.845   7.764
 2642POPC   C4B34834  30.237  31.834   7.310
 2643POPC   NC334835  38.921  44.228   9.261
 2643POPC   PO434836  38.719  43.615   9.636
 2643POPC   GL134837  38.383  43.682   9.243
 2643POPC   GL234838  38.392  44.048   9.160
 2643POPC   C1A34839  38.390  43.614   8.770
 2643POPC   D2A34840  38.146  43.629   8.441
 2643POPC   C3A34841  38.349  43.676   8.025
 2643POPC   C4A34842  38.239  43.853   7.680
 2643POPC   C1B34843  38.517  44.098   8.708
 2643POPC   C2B34844  38.312  44.110   8.328
 2643POPC   C3B34845  38.621  44.128   8.012
 2643POPC   C4B34846  38.762  43.860   7.704
 2644POPC   NC334847   9.777  41.817   9.533
 2644POPC   PO434848  10.016  41.219   9.597
 2644POPC   GL134849   9.873  41.441   9.181
 2644POPC   GL234850   9.491  41.553   9.166
 2644POPC   C1A34851   9.791  41.521   8.739
 2644POPC   D2A34852   9.949  41.282   8.389
 2644POPC   C3A34853   9.876  41.358   7.942
 2644POPC   C4A34854   9.953  41.809   7.813
 2644POPC   C1B34855   9.268  41.370   8.800
 2644POPC   C2B34856   9.425  41.375   8.410
 2644POPC   C3B34857   9.486  41.641   8.103
 2644POPC   C4B34858   9.369  41.379   7.781
 2645POPC   NC334859  11.734   1.165   9.427
 2645POPC   PO434860  11.113   1.459   9.473
 2645POPC   GL134861  11.056   1.300   9.056
 2645POPC   GL234862  11.324   1.083   9.055
 2645POPC   C1A34863  11.257   1.385   8.664
 2645POPC   D2A34864  11.280   1.178   8.292
 2645POPC   C3A34865  11.250   1.357   7.919
 2645POPC   C4A34866  11.612   1.533   7.856
 2645POPC   C1B34867  11.363   0.853   8.692
 2645POPC   C2B34868  11.465   0.712   8.294
 2645POPC   C3B34869  11.365   0.835   7.868
 2645POPC   C4B34870  11.012   0.675   7.638
 2646POPC   NC334871   8.868   9.230   9.579
 2646POPC   PO434872   8.569   8.736   9.255
 2646POPC   GL134873   8.923   8.931   9.141
 2646POPC   GL234874   8.719   9.229   9.075
 2646POPC   C1A34875   9.206   8.961   8.804
 2646POPC   D2A34876   9.191   9.130   8.391
 2646POPC   C3A34877   9.164   8.913   7.987
 2646POPC   C4A34878   9.179   9.024   7.526
 2646POPC   C1B34879   8.703   8.995   8.673
 2646POPC   C2B34880   8.694   9.168   8.299
 2646POPC   C3B34881   8.504   9.332   7.981
 2646POPC   C4B34882   8.736   9.078   7.739
 2647POPC   NC334883  26.230  39.177   9.635
 2647POPC   PO434884  25.746  39.609   9.525
 2647POPC   GL134885  25.867  39.344   9.202
 2647POPC   GL234886  25.996  39.027   9.217
 2647POPC   C1A34887  26.019  39.349   8.801
 2647POPC   D2A34888  26.077  39.525   8.418
 2647POPC   C3A34889  25.865  39.279   8.120
 2647POPC   C4A34890  26.020  39.236   7.686
 2647POPC   C1B34891  25.829  38.866   8.866
 2647POPC   C2B34892  25.895  38.819   8.429
 2647POPC   C3B34893  26.027  38.824   8.001
 2647POPC   C4B34894  25.686  38.855   7.722
 2648POPC   NC334895  12.130  17.094   9.715
 2648POPC   PO434896  12.371  17.748   9.516
 2648POPC   GL134897  12.189  17.515   9.145
 2648POPC   GL234898  11.839  17.428   9.185
 2648POPC   C1A34899  12.163  17.530   8.687
 2648POPC   D2A34900  12.462  17.679   8.357
 2648POPC   C3A34901  12.404  17.548   7.945
 2648POPC   C4A34902  12.280  17.704   7.583
 2648POPC   C1B34903  11.689  17.347   8.748
 2648POPC   C2B34904  11.748  17.303   8.313
 2648POPC   C3B34905  11.916  17.356   7.886
 2648POPC   C4B34906  11.927  17.345   7.408
 2649POPC   NC334907  26.640  19.994   9.489
 2649POPC   PO434908  27.239  19.792   9.487
 2649POPC   GL134909  27.083  19.997   9.112
 2649POPC   GL234910  26.717  19.907   8.976
 2649POPC   C1A34911  27.127  19.957   8.659
 2649POPC   D2A34912  26.812  19.762   8.421
 2649POPC   C3A34913  26.692  19.915   8.025
 2649POPC   C4A34914  26.896  19.740   7.711
 2649POPC   C1B34915  26.410  19.637   8.714
 2649POPC   C2B34916  26.366  19.558   8.251
 2649POPC   C3B34917  26.338  19.604   7.786
 2649POPC   C4B34918  26.373  19.419   7.344
 2650POPC   NC334919   7.384  42.558   9.509
 2650POPC   PO434920   7.622  41.883   9.485
 2650POPC   GL134921   7.524  42.208   9.156
 2650POPC   GL234922   7.185  42.399   9.068
 2650POPC   C1A34923   7.464  42.195   8.711
 2650POPC   D2A34924   7.374  42.001   8.342
 2650POPC   C3A34925   7.629  41.971   7.986
 2650POPC   C4A34926   7.616  41.985   7.542
 2650POPC   C1B34927   6.982  42.409   8.665
 2650POPC   C2B34928   7.228  42.481   8.291
 2650POPC   C3B34929   7.242  42.342   7.878
 2650POPC   C4B34930   7.061  42.647   7.636
 2651POPC   NC334931  19.432  22.778   9.496
 2651POPC   PO434932  18.840  23.044   9.493
 2651POPC   GL134933  19.035  22.979   9.144
 2651POPC   GL234934  19.336  23.158   9.145
 2651POPC   C1A34935  18.977  22.810   8.751
 2651POPC   D2A34936  19.099  23.056   8.410
 2651POPC   C3A34937  19.009  22.890   8.017
 2651POPC   C4A34938  18.799  22.906   7.638
 2651POPC   C1B34939  19.603  23.267   8.799
 2651POPC   C2B34940  19.556  23.394   8.375
 2651POPC   C3B34941  19.501  23.083   8.058
 2651POPC   C4B34942  19.329  23.029   7.627
 2652POPC   NC334943  31.484  43.227   9.542
 2652POPC   PO434944  31.098  42.644   9.573
 2652POPC   GL134945  31.307  42.761   9.193
 2652POPC   GL234946  31.648  42.799   9.145
 2652POPC   C1A34947  31.332  42.850   8.750
 2652POPC   D2A34948  31.517  42.730   8.340
 2652POPC   C3A34949  31.405  43.016   7.983
 2652POPC   C4A34950  31.616  43.042   7.564
 2652POPC   C1B34951  31.841  43.059   8.814
 2652POPC   C2B34952  31.998  43.096   8.388
 2652POPC   C3B34953  31.887  43.207   7.970
 2652POPC   C4B34954  31.596  43.504   7.797
 2653POPC   NC334955  32.944  42.300   9.491
 2653POPC   PO434956  33.042  42.977   9.501
 2653POPC   GL134957  33.035  42.637   9.148
 2653POPC   GL234958  32.669  42.613   9.144
 2653POPC   C1A34959  32.941  42.196   8.845
 2653POPC   D2A34960  33.094  42.033   8.429
 2653POPC   C3A34961  33.056  42.236   8.001
 2653POPC   C4A34962  32.992  42.463   7.600
 2653POPC   C1B34963  32.805  42.649   8.716
 2653POPC   C2B34964  32.769  42.424   8.364
 2653POPC   C3B34965  32.709  42.604   7.992
 2653POPC   C4B34966  32.634  42.820   7.603
 2654POPC   NC334967  26.562  43.701   9.308
 2654POPC   PO434968  27.039  44.188   9.556
 2654POPC   GL134969  26.983  43.930   9.143
 2654POPC   GL234970  27.062  43.567   9.196
 2654POPC   C1A34971  26.733  43.901   8.724
 2654POPC   D2A34972  26.841  43.985   8.308
 2654POPC   C3A34973  26.526  43.906   8.027
 2654POPC   C4A34974  26.423  43.691   7.684
 2654POPC   C1B34975  26.971  43.464   8.780
 2654POPC   C2B34976  27.176  43.578   8.388
 2654POPC   C3B34977  27.054  43.636   7.968
 2654POPC   C4B34978  26.995  43.960   7.693
 2655POPC   NC334979  17.981  38.141   9.485
 2655POPC   PO434980  18.376  37.645   9.448
 2655POPC   GL134981  18.278  37.648   9.044
 2655POPC   GL234982  18.052  37.366   8.919
 2655POPC   C1A34983  18.353  37.952   8.748
 2655POPC   D2A34984  18.228  38.016   8.350
 2655POPC   C3A34985  18.503  37.998   8.019
 2655POPC   C4A34986  18.350  37.879   7.646
 2655POPC   C1B34987  18.328  37.464   8.568
 2655POPC   C2B34988  18.348  37.537   8.143
 2655POPC   C3B34989  18.101  37.467   7.834
 2655POPC   C4B34990  18.071  37.466   7.388
 2656POPC   NC334991  29.572  41.864   9.401
 2656POPC   PO434992  30.298  41.826   9.452
 2656POPC   GL134993  29.997  41.550   9.253
 2656POPC   GL234994  29.922  41.824   9.056
 2656POPC   C1A34995  29.950  41.325   8.869
 2656POPC   D2A34996  29.972  41.499   8.464
 2656POPC   C3A34997  30.100  41.308   8.098
 2656POPC   C4A34998  29.891  41.217   7.751
 2656POPC   C1B34999  29.613  41.744   8.755
 2656POPC   C2B35000  29.472  41.772   8.348
 2656POPC   C3B35001  29.687  41.607   8.025
 2656POPC   C4B35002  29.838  41.729   7.669
 2657POPC   NC335003  26.646  12.022   9.494
 2657POPC   PO435004  27.255  12.114   9.452
 2657POPC   GL135005  26.978  11.956   9.102
 2657POPC   GL235006  26.681  12.177   9.013
 2657POPC   C1A35007  27.111  12.094   8.687
 2657POPC   D2A35008  26.949  12.111   8.253
 2657POPC   C3A35009  27.158  12.210   7.866
 2657POPC   C4A35010  27.065  12.163   7.435
 2657POPC   C1B35011  26.601  11.957   8.630
 2657POPC   C2B35012  26.445  12.045   8.213
 2657POPC   C3B35013  26.614  12.261   7.826
 2657POPC   C4B35014  26.411  12.365   7.418
 2658POPC   NC335015  16.781  12.191   9.485
 2658POPC   PO435016  16.299  11.659   9.425
 2658POPC   GL135017  16.530  11.981   9.107
 2658POPC   GL235018  16.919  12.008   9.035
 2658POPC   C1A35019  16.617  12.145   8.678
 2658POPC   D2A35020  16.577  12.294   8.272
 2658POPC   C3A35021  16.608  11.937   7.972
 2658POPC   C4A35022  16.702  11.964   7.528
 2658POPC   C1B35023  17.197  12.200   8.699
 2658POPC   C2B35024  17.093  12.256   8.241
 2658POPC   C3B35025  16.854  12.361   7.840
 2658POPC   C4B35026  17.008  12.346   7.416
 2659POPC   NC335027  34.181  15.288   9.388
 2659POPC   PO435028  33.500  15.374   9.550
 2659POPC   GL135029  33.533  15.375   9.147
 2659POPC   GL235030  33.840  15.545   9.093
 2659POPC   C1A35031  33.716  15.112   8.821
 2659POPC   D2A35032  33.907  15.082   8.406
 2659POPC   C3A35033  33.656  14.893   8.115
 2659POPC   C4A35034  33.702  14.916   7.691
 2659POPC   C1B35035  34.048  15.482   8.693
 2659POPC   C2B35036  33.849  15.594   8.330
 2659POPC   C3B35037  33.798  15.371   7.952
 2659POPC   C4B35038  34.050  15.265   7.616
 2660POPC   NC335039  19.957  34.200   9.517
 2660POPC   PO435040  19.460  33.702   9.539
 2660POPC   GL135041  19.652  33.833   9.181
 2660POPC   GL235042  20.035  33.836   9.161
 2660POPC   C1A35043  19.742  33.681   8.780
 2660POPC   D2A35044  19.860  33.913   8.448
 2660POPC   C3A35045  19.805  33.737   8.060
 2660POPC   C4A35046  20.141  33.796   7.799
 2660POPC   C1B35047  20.271  33.993   8.785
 2660POPC   C2B35048  20.244  34.240   8.392
 2660POPC   C3B35049  20.345  34.242   7.952
 2660POPC   C4B35050  20.094  34.325   7.598
 2661POPC   NC335051  38.672  18.884   9.529
 2661POPC   PO435052  38.212  19.414   9.504
 2661POPC   GL135053  38.445  19.234   9.158
 2661POPC   GL235054  38.345  18.921   9.132
 2661POPC   C1A35055  38.665  19.331   8.729
 2661POPC   D2A35056  38.933  19.143   8.358
 2661POPC   C3A35057  38.760  18.875   8.037
 2661POPC   C4A35058  38.414  19.101   7.872
 2661POPC   C1B35059  38.517  18.852   8.769
 2661POPC   C2B35060  38.375  18.980   8.396
 2661POPC   C3B35061  38.254  18.674   8.135
 2661POPC   C4B35062  38.396  18.619   7.742
 2662POPC   NC335063   7.208  18.883   9.451
 2662POPC   PO435064   7.523  19.415   9.465
 2662POPC   GL135065   7.446  19.468   9.063
 2662POPC   GL235066   7.302  19.159   9.038
 2662POPC   C1A35067   7.599  19.360   8.671
 2662POPC   D2A35068   7.439  19.004   8.456
 2662POPC   C3A35069   7.592  18.880   8.091
 2662POPC   C4A35070   7.423  19.109   7.788
 2662POPC   C1B35071   7.075  18.871   8.799
 2662POPC   C2B35072   7.019  18.702   8.409
 2662POPC   C3B35073   7.091  18.816   8.031
 2662POPC   C4B35074   6.851  18.803   7.686
 2663POPC   NC335075  34.709  20.778   9.394
 2663POPC   PO435076  34.151  20.740   9.633
 2663POPC   GL135077  34.315  20.514   9.204
 2663POPC   GL235078  34.697  20.388   9.088
 2663POPC   C1A35079  34.315  20.386   8.763
 2663POPC   D2A35080  34.295  20.248   8.338
 2663POPC   C3A35081  34.345  20.622   8.082
 2663POPC   C4A35082  34.171  20.638   7.668
 2663POPC   C1B35083  34.792  20.646   8.685
 2663POPC   C2B35084  34.968  20.789   8.266
 2663POPC   C3B35085  35.035  20.702   7.838
 2663POPC   C4B35086  34.657  20.844   7.667
 2664POPC   NC335087   7.877   1.579   9.485
 2664POPC   PO435088   8.386   1.193   9.555
 2664POPC   GL135089   8.219   1.355   9.167
 2664POPC   GL235090   8.017   1.088   9.188
 2664POPC   C1A35091   8.034   1.524   8.755
 2664POPC   D2A35092   8.028   1.682   8.302
 2664POPC   C3A35093   7.981   1.403   7.940
 2664POPC   C4A35094   8.114   1.410   7.505
 2664POPC   C1B35095   7.879   1.023   8.804
 2664POPC   C2B35096   8.083   1.107   8.433
 2664POPC   C3B35097   8.028   0.900   8.077
 2664POPC   C4B35098   8.171   0.956   7.695
 2665POPC   NC335099  35.823  40.253   9.482
 2665POPC   PO435100  36.263  39.690   9.477
 2665POPC   GL135101  36.287  39.930   9.081
 2665POPC   GL235102  36.025  40.178   9.019
 2665POPC   C1A35103  36.422  39.967   8.645
 2665POPC   D2A35104  36.713  39.837   8.325
 2665POPC   C3A35105  36.521  39.708   7.973
 2665POPC   C4A35106  36.157  39.807   7.711
 2665POPC   C1B35107  35.902  39.966   8.639
 2665POPC   C2B35108  36.005  39.956   8.185
 2665POPC   C3B35109  35.942  40.260   7.832
 2665POPC   C4B35110  35.659  40.395   7.459
 2666POPC   NC335111  34.587   9.623   9.580
 2666POPC   PO435112  34.577  10.271   9.452
 2666POPC   GL135113  34.540   9.945   9.198
 2666POPC   GL235114  34.292  10.090   9.010
 2666POPC   C1A35115  34.610   9.596   8.889
 2666POPC   D2A35116  34.655   9.561   8.422
 2666POPC   C3A35117  34.509   9.790   8.044
 2666POPC   C4A35118  34.325   9.556   7.704
 2666POPC   C1B35119  34.670  10.068   8.740
 2666POPC   C2B35120  34.771  10.132   8.346
 2666POPC   C3B35121  34.865  10.162   7.907
 2666POPC   C4B35122  34.676   9.949   7.571
 2667POPC   NC335123   1.595  25.492   9.523
 2667POPC   PO435124   2.101  25.793   9.552
 2667POPC   GL135125   2.089  26.222   9.256
 2667POPC   GL235126   1.772  26.454   9.279
 2667POPC   C1A35127   2.294  26.253   8.815
 2667POPC   D2A35128   2.285  25.919   8.450
 2667POPC   C3A35129   2.249  26.070   8.012
 2667POPC   C4A35130   1.972  25.937   7.669
 2667POPC   C1B35131   1.737  26.219   8.869
 2667POPC   C2B35132   1.923  26.310   8.439
 2667POPC   C3B35133   1.742  26.223   8.024
 2667POPC   C4B35134   1.705  26.356   7.601
 2668POPC   NC335135  25.746  40.950   9.249
 2668POPC   PO435136  26.345  40.964   9.546
 2668POPC   GL135137  26.233  40.894   9.077
 2668POPC   GL235138  26.078  40.572   9.044
 2668POPC   C1A35139  26.283  40.799   8.605
 2668POPC   D2A35140  26.092  40.455   8.306
 2668POPC   C3A35141  25.982  40.640   7.904
 2668POPC   C4A35142  26.182  41.008   7.817
 2668POPC   C1B35143  25.802  40.662   8.690
 2668POPC   C2B35144  25.857  40.926   8.337
 2668POPC   C3B35145  25.662  41.062   7.997
 2668POPC   C4B35146  25.631  40.874   7.591
 2669POPC   NC335147  14.663  19.285   9.856
 2669POPC   PO435148  14.258  19.076   9.428
 2669POPC   GL135149  14.373  19.265   9.055
 2669POPC   GL235150  14.674  19.402   9.174
 2669POPC   C1A35151  14.479  19.104   8.659
 2669POPC   D2A35152  14.293  18.941   8.301
 2669POPC   C3A35153  14.469  19.011   7.887
 2669POPC   C4A35154  14.145  18.905   7.614
 2669POPC   C1B35155  14.657  19.573   8.739
 2669POPC   C2B35156  14.586  19.437   8.287
 2669POPC   C3B35157  14.727  19.479   7.857
 2669POPC   C4B35158  14.757  19.224   7.457
 2670POPC   NC335159   4.161  31.005   9.247
 2670POPC   PO435160   4.665  30.796   9.719
 2670POPC   GL135161   4.511  30.636   9.246
 2670POPC   GL235162   4.357  30.302   9.136
 2670POPC   C1A35163   4.512  30.746   8.763
 2670POPC   D2A35164   4.631  30.506   8.381
 2670POPC   C3A35165   4.511  30.616   7.966
 2670POPC   C4A35166   4.500  30.434   7.557
 2670POPC   C1B35167   4.117  30.419   8.722
 2670POPC   C2B35168   4.079  30.611   8.285
 2670POPC   C3B35169   4.038  30.486   7.844
 2670POPC   C4B35170   4.010  30.539   7.407
 2671POPC   NC335171  19.124   3.294   9.420
 2671POPC   PO435172  18.870   3.938   9.389
 2671POPC   GL135173  18.764   3.784   9.000
 2671POPC   GL235174  18.825   4.064   8.849
 2671POPC   C1A35175  18.892   3.540   8.625
 2671POPC   D2A35176  18.674   3.230   8.361
 2671POPC   C3A35177  18.914   3.234   7.960
 2671POPC   C4A35178  18.978   3.671   7.793
 2671POPC   C1B35179  19.268   3.896   8.827
 2671POPC   C2B35180  19.462   3.758   8.434
 2671POPC   C3B35181  19.428   3.755   8.004
 2671POPC   C4B35182  19.655   3.518   7.690
 2672POPC   NC335183  26.363  37.503   9.533
 2672POPC   PO435184  27.031  37.547   9.417
 2672POPC   GL135185  26.707  37.641   9.120
 2672POPC   GL235186  26.573  37.300   9.126
 2672POPC   C1A35187  26.844  37.783   8.690
 2672POPC   D2A35188  26.996  37.852   8.242
 2672POPC   C3A35189  26.724  37.847   7.878
 2672POPC   C4A35190  26.678  38.192   7.587
 2672POPC   C1B35191  26.884  37.258   8.832
 2672POPC   C2B35192  27.022  37.361   8.455
 2672POPC   C3B35193  26.853  37.239   8.067
 2672POPC   C4B35194  26.826  37.363   7.666
 2673POPC   NC335195  35.559  14.800   9.553
 2673POPC   PO435196  35.333  15.511   9.488
 2673POPC   GL135197  35.324  15.300   9.125
 2673POPC   GL235198  35.591  15.028   9.101
 2673POPC   C1A35199  35.075  15.251   8.762
 2673POPC   D2A35200  35.109  15.389   8.350
 2673POPC   C3A35201  34.971  15.260   7.963
 2673POPC   C4A35202  35.112  15.298   7.555
 2673POPC   C1B35203  35.577  15.182   8.692
 2673POPC   C2B35204  35.519  15.112   8.281
 2673POPC   C3B35205  35.491  15.339   7.923
 2673POPC   C4B35206  35.823  15.168   7.729
 2674POPC   NC335207  17.610  29.959   9.583
 2674POPC   PO435208  16.994  30.231   9.400
 2674POPC   GL135209  17.271  29.917   9.170
 2674POPC   GL235210  17.609  29.720   9.138
 2674POPC   C1A35211  17.285  29.954   8.743
 2674POPC   D2A35212  17.118  29.818   8.384
 2674POPC   C3A35213  17.250  30.066   8.052
 2674POPC   C4A35214  17.276  30.068   7.602
 2674POPC   C1B35215  17.746  29.757   8.724
 2674POPC   C2B35216  17.656  29.908   8.319
 2674POPC   C3B35217  17.653  29.794   7.887
 2674POPC   C4B35218  17.686  29.768   7.454
 2675POPC   NC335219  28.073   1.184   9.767
 2675POPC   PO435220  27.595   1.552   9.464
 2675POPC   GL135221  27.572   1.242   9.161
 2675POPC   GL235222  27.890   1.389   9.071
 2675POPC   C1A35223  27.317   0.978   8.839
 2675POPC   D2A35224  27.209   0.824   8.399
 2675POPC   C3A35225  27.361   0.984   7.985
 2675POPC   C4A35226  27.595   0.920   7.617
 2675POPC   C1B35227  27.758   1.181   8.693
 2675POPC   C2B35228  27.754   1.013   8.302
 2675POPC   C3B35229  27.842   1.235   7.920
 2675POPC   C4B35230  27.850   1.334   7.430
 2676POPC   NC335231  41.538  40.308   9.486
 2676POPC   PO435232  41.310  39.672   9.490
 2676POPC   GL135233  41.405  39.972   9.138
 2676POPC   GL235234  41.772  40.111   9.049
 2676POPC   C1A35235  41.429  40.070   8.708
 2676POPC   D2A35236  41.747  40.097   8.425
 2676POPC   C3A35237  41.463  39.938   8.167
 2676POPC   C4A35238  41.345  39.986   7.772
 2676POPC   C1B35239  41.824  39.736   8.747
 2676POPC   C2B35240  41.799  39.583   8.305
 2676POPC   C3B35241  41.776  39.695   7.820
 2676POPC   C4B35242  41.887  39.777   7.352
 2677POPC   NC335243  37.198  36.775   9.546
 2677POPC   PO435244  36.887  37.442   9.524
 2677POPC   GL135245  37.017  37.104   9.233
 2677POPC   GL235246  37.181  37.286   9.072
 2677POPC   C1A35247  37.244  36.802   8.875
 2677POPC   D2A35248  37.132  36.445   8.516
 2677POPC   C3A35249  37.032  36.565   8.039
 2677POPC   C4A35250  37.170  36.912   7.713
 2677POPC   C1B35251  36.702  37.273   8.896
 2677POPC   C2B35252  36.591  37.237   8.477
 2677POPC   C3B35253  36.838  37.221   8.116
 2677POPC   C4B35254  36.769  37.235   7.693
 2678POPC   NC335255   5.262  17.207   9.535
 2678POPC   PO435256   4.686  17.514   9.623
 2678POPC   GL135257   4.871  17.334   9.248
 2678POPC   GL235258   5.071  17.588   9.222
 2678POPC   C1A35259   5.071  17.196   8.849
 2678POPC   D2A35260   4.971  17.344   8.428
 2678POPC   C3A35261   5.229  17.331   8.111
 2678POPC   C4A35262   5.174  17.329   7.699
 2678POPC   C1B35263   5.042  17.712   8.820
 2678POPC   C2B35264   5.316  17.708   8.479
 2678POPC   C3B35265   5.227  17.826   8.066
 2678POPC   C4B35266   5.388  17.813   7.671
 2679POPC   NC335267  38.349  38.955   9.389
 2679POPC   PO435268  38.653  39.504   9.670
 2679POPC   GL135269  38.534  39.421   9.239
 2679POPC   GL235270  38.724  39.156   9.106
 2679POPC   C1A35271  38.219  39.365   8.876
 2679POPC   D2A35272  38.321  39.438   8.439
 2679POPC   C3A35273  38.116  39.328   8.114
 2679POPC   C4A35274  38.188  39.376   7.735
 2679POPC   C1B35275  38.694  39.253   8.709
 2679POPC   C2B35276  38.778  39.203   8.310
 2679POPC   C3B35277  38.715  39.170   7.904
 2679POPC   C4B35278  38.868  38.785   7.816
 2680POPC   NC335279   5.744  10.072   9.427
 2680POPC   PO435280   6.113   9.480   9.564
 2680POPC   GL135281   5.937   9.645   9.220
 2680POPC   GL235282   6.191   9.861   9.126
 2680POPC   C1A35283   5.641   9.682   8.863
 2680POPC   D2A35284   5.621   9.961   8.490
 2680POPC   C3A35285   5.643   9.780   8.094
 2680POPC   C4A35286   5.626   9.656   7.679
 2680POPC   C1B35287   6.029  10.022   8.807
 2680POPC   C2B35288   6.130  10.115   8.451
 2680POPC   C3B35289   6.173   9.821   8.224
 2680POPC   C4B35290   6.073   9.916   7.839
 2681POPC   NC335291   3.257   4.097   9.641
 2681POPC   PO435292   2.636   4.375   9.644
 2681POPC   GL135293   2.633   4.427   9.240
 2681POPC   GL235294   2.955   4.486   9.191
 2681POPC   C1A35295   2.608   4.182   8.844
 2681POPC   D2A35296   2.665   4.387   8.470
 2681POPC   C3A35297   2.671   4.284   8.085
 2681POPC   C4A35298   2.808   4.527   7.742
 2681POPC   C1B35299   3.072   4.365   8.793
 2681POPC   C2B35300   3.165   4.230   8.424
 2681POPC   C3B35301   3.165   4.413   8.071
 2681POPC   C4B35302   3.260   4.235   7.704
 2682POPC   NC335303   0.106   7.800   9.562
 2682POPC   PO435304   0.547   7.298   9.562
 2682POPC   GL135305   0.404   7.377   9.167
 2682POPC   GL235306   0.675   7.582   9.023
 2682POPC   C1A35307   0.373   7.259   8.739
 2682POPC   D2A35308   0.174   7.436   8.370
 2682POPC   C3A35309   0.064   7.177   8.048
 2682POPC   C4A35310   0.298   7.107   7.657
 2682POPC   C1B35311   0.632   7.650   8.543
 2682POPC   C2B35312   0.903   7.647   8.157
 2682POPC   C3B35313   0.797   7.611   7.713
 2682POPC   C4B35314   0.614   7.839   7.356
 2683POPC   NC335315  33.123   6.808   9.512
 2683POPC   PO435316  32.493   6.821   9.396
 2683POPC   GL135317  32.811   6.673   9.092
 2683POPC   GL235318  32.994   6.377   9.125
 2683POPC   C1A35319  33.094   6.627   8.695
 2683POPC   D2A35320  33.222   6.950   8.371
 2683POPC   C3A35321  33.138   6.854   7.934
 2683POPC   C4A35322  32.781   6.866   7.674
 2683POPC   C1B35323  32.695   6.249   8.813
 2683POPC   C2B35324  32.557   6.419   8.451
 2683POPC   C3B35325  32.685   6.561   8.069
 2683POPC   C4B35326  32.690   6.353   7.665
 2684POPC   NC335327   6.956  26.111   9.562
 2684POPC   PO435328   6.289  26.238   9.708
 2684POPC   GL135329   6.597  26.231   9.217
 2684POPC   GL235330   6.884  25.980   9.085
 2684POPC   C1A35331   6.718  26.284   8.731
 2684POPC   D2A35332   6.442  26.106   8.411
 2684POPC   C3A35333   6.555  26.027   7.998
 2684POPC   C4A35334   6.770  26.372   7.760
 2684POPC   C1B35335   6.593  25.783   8.782
 2684POPC   C2B35336   6.671  25.636   8.342
 2684POPC   C3B35337   6.872  25.639   7.897
 2684POPC   C4B35338   6.786  25.895   7.540
 2685POPC   NC335339  28.352  24.934   9.628
 2685POPC   PO435340  28.595  25.549   9.754
 2685POPC   GL135341  28.408  25.308   9.275
 2685POPC   GL235342  28.143  25.030   9.188
 2685POPC   C1A35343  28.485  25.302   8.803
 2685POPC   D2A35344  28.621  25.182   8.376
 2685POPC   C3A35345  28.740  25.418   7.977
 2685POPC   C4A35346  28.668  25.102   7.661
 2685POPC   C1B35347  28.010  25.102   8.781
 2685POPC   C2B35348  28.083  25.331   8.403
 2685POPC   C3B35349  28.254  25.261   7.994
 2685POPC   C4B35350  28.181  24.933   7.718
 2686POPC   NC335351  14.428  26.304   9.206
 2686POPC   PO435352  13.822  26.271   9.420
 2686POPC   GL135353  14.039  26.030   9.036
 2686POPC   GL235354  14.348  25.838   9.018
 2686POPC   C1A35355  14.257  26.065   8.591
 2686POPC   D2A35356  14.470  25.929   8.194
 2686POPC   C3A35357  14.158  25.851   7.853
 2686POPC   C4A35358  14.175  26.243   7.635
 2686POPC   C1B35359  14.614  25.687   8.683
 2686POPC   C2B35360  14.944  25.738   8.356
 2686POPC   C3B35361  14.872  25.666   7.906
 2686POPC   C4B35362  14.607  25.959   7.679
 2687POPC   NC335363  44.103   9.211   9.389
 2687POPC   PO435364  43.781   8.781   9.739
 2687POPC   GL135365  43.758   8.839   9.278
 2687POPC   GL235366  43.980   8.649   9.105
 2687POPC   C1A35367  43.812   9.036   8.822
 2687POPC   D2A35368  43.850   8.882   8.406
 2687POPC   C3A35369  43.605   9.062   8.054
 2687POPC   C4A35370  43.841   9.210   7.655
 2687POPC   C1B35371  44.239   8.756   8.737
 2687POPC   C2B35372  44.360   8.725   8.300
 2687POPC   C3B35373  44.101   8.873   7.968
 2687POPC   C4B35374  43.786   8.694   7.761
 2688POPC   NC335375  39.719  43.074   9.471
 2688POPC   PO435376  40.360  43.273   9.534
 2688POPC   GL135377  40.101  43.269   9.175
 2688POPC   GL235378  40.012  42.926   9.058
 2688POPC   C1A35379  39.933  43.314   8.751
 2688POPC   D2A35380  39.793  43.496   8.398
 2688POPC   C3A35381  39.931  43.275   8.044
 2688POPC   C4A35382  39.775  43.416   7.631
 2688POPC   C1B35383  39.772  42.821   8.681
 2688POPC   C2B35384  39.772  42.703   8.249
 2688POPC   C3B35385  40.069  42.710   7.929
 2688POPC   C4B35386  40.080  42.996   7.612
 2689POPC   NC335387  28.118  34.989   9.849
 2689POPC   PO435388  28.364  35.559   9.585
 2689POPC   GL135389  28.342  35.440   9.175
 2689POPC   GL235390  28.080  35.671   9.076
 2689POPC   C1A35391  28.507  35.379   8.741
 2689POPC   D2A35392  28.674  35.532   8.330
 2689POPC   C3A35393  28.519  35.609   7.928
 2689POPC   C4A35394  28.575  35.228   7.747
 2689POPC   C1B35395  28.005  35.254   8.842
 2689POPC   C2B35396  28.113  35.270   8.434
 2689POPC   C3B35397  28.093  35.246   8.014
 2689POPC   C4B35398  28.047  35.539   7.718
 2690POPC   NC335399  25.148  23.306   9.544
 2690POPC   PO435400  24.945  23.987   9.561
 2690POPC   GL135401  25.068  23.855   9.160
 2690POPC   GL235402  24.969  23.516   9.138
 2690POPC   C1A35403  25.350  23.684   8.824
 2690POPC   D2A35404  25.467  23.464   8.433
 2690POPC   C3A35405  25.320  23.685   8.067
 2690POPC   C4A35406  25.427  24.034   7.810
 2690POPC   C1B35407  24.801  23.646   8.785
 2690POPC   C2B35408  24.972  23.639   8.431
 2690POPC   C3B35409  24.815  23.583   8.016
 2690POPC   C4B35410  25.008  23.768   7.682
 2691POPC   NC335411  33.743  30.377   9.534
 2691POPC   PO435412  33.483  29.739   9.640
 2691POPC   GL135413  33.691  29.859   9.230
 2691POPC   GL235414  33.547  30.162   9.102
 2691POPC   C1A35415  33.948  29.874   8.792
 2691POPC   D2A35416  33.983  30.105   8.388
 2691POPC   C3A35417  33.813  29.957   7.961
 2691POPC   C4A35418  33.534  30.173   7.639
 2691POPC   C1B35419  33.453  29.795   8.804
 2691POPC   C2B35420  33.625  29.727   8.407
 2691POPC   C3B35421  33.550  29.517   8.057
 2691POPC   C4B35422  33.439  29.677   7.646
 2692POPC   NC335423   5.067  21.472   9.515
 2692POPC   PO435424   5.025  20.891   9.328
 2692POPC   GL135425   5.216  21.231   9.063
 2692POPC   GL235426   5.490  21.080   8.815
 2692POPC   C1A35427   5.030  21.662   8.812
 2692POPC   D2A35428   4.743  21.759   8.392
 2692POPC   C3A35429   4.920  21.765   7.941
 2692POPC   C4A35430   5.299  21.554   7.782
 2692POPC   C1B35431   5.194  21.262   8.567
 2692POPC   C2B35432   5.202  21.524   8.288
 2692POPC   C3B35433   4.978  21.259   8.056
 2692POPC   C4B35434   4.998  20.949   7.805
 2693POPC   NC335435  19.335  10.109   9.506
 2693POPC   PO435436  18.795   9.610   9.501
 2693POPC   GL135437  19.071   9.793   9.189
 2693POPC   GL235438  18.851  10.070   9.101
 2693POPC   C1A35439  19.161   9.866   8.713
 2693POPC   D2A35440  19.253   9.655   8.292
 2693POPC   C3A35441  19.074   9.798   7.888
 2693POPC   C4A35442  19.090   9.808   7.427
 2693POPC   C1B35443  18.694   9.702   8.871
 2693POPC   C2B35444  18.798   9.514   8.497
 2693POPC   C3B35445  18.847   9.391   8.078
 2693POPC   C4B35446  18.656   9.391   7.702
 2694POPC   NC335447  39.631  30.032   9.359
 2694POPC   PO435448  38.978  30.166   9.573
 2694POPC   GL135449  39.194  30.197   9.187
 2694POPC   GL235450  39.434  30.432   9.103
 2694POPC   C1A35451  39.109  30.034   8.787
 2694POPC   D2A35452  39.087  29.680   8.522
 2694POPC   C3A35453  39.115  29.822   8.127
 2694POPC   C4A35454  39.117  29.903   7.723
 2694POPC   C1B35455  39.582  30.244   8.717
 2694POPC   C2B35456  39.426  30.278   8.291
 2694POPC   C3B35457  39.640  30.350   7.906
 2694POPC   C4B35458  39.519  30.140   7.542
 2695POPC   NC335459  33.867  38.099   9.368
 2695POPC   PO435460  33.818  38.773   9.536
 2695POPC   GL135461  33.815  38.596   9.151
 2695POPC   GL235462  33.525  38.374   9.083
 2695POPC   C1A35463  33.959  38.405   8.781
 2695POPC   D2A35464  33.760  38.337   8.414
 2695POPC   C3A35465  34.048  38.404   8.092
 2695POPC   C4A35466  33.809  38.457   7.770
 2695POPC   C1B35467  33.503  38.701   8.760
 2695POPC   C2B35468  33.310  38.839   8.386
 2695POPC   C3B35469  33.520  38.875   7.995
 2695POPC   C4B35470  33.416  38.747   7.568
 2696POPC   NC335471  20.191  21.278   9.728
 2696POPC   PO435472  19.773  21.726   9.656
 2696POPC   GL135473  19.837  21.521   9.248
 2696POPC   GL235474  19.930  21.177   9.272
 2696POPC   C1A35475  19.676  21.382   8.820
 2696POPC   D2A35476  19.809  21.343   8.367
 2696POPC   C3A35477  19.591  21.270   7.957
 2696POPC   C4A35478  19.666  21.470   7.551
 2696POPC   C1B35479  20.181  21.354   8.914
 2696POPC   C2B35480  20.232  21.133   8.538
 2696POPC   C3B35481  20.312  21.130   8.127
 2696POPC   C4B35482  20.111  21.281   7.759
 2697POPC   NC335483  31.846  39.320   9.611
 2697POPC   PO435484  31.201  39.068   9.417
 2697POPC   GL135485  31.376  39.221   9.089
 2697POPC   GL235486  31.713  39.291   9.115
 2697POPC   C1A35487  31.263  39.349   8.688
 2697POPC   D2A35488  31.391  39.172   8.316
 2697POPC   C3A35489  31.679  39.318   7.998
 2697POPC   C4A35490  31.419  39.307   7.667
 2697POPC   C1B35491  31.676  39.028   8.750
 2697POPC   C2B35492  31.581  38.728   8.477
 2697POPC   C3B35493  31.740  38.834   8.120
 2697POPC   C4B35494  31.659  38.850   7.713
 2698POPC   NC335495   8.280  39.739  10.172
 2698POPC   PO435496   8.326  40.014   9.498
 2698POPC   GL135497   8.195  39.900   9.117
 2698POPC   GL235498   8.070  40.227   9.110
 2698POPC   C1A35499   8.230  39.698   8.684
 2698POPC   D2A35500   8.197  39.975   8.309
 2698POPC   C3A35501   8.188  39.946   7.861
 2698POPC   C4A35502   8.222  39.960   7.375
 2698POPC   C1B35503   7.916  40.102   8.729
 2698POPC   C2B35504   7.716  40.208   8.372
 2698POPC   C3B35505   7.883  40.338   7.985
 2698POPC   C4B35506   7.827  40.183   7.587
 2699POPC   NC335507  29.540   8.635   9.420
 2699POPC   PO435508  30.083   9.112   9.434
 2699POPC   GL135509  29.887   9.056   9.046
 2699POPC   GL235510  30.170   8.800   9.005
 2699POPC   C1A35511  29.580   9.120   8.672
 2699POPC   D2A35512  29.580   9.024   8.189
 2699POPC   C3A35513  29.871   9.164   7.813
 2699POPC   C4A35514  29.905   8.937   7.390
 2699POPC   C1B35515  30.045   8.867   8.570
 2699POPC   C2B35516  30.074   8.808   8.144
 2699POPC   C3B35517  29.814   8.657   7.819
 2699POPC   C4B35518  29.640   8.496   7.416
 2700POPC   NC335519  10.717  36.560   9.482
 2700POPC   PO435520  10.116  36.873   9.705
 2700POPC   GL135521  10.386  36.847   9.232
 2700POPC   GL235522  10.520  37.158   9.079
 2700POPC   C1A35523  10.477  36.717   8.754
 2700POPC   D2A35524  10.592  36.490   8.323
 2700POPC   C3A35525  10.402  36.717   7.937
 2700POPC   C4A35526  10.521  37.179   7.832
 2700POPC   C1B35527  10.807  37.113   8.752
 2700POPC   C2B35528  10.662  37.008   8.329
 2700POPC   C3B35529  10.896  36.833   7.997
 2700POPC   C4B35530  10.922  36.899   7.591
 2701POPC   NC335531  37.713  23.871   9.711
 2701POPC   PO435532  37.501  23.240   9.619
 2701POPC   GL135533  37.661  23.487   9.254
 2701POPC   GL235534  37.760  23.844   9.197
 2701POPC   C1A35535  37.653  23.537   8.802
 2701POPC   D2A35536  37.751  23.378   8.418
 2701POPC   C3A35537  37.706  23.615   8.085
 2701POPC   C4A35538  37.717  23.386   7.716
 2701POPC   C1B35539  37.745  24.045   8.766
 2701POPC   C2B35540  37.872  24.215   8.355
 2701POPC   C3B35541  37.670  24.154   7.957
 2701POPC   C4B35542  37.567  23.853   7.661
 2702POPC   NC335543  22.363  17.789   9.910
 2702POPC   PO435544  22.381  17.248   9.497
 2702POPC   GL135545  22.227  17.372   9.139
 2702POPC   GL235546  22.121  17.702   9.251
 2702POPC   C1A35547  22.358  17.392   8.733
 2702POPC   D2A35548  22.116  17.414   8.385
 2702POPC   C3A35549  22.275  17.763   8.126
 2702POPC   C4A35550  22.323  17.484   7.804
 2702POPC   C1B35551  21.964  17.709   8.809
 2702POPC   C2B35552  21.802  17.807   8.382
 2702POPC   C3B35553  21.832  17.590   7.990
 2702POPC   C4B35554  21.930  17.775   7.637
 2703POPC   NC335555  10.819  27.008   9.460
 2703POPC   PO435556  10.859  26.358   9.320
 2703POPC   GL135557  10.599  26.691   9.098
 2703POPC   GL235558  10.686  27.054   8.974
 2703POPC   C1A35559  10.358  26.744   8.737
 2703POPC   D2A35560  10.581  26.890   8.401
 2703POPC   C3A35561  10.478  26.822   7.963
 2703POPC   C4A35562  10.777  26.888   7.651
 2703POPC   C1B35563  10.265  27.241   8.865
 2703POPC   C2B35564  10.203  27.300   8.419
 2703POPC   C3B35565  10.556  27.317   8.133
 2703POPC   C4B35566  10.450  27.304   7.726
 2704POPC   NC335567  23.366   1.295   9.415
 2704POPC   PO435568  23.926   0.885   9.464
 2704POPC   GL135569  23.779   1.176   9.172
 2704POPC   GL235570  23.851   1.514   9.198
 2704POPC   C1A35571  23.615   1.367   8.761
 2704POPC   D2A35572  23.654   1.291   8.319
 2704POPC   C3A35573  23.359   1.078   8.064
 2704POPC   C4A35574  23.594   1.055   7.661
 2704POPC   C1B35575  24.115   1.333   8.851
 2704POPC   C2B35576  24.153   1.353   8.426
 2704POPC   C3B35577  24.080   1.271   8.001
 2704POPC   C4B35578  24.082   1.453   7.606
 2705POPC   NC335579  14.551  39.615   9.447
 2705POPC   PO435580  14.619  40.314   9.553
 2705POPC   GL135581  14.526  40.105   9.173
 2705POPC   GL235582  14.448  39.798   8.992
 2705POPC   C1A35583  14.550  40.222   8.753
 2705POPC   D2A35584  14.371  39.921   8.471
 2705POPC   C3A35585  14.346  40.025   8.067
 2705POPC   C4A35586  14.194  39.855   7.720
 2705POPC   C1B35587  14.764  39.671   8.702
 2705POPC   C2B35588  14.847  39.420   8.375
 2705POPC   C3B35589  14.763  39.680   8.060
 2705POPC   C4B35590  14.578  39.565   7.700
 2706POPC   NC335591  37.088  43.142   9.781
 2706POPC   PO435592  36.617  42.909   9.348
 2706POPC   GL135593  36.962  43.167   9.125
 2706POPC   GL235594  37.038  43.537   9.139
 2706POPC   C1A35595  37.171  43.049   8.734
 2706POPC   D2A35596  37.024  42.753   8.423
 2706POPC   C3A35597  36.791  42.924   8.051
 2706POPC   C4A35598  36.836  43.068   7.626
 2706POPC   C1B35599  36.981  43.551   8.696
 2706POPC   C2B35600  37.070  43.320   8.302
 2706POPC   C3B35601  37.010  43.471   7.892
 2706POPC   C4B35602  37.162  43.545   7.477
 2707POPC   NC335603  35.918   2.235   9.536
 2707POPC   PO435604  36.594   2.214   9.503
 2707POPC   GL135605  36.327   2.099   9.203
 2707POPC   GL235606  36.114   2.373   9.076
 2707POPC   C1A35607  36.322   1.969   8.796
 2707POPC   D2A35608  36.244   2.265   8.476
 2707POPC   C3A35609  36.155   2.098   8.090
 2707POPC   C4A35610  36.424   2.090   7.738
 2707POPC   C1B35611  35.823   2.018   8.864
 2707POPC   C2B35612  35.858   1.790   8.435
 2707POPC   C3B35613  35.722   1.838   7.967
 2707POPC   C4B35614  35.774   2.203   7.696
 2708POPC   NC335615  33.842  34.856   9.390
 2708POPC   PO435616  34.232  35.404   9.537
 2708POPC   GL135617  33.881  35.434   9.234
 2708POPC   GL235618  33.969  35.172   9.020
 2708POPC   C1A35619  33.623  35.494   8.845
 2708POPC   D2A35620  33.491  35.294   8.468
 2708POPC   C3A35621  33.798  35.419   8.149
 2708POPC   C4A35622  33.706  35.539   7.750
 2708POPC   C1B35623  34.003  35.216   8.585
 2708POPC   C2B35624  33.859  34.935   8.299
 2708POPC   C3B35625  33.731  34.981   7.871
 2708POPC   C4B35626  33.982  34.788   7.579
 2709POPC   NC335627  13.890  14.167   9.524
 2709POPC   PO435628  13.436  14.663   9.517
 2709POPC   GL135629  13.614  14.427   9.151
 2709POPC   GL235630  13.448  14.150   9.261
 2709POPC   C1A35631  13.554  14.553   8.678
 2709POPC   D2A35632  13.494  14.671   8.219
 2709POPC   C3A35633  13.809  14.436   7.969
 2709POPC   C4A35634  13.845  14.102   7.722
 2709POPC   C1B35635  13.256  14.180   8.854
 2709POPC   C2B35636  13.206  14.196   8.402
 2709POPC   C3B35637  13.371  14.185   7.986
 2709POPC   C4B35638  13.358  14.264   7.538
 2710POPC   NC335639  28.003   6.864   9.274
 2710POPC   PO435640  28.619   6.594   9.275
 2710POPC   GL135641  28.459   6.858   9.003
 2710POPC   GL235642  28.226   6.561   8.917
 2710POPC   C1A35643  28.551   6.838   8.574
 2710POPC   D2A35644  28.420   6.435   8.442
 2710POPC   C3A35645  28.553   6.393   8.042
 2710POPC   C4A35646  28.543   6.839   7.980
 2710POPC   C1B35647  28.052   6.882   8.633
 2710POPC   C2B35648  27.924   6.986   8.235
 2710POPC   C3B35649  28.049   6.871   7.839
 2710POPC   C4B35650  28.315   6.566   7.619
 2711POPC   NC335651  35.160  43.609   9.423
 2711POPC   PO435652  35.735  43.861   9.639
 2711POPC   GL135653  35.522  43.875   9.181
 2711POPC   GL235654  35.346  44.111   9.039
 2711POPC   C1A35655  35.580  43.816   8.715
 2711POPC   D2A35656  35.554  43.557   8.360
 2711POPC   C3A35657  35.526  43.759   7.970
 2711POPC   C4A35658  35.510  43.599   7.566
 2711POPC   C1B35659  35.069  43.861   8.794
 2711POPC   C2B35660  35.137  43.856   8.391
 2711POPC   C3B35661  35.021  43.819   7.987
 2711POPC   C4B35662  34.931  44.147   7.711
 2712POPC   NC335663  22.065  21.080  10.032
 2712POPC   PO435664  22.132  21.522   9.493
 2712POPC   GL135665  22.141  21.442   9.083
 2712POPC   GL235666  22.203  21.744   8.974
 2712POPC   C1A35667  21.987  21.168   8.763
 2712POPC   D2A35668  22.078  21.049   8.349
 2712POPC   C3A35669  21.889  21.198   7.976
 2712POPC   C4A35670  22.120  21.279   7.618
 2712POPC   C1B35671  22.360  21.482   8.626
 2712POPC   C2B35672  22.278  21.493   8.201
 2712POPC   C3B35673  22.509  21.528   7.834
 2712POPC   C4B35674  22.609  21.505   7.395
 2713POPC   NC335675  23.498  35.919   9.287
 2713POPC   PO435676  23.833  36.427   9.629
 2713POPC   GL135677  23.759  36.364   9.204
 2713POPC   GL235678  23.414  36.453   9.236
 2713POPC   C1A35679  23.886  36.245   8.777
 2713POPC   D2A35680  24.015  36.380   8.348
 2713POPC   C3A35681  23.782  36.125   8.047
 2713POPC   C4A35682  23.916  35.916   7.683
 2713POPC   C1B35683  23.430  36.527   8.821
 2713POPC   C2B35684  23.499  36.372   8.419
 2713POPC   C3B35685  23.498  36.560   8.015
 2713POPC   C4B35686  23.758  36.452   7.666
 2714POPC   NC335687   8.713  24.133   9.297
 2714POPC   PO435688   9.158  24.567   9.551
 2714POPC   GL135689   9.018  24.518   9.196
 2714POPC   GL235690   9.249  24.197   9.156
 2714POPC   C1A35691   8.719  24.598   8.838
 2714POPC   D2A35692   8.545  24.489   8.453
 2714POPC   C3A35693   8.825  24.475   8.067
 2714POPC   C4A35694   8.843  24.293   7.650
 2714POPC   C1B35695   9.286  24.053   8.723
 2714POPC   C2B35696   9.242  24.203   8.297
 2714POPC   C3B35697   9.300  24.135   7.804
 2714POPC   C4B35698   9.421  24.205   7.350
 2715POPC   NC335699  18.673   6.585   9.602
 2715POPC   PO435700  18.097   6.269   9.799
 2715POPC   GL135701  18.317   6.431   9.286
 2715POPC   GL235702  18.459   6.752   9.167
 2715POPC   C1A35703  18.216   6.427   8.798
 2715POPC   D2A35704  17.967   6.303   8.372
 2715POPC   C3A35705  18.203   6.389   7.977
 2715POPC   C4A35706  18.469   6.770   7.933
 2715POPC   C1B35707  18.292   6.937   8.797
 2715POPC   C2B35708  18.241   6.741   8.400
 2715POPC   C3B35709  17.958   6.798   8.090
 2715POPC   C4B35710  18.082   6.890   7.637
 2716POPC   NC335711  34.212  38.975   9.705
 2716POPC   PO435712  33.891  39.571   9.625
 2716POPC   GL135713  33.848  39.203   9.302
 2716POPC   GL235714  34.132  39.004   9.200
 2716POPC   C1A35715  33.766  39.140   8.861
 2716POPC   D2A35716  33.646  39.211   8.428
 2716POPC   C3A35717  33.799  39.359   8.062
 2716POPC   C4A35718  33.710  39.249   7.680
 2716POPC   C1B35719  34.178  38.862   8.805
 2716POPC   C2B35720  33.966  38.813   8.411
 2716POPC   C3B35721  34.032  38.915   7.966
 2716POPC   C4B35722  33.948  38.850   7.497
 2717POPC   NC335723   1.305  16.688   9.462
 2717POPC   PO435724   0.719  16.997   9.506
 2717POPC   GL135725   1.016  17.015   9.146
 2717POPC   GL235726   1.413  16.964   9.053
 2717POPC   C1A35727   1.032  16.830   8.746
 2717POPC   D2A35728   1.267  16.910   8.380
 2717POPC   C3A35729   1.067  16.775   8.002
 2717POPC   C4A35730   1.196  16.897   7.606
 2717POPC   C1B35731   1.507  16.606   8.792
 2717POPC   C2B35732   1.565  16.487   8.377
 2717POPC   C3B35733   1.571  16.663   7.993
 2717POPC   C4B35734   1.394  16.444   7.679
 2718POPC   NC335735  35.761  34.629   9.262
 2718POPC   PO435736  35.196  34.312   9.448
 2718POPC   GL135737  35.356  34.354   9.046
 2718POPC   GL235738  35.670  34.213   8.974
 2718POPC   C1A35739  35.167  34.464   8.660
 2718POPC   D2A35740  35.164  34.774   8.357
 2718POPC   C3A35741  35.189  34.537   7.980
 2718POPC   C4A35742  35.201  34.762   7.615
 2718POPC   C1B35743  35.661  34.545   8.644
 2718POPC   C2B35744  35.659  34.650   8.242
 2718POPC   C3B35745  35.678  34.553   7.833
 2718POPC   C4B35746  35.717  34.148   7.768
 2719POPC   NC335747  43.422   5.471   9.403
 2719POPC   PO435748  43.855   4.959   9.588
 2719POPC   GL135749  43.890   4.974   9.170
 2719POPC   GL235750  43.633   4.794   9.061
 2719POPC   C1A35751  44.049   4.915   8.760
 2719POPC   D2A35752  44.258   4.838   8.370
 2719POPC   C3A35753  44.101   5.026   8.024
 2719POPC   C4A35754  44.008   4.879   7.627
 2719POPC   C1B35755  43.573   5.142   8.777
 2719POPC   C2B35756  43.460   5.082   8.357
 2719POPC   C3B35757  43.582   4.972   7.960
 2719POPC   C4B35758  43.747   5.325   7.762
 2720POPC   NC335759  26.632  34.399   9.617
 2720POPC   PO435760  26.724  35.039   9.690
 2720POPC   GL135761  26.707  34.834   9.234
 2720POPC   GL235762  26.856  34.497   9.167
 2720POPC   C1A35763  26.618  34.785   8.767
 2720POPC   D2A35764  26.871  34.857   8.358
 2720POPC   C3A35765  26.662  34.767   7.951
 2720POPC   C4A35766  26.511  34.340   7.903
 2720POPC   C1B35767  26.794  34.293   8.745
 2720POPC   C2B35768  26.840  34.153   8.306
 2720POPC   C3B35769  27.028  34.391   7.979
 2720POPC   C4B35770  27.179  34.750   7.735
 2721POPC   NC335771  11.193  24.025   9.495
 2721POPC   PO435772  11.050  24.725   9.462
 2721POPC   GL135773  11.261  24.440   9.174
 2721POPC   GL235774  11.417  24.717   8.984
 2721POPC   C1A35775  11.505  24.264   8.816
 2721POPC   D2A35776  11.520  24.578   8.477
 2721POPC   C3A35777  11.504  24.356   8.107
 2721POPC   C4A35778  11.305  24.224   7.756
 2721POPC   C1B35779  11.069  24.602   8.728
 2721POPC   C2B35780  11.021  24.591   8.278
 2721POPC   C3B35781  11.187  24.708   7.888
 2721POPC   C4B35782  11.076  24.561   7.452
 2722POPC   NC335783  28.185  18.935   9.433
 2722POPC   PO435784  28.744  18.534   9.578
 2722POPC   GL135785  28.560  18.631   9.120
 2722POPC   GL235786  28.452  19.006   9.010
 2722POPC   C1A35787  28.734  18.758   8.680
 2722POPC   D2A35788  28.628  19.109   8.397
 2722POPC   C3A35789  28.451  18.961   8.008
 2722POPC   C4A35790  28.028  18.836   7.877
 2722POPC   C1B35791  28.161  19.167   8.689
 2722POPC   C2B35792  28.156  19.434   8.336
 2722POPC   C3B35793  28.147  19.361   7.902
 2722POPC   C4B35794  27.990  19.209   7.523
 2723POPC   NC335795   5.191  24.177   9.521
 2723POPC   PO435796   5.442  23.568   9.492
 2723POPC   GL135797   5.232  23.716   9.133
 2723POPC   GL235798   4.914  23.892   9.186
 2723POPC   C1A35799   5.210  23.742   8.679
 2723POPC   D2A35800   5.275  23.854   8.234
 2723POPC   C3A35801   5.113  23.632   7.882
 2723POPC   C4A35802   5.205  23.420   7.502
 2723POPC   C1B35803   5.009  24.191   8.857
 2723POPC   C2B35804   5.037  24.263   8.401
 2723POPC   C3B35805   4.902  24.145   7.980
 2723POPC   C4B35806   4.973  24.329   7.591
 2724POPC   NC335807  23.417  23.930   9.483
 2724POPC   PO435808  24.092  23.797   9.406
 2724POPC   GL135809  23.817  23.882   9.083
 2724POPC   GL235810  23.550  23.624   9.084
 2724POPC   C1A35811  23.770  23.776   8.642
 2724POPC   D2A35812  23.705  23.637   8.226
 2724POPC   C3A35813  23.875  23.810   7.854
 2724POPC   C4A35814  23.713  23.837   7.459
 2724POPC   C1B35815  23.835  23.322   8.851
 2724POPC   C2B35816  24.063  23.253   8.416
 2724POPC   C3B35817  23.956  23.294   7.945
 2724POPC   C4B35818  23.939  23.355   7.451
 2725POPC   NC335819   0.447  17.041   9.859
 2725POPC   PO435820   0.463  17.632   9.645
 2725POPC   GL135821   0.414  17.622   9.173
 2725POPC   GL235822   0.534  17.286   9.094
 2725POPC   C1A35823   0.253  17.502   8.739
 2725POPC   D2A35824   0.356  17.246   8.388
 2725POPC   C3A35825   0.425  17.432   8.003
 2725POPC   C4A35826   0.181  17.572   7.650
 2725POPC   C1B35827   0.778  17.293   8.693
 2725POPC   C2B35828   0.850  17.198   8.242
 2725POPC   C3B35829   0.809  17.173   7.792
 2725POPC   C4B35830   0.491  17.185   7.481
 2726POPC   NC335831  29.609   1.505   9.468
 2726POPC   PO435832  29.961   2.130   9.477
 2726POPC   GL135833  29.727   2.180   9.131
 2726POPC   GL235834  29.777   1.825   9.090
 2726POPC   C1A35835  29.610   2.223   8.710
 2726POPC   D2A35836  29.610   2.047   8.301
 2726POPC   C3A35837  29.831   2.114   7.903
 2726POPC   C4A35838  29.755   2.281   7.494
 2726POPC   C1B35839  29.694   1.681   8.673
 2726POPC   C2B35840  29.694   1.521   8.252
 2726POPC   C3B35841  29.741   1.578   7.807
 2726POPC   C4B35842  29.917   1.799   7.468
 2727POPC   NC335843  15.790  26.461   9.521
 2727POPC   PO435844  15.965  25.783   9.436
 2727POPC   GL135845  15.986  25.977   9.055
 2727POPC   GL235846  16.067  26.351   9.126
 2727POPC   C1A35847  15.853  25.798   8.668
 2727POPC   D2A35848  15.987  25.763   8.246
 2727POPC   C3A35849  15.738  25.890   7.865
 2727POPC   C4A35850  15.940  25.748   7.455
 2727POPC   C1B35851  16.233  26.381   8.739
 2727POPC   C2B35852  15.965  26.250   8.426
 2727POPC   C3B35853  15.981  26.341   8.021
 2727POPC   C4B35854  16.117  26.525   7.674
 2728POPC   NC335855  24.187  20.065   9.452
 2728POPC   PO435856  24.724  19.696   9.486
 2728POPC   GL135857  24.548  19.786   9.121
 2728POPC   GL235858  24.235  19.601   9.127
 2728POPC   C1A35859  24.679  20.044   8.785
 2728POPC   D2A35860  24.447  20.274   8.500
 2728POPC   C3A35861  24.248  20.060   8.147
 2728POPC   C4A35862  24.404  20.052   7.731
 2728POPC   C1B35863  24.231  19.788   8.708
 2728POPC   C2B35864  24.314  19.576   8.315
 2728POPC   C3B35865  24.422  19.561   7.879
 2728POPC   C4B35866  24.171  19.484   7.512
 2729POPC   NC335867  42.713  42.231   9.412
 2729POPC   PO435868  43.379  42.467   9.422
 2729POPC   GL135869  43.132  42.524   9.063
 2729POPC   GL235870  43.344  42.799   8.998
 2729POPC   C1A35871  42.927  42.362   8.667
 2729POPC   D2A35872  43.101  42.345   8.240
 2729POPC   C3A35873  42.923  42.253   7.840
 2729POPC   C4A35874  42.987  41.976   7.431
 2729POPC   C1B35875  43.419  42.598   8.588
 2729POPC   C2B35876  43.596  42.251   8.321
 2729POPC   C3B35877  43.449  42.116   7.924
 2729POPC   C4B35878  43.385  42.505   7.759
 2730POPC   NC335879  12.723   8.706   9.493
 2730POPC   PO435880  12.739   9.381   9.474
 2730POPC   GL135881  12.904   9.164   9.086
 2730POPC   GL235882  13.052   8.826   9.128
 2730POPC   C1A35883  12.711   8.881   8.748
 2730POPC   D2A35884  12.672   8.694   8.326
 2730POPC   C3A35885  12.614   9.063   8.086
 2730POPC   C4A35886  12.858   9.153   7.762
 2730POPC   C1B35887  13.214   8.779   8.691
 2730POPC   C2B35888  13.200   8.565   8.310
 2730POPC   C3B35889  13.058   8.705   7.940
 2730POPC   C4B35890  12.671   8.659   7.766
 2731POPC   NC335891  41.314  12.859   9.474
 2731POPC   PO435892  41.999  12.664   9.435
 2731POPC   GL135893  41.752  12.881   9.163
 2731POPC   GL235894  41.611  12.604   9.034
 2731POPC   C1A35895  41.833  12.951   8.721
 2731POPC   D2A35896  41.660  13.079   8.358
 2731POPC   C3A35897  41.710  12.823   7.979
 2731POPC   C4A35898  41.642  13.141   7.654
 2731POPC   C1B35899  41.340  12.877   8.773
 2731POPC   C2B35900  41.243  12.780   8.350
 2731POPC   C3B35901  41.275  12.494   8.038
 2731POPC   C4B35902  41.321  12.730   7.656
 2732POPC   NC335903  19.982  11.509   9.634
 2732POPC   PO435904  20.065  10.813   9.468
 2732POPC   GL135905  19.834  11.075   9.150
 2732POPC   GL235906  19.853  11.441   9.133
 2732POPC   C1A35907  19.672  11.105   8.728
 2732POPC   D2A35908  19.658  11.327   8.296
 2732POPC   C3A35909  19.778  11.170   7.860
 2732POPC   C4A35910  19.602  11.205   7.427
 2732POPC   C1B35911  19.780  11.597   8.731
 2732POPC   C2B35912  20.046  11.640   8.426
 2732POPC   C3B35913  19.940  11.766   8.046
 2732POPC   C4B35914  20.174  11.627   7.718
 2733POPC   NC335915  41.830  26.267   9.574
 2733POPC   PO435916  42.431  26.074   9.616
 2733POPC   GL135917  42.316  26.168   9.197
 2733POPC   GL235918  42.639  26.357   9.133
 2733POPC   C1A35919  42.109  25.860   8.845
 2733POPC   D2A35920  42.045  25.550   8.473
 2733POPC   C3A35921  41.973  25.653   8.016
 2733POPC   C4A35922  42.227  25.786   7.656
 2733POPC   C1B35923  42.627  26.030   8.826
 2733POPC   C2B35924  42.406  25.947   8.443
 2733POPC   C3B35925  42.501  25.990   8.019
 2733POPC   C4B35926  42.383  26.287   7.684
 2734POPC   NC335927  23.987  28.447   9.476
 2734POPC   PO435928  23.412  28.236   9.673
 2734POPC   GL135929  23.608  28.194   9.242
 2734POPC   GL235930  23.624  28.542   9.127
 2734POPC   C1A35931  23.838  28.173   8.836
 2734POPC   D2A35932  24.159  28.202   8.511
 2734POPC   C3A35933  23.987  28.078   8.112
 2734POPC   C4A35934  23.756  28.297   7.790
 2734POPC   C1B35935  23.715  28.675   8.698
 2734POPC   C2B35936  23.677  28.542   8.261
 2734POPC   C3B35937  23.744  28.825   7.907
 2734POPC   C4B35938  23.717  28.836   7.449
 2735POPC   NC335939  28.910  39.777   9.477
 2735POPC   PO435940  29.362  40.145   9.289
 2735POPC   GL135941  29.148  39.972   8.991
 2735POPC   GL235942  28.775  40.017   9.036
 2735POPC   C1A35943  29.434  39.921   8.652
 2735POPC   D2A35944  29.281  39.786   8.287
 2735POPC   C3A35945  29.141  40.153   8.093
 2735POPC   C4A35946  29.204  40.295   7.694
 2735POPC   C1B35947  28.724  39.584   8.847
 2735POPC   C2B35948  28.850  39.439   8.425
 2735POPC   C3B35949  28.822  39.708   8.064
 2735POPC   C4B35950  28.915  39.860   7.684
 2736POPC   NC335951  43.033   0.511   9.432
 2736POPC   PO435952  43.579   0.666   9.775
 2736POPC   GL135953  43.467   0.658   9.246
 2736POPC   GL235954  43.193   0.832   9.044
 2736POPC   C1A35955  43.292   0.366   8.831
 2736POPC   D2A35956  43.198   0.046   8.529
 2736POPC   C3A35957  43.284   0.205   8.110
 2736POPC   C4A35958  43.043   0.128   7.749
 2736POPC   C1B35959  42.887   0.670   8.768
 2736POPC   C2B35960  42.990   0.518   8.388
 2736POPC   C3B35961  43.034   0.670   7.981
 2736POPC   C4B35962  42.815   0.563   7.610
 2737POPC   NC335963  43.283  21.456   9.410
 2737POPC   PO435964  43.963  21.358   9.447
 2737POPC   GL135965  44.002  21.430   9.033
 2737POPC   GL235966  43.639  21.385   9.017
 2737POPC   C1A35967  43.939  21.307   8.605
 2737POPC   D2A35968  43.673  21.320   8.278
 2737POPC   C3A35969  43.836  21.409   7.891
 2737POPC   C4A35970  43.980  21.723   7.657
 2737POPC   C1B35971  43.489  21.098   8.723
 2737POPC   C2B35972  43.672  20.818   8.425
 2737POPC   C3B35973  43.663  20.901   7.969
 2737POPC   C4B35974  43.790  21.015   7.534
 2738POPC   NC335975   3.759  16.497   9.582
 2738POPC   PO435976   3.309  17.003   9.499
 2738POPC   GL135977   3.525  16.796   9.166
 2738POPC   GL235978   3.424  16.450   9.180
 2738POPC   C1A35979   3.562  16.811   8.703
 2738POPC   D2A35980   3.355  16.536   8.401
 2738POPC   C3A35981   3.178  16.644   8.024
 2738POPC   C4A35982   3.223  16.996   7.702
 2738POPC   C1B35983   3.588  16.307   8.794
 2738POPC   C2B35984   3.833  16.385   8.401
 2738POPC   C3B35985   3.730  16.595   8.011
 2738POPC   C4B35986   3.449  16.451   7.662
 2739POPC   NC335987  36.078   0.039   9.449
 2739POPC   PO435988  36.372  44.459   9.515
 2739POPC   GL135989  36.161  44.572   9.173
 2739POPC   GL235990  35.879  44.488   9.279
 2739POPC   C1A35991  36.050  44.794   8.822
 2739POPC   D2A35992  35.839  44.715   8.449
 2739POPC   C3A35993  35.995  44.503   8.064
 2739POPC   C4A35994  36.046  44.858   7.787
 2739POPC   C1B35995  35.703  44.402   8.866
 2739POPC   C2B35996  35.619  44.237   8.429
 2739POPC   C3B35997  35.535  44.284   7.979
 2739POPC   C4B35998  35.685  44.538   7.579
 2740POPC   NC335999  14.521  38.353   9.446
 2740POPC   PO436000  14.443  39.000   9.382
 2740POPC   GL136001  14.442  38.801   9.081
 2740POPC   GL236002  14.167  38.614   9.161
 2740POPC   C1A36003  14.242  38.876   8.697
 2740POPC   D2A36004  14.128  38.676   8.283
 2740POPC   C3A36005  14.277  38.805   7.852
 2740POPC   C4A36006  14.497  38.609   7.488
 2740POPC   C1B36007  14.296  38.383   8.800
 2740POPC   C2B36008  14.473  38.301   8.389
 2740POPC   C3B36009  14.321  38.288   7.954
 2740POPC   C4B36010  14.465  38.118   7.551
 2741POPC   NC336011  28.983   3.858   9.416
 2741POPC   PO436012  29.291   4.459   9.439
 2741POPC   GL136013  29.113   4.255   9.082
 2741POPC   GL236014  29.358   3.992   9.050
 2741POPC   C1A36015  29.023   4.079   8.648
 2741POPC   D2A36016  29.105   3.873   8.214
 2741POPC   C3A36017  28.920   4.114   7.858
 2741POPC   C4A36018  29.070   4.469   7.636
 2741POPC   C1B36019  29.477   4.322   8.724
 2741POPC   C2B36020  29.285   4.379   8.308
 2741POPC   C3B36021  29.430   4.229   7.901
 2741POPC   C4B36022  29.526   4.318   7.463
 2742POPC   NC336023  12.213  11.559   9.355
 2742POPC   PO436024  11.531  11.593   9.166
 2742POPC   GL136025  11.876  11.442   8.973
 2742POPC   GL236026  11.909  11.177   9.124
 2742POPC   C1A36027  12.231  11.433   8.696
 2742POPC   D2A36028  12.277  11.534   8.277
 2742POPC   C3A36029  11.911  11.333   8.082
 2742POPC   C4A36030  11.697  11.012   7.786
 2742POPC   C1B36031  11.992  10.960   8.758
 2742POPC   C2B36032  12.169  10.947   8.378
 2742POPC   C3B36033  12.359  11.060   8.051
 2742POPC   C4B36034  12.185  11.169   7.691
 2743POPC   NC336035   0.863  12.656   9.397
 2743POPC   PO436036   0.218  13.023   9.481
 2743POPC   GL136037   0.550  12.967   9.123
 2743POPC   GL236038   0.533  12.582   9.020
 2743POPC   C1A36039   0.635  12.949   8.655
 2743POPC   D2A36040   0.323  12.801   8.385
 2743POPC   C3A36041   0.173  12.919   8.026
 2743POPC   C4A36042   0.295  12.738   7.653
 2743POPC   C1B36043   0.888  12.511   8.723
 2743POPC   C2B36044   0.767  12.510   8.330
 2743POPC   C3B36045   0.667  12.741   8.000
 2743POPC   C4B36046   0.757  12.528   7.676
 2744POPC   NC336047  35.060  38.968   9.829
 2744POPC   PO436048  35.475  38.499   9.756
 2744POPC   GL136049  35.323  38.364   9.317
 2744POPC   GL236050  34.979  38.422   9.394
 2744POPC   C1A36051  35.396  38.329   8.821
 2744POPC   D2A36052  35.433  38.541   8.372
 2744POPC   C3A36053  35.473  38.457   7.909
 2744POPC   C4A36054  35.470  38.728   7.545
 2744POPC   C1B36055  34.898  38.295   8.976
 2744POPC   C2B36056  34.950  38.343   8.538
 2744POPC   C3B36057  35.067  38.230   8.130
 2744POPC   C4B36058  34.888  38.401   7.758
 2745POPC   NC336059  24.520  14.033   9.532
 2745POPC   PO436060  24.407  14.718   9.456
 2745POPC   GL136061  24.242  14.377   9.160
 2745POPC   GL236062  24.515  14.161   9.055
 2745POPC   C1A36063  24.237  14.437   8.726
 2745POPC   D2A36064  24.588  14.607   8.552
 2745POPC   C3A36065  24.704  14.425   8.172
 2745POPC   C4A36066  24.546  14.679   7.853
 2745POPC   C1B36067  24.611  14.065   8.650
 2745POPC   C2B36068  24.369  13.866   8.392
 2745POPC   C3B36069  24.338  13.877   7.986
 2745POPC   C4B36070  24.495  14.180   7.776
 2746POPC   NC336071   2.889  41.682   9.586
 2746POPC   PO436072   2.461  41.212   9.567
 2746POPC   GL136073   2.691  41.387   9.220
 2746POPC   GL236074   3.027  41.265   9.270
 2746POPC   C1A36075   2.920  41.680   8.892
 2746POPC   D2A36076   2.692  41.750   8.499
 2746POPC   C3A36077   2.851  41.778   8.073
 2746POPC   C4A36078   2.946  41.690   7.656
 2746POPC   C1B36079   2.922  41.178   8.837
 2746POPC   C2B36080   2.714  41.234   8.478
 2746POPC   C3B36081   2.740  41.290   8.073
 2746POPC   C4B36082   2.714  41.187   7.651
 2747POPC   NC336083  24.795  31.519   9.343
 2747POPC   PO436084  25.337  31.228   9.655
 2747POPC   GL136085  25.320  31.502   9.262
 2747POPC   GL236086  25.305  31.244   9.012
 2747POPC   C1A36087  25.181  31.678   8.821
 2747POPC   D2A36088  25.345  31.486   8.434
 2747POPC   C3A36089  25.243  31.730   8.095
 2747POPC   C4A36090  24.875  31.809   7.895
 2747POPC   C1B36091  25.628  31.107   8.704
 2747POPC   C2B36092  25.706  31.061   8.267
 2747POPC   C3B36093  25.355  31.099   8.003
 2747POPC   C4B36094  25.228  31.416   7.712
 2748POPC   NC336095   6.145  15.300   9.554
 2748POPC   PO436096   5.548  15.127   9.522
 2748POPC   GL136097   5.714  14.993   9.112
 2748POPC   GL236098   6.054  14.968   9.165
 2748POPC   C1A36099   5.645  15.174   8.692
 2748POPC   D2A36100   5.707  15.602   8.477
 2748POPC   C3A36101   5.877  15.564   8.075
 2748POPC   C4A36102   5.785  15.159   7.924
 2748POPC   C1B36103   6.129  14.922   8.764
 2748POPC   C2B36104   6.102  15.145   8.388
 2748POPC   C3B36105   6.306  14.959   8.048
 2748POPC   C4B36106   6.093  14.876   7.657
 2749POPC   NC336107  22.316  16.089   9.450
 2749POPC   PO436108  22.281  15.473   9.300
 2749POPC   GL136109  22.059  15.799   9.132
 2749POPC   GL236110  21.887  15.612   8.978
 2749POPC   C1A36111  22.142  16.119   8.807
 2749POPC   D2A36112  22.374  16.081   8.413
 2749POPC   C3A36113  22.091  16.189   8.074
 2749POPC   C4A36114  22.060  16.101   7.641
 2749POPC   C1B36115  22.070  15.647   8.625
 2749POPC   C2B36116  21.928  15.693   8.225
 2749POPC   C3B36117  22.225  15.704   7.924
 2749POPC   C4B36118  22.316  15.701   7.472
 2750POPC   NC336119  30.194  30.693   9.782
 2750POPC   PO436120  29.621  30.971   9.583
 2750POPC   GL136121  29.713  30.765   9.201
 2750POPC   GL236122  30.064  30.878   9.183
 2750POPC   C1A36123  29.838  30.673   8.757
 2750POPC   D2A36124  30.070  30.578   8.384
 2750POPC   C3A36125  29.901  30.508   7.971
 2750POPC   C4A36126  30.208  30.521   7.607
 2750POPC   C1B36127  30.318  30.867   8.795
 2750POPC   C2B36128  30.332  31.041   8.376
 2750POPC   C3B36129  30.265  30.903   7.964
 2750POPC   C4B36130  29.918  30.951   7.714
 2751POPC   NC336131  16.686   6.601   9.648
 2751POPC   PO436132  16.351   7.106   9.346
 2751POPC   GL136133  16.593   6.727   9.151
 2751POPC   GL236134  16.891   6.481   9.132
 2751POPC   C1A36135  16.616   6.595   8.711
 2751POPC   D2A36136  16.527   6.838   8.356
 2751POPC   C3A36137  16.744   6.734   8.007
 2751POPC   C4A36138  16.814   6.844   7.543
 2751POPC   C1B36139  17.021   6.262   8.720
 2751POPC   C2B36140  17.039   6.352   8.269
 2751POPC   C3B36141  16.770   6.217   7.918
 2751POPC   C4B36142  16.489   6.467   7.681
 2752POPC   NC336143  20.895   4.258   9.404
 2752POPC   PO436144  20.295   4.018   9.547
 2752POPC   GL136145  20.461   4.128   9.152
 2752POPC   GL236146  20.298   4.416   9.059
 2752POPC   C1A36147  20.683   4.237   8.755
 2752POPC   D2A36148  20.601   4.063   8.341
 2752POPC   C3A36149  20.615   4.245   7.932
 2752POPC   C4A36150  20.341   4.158   7.544
 2752POPC   C1B36151  20.351   4.698   8.700
 2752POPC   C2B36152  20.408   4.673   8.234
 2752POPC   C3B36153  20.334   4.635   7.781
 2752POPC   C4B36154  20.131   4.590   7.380
 2753POPC   NC336155   0.287  14.735   9.502
 2753POPC   PO436156   0.601  15.322   9.550
 2753POPC   GL136157   0.342  15.252   9.236
 2753POPC   GL236158   0.569  14.998   9.105
 2753POPC   C1A36159   0.469  15.431   8.851
 2753POPC   D2A36160   0.696  15.446   8.461
 2753POPC   C3A36161   0.533  15.460   8.056
 2753POPC   C4A36162   0.406  15.107   7.833
 2753POPC   C1B36163   0.608  14.952   8.654
 2753POPC   C2B36164   0.293  14.885   8.346
 2753POPC   C3B36165   0.204  14.683   7.988
 2753POPC   C4B36166   0.529  14.614   7.685
 2754POPC   NC336167  22.403  30.375   9.565
 2754POPC   PO436168  22.508  31.015   9.464
 2754POPC   GL136169  22.307  30.776   9.144
 2754POPC   GL236170  22.253  30.440   9.088
 2754POPC   C1A36171  21.980  30.851   8.831
 2754POPC   D2A36172  22.103  31.040   8.431
 2754POPC   C3A36173  22.215  30.799   8.073
 2754POPC   C4A36174  21.964  30.616   7.784
 2754POPC   C1B36175  22.341  30.551   8.662
 2754POPC   C2B36176  22.459  30.359   8.296
 2754POPC   C3B36177  22.428  30.364   7.854
 2754POPC   C4B36178  22.476  30.673   7.586
 2755POPC   NC336179  37.763   2.440   9.434
 2755POPC   PO436180  37.267   2.948   9.419
 2755POPC   GL136181  37.399   2.696   9.098
 2755POPC   GL236182  37.709   2.846   9.090
 2755POPC   C1A36183  37.453   2.792   8.656
 2755POPC   D2A36184  37.478   3.020   8.267
 2755POPC   C3A36185  37.506   2.729   7.963
 2755POPC   C4A36186  37.781   2.708   7.636
 2755POPC   C1B36187  37.959   2.946   8.747
 2755POPC   C2B36188  37.932   2.806   8.357
 2755POPC   C3B36189  37.948   2.999   8.010
 2755POPC   C4B36190  38.039   3.153   7.612
 2756POPC   NC336191  19.370  33.354   9.241
 2756POPC   PO436192  19.700  32.896   9.593
 2756POPC   GL136193  19.828  33.047   9.199
 2756POPC   GL236194  19.812  32.721   9.106
 2756POPC   C1A36195  20.051  33.212   8.816
 2756POPC   D2A36196  19.868  33.355   8.407
 2756POPC   C3A36197  19.866  33.228   7.963
 2756POPC   C4A36198  19.444  33.164   7.771
 2756POPC   C1B36199  19.657  32.923   8.692
 2756POPC   C2B36200  19.530  32.942   8.265
 2756POPC   C3B36201  19.710  32.752   7.922
 2756POPC   C4B36202  19.548  32.679   7.529
 2757POPC   NC336203  37.974  23.174   9.579
 2757POPC   PO436204  38.545  22.878   9.376
 2757POPC   GL136205  38.412  23.064   9.100
 2757POPC   GL236206  38.103  22.942   9.130
 2757POPC   C1A36207  38.536  23.143   8.716
 2757POPC   D2A36208  38.658  23.191   8.308
 2757POPC   C3A36209  38.528  22.977   7.984
 2757POPC   C4A36210  38.572  23.057   7.540
 2757POPC   C1B36211  38.014  23.163   8.795
 2757POPC   C2B36212  38.151  23.089   8.383
 2757POPC   C3B36213  38.152  23.332   8.054
 2757POPC   C4B36214  38.104  23.091   7.704
 2758POPC   NC336215  17.078  14.613   9.309
 2758POPC   PO436216  16.577  14.163   9.425
 2758POPC   GL136217  16.781  14.262   9.092
 2758POPC   GL236218  16.625  14.581   9.093
 2758POPC   C1A36219  16.842  14.286   8.667
 2758POPC   D2A36220  16.895  14.547   8.312
 2758POPC   C3A36221  16.743  14.375   7.934
 2758POPC   C4A36222  16.972  14.377   7.562
 2758POPC   C1B36223  16.573  14.728   8.699
 2758POPC   C2B36224  16.377  14.782   8.300
 2758POPC   C3B36225  16.419  14.880   7.857
 2758POPC   C4B36226  16.526  14.634   7.481
 2759POPC   NC336227  33.509  16.619   9.536
 2759POPC   PO436228  34.134  17.074   9.597
 2759POPC   GL136229  33.886  16.878   9.262
 2759POPC   GL236230  33.985  16.536   9.311
 2759POPC   C1A36231  33.631  16.918   8.860
 2759POPC   D2A36232  33.778  17.033   8.431
 2759POPC   C3A36233  33.991  16.742   8.156
 2759POPC   C4A36234  33.947  16.766   7.700
 2759POPC   C1B36235  33.716  16.409   8.947
 2759POPC   C2B36236  33.692  16.517   8.506
 2759POPC   C3B36237  33.613  16.424   8.038
 2759POPC   C4B36238  33.733  16.274   7.574
 2760POPC   NC336239   2.941  16.236   9.437
 2760POPC   PO436240   2.845  15.629   9.400
 2760POPC   GL136241   2.507  15.827   9.161
 2760POPC   GL236242   2.604  16.189   9.035
 2760POPC   C1A36243   2.515  15.794   8.716
 2760POPC   D2A36244   2.844  15.702   8.427
 2760POPC   C3A36245   2.644  15.930   8.118
 2760POPC   C4A36246   2.599  15.995   7.722
 2760POPC   C1B36247   2.991  16.132   8.743
 2760POPC   C2B36248   3.052  16.163   8.274
 2760POPC   C3B36249   3.035  16.198   7.829
 2760POPC   C4B36250   2.953  16.557   7.560
 2761POPC   NC336251  44.098  17.615   9.122
 2761POPC   PO436252  43.764  17.266   9.521
 2761POPC   GL136253  43.660  17.303   9.131
 2761POPC   GL236254  43.577  17.640   9.106
 2761POPC   C1A36255  43.859  17.142   8.755
 2761POPC   D2A36256  44.167  17.377   8.476
 2761POPC   C3A36257  44.079  17.331   8.030
 2761POPC   C4A36258  44.230  17.545   7.680
 2761POPC   C1B36259  43.514  17.527   8.700
 2761POPC   C2B36260  43.658  17.325   8.325
 2761POPC   C3B36261  43.552  17.446   7.924
 2761POPC   C4B36262  43.712  17.688   7.599
 2762POPC   NC336263   9.405  29.039   9.452
 2762POPC   PO436264   9.958  29.372   9.419
 2762POPC   GL136265   9.713  29.301   9.088
 2762POPC   GL236266   9.801  28.954   9.096
 2762POPC   C1A36267   9.805  29.222   8.658
 2762POPC   D2A36268   9.829  29.388   8.249
 2762POPC   C3A36269   9.881  29.236   7.832
 2762POPC   C4A36270   9.917  29.396   7.396
 2762POPC   C1B36271   9.499  28.827   8.779
 2762POPC   C2B36272   9.459  28.966   8.322
 2762POPC   C3B36273   9.432  28.942   7.856
 2762POPC   C4B36274   9.704  28.929   7.462
 2763POPC   NC336275   6.269  18.718   9.400
 2763POPC   PO436276   6.811  19.191   9.503
 2763POPC   GL136277   6.732  18.933   9.197
 2763POPC   GL236278   6.802  19.254   8.996
 2763POPC   C1A36279   6.555  18.857   8.813
 2763POPC   D2A36280   6.693  19.093   8.500
 2763POPC   C3A36281   6.640  18.987   8.126
 2763POPC   C4A36282   6.465  19.124   7.771
 2763POPC   C1B36283   7.085  19.387   8.643
 2763POPC   C2B36284   7.090  19.298   8.216
 2763POPC   C3B36285   6.946  19.293   7.818
 2763POPC   C4B36286   7.156  19.443   7.475
 2764POPC   NC336287   8.153  33.894   9.434
 2764POPC   PO436288   7.641  33.394   9.589
 2764POPC   GL136289   7.837  33.589   9.170
 2764POPC   GL236290   7.772  33.926   9.015
 2764POPC   C1A36291   8.196  33.696   8.819
 2764POPC   D2A36292   8.374  33.696   8.374
 2764POPC   C3A36293   8.183  33.723   7.921
 2764POPC   C4A36294   8.251  33.708   7.447
 2764POPC   C1B36295   7.805  33.879   8.568
 2764POPC   C2B36296   8.044  34.094   8.260
 2764POPC   C3B36297   7.907  34.183   7.861
 2764POPC   C4B36298   7.864  34.010   7.466
 2765POPC   NC336299   9.344  23.566   9.729
 2765POPC   PO436300   8.729  23.456   9.471
 2765POPC   GL136301   8.957  23.692   9.180
 2765POPC   GL236302   9.296  23.672   9.204
 2765POPC   C1A36303   8.893  23.746   8.766
 2765POPC   D2A36304   8.778  24.030   8.448
 2765POPC   C3A36305   8.902  23.946   8.042
 2765POPC   C4A36306   8.860  23.719   7.705
 2765POPC   C1B36307   9.358  23.529   8.773
 2765POPC   C2B36308   9.224  23.673   8.343
 2765POPC   C3B36309   9.298  23.542   7.889
 2765POPC   C4B36310   9.361  23.717   7.449
 2766POPC   NC336311  24.227  13.282   9.295
 2766POPC   PO436312  24.726  13.636   9.732
 2766POPC   GL136313  24.711  13.531   9.211
 2766POPC   GL236314  24.868  13.764   8.998
 2766POPC   C1A36315  24.499  13.517   8.739
 2766POPC   D2A36316  24.587  13.404   8.273
 2766POPC   C3A36317  24.413  13.406   7.846
 2766POPC   C4A36318  24.480  13.723   7.500
 2766POPC   C1B36319  24.951  13.668   8.540
 2766POPC   C2B36320  24.825  13.877   8.158
 2766POPC   C3B36321  24.906  13.891   7.717
 2766POPC   C4B36322  24.928  13.970   7.256
 2767POPC   NC336323  28.425   6.281   9.538
 2767POPC   PO436324  28.587   5.603   9.405
 2767POPC   GL136325  28.471   5.949   9.162
 2767POPC   GL236326  28.776   6.143   9.069
 2767POPC   C1A36327  28.330   6.016   8.752
 2767POPC   D2A36328  28.553   5.957   8.351
 2767POPC   C3A36329  28.246   5.929   8.022
 2767POPC   C4A36330  28.169   6.020   7.617
 2767POPC   C1B36331  28.771   5.743   8.794
 2767POPC   C2B36332  28.790   5.511   8.418
 2767POPC   C3B36333  28.601   5.562   8.033
 2767POPC   C4B36334  28.411   5.570   7.616
 2768POPC   NC336335   6.976   4.537   9.447
 2768POPC   PO436336   6.381   4.298   9.500
 2768POPC   GL136337   6.653   4.273   9.136
 2768POPC   GL236338   6.930   4.034   9.148
 2768POPC   C1A36339   6.556   4.206   8.719
 2768POPC   D2A36340   6.305   4.070   8.385
 2768POPC   C3A36341   6.387   4.384   8.080
 2768POPC   C4A36342   6.507   4.331   7.674
 2768POPC   C1B36343   7.092   4.290   8.804
 2768POPC   C2B36344   6.936   4.331   8.388
 2768POPC   C3B36345   6.873   4.186   7.994
 2768POPC   C4B36346   7.033   4.259   7.597
 2769POPC   NC336347   0.476  16.422   9.524
 2769POPC   PO436348   0.054  16.989   9.604
 2769POPC   GL136349   0.341  16.818   9.215
 2769POPC   GL236350   0.683  16.634   9.116
 2769POPC   C1A36351   0.441  16.917   8.776
 2769POPC   D2A36352   0.647  16.759   8.423
 2769POPC   C3A36353   0.474  16.865   8.041
 2769POPC   C4A36354   0.652  16.699   7.672
 2769POPC   C1B36355   0.397  16.412   8.850
 2769POPC   C2B36356   0.172  16.572   8.505
 2769POPC   C3B36357   0.084  16.492   8.088
 2769POPC   C4B36358   0.150  16.611   7.689
 2770POPC   NC336359   1.784   9.921   9.477
 2770POPC   PO436360   2.262   9.497   9.476
 2770POPC   GL136361   2.118   9.754   9.142
 2770POPC   GL236362   2.167  10.028   9.047
 2770POPC   C1A36363   1.764   9.786   8.827
 2770POPC   D2A36364   1.647   9.977   8.419
 2770POPC   C3A36365   1.755   9.811   8.016
 2770POPC   C4A36366   1.698   9.549   7.657
 2770POPC   C1B36367   1.986  10.233   8.722
 2770POPC   C2B36368   2.153   9.987   8.398
 2770POPC   C3B36369   2.273   9.722   8.069
 2770POPC   C4B36370   2.209   9.864   7.663
 2771POPC   NC336371  39.327  37.915   9.536
 2771POPC   PO436372  38.907  37.403   9.305
 2771POPC   GL136373  39.113  37.677   9.025
 2771POPC   GL236374  39.419  37.844   9.056
 2771POPC   C1A36375  39.269  37.622   8.609
 2771POPC   D2A36376  39.127  37.828   8.263
 2771POPC   C3A36377  39.195  37.622   7.907
 2771POPC   C4A36378  38.824  37.438   7.819
 2771POPC   C1B36379  39.622  38.021   8.722
 2771POPC   C2B36380  39.657  37.831   8.326
 2771POPC   C3B36381  39.710  37.743   7.882
 2771POPC   C4B36382  39.503  37.739   7.505
 2772POPC   NC336383  38.329  37.954   9.593
 2772POPC   PO436384  38.462  37.298   9.822
 2772POPC   GL136385  38.419  37.507   9.319
 2772POPC   GL236386  38.627  37.812   9.165
 2772POPC   C1A36387  38.286  37.584   8.852
 2772POPC   D2A36388  38.085  37.346   8.509
 2772POPC   C3A36389  38.080  37.571   8.128
 2772POPC   C4A36390  38.355  37.658   7.793
 2772POPC   C1B36391  38.736  37.751   8.689
 2772POPC   C2B36392  38.621  37.679   8.248
 2772POPC   C3B36393  38.761  37.938   7.891
 2772POPC   C4B36394  38.964  38.302   7.840
 2773POPC   NC336395  13.294  25.402   9.548
 2773POPC   PO436396  13.984  25.299   9.592
 2773POPC   GL136397  13.713  25.111   9.251
 2773POPC   GL236398  13.563  25.383   9.094
 2773POPC   C1A36399  13.875  25.101   8.798
 2773POPC   D2A36400  14.019  25.058   8.363
 2773POPC   C3A36401  13.674  24.967   8.096
 2773POPC   C4A36402  13.587  25.221   7.755
 2773POPC   C1B36403  13.380  25.140   8.736
 2773POPC   C2B36404  13.205  25.176   8.303
 2773POPC   C3B36405  13.260  25.527   7.977
 2773POPC   C4B36406  13.234  25.529   7.520
 2774POPC   NC336407  33.927  29.521   9.550
 2774POPC   PO436408  33.813  28.839   9.460
 2774POPC   GL136409  34.025  29.143   9.222
 2774POPC   GL236410  33.749  29.364   9.094
 2774POPC   C1A36411  34.169  29.248   8.838
 2774POPC   D2A36412  33.922  29.325   8.508
 2774POPC   C3A36413  34.023  29.218   8.090
 2774POPC   C4A36414  33.915  29.463   7.715
 2774POPC   C1B36415  33.651  29.009   8.800
 2774POPC   C2B36416  33.669  28.920   8.328
 2774POPC   C3B36417  33.578  29.032   7.883
 2774POPC   C4B36418  33.445  28.809   7.503
 2775POPC   NC336419  16.569  32.385   9.554
 2775POPC   PO436420  16.991  31.863   9.454
 2775POPC   GL136421  16.873  32.155   9.120
 2775POPC   GL236422  16.502  32.301   9.072
 2775POPC   C1A36423  16.797  32.221   8.683
 2775POPC   D2A36424  16.974  32.167   8.328
 2775POPC   C3A36425  16.765  32.188   7.967
 2775POPC   C4A36426  16.737  32.087   7.543
 2775POPC   C1B36427  16.411  32.563   8.721
 2775POPC   C2B36428  16.561  32.554   8.294
 2775POPC   C3B36429  16.290  32.591   7.945
 2775POPC   C4B36430  16.250  32.866   7.610
 2776POPC   NC336431  30.190   2.521   9.472
 2776POPC   PO436432  30.027   3.130   9.473
 2776POPC   GL136433  29.930   2.876   9.154
 2776POPC   GL236434  29.643   2.685   9.276
 2776POPC   C1A36435  29.985   2.557   8.826
 2776POPC   D2A36436  30.059   2.426   8.388
 2776POPC   C3A36437  30.072   2.812   8.104
 2776POPC   C4A36438  30.287   2.913   7.704
 2776POPC   C1B36439  29.540   2.810   8.838
 2776POPC   C2B36440  29.607   2.671   8.448
 2776POPC   C3B36441  29.633   2.556   8.049
 2776POPC   C4B36442  29.776   2.761   7.682
 2777POPC   NC336443  22.616  17.642   9.332
 2777POPC   PO436444  23.184  17.308   9.480
 2777POPC   GL136445  23.124  17.541   9.114
 2777POPC   GL236446  23.038  17.883   9.195
 2777POPC   C1A36447  22.917  17.491   8.743
 2777POPC   D2A36448  22.687  17.591   8.380
 2777POPC   C3A36449  22.799  17.358   8.038
 2777POPC   C4A36450  23.062  17.430   7.723
 2777POPC   C1B36451  23.224  17.967   8.812
 2777POPC   C2B36452  23.254  17.750   8.434
 2777POPC   C3B36453  23.061  17.821   8.057
 2777POPC   C4B36454  22.702  17.810   7.779
 2778POPC   NC336455  42.228  22.679   9.423
 2778POPC   PO436456  42.676  23.106   9.743
 2778POPC   GL136457  42.590  22.896   9.199
 2778POPC   GL236458  42.589  23.137   8.966
 2778POPC   C1A36459  42.396  22.713   8.779
 2778POPC   D2A36460  42.530  22.647   8.336
 2778POPC   C3A36461  42.463  22.832   7.935
 2778POPC   C4A36462  42.280  22.837   7.555
 2778POPC   C1B36463  42.265  23.183   8.676
 2778POPC   C2B36464  42.185  23.012   8.333
 2778POPC   C3B36465  42.066  23.160   7.950
 2778POPC   C4B36466  42.130  23.317   7.522
 2779POPC   NC336467  32.367  35.581   9.451
 2779POPC   PO436468  31.871  35.137   9.440
 2779POPC   GL136469  32.176  35.219   9.126
 2779POPC   GL236470  32.527  35.120   9.182
 2779POPC   C1A36471  32.342  35.435   8.779
 2779POPC   D2A36472  32.381  35.300   8.354
 2779POPC   C3A36473  32.278  35.543   8.008
 2779POPC   C4A36474  32.032  35.465   7.666
 2779POPC   C1B36475  32.617  34.999   8.740
 2779POPC   C2B36476  32.614  34.856   8.282
 2779POPC   C3B36477  32.730  35.134   7.971
 2779POPC   C4B36478  32.531  35.276   7.621
 2780POPC   NC336479  29.940  38.112   9.360
 2780POPC   PO436480  29.965  37.427   9.513
 2780POPC   GL136481  29.884  37.679   9.085
 2780POPC   GL236482  29.611  37.968   8.995
 2780POPC   C1A36483  30.158  37.650   8.705
 2780POPC   D2A36484  30.364  37.749   8.303
 2780POPC   C3A36485  30.300  37.670   7.866
 2780POPC   C4A36486  30.172  37.553   7.445
 2780POPC   C1B36487  29.786  37.938   8.562
 2780POPC   C2B36488  29.879  37.616   8.219
 2780POPC   C3B36489  29.774  37.700   7.771
 2780POPC   C4B36490  29.366  37.943   7.738
 2781POPC   NC336491  29.663  43.229   9.738
 2781POPC   PO436492  30.225  43.055   9.311
 2781POPC   GL136493  29.995  43.001   9.017
 2781POPC   GL236494  29.683  43.006   9.230
 2781POPC   C1A36495  30.042  43.115   8.566
 2781POPC   D2A36496  29.983  42.914   8.200
 2781POPC   C3A36497  30.248  43.102   7.908
 2781POPC   C4A36498  30.183  43.501   7.763
 2781POPC   C1B36499  29.600  43.188   8.796
 2781POPC   C2B36500  29.707  43.489   8.481
 2781POPC   C3B36501  29.739  43.470   8.067
 2781POPC   C4B36502  29.725  43.121   7.804
 2782POPC   NC336503  25.810  24.899   9.552
 2782POPC   PO436504  25.885  24.266   9.364
 2782POPC   GL136505  25.967  24.667   9.136
 2782POPC   GL236506  26.353  24.785   9.198
 2782POPC   C1A36507  25.763  24.706   8.723
 2782POPC   D2A36508  25.849  24.342   8.405
 2782POPC   C3A36509  25.885  24.250   7.930
 2782POPC   C4A36510  26.272  24.276   7.643
 2782POPC   C1B36511  26.307  24.739   8.777
 2782POPC   C2B36512  26.156  24.811   8.401
 2782POPC   C3B36513  26.193  24.607   8.064
 2782POPC   C4B36514  25.983  24.742   7.708
 2783POPC   NC336515  10.153  38.328   9.603
 2783POPC   PO436516   9.743  38.837   9.522
 2783POPC   GL136517   9.941  38.622   9.187
 2783POPC   GL236518  10.088  38.314   9.093
 2783POPC   C1A36519   9.779  38.597   8.762
 2783POPC   D2A36520   9.417  38.587   8.491
 2783POPC   C3A36521   9.494  38.575   8.043
 2783POPC   C4A36522   9.258  38.590   7.641
 2783POPC   C1B36523  10.237  38.392   8.663
 2783POPC   C2B36524   9.970  38.407   8.306
 2783POPC   C3B36525   9.905  38.150   7.961
 2783POPC   C4B36526   9.650  38.231   7.668
 2784POPC   NC336527  32.443   7.160   9.704
 2784POPC   PO436528  31.939   6.693   9.599
 2784POPC   GL136529  32.068   6.637   9.172
 2784POPC   GL236530  32.138   6.973   9.058
 2784POPC   C1A36531  32.136   6.430   8.772
 2784POPC   D2A36532  32.099   6.610   8.350
 2784POPC   C3A36533  32.200   6.399   7.980
 2784POPC   C4A36534  32.236   6.615   7.591
 2784POPC   C1B36535  32.450   6.846   8.758
 2784POPC   C2B36536  32.525   6.961   8.370
 2784POPC   C3B36537  32.338   6.938   7.981
 2784POPC   C4B36538  32.345   7.116   7.583
 2785POPC   NC336539   1.443  13.471   9.368
 2785POPC   PO436540   0.857  13.793   9.466
 2785POPC   GL136541   1.134  13.802   9.142
 2785POPC   GL236542   1.028  13.449   9.075
 2785POPC   C1A36543   1.394  13.801   8.775
 2785POPC   D2A36544   1.336  13.552   8.424
 2785POPC   C3A36545   1.385  13.670   8.000
 2785POPC   C4A36546   1.311  13.443   7.607
 2785POPC   C1B36547   0.885  13.653   8.732
 2785POPC   C2B36548   0.823  13.476   8.373
 2785POPC   C3B36549   0.879  13.648   8.002
 2785POPC   C4B36550   0.784  13.512   7.632
 2786POPC   NC336551   9.722  34.247   9.252
 2786POPC   PO436552   9.932  34.626   9.743
 2786POPC   GL136553   9.954  34.774   9.249
 2786POPC   GL236554   9.618  34.822   9.052
 2786POPC   C1A36555   9.994  34.754   8.748
 2786POPC   D2A36556  10.004  34.490   8.338
 2786POPC   C3A36557  10.061  34.683   7.916
 2786POPC   C4A36558   9.826  34.685   7.494
 2786POPC   C1B36559   9.525  34.578   8.690
 2786POPC   C2B36560   9.510  34.570   8.263
 2786POPC   C3B36561   9.631  34.413   7.901
 2786POPC   C4B36562   9.361  34.180   7.716
 2787POPC   NC336563  10.386  26.323   9.376
 2787POPC   PO436564  10.768  25.846   9.654
 2787POPC   GL136565  10.527  25.765   9.239
 2787POPC   GL236566  10.618  26.038   9.019
 2787POPC   C1A36567  10.218  25.819   8.851
 2787POPC   D2A36568  10.430  25.893   8.459
 2787POPC   C3A36569  10.225  25.932   8.067
 2787POPC   C4A36570  10.499  25.945   7.737
 2787POPC   C1B36571  10.607  26.312   8.672
 2787POPC   C2B36572  10.456  26.386   8.239
 2787POPC   C3B36573  10.739  26.383   7.843
 2787POPC   C4B36574  10.886  26.447   7.406
 2788POPC   NC336575   2.587  31.206   9.731
 2788POPC   PO436576   2.442  30.530   9.642
 2788POPC   GL136577   2.704  30.786   9.324
 2788POPC   GL236578   2.494  31.020   9.193
 2788POPC   C1A36579   2.853  30.638   8.885
 2788POPC   D2A36580   3.015  30.436   8.490
 2788POPC   C3A36581   2.746  30.536   8.153
 2788POPC   C4A36582   2.655  30.600   7.728
 2788POPC   C1B36583   2.666  31.114   8.802
 2788POPC   C2B36584   2.623  30.967   8.387
 2788POPC   C3B36585   2.734  31.067   7.959
 2788POPC   C4B36586   2.665  31.063   7.497
 2789POPC   NC336587  15.771  31.823   9.336
 2789POPC   PO436588  15.486  32.429   9.529
 2789POPC   GL136589  15.645  32.294   9.094
 2789POPC   GL236590  16.006  32.135   9.036
 2789POPC   C1A36591  15.867  32.508   8.741
 2789POPC   D2A36592  16.061  32.411   8.374
 2789POPC   C3A36593  15.886  32.186   8.083
 2789POPC   C4A36594  15.768  32.465   7.758
 2789POPC   C1B36595  16.276  32.063   8.676
 2789POPC   C2B36596  16.374  32.036   8.228
 2789POPC   C3B36597  16.276  32.116   7.763
 2789POPC   C4B36598  16.298  31.914   7.345
 2790POPC   NC336599   9.885  31.027   9.510
 2790POPC   PO436600   9.831  30.363   9.453
 2790POPC   GL136601   9.924  30.619   9.134
 2790POPC   GL236602   9.626  30.832   9.077
 2790POPC   C1A36603   9.917  30.539   8.717
 2790POPC   D2A36604   9.528  30.654   8.529
 2790POPC   C3A36605   9.570  30.622   8.102
 2790POPC   C4A36606   9.816  30.621   7.746
 2790POPC   C1B36607   9.456  31.114   8.726
 2790POPC   C2B36608   9.462  31.153   8.251
 2790POPC   C3B36609   9.748  31.092   7.909
 2790POPC   C4B36610   9.669  31.108   7.438
 2791POPC   NC336611  10.943  10.690   9.600
 2791POPC   PO436612  11.477  10.344   9.295
 2791POPC   GL136613  11.418  10.623   8.993
 2791POPC   GL236614  11.077  10.589   9.058
 2791POPC   C1A36615  11.632  10.617   8.583
 2791POPC   D2A36616  11.661  10.915   8.290
 2791POPC   C3A36617  11.299  10.822   8.059
 2791POPC   C4A36618  11.099  10.510   7.793
 2791POPC   C1B36619  11.210  10.315   8.683
 2791POPC   C2B36620  11.144  10.361   8.281
 2791POPC   C3B36621  10.851  10.145   8.060
 2791POPC   C4B36622  10.890   9.902   7.703
 2792POPC   NC336623  40.629   3.618   9.451
 2792POPC   PO436624  41.364   3.780   9.501
 2792POPC   GL136625  41.154   3.632   9.141
 2792POPC   GL236626  40.875   3.850   9.078
 2792POPC   C1A36627  41.168   3.377   8.772
 2792POPC   D2A36628  40.962   3.279   8.380
 2792POPC   C3A36629  41.008   3.424   7.963
 2792POPC   C4A36630  41.044   3.444   7.503
 2792POPC   C1B36631  40.741   3.640   8.699
 2792POPC   C2B36632  40.610   3.646   8.261
 2792POPC   C3B36633  40.444   3.910   7.949
 2792POPC   C4B36634  40.473   4.061   7.505
 2793POPC   NC336635  24.913   0.755   9.950
 2793POPC   PO436636  24.516   0.413   9.583
 2793POPC   GL136637  24.427   0.328   9.156
 2793POPC   GL236638  24.134   0.181   9.079
 2793POPC   C1A36639  24.699   0.287   8.784
 2793POPC   D2A36640  24.641   0.095   8.363
 2793POPC   C3A36641  24.859   0.250   8.018
 2793POPC   C4A36642  24.666   0.284   7.644
 2793POPC   C1B36643  24.247   0.072   8.699
 2793POPC   C2B36644  24.136   0.318   8.351
 2793POPC   C3B36645  24.234   0.304   7.915
 2793POPC   C4B36646  24.238   0.504   7.504
 2794POPC   NC336647  34.879   8.506   9.436
 2794POPC   PO436648  34.630   9.171   9.451
 2794POPC   GL136649  34.652   9.088   9.064
 2794POPC   GL236650  34.543   8.766   9.063
 2794POPC   C1A36651  34.477   9.133   8.674
 2794POPC   D2A36652  34.279   8.947   8.312
 2794POPC   C3A36653  34.475   9.072   7.908
 2794POPC   C4A36654  34.787   9.372   7.933
 2794POPC   C1B36655  34.652   8.611   8.681
 2794POPC   C2B36656  34.578   8.533   8.247
 2794POPC   C3B36657  34.264   8.600   7.933
 2794POPC   C4B36658  34.307   8.698   7.501
 2795POPC   NC336659  27.877  28.937   9.606
 2795POPC   PO436660  27.319  29.280   9.486
 2795POPC   GL136661  27.438  29.411   9.093
 2795POPC   GL236662  27.647  29.162   8.992
 2795POPC   C1A36663  27.557  29.587   8.708
 2795POPC   D2A36664  27.762  29.448   8.330
 2795POPC   C3A36665  27.445  29.398   8.037
 2795POPC   C4A36666  27.369  29.172   7.674
 2795POPC   C1B36667  27.737  28.868   8.640
 2795POPC   C2B36668  27.638  28.935   8.204
 2795POPC   C3B36669  27.845  29.137   7.854
 2795POPC   C4B36670  27.782  28.937   7.477
 2796POPC   NC336671  24.396  11.247   9.560
 2796POPC   PO436672  23.926  10.822   9.325
 2796POPC   GL136673  24.303  11.064   9.083
 2796POPC   GL236674  24.518  11.402   9.102
 2796POPC   C1A36675  24.290  11.255   8.656
 2796POPC   D2A36676  24.486  11.002   8.333
 2796POPC   C3A36677  24.364  11.024   7.915
 2796POPC   C4A36678  24.534  11.147   7.493
 2796POPC   C1B36679  24.662  11.586   8.723
 2796POPC   C2B36680  24.611  11.508   8.274
 2796POPC   C3B36681  24.659  11.534   7.842
 2796POPC   C4B36682  24.266  11.487   7.761
 2797POPC   NC336683  21.379  35.116   9.289
 2797POPC   PO436684  21.287  34.535   9.440
 2797POPC   GL136685  21.445  34.649   9.049
 2797POPC   GL236686  21.224  34.891   8.865
 2797POPC   C1A36687  21.545  34.412   8.693
 2797POPC   D2A36688  21.480  34.439   8.274
 2797POPC   C3A36689  21.154  34.243   8.068
 2797POPC   C4A36690  21.249  34.353   7.655
 2797POPC   C1B36691  21.577  35.059   8.638
 2797POPC   C2B36692  21.802  34.838   8.327
 2797POPC   C3B36693  21.604  34.802   7.910
 2797POPC   C4B36694  21.806  34.936   7.546
 2798POPC   NC336695  34.429  11.019   9.577
 2798POPC   PO436696  34.228  11.622   9.312
 2798POPC   GL136697  34.551  11.463   9.109
 2798POPC   GL236698  34.659  11.126   9.138
 2798POPC   C1A36699  34.515  11.434   8.709
 2798POPC   D2A36700  34.318  11.493   8.370
 2798POPC   C3A36701  34.537  11.461   8.011
 2798POPC   C4A36702  34.319  11.415   7.674
 2798POPC   C1B36703  34.662  10.967   8.743
 2798POPC   C2B36704  34.587  11.052   8.339
 2798POPC   C3B36705  34.525  10.958   7.914
 2798POPC   C4B36706  34.797  11.176   7.612
 2799POPC   NC336707  40.498  30.131   9.503
 2799POPC   PO436708  41.063  29.795   9.490
 2799POPC   GL136709  40.820  29.929   9.157
 2799POPC   GL236710  40.495  29.744   9.176
 2799POPC   C1A36711  40.918  30.082   8.766
 2799POPC   D2A36712  41.044  29.838   8.424
 2799POPC   C3A36713  40.888  30.023   8.083
 2799POPC   C4A36714  41.026  29.893   7.696
 2799POPC   C1B36715  40.422  30.035   8.842
 2799POPC   C2B36716  40.509  30.192   8.435
 2799POPC   C3B36717  40.392  30.164   7.995
 2799POPC   C4B36718  40.647  30.220   7.656
 2800POPC   NC336719  26.241  27.404   9.407
 2800POPC   PO436720  25.589  27.656   9.583
 2800POPC   GL136721  25.845  27.668   9.204
 2800POPC   GL236722  26.127  27.899   9.177
 2800POPC   C1A36723  25.964  27.625   8.777
 2800POPC   D2A36724  26.196  27.564   8.421
 2800POPC   C3A36725  25.984  27.666   8.114
 2800POPC   C4A36726  25.919  27.689   7.742
 2800POPC   C1B36727  26.363  27.991   8.788
 2800POPC   C2B36728  26.510  27.979   8.336
 2800POPC   C3B36729  26.430  27.829   7.887
 2800POPC   C4B36730  26.353  27.567   7.493
 2801POPC   NC336731  10.529  30.208   9.797
 2801POPC   PO436732  10.850  29.593   9.557
 2801POPC   GL136733  10.724  29.773   9.156
 2801POPC   GL236734  10.656  30.046   9.065
 2801POPC   C1A36735  10.905  29.817   8.708
 2801POPC   D2A36736  10.650  29.812   8.341
 2801POPC   C3A36737  10.505  30.062   7.989
 2801POPC   C4A36738  10.560  29.965   7.539
 2801POPC   C1B36739  10.407  30.022   8.731
 2801POPC   C2B36740  10.309  30.316   8.433
 2801POPC   C3B36741  10.034  30.350   8.120
 2801POPC   C4B36742  10.052  30.150   7.729
 2802POPC   NC336743  36.517   9.602   9.481
 2802POPC   PO436744  35.881   9.292   9.412
 2802POPC   GL136745  35.967   9.576   9.073
 2802POPC   GL236746  36.282   9.511   9.039
 2802POPC   C1A36747  36.040   9.785   8.668
 2802POPC   D2A36748  36.266   9.836   8.285
 2802POPC   C3A36749  36.185  10.127   7.968
 2802POPC   C4A36750  36.084   9.892   7.595
 2802POPC   C1B36751  36.451   9.438   8.643
 2802POPC   C2B36752  36.665   9.523   8.234
 2802POPC   C3B36753  36.444   9.599   7.835
 2802POPC   C4B36754  36.350   9.484   7.384
 2803POPC   NC336755  24.466  27.496   9.481
 2803POPC   PO436756  24.948  27.979   9.350
 2803POPC   GL136757  24.642  27.754   9.085
 2803POPC   GL236758  24.630  27.373   9.005
 2803POPC   C1A36759  24.333  27.761   8.768
 2803POPC   D2A36760  24.273  27.697   8.343
 2803POPC   C3A36761  24.620  27.633   8.050
 2803POPC   C4A36762  24.435  27.708   7.641
 2803POPC   C1B36763  24.213  27.264   8.810
 2803POPC   C2B36764  24.075  27.210   8.360
 2803POPC   C3B36765  24.183  27.377   7.931
 2803POPC   C4B36766  24.154  27.354   7.430
 2804POPC   NC336767  32.709   7.759   9.530
 2804POPC   PO436768  32.983   7.226   9.677
 2804POPC   GL136769  32.843   7.177   9.267
 2804POPC   GL236770  32.978   7.470   9.206
 2804POPC   C1A36771  32.936   7.089   8.811
 2804POPC   D2A36772  32.862   7.370   8.447
 2804POPC   C3A36773  32.800   7.241   8.040
 2804POPC   C4A36774  32.926   7.391   7.677
 2804POPC   C1B36775  33.130   7.554   8.840
 2804POPC   C2B36776  33.371   7.564   8.488
 2804POPC   C3B36777  33.196   7.600   8.107
 2804POPC   C4B36778  33.313   7.818   7.776
 2805POPC   NC336779   0.795  40.753   9.523
 2805POPC   PO436780   0.263  40.332   9.452
 2805POPC   GL136781   0.461  40.627   9.149
 2805POPC   GL236782   0.448  40.980   9.150
 2805POPC   C1A36783   0.415  40.781   8.708
 2805POPC   D2A36784   0.321  40.624   8.343
 2805POPC   C3A36785   0.552  40.782   8.038
 2805POPC   C4A36786   0.524  40.659   7.655
 2805POPC   C1B36787   0.143  41.199   8.813
 2805POPC   C2B36788   0.230  41.124   8.335
 2805POPC   C3B36789   0.287  41.193   7.881
 2805POPC   C4B36790   0.244  41.069   7.429
 2806POPC   NC336791  26.983  37.022   9.486
 2806POPC   PO436792  26.370  37.105   9.783
 2806POPC   GL136793  26.440  36.824   9.323
 2806POPC   GL236794  26.732  36.820   9.100
 2806POPC   C1A36795  26.352  36.886   8.806
 2806POPC   D2A36796  26.554  37.081   8.470
 2806POPC   C3A36797  26.373  36.971   8.100
 2806POPC   C4A36798  26.549  36.933   7.739
 2806POPC   C1B36799  26.905  36.751   8.692
 2806POPC   C2B36800  27.132  36.883   8.342
 2806POPC   C3B36801  27.147  36.841   7.903
 2806POPC   C4B36802  27.183  36.515   7.627
 2807POPC   NC336803  25.463  25.490   9.473
 2807POPC   PO436804  24.831  25.545   9.462
 2807POPC   GL136805  25.102  25.297   9.182
 2807POPC   GL236806  24.866  25.225   9.000
 2807POPC   C1A36807  25.308  25.089   8.804
 2807POPC   D2A36808  25.536  25.233   8.446
 2807POPC   C3A36809  25.434  25.148   8.039
 2807POPC   C4A36810  25.364  25.538   7.832
 2807POPC   C1B36811  25.049  25.537   8.738
 2807POPC   C2B36812  24.838  25.540   8.371
 2807POPC   C3B36813  24.949  25.295   8.046
 2807POPC   C4B36814  25.091  25.168   7.643
 2808POPC   NC336815  18.752  30.971   9.344
 2808POPC   PO436816  19.340  30.500   9.414
 2808POPC   GL136817  19.096  30.688   9.103
 2808POPC   GL236818  18.750  30.591   9.004
 2808POPC   C1A36819  19.099  30.744   8.670
 2808POPC   D2A36820  19.276  30.503   8.380
 2808POPC   C3A36821  19.237  30.640   7.972
 2808POPC   C4A36822  19.314  30.330   7.760
 2808POPC   C1B36823  18.588  30.843   8.697
 2808POPC   C2B36824  18.699  30.750   8.308
 2808POPC   C3B36825  18.720  30.839   7.935
 2808POPC   C4B36826  18.810  30.564   7.656
 2809POPC   NC336827  30.344   7.907   9.681
 2809POPC   PO436828  29.705   8.190   9.520
 2809POPC   GL136829  29.920   8.349   9.181
 2809POPC   GL236830  29.860   8.042   9.059
 2809POPC   C1A36831  29.999   8.375   8.731
 2809POPC   D2A36832  29.825   8.395   8.327
 2809POPC   C3A36833  30.090   8.277   7.982
 2809POPC   C4A36834  29.782   8.136   7.754
 2809POPC   C1B36835  29.874   7.792   8.699
 2809POPC   C2B36836  30.108   7.936   8.385
 2809POPC   C3B36837  30.059   7.773   8.009
 2809POPC   C4B36838  30.229   7.877   7.625
 2810POPC   NC336839  27.047  28.867   9.461
 2810POPC   PO436840  26.641  29.412   9.472
 2810POPC   GL136841  26.585  29.218   9.102
 2810POPC   GL236842  26.958  29.219   9.093
 2810POPC   C1A36843  26.684  29.350   8.690
 2810POPC   D2A36844  27.088  29.305   8.437
 2810POPC   C3A36845  26.954  29.267   7.999
 2810POPC   C4A36846  26.882  29.108   7.587
 2810POPC   C1B36847  26.907  28.913   8.773
 2810POPC   C2B36848  26.708  28.959   8.360
 2810POPC   C3B36849  26.619  28.851   7.948
 2810POPC   C4B36850  26.371  29.046   7.621
 2811POPC   NC336851   9.792  28.010   9.458
 2811POPC   PO436852   9.648  28.630   9.464
 2811POPC   GL136853   9.891  28.447   9.131
 2811POPC   GL236854   9.999  28.144   8.986
 2811POPC   C1A36855   9.982  28.593   8.726
 2811POPC   D2A36856   9.882  28.332   8.369
 2811POPC   C3A36857   9.759  28.608   8.080
 2811POPC   C4A36858  10.012  28.670   7.767
 2811POPC   C1B36859   9.580  28.309   8.769
 2811POPC   C2B36860   9.342  28.446   8.404
 2811POPC   C3B36861   9.377  28.308   7.964
 2811POPC   C4B36862   9.772  28.150   7.818
 2812POPC   NC336863  38.796  23.368   9.387
 2812POPC   PO436864  38.190  23.770   9.656
 2812POPC   GL136865  38.413  23.702   9.297
 2812POPC   GL236866  38.166  23.488   9.195
 2812POPC   C1A36867  38.604  23.872   8.919
 2812POPC   D2A36868  38.637  23.627   8.560
 2812POPC   C3A36869  38.568  23.679   8.127
 2812POPC   C4A36870  38.831  23.839   7.836
 2812POPC   C1B36871  38.141  23.693   8.814
 2812POPC   C2B36872  38.109  23.749   8.391
 2812POPC   C3B36873  38.136  23.917   7.980
 2812POPC   C4B36874  38.175  23.639   7.647
 2813POPC   NC336875  22.710   7.866   9.649
 2813POPC   PO436876  23.129   8.390   9.455
 2813POPC   GL136877  22.849   8.267   9.131
 2813POPC   GL236878  22.587   8.032   9.183
 2813POPC   C1A36879  22.887   8.317   8.710
 2813POPC   D2A36880  23.100   8.127   8.408
 2813POPC   C3A36881  22.962   8.279   8.036
 2813POPC   C4A36882  23.168   8.297   7.674
 2813POPC   C1B36883  22.410   8.107   8.782
 2813POPC   C2B36884  22.527   8.164   8.358
 2813POPC   C3B36885  22.605   7.897   8.024
 2813POPC   C4B36886  22.761   8.008   7.628
 2814POPC   NC336887  35.662  18.502   9.343
 2814POPC   PO436888  35.548  17.921   9.709
 2814POPC   GL136889  35.295  17.959   9.208
 2814POPC   GL236890  35.330  18.288   9.037
 2814POPC   C1A36891  35.283  17.942   8.687
 2814POPC   D2A36892  35.117  18.244   8.352
 2814POPC   C3A36893  35.322  18.276   7.927
 2814POPC   C4A36894  35.754  18.316   7.783
 2814POPC   C1B36895  35.384  18.604   8.689
 2814POPC   C2B36896  35.001  18.798   8.532
 2814POPC   C3B36897  34.886  18.663   8.140
 2814POPC   C4B36898  35.063  18.748   7.750
 2815POPC   NC336899  23.739  10.781   9.743
 2815POPC   PO436900  23.670  10.069   9.635
 2815POPC   GL136901  23.449  10.351   9.259
 2815POPC   GL236902  23.726  10.513   8.996
 2815POPC   C1A36903  23.278  10.535   8.828
 2815POPC   D2A36904  23.562  10.684   8.519
 2815POPC   C3A36905  23.498  10.607   8.096
 2815POPC   C4A36906  23.587  10.765   7.665
 2815POPC   C1B36907  23.960  10.309   8.693
 2815POPC   C2B36908  23.859  10.271   8.291
 2815POPC   C3B36909  24.045  10.113   7.925
 2815POPC   C4B36910  24.263  10.327   7.630
 2816POPC   NC336911  34.720  11.850   9.482
 2816POPC   PO436912  34.576  12.535   9.521
 2816POPC   GL136913  34.546  12.349   9.070
 2816POPC   GL236914  34.580  11.982   9.037
 2816POPC   C1A36915  34.567  12.225   8.616
 2816POPC   D2A36916  34.552  11.925   8.272
 2816POPC   C3A36917  34.503  11.930   7.810
 2816POPC   C4A36918  34.661  12.153   7.435
 2816POPC   C1B36919  34.837  11.812   8.746
 2816POPC   C2B36920  34.884  11.549   8.388
 2816POPC   C3B36921  34.983  11.710   8.041
 2816POPC   C4B36922  34.922  11.708   7.634
 2817POPC   NC336923  25.247   7.933   9.475
 2817POPC   PO436924  25.552   8.490   9.737
 2817POPC   GL136925  25.381   8.329   9.199
 2817POPC   GL236926  25.108   8.211   8.997
 2817POPC   C1A36927  25.520   8.087   8.749
 2817POPC   D2A36928  25.589   7.855   8.339
 2817POPC   C3A36929  25.375   8.005   7.981
 2817POPC   C4A36930  25.110   8.176   7.673
 2817POPC   C1B36931  25.040   8.064   8.578
 2817POPC   C2B36932  24.889   8.059   8.178
 2817POPC   C3B36933  24.753   8.432   7.960
 2817POPC   C4B36934  24.816   8.567   7.545
 2818POPC   NC336935   4.996  31.868   9.492
 2818POPC   PO436936   5.401  31.391   9.394
 2818POPC   GL136937   5.114  31.399   9.086
 2818POPC   GL236938   4.820  31.569   9.112
 2818POPC   C1A36939   5.207  31.541   8.675
 2818POPC   D2A36940   5.032  31.524   8.271
 2818POPC   C3A36941   5.160  31.388   7.861
 2818POPC   C4A36942   5.387  31.709   7.717
 2818POPC   C1B36943   4.632  31.715   8.750
 2818POPC   C2B36944   4.543  31.550   8.344
 2818POPC   C3B36945   4.676  31.536   7.907
 2818POPC   C4B36946   4.897  31.716   7.537
 2819POPC   NC336947  26.322  35.104   9.426
 2819POPC   PO436948  26.183  34.391   9.513
 2819POPC   GL136949  26.036  34.460   9.135
 2819POPC   GL236950  26.184  34.774   9.084
 2819POPC   C1A36951  26.192  34.435   8.707
 2819POPC   D2A36952  26.364  34.605   8.345
 2819POPC   C3A36953  26.042  34.458   8.073
 2819POPC   C4A36954  26.013  34.289   7.719
 2819POPC   C1B36955  25.807  34.798   8.823
 2819POPC   C2B36956  25.902  34.826   8.390
 2819POPC   C3B36957  26.115  34.933   7.986
 2819POPC   C4B36958  25.835  34.801   7.677
 2820POPC   NC336959  34.835  28.992   9.515
 2820POPC   PO436960  34.392  29.464   9.540
 2820POPC   GL136961  34.554  29.234   9.182
 2820POPC   GL236962  34.456  28.851   9.160
 2820POPC   C1A36963  34.700  29.204   8.778
 2820POPC   D2A36964  34.438  29.153   8.426
 2820POPC   C3A36965  34.565  29.324   8.063
 2820POPC   C4A36966  34.352  29.217   7.710
 2820POPC   C1B36967  34.602  28.697   8.748
 2820POPC   C2B36968  34.824  28.813   8.377
 2820POPC   C3B36969  34.546  28.809   8.031
 2820POPC   C4B36970  34.512  28.735   7.628
 2821POPC   NC336971  12.987  22.754   9.787
 2821POPC   PO436972  12.685  23.226   9.532
 2821POPC   GL136973  12.864  23.131   9.139
 2821POPC   GL236974  13.032  22.794   9.136
 2821POPC   C1A36975  12.825  23.016   8.698
 2821POPC   D2A36976  13.009  23.110   8.290
 2821POPC   C3A36977  12.680  23.125   7.986
 2821POPC   C4A36978  12.664  23.087   7.531
 2821POPC   C1B36979  13.215  22.658   8.726
 2821POPC   C2B36980  13.070  22.539   8.295
 2821POPC   C3B36981  12.992  22.744   7.897
 2821POPC   C4B36982  12.914  22.665   7.442
 2822POPC   NC336983  36.347  43.404   9.251
 2822POPC   PO436984  35.965  42.883   9.550
 2822POPC   GL136985  36.145  42.921   9.152
 2822POPC   GL236986  35.916  43.109   8.998
 2822POPC   C1A36987  36.351  42.804   8.759
 2822POPC   D2A36988  36.172  42.783   8.350
 2822POPC   C3A36989  36.241  42.922   7.910
 2822POPC   C4A36990  36.365  43.257   7.658
 2822POPC   C1B36991  36.154  43.278   8.638
 2822POPC   C2B36992  36.182  43.343   8.197
 2822POPC   C3B36993  35.906  43.412   7.855
 2822POPC   C4B36994  36.009  43.610   7.453
 2823POPC   NC336995  32.627  25.497   9.410
 2823POPC   PO436996  33.302  25.542   9.523
 2823POPC   GL136997  33.045  25.222   9.245
 2823POPC   GL236998  33.281  25.106   9.019
 2823POPC   C1A36999  32.819  25.152   8.813
 2823POPC   D2A37000  33.009  25.252   8.386
 2823POPC   C3A37001  32.819  25.186   7.978
 2823POPC   C4A37002  32.959  25.111   7.535
 2823POPC   C1B37003  33.363  25.431   8.703
 2823POPC   C2B37004  33.296  25.682   8.333
 2823POPC   C3B37005  33.102  25.604   7.947
 2823POPC   C4B37006  33.127  25.757   7.548
 2824POPC   NC337007  28.223  44.336   9.575
 2824POPC   PO437008  28.524  43.696   9.478
 2824POPC   GL137009  28.295  43.745   9.109
 2824POPC   GL237010  28.321  44.088   9.132
 2824POPC   C1A37011  28.386  43.851   8.684
 2824POPC   D2A37012  28.334  43.654   8.307
 2824POPC   C3A37013  28.051  43.754   7.998
 2824POPC   C4A37014  28.403  43.805   7.702
 2824POPC   C1B37015  28.104  44.268   8.752
 2824POPC   C2B37016  28.073  44.127   8.347
 2824POPC   C3B37017  28.191  44.241   7.931
 2824POPC   C4B37018  27.976  44.067   7.571
 2825POPC   NC337019  40.506  25.324   9.580
 2825POPC   PO437020  41.140  25.081   9.433
 2825POPC   GL137021  40.757  25.149   9.153
 2825POPC   GL237022  40.362  25.205   9.131
 2825POPC   C1A37023  40.615  24.945   8.780
 2825POPC   D2A37024  40.786  25.065   8.397
 2825POPC   C3A37025  40.569  25.046   8.038
 2825POPC   C4A37026  40.812  25.240   7.694
 2825POPC   C1B37027  40.535  25.471   8.820
 2825POPC   C2B37028  40.415  25.433   8.411
 2825POPC   C3B37029  40.644  25.564   8.062
 2825POPC   C4B37030  40.675  25.750   7.664
 2826POPC   NC337031  19.517  18.737   9.412
 2826POPC   PO437032  20.017  19.262   9.497
 2826POPC   GL137033  19.988  19.338   9.096
 2826POPC   GL237034  19.689  19.224   9.031
 2826POPC   C1A37035  20.133  19.272   8.679
 2826POPC   D2A37036  19.954  19.236   8.272
 2826POPC   C3A37037  20.042  18.845   8.059
 2826POPC   C4A37038  20.326  18.783   7.748
 2826POPC   C1B37039  19.503  18.937   8.717
 2826POPC   C2B37040  19.544  18.895   8.269
 2826POPC   C3B37041  19.625  19.103   7.886
 2826POPC   C4B37042  19.540  19.270   7.474
 2827POPC   NC337043   8.167  27.933   9.541
 2827POPC   PO437044   8.451  27.332   9.463
 2827POPC   GL137045   8.177  27.550   9.178
 2827POPC   GL237046   8.466  27.706   9.101
 2827POPC   C1A37047   8.122  27.728   8.746
 2827POPC   D2A37048   8.042  27.666   8.348
 2827POPC   C3A37049   8.213  27.884   8.034
 2827POPC   C4A37050   8.050  27.659   7.720
 2827POPC   C1B37051   8.551  27.376   8.774
 2827POPC   C2B37052   8.328  27.252   8.400
 2827POPC   C3B37053   8.318  27.299   7.981
 2827POPC   C4B37054   8.665  27.282   7.700
 2828POPC   NC337055  44.676  16.653   9.533
 2828POPC   PO437056   0.009  16.090   9.450
 2828POPC   GL137057  44.948  16.459   9.118
 2828POPC   GL237058  44.853  16.857   9.105
 2828POPC   C1A37059  44.710  16.560   8.718
 2828POPC   D2A37060  44.526  16.691   8.310
 2828POPC   C3A37061  44.660  16.704   7.860
 2828POPC   C4A37062  44.379  16.563   7.513
 2828POPC   C1B37063  44.947  17.049   8.689
 2828POPC   C2B37064  44.954  16.971   8.240
 2828POPC   C3B37065   0.063  17.102   7.835
 2828POPC   C4B37066   0.006  17.039   7.405
 2829POPC   NC337067   7.587  31.358   9.521
 2829POPC   PO437068   7.167  31.945   9.455
 2829POPC   GL137069   7.322  31.656   9.181
 2829POPC   GL237070   7.672  31.703   9.147
 2829POPC   C1A37071   7.263  31.664   8.749
 2829POPC   D2A37072   7.398  31.451   8.400
 2829POPC   C3A37073   7.288  31.627   8.020
 2829POPC   C4A37074   7.454  31.443   7.671
 2829POPC   C1B37075   7.629  31.321   8.861
 2829POPC   C2B37076   7.687  31.036   8.505
 2829POPC   C3B37077   7.671  31.162   8.064
 2829POPC   C4B37078   7.760  31.016   7.658
 2830POPC   NC337079  43.135  23.233   9.828
 2830POPC   PO437080  43.087  22.810   9.292
 2830POPC   GL137081  43.334  22.984   9.055
 2830POPC   GL237082  43.119  23.186   8.918
 2830POPC   C1A37083  43.385  22.853   8.645
 2830POPC   D2A37084  43.148  22.881   8.298
 2830POPC   C3A37085  43.313  22.682   7.984
 2830POPC   C4A37086  43.259  22.714   7.588
 2830POPC   C1B37087  42.921  23.221   8.599
 2830POPC   C2B37088  42.699  23.139   8.270
 2830POPC   C3B37089  42.918  23.070   7.874
 2830POPC   C4B37090  42.785  22.864   7.521
 2831POPC   NC337091  18.828  12.539   9.329
 2831POPC   PO437092  19.293  12.868   9.817
 2831POPC   GL137093  19.205  12.858   9.273
 2831POPC   GL237094  18.979  13.117   9.131
 2831POPC   C1A37095  19.350  12.888   8.820
 2831POPC   D2A37096  19.137  12.824   8.402
 2831POPC   C3A37097  19.294  12.745   7.963
 2831POPC   C4A37098  19.085  12.809   7.571
 2831POPC   C1B37099  19.025  13.271   8.686
 2831POPC   C2B37100  18.985  13.258   8.200
 2831POPC   C3B37101  19.010  13.287   7.749
 2831POPC   C4B37102  18.826  13.179   7.346
 2832POPC   NC337103  34.229  26.554   9.630
 2832POPC   PO437104  33.730  26.989   9.413
 2832POPC   GL137105  33.970  26.711   9.173
 2832POPC   GL237106  34.010  26.337   9.235
 2832POPC   C1A37107  33.889  26.829   8.749
 2832POPC   D2A37108  33.701  26.930   8.362
 2832POPC   C3A37109  33.958  26.730   8.090
 2832POPC   C4A37110  33.889  26.718   7.678
 2832POPC   C1B37111  33.707  26.368   8.887
 2832POPC   C2B37112  33.489  26.460   8.501
 2832POPC   C3B37113  33.514  26.456   8.036
 2832POPC   C4B37114  33.902  26.244   7.870
 2833POPC   NC337115  26.340  23.031   9.571
 2833POPC   PO437116  26.990  23.005   9.434
 2833POPC   GL137117  26.665  22.932   9.172
 2833POPC   GL237118  26.615  23.261   9.049
 2833POPC   C1A37119  26.566  22.868   8.742
 2833POPC   D2A37120  26.556  23.111   8.358
 2833POPC   C3A37121  26.436  22.866   8.013
 2833POPC   C4A37122  26.799  22.852   7.794
 2833POPC   C1B37123  26.971  23.194   8.690
 2833POPC   C2B37124  27.239  23.289   8.296
 2833POPC   C3B37125  27.087  23.544   7.924
 2833POPC   C4B37126  26.810  23.372   7.679
 2834POPC   NC337127  14.052  23.182   9.371
 2834POPC   PO437128  14.499  23.412   9.903
 2834POPC   GL137129  14.553  23.200   9.309
 2834POPC   GL237130  14.391  23.347   9.009
 2834POPC   C1A37131  14.645  22.946   8.864
 2834POPC   D2A37132  14.557  23.116   8.414
 2834POPC   C3A37133  14.523  22.915   7.999
 2834POPC   C4A37134  14.581  23.204   7.643
 2834POPC   C1B37135  14.153  23.100   8.726
 2834POPC   C2B37136  14.181  22.758   8.442
 2834POPC   C3B37137  14.005  22.753   8.043
 2834POPC   C4B37138  14.078  22.913   7.645
 2835POPC   NC337139  39.153  29.042   9.511
 2835POPC   PO437140  39.281  29.723   9.436
 2835POPC   GL137141  39.356  29.365   9.179
 2835POPC   GL237142  39.024  29.256   9.063
 2835POPC   C1A37143  39.460  29.217   8.776
 2835POPC   D2A37144  39.208  29.202   8.434
 2835POPC   C3A37145  39.374  29.372   8.084
 2835POPC   C4A37146  39.110  29.407   7.729
 2835POPC   C1B37147  39.000  28.890   8.794
 2835POPC   C2B37148  38.929  28.792   8.356
 2835POPC   C3B37149  39.084  28.949   7.936
 2835POPC   C4B37150  39.181  28.981   7.449
 2836POPC   NC337151  12.475  14.007   9.446
 2836POPC   PO437152  13.137  13.872   9.602
 2836POPC   GL137153  12.992  13.902   9.165
 2836POPC   GL237154  12.650  13.896   8.998
 2836POPC   C1A37155  13.063  13.710   8.750
 2836POPC   D2A37156  12.918  13.584   8.357
 2836POPC   C3A37157  13.094  13.752   8.030
 2836POPC   C4A37158  13.060  13.459   7.731
 2836POPC   C1B37159  12.548  13.578   8.725
 2836POPC   C2B37160  12.380  13.542   8.346
 2836POPC   C3B37161  12.578  13.460   7.976
 2836POPC   C4B37162  12.653  13.723   7.634
 2837POPC   NC337163  22.128  10.736   9.374
 2837POPC   PO437164  22.443  10.139   9.459
 2837POPC   GL137165  22.312  10.322   9.107
 2837POPC   GL237166  21.974  10.288   9.036
 2837POPC   C1A37167  22.397  10.459   8.686
 2837POPC   D2A37168  22.292  10.596   8.265
 2837POPC   C3A37169  22.399  10.537   7.804
 2837POPC   C4A37170  22.422  10.252   7.404
 2837POPC   C1B37171  21.897  10.627   8.761
 2837POPC   C2B37172  21.774  10.755   8.377
 2837POPC   C3B37173  21.902  10.667   7.969
 2837POPC   C4B37174  21.943  10.830   7.579
 2838POPC   NC337175  37.972  18.989   9.474
 2838POPC   PO437176  37.328  19.028   9.556
 2838POPC   GL137177  37.561  18.980   9.157
 2838POPC   GL237178  37.825  19.239   9.053
 2838POPC   C1A37179  37.469  18.997   8.716
 2838POPC   D2A37180  37.523  19.311   8.414
 2838POPC   C3A37181  37.370  19.219   8.035
 2838POPC   C4A37182  37.552  19.136   7.669
 2838POPC   C1B37183  37.968  18.890   8.771
 2838POPC   C2B37184  37.810  18.830   8.345
 2838POPC   C3B37185  37.906  19.131   8.034
 2838POPC   C4B37186  38.020  19.293   7.619
 2839POPC   NC337187  32.603   5.736   9.855
 2839POPC   PO437188  32.935   6.231   9.586
 2839POPC   GL137189  32.787   5.863   9.325
 2839POPC   GL237190  33.107   5.843   9.126
 2839POPC   C1A37191  32.709   5.659   8.898
 2839POPC   D2A37192  33.059   5.636   8.577
 2839POPC   C3A37193  32.984   5.731   8.121
 2839POPC   C4A37194  32.793   5.694   7.703
 2839POPC   C1B37195  33.174   6.106   8.749
 2839POPC   C2B37196  33.029   6.218   8.361
 2839POPC   C3B37197  33.133   6.343   7.966
 2839POPC   C4B37198  33.138   6.066   7.648
 2840POPC   NC337199  41.930  15.315   9.530
 2840POPC   PO437200  42.631  15.323   9.538
 2840POPC   GL137201  42.409  15.198   9.181
 2840POPC   GL237202  42.088  15.063   9.119
 2840POPC   C1A37203  42.319  15.374   8.770
 2840POPC   D2A37204  42.224  15.238   8.364
 2840POPC   C3A37205  42.499  15.253   8.014
 2840POPC   C4A37206  42.327  15.134   7.641
 2840POPC   C1B37207  41.879  14.870   8.763
 2840POPC   C2B37208  41.802  14.970   8.330
 2840POPC   C3B37209  41.924  14.760   7.933
 2840POPC   C4B37210  41.967  14.831   7.466
 2841POPC   NC337211  21.151  29.417   9.550
 2841POPC   PO437212  21.061  28.798   9.596
 2841POPC   GL137213  21.211  28.997   9.192
 2841POPC   GL237214  21.443  29.300   9.154
 2841POPC   C1A37215  21.427  28.943   8.791
 2841POPC   D2A37216  21.545  28.674   8.454
 2841POPC   C3A37217  21.524  28.947   8.115
 2841POPC   C4A37218  21.590  28.875   7.747
 2841POPC   C1B37219  21.235  29.451   8.766
 2841POPC   C2B37220  21.407  29.414   8.338
 2841POPC   C3B37221  21.335  29.389   7.878
 2841POPC   C4B37222  21.554  29.577   7.535
 2842POPC   NC337223   9.978  23.277   9.462
 2842POPC   PO437224   9.627  23.889   9.548
 2842POPC   GL137225   9.750  23.914   9.123
 2842POPC   GL237226   9.795  23.584   9.109
 2842POPC   C1A37227   9.756  23.823   8.664
 2842POPC   D2A37228   9.733  24.082   8.316
 2842POPC   C3A37229   9.687  23.861   7.966
 2842POPC   C4A37230   9.824  23.890   7.559
 2842POPC   C1B37231  10.140  23.538   8.853
 2842POPC   C2B37232  10.214  23.523   8.424
 2842POPC   C3B37233  10.133  23.639   8.026
 2842POPC   C4B37234  10.090  23.455   7.613
 2843POPC   NC337235  39.558  28.531   9.543
 2843POPC   PO437236  40.192  28.400   9.555
 2843POPC   GL137237  39.984  28.362   9.178
 2843POPC   GL237238  40.063  28.027   9.126
 2843POPC   C1A37239  39.952  28.356   8.736
 2843POPC   D2A37240  39.857  28.471   8.329
 2843POPC   C3A37241  40.086  28.708   8.070
 2843POPC   C4A37242  39.978  28.454   7.688
 2843POPC   C1B37243  40.389  28.089   8.816
 2843POPC   C2B37244  40.409  28.386   8.457
 2843POPC   C3B37245  40.389  28.275   8.018
 2843POPC   C4B37246  40.272  28.051   7.631
 2844POPC   NC337247  44.112  28.844   9.234
 2844POPC   PO437248  43.742  29.247   9.666
 2844POPC   GL137249  43.926  29.337   9.230
 2844POPC   GL237250  43.727  29.138   9.014
 2844POPC   C1A37251  44.128  29.376   8.792
 2844POPC   D2A37252  43.877  29.464   8.411
 2844POPC   C3A37253  43.832  29.166   8.093
 2844POPC   C4A37254  43.995  29.145   7.695
 2844POPC   C1B37255  43.665  28.974   8.586
 2844POPC   C2B37256  43.592  28.708   8.214
 2844POPC   C3B37257  43.592  28.768   7.769
 2844POPC   C4B37258  43.366  28.735   7.379
 2845POPC   NC337259  30.775   6.131   9.635
 2845POPC   PO437260  31.216   5.660   9.769
 2845POPC   GL137261  30.934   5.812   9.297
 2845POPC   GL237262  30.946   6.207   9.165
 2845POPC   C1A37263  30.696   5.898   8.878
 2845POPC   D2A37264  30.628   5.756   8.445
 2845POPC   C3A37265  30.579   5.991   8.067
 2845POPC   C4A37266  30.501   5.762   7.700
 2845POPC   C1B37267  31.161   6.068   8.785
 2845POPC   C2B37268  31.122   5.856   8.390
 2845POPC   C3B37269  31.099   5.991   7.936
 2845POPC   C4B37270  31.001   5.851   7.506
 2846POPC   NC337271  24.115  41.619   9.542
 2846POPC   PO437272  24.724  41.411   9.459
 2846POPC   GL137273  24.565  41.693   9.109
 2846POPC   GL237274  24.164  41.802   9.085
 2846POPC   C1A37275  24.736  41.561   8.687
 2846POPC   D2A37276  24.776  41.214   8.363
 2846POPC   C3A37277  24.544  41.357   8.014
 2846POPC   C4A37278  24.746  41.751   7.943
 2846POPC   C1B37279  24.225  41.651   8.705
 2846POPC   C2B37280  24.405  41.745   8.335
 2846POPC   C3B37281  24.173  41.786   7.993
 2846POPC   C4B37282  24.052  41.436   7.793
 2847POPC   NC337283   0.118  15.628   9.582
 2847POPC   PO437284   0.511  16.031   9.782
 2847POPC   GL137285   0.471  15.899   9.320
 2847POPC   GL237286   0.693  16.101   9.148
 2847POPC   C1A37287   0.266  15.901   8.889
 2847POPC   D2A37288   0.398  16.030   8.484
 2847POPC   C3A37289   0.197  15.845   8.143
 2847POPC   C4A37290   0.149  16.072   7.783
 2847POPC   C1B37291   0.786  15.841   8.789
 2847POPC   C2B37292   0.895  15.894   8.334
 2847POPC   C3B37293   0.713  15.935   7.888
 2847POPC   C4B37294   0.512  15.790   7.490
 2848POPC   NC337295  23.093  35.589   9.596
 2848POPC   PO437296  23.015  35.001   9.486
 2848POPC   GL137297  22.800  35.231   9.168
 2848POPC   GL237298  22.966  35.582   9.105
 2848POPC   C1A37299  22.856  35.270   8.729
 2848POPC   D2A37300  23.000  35.528   8.372
 2848POPC   C3A37301  22.831  35.378   7.973
 2848POPC   C4A37302  22.816  35.122   7.629
 2848POPC   C1B37303  23.321  35.509   8.804
 2848POPC   C2B37304  23.478  35.733   8.438
 2848POPC   C3B37305  23.352  35.660   8.018
 2848POPC   C4B37306  23.098  35.630   7.643
 2849POPC   NC337307  36.060   3.859   9.316
 2849POPC   PO437308  35.706   3.369   9.567
 2849POPC   GL137309  35.918   3.350   9.116
 2849POPC   GL237310  36.280   3.443   9.134
 2849POPC   C1A37311  35.814   3.409   8.624
 2849POPC   D2A37312  35.960   3.661   8.270
 2849POPC   C3A37313  35.812   3.546   7.848
 2849POPC   C4A37314  35.918   3.715   7.440
 2849POPC   C1B37315  36.310   3.527   8.711
 2849POPC   C2B37316  36.275   3.252   8.363
 2849POPC   C3B37317  36.296   3.335   7.925
 2849POPC   C4B37318  36.148   3.288   7.508
 2850POPC   NC337319  28.808  19.714   9.365
 2850POPC   PO437320  29.460  19.660   9.447
 2850POPC   GL137321  29.274  19.826   9.095
 2850POPC   GL237322  29.005  20.095   9.073
 2850POPC   C1A37323  29.440  19.908   8.703
 2850POPC   D2A37324  29.271  19.979   8.308
 2850POPC   C3A37325  29.268  19.683   7.988
 2850POPC   C4A37326  29.300  19.959   7.683
 2850POPC   C1B37327  28.938  19.836   8.709
 2850POPC   C2B37328  28.757  19.888   8.322
 2850POPC   C3B37329  28.828  19.995   7.920
 2850POPC   C4B37330  28.890  19.670   7.647
 2851POPC   NC337331  26.497   2.190   9.381
 2851POPC   PO437332  27.053   1.806   9.377
 2851POPC   GL137333  27.157   2.072   9.019
 2851POPC   GL237334  26.804   2.228   8.945
 2851POPC   C1A37335  27.277   1.872   8.621
 2851POPC   D2A37336  26.977   2.011   8.319
 2851POPC   C3A37337  27.010   1.975   7.895
 2851POPC   C4A37338  26.921   2.251   7.554
 2851POPC   C1B37339  26.793   1.811   8.768
 2851POPC   C2B37340  26.706   1.587   8.385
 2851POPC   C3B37341  26.556   1.761   7.996
 2851POPC   C4B37342  26.649   1.775   7.518
 2852POPC   NC337343  22.319  27.007   9.816
 2852POPC   PO437344  22.281  26.405   9.552
 2852POPC   GL137345  22.260  26.384   9.096
 2852POPC   GL237346  21.940  26.484   8.968
 2852POPC   C1A37347  22.390  26.617   8.724
 2852POPC   D2A37348  22.347  26.457   8.326
 2852POPC   C3A37349  22.329  26.695   7.941
 2852POPC   C4A37350  22.528  27.077   7.836
 2852POPC   C1B37351  21.897  26.559   8.572
 2852POPC   C2B37352  21.986  26.864   8.275
 2852POPC   C3B37353  21.894  27.004   7.870
 2852POPC   C4B37354  21.910  27.053   7.421
 2853POPC   NC337355  11.011   9.088   9.474
 2853POPC   PO437356  11.642   8.849   9.530
 2853POPC   GL137357  11.455   8.964   9.156
 2853POPC   GL237358  11.281   8.665   9.149
 2853POPC   C1A37359  11.341   9.190   8.760
 2853POPC   D2A37360  11.100   9.323   8.393
 2853POPC   C3A37361  11.336   9.256   8.054
 2853POPC   C4A37362  11.401   9.005   7.735
 2853POPC   C1B37363  11.471   8.676   8.723
 2853POPC   C2B37364  11.252   8.817   8.357
 2853POPC   C3B37365  11.106   8.679   8.002
 2853POPC   C4B37366  11.289   8.522   7.626
 2854POPC   NC337367  39.569  41.243   9.390
 2854POPC   PO437368  39.835  40.634   9.598
 2854POPC   GL137369  39.962  40.849   9.227
 2854POPC   GL237370  39.854  40.563   9.068
 2854POPC   C1A37371  40.153  40.844   8.806
 2854POPC   D2A37372  39.970  40.739   8.420
 2854POPC   C3A37373  40.019  41.011   8.116
 2854POPC   C4A37374  40.065  40.884   7.724
 2854POPC   C1B37375  39.632  40.878   8.790
 2854POPC   C2B37376  39.486  40.996   8.359
 2854POPC   C3B37377  39.545  41.139   7.926
 2854POPC   C4B37378  39.642  40.992   7.503
 2855POPC   NC337379  38.885   7.580   9.758
 2855POPC   PO437380  39.437   7.336   9.289
 2855POPC   GL137381  39.343   7.568   8.915
 2855POPC   GL237382  39.694   7.548   8.822
 2855POPC   C1A37383  39.005   7.818   8.735
 2855POPC   D2A37384  38.859   7.671   8.416
 2855POPC   C3A37385  39.086   7.721   8.078
 2855POPC   C4A37386  39.090   7.415   7.802
 2855POPC   C1B37387  39.485   7.178   8.654
 2855POPC   C2B37388  39.322   7.326   8.321
 2855POPC   C3B37389  39.574   7.550   8.083
 2855POPC   C4B37390  39.567   7.646   7.680
 2856POPC   NC337391  34.057  43.576   9.994
 2856POPC   PO437392  33.680  43.239   9.599
 2856POPC   GL137393  33.667  43.058   9.152
 2856POPC   GL237394  33.601  43.358   8.983
 2856POPC   C1A37395  33.947  43.030   8.726
 2856POPC   D2A37396  34.213  43.194   8.356
 2856POPC   C3A37397  34.085  42.968   7.980
 2856POPC   C4A37398  33.722  42.777   7.793
 2856POPC   C1B37399  33.398  43.423   8.598
 2856POPC   C2B37400  33.706  43.402   8.288
 2856POPC   C3B37401  33.678  43.277   7.870
 2856POPC   C4B37402  33.807  43.484   7.533
 2857POPC   NC337403  28.831  13.590   9.496
 2857POPC   PO437404  29.395  13.610   9.382
 2857POPC   GL137405  29.332  13.339   8.977
 2857POPC   GL237406  29.639  13.272   8.787
 2857POPC   C1A37407  29.225  13.344   8.495
 2857POPC   D2A37408  29.429  13.503   8.112
 2857POPC   C3A37409  29.109  13.527   7.788
 2857POPC   C4A37410  29.037  13.429   7.352
 2857POPC   C1B37411  29.578  13.698   8.589
 2857POPC   C2B37412  29.471  14.004   8.257
 2857POPC   C3B37413  29.298  13.991   7.851
 2857POPC   C4B37414  29.100  13.979   7.446
 2858POPC   NC337415  14.167   1.738   9.713
 2858POPC   PO437416  13.604   1.846   9.279
 2858POPC   GL137417  13.517   1.848   8.897
 2858POPC   GL237418  13.863   1.729   8.842
 2858POPC   C1A37419  13.464   1.757   8.449
 2858POPC   D2A37420  13.394   1.556   8.049
 2858POPC   C3A37421  13.521   1.820   7.744
 2858POPC   C4A37422  13.514   2.286   7.744
 2858POPC   C1B37423  13.796   2.122   8.579
 2858POPC   C2B37424  13.789   2.079   8.121
 2858POPC   C3B37425  14.025   2.249   7.773
 2858POPC   C4B37426  14.014   2.367   7.323
 2859POPC   NC337427   2.194  36.967   9.367
 2859POPC   PO437428   1.736  36.598   9.580
 2859POPC   GL137429   1.781  36.693   9.151
 2859POPC   GL237430   2.077  36.483   9.108
 2859POPC   C1A37431   1.697  37.050   8.829
 2859POPC   D2A37432   1.635  37.176   8.373
 2859POPC   C3A37433   1.782  36.882   8.042
 2859POPC   C4A37434   1.985  36.931   7.636
 2859POPC   C1B37435   2.134  36.765   8.740
 2859POPC   C2B37436   2.306  36.678   8.335
 2859POPC   C3B37437   2.333  36.670   7.900
 2859POPC   C4B37438   2.237  36.370   7.614
 2860POPC   NC337439  10.527  14.572  10.004
 2860POPC   PO437440  10.825  14.261   9.437
 2860POPC   GL137441  10.520  14.413   9.137
 2860POPC   GL237442  10.363  14.069   9.081
 2860POPC   C1A37443  10.291  14.437   8.743
 2860POPC   D2A37444  10.237  14.749   8.422
 2860POPC   C3A37445  10.498  14.717   8.069
 2860POPC   C4A37446  10.432  14.626   7.644
 2860POPC   C1B37447  10.718  14.114   8.780
 2860POPC   C2B37448  10.767  14.323   8.385
 2860POPC   C3B37449  10.722  14.234   7.964
 2860POPC   C4B37450  10.412  14.115   7.719
 2861POPC   NC337451  35.325  28.145   9.524
 2861POPC   PO437452  35.758  28.674   9.504
 2861POPC   GL137453  35.554  28.475   9.170
 2861POPC   GL237454  35.179  28.472   9.123
 2861POPC   C1A37455  35.631  28.350   8.763
 2861POPC   D2A37456  35.424  28.143   8.439
 2861POPC   C3A37457  35.320  28.455   8.129
 2861POPC   C4A37458  35.485  28.422   7.718
 2861POPC   C1B37459  35.040  28.379   8.675
 2861POPC   C2B37460  34.956  28.099   8.272
 2861POPC   C3B37461  35.144  28.056   7.855
 2861POPC   C4B37462  35.133  28.110   7.385
 2862POPC   NC337463  15.199   7.674   9.556
 2862POPC   PO437464  15.476   7.085   9.492
 2862POPC   GL137465  15.354   7.412   9.142
 2862POPC   GL237466  15.558   7.721   9.195
 2862POPC   C1A37467  14.987   7.600   8.853
 2862POPC   D2A37468  14.743   7.778   8.486
 2862POPC   C3A37469  14.935   7.643   8.124
 2862POPC   C4A37470  15.183   7.658   7.772
 2862POPC   C1B37471  15.467   7.770   8.782
 2862POPC   C2B37472  15.323   7.510   8.435
 2862POPC   C3B37473  15.371   7.277   8.036
 2862POPC   C4B37474  15.371   7.031   7.626
 2863POPC   NC337475   7.176  27.918   9.288
 2863POPC   PO437476   7.594  27.391   9.537
 2863POPC   GL137477   7.443  27.518   9.136
 2863POPC   GL237478   7.705  27.775   9.130
 2863POPC   C1A37479   7.154  27.581   8.730
 2863POPC   D2A37480   6.976  27.598   8.290
 2863POPC   C3A37481   7.226  27.482   7.922
 2863POPC   C4A37482   7.655  27.321   7.764
 2863POPC   C1B37483   7.613  27.792   8.720
 2863POPC   C2B37484   7.540  27.585   8.364
 2863POPC   C3B37485   7.654  27.752   8.025
 2863POPC   C4B37486   7.496  27.861   7.688
 2864POPC   NC337487  13.423  35.640   9.409
 2864POPC   PO437488  13.334  34.967   9.517
 2864POPC   GL137489  13.534  35.104   9.136
 2864POPC   GL237490  13.777  35.383   9.127
 2864POPC   C1A37491  13.636  35.122   8.691
 2864POPC   D2A37492  13.628  35.003   8.270
 2864POPC   C3A37493  13.368  35.080   7.954
 2864POPC   C4A37494  13.472  35.271   7.536
 2864POPC   C1B37495  13.636  35.635   8.761
 2864POPC   C2B37496  13.745  35.509   8.342
 2864POPC   C3B37497  13.845  35.583   7.931
 2864POPC   C4B37498  14.070  35.636   7.558
 2865POPC   NC337499  26.118  39.894   9.504
 2865POPC   PO437500  25.764  40.488   9.439
 2865POPC   GL137501  25.717  40.192   9.074
 2865POPC   GL237502  25.808  39.835   9.062
 2865POPC   C1A37503  25.862  40.151   8.663
 2865POPC   D2A37504  25.742  39.912   8.319
 2865POPC   C3A37505  25.813  40.159   7.993
 2865POPC   C4A37506  26.140  40.179   7.739
 2865POPC   C1B37507  26.225  39.842   8.843
 2865POPC   C2B37508  26.377  39.950   8.421
 2865POPC   C3B37509  26.279  39.772   8.009
 2865POPC   C4B37510  25.847  39.691   7.843
 2866POPC   NC337511  41.949   1.663   9.496
 2866POPC   PO437512  41.979   2.323   9.412
 2866POPC   GL137513  42.180   1.938   9.154
 2866POPC   GL237514  42.553   1.873   9.211
 2866POPC   C1A37515  42.215   1.839   8.746
 2866POPC   D2A37516  42.056   2.100   8.444
 2866POPC   C3A37517  42.124   1.890   8.085
 2866POPC   C4A37518  42.105   1.839   7.683
 2866POPC   C1B37519  42.732   1.762   8.828
 2866POPC   C2B37520  42.667   1.696   8.430
 2866POPC   C3B37521  42.627   1.639   8.027
 2866POPC   C4B37522  42.606   1.901   7.721
 2867POPC   NC337523  28.550   8.371   9.360
 2867POPC   PO437524  28.048   8.024   9.528
 2867POPC   GL137525  28.326   7.965   9.184
 2867POPC   GL237526  28.665   7.842   9.240
 2867POPC   C1A37527  28.332   8.194   8.775
 2867POPC   D2A37528  28.526   8.463   8.462
 2867POPC   C3A37529  28.381   8.359   8.036
 2867POPC   C4A37530  28.286   8.359   7.575
 2867POPC   C1B37531  28.602   7.763   8.793
 2867POPC   C2B37532  28.630   7.957   8.380
 2867POPC   C3B37533  28.428   7.833   7.991
 2867POPC   C4B37534  28.426   7.889   7.527
 2868POPC   NC337535   5.177  27.105  10.001
 2868POPC   PO437536   5.043  27.641   9.595
 2868POPC   GL137537   5.027  27.723   9.109
 2868POPC   GL237538   4.737  27.903   8.989
 2868POPC   C1A37539   5.176  27.671   8.647
 2868POPC   D2A37540   5.132  27.810   8.188
 2868POPC   C3A37541   5.115  27.483   7.821
 2868POPC   C4A37542   5.192  27.362   7.369
 2868POPC   C1B37543   4.682  27.737   8.548
 2868POPC   C2B37544   4.683  27.519   8.137
 2868POPC   C3B37545   4.693  27.785   7.761
 2868POPC   C4B37546   4.703  27.698   7.313
 2869POPC   NC337547   0.226  37.846  10.210
 2869POPC   PO437548   0.419  37.918   9.561
 2869POPC   GL137549   0.483  37.874   9.135
 2869POPC   GL237550   0.171  37.968   9.028
 2869POPC   C1A37551   0.481  37.570   8.825
 2869POPC   D2A37552   0.473  37.560   8.388
 2869POPC   C3A37553   0.598  37.475   7.986
 2869POPC   C4A37554   0.372  37.557   7.605
 2869POPC   C1B37555   0.324  38.043   8.605
 2869POPC   C2B37556   0.176  37.922   8.181
 2869POPC   C3B37557  44.933  37.838   7.835
 2869POPC   C4B37558  44.741  38.069   7.487
 2870POPC   NC337559  44.420  10.858   9.475
 2870POPC   PO437560  44.928  10.432   9.682
 2870POPC   GL137561  44.716  10.466   9.282
 2870POPC   GL237562  44.752  10.788   9.126
 2870POPC   C1A37563  44.779  10.327   8.847
 2870POPC   D2A37564  44.538  10.136   8.533
 2870POPC   C3A37565  44.636  10.136   8.080
 2870POPC   C4A37566  44.802  10.299   7.699
 2870POPC   C1B37567  44.491  10.713   8.762
 2870POPC   C2B37568  44.641  10.611   8.359
 2870POPC   C3B37569  44.489  10.631   7.938
 2870POPC   C4B37570  44.325  10.973   7.696
 2871POPC   NC337571  27.044  22.451   9.400
 2871POPC   PO437572  26.534  21.883   9.411
 2871POPC   GL137573  26.732  22.093   9.103
 2871POPC   GL237574  26.609  22.415   9.118
 2871POPC   C1A37575  26.903  21.928   8.727
 2871POPC   D2A37576  26.965  22.093   8.305
 2871POPC   C3A37577  26.879  21.823   7.964
 2871POPC   C4A37578  26.895  21.938   7.524
 2871POPC   C1B37579  26.652  22.371   8.649
 2871POPC   C2B37580  26.799  22.565   8.246
 2871POPC   C3B37581  26.897  22.352   7.834
 2871POPC   C4B37582  26.791  22.422   7.364
 2872POPC   NC337583   2.363  28.308   9.379
 2872POPC   PO437584   1.669  28.239   9.452
 2872POPC   GL137585   1.908  28.405   9.160
 2872POPC   GL237586   2.018  28.109   9.085
 2872POPC   C1A37587   1.827  28.437   8.741
 2872POPC   D2A37588   1.898  28.218   8.401
 2872POPC   C3A37589   1.730  28.322   8.014
 2872POPC   C4A37590   1.913  28.290   7.631
 2872POPC   C1B37591   2.291  28.151   8.762
 2872POPC   C2B37592   2.373  28.003   8.397
 2872POPC   C3B37593   2.210  28.081   8.025
 2872POPC   C4B37594   2.366  28.026   7.667
 2873POPC   NC337595  26.208  33.263   9.631
 2873POPC   PO437596  25.684  32.939   9.421
 2873POPC   GL137597  25.895  33.211   9.161
 2873POPC   GL237598  26.230  33.371   9.131
 2873POPC   C1A37599  25.945  33.095   8.753
 2873POPC   D2A37600  25.672  32.845   8.495
 2873POPC   C3A37601  25.939  32.786   8.154
 2873POPC   C4A37602  25.948  33.025   7.815
 2873POPC   C1B37603  26.355  33.423   8.716
 2873POPC   C2B37604  26.265  33.255   8.283
 2873POPC   C3B37605  26.350  33.335   7.825
 2873POPC   C4B37606  26.313  33.045   7.444
 2874POPC   NC337607  22.950  11.192   9.710
 2874POPC   PO437608  23.377  11.597   9.341
 2874POPC   GL137609  22.989  11.362   9.211
 2874POPC   GL237610  23.147  11.497   8.884
 2874POPC   C1A37611  22.745  11.213   8.878
 2874POPC   D2A37612  22.861  11.352   8.460
 2874POPC   C3A37613  22.572  11.384   8.129
 2874POPC   C4A37614  22.774  11.619   7.805
 2874POPC   C1B37615  23.229  11.070   8.713
 2874POPC   C2B37616  23.175  10.976   8.309
 2874POPC   C3B37617  23.097  11.265   7.985
 2874POPC   C4B37618  23.324  11.224   7.601
 2875POPC   NC337619  36.132   0.997   9.728
 2875POPC   PO437620  36.477   0.453   9.495
 2875POPC   GL137621  36.325   0.363   9.116
 2875POPC   GL237622  36.496   0.026   9.133
 2875POPC   C1A37623  36.070   0.574   8.802
 2875POPC   D2A37624  35.791   0.544   8.413
 2875POPC   C3A37625  35.848   0.248   8.069
 2875POPC   C4A37626  35.781   0.518   7.700
 2875POPC   C1B37627  36.486   0.071   8.690
 2875POPC   C2B37628  36.295   0.381   8.395
 2875POPC   C3B37629  36.189   0.598   8.026
 2875POPC   C4B37630  36.290   0.315   7.719
 2876POPC   NC337631  15.639  22.192   9.473
 2876POPC   PO437632  16.281  22.056   9.539
 2876POPC   GL137633  16.047  22.289   9.180
 2876POPC   GL237634  15.959  22.000   9.011
 2876POPC   C1A37635  15.892  22.400   8.745
 2876POPC   D2A37636  16.047  22.074   8.456
 2876POPC   C3A37637  15.882  22.192   8.059
 2876POPC   C4A37638  15.841  22.362   7.673
 2876POPC   C1B37639  15.780  21.705   8.700
 2876POPC   C2B37640  15.855  21.591   8.292
 2876POPC   C3B37641  15.578  21.687   7.984
 2876POPC   C4B37642  15.417  21.858   7.617
 2877POPC   NC337643  39.535  12.798  10.020
 2877POPC   PO437644  39.964  13.138   9.673
 2877POPC   GL137645  40.023  13.084   9.216
 2877POPC   GL237646  39.736  13.290   9.120
 2877POPC   C1A37647  40.183  12.817   8.808
 2877POPC   D2A37648  40.445  12.756   8.400
 2877POPC   C3A37649  40.244  12.726   7.976
 2877POPC   C4A37650  40.177  12.850   7.518
 2877POPC   C1B37651  39.988  13.280   8.742
 2877POPC   C2B37652  39.983  13.027   8.358
 2877POPC   C3B37653  39.797  12.987   7.959
 2877POPC   C4B37654  39.826  13.223   7.578
 2878POPC   NC337655  14.823  33.205   9.381
 2878POPC   PO437656  15.486  33.211   9.593
 2878POPC   GL137657  15.359  33.105   9.175
 2878POPC   GL237658  15.226  32.777   9.203
 2878POPC   C1A37659  15.476  32.902   8.767
 2878POPC   D2A37660  15.230  32.817   8.405
 2878POPC   C3A37661  15.304  32.971   8.046
 2878POPC   C4A37662  15.462  32.884   7.671
 2878POPC   C1B37663  14.970  32.952   8.815
 2878POPC   C2B37664  14.736  32.959   8.421
 2878POPC   C3B37665  14.805  33.107   8.017
 2878POPC   C4B37666  14.943  32.765   7.750
 2879POPC   NC337667  10.705  23.644   9.841
 2879POPC   PO437668  11.335  23.589   9.631
 2879POPC   GL137669  11.370  23.667   9.200
 2879POPC   GL237670  11.017  23.648   9.193
 2879POPC   C1A37671  11.461  23.647   8.758
 2879POPC   D2A37672  11.577  23.933   8.418
 2879POPC   C3A37673  11.473  23.814   8.040
 2879POPC   C4A37674  11.572  23.821   7.620
 2879POPC   C1B37675  11.050  23.989   8.871
 2879POPC   C2B37676  11.123  24.139   8.478
 2879POPC   C3B37677  10.989  24.042   8.094
 2879POPC   C4B37678  11.054  23.750   7.743
 2880POPC   NC337679   5.066  38.384   9.713
 2880POPC   PO437680   5.434  38.597   9.185
 2880POPC   GL137681   5.174  38.302   9.001
 2880POPC   GL237682   4.845  38.447   8.962
 2880POPC   C1A37683   5.159  38.333   8.561
 2880POPC   D2A37684   5.091  38.646   8.264
 2880POPC   C3A37685   5.428  38.518   8.061
 2880POPC   C4A37686   5.491  38.476   7.678
 2880POPC   C1B37687   4.788  38.034   8.717
 2880POPC   C2B37688   4.970  37.915   8.300
 2880POPC   C3B37689   5.039  38.202   7.936
 2880POPC   C4B37690   5.068  38.168   7.462
 2881POPC   NC337691  42.167  30.344   9.490
 2881POPC   PO437692  42.494  30.890   9.691
 2881POPC   GL137693  42.459  30.708   9.275
 2881POPC   GL237694  42.521  31.001   9.084
 2881POPC   C1A37695  42.297  30.575   8.856
 2881POPC   D2A37696  42.136  30.761   8.497
 2881POPC   C3A37697  42.129  30.597   8.073
 2881POPC   C4A37698  42.431  30.429   7.783
 2881POPC   C1B37699  42.653  30.921   8.653
 2881POPC   C2B37700  42.470  31.040   8.235
 2881POPC   C3B37701  42.414  30.961   7.782
 2881POPC   C4B37702  42.655  30.961   7.388
 2882POPC   NC337703   3.961  13.493   9.488
 2882POPC   PO437704   3.230  13.420   9.456
 2882POPC   GL137705   3.545  13.544   9.202
 2882POPC   GL237706   3.683  13.252   9.087
 2882POPC   C1A37707   3.728  13.703   8.835
 2882POPC   D2A37708   3.475  13.710   8.483
 2882POPC   C3A37709   3.692  13.730   8.091
 2882POPC   C4A37710   3.615  13.761   7.664
 2882POPC   C1B37711   3.271  13.323   8.820
 2882POPC   C2B37712   3.084  13.363   8.413
 2882POPC   C3B37713   3.292  13.438   8.070
 2882POPC   C4B37714   3.654  13.258   7.869
 2883POPC   NC337715   3.233  40.318   9.315
 2883POPC   PO437716   3.731  39.960   9.498
 2883POPC   GL137717   3.698  40.083   9.094
 2883POPC   GL237718   3.388  39.939   9.028
 2883POPC   C1A37719   3.748  39.900   8.670
 2883POPC   D2A37720   3.642  40.137   8.261
 2883POPC   C3A37721   3.737  40.052   7.837
 2883POPC   C4A37722   3.544  40.226   7.473
 2883POPC   C1B37723   3.260  40.002   8.618
 2883POPC   C2B37724   3.350  39.720   8.349
 2883POPC   C3B37725   3.318  39.801   7.941
 2883POPC   C4B37726   3.544  39.674   7.562
 2884POPC   NC337727  38.971  26.386   9.532
 2884POPC   PO437728  39.602  26.068   9.514
 2884POPC   GL137729  39.525  26.247   9.135
 2884POPC   GL237730  39.206  26.066   9.152
 2884POPC   C1A37731  39.493  26.070   8.724
 2884POPC   D2A37732  39.289  26.187   8.348
 2884POPC   C3A37733  39.479  25.998   7.996
 2884POPC   C4A37734  39.330  25.754   7.658
 2884POPC   C1B37735  38.956  26.030   8.785
 2884POPC   C2B37736  38.770  26.015   8.377
 2884POPC   C3B37737  38.953  25.997   7.961
 2884POPC   C4B37738  38.846  26.221   7.594
 2885POPC   NC337739  34.298  13.684   9.580
 2885POPC   PO437740  34.833  13.329   9.776
 2885POPC   GL137741  34.753  13.686   9.324
 2885POPC   GL237742  34.440  13.612   9.110
 2885POPC   C1A37743  34.775  13.797   8.795
 2885POPC   D2A37744  34.765  13.885   8.329
 2885POPC   C3A37745  34.739  13.541   8.023
 2885POPC   C4A37746  34.548  13.410   7.631
 2885POPC   C1B37747  34.202  13.727   8.743
 2885POPC   C2B37748  34.277  13.727   8.335
 2885POPC   C3B37749  34.324  13.830   7.890
 2885POPC   C4B37750  34.255  13.821   7.435
 2886POPC   NC337751   7.730  11.670   9.364
 2886POPC   PO437752   8.325  12.019   9.567
 2886POPC   GL137753   8.162  11.968   9.218
 2886POPC   GL237754   8.254  11.617   9.219
 2886POPC   C1A37755   8.113  12.247   8.850
 2886POPC   D2A37756   7.978  12.382   8.437
 2886POPC   C3A37757   8.273  12.322   8.119
 2886POPC   C4A37758   8.106  12.243   7.747
 2886POPC   C1B37759   8.116  11.700   8.804
 2886POPC   C2B37760   8.206  11.901   8.441
 2886POPC   C3B37761   8.058  11.835   8.052
 2886POPC   C4B37762   8.028  11.763   7.627
 2887POPC   NC337763  23.556  43.022   9.538
 2887POPC   PO437764  23.989  43.510   9.384
 2887POPC   GL137765  23.836  43.379   9.032
 2887POPC   GL237766  23.793  43.047   9.088
 2887POPC   C1A37767  23.578  43.363   8.685
 2887POPC   D2A37768  23.442  43.237   8.284
 2887POPC   C3A37769  23.795  43.261   8.029
 2887POPC   C4A37770  23.892  43.620   7.774
 2887POPC   C1B37771  23.794  42.882   8.683
 2887POPC   C2B37772  23.875  42.615   8.369
 2887POPC   C3B37773  23.636  42.610   8.000
 2887POPC   C4B37774  23.639  42.849   7.684
 2888POPC   NC337775  37.921  24.870   9.583
 2888POPC   PO437776  37.380  25.235   9.615
 2888POPC   GL137777  37.562  25.239   9.222
 2888POPC   GL237778  37.904  25.165   9.149
 2888POPC   C1A37779  37.555  25.113   8.801
 2888POPC   D2A37780  37.607  25.338   8.448
 2888POPC   C3A37781  37.404  25.138   8.137
 2888POPC   C4A37782  37.366  25.406   7.846
 2888POPC   C1B37783  38.015  25.442   8.798
 2888POPC   C2B37784  38.126  25.452   8.373
 2888POPC   C3B37785  37.948  25.195   8.063
 2888POPC   C4B37786  37.716  25.049   7.715
 2889POPC   NC337787  24.044   0.408   9.512
 2889POPC   PO437788  23.346   0.095   9.660
 2889POPC   GL137789  23.585   0.333   9.298
 2889POPC   GL237790  23.493   0.698   9.226
 2889POPC   C1A37791  23.705   0.353   8.845
 2889POPC   D2A37792  23.432   0.276   8.489
 2889POPC   C3A37793  23.672   0.279   8.126
 2889POPC   C4A37794  23.817   0.058   7.796
 2889POPC   C1B37795  23.697   0.850   8.821
 2889POPC   C2B37796  23.602   0.769   8.428
 2889POPC   C3B37797  23.774   0.795   8.056
 2889POPC   C4B37798  23.797   0.584   7.716
 2890POPC   NC337799   3.224  40.894   9.641
 2890POPC   PO437800   3.786  40.664   9.409
 2890POPC   GL137801   3.570  40.636   9.078
 2890POPC   GL237802   3.468  40.981   9.151
 2890POPC   C1A37803   3.559  40.420   8.686
 2890POPC   D2A37804   3.237  40.471   8.330
 2890POPC   C3A37805   3.416  40.505   7.907
 2890POPC   C4A37806   3.845  40.530   7.786
 2890POPC   C1B37807   3.724  41.042   8.796
 2890POPC   C2B37808   3.689  41.152   8.387
 2890POPC   C3B37809   3.605  40.997   8.005
 2890POPC   C4B37810   3.799  40.993   7.616
 2891POPC   NC337811  44.532  14.831   9.595
 2891POPC   PO437812  44.698  15.456   9.694
 2891POPC   GL137813  44.695  15.219   9.276
 2891POPC   GL237814  44.906  14.937   9.224
 2891POPC   C1A37815  44.544  15.067   8.865
 2891POPC   D2A37816  44.714  15.045   8.431
 2891POPC   C3A37817  44.540  15.293   8.093
 2891POPC   C4A37818  44.712  15.285   7.675
 2891POPC   C1B37819   0.091  15.066   8.818
 2891POPC   C2B37820   0.166  15.364   8.457
 2891POPC   C3B37821   0.034  15.349   8.071
 2891POPC   C4B37822   0.147  15.539   7.698
 2892POPC   NC337823   8.532   4.035   9.583
 2892POPC   PO437824   8.141   4.639   9.507
 2892POPC   GL137825   8.367   4.356   9.195
 2892POPC   GL237826   8.261   3.988   9.180
 2892POPC   C1A37827   8.166   4.233   8.779
 2892POPC   D2A37828   7.974   4.117   8.406
 2892POPC   C3A37829   7.878   4.277   8.048
 2892POPC   C4A37830   8.066   4.307   7.653
 2892POPC   C1B37831   8.517   3.852   8.841
 2892POPC   C2B37832   8.494   4.069   8.427
 2892POPC   C3B37833   8.368   4.086   8.002
 2892POPC   C4B37834   8.344   3.762   7.679
 2893POPC   NC337835  44.071  39.865   9.541
 2893POPC   PO437836  43.544  40.435   9.473
 2893POPC   GL137837  43.817  40.259   9.175
 2893POPC   GL237838  43.727  39.942   9.184
 2893POPC   C1A37839  43.951  40.227   8.755
 2893POPC   D2A37840  44.127  40.374   8.384
 2893POPC   C3A37841  44.059  40.184   8.038
 2893POPC   C4A37842  43.750  40.178   7.730
 2893POPC   C1B37843  43.788  39.727   8.786
 2893POPC   C2B37844  43.948  39.602   8.373
 2893POPC   C3B37845  43.821  39.718   7.977
 2893POPC   C4B37846  43.560  39.677   7.639
 2894POPC   NC337847  24.229  30.157   9.771
 2894POPC   PO437848  24.653  29.683   9.396
 2894POPC   GL137849  24.599  29.771   9.003
 2894POPC   GL237850  24.253  29.624   9.043
 2894POPC   C1A37851  24.574  30.081   8.659
 2894POPC   D2A37852  24.427  30.044   8.227
 2894POPC   C3A37853  24.700  30.066   7.869
 2894POPC   C4A37854  24.537  30.119   7.424
 2894POPC   C1B37855  24.304  29.626   8.622
 2894POPC   C2B37856  24.691  29.645   8.424
 2894POPC   C3B37857  24.669  29.536   8.008
 2894POPC   C4B37858  24.524  29.653   7.627
 2895POPC   NC337859   7.395  36.891   9.535
 2895POPC   PO437860   7.934  36.770   9.303
 2895POPC   GL137861   7.702  37.047   9.066
 2895POPC   GL237862   7.325  37.083   9.056
 2895POPC   C1A37863   7.618  37.116   8.629
 2895POPC   D2A37864   7.465  36.862   8.295
 2895POPC   C3A37865   7.662  36.930   7.909
 2895POPC   C4A37866   7.662  36.905   7.498
 2895POPC   C1B37867   7.087  36.997   8.636
 2895POPC   C2B37868   7.005  37.063   8.163
 2895POPC   C3B37869   7.178  36.914   7.754
 2895POPC   C4B37870   7.219  36.869   7.261
 2896POPC   NC337871   8.302  17.738   9.597
 2896POPC   PO437872   7.898  17.218   9.467
 2896POPC   GL137873   8.173  17.346   9.124
 2896POPC   GL237874   8.278  17.705   9.103
 2896POPC   C1A37875   8.261  17.413   8.677
 2896POPC   D2A37876   7.966  17.471   8.339
 2896POPC   C3A37877   8.171  17.386   7.978
 2896POPC   C4A37878   8.255  17.355   7.546
 2896POPC   C1B37879   8.080  17.875   8.766
 2896POPC   C2B37880   8.279  17.862   8.362
 2896POPC   C3B37881   8.081  17.911   7.976
 2896POPC   C4B37882   8.151  17.887   7.559
 2897POPC   NC337883  30.157  36.959   9.493
 2897POPC   PO437884  29.543  36.753   9.497
 2897POPC   GL137885  29.690  37.006   9.166
 2897POPC   GL237886  30.006  37.174   9.055
 2897POPC   C1A37887  29.523  36.987   8.760
 2897POPC   D2A37888  29.497  37.170   8.347
 2897POPC   C3A37889  29.609  36.977   7.947
 2897POPC   C4A37890  29.777  37.163   7.582
 2897POPC   C1B37891  29.961  37.198   8.613
 2897POPC   C2B37892  29.974  36.900   8.293
 2897POPC   C3B37893  30.272  36.864   7.966
 2897POPC   C4B37894  30.285  37.078   7.590
 2898POPC   NC337895   9.006  28.225   9.563
 2898POPC   PO437896   8.940  28.898   9.531
 2898POPC   GL137897   9.128  28.668   9.158
 2898POPC   GL237898   9.262  28.300   9.135
 2898POPC   C1A37899   8.935  28.495   8.767
 2898POPC   D2A37900   8.719  28.603   8.376
 2898POPC   C3A37901   9.015  28.666   8.046
 2898POPC   C4A37902   9.030  28.488   7.630
 2898POPC   C1B37903   9.172  28.023   8.712
 2898POPC   C2B37904   8.954  28.108   8.300
 2898POPC   C3B37905   8.984  28.005   7.852
 2898POPC   C4B37906   8.892  28.056   7.402
 2899POPC   NC337907  10.987  18.990   9.476
 2899POPC   PO437908  11.541  19.265   9.411
 2899POPC   GL137909  11.277  19.114   9.078
 2899POPC   GL237910  11.066  18.759   9.045
 2899POPC   C1A37911  10.988  19.187   8.773
 2899POPC   D2A37912  10.970  18.974   8.400
 2899POPC   C3A37913  11.260  19.169   8.133
 2899POPC   C4A37914  11.088  19.260   7.729
 2899POPC   C1B37915  11.373  18.742   8.751
 2899POPC   C2B37916  11.347  18.602   8.371
 2899POPC   C3B37917  11.558  18.686   8.019
 2899POPC   C4B37918  11.510  18.950   7.709
 2900POPC   NC337919  11.489  28.030   9.587
 2900POPC   PO437920  11.225  28.675   9.693
 2900POPC   GL137921  11.238  28.405   9.307
 2900POPC   GL237922  11.446  28.637   9.123
 2900POPC   C1A37923  11.247  28.229   8.879
 2900POPC   D2A37924  11.512  28.002   8.586
 2900POPC   C3A37925  11.524  28.149   8.156
 2900POPC   C4A37926  11.431  28.206   7.720
 2900POPC   C1B37927  11.217  28.696   8.688
 2900POPC   C2B37928  11.134  28.624   8.215
 2900POPC   C3B37929  11.262  28.788   7.805
 2900POPC   C4B37930  11.456  28.600   7.422
 2901POPC   NC337931   3.931   2.459   9.628
 2901POPC   PO437932   4.257   3.079   9.582
 2901POPC   GL137933   4.378   2.908   9.190
 2901POPC   GL237934   4.288   2.590   9.277
 2901POPC   C1A37935   4.186   2.775   8.784
 2901POPC   D2A37936   3.936   2.678   8.413
 2901POPC   C3A37937   4.199   2.732   8.069
 2901POPC   C4A37938   4.093   2.855   7.672
 2901POPC   C1B37939   4.491   2.408   8.949
 2901POPC   C2B37940   4.527   2.444   8.500
 2901POPC   C3B37941   4.684   2.541   8.084
 2901POPC   C4B37942   4.606   2.727   7.664
 2902POPC   NC337943   3.793   4.060   9.318
 2902POPC   PO437944   3.371   4.544   9.590
 2902POPC   GL137945   3.457   4.435   9.187
 2902POPC   GL237946   3.344   4.110   9.102
 2902POPC   C1A37947   3.604   4.423   8.781
 2902POPC   D2A37948   3.522   4.585   8.411
 2902POPC   C3A37949   3.662   4.375   8.060
 2902POPC   C4A37950   3.705   4.452   7.620
 2902POPC   C1B37951   3.487   3.921   8.657
 2902POPC   C2B37952   3.501   3.899   8.164
 2902POPC   C3B37953   3.704   3.944   7.727
 2902POPC   C4B37954   3.843   3.750   7.313
 2903POPC   NC337955  16.953  39.098   9.560
 2903POPC   PO437956  17.626  39.152   9.610
 2903POPC   GL137957  17.509  39.240   9.187
 2903POPC   GL237958  17.333  38.941   9.180
 2903POPC   C1A37959  17.424  39.202   8.717
 2903POPC   D2A37960  17.487  39.079   8.254
 2903POPC   C3A37961  17.395  39.386   7.905
 2903POPC   C4A37962  17.788  39.345   7.702
 2903POPC   C1B37963  17.181  38.756   8.779
 2903POPC   C2B37964  17.033  38.817   8.357
 2903POPC   C3B37965  17.102  38.907   7.941
 2903POPC   C4B37966  17.501  38.930   7.749
 2904POPC   NC337967  41.774  16.255   9.391
 2904POPC   PO437968  41.615  16.888   9.695
 2904POPC   GL137969  41.564  16.721   9.248
 2904POPC   GL237970  41.906  16.642   9.099
 2904POPC   C1A37971  41.533  16.766   8.773
 2904POPC   D2A37972  41.361  16.805   8.338
 2904POPC   C3A37973  41.633  16.862   7.999
 2904POPC   C4A37974  41.467  16.854   7.600
 2904POPC   C1B37975  41.877  16.369   8.758
 2904POPC   C2B37976  41.794  16.512   8.358
 2904POPC   C3B37977  41.524  16.357   8.022
 2904POPC   C4B37978  41.731  16.417   7.624
 2905POPC   NC337979  23.352  15.396   9.457
 2905POPC   PO437980  23.907  15.047   9.620
 2905POPC   GL137981  23.835  15.248   9.218
 2905POPC   GL237982  23.508  15.154   9.034
 2905POPC   C1A37983  23.923  15.379   8.793
 2905POPC   D2A37984  23.711  15.225   8.427
 2905POPC   C3A37985  23.896  15.266   8.043
 2905POPC   C4A37986  23.773  15.314   7.635
 2905POPC   C1B37987  23.429  15.539   8.779
 2905POPC   C2B37988  23.422  15.641   8.345
 2905POPC   C3B37989  23.402  15.385   7.985
 2905POPC   C4B37990  23.122  15.202   7.685
 2906POPC   NC337991  11.873   7.451   9.518
 2906POPC   PO437992  12.514   7.500   9.422
 2906POPC   GL137993  12.291   7.588   9.074
 2906POPC   GL237994  11.992   7.372   9.038
 2906POPC   C1A37995  12.299   7.452   8.656
 2906POPC   D2A37996  12.016   7.548   8.376
 2906POPC   C3A37997  12.164   7.558   8.015
 2906POPC   C4A37998  12.130   7.812   7.697
 2906POPC   C1B37999  11.777   7.204   8.666
 2906POPC   C2B38000  11.575   7.003   8.302
 2906POPC   C3B38001  11.754   6.910   7.879
 2906POPC   C4B38002  12.039   7.203   7.677
 2907POPC   NC338003  25.126  16.823   9.511
 2907POPC   PO438004  25.596  17.145   9.424
 2907POPC   GL138005  25.175  17.152   9.099
 2907POPC   GL238006  24.965  16.802   9.045
 2907POPC   C1A38007  24.942  17.090   8.654
 2907POPC   D2A38008  25.051  16.736   8.356
 2907POPC   C3A38009  25.251  16.802   7.950
 2907POPC   C4A38010  25.115  16.692   7.533
 2907POPC   C1B38011  25.198  16.472   8.777
 2907POPC   C2B38012  25.284  16.274   8.338
 2907POPC   C3B38013  25.190  16.280   7.880
 2907POPC   C4B38014  25.405  16.261   7.464
 2908POPC   NC338015  34.730  27.347   9.618
 2908POPC   PO438016  34.199  27.772   9.401
 2908POPC   GL138017  34.429  27.717   9.031
 2908POPC   GL238018  34.557  27.396   9.123
 2908POPC   C1A38019  34.565  27.597   8.628
 2908POPC   D2A38020  34.508  27.836   8.242
 2908POPC   C3A38021  34.745  27.744   7.904
 2908POPC   C4A38022  34.933  27.670   7.498
 2908POPC   C1B38023  34.204  27.255   8.855
 2908POPC   C2B38024  34.211  27.066   8.433
 2908POPC   C3B38025  34.098  27.218   8.028
 2908POPC   C4B38026  34.306  27.493   7.747
 2909POPC   NC338027  38.582  23.986   9.846
 2909POPC   PO438028  38.278  24.554   9.542
 2909POPC   GL138029  38.316  24.549   9.113
 2909POPC   GL238030  38.023  24.681   9.107
 2909POPC   C1A38031  38.225  24.385   8.708
 2909POPC   D2A38032  38.470  24.108   8.449
 2909POPC   C3A38033  38.553  24.258   8.040
 2909POPC   C4A38034  38.209  24.416   7.787
 2909POPC   C1B38035  38.119  24.924   8.741
 2909POPC   C2B38036  38.254  24.771   8.332
 2909POPC   C3B38037  38.356  24.897   7.913
 2909POPC   C4B38038  38.306  24.935   7.443
 2910POPC   NC338039   7.507  30.466   9.401
 2910POPC   PO438040   7.212  31.091   9.551
 2910POPC   GL138041   7.234  30.842   9.171
 2910POPC   GL238042   7.567  30.814   8.995
 2910POPC   C1A38043   7.120  30.647   8.772
 2910POPC   D2A38044   7.235  30.836   8.382
 2910POPC   C3A38045   7.148  30.622   8.017
 2910POPC   C4A38046   7.310  30.783   7.654
 2910POPC   C1B38047   7.587  30.533   8.597
 2910POPC   C2B38048   7.661  30.636   8.146
 2910POPC   C3B38049   7.898  30.558   7.792
 2910POPC   C4B38050   7.912  30.232   7.437
 2911POPC   NC338051   7.922   3.248   9.487
 2911POPC   PO438052   8.460   2.756   9.498
 2911POPC   GL138053   8.315   2.870   9.081
 2911POPC   GL238054   8.556   3.098   8.987
 2911POPC   C1A38055   8.009   2.728   8.750
 2911POPC   D2A38056   8.027   2.505   8.388
 2911POPC   C3A38057   8.036   2.727   7.999
 2911POPC   C4A38058   8.330   2.873   7.709
 2911POPC   C1B38059   8.404   3.305   8.645
 2911POPC   C2B38060   8.247   3.005   8.385
 2911POPC   C3B38061   8.522   2.741   8.187
 2911POPC   C4B38062   8.814   2.918   7.902
 2912POPC   NC338063  15.004  13.254   9.495
 2912POPC   PO438064  15.447  12.672   9.456
 2912POPC   GL138065  15.215  12.790   9.097
 2912POPC   GL238066  14.868  12.911   9.107
 2912POPC   C1A38067  15.351  12.833   8.695
 2912POPC   D2A38068  15.390  12.649   8.305
 2912POPC   C3A38069  15.476  12.954   7.991
 2912POPC   C4A38070  15.396  12.685   7.653
 2912POPC   C1B38071  14.881  13.057   8.697
 2912POPC   C2B38072  15.066  13.034   8.312
 2912POPC   C3B38073  14.993  12.854   7.934
 2912POPC   C4B38074  14.820  13.095   7.673
 2913POPC   NC338075  22.026  29.462   9.719
 2913POPC   PO438076  22.298  29.002   9.322
 2913POPC   GL138077  21.956  29.152   9.090
 2913POPC   GL238078  21.954  29.492   9.207
 2913POPC   C1A38079  21.894  29.088   8.647
 2913POPC   D2A38080  21.996  28.874   8.274
 2913POPC   C3A38081  22.035  29.096   7.904
 2913POPC   C4A38082  22.328  28.954   7.604
 2913POPC   C1B38083  22.184  29.514   8.787
 2913POPC   C2B38084  22.041  29.464   8.322
 2913POPC   C3B38085  21.958  29.627   7.894
 2913POPC   C4B38086  22.042  29.574   7.424
 2914POPC   NC338087   0.555   9.262   9.195
 2914POPC   PO438088  44.996   8.943   9.513
 2914POPC   GL138089   0.190   8.857   9.152
 2914POPC   GL238090   0.448   8.601   9.173
 2914POPC   C1A38091   0.221   8.863   8.718
 2914POPC   D2A38092   0.217   8.832   8.269
 2914POPC   C3A38093   0.529   9.102   8.165
 2914POPC   C4A38094   0.570   9.128   7.782
 2914POPC   C1B38095   0.682   8.595   8.780
 2914POPC   C2B38096   0.728   8.641   8.325
 2914POPC   C3B38097   0.729   8.638   7.866
 2914POPC   C4B38098   0.303   8.685   7.686
 2915POPC   NC338099   5.209  14.799   9.560
 2915POPC   PO438100   4.854  15.302   9.472
 2915POPC   GL138101   4.941  15.342   9.094
 2915POPC   GL238102   5.229  15.162   9.124
 2915POPC   C1A38103   5.008  15.221   8.665
 2915POPC   D2A38104   4.771  15.097   8.311
 2915POPC   C3A38105   4.981  15.233   7.936
 2915POPC   C4A38106   5.321  15.512   7.880
 2915POPC   C1B38107   5.258  14.810   8.866
 2915POPC   C2B38108   5.258  14.859   8.420
 2915POPC   C3B38109   5.392  14.701   8.044
 2915POPC   C4B38110   5.373  14.962   7.701
 2916POPC   NC338111  10.380  39.866   9.539
 2916POPC   PO438112  10.097  40.473   9.379
 2916POPC   GL138113  10.524  40.283   9.198
 2916POPC   GL238114  10.707  39.898   9.166
 2916POPC   C1A38115  10.774  40.266   8.827
 2916POPC   D2A38116  10.654  40.206   8.440
 2916POPC   C3A38117  10.718  40.361   8.069
 2916POPC   C4A38118  10.622  40.123   7.729
 2916POPC   C1B38119  10.582  39.758   8.790
 2916POPC   C2B38120  10.367  39.798   8.440
 2916POPC   C3B38121  10.579  39.733   8.060
 2916POPC   C4B38122  10.382  39.510   7.754
 2917POPC   NC338123  24.455  43.406   9.342
 2917POPC   PO438124  24.255  42.712   9.393
 2917POPC   GL138125  24.296  42.987   9.081
 2917POPC   GL238126  24.644  43.000   8.981
 2917POPC   C1A38127  24.206  43.185   8.712
 2917POPC   D2A38128  24.462  43.103   8.379
 2917POPC   C3A38129  24.278  43.058   7.983
 2917POPC   C4A38130  24.474  43.199   7.616
 2917POPC   C1B38131  24.879  43.249   8.641
 2917POPC   C2B38132  24.781  43.488   8.234
 2917POPC   C3B38133  24.869  43.487   7.804
 2917POPC   C4B38134  24.971  43.172   7.518
 2918POPC   NC338135  27.627  31.193   9.429
 2918POPC   PO438136  27.293  31.738   9.535
 2918POPC   GL138137  27.633  31.666   9.166
 2918POPC   GL238138  27.946  31.885   9.130
 2918POPC   C1A38139  27.805  31.492   8.794
 2918POPC   D2A38140  27.710  31.669   8.391
 2918POPC   C3A38141  27.363  31.631   8.117
 2918POPC   C4A38142  27.448  31.429   7.761
 2918POPC   C1B38143  28.105  31.912   8.714
 2918POPC   C2B38144  28.166  31.818   8.244
 2918POPC   C3B38145  27.926  31.599   7.888
 2918POPC   C4B38146  27.722  31.778   7.485
 2919POPC   NC338147  17.759   8.802   9.416
 2919POPC   PO438148  17.144   8.503   9.488
 2919POPC   GL138149  17.398   8.625   9.086
 2919POPC   GL238150  17.800   8.599   8.949
 2919POPC   C1A38151  17.447   8.766   8.654
 2919POPC   D2A38152  17.703   8.560   8.368
 2919POPC   C3A38153  17.596   8.752   7.983
 2919POPC   C4A38154  17.344   9.004   7.764
 2919POPC   C1B38155  17.947   9.016   8.780
 2919POPC   C2B38156  18.013   9.273   8.424
 2919POPC   C3B38157  17.953   9.127   8.005
 2919POPC   C4B38158  17.746   9.289   7.648
 2920POPC   NC338159  19.121   4.319   9.513
 2920POPC   PO438160  19.631   4.752   9.401
 2920POPC   GL138161  19.292   4.620   9.067
 2920POPC   GL238162  18.921   4.509   9.079
 2920POPC   C1A38163  19.179   4.386   8.644
 2920POPC   D2A38164  19.030   4.012   8.388
 2920POPC   C3A38165  18.715   4.016   8.107
 2920POPC   C4A38166  18.761   4.279   7.763
 2920POPC   C1B38167  18.692   4.543   8.683
 2920POPC   C2B38168  18.864   4.532   8.241
 2920POPC   C3B38169  19.031   4.697   7.832
 2920POPC   C4B38170  18.763   4.706   7.429
 2921POPC   NC338171   1.552   8.353   9.481
 2921POPC   PO438172   2.133   7.989   9.518
 2921POPC   GL138173   2.064   8.120   9.093
 2921POPC   GL238174   1.982   8.458   9.191
 2921POPC   C1A38175   1.910   8.033   8.638
 2921POPC   D2A38176   1.569   7.895   8.348
 2921POPC   C3A38177   1.750   7.971   7.926
 2921POPC   C4A38178   1.914   8.385   7.826
 2921POPC   C1B38179   1.887   8.510   8.764
 2921POPC   C2B38180   2.082   8.473   8.378
 2921POPC   C3B38181   2.335   8.651   8.061
 2921POPC   C4B38182   2.385   8.486   7.648
 2922POPC   NC338183   0.835  33.455   9.615
 2922POPC   PO438184   0.296  32.969   9.470
 2922POPC   GL138185   0.452  33.095   9.104
 2922POPC   GL238186   0.576  32.780   8.981
 2922POPC   C1A38187   0.406  33.256   8.699
 2922POPC   D2A38188   0.644  33.478   8.389
 2922POPC   C3A38189   0.508  33.389   7.993
 2922POPC   C4A38190   0.208  33.390   7.667
 2922POPC   C1B38191   0.698  32.738   8.582
 2922POPC   C2B38192   0.479  32.965   8.285
 2922POPC   C3B38193   0.281  32.896   7.887
 2922POPC   C4B38194   0.299  32.848   7.441
 2923POPC   NC338195  26.976  24.187   9.627
 2923POPC   PO438196  27.615  24.369   9.758
 2923POPC   GL138197  27.416  24.360   9.355
 2923POPC   GL238198  27.741  24.424   9.186
 2923POPC   C1A38199  27.297  24.319   8.903
 2923POPC   D2A38200  27.469  24.242   8.483
 2923POPC   C3A38201  27.592  24.556   8.162
 2923POPC   C4A38202  27.709  24.720   7.720
 2923POPC   C1B38203  27.975  24.539   8.811
 2923POPC   C2B38204  28.019  24.351   8.400
 2923POPC   C3B38205  28.070  24.477   7.970
 2923POPC   C4B38206  28.105  24.487   7.482
 2924POPC   NC338207  28.312  11.742   9.587
 2924POPC   PO438208  28.726  12.254   9.421
 2924POPC   GL138209  28.614  11.948   9.114
 2924POPC   GL238210  28.258  11.928   9.127
 2924POPC   C1A38211  28.557  12.040   8.678
 2924POPC   D2A38212  28.352  12.046   8.282
 2924POPC   C3A38213  28.500  12.223   7.875
 2924POPC   C4A38214  28.614  12.128   7.406
 2924POPC   C1B38215  28.059  11.903   8.735
 2924POPC   C2B38216  27.863  11.906   8.348
 2924POPC   C3B38217  27.959  12.020   7.939
 2924POPC   C4B38218  28.181  11.938   7.597
 2925POPC   NC338219  22.868  10.305   9.617
 2925POPC   PO438220  23.267  10.808   9.626
 2925POPC   GL138221  23.002  10.650   9.247
 2925POPC   GL238222  22.864  10.285   9.124
 2925POPC   C1A38223  22.815  10.716   8.830
 2925POPC   D2A38224  22.637  10.907   8.471
 2925POPC   C3A38225  22.735  10.868   8.034
 2925POPC   C4A38226  23.115  10.796   7.821
 2925POPC   C1B38227  22.893  10.221   8.690
 2925POPC   C2B38228  22.975  10.512   8.352
 2925POPC   C3B38229  23.032  10.320   7.964
 2925POPC   C4B38230  22.691  10.095   7.873
 2926POPC   NC338231  23.789  12.733   9.818
 2926POPC   PO438232  23.755  13.213   9.297
 2926POPC   GL138233  23.772  12.842   9.045
 2926POPC   GL238234  23.439  12.815   8.861
 2926POPC   C1A38235  23.872  12.824   8.598
 2926POPC   D2A38236  23.559  12.913   8.297
 2926POPC   C3A38237  23.466  12.580   8.068
 2926POPC   C4A38238  23.775  12.640   7.788
 2926POPC   C1B38239  23.508  13.253   8.686
 2926POPC   C2B38240  23.561  13.425   8.256
 2926POPC   C3B38241  23.685  13.204   7.888
 2926POPC   C4B38242  23.426  12.965   7.669
 2927POPC   NC338243  38.108  37.189   9.554
 2927POPC   PO438244  37.420  37.311   9.580
 2927POPC   GL138245  37.619  36.978   9.286
 2927POPC   GL238246  37.718  36.623   9.315
 2927POPC   C1A38247  37.891  37.039   8.903
 2927POPC   D2A38248  37.712  36.988   8.473
 2927POPC   C3A38249  37.913  37.047   8.051
 2927POPC   C4A38250  37.726  37.060   7.581
 2927POPC   C1B38251  37.716  36.564   8.853
 2927POPC   C2B38252  37.656  36.484   8.429
 2927POPC   C3B38253  37.539  36.677   8.068
 2927POPC   C4B38254  37.420  36.467   7.716
 2928POPC   NC338255  31.911   7.998   9.201
 2928POPC   PO438256  32.154   8.532   9.384
 2928POPC   GL138257  32.120   8.475   8.955
 2928POPC   GL238258  31.819   8.358   8.824
 2928POPC   C1A38259  32.241   8.413   8.514
 2928POPC   D2A38260  32.583   8.247   8.283
 2928POPC   C3A38261  32.521   8.301   7.836
 2928POPC   C4A38262  32.204   8.447   7.536
 2928POPC   C1B38263  32.016   7.972   8.579
 2928POPC   C2B38264  32.201   7.942   8.159
 2928POPC   C3B38265  32.082   7.993   7.742
 2928POPC   C4B38266  32.097   7.921   7.316
 2929POPC   NC338267  36.138  25.544   9.229
 2929POPC   PO438268  36.111  26.170   9.455
 2929POPC   GL138269  36.314  26.001   9.104
 2929POPC   GL238270  35.971  25.969   8.980
 2929POPC   C1A38271  36.372  25.936   8.662
 2929POPC   D2A38272  36.293  26.324   8.447
 2929POPC   C3A38273  36.066  26.327   8.061
 2929POPC   C4A38274  36.334  26.153   7.781
 2929POPC   C1B38275  35.860  26.016   8.552
 2929POPC   C2B38276  36.087  25.822   8.200
 2929POPC   C3B38277  35.979  25.801   7.749
 2929POPC   C4B38278  35.754  26.091   7.524
 2930POPC   NC338279   7.381  35.891   9.511
 2930POPC   PO438280   7.828  36.416   9.758
 2930POPC   GL138281   7.746  36.242   9.308
 2930POPC   GL238282   7.516  36.492   9.219
 2930POPC   C1A38283   7.560  36.095   8.858
 2930POPC   D2A38284   7.770  35.983   8.434
 2930POPC   C3A38285   7.580  35.954   7.998
 2930POPC   C4A38286   7.177  36.029   7.715
 2930POPC   C1B38287   7.429  36.638   8.824
 2930POPC   C2B38288   7.248  36.413   8.492
 2930POPC   C3B38289   7.334  36.410   8.061
 2930POPC   C4B38290   7.394  36.485   7.650
 2931POPC   NC338291  39.381  18.774   9.280
 2931POPC   PO438292  38.988  19.263   9.566
 2931POPC   GL138293  38.959  19.337   9.154
 2931POPC   GL238294  38.904  18.988   9.081
 2931POPC   C1A38295  39.206  19.304   8.755
 2931POPC   D2A38296  39.534  19.208   8.423
 2931POPC   C3A38297  39.339  19.208   8.017
 2931POPC   C4A38298  38.907  19.330   7.845
 2931POPC   C1B38299  39.042  18.778   8.710
 2931POPC   C2B38300  39.278  18.756   8.336
 2931POPC   C3B38301  39.433  18.658   7.941
 2931POPC   C4B38302  39.178  18.865   7.698
 2932POPC   NC338303  21.609   9.382   9.765
 2932POPC   PO438304  21.585   8.760   9.436
 2932POPC   GL138305  21.353   8.911   9.082
 2932POPC   GL238306  21.323   9.275   9.147
 2932POPC   C1A38307  21.291   9.041   8.661
 2932POPC   D2A38308  20.977   9.142   8.335
 2932POPC   C3A38309  21.053   9.087   7.881
 2932POPC   C4A38310  21.389   8.978   7.584
 2932POPC   C1B38311  21.498   9.475   8.772
 2932POPC   C2B38312  21.655   9.326   8.376
 2932POPC   C3B38313  21.508   9.330   7.961
 2932POPC   C4B38314  21.646   9.419   7.536
 2933POPC   NC338315   1.578  42.808   9.610
 2933POPC   PO438316   1.156  42.229   9.489
 2933POPC   GL138317   1.240  42.292   9.074
 2933POPC   GL238318   1.462  42.547   9.163
 2933POPC   C1A38319   1.179  42.104   8.672
 2933POPC   D2A38320   0.892  42.265   8.346
 2933POPC   C3A38321   1.065  42.378   7.922
 2933POPC   C4A38322   1.190  42.209   7.506
 2933POPC   C1B38323   1.530  42.530   8.722
 2933POPC   C2B38324   1.369  42.451   8.328
 2933POPC   C3B38325   1.489  42.657   7.945
 2933POPC   C4B38326   1.620  42.513   7.556
 2934POPC   NC338327   8.871  19.812   9.553
 2934POPC   PO438328   8.636  20.316   9.303
 2934POPC   GL138329   8.854  20.012   9.070
 2934POPC   GL238330   9.185  20.010   9.185
 2934POPC   C1A38331   8.832  19.653   8.773
 2934POPC   D2A38332   9.078  19.602   8.373
 2934POPC   C3A38333   8.882  19.620   7.956
 2934POPC   C4A38334   8.760  19.978   7.807
 2934POPC   C1B38335   9.287  19.877   8.791
 2934POPC   C2B38336   9.481  19.968   8.405
 2934POPC   C3B38337   9.303  19.910   8.020
 2934POPC   C4B38338   9.359  19.587   7.712
 2935POPC   NC338339  43.446  20.130  10.007
 2935POPC   PO438340  43.108  19.743   9.561
 2935POPC   GL138341  43.180  20.029   9.186
 2935POPC   GL238342  43.477  20.033   8.951
 2935POPC   C1A38343  42.941  20.004   8.782
 2935POPC   D2A38344  42.791  19.812   8.387
 2935POPC   C3A38345  43.085  19.929   8.101
 2935POPC   C4A38346  43.130  20.110   7.734
 2935POPC   C1B38347  43.278  19.616   8.854
 2935POPC   C2B38348  43.114  19.415   8.488
 2935POPC   C3B38349  43.175  19.426   8.068
 2935POPC   C4B38350  43.239  19.544   7.657
 2936POPC   NC338351  27.075  29.653   9.368
 2936POPC   PO438352  26.637  30.266   9.565
 2936POPC   GL138353  26.796  30.071   9.210
 2936POPC   GL238354  26.683  29.741   9.078
 2936POPC   C1A38355  26.789  30.197   8.812
 2936POPC   D2A38356  27.016  30.210   8.455
 2936POPC   C3A38357  26.815  30.186   8.086
 2936POPC   C4A38358  26.934  30.257   7.708
 2936POPC   C1B38359  26.980  29.747   8.705
 2936POPC   C2B38360  26.816  29.701   8.260
 2936POPC   C3B38361  26.816  29.711   7.786
 2936POPC   C4B38362  27.111  29.556   7.415
 2937POPC   NC338363   1.319  36.839   9.559
 2937POPC   PO438364   0.752  37.188   9.395
 2937POPC   GL138365   1.130  37.136   9.162
 2937POPC   GL238366   1.282  36.812   9.063
 2937POPC   C1A38367   1.201  37.230   8.729
 2937POPC   D2A38368   0.974  37.230   8.327
 2937POPC   C3A38369   1.271  37.219   7.997
 2937POPC   C4A38370   1.460  37.023   7.639
 2937POPC   C1B38371   1.123  36.730   8.667
 2937POPC   C2B38372   1.302  36.773   8.274
 2937POPC   C3B38373   1.132  36.738   7.877
 2937POPC   C4B38374   1.220  36.552   7.489
 2938POPC   NC338375  35.294  26.591   9.948
 2938POPC   PO438376  35.513  26.970   9.498
 2938POPC   GL138377  35.337  26.632   9.251
 2938POPC   GL238378  35.653  26.415   9.266
 2938POPC   C1A38379  35.141  26.740   8.831
 2938POPC   D2A38380  35.372  26.858   8.448
 2938POPC   C3A38381  35.175  26.982   8.045
 2938POPC   C4A38382  35.538  27.042   7.771
 2938POPC   C1B38383  35.503  26.367   8.837
 2938POPC   C2B38384  35.390  26.261   8.419
 2938POPC   C3B38385  35.402  26.511   8.065
 2938POPC   C4B38386  35.679  26.533   7.735
 2939POPC   NC338387   6.435   9.816   9.556
 2939POPC   PO438388   6.984  10.011   9.469
 2939POPC   GL138389   6.710   9.797   9.131
 2939POPC   GL238390   6.575   9.454   9.200
 2939POPC   C1A38391   6.504   9.662   8.721
 2939POPC   D2A38392   6.682   9.819   8.334
 2939POPC   C3A38393   6.550   9.755   7.889
 2939POPC   C4A38394   6.543   9.784   7.418
 2939POPC   C1B38395   6.929   9.403   8.875
 2939POPC   C2B38396   7.076   9.528   8.469
 2939POPC   C3B38397   7.040   9.403   8.057
 2939POPC   C4B38398   6.945   9.549   7.662
 2940POPC   NC338399  26.586   0.010   9.455
 2940POPC   PO438400  26.120  44.571   9.646
 2940POPC   GL138401  26.130  44.712   9.217
 2940POPC   GL238402  25.988  44.385   9.112
 2940POPC   C1A38403  26.046  44.769   8.766
 2940POPC   D2A38404  26.080  44.504   8.385
 2940POPC   C3A38405  26.276  44.757   8.043
 2940POPC   C4A38406  26.282   0.085   7.722
 2940POPC   C1B38407  25.702  44.389   8.738
 2940POPC   C2B38408  25.548  44.598   8.376
 2940POPC   C3B38409  25.775  44.623   7.989
 2940POPC   C4B38410  25.804  44.858   7.641
 2941POPC   NC338411   8.466  42.879   9.619
 2941POPC   PO438412   7.853  42.677   9.428
 2941POPC   GL138413   8.152  42.900   9.131
 2941POPC   GL238414   8.545  42.964   9.129
 2941POPC   C1A38415   8.063  42.977   8.688
 2941POPC   D2A38416   7.980  43.196   8.312
 2941POPC   C3A38417   7.981  42.971   7.930
 2941POPC   C4A38418   8.047  43.119   7.482
 2941POPC   C1B38419   8.544  43.123   8.714
 2941POPC   C2B38420   8.478  43.010   8.251
 2941POPC   C3B38421   8.445  43.167   7.800
 2941POPC   C4B38422   8.515  43.315   7.323
 2942POPC   NC338423  43.680  42.094   9.385
 2942POPC   PO438424  44.207  42.562   9.289
 2942POPC   GL138425  43.837  42.613   9.040
 2942POPC   GL238426  43.626  42.329   8.948
 2942POPC   C1A38427  43.947  42.509   8.607
 2942POPC   D2A38428  44.115  42.245   8.281
 2942POPC   C3A38429  43.933  42.357   7.901
 2942POPC   C4A38430  43.847  42.583   7.540
 2942POPC   C1B38431  43.859  41.999   8.681
 2942POPC   C2B38432  43.901  41.781   8.262
 2942POPC   C3B38433  43.875  41.873   7.793
 2942POPC   C4B38434  43.889  41.784   7.343
 2943POPC   NC338435  22.022  35.614   9.592
 2943POPC   PO438436  22.205  34.906   9.574
 2943POPC   GL138437  22.203  35.243   9.198
 2943POPC   GL238438  21.973  35.568   9.102
 2943POPC   C1A38439  22.337  35.408   8.775
 2943POPC   D2A38440  22.519  35.370   8.367
 2943POPC   C3A38441  22.333  35.515   7.994
 2943POPC   C4A38442  22.388  35.355   7.606
 2943POPC   C1B38443  21.813  35.522   8.710
 2943POPC   C2B38444  21.997  35.327   8.367
 2943POPC   C3B38445  21.966  35.173   7.967
 2943POPC   C4B38446  21.900  35.454   7.638
 2944POPC   NC338447  12.587  10.709   9.373
 2944POPC   PO438448  13.214  10.834   9.359
 2944POPC   GL138449  13.052  10.474   9.122
 2944POPC   GL238450  13.372  10.477   8.959
 2944POPC   C1A38451  12.727  10.344   8.801
 2944POPC   D2A38452  12.595  10.209   8.356
 2944POPC   C3A38453  12.597  10.507   8.014
 2944POPC   C4A38454  12.941  10.669   7.743
 2944POPC   C1B38455  13.193  10.288   8.613
 2944POPC   C2B38456  13.084  10.426   8.211
 2944POPC   C3B38457  13.007  10.172   7.851
 2944POPC   C4B38458  13.183  10.284   7.465
 2945POPC   NC338459  35.338  31.666   9.528
 2945POPC   PO438460  35.573  31.035   9.314
 2945POPC   GL138461  35.413  31.394   9.113
 2945POPC   GL238462  35.133  31.660   9.071
 2945POPC   C1A38463  35.520  31.577   8.734
 2945POPC   D2A38464  35.680  31.640   8.355
 2945POPC   C3A38465  35.452  31.577   8.027
 2945POPC   C4A38466  35.544  31.264   7.742
 2945POPC   C1B38467  35.078  31.305   8.760
 2945POPC   C2B38468  35.295  31.205   8.384
 2945POPC   C3B38469  35.111  31.166   7.973
 2945POPC   C4B38470  35.026  31.063   7.543
 2946POPC   NC338471   1.010  10.157   9.334
 2946POPC   PO438472   1.405  10.769   9.567
 2946POPC   GL138473   1.319  10.560   9.197
 2946POPC   GL238474   1.540  10.270   9.204
 2946POPC   C1A38475   1.130  10.649   8.787
 2946POPC   D2A38476   0.965  10.736   8.368
 2946POPC   C3A38477   1.268  10.689   8.075
 2946POPC   C4A38478   1.564  10.648   7.784
 2946POPC   C1B38479   1.389  10.180   8.801
 2946POPC   C2B38480   1.206  10.281   8.412
 2946POPC   C3B38481   1.396  10.203   8.010
 2946POPC   C4B38482   1.391   9.945   7.655
 2947POPC   NC338483  14.744  14.219   9.606
 2947POPC   PO438484  14.191  14.648   9.515
 2947POPC   GL138485  14.450  14.438   9.235
 2947POPC   GL238486  14.144  14.331   9.110
 2947POPC   C1A38487  14.604  14.459   8.797
 2947POPC   D2A38488  14.541  14.276   8.348
 2947POPC   C3A38489  14.335  14.493   8.022
 2947POPC   C4A38490  14.205  14.473   7.603
 2947POPC   C1B38491  14.191  14.155   8.746
 2947POPC   C2B38492  14.029  14.193   8.359
 2947POPC   C3B38493  14.193  13.974   8.073
 2947POPC   C4B38494  14.461  14.054   7.749
 2948POPC   NC338495  41.942   3.974   9.148
 2948POPC   PO438496  41.667   4.475   9.436
 2948POPC   GL138497  41.579   4.387   9.051
 2948POPC   GL238498  41.935   4.472   8.986
 2948POPC   C1A38499  41.277   4.540   8.720
 2948POPC   D2A38500  41.087   4.477   8.335
 2948POPC   C3A38501  41.380   4.370   8.019
 2948POPC   C4A38502  41.373   4.196   7.594
 2948POPC   C1B38503  41.760   4.339   8.584
 2948POPC   C2B38504  41.675   3.997   8.342
 2948POPC   C3B38505  41.783   4.071   7.921
 2948POPC   C4B38506  41.816   4.448   7.645
 2949POPC   NC338507  38.078  31.952   9.546
 2949POPC   PO438508  38.169  32.652   9.553
 2949POPC   GL138509  38.111  32.364   9.172
 2949POPC   GL238510  38.360  32.057   9.148
 2949POPC   C1A38511  38.239  32.288   8.730
 2949POPC   D2A38512  38.629  32.087   8.564
 2949POPC   C3A38513  38.686  32.132   8.129
 2949POPC   C4A38514  38.421  32.417   7.910
 2949POPC   C1B38515  38.227  31.801   8.776
 2949POPC   C2B38516  38.326  31.701   8.372
 2949POPC   C3B38517  38.252  31.917   7.964
 2949POPC   C4B38518  38.175  32.101   7.555
 2950POPC   NC338519  18.326   8.390   9.391
 2950POPC   PO438520  18.524   7.777   9.526
 2950POPC   GL138521  18.336   7.874   9.076
 2950POPC   GL238522  18.140   8.184   8.985
 2950POPC   C1A38523  18.421   8.011   8.603
 2950POPC   D2A38524  18.506   8.400   8.368
 2950POPC   C3A38525  18.530   8.433   7.915
 2950POPC   C4A38526  18.474   8.352   7.479
 2950POPC   C1B38527  17.930   7.924   8.755
 2950POPC   C2B38528  17.912   8.072   8.385
 2950POPC   C3B38529  18.196   8.054   8.095
 2950POPC   C4B38530  18.074   8.125   7.703
 2951POPC   NC338531  13.630  26.459   9.798
 2951POPC   PO438532  13.262  25.938   9.536
 2951POPC   GL138533  13.520  25.908   9.137
 2951POPC   GL238534  13.589  26.219   8.934
 2951POPC   C1A38535  13.393  25.706   8.739
 2951POPC   D2A38536  13.622  25.462   8.413
 2951POPC   C3A38537  13.694  25.745   8.102
 2951POPC   C4A38538  13.662  25.739   7.676
 2951POPC   C1B38539  13.748  26.041   8.564
 2951POPC   C2B38540  13.954  26.158   8.189
 2951POPC   C3B38541  13.713  26.207   7.820
 2951POPC   C4B38542  13.765  26.154   7.367
 2952POPC   NC338543  10.872  38.995   9.536
 2952POPC   PO438544  11.593  39.181   9.549
 2952POPC   GL138545  11.455  39.106   9.172
 2952POPC   GL238546  11.175  39.289   9.229
 2952POPC   C1A38547  11.495  39.326   8.790
 2952POPC   D2A38548  11.420  39.583   8.453
 2952POPC   C3A38549  11.513  39.383   8.100
 2952POPC   C4A38550  11.375  39.352   7.723
 2952POPC   C1B38551  11.017  39.479   8.868
 2952POPC   C2B38552  10.978  39.299   8.477
 2952POPC   C3B38553  11.004  39.402   8.073
 2952POPC   C4B38554  10.882  39.532   7.680
 2953POPC   NC338555  12.006  44.935   9.402
 2953POPC   PO438556  11.847  44.406   9.745
 2953POPC   GL138557  12.017  44.444   9.258
 2953POPC   GL238558  12.346  44.648   9.152
 2953POPC   C1A38559  12.136  44.375   8.772
 2953POPC   D2A38560  12.264  44.579   8.339
 2953POPC   C3A38561  12.111  44.444   7.919
 2953POPC   C4A38562  11.701  44.537   7.747
 2953POPC   C1B38563  12.226  44.915   8.771
 2953POPC   C2B38564  12.000   0.130   8.417
 2953POPC   C3B38565  12.101   0.061   7.972
 2953POPC   C4B38566  12.203  44.838   7.573
 2954POPC   NC338567  32.110  24.670   9.557
 2954POPC   PO438568  32.454  24.112   9.458
 2954POPC   GL138569  32.498  24.301   9.076
 2954POPC   GL238570  32.308  24.638   9.080
 2954POPC   C1A38571  32.761  24.433   8.730
 2954POPC   D2A38572  32.696  24.675   8.346
 2954POPC   C3A38573  32.514  24.391   8.030
 2954POPC   C4A38574  32.443  24.470   7.588
 2954POPC   C1B38575  31.960  24.533   8.789
 2954POPC   C2B38576  31.853  24.645   8.341
 2954POPC   C3B38577  32.010  24.567   7.896
 2954POPC   C4B38578  32.055  24.753   7.470
 2955POPC   NC338579  24.417  16.947   9.526
 2955POPC   PO438580  24.864  16.447   9.456
 2955POPC   GL138581  24.568  16.470   9.110
 2955POPC   GL238582  24.442  16.783   9.067
 2955POPC   C1A38583  24.655  16.593   8.663
 2955POPC   D2A38584  24.563  16.873   8.344
 2955POPC   C3A38585  24.712  16.784   7.958
 2955POPC   C4A38586  24.898  17.145   7.812
 2955POPC   C1B38587  24.134  16.649   8.798
 2955POPC   C2B38588  24.126  16.595   8.393
 2955POPC   C3B38589  24.182  16.802   8.029
 2955POPC   C4B38590  24.305  16.507   7.777
 2956POPC   NC338591   6.401  41.072   9.523
 2956POPC   PO438592   6.913  40.664   9.714
 2956POPC   GL138593   6.859  40.789   9.238
 2956POPC   GL238594   7.097  40.550   9.066
 2956POPC   C1A38595   6.811  40.862   8.763
 2956POPC   D2A38596   6.491  40.952   8.420
 2956POPC   C3A38597   6.564  40.783   7.989
 2956POPC   C4A38598   6.948  40.855   7.735
 2956POPC   C1B38599   6.780  40.371   8.790
 2956POPC   C2B38600   6.644  40.424   8.379
 2956POPC   C3B38601   6.864  40.365   8.006
 2956POPC   C4B38602   7.041  40.358   7.615
 2957POPC   NC338603   6.154  25.792   9.503
 2957POPC   PO438604   5.881  26.480   9.450
 2957POPC   GL138605   5.741  26.126   9.178
 2957POPC   GL238606   5.718  25.759   9.226
 2957POPC   C1A38607   5.856  26.176   8.761
 2957POPC   D2A38608   5.934  26.014   8.389
 2957POPC   C3A38609   5.792  26.282   8.119
 2957POPC   C4A38610   5.879  26.279   7.732
 2957POPC   C1B38611   5.566  25.768   8.794
 2957POPC   C2B38612   5.431  25.872   8.372
 2957POPC   C3B38613   5.589  25.842   7.960
 2957POPC   C4B38614   5.465  26.002   7.563
 2958POPC   NC338615  35.704  20.819   9.482
 2958POPC   PO438616  35.104  20.548   9.397
 2958POPC   GL138617  35.191  20.596   9.013
 2958POPC   GL238618  35.530  20.648   9.048
 2958POPC   C1A38619  35.324  20.677   8.602
 2958POPC   D2A38620  35.411  20.534   8.227
 2958POPC   C3A38621  35.471  20.929   8.052
 2958POPC   C4A38622  35.497  20.875   7.651
 2958POPC   C1B38623  35.703  20.360   8.746
 2958POPC   C2B38624  35.812  20.182   8.400
 2958POPC   C3B38625  35.691  20.149   8.009
 2958POPC   C4B38626  35.771  20.290   7.619
 2959POPC   NC338627  30.928  31.471   9.526
 2959POPC   PO438628  30.395  31.074   9.643
 2959POPC   GL138629  30.412  31.406   9.247
 2959POPC   GL238630  30.705  31.658   9.083
 2959POPC   C1A38631  30.431  31.382   8.775
 2959POPC   D2A38632  30.602  31.603   8.401
 2959POPC   C3A38633  30.581  31.452   7.986
 2959POPC   C4A38634  30.594  31.430   7.539
 2959POPC   C1B38635  30.986  31.498   8.732
 2959POPC   C2B38636  31.080  31.359   8.269
 2959POPC   C3B38637  31.050  31.377   7.784
 2959POPC   C4B38638  31.091  31.557   7.347
 2960POPC   NC338639  21.233  38.074   9.786
 2960POPC   PO438640  21.409  37.463   9.435
 2960POPC   GL138641  21.614  37.706   9.141
 2960POPC   GL238642  21.315  37.632   8.944
 2960POPC   C1A38643  21.645  37.954   8.744
 2960POPC   D2A38644  21.392  37.753   8.427
 2960POPC   C3A38645  21.481  37.877   8.052
 2960POPC   C4A38646  21.451  37.895   7.617
 2960POPC   C1B38647  21.146  37.363   8.649
 2960POPC   C2B38648  20.961  37.501   8.287
 2960POPC   C3B38649  21.055  37.651   7.908
 2960POPC   C4B38650  21.434  37.415   7.752
 2961POPC   NC338651  28.254   4.433   9.709
 2961POPC   PO438652  28.541   3.808   9.557
 2961POPC   GL138653  28.477   4.175   9.251
 2961POPC   GL238654  28.698   4.466   9.311
 2961POPC   C1A38655  28.196   4.461   8.965
 2961POPC   D2A38656  27.964   4.573   8.559
 2961POPC   C3A38657  28.103   4.293   8.251
 2961POPC   C4A38658  28.178   4.323   7.805
 2961POPC   C1B38659  28.705   4.648   8.897
 2961POPC   C2B38660  28.467   4.633   8.516
 2961POPC   C3B38661  28.310   4.737   8.101
 2961POPC   C4B38662  28.621   4.613   7.803
 2962POPC   NC338663  26.981  28.074   9.470
 2962POPC   PO438664  26.594  28.592   9.445
 2962POPC   GL138665  26.627  28.244   9.147
 2962POPC   GL238666  26.938  28.419   9.101
 2962POPC   C1A38667  26.875  28.027   8.760
 2962POPC   D2A38668  27.191  28.059   8.401
 2962POPC   C3A38669  27.119  28.203   7.965
 2962POPC   C4A38670  26.892  27.987   7.623
 2962POPC   C1B38671  26.627  28.487   8.721
 2962POPC   C2B38672  26.458  28.476   8.312
 2962POPC   C3B38673  26.597  28.325   7.917
 2962POPC   C4B38674  26.897  28.537   7.638
 2963POPC   NC338675  30.157  32.921   9.446
 2963POPC   PO438676  30.841  32.919   9.568
 2963POPC   GL138677  30.768  32.724   9.193
 2963POPC   GL238678  31.095  32.790   9.140
 2963POPC   C1A38679  30.677  32.944   8.808
 2963POPC   D2A38680  30.740  33.290   8.522
 2963POPC   C3A38681  30.792  33.101   8.111
 2963POPC   C4A38682  30.528  33.191   7.773
 2963POPC   C1B38683  31.077  32.592   8.787
 2963POPC   C2B38684  31.028  32.778   8.438
 2963POPC   C3B38685  31.065  32.633   8.052
 2963POPC   C4B38686  30.747  32.724   7.750
 2964POPC   NC338687  35.390  24.922   9.378
 2964POPC   PO438688  35.269  25.632   9.486
 2964POPC   GL138689  35.476  25.397   9.175
 2964POPC   GL238690  35.145  25.317   9.085
 2964POPC   C1A38691  35.455  25.203   8.720
 2964POPC   D2A38692  35.592  25.092   8.301
 2964POPC   C3A38693  35.379  25.309   7.963
 2964POPC   C4A38694  35.592  25.302   7.570
 2964POPC   C1B38695  34.983  25.025   8.762
 2964POPC   C2B38696  35.040  25.126   8.326
 2964POPC   C3B38697  35.161  24.856   7.971
 2964POPC   C4B38698  35.161  25.058   7.539
 2965POPC   NC338699  20.252   8.554   9.434
 2965POPC   PO438700  20.797   8.144   9.416
 2965POPC   GL138701  20.522   8.141   9.069
 2965POPC   GL238702  20.528   8.476   9.003
 2965POPC   C1A38703  20.653   7.973   8.670
 2965POPC   D2A38704  21.020   8.060   8.396
 2965POPC   C3A38705  20.848   8.130   7.973
 2965POPC   C4A38706  20.540   7.972   7.664
 2965POPC   C1B38707  20.295   8.330   8.645
 2965POPC   C2B38708  20.412   8.171   8.260
 2965POPC   C3B38709  20.371   8.431   7.920
 2965POPC   C4B38710  20.672   8.469   7.617
 2966POPC   NC338711  24.270   5.724   9.267
 2966POPC   PO438712  24.732   6.154   9.358
 2966POPC   GL138713  24.675   5.949   8.995
 2966POPC   GL238714  24.961   5.726   9.026
 2966POPC   C1A38715  24.459   5.931   8.596
 2966POPC   D2A38716  24.424   5.647   8.232
 2966POPC   C3A38717  24.381   5.879   7.868
 2966POPC   C4A38718  24.594   6.174   7.622
 2966POPC   C1B38719  24.999   5.879   8.605
 2966POPC   C2B38720  24.821   5.974   8.215
 2966POPC   C3B38721  24.901   5.745   7.848
 2966POPC   C4B38722  24.792   5.752   7.414
 2967POPC   NC338723  28.428  38.892   9.477
 2967POPC   PO438724  28.444  38.301   9.776
 2967POPC   GL138725  28.483  38.361   9.306
 2967POPC   GL238726  28.201  38.188   9.188
 2967POPC   C1A38727  28.488  38.517   8.849
 2967POPC   D2A38728  28.701  38.445   8.426
 2967POPC   C3A38729  28.510  38.405   8.010
 2967POPC   C4A38730  28.480  37.981   7.779
 2967POPC   C1B38731  28.040  38.301   8.802
 2967POPC   C2B38732  28.162  38.488   8.425
 2967POPC   C3B38733  27.994  38.339   8.055
 2967POPC   C4B38734  27.980  38.067   7.729
 2968POPC   NC338735  23.754  25.603   9.477
 2968POPC   PO438736  23.321  25.176   9.321
 2968POPC   GL138737  23.610  25.428   9.019
 2968POPC   GL238738  23.972  25.593   9.012
 2968POPC   C1A38739  23.688  25.440   8.575
 2968POPC   D2A38740  23.462  25.225   8.257
 2968POPC   C3A38741  23.654  25.353   7.888
 2968POPC   C4A38742  23.411  25.356   7.481
 2968POPC   C1B38743  24.078  25.770   8.594
 2968POPC   C2B38744  24.021  25.625   8.165
 2968POPC   C3B38745  24.155  25.594   7.710
 2968POPC   C4B38746  24.061  25.584   7.233
 2969POPC   NC338747   4.750  33.246   9.279
 2969POPC   PO438748   5.317  33.150   9.506
 2969POPC   GL138749   5.125  32.936   9.112
 2969POPC   GL238750   5.343  32.643   9.101
 2969POPC   C1A38751   4.971  33.082   8.679
 2969POPC   D2A38752   4.756  32.921   8.311
 2969POPC   C3A38753   4.918  33.130   7.961
 2969POPC   C4A38754   5.290  33.369   7.891
 2969POPC   C1B38755   5.441  32.812   8.682
 2969POPC   C2B38756   5.342  33.009   8.275
 2969POPC   C3B38757   5.332  32.785   7.864
 2969POPC   C4B38758   5.462  32.689   7.407
 2970POPC   NC338759   2.147  18.628   9.518
 2970POPC   PO438760   1.967  17.969   9.405
 2970POPC   GL138761   1.899  18.311   9.122
 2970POPC   GL238762   2.244  18.312   9.126
 2970POPC   C1A38763   1.830  18.274   8.669
 2970POPC   D2A38764   1.601  18.322   8.289
 2970POPC   C3A38765   1.835  18.246   7.939
 2970POPC   C4A38766   1.787  18.610   7.713
 2970POPC   C1B38767   2.341  18.165   8.725
 2970POPC   C2B38768   2.223  18.193   8.306
 2970POPC   C3B38769   2.296  18.454   7.955
 2970POPC   C4B38770   2.466  18.191   7.705
 2971POPC   NC338771   5.739   8.495   9.702
 2971POPC   PO438772   5.380   7.918   9.553
 2971POPC   GL138773   5.572   8.275   9.254
 2971POPC   GL238774   5.943   8.188   9.192
 2971POPC   C1A38775   5.670   8.421   8.827
 2971POPC   D2A38776   5.856   8.151   8.519
 2971POPC   C3A38777   5.930   8.331   8.121
 2971POPC   C4A38778   5.775   8.186   7.740
 2971POPC   C1B38779   6.204   8.361   8.827
 2971POPC   C2B38780   6.363   8.204   8.432
 2971POPC   C3B38781   6.367   7.920   8.087
 2971POPC   C4B38782   6.289   8.193   7.763
 2972POPC   NC338783   4.513  17.068   9.514
 2972POPC   PO438784   4.148  16.568   9.828
 2972POPC   GL138785   4.224  16.604   9.345
 2972POPC   GL238786   3.965  16.465   9.120
 2972POPC   C1A38787   4.462  16.531   8.924
 2972POPC   D2A38788   4.296  16.641   8.492
 2972POPC   C3A38789   4.473  16.745   8.070
 2972POPC   C4A38790   4.180  16.916   7.826
 2972POPC   C1B38791   4.090  16.192   8.784
 2972POPC   C2B38792   4.312  16.157   8.397
 2972POPC   C3B38793   4.200  16.327   8.036
 2972POPC   C4B38794   4.307  16.377   7.638
 2973POPC   NC338795  29.452  37.242   9.589
 2973POPC   PO438796  28.964  37.759   9.580
 2973POPC   GL138797  29.208  37.711   9.203
 2973POPC   GL238798  29.416  37.435   9.118
 2973POPC   C1A38799  29.119  37.758   8.770
 2973POPC   D2A38800  28.835  37.897   8.415
 2973POPC   C3A38801  28.948  37.781   7.994
 2973POPC   C4A38802  28.917  37.775   7.540
 2973POPC   C1B38803  29.561  37.518   8.712
 2973POPC   C2B38804  29.390  37.723   8.324
 2973POPC   C3B38805  29.376  37.482   7.972
 2973POPC   C4B38806  29.331  37.464   7.557
 2974POPC   NC338807   3.947  41.110   9.446
 2974POPC   PO438808   4.467  40.634   9.559
 2974POPC   GL138809   4.284  40.782   9.196
 2974POPC   GL238810   4.523  41.073   9.297
 2974POPC   C1A38811   4.161  40.814   8.734
 2974POPC   D2A38812   3.899  40.693   8.376
 2974POPC   C3A38813   4.119  40.860   8.039
 2974POPC   C4A38814   4.266  40.791   7.601
 2974POPC   C1B38815   4.603  41.003   8.874
 2974POPC   C2B38816   4.582  41.028   8.389
 2974POPC   C3B38817   4.506  41.191   7.959
 2974POPC   C4B38818   4.668  41.079   7.566
 2975POPC   NC338819  15.023  35.898   9.398
 2975POPC   PO438820  15.356  36.495   9.576
 2975POPC   GL138821  15.186  36.317   9.169
 2975POPC   GL238822  15.351  36.002   9.034
 2975POPC   C1A38823  14.978  36.190   8.772
 2975POPC   D2A38824  15.261  36.033   8.454
 2975POPC   C3A38825  15.024  35.997   8.096
 2975POPC   C4A38826  15.092  36.224   7.715
 2975POPC   C1B38827  15.577  35.760   8.757
 2975POPC   C2B38828  15.558  35.605   8.359
 2975POPC   C3B38829  15.488  35.840   8.004
 2975POPC   C4B38830  15.283  35.769   7.650
 2976POPC   NC338831   8.358  44.998   9.559
 2976POPC   PO438832   8.181  44.318   9.441
 2976POPC   GL138833   8.199  44.600   9.113
 2976POPC   GL238834   8.496  44.826   9.105
 2976POPC   C1A38835   8.026  44.639   8.706
 2976POPC   D2A38836   8.189  44.827   8.360
 2976POPC   C3A38837   8.405  44.554   8.081
 2976POPC   C4A38838   8.212  44.754   7.747
 2976POPC   C1B38839   8.552  44.646   8.709
 2976POPC   C2B38840   8.727  44.837   8.356
 2976POPC   C3B38841   8.511   0.061   8.033
 2976POPC   C4B38842   8.491   0.157   7.610
 2977POPC   NC338843  42.882  11.222   9.308
 2977POPC   PO438844  43.408  11.099   9.671
 2977POPC   GL138845  43.367  11.290   9.169
 2977POPC   GL238846  43.376  11.628   9.072
 2977POPC   C1A38847  43.169  11.274   8.712
 2977POPC   D2A38848  42.926  11.148   8.347
 2977POPC   C3A38849  43.121  11.207   7.921
 2977POPC   C4A38850  43.101  11.506   7.544
 2977POPC   C1B38851  43.042  11.759   8.805
 2977POPC   C2B38852  42.940  11.668   8.401
 2977POPC   C3B38853  43.120  11.722   8.013
 2977POPC   C4B38854  43.206  12.005   7.679
 2978POPC   NC338855  32.629  41.697   9.514
 2978POPC   PO438856  33.251  41.557   9.730
 2978POPC   GL138857  33.083  41.444   9.307
 2978POPC   GL238858  33.022  41.789   9.183
 2978POPC   C1A38859  33.247  41.393   8.859
 2978POPC   D2A38860  33.184  41.528   8.422
 2978POPC   C3A38861  33.420  41.385   8.045
 2978POPC   C4A38862  33.170  41.426   7.646
 2978POPC   C1B38863  32.824  41.678   8.791
 2978POPC   C2B38864  32.671  41.774   8.367
 2978POPC   C3B38865  32.958  41.740   7.998
 2978POPC   C4B38866  32.946  41.927   7.563
 2979POPC   NC338867  11.401  36.926   9.601
 2979POPC   PO438868  10.793  37.052   9.483
 2979POPC   GL138869  11.107  37.063   9.189
 2979POPC   GL238870  11.073  36.741   9.065
 2979POPC   C1A38871  11.341  37.092   8.798
 2979POPC   D2A38872  11.175  36.999   8.388
 2979POPC   C3A38873  11.388  37.062   7.985
 2979POPC   C4A38874  11.534  37.210   7.588
 2979POPC   C1B38875  11.422  36.590   8.775
 2979POPC   C2B38876  11.630  36.760   8.389
 2979POPC   C3B38877  11.628  36.625   7.975
 2979POPC   C4B38878  11.388  36.698   7.582
 2980POPC   NC338879  43.340   8.671   9.630
 2980POPC   PO438880  42.845   9.132   9.695
 2980POPC   GL138881  42.917   8.948   9.248
 2980POPC   GL238882  43.264   8.941   9.194
 2980POPC   C1A38883  42.932   8.906   8.782
 2980POPC   D2A38884  42.856   8.688   8.391
 2980POPC   C3A38885  42.939   8.887   8.020
 2980POPC   C4A38886  42.757   8.747   7.693
 2980POPC   C1B38887  43.446   8.697   8.868
 2980POPC   C2B38888  43.356   8.749   8.418
 2980POPC   C3B38889  43.348   8.603   7.988
 2980POPC   C4B38890  43.267   8.746   7.560
 2981POPC   NC338891  20.846  24.016   9.567
 2981POPC   PO438892  20.441  23.525   9.332
 2981POPC   GL138893  20.706  23.596   9.092
 2981POPC   GL238894  20.643  23.937   9.101
 2981POPC   C1A38895  20.566  23.608   8.685
 2981POPC   D2A38896  20.769  23.573   8.353
 2981POPC   C3A38897  20.551  23.657   8.040
 2981POPC   C4A38898  20.582  23.410   7.689
 2981POPC   C1B38899  20.877  24.003   8.748
 2981POPC   C2B38900  20.721  24.180   8.394
 2981POPC   C3B38901  20.694  24.187   7.974
 2981POPC   C4B38902  20.807  23.880   7.679
 2982POPC   NC338903  40.700   9.140   9.432
 2982POPC   PO438904  41.059   8.652   9.603
 2982POPC   GL138905  41.079   8.851   9.217
 2982POPC   GL238906  40.854   8.601   9.128
 2982POPC   C1A38907  40.849   9.044   8.835
 2982POPC   D2A38908  40.589   9.047   8.483
 2982POPC   C3A38909  40.748   9.198   8.089
 2982POPC   C4A38910  40.643   8.963   7.700
 2982POPC   C1B38911  41.170   8.628   8.778
 2982POPC   C2B38912  41.073   8.868   8.411
 2982POPC   C3B38913  40.977   8.744   8.012
 2982POPC   C4B38914  41.092   8.688   7.600
 2983POPC   NC338915   2.361  26.129   9.687
 2983POPC   PO438916   3.029  26.304   9.496
 2983POPC   GL138917   2.768  26.327   9.143
 2983POPC   GL238918   2.570  26.046   9.214
 2983POPC   C1A38919   2.835  26.328   8.691
 2983POPC   D2A38920   2.554  26.329   8.349
 2983POPC   C3A38921   2.696  26.350   7.946
 2983POPC   C4A38922   2.868  26.136   7.646
 2983POPC   C1B38923   2.667  25.862   8.805
 2983POPC   C2B38924   2.807  25.883   8.368
 2983POPC   C3B38925   2.711  25.764   7.955
 2983POPC   C4B38926   2.627  25.421   7.667
 2984POPC   NC338927   7.177  43.897   9.508
 2984POPC   PO438928   6.550  43.720   9.515
 2984POPC   GL138929   6.566  43.978   9.149
 2984POPC   GL238930   6.845  44.206   9.217
 2984POPC   C1A38931   6.489  43.883   8.729
 2984POPC   D2A38932   6.286  43.869   8.353
 2984POPC   C3A38933   6.435  43.611   8.068
 2984POPC   C4A38934   6.495  43.861   7.706
 2984POPC   C1B38935   6.977  44.038   8.821
 2984POPC   C2B38936   6.836  44.085   8.405
 2984POPC   C3B38937   6.897  43.891   8.004
 2984POPC   C4B38938   6.882  44.206   7.669
 2985POPC   NC338939  24.595  30.941   9.599
 2985POPC   PO438940  24.333  31.570   9.595
 2985POPC   GL138941  24.340  31.714   9.163
 2985POPC   GL238942  24.372  31.427   9.067
 2985POPC   C1A38943  24.398  31.818   8.732
 2985POPC   D2A38944  24.267  31.526   8.440
 2985POPC   C3A38945  24.435  31.578   8.064
 2985POPC   C4A38946  24.401  31.796   7.701
 2985POPC   C1B38947  24.659  31.374   8.722
 2985POPC   C2B38948  24.833  31.608   8.407
 2985POPC   C3B38949  24.892  31.331   8.072
 2985POPC   C4B38950  24.690  31.376   7.664
 2986POPC   NC338951  39.569  22.736   9.438
 2986POPC   PO438952  40.203  22.897   9.237
 2986POPC   GL138953  39.856  22.820   9.040
 2986POPC   GL238954  39.762  23.163   9.105
 2986POPC   C1A38955  39.860  22.649   8.664
 2986POPC   D2A38956  40.134  22.613   8.324
 2986POPC   C3A38957  39.968  22.736   7.943
 2986POPC   C4A38958  39.744  22.876   7.606
 2986POPC   C1B38959  40.031  23.121   8.678
 2986POPC   C2B38960  40.176  23.137   8.283
 2986POPC   C3B38961  39.982  23.245   7.913
 2986POPC   C4B38962  40.218  23.069   7.628
 2987POPC   NC338963  11.724   0.473   9.421
 2987POPC   PO438964  12.392   0.175   9.411
 2987POPC   GL138965  12.200   0.417   9.098
 2987POPC   GL238966  11.886   0.254   8.995
 2987POPC   C1A38967  12.340   0.464   8.670
 2987POPC   D2A38968  12.489   0.561   8.249
 2987POPC   C3A38969  12.207   0.623   7.909
 2987POPC   C4A38970  12.132   0.336   7.525
 2987POPC   C1B38971  11.857   0.651   8.775
 2987POPC   C2B38972  11.962   0.655   8.357
 2987POPC   C3B38973  11.748   0.430   7.998
 2987POPC   C4B38974  11.769   0.657   7.632
 2988POPC   NC338975   8.025  10.654   9.721
 2988POPC   PO438976   7.326  10.578   9.488
 2988POPC   GL138977   7.493  10.507   9.066
 2988POPC   GL238978   7.614  10.751   8.844
 2988POPC   C1A38979   7.542  10.236   8.745
 2988POPC   D2A38980   7.587  10.456   8.411
 2988POPC   C3A38981   7.501  10.385   8.015
 2988POPC   C4A38982   7.848  10.606   7.781
 2988POPC   C1B38983   7.164  10.580   8.703
 2988POPC   C2B38984   7.088  10.579   8.280
 2988POPC   C3B38985   7.107  10.911   8.039
 2988POPC   C4B38986   7.387  10.793   7.733
 2989POPC   NC338987  16.860   2.602   9.491
 2989POPC   PO438988  16.994   3.248   9.339
 2989POPC   GL138989  16.829   2.959   9.011
 2989POPC   GL238990  16.721   2.600   9.009
 2989POPC   C1A38991  16.945   2.902   8.549
 2989POPC   D2A38992  16.752   2.997   8.150
 2989POPC   C3A38993  16.854   3.115   7.745
 2989POPC   C4A38994  17.010   2.952   7.333
 2989POPC   C1B38995  16.919   2.390   8.669
 2989POPC   C2B38996  16.976   2.350   8.235
 2989POPC   C3B38997  16.872   2.591   7.861
 2989POPC   C4B38998  16.620   2.651   7.519
 2990POPC   NC338999  38.040   7.385   9.463
 2990POPC   PO439000  37.518   7.788   9.523
 2990POPC   GL139001  37.637   7.636   9.101
 2990POPC   GL239002  37.713   7.253   9.000
 2990POPC   C1A39003  37.692   7.617   8.656
 2990POPC   D2A39004  37.675   7.256   8.412
 2990POPC   C3A39005  37.623   7.429   8.047
 2990POPC   C4A39006  37.783   7.658   7.762
 2990POPC   C1B39007  38.096   7.183   8.684
 2990POPC   C2B39008  38.298   7.106   8.269
 2990POPC   C3B39009  38.039   7.185   7.895
 2990POPC   C4B39010  37.831   7.102   7.512
 2991POPC   NC339011  21.020  35.366   9.767
 2991POPC   PO439012  21.590  35.495   9.451
 2991POPC   GL139013  21.347  35.578   9.081
 2991POPC   GL239014  21.015  35.471   9.212
 2991POPC   C1A39015  21.244  35.764   8.689
 2991POPC   D2A39016  21.258  35.815   8.252
 2991POPC   C3A39017  21.520  35.459   8.085
 2991POPC   C4A39018  21.437  35.260   7.698
 2991POPC   C1B39019  20.945  35.325   8.804
 2991POPC   C2B39020  21.145  35.314   8.415
 2991POPC   C3B39021  21.019  35.264   7.991
 2991POPC   C4B39022  21.123  34.869   7.766
 2992POPC   NC339023  13.055  34.207   9.357
 2992POPC   PO439024  12.553  34.546   9.577
 2992POPC   GL139025  12.760  34.603   9.171
 2992POPC   GL239026  12.625  34.251   9.093
 2992POPC   C1A39027  12.998  34.839   8.819
 2992POPC   D2A39028  13.169  34.740   8.364
 2992POPC   C3A39029  12.883  34.750   7.988
 2992POPC   C4A39030  12.797  34.638   7.534
 2992POPC   C1B39031  12.688  34.439   8.695
 2992POPC   C2B39032  12.534  34.568   8.299
 2992POPC   C3B39033  12.548  34.334   7.858
 2992POPC   C4B39034  12.510  34.247   7.371
 2993POPC   NC339035  10.746  16.322   9.518
 2993POPC   PO439036  10.355  15.726   9.609
 2993POPC   GL139037  10.583  15.812   9.247
 2993POPC   GL239038  10.400  16.089   9.164
 2993POPC   C1A39039  10.613  15.659   8.818
 2993POPC   D2A39040  10.433  15.689   8.406
 2993POPC   C3A39041  10.673  15.590   8.060
 2993POPC   C4A39042  10.784  15.768   7.674
 2993POPC   C1B39043  10.491  16.267   8.783
 2993POPC   C2B39044  10.377  16.202   8.368
 2993POPC   C3B39045  10.636  16.090   8.043
 2993POPC   C4B39046  10.873  16.276   7.705
 2994POPC   NC339047  43.483  28.223   9.374
 2994POPC   PO439048  42.849  28.149   9.391
 2994POPC   GL139049  43.088  28.373   9.101
 2994POPC   GL239050  43.366  28.208   8.883
 2994POPC   C1A39051  43.043  28.559   8.723
 2994POPC   D2A39052  43.203  28.400   8.389
 2994POPC   C3A39053  43.136  28.539   7.984
 2994POPC   C4A39054  43.375  28.228   7.853
 2994POPC   C1B39055  42.935  28.063   8.741
 2994POPC   C2B39056  42.622  28.054   8.459
 2994POPC   C3B39057  42.865  28.101   8.134
 2994POPC   C4B39058  42.878  28.150   7.734
 2995POPC   NC339059  33.185  15.048   9.437
 2995POPC   PO439060  32.880  15.692   9.446
 2995POPC   GL139061  33.010  15.464   9.093
 2995POPC   GL239062  32.833  15.135   9.090
 2995POPC   C1A39063  33.208  15.204   8.775
 2995POPC   D2A39064  33.394  15.213   8.411
 2995POPC   C3A39065  33.052  15.230   8.133
 2995POPC   C4A39066  33.183  15.185   7.748
 2995POPC   C1B39067  32.835  14.827   8.757
 2995POPC   C2B39068  33.051  14.767   8.337
 2995POPC   C3B39069  32.798  14.802   7.929
 2995POPC   C4B39070  32.781  14.965   7.490
 2996POPC   NC339071  33.650  24.199   9.431
 2996POPC   PO439072  33.976  24.832   9.329
 2996POPC   GL139073  33.974  24.451   9.132
 2996POPC   GL239074  33.649  24.539   9.037
 2996POPC   C1A39075  33.901  24.160   8.792
 2996POPC   D2A39076  34.128  24.205   8.415
 2996POPC   C3A39077  34.002  24.233   7.986
 2996POPC   C4A39078  33.659  24.092   7.809
 2996POPC   C1B39079  33.741  24.606   8.629
 2996POPC   C2B39080  33.622  24.420   8.268
 2996POPC   C3B39081  33.678  24.626   7.894
 2996POPC   C4B39082  33.370  24.848   7.718
 2997POPC   NC339083  17.159  11.436   9.509
 2997POPC   PO439084  17.811  11.154   9.486
 2997POPC   GL139085  17.599  11.326   9.159
 2997POPC   GL239086  17.318  11.172   9.100
 2997POPC   C1A39087  17.633  11.381   8.717
 2997POPC   D2A39088  17.484  11.673   8.437
 2997POPC   C3A39089  17.590  11.543   8.072
 2997POPC   C4A39090  17.448  11.491   7.697
 2997POPC   C1B39091  17.323  10.957   8.716
 2997POPC   C2B39092  17.333  11.153   8.336
 2997POPC   C3B39093  17.443  11.038   7.951
 2997POPC   C4B39094  17.240  11.018   7.604
 2998POPC   NC339095   7.614  10.917   9.338
 2998POPC   PO439096   7.233  11.569   9.390
 2998POPC   GL139097   7.363  11.446   8.986
 2998POPC   GL239098   7.252  11.101   8.945
 2998POPC   C1A39099   7.626  11.687   8.680
 2998POPC   D2A39100   7.590  11.731   8.238
 2998POPC   C3A39101   7.357  11.372   8.065
 2998POPC   C4A39102   7.171  11.241   7.660
 2998POPC   C1B39103   7.347  11.006   8.497
 2998POPC   C2B39104   7.629  10.916   8.179
 2998POPC   C3B39105   7.750  11.126   7.810
 2998POPC   C4B39106   7.693  10.968   7.377
 2999POPC   NC339107   1.339   4.711   9.784
 2999POPC   PO439108   1.488   5.377   9.465
 2999POPC   GL139109   1.447   5.224   9.042
 2999POPC   GL239110   1.158   5.055   9.034
 2999POPC   C1A39111   1.187   5.373   8.650
 2999POPC   D2A39112   1.061   5.284   8.216
 2999POPC   C3A39113   1.277   5.420   7.833
 2999POPC   C4A39114   1.270   5.125   7.469
 2999POPC   C1B39115   0.899   4.871   8.714
 2999POPC   C2B39116   0.675   4.925   8.343
 2999POPC   C3B39117   0.797   4.913   7.915
 2999POPC   C4B39118   0.826   4.761   7.496
 3000POPC   NC339119   6.174  24.341   9.602
 3000POPC   PO439120   5.525  24.506   9.536
 3000POPC   GL139121   5.805  24.573   9.215
 3000POPC   GL239122   6.057  24.821   9.338
 3000POPC   C1A39123   5.744  24.421   8.800
 3000POPC   D2A39124   5.865  24.529   8.397
 3000POPC   C3A39125   5.812  24.412   7.985
 3000POPC   C4A39126   5.744  24.424   7.556
 3000POPC   C1B39127   6.095  24.854   8.875
 3000POPC   C2B39128   6.260  24.830   8.460
 3000POPC   C3B39129   6.104  24.840   8.062
 3000POPC   C4B39130   6.270  24.984   7.719
 3001POPC   NC339131   8.282  20.144   9.541
 3001POPC   PO439132   8.205  20.833   9.503
 3001POPC   GL139133   8.257  20.574   9.092
 3001POPC   GL239134   8.102  20.234   9.053
 3001POPC   C1A39135   8.538  20.516   8.708
 3001POPC   D2A39136   8.523  20.368   8.284
 3001POPC   C3A39137   8.570  20.743   8.034
 3001POPC   C4A39138   8.422  20.865   7.657
 3001POPC   C1B39139   8.039  20.471   8.646
 3001POPC   C2B39140   7.726  20.676   8.409
 3001POPC   C3B39141   7.657  20.571   7.987
 3001POPC   C4B39142   8.071  20.389   7.931
 3002POPC   NC339143  25.760  34.175   9.517
 3002POPC   PO439144  25.812  33.492   9.747
 3002POPC   GL139145  25.872  33.704   9.300
 3002POPC   GL239146  26.115  33.936   9.189
 3002POPC   C1A39147  25.873  33.604   8.836
 3002POPC   D2A39148  26.033  33.697   8.421
 3002POPC   C3A39149  25.916  33.528   7.987
 3002POPC   C4A39150  26.021  33.569   7.514
 3002POPC   C1B39151  25.807  34.099   8.864
 3002POPC   C2B39152  25.732  34.265   8.452
 3002POPC   C3B39153  25.800  34.017   8.099
 3002POPC   C4B39154  25.618  33.863   7.744
 3003POPC   NC339155  13.375  36.375   9.516
 3003POPC   PO439156  13.856  35.813   9.406
 3003POPC   GL139157  13.605  36.081   9.128
 3003POPC   GL239158  13.651  36.457   9.079
 3003POPC   C1A39159  13.571  36.160   8.689
 3003POPC   D2A39160  13.443  35.937   8.364
 3003POPC   C3A39161  13.599  36.111   8.008
 3003POPC   C4A39162  13.679  35.947   7.625
 3003POPC   C1B39163  13.242  36.531   8.843
 3003POPC   C2B39164  13.117  36.408   8.415
 3003POPC   C3B39165  13.259  36.511   7.991
 3003POPC   C4B39166  13.438  36.680   7.601
 3004POPC   NC339167  37.752   0.502   9.829
 3004POPC   PO439168  38.065  44.989   9.598
 3004POPC   GL139169  37.793   0.284   9.288
 3004POPC   GL239170  37.906   0.575   9.027
 3004POPC   C1A39171  37.494   0.320   8.917
 3004POPC   D2A39172  37.529   0.581   8.535
 3004POPC   C3A39173  37.715   0.355   8.179
 3004POPC   C4A39174  37.514   0.224   7.780
 3004POPC   C1B39175  37.928   0.317   8.680
 3004POPC   C2B39176  38.149   0.507   8.451
 3004POPC   C3B39177  38.203   0.573   8.075
 3004POPC   C4B39178  37.975   0.473   7.738
 3005POPC   NC339179   9.832   0.032   9.962
 3005POPC   PO439180   9.788   0.610   9.674
 3005POPC   GL139181   9.778   0.603   9.258
 3005POPC   GL239182   9.702   0.246   9.300
 3005POPC   C1A39183   9.799   0.722   8.824
 3005POPC   D2A39184  10.029   0.526   8.504
 3005POPC   C3A39185   9.814   0.562   8.138
 3005POPC   C4A39186   9.782   0.534   7.711
 3005POPC   C1B39187   9.847   0.203   8.880
 3005POPC   C2B39188   9.694   0.151   8.444
 3005POPC   C3B39189   9.820   0.051   8.016
 3005POPC   C4B39190   9.564   0.070   7.658
 3006POPC   NC339191  29.266  12.772   9.613
 3006POPC   PO439192  28.722  13.142   9.500
 3006POPC   GL139193  28.969  12.960   9.137
 3006POPC   GL239194  29.160  12.670   9.141
 3006POPC   C1A39195  29.164  12.888   8.706
 3006POPC   D2A39196  28.933  12.878   8.353
 3006POPC   C3A39197  29.075  13.063   8.005
 3006POPC   C4A39198  29.427  13.143   7.749
 3006POPC   C1B39199  28.859  12.462   8.806
 3006POPC   C2B39200  28.658  12.457   8.363
 3006POPC   C3B39201  28.897  12.547   7.955
 3006POPC   C4B39202  29.343  12.622   7.848
 3007POPC   NC339203  19.143  37.000   9.654
 3007POPC   PO439204  18.664  36.998   9.196
 3007POPC   GL139205  19.074  37.022   9.050
 3007POPC   GL239206  19.258  36.755   9.207
 3007POPC   C1A39207  19.061  37.038   8.591
 3007POPC   D2A39208  18.724  37.219   8.309
 3007POPC   C3A39209  18.741  37.009   7.892
 3007POPC   C4A39210  18.801  36.973   7.406
 3007POPC   C1B39211  19.436  36.742   8.807
 3007POPC   C2B39212  19.474  36.510   8.450
 3007POPC   C3B39213  19.426  36.698   8.055
 3007POPC   C4B39214  19.157  36.773   7.713
 3008POPC   NC339215  39.696  33.463   9.787
 3008POPC   PO439216  40.230  33.738   9.456
 3008POPC   GL139217  40.108  33.898   9.090
 3008POPC   GL239218  39.810  34.058   9.110
 3008POPC   C1A39219  40.093  33.721   8.706
 3008POPC   D2A39220  39.843  33.471   8.465
 3008POPC   C3A39221  40.059  33.621   8.099
 3008POPC   C4A39222  39.921  33.625   7.684
 3008POPC   C1B39223  39.749  34.271   8.732
 3008POPC   C2B39224  39.832  34.372   8.303
 3008POPC   C3B39225  39.790  34.076   7.930
 3008POPC   C4B39226  39.915  34.224   7.540
 3009POPC   NC339227  35.572  27.415   9.386
 3009POPC   PO439228  34.999  27.765   9.527
 3009POPC   GL139229  35.027  27.957   9.106
 3009POPC   GL239230  35.385  27.995   9.032
 3009POPC   C1A39231  35.070  27.807   8.667
 3009POPC   D2A39232  34.964  27.505   8.312
 3009POPC   C3A39233  35.206  27.509   7.931
 3009POPC   C4A39234  35.440  27.735   7.618
 3009POPC   C1B39235  35.688  27.813   8.732
 3009POPC   C2B39236  35.539  27.633   8.341
 3009POPC   C3B39237  35.724  27.502   7.965
 3009POPC   C4B39238  35.966  27.747   7.664
 3010POPC   NC339239  26.620  20.861   9.658
 3010POPC   PO439240  26.972  20.342   9.501
 3010POPC   GL139241  26.746  20.402   9.159
 3010POPC   GL239242  26.731  20.738   9.172
 3010POPC   C1A39243  26.957  20.467   8.755
 3010POPC   D2A39244  26.860  20.486   8.323
 3010POPC   C3A39245  27.080  20.261   8.003
 3010POPC   C4A39246  26.879  20.232   7.604
 3010POPC   C1B39247  26.764  20.965   8.822
 3010POPC   C2B39248  26.895  21.012   8.437
 3010POPC   C3B39249  26.656  20.952   8.091
 3010POPC   C4B39250  26.707  20.768   7.716
 3011POPC   NC339251  26.828   7.824   9.630
 3011POPC   PO439252  26.507   8.427   9.513
 3011POPC   GL139253  26.812   8.208   9.219
 3011POPC   GL239254  26.763   7.840   9.126
 3011POPC   C1A39255  26.906   8.403   8.816
 3011POPC   D2A39256  27.066   8.329   8.402
 3011POPC   C3A39257  26.805   8.360   8.044
 3011POPC   C4A39258  26.862   8.413   7.639
 3011POPC   C1B39259  26.986   7.901   8.720
 3011POPC   C2B39260  26.810   7.887   8.278
 3011POPC   C3B39261  26.842   7.905   7.801
 3011POPC   C4B39262  26.537   8.048   7.505
 3012POPC   NC339263  13.037  11.300   9.315
 3012POPC   PO439264  12.326  11.092   9.392
 3012POPC   GL139265  12.498  11.078   8.971
 3012POPC   GL239266  12.846  10.938   8.980
 3012POPC   C1A39267  12.735  11.309   8.610
 3012POPC   D2A39268  13.127  11.365   8.365
 3012POPC   C3A39269  13.026  11.545   7.955
 3012POPC   C4A39270  12.588  11.622   7.870
 3012POPC   C1B39271  12.743  10.793   8.552
 3012POPC   C2B39272  12.844  10.970   8.150
 3012POPC   C3B39273  12.720  11.140   7.711
 3012POPC   C4B39274  12.643  11.062   7.235
 3013POPC   NC339275  27.735  10.582   9.749
 3013POPC   PO439276  27.554   9.981   9.543
 3013POPC   GL139277  27.712  10.365   9.245
 3013POPC   GL239278  27.470  10.314   8.992
 3013POPC   C1A39279  27.732  10.701   8.812
 3013POPC   D2A39280  27.863  10.578   8.340
 3013POPC   C3A39281  27.669  10.671   7.894
 3013POPC   C4A39282  27.879  10.694   7.417
 3013POPC   C1B39283  27.252  10.245   8.606
 3013POPC   C2B39284  27.397  10.379   8.248
 3013POPC   C3B39285  27.314  10.296   7.840
 3013POPC   C4B39286  27.480  10.385   7.443
 3014POPC   NC339287  30.333  18.355   9.424
 3014POPC   PO439288  31.022  18.428   9.344
 3014POPC   GL139289  30.715  18.311   9.056
 3014POPC   GL239290  30.457  18.558   8.989
 3014POPC   C1A39291  30.719  18.065   8.667
 3014POPC   D2A39292  30.497  17.905   8.319
 3014POPC   C3A39293  30.685  17.974   7.936
 3014POPC   C4A39294  30.942  18.319   7.792
 3014POPC   C1B39295  30.728  18.576   8.621
 3014POPC   C2B39296  30.681  18.408   8.229
 3014POPC   C3B39297  30.458  18.462   7.832
 3014POPC   C4B39298  30.567  18.607   7.407
 3015POPC   NC339299  29.935  24.046   9.492
 3015POPC   PO439300  29.727  24.668   9.451
 3015POPC   GL139301  29.856  24.558   9.066
 3015POPC   GL239302  30.049  24.246   9.048
 3015POPC   C1A39303  29.701  24.399   8.696
 3015POPC   D2A39304  29.639  24.136   8.360
 3015POPC   C3A39305  29.653  24.447   8.059
 3015POPC   C4A39306  29.746  24.552   7.648
 3015POPC   C1B39307  30.159  24.114   8.633
 3015POPC   C2B39308  30.085  24.386   8.310
 3015POPC   C3B39309  30.200  24.499   7.896
 3015POPC   C4B39310  30.388  24.893   7.716
 3016POPC   NC339311  38.176  44.596   9.816
 3016POPC   PO439312  38.775  44.718   9.515
 3016POPC   GL139313  38.511  44.561   9.219
 3016POPC   GL239314  38.555  44.814   9.040
 3016POPC   C1A39315  38.229  44.477   8.840
 3016POPC   D2A39316  37.900  44.447   8.494
 3016POPC   C3A39317  38.084  44.483   8.046
 3016POPC   C4A39318  38.501  44.663   7.903
 3016POPC   C1B39319  38.779  44.977   8.738
 3016POPC   C2B39320  38.919  44.726   8.416
 3016POPC   C3B39321  39.035  44.766   8.005
 3016POPC   C4B39322  38.835   0.050   7.739
 3017POPC   NC339323   9.784   1.069   9.573
 3017POPC   PO439324   9.794   1.730   9.678
 3017POPC   GL139325   9.814   1.431   9.214
 3017POPC   GL239326   9.596   1.094   9.116
 3017POPC   C1A39327   9.932   1.281   8.767
 3017POPC   D2A39328   9.872   1.010   8.385
 3017POPC   C3A39329   9.903   1.132   7.928
 3017POPC   C4A39330   9.617   1.418   7.665
 3017POPC   C1B39331   9.311   0.915   8.833
 3017POPC   C2B39332   9.368   1.114   8.462
 3017POPC   C3B39333   9.449   0.939   8.086
 3017POPC   C4B39334   9.460   0.936   7.698
 3018POPC   NC339335  28.990   5.843   9.441
 3018POPC   PO439336  29.702   6.040   9.520
 3018POPC   GL139337  29.470   5.788   9.234
 3018POPC   GL239338  29.330   6.111   9.178
 3018POPC   C1A39339  29.283   5.756   8.815
 3018POPC   D2A39340  29.090   5.973   8.447
 3018POPC   C3A39341  29.030   5.818   8.052
 3018POPC   C4A39342  28.693   5.990   7.748
 3018POPC   C1B39343  29.225   6.273   8.826
 3018POPC   C2B39344  29.445   6.427   8.495
 3018POPC   C3B39345  29.469   6.382   8.048
 3018POPC   C4B39346  29.147   6.209   7.778
 3019POPC   NC339347  15.582   9.792   9.489
 3019POPC   PO439348  16.205   9.594   9.330
 3019POPC   GL139349  15.845   9.680   9.073
 3019POPC   GL239350  15.816  10.068   9.122
 3019POPC   C1A39351  15.846   9.470   8.676
 3019POPC   D2A39352  16.189   9.259   8.444
 3019POPC   C3A39353  16.230   9.528   8.084
 3019POPC   C4A39354  15.899   9.757   7.822
 3019POPC   C1B39355  16.003  10.006   8.707
 3019POPC   C2B39356  16.031   9.981   8.267
 3019POPC   C3B39357  16.034  10.241   7.905
 3019POPC   C4B39358  15.883  10.161   7.501
 3020POPC   NC339359  22.187  26.811   9.334
 3020POPC   PO439360  22.178  27.409   9.646
 3020POPC   GL139361  22.157  27.581   9.227
 3020POPC   GL239362  22.073  27.927   9.214
 3020POPC   C1A39363  22.252  27.391   8.818
 3020POPC   D2A39364  22.357  27.180   8.435
 3020POPC   C3A39365  22.276  27.435   8.084
 3020POPC   C4A39366  22.462  27.685   7.751
 3020POPC   C1B39367  22.349  27.885   8.830
 3020POPC   C2B39368  22.482  27.761   8.420
 3020POPC   C3B39369  22.334  28.045   8.086
 3020POPC   C4B39370  22.107  28.104   7.681
 3021POPC   NC339371  20.171  23.280   9.609
 3021POPC   PO439372  19.899  22.711   9.540
 3021POPC   GL139373  19.842  23.032   9.249
 3021POPC   GL239374  19.705  22.807   9.047
 3021POPC   C1A39375  20.084  23.043   8.832
 3021POPC   D2A39376  19.886  23.000   8.438
 3021POPC   C3A39377  20.033  22.901   8.048
 3021POPC   C4A39378  19.852  23.016   7.688
 3021POPC   C1B39379  19.479  22.799   8.654
 3021POPC   C2B39380  19.387  22.601   8.266
 3021POPC   C3B39381  19.607  22.613   7.858
 3021POPC   C4B39382  19.596  22.652   7.393
 3022POPC   NC339383  33.735  17.277   9.568
 3022POPC   PO439384  33.580  17.886   9.499
 3022POPC   GL139385  33.643  17.619   9.161
 3022POPC   GL239386  33.992  17.513   9.172
 3022POPC   C1A39387  33.620  17.433   8.740
 3022POPC   D2A39388  33.484  17.450   8.306
 3022POPC   C3A39389  33.709  17.404   7.901
 3022POPC   C4A39390  33.601  17.570   7.474
 3022POPC   C1B39391  34.133  17.501   8.734
 3022POPC   C2B39392  34.030  17.455   8.305
 3022POPC   C3B39393  34.198  17.545   7.906
 3022POPC   C4B39394  34.078  17.760   7.542
 3023POPC   NC339395  25.149  19.822   9.573
 3023POPC   PO439396  25.742  20.070   9.646
 3023POPC   GL139397  25.457  20.072   9.236
 3023POPC   GL239398  25.099  20.123   9.154
 3023POPC   C1A39399  25.369  19.811   8.856
 3023POPC   D2A39400  25.065  19.841   8.514
 3023POPC   C3A39401  25.246  19.724   8.128
 3023POPC   C4A39402  25.376  19.720   7.723
 3023POPC   C1B39403  25.161  20.294   8.723
 3023POPC   C2B39404  24.948  20.374   8.331
 3023POPC   C3B39405  24.755  20.024   8.140
 3023POPC   C4B39406  24.882  19.826   7.789
 3024POPC   NC339407  24.471  21.658   9.498
 3024POPC   PO439408  24.969  21.196   9.629
 3024POPC   GL139409  24.603  21.154   9.249
 3024POPC   GL239410  24.332  21.419   9.075
 3024POPC   C1A39411  24.629  21.129   8.777
 3024POPC   D2A39412  24.325  21.239   8.450
 3024POPC   C3A39413  24.500  21.205   8.042
 3024POPC   C4A39414  24.364  21.499   7.772
 3024POPC   C1B39415  24.541  21.624   8.694
 3024POPC   C2B39416  24.812  21.499   8.352
 3024POPC   C3B39417  24.808  21.680   7.941
 3024POPC   C4B39418  24.836  21.508   7.535
 3025POPC   NC339419   8.812  19.155   9.504
 3025POPC   PO439420   9.314  19.601   9.475
 3025POPC   GL139421   9.224  19.222   9.163
 3025POPC   GL239422   8.867  19.011   9.048
 3025POPC   C1A39423   9.143  19.236   8.723
 3025POPC   D2A39424   8.808  19.166   8.424
 3025POPC   C3A39425   8.912  19.125   7.977
 3025POPC   C4A39426   9.183  19.124   7.611
 3025POPC   C1B39427   8.582  18.789   8.779
 3025POPC   C2B39428   8.425  18.822   8.369
 3025POPC   C3B39429   8.594  18.720   7.973
 3025POPC   C4B39430   8.750  18.769   7.550
 3026POPC   NC339431   5.444  36.632   9.793
 3026POPC   PO439432   4.880  36.906   9.496
 3026POPC   GL139433   5.003  36.785   9.134
 3026POPC   GL239434   5.263  36.543   9.263
 3026POPC   C1A39435   5.062  37.063   8.803
 3026POPC   D2A39436   5.295  36.987   8.472
 3026POPC   C3A39437   5.198  37.166   8.086
 3026POPC   C4A39438   5.039  37.187   7.695
 3026POPC   C1B39439   5.340  36.591   8.819
 3026POPC   C2B39440   4.972  36.608   8.537
 3026POPC   C3B39441   4.965  36.672   8.101
 3026POPC   C4B39442   5.249  36.525   7.772
 3027POPC   NC339443   9.529  34.933   9.531
 3027POPC   PO439444  10.100  35.288   9.550
 3027POPC   GL139445   9.789  35.282   9.221
 3027POPC   GL239446   9.425  35.295   9.151
 3027POPC   C1A39447   9.866  35.276   8.786
 3027POPC   D2A39448   9.773  35.551   8.443
 3027POPC   C3A39449  10.017  35.653   8.056
 3027POPC   C4A39450   9.753  35.402   7.807
 3027POPC   C1B39451   9.372  35.139   8.711
 3027POPC   C2B39452   9.683  35.038   8.368
 3027POPC   C3B39453   9.637  34.938   7.933
 3027POPC   C4B39454   9.407  35.007   7.577
 3028POPC   NC339455  35.944  30.473   9.461
 3028POPC   PO439456  36.441  30.950   9.430
 3028POPC   GL139457  36.217  30.726   9.106
 3028POPC   GL239458  35.896  30.781   9.031
 3028POPC   C1A39459  36.272  30.588   8.682
 3028POPC   D2A39460  36.461  30.578   8.236
 3028POPC   C3A39461  36.204  30.516   7.865
 3028POPC   C4A39462  36.181  30.706   7.437
 3028POPC   C1B39463  35.799  30.959   8.626
 3028POPC   C2B39464  35.727  31.020   8.175
 3028POPC   C3B39465  35.841  30.871   7.809
 3028POPC   C4B39466  35.745  30.975   7.373
 3029POPC   NC339467  37.838  32.905   9.360
 3029POPC   PO439468  37.592  32.210   9.483
 3029POPC   GL139469  37.472  32.279   9.088
 3029POPC   GL239470  37.637  32.556   9.069
 3029POPC   C1A39471  37.686  32.249   8.670
 3029POPC   D2A39472  37.957  32.062   8.377
 3029POPC   C3A39473  37.779  32.069   7.994
 3029POPC   C4A39474  37.481  32.286   7.788
 3029POPC   C1B39475  37.928  32.700   8.737
 3029POPC   C2B39476  38.120  32.571   8.328
 3029POPC   C3B39477  37.888  32.552   7.963
 3029POPC   C4B39478  37.755  32.718   7.600
 3030POPC   NC339479  35.641  16.735   9.551
 3030POPC   PO439480  35.041  17.158   9.543
 3030POPC   GL139481  35.336  16.950   9.169
 3030POPC   GL239482  35.498  16.609   9.086
 3030POPC   C1A39483  35.315  16.963   8.746
 3030POPC   D2A39484  35.058  16.789   8.429
 3030POPC   C3A39485  35.260  16.895   8.054
 3030POPC   C4A39486  35.301  17.066   7.632
 3030POPC   C1B39487  35.316  16.427   8.716
 3030POPC   C2B39488  35.433  16.216   8.328
 3030POPC   C3B39489  35.470  16.373   7.898
 3030POPC   C4B39490  35.135  16.565   7.691
 3031POPC   NC339491  21.906   6.156   9.552
 3031POPC   PO439492  22.213   5.642   9.750
 3031POPC   GL139493  22.133   5.769   9.295
 3031POPC   GL239494  22.335   6.067   9.233
 3031POPC   C1A39495  22.173   5.740   8.831
 3031POPC   D2A39496  22.045   5.559   8.462
 3031POPC   C3A39497  22.079   5.721   8.063
 3031POPC   C4A39498  22.136   5.513   7.689
 3031POPC   C1B39499  22.530   6.082   8.811
 3031POPC   C2B39500  22.528   5.882   8.434
 3031POPC   C3B39501  22.456   6.062   8.052
 3031POPC   C4B39502  22.306   6.045   7.673
 3032POPC   NC339503  23.645  39.702   9.630
 3032POPC   PO439504  24.094  40.198   9.663
 3032POPC   GL139505  23.787  40.083   9.277
 3032POPC   GL239506  23.584  39.778   9.119
 3032POPC   C1A39507  23.793  40.110   8.805
 3032POPC   D2A39508  23.631  40.104   8.398
 3032POPC   C3A39509  23.925  40.174   8.099
 3032POPC   C4A39510  23.906  39.903   7.765
 3032POPC   C1B39511  23.627  39.631   8.646
 3032POPC   C2B39512  23.652  39.627   8.161
 3032POPC   C3B39513  23.565  39.537   7.705
 3032POPC   C4B39514  23.327  39.742   7.384
 3033POPC   NC339515  10.125  15.082   9.634
 3033POPC   PO439516   9.654  15.494   9.567
 3033POPC   GL139517   9.778  15.185   9.271
 3033POPC   GL239518   9.452  15.149   9.130
 3033POPC   C1A39519   9.913  14.954   8.871
 3033POPC   D2A39520   9.736  14.891   8.458
 3033POPC   C3A39521   9.917  14.857   8.051
 3033POPC   C4A39522  10.104  15.024   7.711
 3033POPC   C1B39523   9.704  15.430   8.844
 3033POPC   C2B39524   9.941  15.402   8.487
 3033POPC   C3B39525   9.820  15.354   8.082
 3033POPC   C4B39526   9.868  15.539   7.719
 3034POPC   NC339527  10.984   4.441   9.585
 3034POPC   PO439528  11.579   4.273   9.511
 3034POPC   GL139529  11.345   4.537   9.185
 3034POPC   GL239530  10.994   4.694   9.157
 3034POPC   C1A39531  11.365   4.413   8.750
 3034POPC   D2A39532  11.265   4.223   8.369
 3034POPC   C3A39533  11.540   4.222   8.032
 3034POPC   C4A39534  11.298   4.078   7.695
 3034POPC   C1B39535  11.048   4.816   8.757
 3034POPC   C2B39536  11.031   4.692   8.352
 3034POPC   C3B39537  11.174   4.578   7.948
 3034POPC   C4B39538  11.011   4.473   7.548
 3035POPC   NC339539  36.491  41.660   9.559
 3035POPC   PO439540  35.895  41.405   9.811
 3035POPC   GL139541  35.881  41.533   9.274
 3035POPC   GL239542  36.179  41.485   9.098
 3035POPC   C1A39543  35.769  41.540   8.803
 3035POPC   D2A39544  36.031  41.709   8.462
 3035POPC   C3A39545  36.061  41.602   7.990
 3035POPC   C4A39546  36.496  41.571   7.757
 3035POPC   C1B39547  36.292  41.311   8.718
 3035POPC   C2B39548  36.448  41.431   8.341
 3035POPC   C3B39549  36.351  41.189   8.055
 3035POPC   C4B39550  36.347  41.081   7.687
 3036POPC   NC339551  39.329  30.460   9.639
 3036POPC   PO439552  38.833  30.885   9.650
 3036POPC   GL139553  38.949  30.661   9.260
 3036POPC   GL239554  39.206  30.880   9.206
 3036POPC   C1A39555  39.045  30.557   8.806
 3036POPC   D2A39556  39.028  30.775   8.410
 3036POPC   C3A39557  38.876  30.660   8.017
 3036POPC   C4A39558  39.145  30.410   7.779
 3036POPC   C1B39559  39.465  30.923   8.837
 3036POPC   C2B39560  39.571  30.963   8.410
 3036POPC   C3B39561  39.421  30.828   8.021
 3036POPC   C4B39562  39.378  31.132   7.712
 3037POPC   NC339563   9.490  18.660   9.406
 3037POPC   PO439564   9.426  17.974   9.297
 3037POPC   GL139565   9.746  18.285   9.136
 3037POPC   GL239566   9.838  18.599   9.018
 3037POPC   C1A39567   9.980  18.155   8.771
 3037POPC   D2A39568   9.933  18.341   8.387
 3037POPC   C3A39569  10.025  18.130   8.056
 3037POPC   C4A39570   9.864  18.093   7.663
 3037POPC   C1B39571   9.552  18.451   8.708
 3037POPC   C2B39572   9.415  18.465   8.304
 3037POPC   C3B39573   9.533  18.389   7.894
 3037POPC   C4B39574   9.729  18.535   7.481
 3038POPC   NC339575  28.074   1.989   9.500
 3038POPC   PO439576  28.766   2.108   9.555
 3038POPC   GL139577  28.501   1.970   9.214
 3038POPC   GL239578  28.340   2.258   9.114
 3038POPC   C1A39579  28.314   1.856   8.795
 3038POPC   D2A39580  28.127   1.913   8.373
 3038POPC   C3A39581  28.348   1.860   8.010
 3038POPC   C4A39582  28.515   1.872   7.619
 3038POPC   C1B39583  28.152   2.334   8.694
 3038POPC   C2B39584  27.901   2.374   8.315
 3038POPC   C3B39585  27.944   2.210   7.948
 3038POPC   C4B39586  28.078   2.135   7.564
 3039POPC   NC339587   4.921   7.656   9.558
 3039POPC   PO439588   5.300   7.100   9.566
 3039POPC   GL139589   5.240   7.382   9.244
 3039POPC   GL239590   4.923   7.286   9.172
 3039POPC   C1A39591   5.268   7.481   8.810
 3039POPC   D2A39592   5.153   7.722   8.444
 3039POPC   C3A39593   5.394   7.632   8.073
 3039POPC   C4A39594   5.240   7.680   7.658
 3039POPC   C1B39595   4.694   7.161   8.824
 3039POPC   C2B39596   4.889   7.284   8.460
 3039POPC   C3B39597   4.901   7.484   8.062
 3039POPC   C4B39598   4.717   7.290   7.728
 3040POPC   NC339599  40.446  42.743   9.566
 3040POPC   PO439600  40.551  42.021   9.425
 3040POPC   GL139601  40.860  42.180   9.136
 3040POPC   GL239602  40.751  42.505   9.161
 3040POPC   C1A39603  40.977  42.312   8.722
 3040POPC   D2A39604  40.708  42.279   8.396
 3040POPC   C3A39605  40.835  42.148   8.030
 3040POPC   C4A39606  40.945  42.323   7.655
 3040POPC   C1B39607  40.621  42.675   8.744
 3040POPC   C2B39608  40.726  42.791   8.322
 3040POPC   C3B39609  40.607  42.618   7.917
 3040POPC   C4B39610  40.570  42.595   7.452
 3041POPC   NC339611  25.127  24.397   9.491
 3041POPC   PO439612  25.371  25.026   9.521
 3041POPC   GL139613  25.399  24.715   9.165
 3041POPC   GL239614  25.047  24.774   9.154
 3041POPC   C1A39615  25.358  24.285   8.893
 3041POPC   D2A39616  25.321  24.069   8.472
 3041POPC   C3A39617  25.386  24.403   8.169
 3041POPC   C4A39618  25.506  24.550   7.758
 3041POPC   C1B39619  25.030  24.650   8.737
 3041POPC   C2B39620  25.123  24.870   8.362
 3041POPC   C3B39621  25.072  24.770   7.941
 3041POPC   C4B39622  25.076  24.681   7.497
 3042POPC   NC339623  35.706  15.783   9.442
 3042POPC   PO439624  35.222  16.285   9.420
 3042POPC   GL139625  35.277  15.964   9.138
 3042POPC   GL239626  35.553  16.080   9.017
 3042POPC   C1A39627  35.124  15.946   8.712
 3042POPC   D2A39628  34.826  15.778   8.464
 3042POPC   C3A39629  34.901  15.785   8.045
 3042POPC   C4A39630  34.972  15.931   7.635
 3042POPC   C1B39631  35.523  15.675   8.791
 3042POPC   C2B39632  35.515  15.682   8.341
 3042POPC   C3B39633  35.423  15.855   7.929
 3042POPC   C4B39634  35.431  15.701   7.512
 3043POPC   NC339635  17.197  32.391   9.466
 3043POPC   PO439636  17.697  31.952   9.544
 3043POPC   GL139637  17.432  32.031   9.196
 3043POPC   GL239638  17.611  32.338   9.194
 3043POPC   C1A39639  17.316  32.219   8.791
 3043POPC   D2A39640  17.482  32.048   8.398
 3043POPC   C3A39641  17.383  32.279   8.080
 3043POPC   C4A39642  17.172  32.328   7.713
 3043POPC   C1B39643  17.826  32.220   8.824
 3043POPC   C2B39644  17.791  32.454   8.447
 3043POPC   C3B39645  17.858  32.413   8.025
 3043POPC   C4B39646  17.610  32.578   7.739
 3044POPC   NC339647  34.730  29.720   9.358
 3044POPC   PO439648  34.092  30.062   9.446
 3044POPC   GL139649  34.346  29.976   9.107
 3044POPC   GL239650  34.263  29.655   9.103
 3044POPC   C1A39651  34.471  30.194   8.740
 3044POPC   D2A39652  34.488  30.112   8.343
 3044POPC   C3A39653  34.735  29.793   8.246
 3044POPC   C4A39654  34.810  29.926   7.885
 3044POPC   C1B39655  34.437  29.662   8.682
 3044POPC   C2B39656  34.230  29.657   8.298
 3044POPC   C3B39657  34.316  29.760   7.899
 3044POPC   C4B39658  34.301  29.726   7.473
 3045POPC   NC339659  37.415   4.879   9.520
 3045POPC   PO439660  37.930   5.409   9.553
 3045POPC   GL139661  37.669   5.233   9.235
 3045POPC   GL239662  37.735   4.883   9.137
 3045POPC   C1A39663  37.527   5.219   8.812
 3045POPC   D2A39664  37.327   5.216   8.431
 3045POPC   C3A39665  37.626   5.310   8.125
 3045POPC   C4A39666  37.672   5.188   7.736
 3045POPC   C1B39667  37.815   4.706   8.767
 3045POPC   C2B39668  37.783   4.897   8.375
 3045POPC   C3B39669  37.816   4.725   7.956
 3045POPC   C4B39670  37.993   4.821   7.550
 3046POPC   NC339671   7.153  41.730   9.506
 3046POPC   PO439672   6.511  41.534   9.573
 3046POPC   GL139673   6.569  41.412   9.167
 3046POPC   GL239674   6.854  41.606   9.133
 3046POPC   C1A39675   6.697  41.344   8.742
 3046POPC   D2A39676   6.558  41.487   8.385
 3046POPC   C3A39677   6.442  41.284   8.024
 3046POPC   C4A39678   6.729  41.554   7.852
 3046POPC   C1B39679   7.024  41.855   8.821
 3046POPC   C2B39680   7.046  41.633   8.453
 3046POPC   C3B39681   7.202  41.635   8.056
 3046POPC   C4B39682   7.164  41.851   7.721
 3047POPC   NC339683  24.857  40.958   9.434
 3047POPC   PO439684  24.339  40.518   9.229
 3047POPC   GL139685  24.607  40.790   9.018
 3047POPC   GL239686  24.594  41.164   9.014
 3047POPC   C1A39687  24.571  40.825   8.612
 3047POPC   D2A39688  24.410  40.708   8.255
 3047POPC   C3A39689  24.674  40.852   7.945
 3047POPC   C4A39690  24.675  40.736   7.531
 3047POPC   C1B39691  24.196  41.135   8.760
 3047POPC   C2B39692  24.128  41.149   8.295
 3047POPC   C3B39693  24.189  40.962   7.871
 3047POPC   C4B39694  24.358  41.130   7.524
 3048POPC   NC339695  44.635  42.388   9.389
 3048POPC   PO439696  44.428  41.786   9.506
 3048POPC   GL139697  44.525  42.003   9.092
 3048POPC   GL239698  44.826  42.155   8.995
 3048POPC   C1A39699  44.401  42.193   8.705
 3048POPC   D2A39700  44.611  42.391   8.353
 3048POPC   C3A39701  44.493  42.364   7.951
 3048POPC   C4A39702  44.303  42.688   7.746
 3048POPC   C1B39703   0.023  42.300   8.705
 3048POPC   C2B39704   0.025  42.104   8.352
 3048POPC   C3B39705   0.013  42.367   8.017
 3048POPC   C4B39706   0.217  42.153   7.757
 3049POPC   NC339707   1.108  41.789   9.637
 3049POPC   PO439708   0.902  41.181   9.378
 3049POPC   GL139709   1.089  41.421   9.047
 3049POPC   GL239710   1.183  41.773   9.125
 3049POPC   C1A39711   1.078  41.456   8.614
 3049POPC   D2A39712   0.853  41.746   8.433
 3049POPC   C3A39713   1.043  41.865   8.058
 3049POPC   C4A39714   0.926  41.622   7.710
 3049POPC   C1B39715   1.489  41.655   8.807
 3049POPC   C2B39716   1.473  41.771   8.385
 3049POPC   C3B39717   1.463  41.576   8.008
 3049POPC   C4B39718   1.394  41.742   7.621
 3050POPC   NC339719   8.753  38.955   9.941
 3050POPC   PO439720   9.068  39.388   9.548
 3050POPC   GL139721   9.050  39.455   9.107
 3050POPC   GL239722   9.275  39.162   9.108
 3050POPC   C1A39723   8.771  39.517   8.708
 3050POPC   D2A39724   8.726  39.261   8.291
 3050POPC   C3A39725   8.792  39.432   7.851
 3050POPC   C4A39726   8.862  39.621   7.430
 3050POPC   C1B39727   9.101  39.096   8.693
 3050POPC   C2B39728   9.201  39.002   8.271
 3050POPC   C3B39729   9.139  39.062   7.835
 3050POPC   C4B39730   9.127  39.054   7.385
 3051POPC   NC339731   4.918  25.726   9.472
 3051POPC   PO439732   5.124  25.070   9.459
 3051POPC   GL139733   4.959  25.099   9.096
 3051POPC   GL239734   4.813  25.382   9.102
 3051POPC   C1A39735   5.090  25.106   8.720
 3051POPC   D2A39736   5.368  25.372   8.545
 3051POPC   C3A39737   5.350  25.362   8.120
 3051POPC   C4A39738   5.159  25.153   7.754
 3051POPC   C1B39739   4.667  25.529   8.703
 3051POPC   C2B39740   4.874  25.424   8.358
 3051POPC   C3B39741   4.879  25.548   7.961
 3051POPC   C4B39742   4.697  25.384   7.626
 3052POPC   NC339743  15.827  12.455   9.633
 3052POPC   PO439744  15.539  11.867   9.754
 3052POPC   GL139745  15.757  11.944   9.273
 3052POPC   GL239746  16.079  12.123   9.324
 3052POPC   C1A39747  15.661  12.062   8.793
 3052POPC   D2A39748  15.437  12.143   8.387
 3052POPC   C3A39749  15.623  12.099   7.951
 3052POPC   C4A39750  15.418  12.134   7.555
 3052POPC   C1B39751  16.136  12.202   8.886
 3052POPC   C2B39752  16.155  12.035   8.461
 3052POPC   C3B39753  16.138  12.183   8.025
 3052POPC   C4B39754  16.255  12.175   7.619
 3053POPC   NC339755   6.514  20.391   9.378
 3053POPC   PO439756   6.968  20.785   9.285
 3053POPC   GL139757   6.841  20.720   8.899
 3053POPC   GL239758   6.481  20.622   8.934
 3053POPC   C1A39759   6.936  20.936   8.502
 3053POPC   D2A39760   6.845  21.060   8.084
 3053POPC   C3A39761   6.597  20.746   7.926
 3053POPC   C4A39762   6.810  20.316   7.783
 3053POPC   C1B39763   6.531  20.611   8.522
 3053POPC   C2B39764   6.748  20.358   8.289
 3053POPC   C3B39765   6.403  20.311   8.081
 3053POPC   C4B39766   6.151  20.493   7.788
 3054POPC   NC339767  24.332  15.195   9.486
 3054POPC   PO439768  24.917  15.568   9.589
 3054POPC   GL139769  24.680  15.527   9.176
 3054POPC   GL239770  24.597  15.189   9.057
 3054POPC   C1A39771  24.464  15.564   8.737
 3054POPC   D2A39772  24.263  15.285   8.413
 3054POPC   C3A39773  24.513  15.186   8.056
 3054POPC   C4A39774  24.678  15.513   7.797
 3054POPC   C1B39775  24.256  14.962   8.826
 3054POPC   C2B39776  24.052  14.810   8.433
 3054POPC   C3B39777  24.047  14.799   7.978
 3054POPC   C4B39778  24.215  15.044   7.646
 3055POPC   NC339779  36.708   1.768   9.468
 3055POPC   PO439780  37.298   2.162   9.519
 3055POPC   GL139781  37.044   2.050   9.191
 3055POPC   GL239782  37.021   2.344   9.080
 3055POPC   C1A39783  36.870   1.941   8.779
 3055POPC   D2A39784  36.616   1.862   8.396
 3055POPC   C3A39785  36.820   1.956   8.041
 3055POPC   C4A39786  36.929   1.955   7.640
 3055POPC   C1B39787  37.222   2.327   8.716
 3055POPC   C2B39788  37.190   2.087   8.363
 3055POPC   C3B39789  37.194   2.300   7.977
 3055POPC   C4B39790  37.389   2.161   7.619
 3056POPC   NC339791  40.857  17.790   9.738
 3056POPC   PO439792  41.233  18.317   9.584
 3056POPC   GL139793  41.051  18.423   9.082
 3056POPC   GL239794  41.110  18.178   8.832
 3056POPC   C1A39795  40.677  18.431   8.752
 3056POPC   D2A39796  40.505  18.097   8.469
 3056POPC   C3A39797  40.689  18.179   8.045
 3056POPC   C4A39798  40.744  18.361   7.631
 3056POPC   C1B39799  41.194  18.618   8.646
 3056POPC   C2B39800  41.091  18.818   8.240
 3056POPC   C3B39801  41.150  18.499   7.926
 3056POPC   C4B39802  41.129  18.052   7.782
 3057POPC   NC339803  43.213  25.134   9.653
 3057POPC   PO439804  42.814  25.601   9.361
 3057POPC   GL139805  42.970  25.145   9.203
 3057POPC   GL239806  42.866  25.268   8.927
 3057POPC   C1A39807  43.262  25.009   8.810
 3057POPC   D2A39808  43.082  25.227   8.447
 3057POPC   C3A39809  43.277  25.246   8.067
 3057POPC   C4A39810  43.353  25.529   7.740
 3057POPC   C1B39811  42.880  25.625   8.694
 3057POPC   C2B39812  42.843  25.731   8.344
 3057POPC   C3B39813  42.849  25.500   8.047
 3057POPC   C4B39814  42.834  25.675   7.708
 3058POPC   NC339815  31.977   3.121   9.283
 3058POPC   PO439816  31.514   2.729   9.560
 3058POPC   GL139817  31.416   2.899   9.084
 3058POPC   GL239818  31.677   3.134   8.893
 3058POPC   C1A39819  31.334   2.938   8.596
 3058POPC   D2A39820  31.743   3.095   8.358
 3058POPC   C3A39821  31.731   2.947   7.942
 3058POPC   C4A39822  31.292   2.859   7.829
 3058POPC   C1B39823  31.756   2.710   8.719
 3058POPC   C2B39824  31.645   2.567   8.282
 3058POPC   C3B39825  31.597   2.416   7.834
 3058POPC   C4B39826  31.509   2.217   7.396
 3059POPC   NC339827  20.988  42.250   9.491
 3059POPC   PO439828  21.549  42.608   9.550
 3059POPC   GL139829  21.319  42.524   9.196
 3059POPC   GL239830  21.412  42.204   9.061
 3059POPC   C1A39831  21.124  42.552   8.810
 3059POPC   D2A39832  21.405  42.386   8.542
 3059POPC   C3A39833  21.384  42.437   8.129
 3059POPC   C4A39834  21.352  42.319   7.732
 3059POPC   C1B39835  21.780  42.166   8.790
 3059POPC   C2B39836  21.799  42.042   8.359
 3059POPC   C3B39837  21.727  42.032   7.920
 3059POPC   C4B39838  21.788  42.179   7.508
 3060POPC   NC339839  28.200  20.774   9.337
 3060POPC   PO439840  28.597  20.163   9.399
 3060POPC   GL139841  28.294  20.324   9.086
 3060POPC   GL239842  28.494  20.591   8.981
 3060POPC   C1A39843  28.212  20.439   8.612
 3060POPC   D2A39844  28.466  20.295   8.291
 3060POPC   C3A39845  28.424  20.361   7.878
 3060POPC   C4A39846  28.085  20.531   7.688
 3060POPC   C1B39847  28.550  20.847   8.609
 3060POPC   C2B39848  28.524  20.786   8.173
 3060POPC   C3B39849  28.274  20.966   7.877
 3060POPC   C4B39850  28.395  21.225   7.563
 3061POPC   NC339851  29.886  40.951   9.482
 3061POPC   PO439852  30.213  40.351   9.538
 3061POPC   GL139853  30.073  40.604   9.131
 3061POPC   GL239854  29.761  40.809   9.022
 3061POPC   C1A39855  30.171  40.858   8.736
 3061POPC   D2A39856  29.857  40.989   8.456
 3061POPC   C3A39857  29.827  40.773   8.080
 3061POPC   C4A39858  30.053  40.749   7.713
 3061POPC   C1B39859  29.775  40.466   8.735
 3061POPC   C2B39860  29.638  40.278   8.343
 3061POPC   C3B39861  29.669  40.295   7.919
 3061POPC   C4B39862  29.586  40.594   7.582
 3062POPC   NC339863   7.861  19.236   9.725
 3062POPC   PO439864   8.379  19.132   9.334
 3062POPC   GL139865   8.108  19.077   9.008
 3062POPC   GL239866   7.797  19.091   9.134
 3062POPC   C1A39867   8.047  19.150   8.592
 3062POPC   D2A39868   8.103  19.486   8.321
 3062POPC   C3A39869   8.426  19.296   8.093
 3062POPC   C4A39870   8.444  19.131   7.710
 3062POPC   C1B39871   7.706  18.799   8.821
 3062POPC   C2B39872   7.937  18.673   8.427
 3062POPC   C3B39873   8.084  18.825   7.984
 3062POPC   C4B39874   7.945  19.238   7.819
 3063POPC   NC339875  37.871  18.286   9.548
 3063POPC   PO439876  37.270  18.365   9.401
 3063POPC   GL139877  37.560  18.193   9.141
 3063POPC   GL239878  37.770  18.520   9.108
 3063POPC   C1A39879  37.911  18.086   8.879
 3063POPC   D2A39880  37.848  18.022   8.453
 3063POPC   C3A39881  37.741  18.330   8.152
 3063POPC   C4A39882  37.765  18.188   7.723
 3063POPC   C1B39883  37.591  18.482   8.693
 3063POPC   C2B39884  37.303  18.618   8.358
 3063POPC   C3B39885  37.430  18.703   7.934
 3063POPC   C4B39886  37.862  18.704   7.769
 3064POPC   NC339887  41.072  18.727   9.461
 3064POPC   PO439888  40.655  19.193   9.524
 3064POPC   GL139889  40.873  19.187   9.143
 3064POPC   GL239890  41.042  19.497   9.078
 3064POPC   C1A39891  40.787  18.942   8.769
 3064POPC   D2A39892  40.430  18.822   8.488
 3064POPC   C3A39893  40.553  18.698   8.061
 3064POPC   C4A39894  40.820  18.849   7.740
 3064POPC   C1B39895  40.870  19.454   8.669
 3064POPC   C2B39896  40.762  19.212   8.323
 3064POPC   C3B39897  40.761  19.332   7.912
 3064POPC   C4B39898  41.009  19.301   7.576
 3065POPC   NC339899  35.273  33.394   9.590
 3065POPC   PO439900  35.520  32.764   9.448
 3065POPC   GL139901  35.378  33.059   9.153
 3065POPC   GL239902  35.649  33.249   8.991
 3065POPC   C1A39903  35.320  32.877   8.739
 3065POPC   D2A39904  35.465  32.780   8.333
 3065POPC   C3A39905  35.155  32.783   8.013
 3065POPC   C4A39906  35.121  33.010   7.620
 3065POPC   C1B39907  35.286  33.381   8.732
 3065POPC   C2B39908  35.196  33.234   8.327
 3065POPC   C3B39909  35.448  33.206   7.982
 3065POPC   C4B39910  35.661  33.185   7.602
 3066POPC   NC339911  29.550  16.620   9.480
 3066POPC   PO439912  30.087  17.110   9.477
 3066POPC   GL139913  29.931  16.823   9.156
 3066POPC   GL239914  29.669  16.823   9.012
 3066POPC   C1A39915  30.069  16.659   8.755
 3066POPC   D2A39916  30.059  16.818   8.340
 3066POPC   C3A39917  30.075  16.540   8.015
 3066POPC   C4A39918  29.937  16.672   7.630
 3066POPC   C1B39919  29.427  17.088   8.764
 3066POPC   C2B39920  29.526  17.188   8.354
 3066POPC   C3B39921  29.667  16.953   8.000
 3066POPC   C4B39922  29.552  17.021   7.576
 3067POPC   NC339923   2.814  33.233   9.498
 3067POPC   PO439924   2.651  32.684   9.106
 3067POPC   GL139925   2.592  33.130   9.042
 3067POPC   GL239926   2.940  33.230   9.026
 3067POPC   C1A39927   2.422  33.185   8.645
 3067POPC   D2A39928   2.277  32.828   8.365
 3067POPC   C3A39929   2.583  32.839   8.015
 3067POPC   C4A39930   2.722  33.174   7.706
 3067POPC   C1B39931   3.099  33.035   8.695
 3067POPC   C2B39932   3.296  33.137   8.335
 3067POPC   C3B39933   3.275  32.867   8.011
 3067POPC   C4B39934   2.986  32.740   7.698
 3068POPC   NC339935   5.754  37.576   9.904
 3068POPC   PO439936   5.780  37.655   9.255
 3068POPC   GL139937   6.004  37.805   8.925
 3068POPC   GL239938   6.101  37.496   8.834
 3068POPC   C1A39939   6.065  37.899   8.512
 3068POPC   D2A39940   6.072  37.579   8.216
 3068POPC   C3A39941   5.943  37.678   7.807
 3068POPC   C4A39942   6.180  37.804   7.444
 3068POPC   C1B39943   5.719  37.514   8.603
 3068POPC   C2B39944   5.692  37.234   8.302
 3068POPC   C3B39945   5.843  37.200   7.930
 3068POPC   C4B39946   5.532  37.339   7.676
 3069POPC   NC339947  37.130  17.930   9.478
 3069POPC   PO439948  37.203  17.267   9.464
 3069POPC   GL139949  36.898  17.539   9.212
 3069POPC   GL239950  37.068  17.818   8.987
 3069POPC   C1A39951  36.647  17.604   8.824
 3069POPC   D2A39952  36.876  17.757   8.432
 3069POPC   C3A39953  36.831  17.474   8.087
 3069POPC   C4A39954  36.458  17.289   7.903
 3069POPC   C1B39955  37.138  17.411   8.767
 3069POPC   C2B39956  37.197  17.221   8.363
 3069POPC   C3B39957  37.348  17.373   7.958
 3069POPC   C4B39958  37.166  17.755   7.794
 3070POPC   NC339959  39.244   2.541   9.675
 3070POPC   PO439960  38.969   3.164   9.514
 3070POPC   GL139961  39.081   2.911   9.118
 3070POPC   GL239962  39.395   2.702   9.086
 3070POPC   C1A39963  39.080   2.701   8.683
 3070POPC   D2A39964  39.452   2.600   8.414
 3070POPC   C3A39965  39.368   2.428   8.025
 3070POPC   C4A39966  39.284   2.579   7.618
 3070POPC   C1B39967  39.490   3.004   8.756
 3070POPC   C2B39968  39.263   3.092   8.364
 3070POPC   C3B39969  39.255   2.953   7.972
 3070POPC   C4B39970  38.909   2.922   7.686
 3071POPC   NC339971  18.606  10.789   9.429
 3071POPC   PO439972  18.142  10.358   9.547
 3071POPC   GL139973  18.341  10.448   9.172
 3071POPC   GL239974  18.029  10.433   9.031
 3071POPC   C1A39975  18.369  10.691   8.759
 3071POPC   D2A39976  18.178  10.746   8.324
 3071POPC   C3A39977  18.458  10.626   7.984
 3071POPC   C4A39978  18.541  10.695   7.525
 3071POPC   C1B39979  17.942  10.143   8.717
 3071POPC   C2B39980  17.878  10.260   8.312
 3071POPC   C3B39981  17.921  10.388   7.931
 3071POPC   C4B39982  18.190  10.374   7.640
 3072POPC   NC339983  23.311  29.983   9.416
 3072POPC   PO439984  23.987  29.806   9.574
 3072POPC   GL139985  23.755  29.766   9.214
 3072POPC   GL239986  23.702  30.062   9.101
 3072POPC   C1A39987  23.804  29.702   8.749
 3072POPC   D2A39988  23.956  29.904   8.360
 3072POPC   C3A39989  23.704  29.866   8.030
 3072POPC   C4A39990  23.664  29.644   7.676
 3072POPC   C1B39991  23.873  30.235   8.728
 3072POPC   C2B39992  24.066  30.403   8.367
 3072POPC   C3B39993  24.031  30.260   7.922
 3072POPC   C4B39994  23.758  30.290   7.549
 3073POPC   NC339995  10.734   2.472   9.348
 3073POPC   PO439996  10.284   2.958   9.533
 3073POPC   GL139997  10.433   2.815   9.144
 3073POPC   GL239998  10.523   3.090   9.078
 3073POPC   C1A39999  10.728   2.694   8.760
 3073POPC   D2A40000  10.477   2.528   8.447
 3073POPC   C3A40001  10.551   2.515   8.050
 3073POPC   C4A40002  10.833   2.702   7.797
 3073POPC   C1B40003  10.344   2.995   8.678
 3073POPC   C2B40004  10.207   2.970   8.281
 3073POPC   C3B40005  10.363   2.950   7.879
 3073POPC   C4B40006  10.163   3.223   7.625
 3074POPC   NC340007   2.535   9.877   9.432
 3074POPC   PO440008   3.059   9.488   9.356
 3074POPC   GL140009   2.899   9.693   9.035
 3074POPC   GL240010   2.582   9.507   9.056
 3074POPC   C1A40011   2.902   9.529   8.598
 3074POPC   D2A40012   2.890   9.365   8.169
 3074POPC   C3A40013   3.134   9.574   7.858
 3074POPC   C4A40014   3.092   9.992   7.634
 3074POPC   C1B40015   2.497   9.819   8.738
 3074POPC   C2B40016   2.695  10.028   8.389
 3074POPC   C3B40017   2.759   9.872   8.002
 3074POPC   C4B40018   2.635   9.535   7.731
 3075POPC   NC340019  19.721  37.345   9.461
 3075POPC   PO440020  19.998  37.994   9.525
 3075POPC   GL140021  19.985  37.705   9.198
 3075POPC   GL240022  19.656  37.794   9.174
 3075POPC   C1A40023  20.116  37.496   8.824
 3075POPC   D2A40024  19.954  37.434   8.420
 3075POPC   C3A40025  20.125  37.507   8.034
 3075POPC   C4A40026  19.830  37.701   7.778
 3075POPC   C1B40027  19.655  37.720   8.746
 3075POPC   C2B40028  19.648  37.821   8.309
 3075POPC   C3B40029  19.360  37.683   8.007
 3075POPC   C4B40030  19.349  37.812   7.623
 3076POPC   NC340031  28.982   9.463   9.366
 3076POPC   PO440032  29.477   9.907   9.461
 3076POPC   GL140033  29.351   9.673   9.099
 3076POPC   GL240034  29.080   9.921   9.113
 3076POPC   C1A40035  29.094   9.539   8.720
 3076POPC   D2A40036  28.838   9.687   8.349
 3076POPC   C3A40037  29.021   9.571   7.955
 3076POPC   C4A40038  29.413   9.407   7.880
 3076POPC   C1B40039  29.350  10.010   8.739
 3076POPC   C2B40040  29.361   9.771   8.331
 3076POPC   C3B40041  29.399   9.954   7.927
 3076POPC   C4B40042  29.280  10.250   7.600
 3077POPC   NC340043  43.292  32.695   9.411
 3077POPC   PO440044  42.930  33.248   9.446
 3077POPC   GL140045  43.158  33.091   9.118
 3077POPC   GL240046  42.986  32.784   9.015
 3077POPC   C1A40047  43.314  33.118   8.712
 3077POPC   D2A40048  43.135  33.083   8.315
 3077POPC   C3A40049  43.349  33.232   7.967
 3077POPC   C4A40050  42.993  33.368   7.769
 3077POPC   C1B40051  43.369  32.606   8.782
 3077POPC   C2B40052  43.508  32.683   8.360
 3077POPC   C3B40053  43.309  32.730   7.980
 3077POPC   C4B40054  43.202  32.491   7.658
 3078POPC   NC340055  20.122  24.672   9.461
 3078POPC   PO440056  19.638  24.176   9.403
 3078POPC   GL140057  19.643  24.423   9.019
 3078POPC   GL240058  19.731  24.760   9.100
 3078POPC   C1A40059  19.790  24.497   8.609
 3078POPC   D2A40060  19.613  24.374   8.233
 3078POPC   C3A40061  19.962  24.232   8.018
 3078POPC   C4A40062  20.031  24.296   7.616
 3078POPC   C1B40063  19.562  24.933   8.706
 3078POPC   C2B40064  19.715  24.945   8.268
 3078POPC   C3B40065  19.848  24.727   7.905
 3078POPC   C4B40066  19.683  24.685   7.507
 3079POPC   NC340067  36.152  34.858   9.593
 3079POPC   PO440068  35.959  34.239   9.414
 3079POPC   GL140069  36.224  34.487   9.134
 3079POPC   GL240070  36.245  34.893   9.062
 3079POPC   C1A40071  36.161  34.556   8.720
 3079POPC   D2A40072  36.126  34.820   8.401
 3079POPC   C3A40073  36.144  34.585   8.041
 3079POPC   C4A40074  36.180  34.375   7.645
 3079POPC   C1B40075  36.584  34.842   8.715
 3079POPC   C2B40076  36.635  34.736   8.256
 3079POPC   C3B40077  36.536  34.802   7.808
 3079POPC   C4B40078  36.165  34.894   7.591
 3080POPC   NC340079  16.823   4.427   9.623
 3080POPC   PO440080  17.491   4.543   9.638
 3080POPC   GL140081  17.182   4.531   9.275
 3080POPC   GL240082  17.015   4.182   9.210
 3080POPC   C1A40083  16.930   4.566   8.893
 3080POPC   D2A40084  16.628   4.485   8.570
 3080POPC   C3A40085  16.741   4.519   8.155
 3080POPC   C4A40086  16.648   4.499   7.736
 3080POPC   C1B40087  16.797   4.066   8.801
 3080POPC   C2B40088  16.753   3.968   8.335
 3080POPC   C3B40089  16.508   4.060   7.961
 3080POPC   C4B40090  16.389   4.128   7.513
 3081POPC   NC340091  24.201  36.605   9.340
 3081POPC   PO440092  24.489  37.168   9.699
 3081POPC   GL140093  24.488  37.011   9.238
 3081POPC   GL240094  24.763  36.895   9.230
 3081POPC   C1A40095  24.312  37.033   8.795
 3081POPC   D2A40096  24.502  37.068   8.384
 3081POPC   C3A40097  24.479  36.754   8.087
 3081POPC   C4A40098  24.538  36.727   7.654
 3081POPC   C1B40099  24.826  36.974   8.794
 3081POPC   C2B40100  24.957  36.842   8.366
 3081POPC   C3B40101  24.994  36.811   7.906
 3081POPC   C4B40102  25.033  36.526   7.548
 3082POPC   NC340103  22.495   3.644   9.600
 3082POPC   PO440104  21.838   3.519   9.773
 3082POPC   GL140105  21.928   3.385   9.320
 3082POPC   GL240106  22.269   3.358   9.241
 3082POPC   C1A40107  21.929   3.298   8.859
 3082POPC   D2A40108  22.073   3.583   8.495
 3082POPC   C3A40109  21.844   3.553   8.092
 3082POPC   C4A40110  21.955   3.688   7.680
 3082POPC   C1B40111  22.447   3.376   8.821
 3082POPC   C2B40112  22.587   3.491   8.408
 3082POPC   C3B40113  22.362   3.496   8.035
 3082POPC   C4B40114  22.364   3.318   7.647
 3083POPC   NC340115   4.927   9.264   9.772
 3083POPC   PO440116   4.289   9.049   9.505
 3083POPC   GL140117   4.135   8.847   9.092
 3083POPC   GL240118   4.429   8.721   8.974
 3083POPC   C1A40119   4.142   8.922   8.625
 3083POPC   D2A40120   4.347   9.101   8.330
 3083POPC   C3A40121   4.106   9.293   8.021
 3083POPC   C4A40122   4.124   9.024   7.674
 3083POPC   C1B40123   4.547   8.561   8.600
 3083POPC   C2B40124   4.311   8.594   8.243
 3083POPC   C3B40125   4.520   8.758   7.899
 3083POPC   C4B40126   4.472   8.727   7.434
 3084POPC   NC340127   8.171   8.706   9.499
 3084POPC   PO440128   8.427   9.291   9.701
 3084POPC   GL140129   8.228   9.183   9.272
 3084POPC   GL240130   8.232   9.474   9.079
 3084POPC   C1A40131   8.149   8.954   8.840
 3084POPC   D2A40132   8.365   8.579   8.620
 3084POPC   C3A40133   8.504   8.652   8.201
 3084POPC   C4A40134   8.329   8.851   7.870
 3084POPC   C1B40135   8.348   9.364   8.651
 3084POPC   C2B40136   8.174   9.098   8.315
 3084POPC   C3B40137   8.003   9.213   7.899
 3084POPC   C4B40138   8.274   9.257   7.512
 3085POPC   NC340139  42.765  21.644   9.296
 3085POPC   PO440140  43.355  21.810   9.111
 3085POPC   GL140141  43.113  21.373   8.953
 3085POPC   GL240142  42.734  21.308   8.923
 3085POPC   C1A40143  42.993  21.033   8.608
 3085POPC   D2A40144  42.973  21.085   8.174
 3085POPC   C3A40145  43.231  21.418   8.057
 3085POPC   C4A40146  43.379  21.250   7.709
 3085POPC   C1B40147  42.916  21.613   8.590
 3085POPC   C2B40148  42.831  21.759   8.225
 3085POPC   C3B40149  42.772  21.499   7.893
 3085POPC   C4B40150  43.034  21.604   7.559
 3086POPC   NC340151   0.150  35.167   9.396
 3086POPC   PO440152   0.722  35.468   9.401
 3086POPC   GL140153   0.635  35.180   9.044
 3086POPC   GL240154   0.531  34.839   9.162
 3086POPC   C1A40155   0.344  35.257   8.671
 3086POPC   D2A40156   0.163  35.357   8.252
 3086POPC   C3A40157   0.525  35.446   7.973
 3086POPC   C4A40158   0.769  35.344   7.605
 3086POPC   C1B40159   0.447  34.776   8.712
 3086POPC   C2B40160   0.458  34.936   8.258
 3086POPC   C3B40161   0.280  35.032   7.838
 3086POPC   C4B40162   0.260  35.236   7.426
 3087POPC   NC340163  10.753  23.142   9.329
 3087POPC   PO440164  10.089  22.822   9.381
 3087POPC   GL140165  10.282  23.069   9.107
 3087POPC   GL240166  10.512  22.794   9.037
 3087POPC   C1A40167  10.469  23.176   8.721
 3087POPC   D2A40168  10.638  23.207   8.350
 3087POPC   C3A40169  10.389  23.201   7.995
 3087POPC   C4A40170  10.448  23.080   7.601
 3087POPC   C1B40171  10.538  22.517   8.685
 3087POPC   C2B40172  10.636  22.516   8.250
 3087POPC   C3B40173  10.703  22.773   7.919
 3087POPC   C4B40174  11.006  22.791   7.624
 3088POPC   NC340175  36.635  22.406   9.540
 3088POPC   PO440176  36.953  21.900   9.207
 3088POPC   GL140177  36.903  22.316   9.040
 3088POPC   GL240178  36.656  22.564   9.076
 3088POPC   C1A40179  36.863  22.216   8.623
 3088POPC   D2A40180  36.811  21.811   8.433
 3088POPC   C3A40181  37.078  21.888   8.093
 3088POPC   C4A40182  36.980  22.141   7.746
 3088POPC   C1B40183  36.468  22.509   8.732
 3088POPC   C2B40184  36.650  22.612   8.365
 3088POPC   C3B40185  36.716  22.488   7.991
 3088POPC   C4B40186  36.463  22.357   7.655
 3089POPC   NC340187  15.187   3.174   9.709
 3089POPC   PO440188  15.408   2.557   9.598
 3089POPC   GL140189  15.252   2.429   9.183
 3089POPC   GL240190  14.911   2.271   9.163
 3089POPC   C1A40191  15.312   2.701   8.816
 3089POPC   D2A40192  15.523   2.861   8.447
 3089POPC   C3A40193  15.277   2.932   8.079
 3089POPC   C4A40194  15.102   3.177   7.722
 3089POPC   C1B40195  15.004   2.305   8.721
 3089POPC   C2B40196  15.350   2.349   8.422
 3089POPC   C3B40197  15.432   2.444   8.001
 3089POPC   C4B40198  15.215   2.658   7.658
 3090POPC   NC340199  32.011  21.550   9.782
 3090POPC   PO440200  32.610  21.444   9.506
 3090POPC   GL140201  32.268  21.531   9.206
 3090POPC   GL240202  31.944  21.695   9.073
 3090POPC   C1A40203  32.228  21.337   8.789
 3090POPC   D2A40204  32.265  21.536   8.400
 3090POPC   C3A40205  32.448  21.375   8.025
 3090POPC   C4A40206  32.687  21.586   7.732
 3090POPC   C1B40207  31.720  21.473   8.723
 3090POPC   C2B40208  31.815  21.284   8.344
 3090POPC   C3B40209  31.929  21.525   7.991
 3090POPC   C4B40210  31.820  21.494   7.566
 3091POPC   NC340211  12.171  36.419  10.049
 3091POPC   PO440212  12.023  35.911   9.584
 3091POPC   GL140213  12.015  35.991   9.123
 3091POPC   GL240214  12.267  36.275   9.030
 3091POPC   C1A40215  11.816  36.209   8.756
 3091POPC   D2A40216  11.983  36.375   8.346
 3091POPC   C3A40217  11.821  36.173   7.936
 3091POPC   C4A40218  11.781  36.276   7.474
 3091POPC   C1B40219  12.276  35.991   8.654
 3091POPC   C2B40220  12.172  35.913   8.221
 3091POPC   C3B40221  12.294  36.036   7.818
 3091POPC   C4B40222  12.679  35.898   7.744
 3092POPC   NC340223   1.152  18.723   9.540
 3092POPC   PO440224   1.322  19.384   9.537
 3092POPC   GL140225   1.254  19.098   9.203
 3092POPC   GL240226   1.556  19.003   9.037
 3092POPC   C1A40227   1.122  18.936   8.812
 3092POPC   D2A40228   1.092  18.910   8.360
 3092POPC   C3A40229   1.091  19.215   8.016
 3092POPC   C4A40230   1.238  19.331   7.582
 3092POPC   C1B40231   1.568  18.731   8.648
 3092POPC   C2B40232   1.575  18.840   8.190
 3092POPC   C3B40233   1.323  18.791   7.810
 3092POPC   C4B40234   1.457  18.872   7.361
 3093POPC   NC340235   7.976  16.758   9.468
 3093POPC   PO440236   8.673  16.640   9.422
 3093POPC   GL140237   8.322  16.816   9.118
 3093POPC   GL240238   8.066  16.533   9.032
 3093POPC   C1A40239   8.029  16.968   8.776
 3093POPC   D2A40240   8.216  16.998   8.363
 3093POPC   C3A40241   8.279  16.875   7.924
 3093POPC   C4A40242   7.925  16.996   7.679
 3093POPC   C1B40243   8.327  16.554   8.672
 3093POPC   C2B40244   8.135  16.469   8.261
 3093POPC   C3B40245   8.094  16.373   7.818
 3093POPC   C4B40246   8.417  16.464   7.539
 3094POPC   NC340247   7.497  32.291   9.409
 3094POPC   PO440248   6.947  32.664   9.459
 3094POPC   GL140249   7.160  32.491   9.085
 3094POPC   GL240250   7.261  32.141   8.987
 3094POPC   C1A40251   7.230  32.541   8.647
 3094POPC   D2A40252   7.442  32.415   8.295
 3094POPC   C3A40253   7.256  32.138   8.024
 3094POPC   C4A40254   7.397  32.327   7.691
 3094POPC   C1B40255   7.633  32.009   8.749
 3094POPC   C2B40256   7.618  31.920   8.341
 3094POPC   C3B40257   7.774  31.786   7.991
 3094POPC   C4B40258   7.670  31.895   7.610
 3095POPC   NC340259  10.903  40.658   9.587
 3095POPC   PO440260  11.623  40.863   9.536
 3095POPC   GL140261  11.373  40.800   9.159
 3095POPC   GL240262  11.067  40.562   9.125
 3095POPC   C1A40263  11.396  40.941   8.739
 3095POPC   D2A40264  11.320  40.755   8.342
 3095POPC   C3A40265  11.351  40.934   7.926
 3095POPC   C4A40266  11.045  41.098   7.654
 3095POPC   C1B40267  11.252  40.440   8.751
 3095POPC   C2B40268  11.174  40.269   8.343
 3095POPC   C3B40269  11.334  40.382   7.934
 3095POPC   C4B40270  11.169  40.594   7.583
 3096POPC   NC340271  30.138  10.543   9.310
 3096POPC   PO440272  29.593  10.980   9.497
 3096POPC   GL140273  29.713  10.756   9.118
 3096POPC   GL240274  29.696  10.376   9.066
 3096POPC   C1A40275  29.853  10.745   8.693
 3096POPC   D2A40276  29.903  10.524   8.298
 3096POPC   C3A40277  29.969  10.670   7.862
 3096POPC   C4A40278  30.216  10.544   7.515
 3096POPC   C1B40279  29.857  10.196   8.709
 3096POPC   C2B40280  29.797  10.032   8.334
 3096POPC   C3B40281  29.996  10.129   7.948
 3096POPC   C4B40282  29.777  10.182   7.586
 3097POPC   NC340283   0.616  25.661   9.405
 3097POPC   PO440284   0.182  25.166   9.416
 3097POPC   GL140285   0.413  25.339   9.069
 3097POPC   GL240286   0.774  25.307   9.074
 3097POPC   C1A40287   0.319  25.620   8.758
 3097POPC   D2A40288   0.442  25.695   8.353
 3097POPC   C3A40289   0.311  25.345   8.148
 3097POPC   C4A40290   0.358  25.440   7.742
 3097POPC   C1B40291   0.732  25.348   8.606
 3097POPC   C2B40292   0.798  25.278   8.167
 3097POPC   C3B40293   0.642  25.027   7.835
 3097POPC   C4B40294   0.784  25.298   7.546
 3098POPC   NC340295  21.308  39.623   9.820
 3098POPC   PO440296  21.592  40.206   9.695
 3098POPC   GL140297  21.508  39.860   9.356
 3098POPC   GL240298  21.487  40.071   9.088
 3098POPC   C1A40299  21.465  39.594   8.911
 3098POPC   D2A40300  21.628  39.754   8.519
 3098POPC   C3A40301  21.507  39.677   8.120
 3098POPC   C4A40302  21.519  39.928   7.769
 3098POPC   C1B40303  21.144  40.336   8.953
 3098POPC   C2B40304  21.010  40.357   8.538
 3098POPC   C3B40305  21.204  40.356   8.146
 3098POPC   C4B40306  21.231  40.360   7.703
 3099POPC   NC340307   9.041  10.279   9.317
 3099POPC   PO440308   8.738   9.797   9.608
 3099POPC   GL140309   8.868   9.746   9.134
 3099POPC   GL240310   8.872  10.073   8.907
 3099POPC   C1A40311   8.947   9.516   8.713
 3099POPC   D2A40312   9.181   9.624   8.325
 3099POPC   C3A40313   9.036   9.439   7.938
 3099POPC   C4A40314   8.743   9.586   7.600
 3099POPC   C1B40315   8.586  10.321   8.659
 3099POPC   C2B40316   8.692  10.183   8.279
 3099POPC   C3B40317   8.889   9.935   7.995
 3099POPC   C4B40318   8.668  10.101   7.654
 3100POPC   NC340319  40.519  41.550   9.452
 3100POPC   PO440320  39.838  41.618   9.421
 3100POPC   GL140321  39.927  41.346   9.047
 3100POPC   GL240322  40.285  41.265   9.077
 3100POPC   C1A40323  39.953  41.255   8.601
 3100POPC   D2A40324  40.117  41.489   8.276
 3100POPC   C3A40325  39.866  41.552   7.907
 3100POPC   C4A40326  39.661  41.499   7.534
 3100POPC   C1B40327  40.267  41.637   8.786
 3100POPC   C2B40328  40.375  41.894   8.422
 3100POPC   C3B40329  40.479  41.745   8.005
 3100POPC   C4B40330  40.341  41.339   7.840
 3101POPC   NC340331  17.239  37.634   9.528
 3101POPC   PO440332  17.535  38.170   9.569
 3101POPC   GL140333  17.529  37.923   9.181
 3101POPC   GL240334  17.604  37.541   9.135
 3101POPC   C1A40335  17.410  37.863   8.755
 3101POPC   D2A40336  17.137  37.644   8.463
 3101POPC   C3A40337  17.318  37.721   8.055
 3101POPC   C4A40338  17.159  37.649   7.642
 3101POPC   C1B40339  17.611  37.393   8.679
 3101POPC   C2B40340  17.865  37.648   8.366
 3101POPC   C3B40341  17.876  37.895   7.971
 3101POPC   C4B40342  17.658  37.611   7.665
 3102POPC   NC340343   4.473  37.086   9.600
 3102POPC   PO440344   4.188  36.567   9.456
 3102POPC   GL140345   4.404  36.734   9.120
 3102POPC   GL240346   4.590  37.096   9.097
 3102POPC   C1A40347   4.335  36.472   8.747
 3102POPC   D2A40348   4.493  36.434   8.334
 3102POPC   C3A40349   4.387  36.650   7.956
 3102POPC   C4A40350   4.059  36.906   7.809
 3102POPC   C1B40351   4.579  36.910   8.692
 3102POPC   C2B40352   4.243  36.909   8.414
 3102POPC   C3B40353   4.336  37.192   8.115
 3102POPC   C4B40354   4.538  37.096   7.746
 3103POPC   NC340355  18.704  21.027   9.458
 3103POPC   PO440356  19.155  20.518   9.461
 3103POPC   GL140357  19.249  20.749   9.111
 3103POPC   GL240358  19.417  21.079   9.152
 3103POPC   C1A40359  18.969  20.828   8.778
 3103POPC   D2A40360  18.794  20.540   8.475
 3103POPC   C3A40361  18.891  20.524   8.062
 3103POPC   C4A40362  18.928  20.227   7.761
 3103POPC   C1B40363  19.481  20.942   8.700
 3103POPC   C2B40364  19.259  20.850   8.356
 3103POPC   C3B40365  19.146  20.962   7.991
 3103POPC   C4B40366  18.816  20.906   7.711
 3104POPC   NC340367   9.067  23.198   9.285
 3104POPC   PO440368   9.137  22.536   9.490
 3104POPC   GL140369   8.915  22.700   9.165
 3104POPC   GL240370   9.255  22.754   9.029
 3104POPC   C1A40371   8.826  22.819   8.734
 3104POPC   D2A40372   9.025  22.654   8.357
 3104POPC   C3A40373   8.831  22.831   7.984
 3104POPC   C4A40374   8.748  23.265   7.891
 3104POPC   C1B40375   9.316  23.017   8.661
 3104POPC   C2B40376   9.214  23.153   8.234
 3104POPC   C3B40377   9.321  23.006   7.818
 3104POPC   C4B40378   9.573  22.791   7.471
 3105POPC   NC340379   9.245   4.637   9.402
 3105POPC   PO440380   8.926   5.258   9.465
 3105POPC   GL140381   9.012   5.011   9.103
 3105POPC   GL240382   8.804   4.708   9.075
 3105POPC   C1A40383   9.145   5.132   8.695
 3105POPC   D2A40384   8.987   5.229   8.270
 3105POPC   C3A40385   9.261   5.185   7.964
 3105POPC   C4A40386   9.541   4.857   7.866
 3105POPC   C1B40387   8.723   4.866   8.633
 3105POPC   C2B40388   8.603   4.919   8.219
 3105POPC   C3B40389   8.845   4.923   7.867
 3105POPC   C4B40390   8.821   5.226   7.593
 3106POPC   NC340391  12.267  42.937   9.542
 3106POPC   PO440392  11.568  42.850   9.464
 3106POPC   GL140393  11.921  42.994   9.137
 3106POPC   GL240394  12.228  42.818   9.052
 3106POPC   C1A40395  12.040  43.288   8.786
 3106POPC   D2A40396  12.020  43.599   8.456
 3106POPC   C3A40397  12.095  43.385   8.087
 3106POPC   C4A40398  12.027  43.129   7.734
 3106POPC   C1B40399  12.051  42.813   8.657
 3106POPC   C2B40400  12.205  42.921   8.251
 3106POPC   C3B40401  12.163  42.653   7.898
 3106POPC   C4B40402  12.200  42.699   7.471
 3107POPC   NC340403  36.680  29.157   9.562
 3107POPC   PO440404  37.201  28.952   9.236
 3107POPC   GL140405  36.793  28.993   9.079
 3107POPC   GL240406  36.635  29.362   9.103
 3107POPC   C1A40407  36.821  28.906   8.630
 3107POPC   D2A40408  36.781  28.897   8.182
 3107POPC   C3A40409  37.105  29.016   7.914
 3107POPC   C4A40410  37.037  29.281   7.548
 3107POPC   C1B40411  36.955  29.411   8.788
 3107POPC   C2B40412  37.061  29.306   8.366
 3107POPC   C3B40413  36.762  29.393   8.026
 3107POPC   C4B40414  36.725  29.693   7.708
 3108POPC   NC340415   5.815  28.952   9.582
 3108POPC   PO440416   6.030  29.608   9.541
 3108POPC   GL140417   5.970  29.272   9.169
 3108POPC   GL240418   6.160  29.011   8.945
 3108POPC   C1A40419   5.715  29.196   8.746
 3108POPC   D2A40420   5.586  29.162   8.273
 3108POPC   C3A40421   5.874  29.374   7.959
 3108POPC   C4A40422   6.224  29.318   7.685
 3108POPC   C1B40423   5.955  28.670   8.685
 3108POPC   C2B40424   6.043  28.565   8.256
 3108POPC   C3B40425   5.977  28.895   7.947
 3108POPC   C4B40426   5.566  29.007   7.755
 3109POPC   NC340427  43.620  19.880   9.444
 3109POPC   PO440428  44.303  19.487   9.471
 3109POPC   GL140429  44.085  19.609   9.073
 3109POPC   GL240430  43.749  19.595   9.053
 3109POPC   C1A40431  44.013  19.941   8.771
 3109POPC   D2A40432  44.147  19.790   8.362
 3109POPC   C3A40433  44.077  19.904   7.941
 3109POPC   C4A40434  43.826  20.202   7.765
 3109POPC   C1B40435  43.763  19.530   8.656
 3109POPC   C2B40436  43.515  19.758   8.376
 3109POPC   C3B40437  43.564  19.801   7.950
 3109POPC   C4B40438  43.791  19.584   7.618
 3110POPC   NC340439  20.506  20.056   9.332
 3110POPC   PO440440  20.900  19.570   9.603
 3110POPC   GL140441  20.776  19.615   9.182
 3110POPC   GL240442  20.427  19.571   9.183
 3110POPC   C1A40443  20.887  19.766   8.740
 3110POPC   D2A40444  21.031  19.776   8.283
 3110POPC   C3A40445  20.706  19.870   8.012
 3110POPC   C4A40446  20.699  20.193   7.702
 3110POPC   C1B40447  20.329  19.748   8.770
 3110POPC   C2B40448  20.228  19.685   8.334
 3110POPC   C3B40449  20.214  19.702   7.880
 3110POPC   C4B40450  20.526  19.744   7.540
 3111POPC   NC340451   3.736  17.497   9.171
 3111POPC   PO440452   3.170  17.706   9.333
 3111POPC   GL140453   3.264  17.578   8.953
 3111POPC   GL240454   3.235  17.235   9.057
 3111POPC   C1A40455   3.525  17.614   8.572
 3111POPC   D2A40456   3.596  17.520   8.186
 3111POPC   C3A40457   3.849  17.642   7.851
 3111POPC   C4A40458   4.184  17.404   7.710
 3111POPC   C1B40459   3.206  17.188   8.618
 3111POPC   C2B40460   3.386  17.048   8.237
 3111POPC   C3B40461   3.692  17.100   7.902
 3111POPC   C4B40462   3.645  17.272   7.523
 3112POPC   NC340463  35.540  23.996   9.285
 3112POPC   PO440464  34.995  23.767   9.660
 3112POPC   GL140465  35.221  23.593   9.242
 3112POPC   GL240466  35.161  23.276   9.157
 3112POPC   C1A40467  35.453  23.558   8.824
 3112POPC   D2A40468  35.210  23.747   8.496
 3112POPC   C3A40469  35.433  23.873   8.163
 3112POPC   C4A40470  35.375  23.782   7.741
 3112POPC   C1B40471  34.978  23.388   8.806
 3112POPC   C2B40472  35.063  23.238   8.437
 3112POPC   C3B40473  35.114  23.458   8.067
 3112POPC   C4B40474  34.918  23.535   7.696
 3113POPC   NC340475  29.316  38.870   9.370
 3113POPC   PO440476  29.365  39.585   9.513
 3113POPC   GL140477  29.160  39.466   9.151
 3113POPC   GL240478  28.992  39.154   9.095
 3113POPC   C1A40479  29.225  39.482   8.754
 3113POPC   D2A40480  29.338  39.249   8.434
 3113POPC   C3A40481  29.211  39.330   8.035
 3113POPC   C4A40482  29.478  39.257   7.701
 3113POPC   C1B40483  28.892  38.981   8.689
 3113POPC   C2B40484  29.052  38.806   8.314
 3113POPC   C3B40485  28.933  38.749   7.916
 3113POPC   C4B40486  29.012  39.065   7.635
 3114POPC   NC340487  41.981  23.064   9.739
 3114POPC   PO440488  41.396  23.550   9.603
 3114POPC   GL140489  41.499  23.741   9.225
 3114POPC   GL240490  41.774  23.528   9.192
 3114POPC   C1A40491  41.671  23.900   8.822
 3114POPC   D2A40492  41.868  23.762   8.425
 3114POPC   C3A40493  41.750  24.017   8.082
 3114POPC   C4A40494  41.589  23.858   7.749
 3114POPC   C1B40495  41.529  23.367   8.839
 3114POPC   C2B40496  41.223  23.279   8.508
 3114POPC   C3B40497  41.349  23.405   8.099
 3114POPC   C4B40498  41.639  23.363   7.780
 3115POPC   NC340499   5.808  11.686   9.400
 3115POPC   PO440500   5.846  12.360   9.410
 3115POPC   GL140501   5.858  12.108   9.116
 3115POPC   GL240502   6.174  11.974   9.188
 3115POPC   C1A40503   5.988  11.937   8.725
 3115POPC   D2A40504   6.193  12.016   8.367
 3115POPC   C3A40505   5.891  11.803   8.118
 3115POPC   C4A40506   5.922  11.794   7.670
 3115POPC   C1B40507   6.229  12.367   8.890
 3115POPC   C2B40508   6.425  12.485   8.531
 3115POPC   C3B40509   6.321  12.527   8.119
 3115POPC   C4B40510   6.061  12.229   7.909
 3116POPC   NC340511  19.039   5.386   9.514
 3116POPC   PO440512  18.916   4.739   9.534
 3116POPC   GL140513  18.933   5.016   9.157
 3116POPC   GL240514  19.247   5.212   9.085
 3116POPC   C1A40515  19.054   4.891   8.718
 3116POPC   D2A40516  19.294   4.822   8.353
 3116POPC   C3A40517  19.111   5.129   8.137
 3116POPC   C4A40518  19.057   5.217   7.762
 3116POPC   C1B40519  18.932   5.374   8.780
 3116POPC   C2B40520  18.861   5.512   8.383
 3116POPC   C3B40521  18.667   5.440   7.997
 3116POPC   C4B40522  18.702   5.656   7.573
 3117POPC   NC340523  13.524  21.362   9.543
 3117POPC   PO440524  12.890  21.444   9.531
 3117POPC   GL140525  12.792  21.387   9.093
 3117POPC   GL240526  13.128  21.292   9.033
 3117POPC   C1A40527  12.718  21.043   8.747
 3117POPC   D2A40528  12.872  20.932   8.354
 3117POPC   C3A40529  12.766  21.275   8.113
 3117POPC   C4A40530  12.842  21.399   7.724
 3117POPC   C1B40531  13.022  21.435   8.625
 3117POPC   C2B40532  13.222  21.372   8.262
 3117POPC   C3B40533  13.344  21.536   7.895
 3117POPC   C4B40534  13.140  21.795   7.619
 3118POPC   NC340535  44.810  20.564   9.535
 3118POPC   PO440536  44.080  20.365   9.457
 3118POPC   GL140537  44.388  20.616   9.217
 3118POPC   GL240538  44.599  20.315   9.141
 3118POPC   C1A40539  44.623  20.740   8.834
 3118POPC   D2A40540  44.730  20.528   8.441
 3118POPC   C3A40541  44.543  20.763   8.090
 3118POPC   C4A40542  44.761  20.959   7.754
 3118POPC   C1B40543  44.952  20.266   8.859
 3118POPC   C2B40544  44.980  20.050   8.475
 3118POPC   C3B40545  44.955  20.228   8.065
 3118POPC   C4B40546  44.744  20.459   7.743
 3119POPC   NC340547  34.289  31.172   9.749
 3119POPC   PO440548  34.932  31.447   9.501
 3119POPC   GL140549  34.691  31.418   9.094
 3119POPC   GL240550  34.464  31.646   8.977
 3119POPC   C1A40551  34.572  31.232   8.699
 3119POPC   D2A40552  34.781  31.315   8.329
 3119POPC   C3A40553  34.593  31.262   7.928
 3119POPC   C4A40554  34.218  31.318   7.669
 3119POPC   C1B40555  34.801  31.768   8.713
 3119POPC   C2B40556  35.105  31.709   8.409
 3119POPC   C3B40557  34.952  31.666   7.996
 3119POPC   C4B40558  35.117  31.555   7.612
 3120POPC   NC340559  22.129  44.377   9.615
 3120POPC   PO440560  21.770  44.947   9.512
 3120POPC   GL140561  22.076  44.770   9.205
 3120POPC   GL240562  22.187  44.420   9.108
 3120POPC   C1A40563  22.190  44.879   8.775
 3120POPC   D2A40564  21.966  44.760   8.389
 3120POPC   C3A40565  22.083  44.812   7.987
 3120POPC   C4A40566  21.903  44.707   7.599
 3120POPC   C1B40567  22.451  44.436   8.746
 3120POPC   C2B40568  22.475  44.662   8.361
 3120POPC   C3B40569  22.531  44.360   8.044
 3120POPC   C4B40570  22.254  44.328   7.709
 3121POPC   NC340571  11.240   6.901   9.463
 3121POPC   PO440572  11.472   6.271   9.665
 3121POPC   GL140573  11.280   6.413   9.217
 3121POPC   GL240574  11.445   6.695   9.055
 3121POPC   C1A40575  11.268   6.369   8.719
 3121POPC   D2A40576  11.223   6.634   8.342
 3121POPC   C3A40577  11.376   6.462   7.972
 3121POPC   C4A40578  11.545   6.544   7.571
 3121POPC   C1B40579  11.076   6.851   8.792
 3121POPC   C2B40580  10.747   6.817   8.425
 3121POPC   C3B40581  10.849   6.890   7.990
 3121POPC   C4B40582  11.255   6.963   7.739
 3122POPC   NC340583  20.911  17.584   9.400
 3122POPC   PO440584  20.289  17.378   9.565
 3122POPC   GL140585  20.328  17.491   9.087
 3122POPC   GL240586  20.668  17.527   8.957
 3122POPC   C1A40587  20.283  17.401   8.628
 3122POPC   D2A40588  20.593  17.486   8.296
 3122POPC   C3A40589  20.451  17.438   7.851
 3122POPC   C4A40590  20.747  17.131   7.687
 3122POPC   C1B40591  20.902  17.855   8.748
 3122POPC   C2B40592  20.773  17.985   8.321
 3122POPC   C3B40593  20.855  17.750   7.942
 3122POPC   C4B40594  20.849  17.927   7.564
 3123POPC   NC340595  24.176  23.278   9.477
 3123POPC   PO440596  24.392  22.706   9.314
 3123POPC   GL140597  24.392  22.770   8.979
 3123POPC   GL240598  24.297  23.115   9.004
 3123POPC   C1A40599  24.495  22.669   8.599
 3123POPC   D2A40600  24.258  22.761   8.271
 3123POPC   C3A40601  24.461  22.703   7.869
 3123POPC   C4A40602  24.235  22.997   7.642
 3123POPC   C1B40603  24.581  23.179   8.739
 3123POPC   C2B40604  24.589  23.306   8.400
 3123POPC   C3B40605  24.502  23.168   8.052
 3123POPC   C4B40606  24.713  23.129   7.661
 3124POPC   NC340607   2.507   1.594   9.280
 3124POPC   PO440608   2.848   2.168   9.521
 3124POPC   GL140609   2.854   1.942   9.159
 3124POPC   GL240610   2.581   2.160   9.094
 3124POPC   C1A40611   2.725   1.813   8.715
 3124POPC   D2A40612   2.508   1.978   8.354
 3124POPC   C3A40613   2.662   1.982   7.942
 3124POPC   C4A40614   2.913   1.931   7.566
 3124POPC   C1B40615   2.625   2.360   8.724
 3124POPC   C2B40616   2.324   2.457   8.414
 3124POPC   C3B40617   2.288   2.311   7.998
 3124POPC   C4B40618   2.541   2.329   7.593
 3125POPC   NC340619   6.029  10.825   9.857
 3125POPC   PO440620   5.719  11.226   9.390
 3125POPC   GL140621   5.778  11.366   8.996
 3125POPC   GL240622   5.985  11.083   8.957
 3125POPC   C1A40623   5.605  11.254   8.606
 3125POPC   D2A40624   5.825  11.006   8.314
 3125POPC   C3A40625   5.904  11.302   8.009
 3125POPC   C4A40626   5.812  11.295   7.601
 3125POPC   C1B40627   6.262  11.032   8.631
 3125POPC   C2B40628   6.343  11.098   8.188
 3125POPC   C3B40629   6.222  10.958   7.794
 3125POPC   C4B40630   6.273  11.104   7.362
 3126POPC   NC340631  41.083  19.332   5.647
 3126POPC   PO440632  41.622  19.008   5.413
 3126POPC   GL140633  41.480  19.050   5.822
 3126POPC   GL240634  41.177  18.976   6.012
 3126POPC   C1A40635  41.666  18.884   6.172
 3126POPC   D2A40636  41.913  19.055   6.507
 3126POPC   C3A40637  41.698  19.032   6.878
 3126POPC   C4A40638  41.701  18.946   7.289
 3126POPC   C1B40639  41.327  19.221   6.360
 3126POPC   C2B40640  41.265  19.302   6.788
 3126POPC   C3B40641  41.212  19.062   7.174
 3126POPC   C4B40642  41.323  18.905   7.623
 3127POPC   NC340643  39.626  20.750   5.235
 3127POPC   PO440644  39.281  20.200   5.079
 3127POPC   GL140645  39.325  20.461   5.550
 3127POPC   GL240646  39.655  20.556   5.731
 3127POPC   C1A40647  39.204  20.635   6.003
 3127POPC   D2A40648  39.191  20.587   6.474
 3127POPC   C3A40649  39.381  20.780   6.844
 3127POPC   C4A40650  39.172  20.671   7.227
 3127POPC   C1B40651  39.644  20.411   6.201
 3127POPC   C2B40652  39.633  20.357   6.671
 3127POPC   C3B40653  39.392  20.208   7.061
 3127POPC   C4B40654  39.536  20.248   7.513
 3128POPC   NC340655  44.860  24.816   5.443
 3128POPC   PO440656  44.590  24.287   5.300
 3128POPC   GL140657  44.530  24.504   5.716
 3128POPC   GL240658  44.586  24.205   5.888
 3128POPC   C1A40659  44.399  24.561   6.177
 3128POPC   D2A40660  44.591  24.408   6.561
 3128POPC   C3A40661  44.498  24.675   6.930
 3128POPC   C4A40662  44.296  24.480   7.272
 3128POPC   C1B40663  44.898  24.457   6.116
 3128POPC   C2B40664   0.105  24.569   6.513
 3128POPC   C3B40665   0.020  24.669   6.954
 3128POPC   C4B40666  44.806  24.409   7.256
 3129POPC   NC340667  43.487  22.947   5.591
 3129POPC   PO440668  42.804  22.867   5.426
 3129POPC   GL140669  43.030  22.758   5.785
 3129POPC   GL240670  42.944  23.063   5.900
 3129POPC   C1A40671  43.268  22.815   6.207
 3129POPC   D2A40672  43.182  23.126   6.547
 3129POPC   C3A40673  42.952  22.989   6.907
 3129POPC   C4A40674  43.073  22.649   7.117
 3129POPC   C1B40675  42.850  23.359   6.204
 3129POPC   C2B40676  42.733  23.397   6.629
 3129POPC   C3B40677  42.910  23.466   7.060
 3129POPC   C4B40678  43.153  23.169   7.365
 3130POPC   NC340679  26.411  44.764   5.074
 3130POPC   PO440680  27.039  44.616   5.200
 3130POPC   GL140681  26.971  44.720   5.695
 3130POPC   GL240682  26.651  44.601   5.844
 3130POPC   C1A40683  26.957  44.861   6.144
 3130POPC   D2A40684  26.958  44.620   6.532
 3130POPC   C3A40685  26.868  44.879   6.881
 3130POPC   C4A40686  27.014  44.859   7.285
 3130POPC   C1B40687  26.485  44.456   6.274
 3130POPC   C2B40688  26.492  44.486   6.746
 3130POPC   C3B40689  26.492  44.596   7.197
 3130POPC   C4B40690  26.222  44.552   7.584
 3131POPC   NC340691  34.800  33.806   5.378
 3131POPC   PO440692  35.458  33.928   5.382
 3131POPC   GL140693  35.301  33.828   5.772
 3131POPC   GL240694  35.006  33.610   5.787
 3131POPC   C1A40695  35.508  33.885   6.166
 3131POPC   D2A40696  35.367  33.917   6.576
 3131POPC   C3A40697  35.549  34.011   6.929
 3131POPC   C4A40698  35.444  33.846   7.322
 3131POPC   C1B40699  35.001  33.776   6.197
 3131POPC   C2B40700  35.012  33.577   6.584
 3131POPC   C3B40701  35.063  33.728   6.984
 3131POPC   C4B40702  34.914  33.861   7.359
 3132POPC   NC340703   6.306  21.818   5.400
 3132POPC   PO440704   6.869  22.171   5.420
 3132POPC   GL140705   6.727  22.135   5.840
 3132POPC   GL240706   6.759  21.812   6.001
 3132POPC   C1A40707   6.456  22.278   6.195
 3132POPC   D2A40708   6.349  22.568   6.537
 3132POPC   C3A40709   6.587  22.484   6.915
 3132POPC   C4A40710   6.579  22.415   7.349
 3132POPC   C1B40711   7.052  22.060   6.254
 3132POPC   C2B40712   7.070  22.184   6.710
 3132POPC   C3B40713   6.887  22.038   7.117
 3132POPC   C4B40714   6.977  22.145   7.546
 3133POPC   NC340715   9.254  33.067   5.407
 3133POPC   PO440716   8.642  33.327   5.306
 3133POPC   GL140717   8.863  33.268   5.717
 3133POPC   GL240718   8.973  32.925   5.815
 3133POPC   C1A40719   8.985  33.263   6.174
 3133POPC   D2A40720   8.877  32.971   6.515
 3133POPC   C3A40721   9.015  33.121   6.930
 3133POPC   C4A40722   8.819  33.069   7.306
 3133POPC   C1B40723   9.257  32.819   6.209
 3133POPC   C2B40724   9.348  32.791   6.686
 3133POPC   C3B40725   9.461  32.779   7.137
 3133POPC   C4B40726   9.205  32.792   7.522
 3134POPC   NC340727  11.787  12.553   5.601
 3134POPC   PO440728  11.235  12.977   5.557
 3134POPC   GL140729  11.373  12.769   5.855
 3134POPC   GL240730  11.679  12.966   5.878
 3134POPC   C1A40731  11.172  12.811   6.244
 3134POPC   D2A40732  11.079  13.024   6.606
 3134POPC   C3A40733  11.087  12.657   6.866
 3134POPC   C4A40734  11.080  12.629   7.288
 3134POPC   C1B40735  11.676  12.748   6.256
 3134POPC   C2B40736  11.534  12.809   6.667
 3134POPC   C3B40737  11.584  12.694   7.072
 3134POPC   C4B40738  11.852  12.827   7.416
 3135POPC   NC340739   1.624  37.188   5.554
 3135POPC   PO440740   1.371  37.748   5.383
 3135POPC   GL140741   1.293  37.616   5.783
 3135POPC   GL240742   1.095  37.916   5.810
 3135POPC   C1A40743   1.150  37.526   6.225
 3135POPC   D2A40744   1.157  37.645   6.676
 3135POPC   C3A40745   0.852  37.408   6.986
 3135POPC   C4A40746   0.843  37.445   7.460
 3135POPC   C1B40747   1.380  37.971   6.180
 3135POPC   C2B40748   1.376  38.133   6.602
 3135POPC   C3B40749   1.182  38.122   6.996
 3135POPC   C4B40750   1.170  37.738   7.182
 3136POPC   NC340751   2.024  27.752   5.069
 3136POPC   PO440752   2.130  27.157   5.333
 3136POPC   GL140753   2.000  27.503   5.619
 3136POPC   GL240754   1.642  27.461   5.769
 3136POPC   C1A40755   2.187  27.563   6.046
 3136POPC   D2A40756   2.212  27.804   6.429
 3136POPC   C3A40757   2.316  27.550   6.787
 3136POPC   C4A40758   2.176  27.595   7.179
 3136POPC   C1B40759   1.708  27.655   6.198
 3136POPC   C2B40760   1.830  27.517   6.623
 3136POPC   C3B40761   1.684  27.523   7.050
 3136POPC   C4B40762   1.505  27.185   7.265
 3137POPC   NC340763  36.327   4.818   5.342
 3137POPC   PO440764  35.755   5.185   5.599
 3137POPC   GL140765  36.001   5.287   5.930
 3137POPC   GL240766  36.290   5.059   5.832
 3137POPC   C1A40767  35.897   5.363   6.370
 3137POPC   D2A40768  35.791   5.192   6.765
 3137POPC   C3A40769  35.900   5.364   7.148
 3137POPC   C4A40770  36.015   5.338   7.584
 3137POPC   C1B40771  36.145   4.909   6.252
 3137POPC   C2B40772  36.226   4.912   6.691
 3137POPC   C3B40773  36.226   4.914   7.160
 3137POPC   C4B40774  36.416   4.594   7.457
 3138POPC   NC340775  42.645  19.266   5.284
 3138POPC   PO440776  43.300  19.044   5.487
 3138POPC   GL140777  42.994  19.092   5.805
 3138POPC   GL240778  42.982  19.415   5.946
 3138POPC   C1A40779  42.890  19.042   6.267
 3138POPC   D2A40780  43.040  19.136   6.713
 3138POPC   C3A40781  42.906  18.874   7.009
 3138POPC   C4A40782  42.641  18.903   7.348
 3138POPC   C1B40783  43.277  19.392   6.325
 3138POPC   C2B40784  43.454  19.440   6.737
 3138POPC   C3B40785  43.414  19.479   7.163
 3138POPC   C4B40786  43.524  19.191   7.449
 3139POPC   NC340787  24.253  43.603   5.135
 3139POPC   PO440788  24.606  44.174   5.439
 3139POPC   GL140789  24.660  44.093   5.886
 3139POPC   GL240790  24.299  44.111   5.947
 3139POPC   C1A40791  24.582  44.030   6.362
 3139POPC   D2A40792  24.648  44.238   6.777
 3139POPC   C3A40793  24.828  44.049   7.160
 3139POPC   C4A40794  24.776  43.623   7.325
 3139POPC   C1B40795  23.980  44.009   6.298
 3139POPC   C2B40796  23.842  43.735   6.660
 3139POPC   C3B40797  24.189  43.716   6.929
 3139POPC   C4B40798  24.317  44.077   7.132
 3140POPC   NC340799  39.468  19.799   4.972
 3140POPC   PO440800  39.343  19.927   5.595
 3140POPC   GL140801  39.148  19.619   5.801
 3140POPC   GL240802  38.771  19.643   5.757
 3140POPC   C1A40803  39.225  19.667   6.233
 3140POPC   D2A40804  39.345  19.941   6.575
 3140POPC   C3A40805  39.391  19.669   6.912
 3140POPC   C4A40806  39.466  19.767   7.337
 3140POPC   C1B40807  38.786  19.891   6.173
 3140POPC   C2B40808  38.890  19.742   6.629
 3140POPC   C3B40809  38.961  19.898   7.065
 3140POPC   C4B40810  38.919  19.705   7.453
 3141POPC   NC340811   0.893  39.016   5.602
 3141POPC   PO440812   1.527  38.717   5.592
 3141POPC   GL140813   1.343  38.971   5.895
 3141POPC   GL240814   1.257  39.316   5.810
 3141POPC   C1A40815   1.330  39.077   6.334
 3141POPC   D2A40816   1.029  39.067   6.697
 3141POPC   C3A40817   1.223  39.008   7.095
 3141POPC   C4A40818   1.264  39.012   7.553
 3141POPC   C1B40819   1.419  39.576   6.158
 3141POPC   C2B40820   1.531  39.478   6.589
 3141POPC   C3B40821   1.228  39.487   6.932
 3141POPC   C4B40822   1.412  39.449   7.310
 3142POPC   NC340823   3.938  37.279   5.330
 3142POPC   PO440824   3.613  36.653   5.428
 3142POPC   GL140825   3.451  36.841   5.764
 3142POPC   GL240826   3.238  37.087   5.607
 3142POPC   C1A40827   3.579  36.888   6.193
 3142POPC   D2A40828   3.549  37.164   6.536
 3142POPC   C3A40829   3.611  36.934   6.921
 3142POPC   C4A40830   3.376  36.684   7.249
 3142POPC   C1B40831   3.233  37.252   6.022
 3142POPC   C2B40832   3.091  37.400   6.421
 3142POPC   C3B40833   3.103  37.307   6.858
 3142POPC   C4B40834   3.329  37.227   7.212
 3143POPC   NC340835  16.208  31.785   5.366
 3143POPC   PO440836  15.802  31.235   5.366
 3143POPC   GL140837  15.943  31.490   5.722
 3143POPC   GL240838  16.211  31.321   5.882
 3143POPC   C1A40839  15.816  31.527   6.174
 3143POPC   D2A40840  15.737  31.182   6.463
 3143POPC   C3A40841  15.757  31.209   6.935
 3143POPC   C4A40842  15.901  31.550   7.200
 3143POPC   C1B40843  16.319  31.497   6.280
 3143POPC   C2B40844  16.157  31.506   6.712
 3143POPC   C3B40845  16.407  31.478   7.104
 3143POPC   C4B40846  16.285  31.426   7.544
 3144POPC   NC340847  11.913  17.207   5.396
 3144POPC   PO440848  12.173  17.780   5.344
 3144POPC   GL140849  11.962  17.716   5.757
 3144POPC   GL240850  12.149  17.419   5.862
 3144POPC   C1A40851  11.759  17.586   6.174
 3144POPC   D2A40852  11.851  17.400   6.601
 3144POPC   C3A40853  11.809  17.628   6.970
 3144POPC   C4A40854  12.043  17.921   7.196
 3144POPC   C1B40855  12.256  17.536   6.304
 3144POPC   C2B40856  12.185  17.792   6.683
 3144POPC   C3B40857  12.290  17.505   7.065
 3144POPC   C4B40858  12.455  17.257   7.444
 3145POPC   NC340859   5.161  34.669   5.830
 3145POPC   PO440860   4.595  34.399   5.506
 3145POPC   GL140861   4.751  34.294   5.903
 3145POPC   GL240862   4.587  34.567   6.009
 3145POPC   C1A40863   4.934  34.318   6.336
 3145POPC   D2A40864   5.129  34.724   6.520
 3145POPC   C3A40865   5.294  34.761   6.947
 3145POPC   C4A40866   5.405  34.402   7.202
 3145POPC   C1B40867   4.622  34.724   6.408
 3145POPC   C2B40868   4.572  34.399   6.706
 3145POPC   C3B40869   4.887  34.369   7.008
 3145POPC   C4B40870   4.907  34.719   7.277
 3146POPC   NC340871  29.111   0.863   5.571
 3146POPC   PO440872  29.277   0.202   5.576
 3146POPC   GL140873  29.147   0.466   5.927
 3146POPC   GL240874  28.782   0.398   5.834
 3146POPC   C1A40875  29.381   0.625   6.330
 3146POPC   D2A40876  29.396   0.641   6.804
 3146POPC   C3A40877  29.218   0.299   7.047
 3146POPC   C4A40878  29.223   0.174   7.485
 3146POPC   C1B40879  28.813   0.373   6.290
 3146POPC   C2B40880  28.900   0.559   6.689
 3146POPC   C3B40881  28.905   0.709   7.108
 3146POPC   C4B40882  28.899   0.572   7.548
 3147POPC   NC340883  27.942  28.229   5.352
 3147POPC   PO440884  27.419  28.567   5.449
 3147POPC   GL140885  27.647  28.586   5.801
 3147POPC   GL240886  27.686  28.228   5.838
 3147POPC   C1A40887  27.457  28.530   6.194
 3147POPC   D2A40888  27.258  28.607   6.587
 3147POPC   C3A40889  27.339  28.436   6.977
 3147POPC   C4A40890  27.700  28.485   7.238
 3147POPC   C1B40891  27.816  28.001   6.245
 3147POPC   C2B40892  27.599  28.227   6.576
 3147POPC   C3B40893  27.668  28.052   6.963
 3147POPC   C4B40894  28.003  28.035   7.245
 3148POPC   NC340895  41.570   6.292   5.269
 3148POPC   PO440896  41.851   5.743   5.464
 3148POPC   GL140897  41.630   5.866   5.786
 3148POPC   GL240898  41.721   6.186   5.775
 3148POPC   C1A40899  41.523   5.996   6.201
 3148POPC   D2A40900  41.165   5.877   6.421
 3148POPC   C3A40901  41.235   6.021   6.812
 3148POPC   C4A40902  41.320   6.037   7.201
 3148POPC   C1B40903  41.982   6.244   6.156
 3148POPC   C2B40904  41.946   6.026   6.560
 3148POPC   C3B40905  41.768   6.058   6.978
 3148POPC   C4B40906  41.754   5.943   7.431
 3149POPC   NC340907   2.511  35.908   5.517
 3149POPC   PO440908   2.994  36.267   5.186
 3149POPC   GL140909   2.878  36.276   5.679
 3149POPC   GL240910   2.703  36.630   5.691
 3149POPC   C1A40911   2.875  36.002   6.177
 3149POPC   D2A40912   2.660  35.918   6.589
 3149POPC   C3A40913   2.882  36.025   6.915
 3149POPC   C4A40914   3.024  35.899   7.298
 3149POPC   C1B40915   2.758  36.476   6.124
 3149POPC   C2B40916   2.886  36.391   6.535
 3149POPC   C3B40917   3.179  36.440   6.852
 3149POPC   C4B40918   2.915  36.423   7.223
 3150POPC   NC340919  26.530  35.347   5.458
 3150POPC   PO440920  25.873  35.620   5.384
 3150POPC   GL140921  26.096  35.468   5.763
 3150POPC   GL240922  26.213  35.115   5.812
 3150POPC   C1A40923  25.889  35.371   6.159
 3150POPC   D2A40924  25.644  35.214   6.493
 3150POPC   C3A40925  25.791  35.366   6.899
 3150POPC   C4A40926  25.616  35.256   7.274
 3150POPC   C1B40927  26.426  35.332   6.185
 3150POPC   C2B40928  26.588  35.379   6.607
 3150POPC   C3B40929  26.363  35.317   6.985
 3150POPC   C4B40930  26.281  35.553   7.378
 3151POPC   NC340931  27.589  31.473   5.386
 3151POPC   PO440932  27.234  32.088   5.542
 3151POPC   GL140933  27.499  31.774   5.787
 3151POPC   GL240934  27.365  31.430   5.833
 3151POPC   C1A40935  27.718  31.549   6.178
 3151POPC   D2A40936  27.700  31.322   6.595
 3151POPC   C3A40937  27.774  31.528   7.015
 3151POPC   C4A40938  27.817  31.284   7.420
 3151POPC   C1B40939  27.145  31.680   6.124
 3151POPC   C2B40940  27.358  31.739   6.502
 3151POPC   C3B40941  27.265  31.710   6.916
 3151POPC   C4B40942  27.309  31.483   7.277
 3152POPC   NC340943  15.116  13.931   5.230
 3152POPC   PO440944  15.131  14.614   5.364
 3152POPC   GL140945  15.121  14.445   5.778
 3152POPC   GL240946  14.800  14.610   5.855
 3152POPC   C1A40947  15.241  14.229   6.202
 3152POPC   D2A40948  15.153  14.036   6.624
 3152POPC   C3A40949  15.362  14.140   7.009
 3152POPC   C4A40950  15.083  14.171   7.363
 3152POPC   C1B40951  15.007  14.680   6.266
 3152POPC   C2B40952  15.210  14.548   6.676
 3152POPC   C3B40953  15.172  14.631   7.135
 3152POPC   C4B40954  15.273  14.853   7.564
 3153POPC   NC340955   0.712  31.598   5.122
 3153POPC   PO440956   0.199  31.443   5.648
 3153POPC   GL140957   0.210  31.240   6.021
 3153POPC   GL240958   0.555  31.365   6.071
 3153POPC   C1A40959   0.349  31.059   6.422
 3153POPC   D2A40960   0.687  31.278   6.593
 3153POPC   C3A40961   0.468  31.617   6.757
 3153POPC   C4A40962   0.233  31.526   7.126
 3153POPC   C1B40963   0.914  31.616   6.226
 3153POPC   C2B40964   0.996  31.838   6.601
 3153POPC   C3B40965   0.935  31.640   6.948
 3153POPC   C4B40966   0.691  31.733   7.282
 3154POPC   NC340967  31.920  17.721   5.512
 3154POPC   PO440968  32.609  17.491   5.339
 3154POPC   GL140969  32.420  17.439   5.726
 3154POPC   GL240970  32.553  17.676   5.920
 3154POPC   C1A40971  32.102  17.342   6.037
 3154POPC   D2A40972  32.032  17.443   6.476
 3154POPC   C3A40973  32.100  17.262   6.873
 3154POPC   C4A40974  32.031  17.576   7.199
 3154POPC   C1B40975  32.590  17.290   6.181
 3154POPC   C2B40976  32.555  17.386   6.612
 3154POPC   C3B40977  32.518  17.544   7.019
 3154POPC   C4B40978  32.603  17.233   7.328
 3155POPC   NC340979   8.046  30.126   5.469
 3155POPC   PO440980   7.893  29.485   5.730
 3155POPC   GL140981   8.096  29.847   5.930
 3155POPC   GL240982   8.362  30.109   5.895
 3155POPC   C1A40983   7.893  30.020   6.283
 3155POPC   D2A40984   8.014  30.200   6.657
 3155POPC   C3A40985   8.064  29.859   6.925
 3155POPC   C4A40986   7.955  29.743   7.314
 3155POPC   C1B40987   8.424  30.106   6.348
 3155POPC   C2B40988   8.460  30.455   6.667
 3155POPC   C3B40989   8.317  30.290   7.078
 3155POPC   C4B40990   8.474  29.897   7.253
 3156POPC   NC340991  32.028  13.470   5.426
 3156POPC   PO440992  31.692  13.962   5.271
 3156POPC   GL140993  31.933  13.807   5.793
 3156POPC   GL240994  32.052  13.415   5.918
 3156POPC   C1A40995  32.075  13.773   6.253
 3156POPC   D2A40996  32.151  13.451   6.585
 3156POPC   C3A40997  32.004  13.505   6.954
 3156POPC   C4A40998  32.132  13.507   7.352
 3156POPC   C1B40999  32.465  13.456   6.196
 3156POPC   C2B41000  32.521  13.808   6.531
 3156POPC   C3B41001  32.452  13.776   6.968
 3156POPC   C4B41002  32.566  13.362   7.061
 3157POPC   NC341003   8.005  44.162   5.582
 3157POPC   PO441004   8.282  44.652   5.101
 3157POPC   GL141005   8.179  44.664   5.602
 3157POPC   GL241006   8.506  44.650   5.824
 3157POPC   C1A41007   8.096  44.753   6.061
 3157POPC   D2A41008   8.344  44.691   6.447
 3157POPC   C3A41009   8.178  44.780   6.845
 3157POPC   C4A41010   8.335   0.038   7.153
 3157POPC   C1B41011   8.400  44.301   6.129
 3157POPC   C2B41012   8.568  44.146   6.526
 3157POPC   C3B41013   8.510  44.375   6.941
 3157POPC   C4B41014   8.442  44.539   7.348
 3158POPC   NC341015  14.118   8.056   5.448
 3158POPC   PO441016  13.483   7.747   5.303
 3158POPC   GL141017  13.616   7.992   5.668
 3158POPC   GL241018  13.867   7.811   5.814
 3158POPC   C1A41019  13.725   8.242   6.060
 3158POPC   D2A41020  13.922   8.274   6.478
 3158POPC   C3A41021  13.575   8.356   6.790
 3158POPC   C4A41022  13.684   8.449   7.190
 3158POPC   C1B41023  13.987   7.822   6.219
 3158POPC   C2B41024  13.978   7.769   6.633
 3158POPC   C3B41025  13.955   8.016   6.963
 3158POPC   C4B41026  13.778   7.839   7.292
 3159POPC   NC341027  11.134  38.880   5.152
 3159POPC   PO441028  11.601  39.294   5.414
 3159POPC   GL141029  11.425  39.192   5.783
 3159POPC   GL241030  11.069  39.086   5.768
 3159POPC   C1A41031  11.292  39.305   6.188
 3159POPC   D2A41032  11.223  39.092   6.551
 3159POPC   C3A41033  11.427  39.297   6.864
 3159POPC   C4A41034  11.518  39.129   7.256
 3159POPC   C1B41035  10.839  39.017   6.190
 3159POPC   C2B41036  10.739  38.964   6.663
 3159POPC   C3B41037  11.022  39.034   7.048
 3159POPC   C4B41038  11.040  39.033   7.519
 3160POPC   NC341039  36.349  40.401   5.399
 3160POPC   PO441040  35.812  39.996   5.503
 3160POPC   GL141041  36.035  39.852   5.833
 3160POPC   GL241042  36.229  40.164   5.842
 3160POPC   C1A41043  35.919  39.927   6.244
 3160POPC   D2A41044  35.815  40.170   6.613
 3160POPC   C3A41045  35.924  39.925   6.983
 3160POPC   C4A41046  35.761  39.906   7.396
 3160POPC   C1B41047  36.173  40.382   6.242
 3160POPC   C2B41048  36.285  40.355   6.665
 3160POPC   C3B41049  36.089  40.424   7.055
 3160POPC   C4B41050  36.180  40.220   7.397
 3161POPC   NC341051  37.173  23.938   5.365
 3161POPC   PO441052  36.565  23.582   5.292
 3161POPC   GL141053  36.753  23.815   5.731
 3161POPC   GL241054  37.142  23.709   5.817
 3161POPC   C1A41055  36.852  23.650   6.224
 3161POPC   D2A41056  37.001  23.877   6.586
 3161POPC   C3A41057  37.024  23.678   6.986
 3161POPC   C4A41058  36.659  23.531   7.151
 3161POPC   C1B41059  37.334  23.431   6.153
 3161POPC   C2B41060  37.233  23.424   6.589
 3161POPC   C3B41061  37.334  23.273   6.988
 3161POPC   C4B41062  37.343  23.473   7.388
 3162POPC   NC341063  37.105  42.392   5.452
 3162POPC   PO441064  36.408  42.572   5.385
 3162POPC   GL141065  36.670  42.435   5.728
 3162POPC   GL241066  36.934  42.680   5.836
 3162POPC   C1A41067  36.773  42.279   6.153
 3162POPC   D2A41068  37.063  42.172   6.521
 3162POPC   C3A41069  36.924  42.052   6.951
 3162POPC   C4A41070  36.667  42.291   7.280
 3162POPC   C1B41071  36.864  42.795   6.214
 3162POPC   C2B41072  36.581  42.646   6.493
 3162POPC   C3B41073  36.767  42.526   6.848
 3162POPC   C4B41074  36.913  42.757   7.214
 3163POPC   NC341075  22.457   3.559   5.173
 3163POPC   PO441076  21.787   3.483   5.374
 3163POPC   GL141077  22.099   3.586   5.679
 3163POPC   GL241078  21.943   3.335   5.863
 3163POPC   C1A41079  22.328   3.565   6.107
 3163POPC   D2A41080  22.422   3.387   6.524
 3163POPC   C3A41081  22.466   3.687   6.865
 3163POPC   C4A41082  22.342   3.678   7.294
 3163POPC   C1B41083  21.784   3.574   6.179
 3163POPC   C2B41084  22.012   3.715   6.538
 3163POPC   C3B41085  21.958   3.619   6.949
 3163POPC   C4B41086  21.956   3.358   7.307
 3164POPC   NC341087  31.829  25.077   5.628
 3164POPC   PO441088  31.477  25.365   5.166
 3164POPC   GL141089  31.464  25.389   5.700
 3164POPC   GL241090  31.207  25.474   5.754
 3164POPC   C1A41091  31.689  25.319   6.188
 3164POPC   D2A41092  31.653  24.956   6.527
 3164POPC   C3A41093  31.675  25.090   6.951
 3164POPC   C4A41094  31.752  25.498   7.118
 3164POPC   C1B41095  31.229  25.152   6.140
 3164POPC   C2B41096  31.283  25.311   6.575
 3164POPC   C3B41097  31.177  25.377   7.008
 3164POPC   C4B41098  30.844  25.619   7.225
 3165POPC   NC341099  23.971   2.817   5.359
 3165POPC   PO441100  24.599   2.614   5.334
 3165POPC   GL141101  24.624   2.564   5.779
 3165POPC   GL241102  24.265   2.495   5.816
 3165POPC   C1A41103  24.811   2.745   6.180
 3165POPC   D2A41104  24.775   3.009   6.578
 3165POPC   C3A41105  24.870   2.864   7.015
 3165POPC   C4A41106  24.680   2.580   7.318
 3165POPC   C1B41107  24.364   2.468   6.261
 3165POPC   C2B41108  24.280   2.727   6.641
 3165POPC   C3B41109  24.295   2.833   7.102
 3165POPC   C4B41110  24.145   2.630   7.509
 3166POPC   NC341111  11.873  40.573   5.500
 3166POPC   PO441112  12.556  40.546   5.553
 3166POPC   GL141113  12.414  40.791   5.911
 3166POPC   GL241114  12.054  40.873   5.906
 3166POPC   C1A41115  12.315  40.750   6.340
 3166POPC   D2A41116  12.284  40.537   6.747
 3166POPC   C3A41117  12.280  40.858   7.025
 3166POPC   C4A41118  12.001  41.187   7.057
 3166POPC   C1B41119  11.870  40.539   6.203
 3166POPC   C2B41120  11.565  40.335   6.494
 3166POPC   C3B41121  11.694  40.330   6.923
 3166POPC   C4B41122  11.836  40.670   7.196
 3167POPC   NC341123  36.685  37.390   5.439
 3167POPC   PO441124  36.763  38.074   5.522
 3167POPC   GL141125  36.702  37.754   5.808
 3167POPC   GL241126  37.041  37.794   5.902
 3167POPC   C1A41127  36.707  37.539   6.209
 3167POPC   D2A41128  36.996  37.611   6.541
 3167POPC   C3A41129  36.881  37.788   6.935
 3167POPC   C4A41130  36.907  37.493   7.261
 3167POPC   C1B41131  37.284  37.942   6.250
 3167POPC   C2B41132  37.256  38.041   6.689
 3167POPC   C3B41133  37.355  37.888   7.111
 3167POPC   C4B41134  37.403  37.990   7.555
 3168POPC   NC341135   0.401  18.405   5.435
 3168POPC   PO441136   0.708  17.842   5.179
 3168POPC   GL141137   0.529  17.878   5.667
 3168POPC   GL241138   0.265  18.070   5.786
 3168POPC   C1A41139   0.500  17.939   6.190
 3168POPC   D2A41140   0.377  18.310   6.518
 3168POPC   C3A41141   0.428  18.290   6.977
 3168POPC   C4A41142   0.773  18.126   7.238
 3168POPC   C1B41143   0.202  18.430   6.053
 3168POPC   C2B41144   0.011  18.669   6.390
 3168POPC   C3B41145  44.977  18.561   6.822
 3168POPC   C4B41146   0.081  18.653   7.244
 3169POPC   NC341147  16.154   5.479   5.484
 3169POPC   PO441148  16.532   4.936   5.397
 3169POPC   GL141149  16.836   4.923   5.747
 3169POPC   GL241150  17.053   5.223   5.746
 3169POPC   C1A41151  16.952   4.988   6.201
 3169POPC   D2A41152  17.075   4.950   6.632
 3169POPC   C3A41153  16.770   4.889   6.965
 3169POPC   C4A41154  16.825   4.859   7.395
 3169POPC   C1B41155  16.721   5.404   6.016
 3169POPC   C2B41156  16.699   5.364   6.488
 3169POPC   C3B41157  16.686   5.397   6.966
 3169POPC   C4B41158  16.731   5.375   7.418
 3170POPC   NC341159   7.605   3.817   5.257
 3170POPC   PO441160   7.285   3.320   5.409
 3170POPC   GL141161   7.268   3.548   5.773
 3170POPC   GL241162   7.603   3.436   5.828
 3170POPC   C1A41163   7.235   3.604   6.219
 3170POPC   D2A41164   7.478   3.696   6.619
 3170POPC   C3A41165   7.251   3.686   7.005
 3170POPC   C4A41166   7.029   3.371   7.159
 3170POPC   C1B41167   7.753   3.577   6.213
 3170POPC   C2B41168   7.963   3.869   6.466
 3170POPC   C3B41169   7.956   3.672   6.839
 3170POPC   C4B41170   7.701   3.524   7.157
 3171POPC   NC341171  17.379  34.977   5.196
 3171POPC   PO441172  16.813  35.339   5.424
 3171POPC   GL141173  16.547  35.270   5.792
 3171POPC   GL241174  16.506  35.581   5.825
 3171POPC   C1A41175  16.341  35.264   6.201
 3171POPC   D2A41176  16.575  35.317   6.557
 3171POPC   C3A41177  16.438  35.149   6.937
 3171POPC   C4A41178  16.652  35.275   7.257
 3171POPC   C1B41179  16.868  35.489   6.126
 3171POPC   C2B41180  16.950  35.683   6.522
 3171POPC   C3B41181  16.729  35.665   6.907
 3171POPC   C4B41182  16.969  35.704   7.255
 3172POPC   NC341183  33.809  23.814   5.380
 3172POPC   PO441184  33.380  24.151   5.780
 3172POPC   GL141185  33.648  23.769   5.861
 3172POPC   GL241186  34.042  23.710   5.821
 3172POPC   C1A41187  33.835  23.842   6.267
 3172POPC   D2A41188  33.661  24.157   6.562
 3172POPC   C3A41189  33.488  23.994   6.969
 3172POPC   C4A41190  33.713  23.917   7.336
 3172POPC   C1B41191  34.124  23.407   6.197
 3172POPC   C2B41192  34.024  23.530   6.645
 3172POPC   C3B41193  34.048  23.597   7.108
 3172POPC   C4B41194  33.849  23.452   7.521
 3173POPC   NC341195  17.449  26.871   5.378
 3173POPC   PO441196  18.084  27.174   5.214
 3173POPC   GL141197  17.752  27.022   5.740
 3173POPC   GL241198  17.581  26.682   5.839
 3173POPC   C1A41199  17.677  27.024   6.221
 3173POPC   D2A41200  17.712  26.839   6.658
 3173POPC   C3A41201  17.450  26.920   7.043
 3173POPC   C4A41202  17.491  26.752   7.465
 3173POPC   C1B41203  17.345  26.594   6.256
 3173POPC   C2B41204  17.276  26.546   6.722
 3173POPC   C3B41205  17.282  26.389   7.154
 3173POPC   C4B41206  17.154  26.362   7.612
 3174POPC   NC341207  14.485  38.995   5.482
 3174POPC   PO441208  14.004  39.374   5.250
 3174POPC   GL141209  14.295  39.441   5.706
 3174POPC   GL241210  14.686  39.371   5.746
 3174POPC   C1A41211  14.343  39.310   6.188
 3174POPC   D2A41212  14.284  39.441   6.658
 3174POPC   C3A41213  14.365  39.176   7.039
 3174POPC   C4A41214  14.132  38.928   7.329
 3174POPC   C1B41215  14.710  39.651   6.042
 3174POPC   C2B41216  14.704  39.676   6.487
 3174POPC   C3B41217  14.767  39.403   6.830
 3174POPC   C4B41218  14.762  39.485   7.244
 3175POPC   NC341219  44.997   3.770   5.570
 3175POPC   PO441220  44.492   3.358   5.286
 3175POPC   GL141221  44.500   3.538   5.753
 3175POPC   GL241222  44.576   3.868   5.891
 3175POPC   C1A41223  44.628   3.425   6.198
 3175POPC   D2A41224  44.838   3.589   6.590
 3175POPC   C3A41225  44.797   3.349   6.977
 3175POPC   C4A41226  44.448   3.385   7.247
 3175POPC   C1B41227  44.270   3.781   6.261
 3175POPC   C2B41228  44.330   3.743   6.733
 3175POPC   C3B41229  44.651   3.865   7.005
 3175POPC   C4B41230  44.796   3.913   7.438
 3176POPC   NC341231  20.797  38.083   5.417
 3176POPC   PO441232  20.875  37.354   5.303
 3176POPC   GL141233  20.850  37.614   5.655
 3176POPC   GL241234  20.523  37.530   5.794
 3176POPC   C1A41235  20.930  37.620   6.105
 3176POPC   D2A41236  20.734  37.632   6.509
 3176POPC   C3A41237  20.518  37.750   6.864
 3176POPC   C4A41238  20.610  37.565   7.231
 3176POPC   C1B41239  20.359  37.492   6.186
 3176POPC   C2B41240  20.352  37.289   6.594
 3176POPC   C3B41241  20.274  37.237   7.048
 3176POPC   C4B41242  20.123  37.312   7.515
 3177POPC   NC341243  41.535  27.800   5.266
 3177POPC   PO441244  41.557  27.171   5.523
 3177POPC   GL141245  41.595  27.299   5.919
 3177POPC   GL241246  41.952  27.393   5.932
 3177POPC   C1A41247  41.528  27.535   6.310
 3177POPC   D2A41248  41.219  27.619   6.642
 3177POPC   C3A41249  41.413  27.780   7.019
 3177POPC   C4A41250  41.828  27.847   7.204
 3177POPC   C1B41251  41.860  27.107   6.299
 3177POPC   C2B41252  41.547  27.105   6.580
 3177POPC   C3B41253  41.429  27.253   6.941
 3177POPC   C4B41254  41.661  27.375   7.234
 3178POPC   NC341255  21.599  40.652   5.386
 3178POPC   PO441256  21.043  41.055   5.287
 3178POPC   GL141257  21.103  41.017   5.754
 3178POPC   GL241258  21.351  40.747   5.841
 3178POPC   C1A41259  21.277  41.169   6.178
 3178POPC   D2A41260  21.589  41.018   6.493
 3178POPC   C3A41261  21.369  40.790   6.817
 3178POPC   C4A41262  21.080  40.987   7.118
 3178POPC   C1B41263  21.307  40.635   6.283
 3178POPC   C2B41264  20.997  40.514   6.584
 3178POPC   C3B41265  21.065  40.319   6.945
 3178POPC   C4B41266  21.363  40.459   7.217
 3179POPC   NC341267  37.755  30.585   5.123
 3179POPC   PO441268  37.315  30.748   5.543
 3179POPC   GL141269  37.697  30.756   5.798
 3179POPC   GL241270  37.820  30.425   5.902
 3179POPC   C1A41271  37.783  30.805   6.259
 3179POPC   D2A41272  37.675  30.628   6.670
 3179POPC   C3A41273  37.625  30.918   7.027
 3179POPC   C4A41274  37.387  31.085   7.370
 3179POPC   C1B41275  37.427  30.403   6.191
 3179POPC   C2B41276  37.205  30.407   6.616
 3179POPC   C3B41277  37.384  30.405   7.042
 3179POPC   C4B41278  37.846  30.452   7.154
 3180POPC   NC341279  22.275  30.258   5.338
 3180POPC   PO441280  21.879  29.742   5.357
 3180POPC   GL141281  22.096  29.923   5.690
 3180POPC   GL241282  21.911  30.218   5.720
 3180POPC   C1A41283  22.021  29.883   6.125
 3180POPC   D2A41284  22.057  30.019   6.528
 3180POPC   C3A41285  21.908  29.755   6.861
 3180POPC   C4A41286  22.182  29.966   7.164
 3180POPC   C1B41287  21.656  30.232   6.097
 3180POPC   C2B41288  21.688  30.385   6.521
 3180POPC   C3B41289  21.844  30.263   6.922
 3180POPC   C4B41290  21.658  29.967   7.233
 3181POPC   NC341291  24.328  17.983   5.343
 3181POPC   PO441292  24.852  18.274   5.091
 3181POPC   GL141293  24.734  18.308   5.580
 3181POPC   GL241294  24.418  18.184   5.816
 3181POPC   C1A41295  24.850  18.350   6.031
 3181POPC   D2A41296  24.596  18.540   6.358
 3181POPC   C3A41297  24.657  18.503   6.804
 3181POPC   C4A41298  24.664  18.247   7.172
 3181POPC   C1B41299  24.179  18.032   6.223
 3181POPC   C2B41300  24.277  17.943   6.687
 3181POPC   C3B41301  24.058  17.843   7.076
 3181POPC   C4B41302  24.154  18.044   7.482
 3182POPC   NC341303   0.470  30.645   5.304
 3182POPC   PO441304   0.344  31.283   5.137
 3182POPC   GL141305   0.481  31.050   5.591
 3182POPC   GL241306   0.212  30.824   5.706
 3182POPC   C1A41307   0.598  30.852   6.045
 3182POPC   D2A41308   0.572  30.569   6.441
 3182POPC   C3A41309   0.695  30.627   6.894
 3182POPC   C4A41310   0.465  30.506   7.282
 3182POPC   C1B41311   0.236  30.497   6.044
 3182POPC   C2B41312   0.041  30.460   6.457
 3182POPC   C3B41313   0.098  30.505   6.909
 3182POPC   C4B41314  44.896  30.452   7.317
 3183POPC   NC341315  37.264   2.130   5.144
 3183POPC   PO441316  36.656   1.970   5.395
 3183POPC   GL141317  37.010   1.918   5.719
 3183POPC   GL241318  37.295   2.128   5.814
 3183POPC   C1A41319  36.948   2.043   6.170
 3183POPC   D2A41320  37.196   1.980   6.533
 3183POPC   C3A41321  36.975   1.888   6.921
 3183POPC   C4A41322  37.243   1.833   7.253
 3183POPC   C1B41323  37.350   2.409   6.159
 3183POPC   C2B41324  37.196   2.506   6.560
 3183POPC   C3B41325  36.878   2.385   6.875
 3183POPC   C4B41326  37.008   2.315   7.290
 3184POPC   NC341327  14.773  41.253   5.141
 3184POPC   PO441328  14.311  41.215   5.673
 3184POPC   GL141329  14.279  41.570   5.909
 3184POPC   GL241330  14.593  41.783   5.815
 3184POPC   C1A41331  14.046  41.503   6.291
 3184POPC   D2A41332  14.290  41.610   6.630
 3184POPC   C3A41333  14.254  41.449   6.990
 3184POPC   C4A41334  14.562  41.166   7.117
 3184POPC   C1B41335  14.769  41.962   6.189
 3184POPC   C2B41336  14.640  42.045   6.601
 3184POPC   C3B41337  14.630  41.823   6.989
 3184POPC   C4B41338  14.525  41.621   7.382
 3185POPC   NC341339  25.838  44.032   5.396
 3185POPC   PO441340  26.171  43.448   5.260
 3185POPC   GL141341  26.161  43.726   5.669
 3185POPC   GL241342  25.819  43.784   5.822
 3185POPC   C1A41343  26.193  43.804   6.153
 3185POPC   D2A41344  26.146  44.109   6.511
 3185POPC   C3A41345  26.266  44.042   6.939
 3185POPC   C4A41346  26.287  43.686   7.185
 3185POPC   C1B41347  25.687  43.842   6.223
 3185POPC   C2B41348  25.847  43.633   6.562
 3185POPC   C3B41349  25.650  43.625   6.929
 3185POPC   C4B41350  25.717  44.000   7.156
 3186POPC   NC341351  31.299   4.727   4.991
 3186POPC   PO441352  31.631   5.076   5.424
 3186POPC   GL141353  31.492   4.944   5.794
 3186POPC   GL241354  31.134   4.800   5.768
 3186POPC   C1A41355  31.541   5.083   6.211
 3186POPC   D2A41356  31.200   5.086   6.501
 3186POPC   C3A41357  31.275   5.352   6.853
 3186POPC   C4A41358  31.204   5.373   7.273
 3186POPC   C1B41359  31.294   4.633   6.176
 3186POPC   C2B41360  31.546   4.629   6.553
 3186POPC   C3B41361  31.382   4.834   6.907
 3186POPC   C4B41362  31.539   4.997   7.262
 3187POPC   NC341363  22.003  14.206   5.415
 3187POPC   PO441364  22.567  14.602   5.159
 3187POPC   GL141365  22.378  14.608   5.636
 3187POPC   GL241366  22.141  14.421   5.833
 3187POPC   C1A41367  22.458  14.674   6.132
 3187POPC   D2A41368  22.522  14.434   6.531
 3187POPC   C3A41369  22.316  14.526   6.942
 3187POPC   C4A41370  22.365  14.370   7.386
 3187POPC   C1B41371  22.086  14.325   6.270
 3187POPC   C2B41372  22.136  14.126   6.677
 3187POPC   C3B41373  22.012  14.079   7.089
 3187POPC   C4B41374  21.588  14.143   7.235
 3188POPC   NC341375   4.148   1.787   5.481
 3188POPC   PO441376   4.688   2.071   5.387
 3188POPC   GL141377   4.534   2.093   5.763
 3188POPC   GL241378   4.362   2.388   5.715
 3188POPC   C1A41379   4.408   1.982   6.170
 3188POPC   D2A41380   4.334   2.168   6.561
 3188POPC   C3A41381   4.334   1.954   6.953
 3188POPC   C4A41382   4.248   1.992   7.385
 3188POPC   C1B41383   4.168   2.449   6.139
 3188POPC   C2B41384   3.978   2.535   6.533
 3188POPC   C3B41385   4.080   2.410   6.948
 3188POPC   C4B41386   4.064   2.474   7.359
 3189POPC   NC341387  33.686  36.254   5.411
 3189POPC   PO441388  33.711  35.624   5.681
 3189POPC   GL141389  33.783  36.049   5.905
 3189POPC   GL241390  33.700  36.435   5.886
 3189POPC   C1A41391  33.616  36.191   6.322
 3189POPC   D2A41392  33.406  36.256   6.727
 3189POPC   C3A41393  33.739  36.208   7.057
 3189POPC   C4A41394  33.882  35.793   7.207
 3189POPC   C1B41395  33.961  36.591   6.245
 3189POPC   C2B41396  34.128  36.444   6.676
 3189POPC   C3B41397  34.051  36.644   7.089
 3189POPC   C4B41398  33.734  36.614   7.425
 3190POPC   NC341399  26.251  28.485   5.571
 3190POPC   PO441400  25.632  28.463   5.509
 3190POPC   GL141401  25.782  28.654   5.881
 3190POPC   GL241402  25.923  28.313   5.969
 3190POPC   C1A41403  26.067  28.698   6.254
 3190POPC   D2A41404  26.237  28.393   6.555
 3190POPC   C3A41405  26.302  28.496   6.994
 3190POPC   C4A41406  25.959  28.438   7.295
 3190POPC   C1B41407  26.310  28.076   6.118
 3190POPC   C2B41408  26.586  28.019   6.486
 3190POPC   C3B41409  26.479  28.002   6.920
 3190POPC   C4B41410  26.449  28.062   7.368
 3191POPC   NC341411  20.623  42.210   5.463
 3191POPC   PO441412  20.258  42.772   5.415
 3191POPC   GL141413  20.481  42.631   5.763
 3191POPC   GL241414  20.801  42.516   5.832
 3191POPC   C1A41415  20.388  42.350   6.123
 3191POPC   D2A41416  20.234  42.249   6.558
 3191POPC   C3A41417  20.475  42.400   6.899
 3191POPC   C4A41418  20.557  42.535   7.331
 3191POPC   C1B41419  20.895  42.377   6.241
 3191POPC   C2B41420  20.905  42.185   6.633
 3191POPC   C3B41421  20.914  42.261   7.075
 3191POPC   C4B41422  20.911  42.115   7.516
 3192POPC   NC341423  23.744  21.743   5.378
 3192POPC   PO441424  23.885  21.009   5.504
 3192POPC   GL141425  23.801  21.351   5.727
 3192POPC   GL241426  23.582  21.162   5.977
 3192POPC   C1A41427  23.812  21.592   6.084
 3192POPC   D2A41428  23.599  21.478   6.450
 3192POPC   C3A41429  23.582  21.771   6.758
 3192POPC   C4A41430  23.702  21.676   7.173
 3192POPC   C1B41431  23.947  21.121   6.295
 3192POPC   C2B41432  23.973  21.213   6.760
 3192POPC   C3B41433  23.976  21.209   7.231
 3192POPC   C4B41434  24.091  21.057   7.686
 3193POPC   NC341435  42.838  15.388   5.410
 3193POPC   PO441436  43.418  15.008   5.327
 3193POPC   GL141437  43.186  15.154   5.711
 3193POPC   GL241438  42.929  14.912   5.791
 3193POPC   C1A41439  43.095  15.227   6.164
 3193POPC   D2A41440  43.253  15.221   6.594
 3193POPC   C3A41441  43.098  15.334   6.997
 3193POPC   C4A41442  43.256  15.378   7.419
 3193POPC   C1B41443  42.750  14.831   6.161
 3193POPC   C2B41444  42.813  14.979   6.579
 3193POPC   C3B41445  42.942  14.821   6.960
 3193POPC   C4B41446  43.118  14.914   7.323
 3194POPC   NC341447  12.345  13.914   5.496
 3194POPC   PO441448  11.947  14.485   5.362
 3194POPC   GL141449  11.968  14.447   5.784
 3194POPC   GL241450  11.929  14.106   5.780
 3194POPC   C1A41451  12.135  14.645   6.158
 3194POPC   D2A41452  12.345  14.559   6.561
 3194POPC   C3A41453  12.074  14.641   6.932
 3194POPC   C4A41454  12.232  14.605   7.365
 3194POPC   C1B41455  12.080  14.143   6.229
 3194POPC   C2B41456  11.980  14.192   6.663
 3194POPC   C3B41457  12.155  14.172   7.073
 3194POPC   C4B41458  11.955  14.205   7.502
 3195POPC   NC341459   9.859   0.299   5.149
 3195POPC   PO441460   9.447   0.791   5.232
 3195POPC   GL141461   9.551   0.582   5.630
 3195POPC   GL241462   9.718   0.255   5.666
 3195POPC   C1A41463   9.520   0.549   6.092
 3195POPC   D2A41464   9.339   0.474   6.483
 3195POPC   C3A41465   9.563   0.557   6.838
 3195POPC   C4A41466   9.712   0.428   7.226
 3195POPC   C1B41467   9.903   0.218   6.100
 3195POPC   C2B41468   9.763   0.194   6.504
 3195POPC   C3B41469   9.879   0.075   6.913
 3195POPC   C4B41470  10.059   0.086   7.372
 3196POPC   NC341471  34.108  18.915   5.421
 3196POPC   PO441472  33.421  19.120   5.312
 3196POPC   GL141473  33.666  18.957   5.698
 3196POPC   GL241474  33.889  19.175   5.843
 3196POPC   C1A41475  33.796  18.771   6.144
 3196POPC   D2A41476  33.628  18.956   6.542
 3196POPC   C3A41477  33.761  18.993   6.955
 3196POPC   C4A41478  33.871  18.810   7.362
 3196POPC   C1B41479  34.160  19.093   6.219
 3196POPC   C2B41480  34.135  18.823   6.600
 3196POPC   C3B41481  34.268  18.976   7.001
 3196POPC   C4B41482  34.106  19.236   7.277
 3197POPC   NC341483  37.739  15.833   5.312
 3197POPC   PO441484  37.117  16.039   5.149
 3197POPC   GL141485  37.391  16.107   5.619
 3197POPC   GL241486  37.661  15.796   5.801
 3197POPC   C1A41487  37.358  16.018   6.112
 3197POPC   D2A41488  37.663  15.971   6.486
 3197POPC   C3A41489  37.597  16.023   6.961
 3197POPC   C4A41490  37.404  16.326   7.269
 3197POPC   C1B41491  37.951  15.612   6.145
 3197POPC   C2B41492  38.073  15.704   6.604
 3197POPC   C3B41493  38.103  15.678   7.062
 3197POPC   C4B41494  38.071  15.751   7.510
 3198POPC   NC341495   7.038  19.403   5.398
 3198POPC   PO441496   7.103  18.773   5.573
 3198POPC   GL141497   7.235  19.128   5.822
 3198POPC   GL241498   7.568  19.156   5.855
 3198POPC   C1A41499   7.210  19.169   6.274
 3198POPC   D2A41500   7.351  18.995   6.637
 3198POPC   C3A41501   7.223  19.169   7.020
 3198POPC   C4A41502   7.247  18.898   7.368
 3198POPC   C1B41503   7.764  19.211   6.244
 3198POPC   C2B41504   7.651  19.425   6.609
 3198POPC   C3B41505   7.786  19.477   7.019
 3198POPC   C4B41506   7.628  19.312   7.381
 3199POPC   NC341507   7.155  42.628   5.482
 3199POPC   PO441508   7.711  42.965   5.484
 3199POPC   GL141509   7.294  43.078   5.743
 3199POPC   GL241510   7.174  43.455   5.753
 3199POPC   C1A41511   7.122  43.045   6.183
 3199POPC   D2A41512   7.306  43.193   6.598
 3199POPC   C3A41513   7.447  42.936   6.944
 3199POPC   C4A41514   7.150  42.668   7.146
 3199POPC   C1B41515   7.412  43.478   6.148
 3199POPC   C2B41516   7.581  43.631   6.531
 3199POPC   C3B41517   7.597  43.461   6.942
 3199POPC   C4B41518   7.241  43.390   7.171
 3200POPC   NC341519  35.839  21.673   5.103
 3200POPC   PO441520  36.317  21.340   5.322
 3200POPC   GL141521  36.135  21.212   5.680
 3200POPC   GL241522  36.230  21.545   5.816
 3200POPC   C1A41523  35.969  21.196   6.089
 3200POPC   D2A41524  36.286  21.129   6.409
 3200POPC   C3A41525  36.289  21.227   6.833
 3200POPC   C4A41526  36.130  21.185   7.221
 3200POPC   C1B41527  36.159  21.642   6.259
 3200POPC   C2B41528  35.875  21.444   6.560
 3200POPC   C3B41529  35.893  21.579   6.973
 3200POPC   C4B41530  36.322  21.678   7.168
 3201POPC   NC341531  12.361  16.278   5.659
 3201POPC   PO441532  12.130  16.779   5.277
 3201POPC   GL141533  11.909  16.688   5.723
 3201POPC   GL241534  11.821  17.003   5.841
 3201POPC   C1A41535  11.791  16.624   6.204
 3201POPC   D2A41536  11.962  16.358   6.577
 3201POPC   C3A41537  12.028  16.502   7.003
 3201POPC   C4A41538  11.846  16.436   7.423
 3201POPC   C1B41539  12.008  17.083   6.225
 3201POPC   C2B41540  11.994  16.896   6.614
 3201POPC   C3B41541  12.053  17.050   6.999
 3201POPC   C4B41542  12.144  16.853   7.370
 3202POPC   NC341543  17.196  37.136   5.424
 3202POPC   PO441544  17.738  36.692   5.493
 3202POPC   GL141545  17.580  36.874   5.901
 3202POPC   GL241546  17.353  37.193   5.906
 3202POPC   C1A41547  17.600  37.015   6.354
 3202POPC   D2A41548  17.837  37.271   6.644
 3202POPC   C3A41549  17.838  37.123   7.064
 3202POPC   C4A41550  17.577  36.812   7.254
 3202POPC   C1B41551  16.978  37.326   6.173
 3202POPC   C2B41552  17.018  37.498   6.609
 3202POPC   C3B41553  17.372  37.374   6.894
 3202POPC   C4B41554  17.424  37.305   7.335
 3203POPC   NC341555  18.227  17.079   5.276
 3203POPC   PO441556  18.284  16.500   5.614
 3203POPC   GL141557  18.436  16.894   5.751
 3203POPC   GL241558  18.110  17.014   5.846
 3203POPC   C1A41559  18.488  16.844   6.198
 3203POPC   D2A41560  18.426  16.427   6.474
 3203POPC   C3A41561  18.391  16.400   6.938
 3203POPC   C4A41562  18.464  16.814   7.100
 3203POPC   C1B41563  18.011  16.702   6.235
 3203POPC   C2B41564  18.131  16.791   6.695
 3203POPC   C3B41565  17.983  16.998   7.097
 3203POPC   C4B41566  17.815  16.985   7.534
 3204POPC   NC341567   7.674  25.194   5.553
 3204POPC   PO441568   7.252  25.640   5.462
 3204POPC   GL141569   7.252  25.376   5.851
 3204POPC   GL241570   7.134  25.008   5.899
 3204POPC   C1A41571   7.518  25.190   6.193
 3204POPC   D2A41572   7.417  25.087   6.596
 3204POPC   C3A41573   7.623  25.226   6.910
 3204POPC   C4A41574   7.403  25.281   7.294
 3204POPC   C1B41575   7.256  24.714   6.255
 3204POPC   C2B41576   7.407  24.596   6.690
 3204POPC   C3B41577   7.440  24.798   7.109
 3204POPC   C4B41578   7.556  24.858   7.543
 3205POPC   NC341579  22.155  43.547   5.511
 3205POPC   PO441580  21.911  44.224   5.384
 3205POPC   GL141581  21.979  43.964   5.778
 3205POPC   GL241582  21.800  43.618   5.853
 3205POPC   C1A41583  22.083  43.988   6.218
 3205POPC   D2A41584  22.307  44.105   6.576
 3205POPC   C3A41585  22.150  43.963   6.970
 3205POPC   C4A41586  22.308  43.939   7.361
 3205POPC   C1B41587  22.106  43.478   6.190
 3205POPC   C2B41588  22.120  43.577   6.640
 3205POPC   C3B41589  22.378  43.476   7.028
 3205POPC   C4B41590  22.631  43.559   7.394
 3206POPC   NC341591  36.626  26.291   5.420
 3206POPC   PO441592  37.223  25.975   5.354
 3206POPC   GL141593  37.309  25.910   5.761
 3206POPC   GL241594  36.938  25.920   5.803
 3206POPC   C1A41595  37.268  25.784   6.184
 3206POPC   D2A41596  37.130  25.697   6.600
 3206POPC   C3A41597  36.933  25.980   6.885
 3206POPC   C4A41598  37.159  26.009   7.251
 3206POPC   C1B41599  36.630  26.104   6.050
 3206POPC   C2B41600  36.583  26.137   6.471
 3206POPC   C3B41601  36.624  26.429   6.792
 3206POPC   C4B41602  36.614  26.294   7.217
 3207POPC   NC341603   6.119  33.405   5.570
 3207POPC   PO441604   5.847  32.925   5.134
 3207POPC   GL141605   6.007  32.889   5.616
 3207POPC   GL241606   6.354  32.972   5.753
 3207POPC   C1A41607   6.042  32.674   6.035
 3207POPC   D2A41608   5.927  32.764   6.467
 3207POPC   C3A41609   6.067  32.791   6.873
 3207POPC   C4A41610   5.921  32.973   7.235
 3207POPC   C1B41611   6.195  33.163   6.177
 3207POPC   C2B41612   6.101  33.271   6.633
 3207POPC   C3B41613   6.258  33.325   7.068
 3207POPC   C4B41614   6.241  33.240   7.553
 3208POPC   NC341615  27.955   9.796   5.456
 3208POPC   PO441616  27.312   9.585   5.536
 3208POPC   GL141617  27.593   9.707   5.834
 3208POPC   GL241618  27.861   9.447   5.819
 3208POPC   C1A41619  27.540   9.966   6.197
 3208POPC   D2A41620  27.328   9.949   6.597
 3208POPC   C3A41621  27.467  10.015   7.021
 3208POPC   C4A41622  27.354   9.649   7.172
 3208POPC   C1B41623  27.991   9.750   6.152
 3208POPC   C2B41624  27.836   9.749   6.557
 3208POPC   C3B41625  27.927   9.831   6.956
 3208POPC   C4B41626  27.847   9.629   7.328
 3209POPC   NC341627   0.720  17.463   5.443
 3209POPC   PO441628   0.057  17.668   5.576
 3209POPC   GL141629   0.320  17.429   5.862
 3209POPC   GL241630   0.692  17.422   5.934
 3209POPC   C1A41631   0.336  17.423   6.327
 3209POPC   D2A41632   0.042  17.316   6.702
 3209POPC   C3A41633   0.195  17.426   7.110
 3209POPC   C4A41634   0.414  17.792   7.111
 3209POPC   C1B41635   0.864  17.604   6.293
 3209POPC   C2B41636   0.685  17.654   6.681
 3209POPC   C3B41637   0.710  17.374   7.032
 3209POPC   C4B41638   1.002  17.355   7.360
 3210POPC   NC341639  41.298  43.660   5.128
 3210POPC   PO441640  40.568  43.686   5.215
 3210POPC   GL141641  40.832  43.672   5.558
 3210POPC   GL241642  40.850  44.011   5.718
 3210POPC   C1A41643  40.867  43.600   6.009
 3210POPC   D2A41644  40.872  43.859   6.375
 3210POPC   C3A41645  40.728  43.721   6.752
 3210POPC   C4A41646  40.786  43.808   7.184
 3210POPC   C1B41647  41.206  44.091   6.087
 3210POPC   C2B41648  41.346  44.164   6.514
 3210POPC   C3B41649  41.145  44.062   6.905
 3210POPC   C4B41650  40.955  44.291   7.278
 3211POPC   NC341651  37.822  24.902   5.476
 3211POPC   PO441652  37.539  24.253   5.382
 3211POPC   GL141653  37.531  24.590   5.742
 3211POPC   GL241654  37.857  24.618   5.918
 3211POPC   C1A41655  37.508  24.876   6.170
 3211POPC   D2A41656  37.393  24.701   6.565
 3211POPC   C3A41657  37.626  24.533   6.910
 3211POPC   C4A41658  37.325  24.614   7.263
 3211POPC   C1B41659  37.558  24.363   6.195
 3211POPC   C2B41660  37.486  24.131   6.574
 3211POPC   C3B41661  37.246  24.166   6.934
 3211POPC   C4B41662  37.498  24.145   7.275
 3212POPC   NC341663  24.216  30.740   5.492
 3212POPC   PO441664  24.861  30.986   5.449
 3212POPC   GL141665  24.672  30.817   5.787
 3212POPC   GL241666  24.552  30.482   5.792
 3212POPC   C1A41667  24.633  30.790   6.215
 3212POPC   D2A41668  24.589  30.631   6.631
 3212POPC   C3A41669  24.535  30.951   6.891
 3212POPC   C4A41670  24.659  31.034   7.283
 3212POPC   C1B41671  24.206  30.517   6.134
 3212POPC   C2B41672  24.158  30.375   6.577
 3212POPC   C3B41673  24.184  30.556   7.000
 3212POPC   C4B41674  24.212  30.531   7.471
 3213POPC   NC341675  42.056  19.109   5.591
 3213POPC   PO441676  42.586  18.742   5.412
 3213POPC   GL141677  42.504  18.949   5.815
 3213POPC   GL241678  42.504  19.316   5.764
 3213POPC   C1A41679  42.374  18.986   6.256
 3213POPC   D2A41680  42.521  18.900   6.672
 3213POPC   C3A41681  42.210  18.999   6.983
 3213POPC   C4A41682  42.022  19.327   7.231
 3213POPC   C1B41683  42.542  19.464   6.171
 3213POPC   C2B41684  42.658  19.412   6.557
 3213POPC   C3B41685  42.603  19.329   6.986
 3213POPC   C4B41686  42.929  19.328   7.293
 3214POPC   NC341687   9.871  33.341   5.538
 3214POPC   PO441688   9.620  32.777   5.386
 3214POPC   GL141689   9.554  32.925   5.812
 3214POPC   GL241690   9.396  33.248   5.865
 3214POPC   C1A41691   9.734  33.085   6.212
 3214POPC   D2A41692  10.087  32.992   6.497
 3214POPC   C3A41693   9.937  33.006   6.905
 3214POPC   C4A41694   9.858  33.052   7.367
 3214POPC   C1B41695   9.443  33.552   6.180
 3214POPC   C2B41696   9.303  33.415   6.571
 3214POPC   C3B41697   9.509  33.285   6.931
 3214POPC   C4B41698   9.388  33.250   7.333
 3215POPC   NC341699   9.840  42.523   5.569
 3215POPC   PO441700   9.665  42.005   5.253
 3215POPC   GL141701   9.668  42.105   5.798
 3215POPC   GL241702   9.530  42.437   5.958
 3215POPC   C1A41703   9.689  42.090   6.296
 3215POPC   D2A41704   9.907  42.288   6.692
 3215POPC   C3A41705   9.867  42.100   7.081
 3215POPC   C4A41706   9.478  41.956   7.175
 3215POPC   C1B41707   9.803  42.597   6.270
 3215POPC   C2B41708   9.612  42.700   6.642
 3215POPC   C3B41709   9.606  42.558   7.057
 3215POPC   C4B41710   9.979  42.592   7.238
 3216POPC   NC341711  11.865  23.524   5.352
 3216POPC   PO441712  12.456  23.893   5.325
 3216POPC   GL141713  12.164  23.768   5.716
 3216POPC   GL241714  11.770  23.789   5.783
 3216POPC   C1A41715  12.050  23.835   6.191
 3216POPC   D2A41716  12.131  23.970   6.600
 3216POPC   C3A41717  12.122  23.737   6.931
 3216POPC   C4A41718  11.916  23.944   7.258
 3216POPC   C1B41719  11.695  23.454   6.140
 3216POPC   C2B41720  11.806  23.328   6.591
 3216POPC   C3B41721  11.691  23.512   7.002
 3216POPC   C4B41722  11.760  23.395   7.438
 3217POPC   NC341723  14.479  37.241   5.435
 3217POPC   PO441724  14.210  36.502   5.490
 3217POPC   GL141725  14.473  36.776   5.739
 3217POPC   GL241726  14.754  36.592   5.880
 3217POPC   C1A41727  14.533  37.027   6.124
 3217POPC   D2A41728  14.359  36.937   6.517
 3217POPC   C3A41729  14.405  37.095   6.902
 3217POPC   C4A41730  14.259  37.097   7.318
 3217POPC   C1B41731  14.433  36.519   6.216
 3217POPC   C2B41732  14.638  36.549   6.641
 3217POPC   C3B41733  14.530  36.653   7.078
 3217POPC   C4B41734  14.424  36.536   7.481
 3218POPC   NC341735  31.195  36.259   5.080
 3218POPC   PO441736  31.726  36.415   5.539
 3218POPC   GL141737  31.515  36.177   5.846
 3218POPC   GL241738  31.162  36.068   5.769
 3218POPC   C1A41739  31.655  36.023   6.224
 3218POPC   D2A41740  31.536  35.779   6.560
 3218POPC   C3A41741  31.608  36.017   6.931
 3218POPC   C4A41742  31.658  36.222   7.275
 3218POPC   C1B41743  31.143  36.123   6.228
 3218POPC   C2B41744  31.144  36.075   6.699
 3218POPC   C3B41745  31.114  36.051   7.145
 3218POPC   C4B41746  31.211  36.239   7.502
 3219POPC   NC341747   3.205  17.223   5.455
 3219POPC   PO441748   3.662  17.645   5.249
 3219POPC   GL141749   3.653  17.623   5.752
 3219POPC   GL241750   3.417  17.330   5.903
 3219POPC   C1A41751   3.493  17.798   6.172
 3219POPC   D2A41752   3.338  17.632   6.560
 3219POPC   C3A41753   3.552  17.657   6.980
 3219POPC   C4A41754   3.554  17.785   7.428
 3219POPC   C1B41755   3.684  17.327   6.236
 3219POPC   C2B41756   3.656  17.254   6.659
 3219POPC   C3B41757   3.751  17.162   7.045
 3219POPC   C4B41758   4.068  17.057   7.340
 3220POPC   NC341759   3.844   8.963   5.354
 3220POPC   PO441760   3.185   9.278   5.313
 3220POPC   GL141761   3.359   9.034   5.656
 3220POPC   GL241762   3.364   8.688   5.714
 3220POPC   C1A41763   3.438   9.070   6.104
 3220POPC   D2A41764   3.393   9.316   6.494
 3220POPC   C3A41765   3.578   9.139   6.850
 3220POPC   C4A41766   3.779   9.079   7.241
 3220POPC   C1B41767   3.569   8.567   6.150
 3220POPC   C2B41768   3.698   8.670   6.608
 3220POPC   C3B41769   3.516   8.662   7.027
 3220POPC   C4B41770   3.250   8.929   7.250
 3221POPC   NC341771  12.329  33.280   5.177
 3221POPC   PO441772  11.892  32.824   5.399
 3221POPC   GL141773  11.937  33.109   5.734
 3221POPC   GL241774  12.299  33.025   5.781
 3221POPC   C1A41775  11.958  33.071   6.206
 3221POPC   D2A41776  12.068  32.900   6.660
 3221POPC   C3A41777  11.830  32.965   7.085
 3221POPC   C4A41778  11.836  33.062   7.545
 3221POPC   C1B41779  12.462  33.190   6.201
 3221POPC   C2B41780  12.516  33.323   6.643
 3221POPC   C3B41781  12.278  33.236   7.021
 3221POPC   C4B41782  12.292  32.861   7.308
 3222POPC   NC341783  22.412  22.375   5.510
 3222POPC   PO441784  21.790  22.088   5.376
 3222POPC   GL141785  21.993  22.206   5.779
 3222POPC   GL241786  22.279  22.011   5.887
 3222POPC   C1A41787  22.070  22.286   6.254
 3222POPC   D2A41788  22.076  22.085   6.695
 3222POPC   C3A41789  22.062  22.226   7.147
 3222POPC   C4A41790  21.948  22.120   7.562
 3222POPC   C1B41791  22.529  21.792   6.178
 3222POPC   C2B41792  22.597  21.976   6.579
 3222POPC   C3B41793  22.472  21.884   7.011
 3222POPC   C4B41794  22.440  21.987   7.447
 3223POPC   NC341795  39.823   0.721   5.392
 3223POPC   PO441796  39.874   0.012   5.318
 3223POPC   GL141797  40.114   0.269   5.635
 3223POPC   GL241798  40.298   0.564   5.617
 3223POPC   C1A41799  40.138   0.197   6.070
 3223POPC   D2A41800  40.034   0.366   6.475
 3223POPC   C3A41801  40.215   0.258   6.875
 3223POPC   C4A41802  40.012   0.367   7.286
 3223POPC   C1B41803  40.383   0.694   6.052
 3223POPC   C2B41804  40.371   0.769   6.507
 3223POPC   C3B41805  40.176   0.772   6.941
 3223POPC   C4B41806  40.221   1.097   7.234
 3224POPC   NC341807  30.298  26.306   5.380
 3224POPC   PO441808  29.847  25.745   5.498
 3224POPC   GL141809  30.016  25.973   5.844
 3224POPC   GL241810  29.774  26.223   5.781
 3224POPC   C1A41811  30.075  25.897   6.303
 3224POPC   D2A41812  30.241  25.799   6.726
 3224POPC   C3A41813  30.048  25.960   7.108
 3224POPC   C4A41814  30.084  25.809   7.556
 3224POPC   C1B41815  29.614  26.071   6.205
 3224POPC   C2B41816  29.708  26.023   6.668
 3224POPC   C3B41817  29.575  26.149   7.086
 3224POPC   C4B41818  29.805  26.278   7.462
 3225POPC   NC341819  41.095  12.495   5.495
 3225POPC   PO441820  40.787  13.142   5.450
 3225POPC   GL141821  40.905  12.989   5.845
 3225POPC   GL241822  40.599  13.195   5.934
 3225POPC   C1A41823  41.133  12.741   6.212
 3225POPC   D2A41824  41.177  12.500   6.622
 3225POPC   C3A41825  41.120  12.753   6.972
 3225POPC   C4A41826  40.923  12.737   7.342
 3225POPC   C1B41827  40.604  12.823   6.207
 3225POPC   C2B41828  40.745  12.803   6.614
 3225POPC   C3B41829  40.542  12.767   7.007
 3225POPC   C4B41830  40.618  13.124   7.253
 3226POPC   NC341831  26.700  29.338   5.149
 3226POPC   PO441832  26.486  28.887   5.583
 3226POPC   GL141833  26.621  29.003   5.960
 3226POPC   GL241834  26.894  29.127   5.831
 3226POPC   C1A41835  26.745  29.300   6.281
 3226POPC   D2A41836  26.551  29.269   6.678
 3226POPC   C3A41837  26.823  29.218   7.027
 3226POPC   C4A41838  26.755  28.809   7.211
 3226POPC   C1B41839  27.032  28.854   6.188
 3226POPC   C2B41840  27.074  29.069   6.594
 3226POPC   C3B41841  27.221  28.923   6.983
 3226POPC   C4B41842  27.261  28.777   7.365
 3227POPC   NC341843   3.017  27.948   5.539
 3227POPC   PO441844   2.766  28.574   5.408
 3227POPC   GL141845   2.774  28.384   5.818
 3227POPC   GL241846   3.094  28.253   5.943
 3227POPC   C1A41847   2.682  28.414   6.270
 3227POPC   D2A41848   2.926  28.369   6.664
 3227POPC   C3A41849   2.729  28.411   7.074
 3227POPC   C4A41850   2.534  28.421   7.431
 3227POPC   C1B41851   3.153  27.882   6.196
 3227POPC   C2B41852   3.187  27.927   6.633
 3227POPC   C3B41853   3.059  28.018   7.042
 3227POPC   C4B41854   2.950  28.131   7.449
 3228POPC   NC341855   9.615   3.956   5.379
 3228POPC   PO441856  10.036   4.551   5.514
 3228POPC   GL141857   9.965   4.203   5.789
 3228POPC   GL241858   9.625   4.232   5.804
 3228POPC   C1A41859   9.977   4.018   6.220
 3228POPC   D2A41860   9.985   4.290   6.592
 3228POPC   C3A41861   9.812   4.223   7.011
 3228POPC   C4A41862   9.838   4.009   7.388
 3228POPC   C1B41863   9.684   4.453   6.189
 3228POPC   C2B41864   9.520   4.518   6.582
 3228POPC   C3B41865   9.654   4.693   6.947
 3228POPC   C4B41866   9.642   4.651   7.392
 3229POPC   NC341867  13.796  28.732   5.189
 3229POPC   PO441868  13.950  29.419   5.333
 3229POPC   GL141869  13.905  29.194   5.792
 3229POPC   GL241870  13.579  28.931   5.770
 3229POPC   C1A41871  13.840  28.995   6.209
 3229POPC   D2A41872  13.861  29.215   6.594
 3229POPC   C3A41873  13.780  29.072   7.003
 3229POPC   C4A41874  13.563  29.396   7.244
 3229POPC   C1B41875  13.310  28.942   6.138
 3229POPC   C2B41876  13.415  28.939   6.581
 3229POPC   C3B41877  13.280  28.937   7.018
 3229POPC   C4B41878  13.142  28.625   7.283
 3230POPC   NC341879   4.941  36.393   5.536
 3230POPC   PO441880   5.180  35.847   5.340
 3230POPC   GL141881   5.342  36.106   5.689
 3230POPC   GL241882   5.055  35.961   5.870
 3230POPC   C1A41883   5.414  36.317   6.091
 3230POPC   D2A41884   5.274  36.140   6.475
 3230POPC   C3A41885   5.301  36.307   6.875
 3230POPC   C4A41886   5.278  35.961   7.141
 3230POPC   C1B41887   4.883  36.255   6.173
 3230POPC   C2B41888   4.802  36.374   6.607
 3230POPC   C3B41889   4.799  36.194   7.019
 3230POPC   C4B41890   5.034  36.362   7.341
 3231POPC   NC341891  20.109  26.049   5.340
 3231POPC   PO441892  19.523  26.386   5.540
 3231POPC   GL141893  19.874  26.236   5.769
 3231POPC   GL241894  20.086  25.925   5.849
 3231POPC   C1A41895  19.759  26.153   6.183
 3231POPC   D2A41896  19.901  25.957   6.539
 3231POPC   C3A41897  19.712  26.131   6.894
 3231POPC   C4A41898  19.483  25.925   7.186
 3231POPC   C1B41899  20.265  26.166   6.199
 3231POPC   C2B41900  20.399  26.224   6.621
 3231POPC   C3B41901  20.217  26.035   6.935
 3231POPC   C4B41902  20.001  26.004   7.301
 3232POPC   NC341903  19.831  29.982   5.280
 3232POPC   PO441904  20.366  29.737   5.355
 3232POPC   GL141905  20.007  29.792   5.708
 3232POPC   GL241906  19.781  30.139   5.757
 3232POPC   C1A41907  20.039  29.946   6.134
 3232POPC   D2A41908  19.797  29.871   6.462
 3232POPC   C3A41909  19.960  29.936   6.822
 3232POPC   C4A41910  19.806  30.047   7.175
 3232POPC   C1B41911  19.653  30.281   6.192
 3232POPC   C2B41912  19.642  30.319   6.651
 3232POPC   C3B41913  19.458  30.419   7.036
 3232POPC   C4B41914  19.658  30.448   7.429
 3233POPC   NC341915  21.156  27.851   5.501
 3233POPC   PO441916  21.629  27.269   5.549
 3233POPC   GL141917  21.463  27.580   5.826
 3233POPC   GL241918  21.645  27.898   5.698
 3233POPC   C1A41919  21.130  27.599   6.187
 3233POPC   D2A41920  20.949  27.629   6.631
 3233POPC   C3A41921  21.254  27.514   6.946
 3233POPC   C4A41922  21.609  27.425   7.216
 3233POPC   C1B41923  21.435  28.003   6.100
 3233POPC   C2B41924  21.514  27.790   6.490
 3233POPC   C3B41925  21.660  27.894   6.890
 3233POPC   C4B41926  21.387  27.950   7.214
 3234POPC   NC341927   6.029  40.952   5.204
 3234POPC   PO441928   6.666  40.669   5.439
 3234POPC   GL141929   6.559  40.789   5.851
 3234POPC   GL241930   6.712  41.086   5.886
 3234POPC   C1A41931   6.740  40.656   6.246
 3234POPC   D2A41932   6.984  40.683   6.618
 3234POPC   C3A41933   6.716  40.781   6.972
 3234POPC   C4A41934   6.635  40.669   7.401
 3234POPC   C1B41935   6.607  41.147   6.313
 3234POPC   C2B41936   6.899  41.210   6.669
 3234POPC   C3B41937   7.010  41.201   7.100
 3234POPC   C4B41938   6.674  41.183   7.399
 3235POPC   NC341939  34.354  43.209   5.668
 3235POPC   PO441940  34.892  43.001   5.285
 3235POPC   GL141941  34.819  43.018   5.816
 3235POPC   GL241942  34.473  42.918   6.049
 3235POPC   C1A41943  34.910  42.812   6.263
 3235POPC   D2A41944  34.661  42.745   6.651
 3235POPC   C3A41945  34.729  42.940   7.055
 3235POPC   C4A41946  34.591  42.980   7.502
 3235POPC   C1B41947  34.244  43.269   6.299
 3235POPC   C2B41948  34.319  43.363   6.710
 3235POPC   C3B41949  34.324  43.238   7.107
 3235POPC   C4B41950  34.652  43.455   7.251
 3236POPC   NC341951  34.178  29.002   5.469
 3236POPC   PO441952  33.513  29.042   5.337
 3236POPC   GL141953  33.706  29.283   5.674
 3236POPC   GL241954  33.817  28.974   5.829
 3236POPC   C1A41955  33.642  29.416   6.115
 3236POPC   D2A41956  33.767  29.304   6.542
 3236POPC   C3A41957  33.725  29.486   6.942
 3236POPC   C4A41958  33.594  29.292   7.351
 3236POPC   C1B41959  34.026  29.011   6.213
 3236POPC   C2B41960  34.014  28.838   6.627
 3236POPC   C3B41961  33.884  29.007   7.011
 3236POPC   C4B41962  34.102  29.327   7.254
 3237POPC   NC341963  24.957  20.638   5.338
 3237POPC   PO441964  25.616  20.657   5.600
 3237POPC   GL141965  25.248  20.448   5.790
 3237POPC   GL241966  25.001  20.720   5.836
 3237POPC   C1A41967  25.247  20.268   6.226
 3237POPC   D2A41968  25.272  20.330   6.700
 3237POPC   C3A41969  25.560  20.656   6.943
 3237POPC   C4A41970  25.448  21.005   7.262
 3237POPC   C1B41971  25.090  20.808   6.253
 3237POPC   C2B41972  24.903  20.953   6.642
 3237POPC   C3B41973  25.076  20.786   6.993
 3237POPC   C4B41974  25.158  20.496   7.327
 3238POPC   NC341975  13.602  27.314   5.410
 3238POPC   PO441976  13.517  27.930   5.386
 3238POPC   GL141977  13.543  27.705   5.767
 3238POPC   GL241978  13.844  27.508   5.823
 3238POPC   C1A41979  13.640  27.855   6.177
 3238POPC   D2A41980  13.526  27.728   6.568
 3238POPC   C3A41981  13.746  27.789   6.937
 3238POPC   C4A41982  13.647  27.889   7.319
 3238POPC   C1B41983  13.720  27.357   6.234
 3238POPC   C2B41984  13.896  27.382   6.676
 3238POPC   C3B41985  13.626  27.306   7.060
 3238POPC   C4B41986  13.660  27.164   7.524
 3239POPC   NC341987  25.810   1.557   5.398
 3239POPC   PO441988  26.237   0.994   5.360
 3239POPC   GL141989  26.051   1.203   5.717
 3239POPC   GL241990  26.204   1.529   5.736
 3239POPC   C1A41991  25.863   1.359   6.111
 3239POPC   D2A41992  25.955   1.171   6.521
 3239POPC   C3A41993  25.779   1.321   6.928
 3239POPC   C4A41994  25.864   1.398   7.355
 3239POPC   C1B41995  26.368   1.377   6.123
 3239POPC   C2B41996  26.368   1.511   6.528
 3239POPC   C3B41997  26.307   1.283   6.873
 3239POPC   C4B41998  26.382   1.426   7.249
 3240POPC   NC341999   1.345  39.000   5.283
 3240POPC   PO442000   1.990  39.213   5.292
 3240POPC   GL142001   2.087  39.305   5.718
 3240POPC   GL242002   1.784  39.291   5.898
 3240POPC   C1A42003   2.267  39.268   6.125
 3240POPC   D2A42004   2.029  39.225   6.502
 3240POPC   C3A42005   2.154  39.233   6.889
 3240POPC   C4A42006   1.902  39.514   7.195
 3240POPC   C1B42007   1.809  38.921   6.177
 3240POPC   C2B42008   1.687  38.865   6.629
 3240POPC   C3B42009   1.708  39.062   7.022
 3240POPC   C4B42010   1.688  38.816   7.358
 3241POPC   NC342011  11.721  16.504   5.293
 3241POPC   PO442012  11.461  17.082   5.421
 3241POPC   GL142013  11.376  16.778   5.701
 3241POPC   GL242014  11.088  16.964   5.793
 3241POPC   C1A42015  11.290  16.577   6.095
 3241POPC   D2A42016  11.184  16.605   6.536
 3241POPC   C3A42017  11.536  16.570   6.794
 3241POPC   C4A42018  11.630  16.806   7.155
 3241POPC   C1B42019  10.966  16.969   6.202
 3241POPC   C2B42020  11.027  17.102   6.582
 3241POPC   C3B42021  11.101  16.926   6.970
 3241POPC   C4B42022  10.930  17.101   7.345
 3242POPC   NC342023  28.008  11.421   5.593
 3242POPC   PO442024  28.250  10.888   5.346
 3242POPC   GL142025  28.372  11.047   5.767
 3242POPC   GL242026  28.592  11.342   5.756
 3242POPC   C1A42027  28.232  11.230   6.171
 3242POPC   D2A42028  28.293  11.072   6.569
 3242POPC   C3A42029  28.409  11.291   6.884
 3242POPC   C4A42030  28.571  11.190   7.267
 3242POPC   C1B42031  28.655  11.484   6.193
 3242POPC   C2B42032  28.687  11.655   6.632
 3242POPC   C3B42033  28.851  11.582   7.061
 3242POPC   C4B42034  28.759  11.657   7.502
 3243POPC   NC342035  26.705  30.995   5.436
 3243POPC   PO442036  27.006  30.453   5.488
 3243POPC   GL142037  26.734  30.620   5.821
 3243POPC   GL242038  26.616  30.971   5.949
 3243POPC   C1A42039  26.726  30.612   6.265
 3243POPC   D2A42040  26.948  30.760   6.598
 3243POPC   C3A42041  26.804  30.549   6.943
 3243POPC   C4A42042  27.049  30.442   7.232
 3243POPC   C1B42043  26.563  31.075   6.407
 3243POPC   C2B42044  26.497  30.937   6.806
 3243POPC   C3B42045  26.572  30.889   7.254
 3243POPC   C4B42046  26.494  30.979   7.707
 3244POPC   NC342047  34.879  21.531   5.640
 3244POPC   PO442048  34.380  21.047   5.398
 3244POPC   GL142049  34.512  21.198   5.753
 3244POPC   GL242050  34.363  21.520   5.741
 3244POPC   C1A42051  34.723  21.180   6.179
 3244POPC   D2A42052  34.520  21.145   6.562
 3244POPC   C3A42053  34.704  21.369   6.920
 3244POPC   C4A42054  34.659  21.241   7.329
 3244POPC   C1B42055  34.246  21.343   6.161
 3244POPC   C2B42056  34.037  21.333   6.587
 3244POPC   C3B42057  34.202  21.248   7.006
 3244POPC   C4B42058  34.254  21.577   7.324
 3245POPC   NC342059   3.227  30.306   5.416
 3245POPC   PO442060   3.634  30.835   5.309
 3245POPC   GL142061   3.471  30.912   5.707
 3245POPC   GL242062   3.738  31.117   5.851
 3245POPC   C1A42063   3.421  30.639   6.049
 3245POPC   D2A42064   3.522  30.514   6.463
 3245POPC   C3A42065   3.296  30.684   6.782
 3245POPC   C4A42066   3.504  30.590   7.161
 3245POPC   C1B42067   3.775  30.940   6.305
 3245POPC   C2B42068   3.733  30.928   6.788
 3245POPC   C3B42069   3.925  30.996   7.216
 3245POPC   C4B42070   4.021  30.974   7.701
 3246POPC   NC342071  13.240  26.827   5.599
 3246POPC   PO442072  13.900  26.937   5.433
 3246POPC   GL142073  13.731  26.934   5.853
 3246POPC   GL242074  14.054  27.046   5.940
 3246POPC   C1A42075  13.669  26.617   6.226
 3246POPC   D2A42076  13.891  26.460   6.616
 3246POPC   C3A42077  13.627  26.503   6.988
 3246POPC   C4A42078  13.437  26.860   7.178
 3246POPC   C1B42079  14.004  26.963   6.368
 3246POPC   C2B42080  13.648  26.933   6.636
 3246POPC   C3B42081  13.911  26.915   6.928
 3246POPC   C4B42082  14.056  26.990   7.272
 3247POPC   NC342083  29.506  21.825   5.404
 3247POPC   PO442084  30.247  22.078   5.413
 3247POPC   GL142085  29.891  22.079   5.691
 3247POPC   GL242086  29.882  21.729   5.743
 3247POPC   C1A42087  29.750  22.173   6.127
 3247POPC   D2A42088  29.994  22.404   6.473
 3247POPC   C3A42089  29.887  22.313   6.899
 3247POPC   C4A42090  29.644  22.121   7.190
 3247POPC   C1B42091  30.017  21.749   6.161
 3247POPC   C2B42092  29.868  21.895   6.568
 3247POPC   C3B42093  30.018  21.814   6.979
 3247POPC   C4B42094  29.863  21.711   7.391
 3248POPC   NC342095  21.668  38.250   5.659
 3248POPC   PO442096  20.958  38.506   5.526
 3248POPC   GL142097  21.231  38.488   5.849
 3248POPC   GL242098  21.303  38.141   5.975
 3248POPC   C1A42099  21.178  38.512   6.297
 3248POPC   D2A42100  21.322  38.430   6.735
 3248POPC   C3A42101  21.101  38.627   7.047
 3248POPC   C4A42102  21.207  38.825   7.444
 3248POPC   C1B42103  21.567  38.179   6.346
 3248POPC   C2B42104  21.471  37.944   6.715
 3248POPC   C3B42105  21.446  38.055   7.119
 3248POPC   C4B42106  21.427  38.359   7.403
 3249POPC   NC342107  36.375   1.676   5.086
 3249POPC   PO442108  36.073   1.218   5.519
 3249POPC   GL142109  36.119   1.286   5.920
 3249POPC   GL242110  36.421   1.192   5.919
 3249POPC   C1A42111  36.123   1.192   6.326
 3249POPC   D2A42112  36.035   0.995   6.665
 3249POPC   C3A42113  36.264   1.158   6.986
 3249POPC   C4A42114  36.148   1.327   7.370
 3249POPC   C1B42115  36.521   1.516   6.248
 3249POPC   C2B42116  36.395   1.574   6.680
 3249POPC   C3B42117  36.585   1.539   7.103
 3249POPC   C4B42118  36.557   1.594   7.594
 3250POPC   NC342119  26.412  39.447   5.532
 3250POPC   PO442120  25.902  38.970   5.589
 3250POPC   GL142121  26.059  39.072   5.971
 3250POPC   GL242122  26.172  39.400   5.967
 3250POPC   C1A42123  25.955  39.014   6.395
 3250POPC   D2A42124  25.701  38.900   6.748
 3250POPC   C3A42125  25.896  39.182   7.020
 3250POPC   C4A42126  26.299  39.232   7.222
 3250POPC   C1B42127  25.836  39.503   6.235
 3250POPC   C2B42128  25.943  39.598   6.652
 3250POPC   C3B42129  26.110  39.670   7.052
 3250POPC   C4B42130  26.212  39.676   7.488
 3251POPC   NC342131  20.004   1.743   5.428
 3251POPC   PO442132  19.430   2.143   5.322
 3251POPC   GL142133  19.620   2.037   5.752
 3251POPC   GL242134  19.965   1.976   5.877
 3251POPC   C1A42135  19.583   2.002   6.225
 3251POPC   D2A42136  19.718   2.246   6.600
 3251POPC   C3A42137  19.581   2.124   7.009
 3251POPC   C4A42138  19.652   2.059   7.431
 3251POPC   C1B42139  20.052   1.754   6.261
 3251POPC   C2B42140  20.262   1.834   6.633
 3251POPC   C3B42141  20.075   1.947   7.041
 3251POPC   C4B42142  20.074   1.764   7.463
 3252POPC   NC342143  35.529  20.814   5.512
 3252POPC   PO442144  35.008  20.444   5.199
 3252POPC   GL142145  35.146  20.483   5.660
 3252POPC   GL242146  35.467  20.305   5.753
 3252POPC   C1A42147  35.264  20.705   6.100
 3252POPC   D2A42148  35.415  20.700   6.552
 3252POPC   C3A42149  35.191  20.805   6.959
 3252POPC   C4A42150  35.110  21.021   7.384
 3252POPC   C1B42151  35.625  20.353   6.192
 3252POPC   C2B42152  35.830  20.388   6.632
 3252POPC   C3B42153  35.658  20.348   7.082
 3252POPC   C4B42154  35.335  20.480   7.384
 3253POPC   NC342155  28.109  35.003   5.517
 3253POPC   PO442156  28.617  35.453   5.473
 3253POPC   GL142157  28.647  35.197   5.825
 3253POPC   GL242158  28.304  35.171   5.951
 3253POPC   C1A42159  28.715  35.311   6.257
 3253POPC   D2A42160  28.513  35.207   6.627
 3253POPC   C3A42161  28.367  35.498   6.917
 3253POPC   C4A42162  28.456  35.526   7.370
 3253POPC   C1B42163  28.323  34.878   6.275
 3253POPC   C2B42164  28.192  34.843   6.727
 3253POPC   C3B42165  28.357  35.025   7.110
 3253POPC   C4B42166  28.123  35.085   7.506
 3254POPC   NC342167  20.380  37.301   5.366
 3254POPC   PO442168  20.523  36.641   5.408
 3254POPC   GL142169  20.490  36.906   5.743
 3254POPC   GL242170  20.791  37.093   5.796
 3254POPC   C1A42171  20.339  36.941   6.164
 3254POPC   D2A42172  20.434  36.757   6.552
 3254POPC   C3A42173  20.285  36.723   6.963
 3254POPC   C4A42174  20.621  36.891   7.187
 3254POPC   C1B42175  20.784  37.153   6.280
 3254POPC   C2B42176  20.812  37.135   6.733
 3254POPC   C3B42177  20.999  37.246   7.089
 3254POPC   C4B42178  20.993  37.382   7.500
 3255POPC   NC342179   2.944   2.603   5.152
 3255POPC   PO442180   2.366   2.889   5.331
 3255POPC   GL142181   2.596   2.853   5.715
 3255POPC   GL242182   2.936   2.671   5.696
 3255POPC   C1A42183   2.584   2.842   6.179
 3255POPC   D2A42184   2.370   2.775   6.585
 3255POPC   C3A42185   2.585   2.705   6.989
 3255POPC   C4A42186   2.761   2.850   7.411
 3255POPC   C1B42187   3.052   2.550   6.141
 3255POPC   C2B42188   2.927   2.689   6.558
 3255POPC   C3B42189   3.095   2.637   6.944
 3255POPC   C4B42190   3.258   2.898   7.249
 3256POPC   NC342191  10.177  20.576   5.371
 3256POPC   PO442192   9.537  20.523   5.429
 3256POPC   GL142193   9.841  20.495   5.741
 3256POPC   GL242194   9.931  20.844   5.731
 3256POPC   C1A42195  10.028  20.410   6.141
 3256POPC   D2A42196   9.711  20.441   6.523
 3256POPC   C3A42197   9.908  20.487   6.950
 3256POPC   C4A42198   9.568  20.353   7.253
 3256POPC   C1B42199   9.713  20.814   6.136
 3256POPC   C2B42200   9.602  20.945   6.564
 3256POPC   C3B42201   9.493  20.782   6.944
 3256POPC   C4B42202   9.726  20.841   7.341
 3257POPC   NC342203  21.354  17.139   5.677
 3257POPC   PO442204  21.653  16.574   5.544
 3257POPC   GL142205  21.498  16.722   5.934
 3257POPC   GL242206  21.120  16.702   5.840
 3257POPC   C1A42207  21.317  16.952   6.308
 3257POPC   D2A42208  21.407  17.240   6.656
 3257POPC   C3A42209  21.432  17.033   7.056
 3257POPC   C4A42210  21.716  16.915   7.342
 3257POPC   C1B42211  21.206  16.370   6.135
 3257POPC   C2B42212  21.351  16.485   6.522
 3257POPC   C3B42213  21.147  16.352   6.871
 3257POPC   C4B42214  21.192  16.601   7.217
 3258POPC   NC342215  37.547   8.401   5.383
 3258POPC   PO442216  37.879   7.750   5.415
 3258POPC   GL142217  37.821   8.060   5.776
 3258POPC   GL242218  38.067   7.895   5.976
 3258POPC   C1A42219  37.542   8.310   6.100
 3258POPC   D2A42220  37.283   8.489   6.472
 3258POPC   C3A42221  37.401   8.341   6.893
 3258POPC   C4A42222  37.581   8.375   7.306
 3258POPC   C1B42223  37.761   7.877   6.295
 3258POPC   C2B42224  37.705   7.883   6.736
 3258POPC   C3B42225  37.642   7.905   7.137
 3258POPC   C4B42226  37.943   8.043   7.472
 3259POPC   NC342227  35.062  32.096   5.349
 3259POPC   PO442228  35.676  32.325   5.500
 3259POPC   GL142229  35.442  32.358   5.885
 3259POPC   GL242230  35.102  32.199   5.862
 3259POPC   C1A42231  35.536  32.410   6.345
 3259POPC   D2A42232  35.562  32.136   6.695
 3259POPC   C3A42233  35.538  32.304   7.059
 3259POPC   C4A42234  35.554  32.240   7.477
 3259POPC   C1B42235  35.004  32.382   6.282
 3259POPC   C2B42236  35.141  32.509   6.727
 3259POPC   C3B42237  35.050  32.363   7.167
 3259POPC   C4B42238  35.085  32.489   7.588
 3260POPC   NC342239  16.422  36.704   5.103
 3260POPC   PO442240  16.747  37.251   5.426
 3260POPC   GL142241  16.859  37.001   5.790
 3260POPC   GL242242  17.095  36.703   5.748
 3260POPC   C1A42243  16.660  36.884   6.170
 3260POPC   D2A42244  16.537  36.917   6.585
 3260POPC   C3A42245  16.713  37.152   6.880
 3260POPC   C4A42246  16.505  37.029   7.282
 3260POPC   C1B42247  17.155  36.816   6.175
 3260POPC   C2B42248  17.106  36.994   6.543
 3260POPC   C3B42249  17.209  36.862   6.903
 3260POPC   C4B42250  17.033  37.015   7.233
 3261POPC   NC342251  25.234  18.478   4.960
 3261POPC   PO442252  25.290  19.119   5.126
 3261POPC   GL142253  25.272  19.042   5.639
 3261POPC   GL242254  25.173  19.319   5.866
 3261POPC   C1A42255  25.452  18.926   6.059
 3261POPC   D2A42256  25.310  19.186   6.426
 3261POPC   C3A42257  25.292  18.957   6.811
 3261POPC   C4A42258  25.489  18.868   7.178
 3261POPC   C1B42259  24.879  19.379   6.196
 3261POPC   C2B42260  24.788  19.440   6.628
 3261POPC   C3B42261  25.086  19.407   6.977
 3261POPC   C4B42262  25.061  19.471   7.410
 3262POPC   NC342263  27.435  35.650   5.163
 3262POPC   PO442264  27.143  35.354   5.637
 3262POPC   GL142265  26.848  35.449   5.865
 3262POPC   GL242266  26.730  35.126   5.855
 3262POPC   C1A42267  26.964  35.516   6.273
 3262POPC   D2A42268  27.098  35.279   6.597
 3262POPC   C3A42269  27.001  35.494   6.962
 3262POPC   C4A42270  26.760  35.370   7.300
 3262POPC   C1B42271  26.959  35.000   6.192
 3262POPC   C2B42272  26.762  34.891   6.576
 3262POPC   C3B42273  26.846  34.994   6.975
 3262POPC   C4B42274  26.768  34.871   7.398
 3263POPC   NC342275  17.153   7.712   5.583
 3263POPC   PO442276  17.606   8.239   5.295
 3263POPC   GL142277  17.560   8.101   5.732
 3263POPC   GL242278  17.200   8.176   5.784
 3263POPC   C1A42279  17.687   8.003   6.186
 3263POPC   D2A42280  17.955   8.015   6.599
 3263POPC   C3A42281  17.678   8.018   6.951
 3263POPC   C4A42282  17.499   8.390   7.096
 3263POPC   C1B42283  17.148   7.976   6.207
 3263POPC   C2B42284  17.207   8.116   6.646
 3263POPC   C3B42285  17.126   8.026   7.072
 3263POPC   C4B42286  17.372   8.060   7.461
 3264POPC   NC342287  14.656  36.324   5.437
 3264POPC   PO442288  14.307  35.784   5.475
 3264POPC   GL142289  14.319  36.092   5.816
 3264POPC   GL242290  14.643  36.087   5.887
 3264POPC   C1A42291  14.139  36.061   6.242
 3264POPC   D2A42292  14.090  35.745   6.591
 3264POPC   C3A42293  14.126  35.828   7.049
 3264POPC   C4A42294  14.271  36.064   7.432
 3264POPC   C1B42295  14.784  36.170   6.280
 3264POPC   C2B42296  14.513  36.062   6.591
 3264POPC   C3B42297  14.496  36.172   6.991
 3264POPC   C4B42298  14.766  36.105   7.339
 3265POPC   NC342299  23.952   6.934   5.574
 3265POPC   PO442300  23.422   6.660   5.334
 3265POPC   GL142301  23.579   6.603   5.768
 3265POPC   GL242302  23.484   6.955   5.792
 3265POPC   C1A42303  23.847   6.452   6.164
 3265POPC   D2A42304  23.741   6.297   6.574
 3265POPC   C3A42305  23.899   6.447   6.982
 3265POPC   C4A42306  23.808   6.722   7.267
 3265POPC   C1B42307  23.632   6.912   6.230
 3265POPC   C2B42308  23.666   6.810   6.665
 3265POPC   C3B42309  23.399   6.647   6.962
 3265POPC   C4B42310  23.248   6.863   7.301
 3266POPC   NC342311   3.227   5.612   5.568
 3266POPC   PO442312   3.693   6.119   5.369
 3266POPC   GL142313   3.729   5.845   5.758
 3266POPC   GL242314   3.444   5.994   5.835
 3266POPC   C1A42315   3.577   5.671   6.195
 3266POPC   D2A42316   3.247   5.810   6.495
 3266POPC   C3A42317   3.422   5.671   6.892
 3266POPC   C4A42318   3.708   5.870   7.191
 3266POPC   C1B42319   3.270   6.223   6.142
 3266POPC   C2B42320   3.152   6.329   6.525
 3266POPC   C3B42321   3.285   6.163   6.890
 3266POPC   C4B42322   3.412   6.313   7.270
 3267POPC   NC342323   1.573  31.659   5.204
 3267POPC   PO442324   2.203  31.237   5.254
 3267POPC   GL142325   1.955  31.402   5.602
 3267POPC   GL242326   2.071  31.759   5.687
 3267POPC   C1A42327   1.841  31.223   6.019
 3267POPC   D2A42328   1.700  31.268   6.455
 3267POPC   C3A42329   1.967  31.266   6.826
 3267POPC   C4A42330   1.823  31.369   7.247
 3267POPC   C1B42331   1.978  31.874   6.156
 3267POPC   C2B42332   1.953  31.756   6.609
 3267POPC   C3B42333   1.930  31.878   7.079
 3267POPC   C4B42334   1.923  31.754   7.554
 3268POPC   NC342335  11.242  20.666   5.372
 3268POPC   PO442336  11.810  20.796   5.144
 3268POPC   GL142337  11.420  21.030   5.650
 3268POPC   GL242338  11.222  20.813   5.857
 3268POPC   C1A42339  11.493  21.077   6.164
 3268POPC   D2A42340  11.649  20.780   6.502
 3268POPC   C3A42341  11.425  20.608   6.855
 3268POPC   C4A42342  11.511  20.645   7.279
 3268POPC   C1B42343  11.175  20.654   6.294
 3268POPC   C2B42344  10.912  20.539   6.638
 3268POPC   C3B42345  10.911  20.213   6.926
 3268POPC   C4B42346  11.200  20.203   7.259
 3269POPC   NC342347   7.834   2.036   5.459
 3269POPC   PO442348   7.206   1.794   5.387
 3269POPC   GL142349   7.281   1.881   5.841
 3269POPC   GL242350   7.480   2.165   5.814
 3269POPC   C1A42351   7.211   2.124   6.253
 3269POPC   D2A42352   7.167   2.276   6.687
 3269POPC   C3A42353   7.349   2.007   7.007
 3269POPC   C4A42354   7.271   1.865   7.423
 3269POPC   C1B42355   7.751   2.133   6.177
 3269POPC   C2B42356   7.678   2.235   6.599
 3269POPC   C3B42357   7.845   2.171   7.001
 3269POPC   C4B42358   7.653   2.194   7.414
 3270POPC   NC342359  25.533  35.273   5.409
 3270POPC   PO442360  24.970  35.563   5.359
 3270POPC   GL142361  25.110  35.219   5.677
 3270POPC   GL242362  24.947  35.374   5.899
 3270POPC   C1A42363  25.291  35.046   6.097
 3270POPC   D2A42364  25.111  35.233   6.485
 3270POPC   C3A42365  25.310  35.116   6.880
 3270POPC   C4A42366  25.112  35.118   7.291
 3270POPC   C1B42367  24.893  35.765   6.075
 3270POPC   C2B42368  24.861  35.810   6.533
 3270POPC   C3B42369  25.051  35.593   6.900
 3270POPC   C4B42370  25.018  35.599   7.331
 3271POPC   NC342371   7.113   1.343   5.446
 3271POPC   PO442372   7.662   0.971   5.404
 3271POPC   GL142373   7.477   1.137   5.778
 3271POPC   GL242374   7.569   1.483   5.665
 3271POPC   C1A42375   7.340   1.124   6.231
 3271POPC   D2A42376   7.485   1.028   6.665
 3271POPC   C3A42377   7.298   0.928   7.043
 3271POPC   C4A42378   7.212   1.230   7.339
 3271POPC   C1B42379   7.689   1.573   6.090
 3271POPC   C2B42380   7.679   1.465   6.533
 3271POPC   C3B42381   7.488   1.479   6.946
 3271POPC   C4B42382   7.658   1.552   7.338
 3272POPC   NC342383   8.570  18.824   5.392
 3272POPC   PO442384   9.166  18.954   5.251
 3272POPC   GL142385   8.943  19.092   5.661
 3272POPC   GL242386   8.825  18.782   5.821
 3272POPC   C1A42387   8.985  19.258   6.122
 3272POPC   D2A42388   9.301  19.336   6.482
 3272POPC   C3A42389   9.119  19.208   6.902
 3272POPC   C4A42390   8.948  18.821   7.081
 3272POPC   C1B42391   8.677  18.849   6.224
 3272POPC   C2B42392   8.731  19.027   6.610
 3272POPC   C3B42393   8.594  19.278   6.942
 3272POPC   C4B42394   8.775  19.240   7.333
 3273POPC   NC342395  27.744  26.604   4.998
 3273POPC   PO442396  27.365  26.815   5.486
 3273POPC   GL142397  27.327  26.744   5.878
 3273POPC   GL242398  27.560  26.977   5.968
 3273POPC   C1A42399  27.192  26.594   6.222
 3273POPC   D2A42400  27.259  26.811   6.589
 3273POPC   C3A42401  27.540  26.717   6.890
 3273POPC   C4A42402  27.481  26.684   7.312
 3273POPC   C1B42403  27.687  26.726   6.298
 3273POPC   C2B42404  27.789  27.006   6.532
 3273POPC   C3B42405  27.721  27.183   6.867
 3273POPC   C4B42406  27.847  27.039   7.270
 3274POPC   NC342407  43.410   3.743   5.599
 3274POPC   PO442408  43.034   3.243   5.582
 3274POPC   GL142409  42.930   3.477   5.920
 3274POPC   GL242410  43.076   3.809   5.960
 3274POPC   C1A42411  43.037   3.489   6.354
 3274POPC   D2A42412  43.373   3.491   6.637
 3274POPC   C3A42413  43.109   3.427   6.959
 3274POPC   C4A42414  42.876   3.756   7.149
 3274POPC   C1B42415  43.320   3.936   6.303
 3274POPC   C2B42416  43.247   4.094   6.694
 3274POPC   C3B42417  43.371   3.849   7.042
 3274POPC   C4B42418  43.514   3.681   7.445
 3275POPC   NC342419   9.447  25.724   5.551
 3275POPC   PO442420   9.794  26.332   5.446
 3275POPC   GL142421   9.763  26.083   5.834
 3275POPC   GL242422   9.984  25.750   5.907
 3275POPC   C1A42423   9.689  26.352   6.219
 3275POPC   D2A42424   9.843  26.461   6.630
 3275POPC   C3A42425   9.525  26.288   6.887
 3275POPC   C4A42426   9.612  26.078   7.242
 3275POPC   C1B42427   9.706  25.834   6.282
 3275POPC   C2B42428   9.574  25.784   6.716
 3275POPC   C3B42429   9.831  25.658   7.043
 3275POPC   C4B42430   9.791  25.662   7.479
 3276POPC   NC342431  18.910  17.091   5.474
 3276POPC   PO442432  19.314  17.639   5.385
 3276POPC   GL142433  19.460  17.577   5.767
 3276POPC   GL242434  19.289  17.274   5.792
 3276POPC   C1A42435  19.503  17.605   6.183
 3276POPC   D2A42436  19.534  17.512   6.587
 3276POPC   C3A42437  19.266  17.720   6.862
 3276POPC   C4A42438  19.174  17.533   7.259
 3276POPC   C1B42439  19.022  17.562   6.025
 3276POPC   C2B42440  18.847  17.761   6.374
 3276POPC   C3B42441  18.762  17.637   6.790
 3276POPC   C4B42442  18.746  17.825   7.187
 3277POPC   NC342443   3.810  26.197   5.410
 3277POPC   PO442444   3.324  25.764   5.486
 3277POPC   GL142445   3.497  26.043   5.803
 3277POPC   GL242446   3.867  26.024   5.865
 3277POPC   C1A42447   3.534  26.014   6.240
 3277POPC   D2A42448   3.520  25.860   6.637
 3277POPC   C3A42449   3.218  25.783   6.947
 3277POPC   C4A42450   3.432  25.720   7.335
 3277POPC   C1B42451   3.848  26.400   6.116
 3277POPC   C2B42452   3.999  26.368   6.535
 3277POPC   C3B42453   3.882  26.142   6.883
 3277POPC   C4B42454   3.759  26.350   7.231
 3278POPC   NC342455  22.668   2.712   5.430
 3278POPC   PO442456  23.291   2.466   5.498
 3278POPC   GL142457  22.974   2.532   5.791
 3278POPC   GL242458  22.906   2.898   5.846
 3278POPC   C1A42459  22.650   2.521   6.092
 3278POPC   D2A42460  22.681   2.481   6.538
 3278POPC   C3A42461  22.946   2.527   6.904
 3278POPC   C4A42462  22.888   2.593   7.366
 3278POPC   C1B42463  22.713   3.007   6.265
 3278POPC   C2B42464  22.645   2.967   6.715
 3278POPC   C3B42465  22.896   3.017   7.074
 3278POPC   C4B42466  22.820   3.081   7.501
 3279POPC   NC342467  19.273   4.752   5.432
 3279POPC   PO442468  19.006   5.390   5.607
 3279POPC   GL142469  19.191   5.244   5.937
 3279POPC   GL242470  19.414   5.012   5.834
 3279POPC   C1A42471  19.109   5.186   6.360
 3279POPC   D2A42472  19.113   5.158   6.794
 3279POPC   C3A42473  18.792   5.133   7.089
 3279POPC   C4A42474  19.036   5.406   7.306
 3279POPC   C1B42475  19.179   4.739   6.093
 3279POPC   C2B42476  19.210   4.691   6.532
 3279POPC   C3B42477  19.244   4.699   6.987
 3279POPC   C4B42478  19.218   4.927   7.377
 3280POPC   NC342479   6.543  23.984   5.432
 3280POPC   PO442480   6.408  24.664   5.432
 3280POPC   GL142481   6.455  24.374   5.802
 3280POPC   GL242482   6.700  24.598   5.884
 3280POPC   C1A42483   6.575  24.355   6.307
 3280POPC   D2A42484   6.544  24.673   6.675
 3280POPC   C3A42485   6.604  24.537   7.129
 3280POPC   C4A42486   6.743  24.142   7.394
 3280POPC   C1B42487   6.715  24.886   6.215
 3280POPC   C2B42488   6.919  25.028   6.573
 3280POPC   C3B42489   6.954  24.889   6.979
 3280POPC   C4B42490   7.056  24.928   7.424
 3281POPC   NC342491   9.310  34.762   5.586
 3281POPC   PO442492   8.808  34.312   5.336
 3281POPC   GL142493   8.994  34.437   5.770
 3281POPC   GL242494   8.862  34.765   5.843
 3281POPC   C1A42495   8.946  34.446   6.246
 3281POPC   D2A42496   9.160  34.466   6.618
 3281POPC   C3A42497   8.911  34.429   6.991
 3281POPC   C4A42498   8.789  34.405   7.418
 3281POPC   C1B42499   9.129  34.908   6.192
 3281POPC   C2B42500   9.336  34.950   6.581
 3281POPC   C3B42501   9.219  34.832   7.022
 3281POPC   C4B42502   9.279  34.551   7.367
 3282POPC   NC342503  44.971  33.707   5.390
 3282POPC   PO442504   0.702  33.725   5.349
 3282POPC   GL142505   0.413  33.606   5.685
 3282POPC   GL242506   0.257  33.916   5.747
 3282POPC   C1A42507   0.469  33.457   6.118
 3282POPC   D2A42508   0.613  33.574   6.536
 3282POPC   C3A42509   0.287  33.617   6.870
 3282POPC   C4A42510   0.257  33.764   7.306
 3282POPC   C1B42511   0.424  33.970   6.135
 3282POPC   C2B42512   0.331  34.011   6.551
 3282POPC   C3B42513   0.334  34.128   6.968
 3282POPC   C4B42514   0.208  34.468   7.162
 3283POPC   NC342515  17.408   1.655   5.429
 3283POPC   PO442516  17.717   2.304   5.487
 3283POPC   GL142517  17.560   2.060   5.848
 3283POPC   GL242518  17.344   1.783   5.903
 3283POPC   C1A42519  17.638   1.987   6.295
 3283POPC   D2A42520  17.822   2.259   6.595
 3283POPC   C3A42521  17.614   2.295   6.997
 3283POPC   C4A42522  17.529   2.203   7.428
 3283POPC   C1B42523  17.106   1.694   6.282
 3283POPC   C2B42524  17.099   1.721   6.715
 3283POPC   C3B42525  17.475   1.800   6.915
 3283POPC   C4B42526  17.636   1.671   7.298
 3284POPC   NC342527   3.982  29.747   5.370
 3284POPC   PO442528   4.356  30.265   5.166
 3284POPC   GL142529   4.362  30.048   5.613
 3284POPC   GL242530   4.370  29.659   5.692
 3284POPC   C1A42531   4.339  30.095   6.077
 3284POPC   D2A42532   4.578  30.276   6.435
 3284POPC   C3A42533   4.415  30.180   6.850
 3284POPC   C4A42534   4.268  30.101   7.272
 3284POPC   C1B42535   4.169  29.587   6.107
 3284POPC   C2B42536   4.274  29.782   6.515
 3284POPC   C3B42537   4.100  29.776   6.919
 3284POPC   C4B42538   3.939  29.695   7.299
 3285POPC   NC342539  30.379  13.405   5.307
 3285POPC   PO442540  30.762  14.004   5.332
 3285POPC   GL142541  30.626  13.782   5.692
 3285POPC   GL242542  30.772  13.472   5.677
 3285POPC   C1A42543  30.617  13.851   6.145
 3285POPC   D2A42544  30.691  13.956   6.581
 3285POPC   C3A42545  30.461  13.774   6.931
 3285POPC   C4A42546  30.492  13.859   7.377
 3285POPC   C1B42547  30.871  13.402   6.124
 3285POPC   C2B42548  30.748  13.444   6.522
 3285POPC   C3B42549  30.927  13.532   6.898
 3285POPC   C4B42550  30.771  13.430   7.273
 3286POPC   NC342551   1.855  34.117   5.439
 3286POPC   PO442552   2.057  33.524   5.300
 3286POPC   GL142553   2.049  33.715   5.755
 3286POPC   GL242554   1.705  33.818   5.829
 3286POPC   C1A42555   2.001  33.670   6.242
 3286POPC   D2A42556   2.275  33.792   6.638
 3286POPC   C3A42557   2.266  33.673   7.091
 3286POPC   C4A42558   2.379  33.246   7.241
 3286POPC   C1B42559   1.721  34.141   6.159
 3286POPC   C2B42560   1.798  33.980   6.599
 3286POPC   C3B42561   1.789  33.902   7.043
 3286POPC   C4B42562   1.559  34.148   7.338
 3287POPC   NC342563  15.336  43.760   5.429
 3287POPC   PO442564  14.916  44.254   5.751
 3287POPC   GL142565  15.011  43.847   5.891
 3287POPC   GL242566  15.365  43.842   5.936
 3287POPC   C1A42567  15.059  43.772   6.350
 3287POPC   D2A42568  15.244  43.542   6.673
 3287POPC   C3A42569  15.191  43.679   7.050
 3287POPC   C4A42570  15.162  44.096   7.207
 3287POPC   C1B42571  15.530  44.029   6.332
 3287POPC   C2B42572  15.493  44.004   6.789
 3287POPC   C3B42573  15.640  43.895   7.212
 3287POPC   C4B42574  15.495  43.936   7.651
 3288POPC   NC342575  20.494  30.297   5.376
 3288POPC   PO442576  20.842  30.918   5.215
 3288POPC   GL142577  20.632  30.766   5.625
 3288POPC   GL242578  20.761  30.469   5.806
 3288POPC   C1A42579  20.482  30.823   6.066
 3288POPC   D2A42580  20.679  30.879   6.478
 3288POPC   C3A42581  20.474  30.700   6.838
 3288POPC   C4A42582  20.554  30.832   7.253
 3288POPC   C1B42583  20.643  30.308   6.214
 3288POPC   C2B42584  20.378  30.067   6.514
 3288POPC   C3B42585  20.413  30.162   6.934
 3288POPC   C4B42586  20.739  30.360   7.162
 3289POPC   NC342587  34.288  25.698   5.662
 3289POPC   PO442588  34.750  26.189   5.440
 3289POPC   GL142589  34.679  26.113   5.838
 3289POPC   GL242590  34.756  25.778   5.965
 3289POPC   C1A42591  34.605  26.232   6.240
 3289POPC   D2A42592  34.770  25.997   6.595
 3289POPC   C3A42593  34.770  26.172   6.984
 3289POPC   C4A42594  34.517  26.501   7.102
 3289POPC   C1B42595  34.411  25.775   6.306
 3289POPC   C2B42596  34.434  25.632   6.741
 3289POPC   C3B42597  34.582  25.713   7.179
 3289POPC   C4B42598  34.537  25.587   7.616
 3290POPC   NC342599  28.919  38.648   5.298
 3290POPC   PO442600  29.360  38.167   5.428
 3290POPC   GL142601  29.206  38.271   5.817
 3290POPC   GL242602  29.136  38.634   5.784
 3290POPC   C1A42603  29.215  38.297   6.258
 3290POPC   D2A42604  29.079  38.556   6.583
 3290POPC   C3A42605  29.184  38.312   6.951
 3290POPC   C4A42606  29.249  38.304   7.372
 3290POPC   C1B42607  29.387  38.856   6.103
 3290POPC   C2B42608  29.469  38.956   6.552
 3290POPC   C3B42609  29.412  38.795   6.994
 3290POPC   C4B42610  29.370  38.777   7.454
 3291POPC   NC342611   6.963  33.692   5.452
 3291POPC   PO442612   6.286  33.818   5.400
 3291POPC   GL142613   6.571  33.781   5.770
 3291POPC   GL242614   6.836  34.029   5.814
 3291POPC   C1A42615   6.742  33.712   6.200
 3291POPC   D2A42616   6.585  33.444   6.539
 3291POPC   C3A42617   6.609  33.676   6.944
 3291POPC   C4A42618   6.793  33.894   7.326
 3291POPC   C1B42619   6.506  34.157   6.116
 3291POPC   C2B42620   6.604  34.070   6.560
 3291POPC   C3B42621   6.483  34.181   6.990
 3291POPC   C4B42622   6.540  34.338   7.416
 3292POPC   NC342623  31.672  43.017   5.456
 3292POPC   PO442624  31.093  43.253   5.607
 3292POPC   GL142625  31.351  42.977   5.853
 3292POPC   GL242626  31.112  42.738   5.910
 3292POPC   C1A42627  31.625  43.075   6.210
 3292POPC   D2A42628  31.470  43.369   6.524
 3292POPC   C3A42629  31.566  43.324   6.962
 3292POPC   C4A42630  31.552  43.605   7.301
 3292POPC   C1B42631  31.132  42.980   6.321
 3292POPC   C2B42632  31.336  42.904   6.722
 3292POPC   C3B42633  31.313  42.916   7.186
 3292POPC   C4B42634  31.094  42.781   7.614
 3293POPC   NC342635  29.653  33.048   5.387
 3293POPC   PO442636  30.083  33.152   5.876
 3293POPC   GL142637  29.645  33.194   5.906
 3293POPC   GL242638  29.556  32.836   5.877
 3293POPC   C1A42639  29.634  33.312   6.338
 3293POPC   D2A42640  29.770  33.109   6.738
 3293POPC   C3A42641  30.031  33.260   7.084
 3293POPC   C4A42642  30.111  33.101   7.485
 3293POPC   C1B42643  29.691  32.802   6.323
 3293POPC   C2B42644  29.719  32.553   6.718
 3293POPC   C3B42645  29.890  32.716   7.105
 3293POPC   C4B42646  29.824  32.705   7.540
 3294POPC   NC342647  42.202   1.355   5.615
 3294POPC   PO442648  42.607   0.835   5.412
 3294POPC   GL142649  42.493   0.976   5.824
 3294POPC   GL242650  42.696   1.238   5.824
 3294POPC   C1A42651  42.311   1.145   6.237
 3294POPC   D2A42652  42.129   1.418   6.567
 3294POPC   C3A42653  42.171   1.275   6.997
 3294POPC   C4A42654  42.005   0.915   7.220
 3294POPC   C1B42655  42.850   1.226   6.254
 3294POPC   C2B42656  42.644   1.353   6.644
 3294POPC   C3B42657  42.655   1.328   7.102
 3294POPC   C4B42658  42.597   1.430   7.547
 3295POPC   NC342659  34.272  25.115   5.228
 3295POPC   PO442660  34.719  25.451   5.549
 3295POPC   GL142661  34.512  25.265   5.858
 3295POPC   GL242662  34.330  25.007   5.725
 3295POPC   C1A42663  34.573  25.293   6.268
 3295POPC   D2A42664  34.804  25.183   6.590
 3295POPC   C3A42665  34.839  25.344   6.967
 3295POPC   C4A42666  34.699  25.183   7.337
 3295POPC   C1B42667  34.169  24.924   6.151
 3295POPC   C2B42668  34.289  25.009   6.597
 3295POPC   C3B42669  34.297  25.210   6.997
 3295POPC   C4B42670  34.204  25.252   7.417
 3296POPC   NC342671  43.696   6.204   5.101
 3296POPC   PO442672  43.775   5.576   5.358
 3296POPC   GL142673  43.803   5.712   5.820
 3296POPC   GL242674  43.920   6.038   5.988
 3296POPC   C1A42675  43.786   5.634   6.285
 3296POPC   D2A42676  43.664   5.841   6.674
 3296POPC   C3A42677  43.811   5.661   7.045
 3296POPC   C4A42678  43.541   5.481   7.317
 3296POPC   C1B42679  44.174   6.322   6.260
 3296POPC   C2B42680  44.066   6.429   6.704
 3296POPC   C3B42681  43.909   6.158   7.035
 3296POPC   C4B42682  44.208   6.080   7.382
 3297POPC   NC342683   4.998   1.611   4.984
 3297POPC   PO442684   5.165   1.157   5.477
 3297POPC   GL142685   5.044   1.360   5.882
 3297POPC   GL242686   5.357   1.243   5.995
 3297POPC   C1A42687   4.998   1.317   6.370
 3297POPC   D2A42688   5.216   1.069   6.714
 3297POPC   C3A42689   5.308   1.154   7.171
 3297POPC   C4A42690   5.401   1.022   7.601
 3297POPC   C1B42691   5.366   1.650   6.214
 3297POPC   C2B42692   5.358   1.588   6.624
 3297POPC   C3B42693   5.069   1.566   6.926
 3297POPC   C4B42694   5.197   1.639   7.326
 3298POPC   NC342695   3.251  35.900   5.304
 3298POPC   PO442696   3.945  35.986   5.357
 3298POPC   GL142697   3.642  35.959   5.690
 3298POPC   GL242698   3.650  36.303   5.806
 3298POPC   C1A42699   3.447  35.922   6.124
 3298POPC   D2A42700   3.249  36.014   6.555
 3298POPC   C3A42701   3.437  36.027   7.009
 3298POPC   C4A42702   3.514  35.779   7.418
 3298POPC   C1B42703   3.860  36.333   6.221
 3298POPC   C2B42704   3.741  36.274   6.652
 3298POPC   C3B42705   3.798  36.425   7.065
 3298POPC   C4B42706   3.894  36.063   7.283
 3299POPC   NC342707   9.210   6.711   5.407
 3299POPC   PO442708   8.718   6.274   5.301
 3299POPC   GL142709   8.843   6.363   5.741
 3299POPC   GL242710   9.190   6.455   5.838
 3299POPC   C1A42711   8.763   6.491   6.203
 3299POPC   D2A42712   8.822   6.860   6.529
 3299POPC   C3A42713   8.681   6.737   6.977
 3299POPC   C4A42714   8.761   6.472   7.342
 3299POPC   C1B42715   9.250   6.648   6.227
 3299POPC   C2B42716   9.169   6.489   6.608
 3299POPC   C3B42717   9.190   6.796   6.905
 3299POPC   C4B42718   9.161   6.776   7.298
 3300POPC   NC342719  12.908  42.651   5.046
 3300POPC   PO442720  12.597  42.642   5.609
 3300POPC   GL142721  12.874  42.387   5.880
 3300POPC   GL242722  13.079  42.052   5.785
 3300POPC   C1A42723  12.915  42.511   6.257
 3300POPC   D2A42724  12.980  42.751   6.592
 3300POPC   C3A42725  12.894  42.600   6.976
 3300POPC   C4A42726  12.631  42.332   7.180
 3300POPC   C1B42727  13.029  42.026   6.227
 3300POPC   C2B42728  12.793  42.151   6.607
 3300POPC   C3B42729  13.018  42.072   6.969
 3300POPC   C4B42730  12.999  41.921   7.380
 3301POPC   NC342731  21.986  16.931   5.497
 3301POPC   PO442732  22.440  16.489   5.332
 3301POPC   GL142733  22.367  16.702   5.777
 3301POPC   GL242734  22.080  16.508   5.824
 3301POPC   C1A42735  22.112  16.882   6.164
 3301POPC   D2A42736  21.826  16.796   6.525
 3301POPC   C3A42737  22.096  16.753   6.889
 3301POPC   C4A42738  22.223  16.900   7.296
 3301POPC   C1B42739  21.820  16.368   6.174
 3301POPC   C2B42740  21.771  16.233   6.599
 3301POPC   C3B42741  21.660  16.511   6.942
 3301POPC   C4B42742  21.917  16.452   7.306
 3302POPC   NC342743  20.565   8.928   5.094
 3302POPC   PO442744  21.150   9.108   5.410
 3302POPC   GL142745  20.754   9.078   5.634
 3302POPC   GL242746  20.940   9.297   5.857
 3302POPC   C1A42747  20.528   9.120   6.047
 3302POPC   D2A42748  20.572   9.119   6.502
 3302POPC   C3A42749  20.502   8.759   6.781
 3302POPC   C4A42750  20.469   8.700   7.222
 3302POPC   C1B42751  20.962   9.432   6.294
 3302POPC   C2B42752  21.059   9.215   6.690
 3302POPC   C3B42753  20.803   9.082   7.038
 3302POPC   C4B42754  20.910   8.869   7.420
 3303POPC   NC342755  13.240  24.123   5.634
 3303POPC   PO442756  12.808  24.516   5.327
 3303POPC   GL142757  12.891  24.586   5.748
 3303POPC   GL242758  12.546  24.562   5.858
 3303POPC   C1A42759  13.046  24.765   6.166
 3303POPC   D2A42760  13.285  24.674   6.538
 3303POPC   C3A42761  13.174  24.451   6.925
 3303POPC   C4A42762  13.095  24.683   7.319
 3303POPC   C1B42763  12.796  24.321   6.168
 3303POPC   C2B42764  12.809  24.497   6.577
 3303POPC   C3B42765  12.689  24.539   7.018
 3303POPC   C4B42766  12.824  24.176   7.209
 3304POPC   NC342767  44.304  13.104   5.414
 3304POPC   PO442768  43.956  12.532   5.472
 3304POPC   GL142769  43.966  12.749   5.832
 3304POPC   GL242770  43.747  13.039   5.836
 3304POPC   C1A42771  43.724  12.698   6.210
 3304POPC   D2A42772  43.623  12.898   6.578
 3304POPC   C3A42773  43.577  12.605   6.878
 3304POPC   C4A42774  43.704  12.872   7.170
 3304POPC   C1B42775  44.001  13.124   6.257
 3304POPC   C2B42776  44.053  13.213   6.734
 3304POPC   C3B42777  44.187  13.010   7.163
 3304POPC   C4B42778  44.338  12.985   7.613
 3305POPC   NC342779  34.882   4.324   5.632
 3305POPC   PO442780  34.407   3.924   5.336
 3305POPC   GL142781  34.429   4.101   5.794
 3305POPC   GL242782  34.477   4.509   5.887
 3305POPC   C1A42783  34.599   4.175   6.228
 3305POPC   D2A42784  34.360   4.351   6.569
 3305POPC   C3A42785  34.408   4.116   6.925
 3305POPC   C4A42786  34.725   4.069   7.234
 3305POPC   C1B42787  34.704   4.655   6.306
 3305POPC   C2B42788  34.836   4.389   6.688
 3305POPC   C3B42789  34.663   4.546   7.079
 3305POPC   C4B42790  34.711   4.516   7.532
 3306POPC   NC342791  34.680   7.779   5.027
 3306POPC   PO442792  34.907   7.159   5.344
 3306POPC   GL142793  34.704   7.263   5.778
 3306POPC   GL242794  34.376   7.108   5.902
 3306POPC   C1A42795  34.602   7.479   6.198
 3306POPC   D2A42796  34.286   7.646   6.541
 3306POPC   C3A42797  34.392   7.515   6.992
 3306POPC   C4A42798  34.848   7.641   7.055
 3306POPC   C1B42799  34.133   7.216   6.291
 3306POPC   C2B42800  33.971   7.267   6.728
 3306POPC   C3B42801  34.085   7.025   7.120
 3306POPC   C4B42802  34.362   6.933   7.500
 3307POPC   NC342803  17.797  14.621   5.813
 3307POPC   PO442804  17.186  14.331   5.553
 3307POPC   GL142805  17.311  14.247   5.940
 3307POPC   GL242806  17.576  14.035   5.812
 3307POPC   C1A42807  17.236  14.422   6.356
 3307POPC   D2A42808  17.546  14.667   6.569
 3307POPC   C3A42809  17.470  14.691   6.967
 3307POPC   C4A42810  17.336  14.462   7.236
 3307POPC   C1B42811  17.700  14.008   6.209
 3307POPC   C2B42812  17.532  14.097   6.605
 3307POPC   C3B42813  17.676  14.183   6.996
 3307POPC   C4B42814  17.781  14.021   7.393
 3308POPC   NC342815  10.670  38.448   5.376
 3308POPC   PO442816  10.212  38.042   5.527
 3308POPC   GL142817  10.509  38.365   5.844
 3308POPC   GL242818  10.816  38.632   5.811
 3308POPC   C1A42819  10.487  38.614   6.220
 3308POPC   D2A42820  10.219  38.544   6.570
 3308POPC   C3A42821  10.410  38.389   6.939
 3308POPC   C4A42822  10.479  38.615   7.312
 3308POPC   C1B42823  11.003  38.526   6.192
 3308POPC   C2B42824  10.828  38.454   6.586
 3308POPC   C3B42825  10.899  38.552   6.983
 3308POPC   C4B42826  10.930  38.345   7.339
 3309POPC   NC342827   5.903  10.274   5.445
 3309POPC   PO442828   6.003  10.899   5.493
 3309POPC   GL142829   6.050  10.610   5.812
 3309POPC   GL242830   5.737  10.485   5.956
 3309POPC   C1A42831   6.189  10.571   6.211
 3309POPC   D2A42832   6.013  10.558   6.590
 3309POPC   C3A42833   5.613  10.649   6.781
 3309POPC   C4A42834   5.706  10.502   7.200
 3309POPC   C1B42835   5.697  10.230   6.347
 3309POPC   C2B42836   5.608  10.151   6.811
 3309POPC   C3B42837   5.671   9.994   7.264
 3309POPC   C4B42838   5.675  10.208   7.681
 3310POPC   NC342839   8.738  17.522   5.316
 3310POPC   PO442840   9.310  17.837   5.362
 3310POPC   GL142841   9.015  17.694   5.718
 3310POPC   GL242842   8.902  17.360   5.825
 3310POPC   C1A42843   8.931  17.699   6.192
 3310POPC   D2A42844   9.119  17.684   6.596
 3310POPC   C3A42845   8.927  17.608   6.985
 3310POPC   C4A42846   9.021  17.530   7.465
 3310POPC   C1B42847   9.114  17.210   6.263
 3310POPC   C2B42848   9.182  17.196   6.746
 3310POPC   C3B42849   8.959  17.132   7.142
 3310POPC   C4B42850   8.705  17.129   7.535
 3311POPC   NC342851  41.047   4.600   5.339
 3311POPC   PO442852  40.709   4.049   5.203
 3311POPC   GL142853  40.736   4.132   5.618
 3311POPC   GL242854  40.724   4.447   5.708
 3311POPC   C1A42855  40.947   4.049   6.008
 3311POPC   D2A42856  41.064   4.190   6.404
 3311POPC   C3A42857  40.895   4.130   6.831
 3311POPC   C4A42858  40.913   4.255   7.272
 3311POPC   C1B42859  40.738   4.558   6.143
 3311POPC   C2B42860  40.600   4.516   6.551
 3311POPC   C3B42861  40.669   4.634   6.963
 3311POPC   C4B42862  40.510   4.551   7.381
 3312POPC   NC342863  34.416  14.442   5.193
 3312POPC   PO442864  34.996  14.660   5.541
 3312POPC   GL142865  34.734  14.612   5.935
 3312POPC   GL242866  34.452  14.432   5.783
 3312POPC   C1A42867  34.364  14.650   6.250
 3312POPC   D2A42868  34.251  14.348   6.593
 3312POPC   C3A42869  34.614  14.254   6.858
 3312POPC   C4A42870  34.916  14.392   7.165
 3312POPC   C1B42871  34.480  14.138   6.171
 3312POPC   C2B42872  34.376  13.848   6.560
 3312POPC   C3B42873  34.178  13.969   6.946
 3312POPC   C4B42874  34.197  14.426   7.109
 3313POPC   NC342875   6.745  38.816   5.677
 3313POPC   PO442876   7.073  39.153   5.144
 3313POPC   GL142877   6.985  39.336   5.569
 3313POPC   GL242878   6.611  39.361   5.696
 3313POPC   C1A42879   7.029  39.387   6.032
 3313POPC   D2A42880   6.809  39.318   6.390
 3313POPC   C3A42881   6.950  39.239   6.778
 3313POPC   C4A42882   6.993  39.453   7.133
 3313POPC   C1B42883   6.385  39.418   6.124
 3313POPC   C2B42884   6.343  39.253   6.589
 3313POPC   C3B42885   6.500  39.294   7.024
 3313POPC   C4B42886   6.290  39.384   7.406
 3314POPC   NC342887   5.619  35.787   5.244
 3314POPC   PO442888   6.099  36.241   5.361
 3314POPC   GL142889   5.875  36.250   5.744
 3314POPC   GL242890   5.824  35.917   5.721
 3314POPC   C1A42891   5.921  36.348   6.187
 3314POPC   D2A42892   5.769  36.203   6.581
 3314POPC   C3A42893   5.826  36.404   6.967
 3314POPC   C4A42894   5.521  36.469   7.318
 3314POPC   C1B42895   5.984  35.814   6.134
 3314POPC   C2B42896   6.126  35.855   6.559
 3314POPC   C3B42897   5.916  35.843   6.938
 3314POPC   C4B42898   5.760  36.031   7.308
 3315POPC   NC342899  20.946  19.799   5.609
 3315POPC   PO442900  20.422  19.602   5.414
 3315POPC   GL142901  20.526  19.672   5.883
 3315POPC   GL242902  20.474  20.023   5.980
 3315POPC   C1A42903  20.572  19.720   6.362
 3315POPC   D2A42904  20.452  20.115   6.560
 3315POPC   C3A42905  20.147  20.162   6.889
 3315POPC   C4A42906  20.362  20.132   7.254
 3315POPC   C1B42907  20.768  20.322   6.230
 3315POPC   C2B42908  20.971  20.075   6.536
 3315POPC   C3B42909  20.787  19.841   6.872
 3315POPC   C4B42910  20.861  20.038   7.253
 3316POPC   NC342911   2.698  29.914   5.323
 3316POPC   PO442912   3.139  29.486   5.427
 3316POPC   GL142913   3.063  29.618   5.827
 3316POPC   GL242914   3.011  29.981   5.764
 3316POPC   C1A42915   3.125  29.760   6.246
 3316POPC   D2A42916   2.783  29.777   6.502
 3316POPC   C3A42917   2.797  29.927   6.894
 3316POPC   C4A42918   2.635  29.786   7.261
 3316POPC   C1B42919   2.907  30.220   6.143
 3316POPC   C2B42920   3.033  30.294   6.561
 3316POPC   C3B42921   2.956  30.399   7.009
 3316POPC   C4B42922   2.811  30.256   7.389
 3317POPC   NC342923  24.746   6.709   5.483
 3317POPC   PO442924  24.107   6.440   5.573
 3317POPC   GL142925  24.387   6.623   5.874
 3317POPC   GL242926  24.628   6.913   5.935
 3317POPC   C1A42927  24.205   6.807   6.221
 3317POPC   D2A42928  24.145   6.663   6.607
 3317POPC   C3A42929  24.430   6.505   6.895
 3317POPC   C4A42930  24.334   6.531   7.321
 3317POPC   C1B42931  24.691   6.782   6.347
 3317POPC   C2B42932  24.577   6.989   6.719
 3317POPC   C3B42933  24.828   6.819   7.043
 3317POPC   C4B42934  24.838   6.384   7.221
 3318POPC   NC342935  41.442  30.274   5.368
 3318POPC   PO442936  41.648  29.632   5.331
 3318POPC   GL142937  41.511  29.689   5.720
 3318POPC   GL242938  41.840  29.675   5.834
 3318POPC   C1A42939  41.330  29.800   6.124
 3318POPC   D2A42940  41.535  29.811   6.530
 3318POPC   C3A42941  41.487  30.081   6.888
 3318POPC   C4A42942  41.305  29.852   7.240
 3318POPC   C1B42943  41.951  29.737   6.242
 3318POPC   C2B42944  41.948  29.515   6.616
 3318POPC   C3B42945  41.760  29.659   6.975
 3318POPC   C4B42946  41.801  29.979   7.282
 3319POPC   NC342947  43.249  16.182   5.290
 3319POPC   PO442948  42.681  16.243   5.641
 3319POPC   GL142949  43.121  16.047   5.774
 3319POPC   GL242950  43.318  15.685   5.801
 3319POPC   C1A42951  43.390  16.119   6.144
 3319POPC   D2A42952  43.379  16.373   6.558
 3319POPC   C3A42953  43.378  16.132   6.928
 3319POPC   C4A42954  42.993  16.121   7.157
 3319POPC   C1B42955  43.511  15.592   6.243
 3319POPC   C2B42956  43.446  15.664   6.716
 3319POPC   C3B42957  43.574  15.669   7.139
 3319POPC   C4B42958  43.342  15.873   7.469
 3320POPC   NC342959  12.290  44.606   5.402
 3320POPC   PO442960  11.672  44.292   5.580
 3320POPC   GL142961  12.010  44.442   5.810
 3320POPC   GL242962  11.962  44.817   5.838
 3320POPC   C1A42963  12.095  44.514   6.247
 3320POPC   D2A42964  11.765  44.557   6.543
 3320POPC   C3A42965  11.951  44.506   6.931
 3320POPC   C4A42966  12.010  44.446   7.347
 3320POPC   C1B42967  11.822   0.010   6.264
 3320POPC   C2B42968  11.923   0.053   6.725
 3320POPC   C3B42969  11.846  44.941   7.172
 3320POPC   C4B42970  11.734   0.018   7.602
 3321POPC   NC342971   4.105  18.603   5.148
 3321POPC   PO442972   4.716  18.986   5.295
 3321POPC   GL142973   4.466  19.149   5.687
 3321POPC   GL242974   4.165  18.953   5.734
 3321POPC   C1A42975   4.367  19.257   6.165
 3321POPC   D2A42976   4.269  19.161   6.646
 3321POPC   C3A42977   4.418  19.209   7.124
 3321POPC   C4A42978   4.197  19.316   7.557
 3321POPC   C1B42979   4.337  18.756   6.129
 3321POPC   C2B42980   4.192  18.592   6.482
 3321POPC   C3B42981   4.190  18.709   6.890
 3321POPC   C4B42982   4.511  18.652   7.162
 3322POPC   NC342983  38.790  37.220   5.374
 3322POPC   PO442984  38.434  36.606   5.232
 3322POPC   GL142985  38.431  36.795   5.731
 3322POPC   GL242986  38.709  37.033   5.886
 3322POPC   C1A42987  38.484  36.689   6.206
 3322POPC   D2A42988  38.367  36.617   6.663
 3322POPC   C3A42989  38.415  36.850   7.030
 3322POPC   C4A42990  38.227  37.224   7.143
 3322POPC   C1B42991  38.476  37.224   6.214
 3322POPC   C2B42992  38.422  37.207   6.653
 3322POPC   C3B42993  38.760  37.220   6.961
 3322POPC   C4B42994  38.665  37.286   7.377
 3323POPC   NC342995  16.412  19.836   5.637
 3323POPC   PO442996  16.956  20.165   5.615
 3323POPC   GL142997  16.789  19.977   5.966
 3323POPC   GL242998  16.827  19.634   5.869
 3323POPC   C1A42999  16.452  20.015   6.312
 3323POPC   D2A43000  16.405  19.814   6.733
 3323POPC   C3A43001  16.740  19.900   7.032
 3323POPC   C4A43002  17.110  19.963   7.281
 3323POPC   C1B43003  16.584  19.530   6.250
 3323POPC   C2B43004  16.568  19.284   6.621
 3323POPC   C3B43005  16.645  19.391   7.040
 3323POPC   C4B43006  16.447  19.399   7.447
 3324POPC   NC343007   1.685  26.995   5.452
 3324POPC   PO443008   2.277  26.673   5.614
 3324POPC   GL143009   1.908  26.710   5.823
 3324POPC   GL243010   1.979  27.060   5.863
 3324POPC   C1A43011   1.771  26.725   6.267
 3324POPC   D2A43012   1.876  26.488   6.664
 3324POPC   C3A43013   1.805  26.673   7.072
 3324POPC   C4A43014   2.003  26.763   7.481
 3324POPC   C1B43015   2.188  27.068   6.246
 3324POPC   C2B43016   2.026  27.009   6.658
 3324POPC   C3B43017   2.015  27.129   7.068
 3324POPC   C4B43018   2.327  27.131   7.356
 3325POPC   NC343019  20.145  38.230   5.434
 3325POPC   PO443020  19.584  38.506   5.625
 3325POPC   GL143021  19.989  38.506   5.846
 3325POPC   GL243022  20.014  38.172   5.946
 3325POPC   C1A43023  20.040  38.581   6.288
 3325POPC   D2A43024  19.760  38.733   6.603
 3325POPC   C3A43025  19.769  38.469   6.947
 3325POPC   C4A43026  19.560  38.429   7.323
 3325POPC   C1B43027  20.307  38.026   6.257
 3325POPC   C2B43028  20.399  38.197   6.616
 3325POPC   C3B43029  20.164  38.110   6.964
 3325POPC   C4B43030  20.071  38.285   7.314
 3326POPC   NC343031  26.583  30.189   5.472
 3326POPC   PO443032  26.893  29.531   5.514
 3326POPC   GL143033  26.720  29.803   5.789
 3326POPC   GL243034  27.012  30.016   5.746
 3326POPC   C1A43035  26.486  29.793   6.189
 3326POPC   D2A43036  26.727  29.740   6.565
 3326POPC   C3A43037  26.568  29.672   6.967
 3326POPC   C4A43038  26.590  29.482   7.387
 3326POPC   C1B43039  26.867  30.144   6.140
 3326POPC   C2B43040  26.884  30.216   6.568
 3326POPC   C3B43041  26.942  30.029   6.955
 3326POPC   C4B43042  26.793  29.959   7.329
 3327POPC   NC343043  31.225   9.518   5.620
 3327POPC   PO443044  31.476  10.103   5.321
 3327POPC   GL143045  31.644  10.055   5.785
 3327POPC   GL243046  31.747   9.705   5.729
 3327POPC   C1A43047  31.544  10.110   6.259
 3327POPC   D2A43048  31.496   9.882   6.674
 3327POPC   C3A43049  31.287  10.014   7.079
 3327POPC   C4A43050  31.086   9.844   7.472
 3327POPC   C1B43051  31.856   9.664   6.164
 3327POPC   C2B43052  31.951   9.457   6.565
 3327POPC   C3B43053  31.658   9.436   6.899
 3327POPC   C4B43054  31.595   9.647   7.287
 3328POPC   NC343055   4.781  30.252   5.372
 3328POPC   PO443056   5.088  29.659   5.479
 3328POPC   GL143057   4.853  29.858   5.801
 3328POPC   GL243058   5.073  30.130   5.769
 3328POPC   C1A43059   4.742  29.798   6.252
 3328POPC   D2A43060   4.719  29.505   6.623
 3328POPC   C3A43061   4.614  29.699   7.043
 3328POPC   C4A43062   4.775  29.995   7.390
 3328POPC   C1B43063   5.220  30.035   6.166
 3328POPC   C2B43064   5.065  30.100   6.571
 3328POPC   C3B43065   5.199  30.087   6.987
 3328POPC   C4B43066   5.190  29.742   7.209
 3329POPC   NC343067  20.069  36.510   5.529
 3329POPC   PO443068  19.461  35.995   5.603
 3329POPC   GL143069  19.794  36.166   5.776
 3329POPC   GL243070  19.630  36.464   5.832
 3329POPC   C1A43071  20.115  36.145   6.120
 3329POPC   D2A43072  20.120  36.353   6.540
 3329POPC   C3A43073  20.184  36.164   6.940
 3329POPC   C4A43074  19.823  36.003   7.183
 3329POPC   C1B43075  19.645  36.205   6.239
 3329POPC   C2B43076  19.674  36.056   6.671
 3329POPC   C3B43077  19.388  36.260   6.961
 3329POPC   C4B43078  19.459  36.511   7.374
 3330POPC   NC343079  13.102  32.352   5.319
 3330POPC   PO443080  12.508  32.142   5.549
 3330POPC   GL143081  12.838  32.324   5.760
 3330POPC   GL243082  12.937  31.986   5.848
 3330POPC   C1A43083  13.068  32.604   6.042
 3330POPC   D2A43084  12.859  32.351   6.379
 3330POPC   C3A43085  12.848  32.409   6.825
 3330POPC   C4A43086  12.487  32.368   7.130
 3330POPC   C1B43087  12.641  31.910   6.182
 3330POPC   C2B43088  12.812  31.810   6.582
 3330POPC   C3B43089  12.719  31.912   6.994
 3330POPC   C4B43090  12.381  31.851   7.265
 3331POPC   NC343091  13.036  43.955   5.539
 3331POPC   PO443092  12.414  43.624   5.641
 3331POPC   GL143093  12.752  43.793   5.957
 3331POPC   GL243094  13.142  43.809   6.001
 3331POPC   C1A43095  12.843  43.809   6.395
 3331POPC   D2A43096  12.787  43.498   6.655
 3331POPC   C3A43097  12.902  43.662   7.050
 3331POPC   C4A43098  12.631  43.829   7.341
 3331POPC   C1B43099  13.148  44.198   6.239
 3331POPC   C2B43100  13.024  44.254   6.658
 3331POPC   C3B43101  12.824  44.189   7.036
 3331POPC   C4B43102  13.012  44.123   7.453
 3332POPC   NC343103  30.443  39.710   5.396
 3332POPC   PO443104  30.148  40.282   5.329
 3332POPC   GL143105  30.497  40.204   5.689
 3332POPC   GL243106  30.667  39.868   5.829
 3332POPC   C1A43107  30.640  40.269   6.144
 3332POPC   D2A43108  30.477  40.112   6.562
 3332POPC   C3A43109  30.654  40.194   6.956
 3332POPC   C4A43110  30.535  40.125   7.379
 3332POPC   C1B43111  30.805  39.762   6.272
 3332POPC   C2B43112  30.793  39.744   6.746
 3332POPC   C3B43113  30.696  39.676   7.210
 3332POPC   C4B43114  30.897  39.784   7.640
 3333POPC   NC343115   9.500  40.029   5.383
 3333POPC   PO443116  10.095  39.622   5.318
 3333POPC   GL143117   9.982  39.882   5.754
 3333POPC   GL243118   9.583  39.932   5.909
 3333POPC   C1A43119   9.971  39.981   6.202
 3333POPC   D2A43120   9.651  39.829   6.446
 3333POPC   C3A43121   9.742  39.858   6.844
 3333POPC   C4A43122   9.712  39.686   7.258
 3333POPC   C1B43123   9.500  40.246   6.183
 3333POPC   C2B43124   9.717  40.335   6.556
 3333POPC   C3B43125   9.644  40.486   6.978
 3333POPC   C4B43126   9.839  40.551   7.385
 3334POPC   NC343127  13.253  13.495   5.453
 3334POPC   PO443128  13.931  13.787   5.435
 3334POPC   GL143129  13.948  13.610   5.836
 3334POPC   GL243130  13.648  13.436   5.760
 3334POPC   C1A43131  13.865  13.715   6.279
 3334POPC   D2A43132  13.626  13.952   6.593
 3334POPC   C3A43133  13.891  13.754   6.904
 3334POPC   C4A43134  13.825  13.565   7.323
 3334POPC   C1B43135  13.415  13.553   6.117
 3334POPC   C2B43136  13.504  13.443   6.529
 3334POPC   C3B43137  13.398  13.601   6.909
 3334POPC   C4B43138  13.332  13.471   7.290
 3335POPC   NC343139  29.441   4.601   5.573
 3335POPC   PO443140  29.479   4.023   5.162
 3335POPC   GL143141  29.178   4.124   5.613
 3335POPC   GL243142  29.012   4.396   5.778
 3335POPC   C1A43143  29.187   4.062   6.128
 3335POPC   D2A43144  29.197   4.244   6.568
 3335POPC   C3A43145  29.347   4.093   6.989
 3335POPC   C4A43146  29.104   4.045   7.357
 3335POPC   C1B43147  28.924   4.504   6.201
 3335POPC   C2B43148  28.785   4.552   6.632
 3335POPC   C3B43149  28.958   4.425   6.991
 3335POPC   C4B43150  29.250   4.634   7.199
 3336POPC   NC343151   4.558  14.850   5.390
 3336POPC   PO443152   3.974  15.232   5.384
 3336POPC   GL143153   4.296  15.235   5.692
 3336POPC   GL243154   4.045  15.075   5.894
 3336POPC   C1A43155   4.488  15.232   6.113
 3336POPC   D2A43156   4.297  15.133   6.485
 3336POPC   C3A43157   4.457  15.274   6.855
 3336POPC   C4A43158   4.681  15.098   7.190
 3336POPC   C1B43159   3.888  15.316   6.240
 3336POPC   C2B43160   3.955  15.470   6.652
 3336POPC   C3B43161   4.008  15.416   7.060
 3336POPC   C4B43162   4.086  15.185   7.397
 3337POPC   NC343163  30.125   6.213   5.480
 3337POPC   PO443164  29.738   5.624   5.309
 3337POPC   GL143165  29.792   5.927   5.728
 3337POPC   GL243166  29.505   6.085   5.919
 3337POPC   C1A43167  29.958   6.112   6.163
 3337POPC   D2A43168  29.794   6.148   6.608
 3337POPC   C3A43169  30.082   6.047   6.967
 3337POPC   C4A43170  30.182   5.662   7.225
 3337POPC   C1B43171  29.672   5.696   6.168
 3337POPC   C2B43172  29.789   5.571   6.577
 3337POPC   C3B43173  29.703   5.724   6.969
 3337POPC   C4B43174  29.663   5.501   7.295
 3338POPC   NC343175   8.370   9.029   5.365
 3338POPC   PO443176   7.771   9.374   5.433
 3338POPC   GL143177   7.967   8.978   5.686
 3338POPC   GL243178   8.332   8.798   5.804
 3338POPC   C1A43179   8.039   9.016   6.138
 3338POPC   D2A43180   7.886   8.872   6.512
 3338POPC   C3A43181   7.939   9.160   6.845
 3338POPC   C4A43182   8.038   8.923   7.189
 3338POPC   C1B43183   8.554   8.650   6.170
 3338POPC   C2B43184   8.724   8.561   6.594
 3338POPC   C3B43185   8.495   8.647   6.958
 3338POPC   C4B43186   8.477   8.771   7.385
 3339POPC   NC343187  44.571  28.670   5.654
 3339POPC   PO443188  44.619  28.032   5.424
 3339POPC   GL143189  44.691  28.210   5.837
 3339POPC   GL243190  44.319  28.238   5.802
 3339POPC   C1A43191  44.781  28.553   6.223
 3339POPC   D2A43192   0.063  28.624   6.533
 3339POPC   C3A43193  44.865  28.570   6.929
 3339POPC   C4A43194  44.997  28.477   7.350
 3339POPC   C1B43195  44.360  28.293   6.230
 3339POPC   C2B43196  44.649  28.227   6.592
 3339POPC   C3B43197  44.510  28.211   6.993
 3339POPC   C4B43198  44.309  27.949   7.279
 3340POPC   NC343199  24.213  44.558   5.430
 3340POPC   PO443200  24.719   0.043   5.304
 3340POPC   GL143201  24.609  44.913   5.739
 3340POPC   GL243202  24.497  44.582   5.830
 3340POPC   C1A43203  24.739  44.838   6.176
 3340POPC   D2A43204  24.731  44.689   6.574
 3340POPC   C3A43205  24.653  44.939   6.888
 3340POPC   C4A43206  24.677  44.892   7.312
 3340POPC   C1B43207  24.380  44.487   6.253
 3340POPC   C2B43208  24.171  44.376   6.628
 3340POPC   C3B43209  24.328  44.571   7.001
 3340POPC   C4B43210  24.369  44.500   7.422
 3341POPC   NC343211  36.620   0.828   5.393
 3341POPC   PO443212  37.306   0.950   5.534
 3341POPC   GL143213  37.064   0.759   5.893
 3341POPC   GL243214  36.687   0.714   5.879
 3341POPC   C1A43215  36.918   0.608   6.333
 3341POPC   D2A43216  37.085   0.584   6.751
 3341POPC   C3A43217  36.822   0.447   7.077
 3341POPC   C4A43218  36.747   0.165   7.448
 3341POPC   C1B43219  36.560   0.315   6.067
 3341POPC   C2B43220  36.446   0.228   6.485
 3341POPC   C3B43221  36.420   0.167   6.906
 3341POPC   C4B43222  36.341   0.401   7.236
 3342POPC   NC343223  44.996  25.519   5.519
 3342POPC   PO443224  44.449  25.041   5.428
 3342POPC   GL143225  44.696  25.155   5.768
 3342POPC   GL243226  44.468  25.381   5.816
 3342POPC   C1A43227  44.898  24.973   6.122
 3342POPC   D2A43228  44.723  24.895   6.509
 3342POPC   C3A43229  44.788  25.128   6.838
 3342POPC   C4A43230  44.776  25.040   7.253
 3342POPC   C1B43231  44.734  25.446   6.190
 3342POPC   C2B43232  44.817  25.590   6.600
 3342POPC   C3B43233  44.733  25.585   7.050
 3342POPC   C4B43234  44.973  25.479   7.418
 3343POPC   NC343235  41.374  34.869   5.477
 3343POPC   PO443236  41.756  34.330   5.210
 3343POPC   GL143237  41.809  34.526   5.730
 3343POPC   GL243238  41.587  34.785   5.938
 3343POPC   C1A43239  41.672  34.345   6.187
 3343POPC   D2A43240  41.458  34.214   6.587
 3343POPC   C3A43241  41.437  34.389   7.031
 3343POPC   C4A43242  41.508  34.663   7.417
 3343POPC   C1B43243  41.639  34.831   6.410
 3343POPC   C2B43244  41.564  34.876   6.858
 3343POPC   C3B43245  41.795  35.038   7.225
 3343POPC   C4B43246  41.981  34.760   7.570
 3344POPC   NC343247   7.994   4.251   5.573
 3344POPC   PO443248   7.359   4.196   5.336
 3344POPC   GL143249   7.335   4.171   5.749
 3344POPC   GL243250   7.603   3.952   5.766
 3344POPC   C1A43251   7.419   4.481   6.085
 3344POPC   D2A43252   7.181   4.585   6.458
 3344POPC   C3A43253   7.358   4.507   6.858
 3344POPC   C4A43254   7.305   4.506   7.252
 3344POPC   C1B43255   7.548   4.017   6.188
 3344POPC   C2B43256   7.601   4.223   6.529
 3344POPC   C3B43257   7.601   4.059   6.968
 3344POPC   C4B43258   7.500   3.919   7.404
 3345POPC   NC343259  40.601  20.890   5.406
 3345POPC   PO443260  40.843  20.283   5.407
 3345POPC   GL143261  40.932  20.549   5.758
 3345POPC   GL243262  40.864  20.887   5.822
 3345POPC   C1A43263  40.950  20.560   6.183
 3345POPC   D2A43264  40.812  20.728   6.564
 3345POPC   C3A43265  40.670  20.358   6.816
 3345POPC   C4A43266  40.835  20.315   7.239
 3345POPC   C1B43267  40.500  20.771   6.111
 3345POPC   C2B43268  40.306  20.678   6.514
 3345POPC   C3B43269  40.453  20.789   6.958
 3345POPC   C4B43270  40.789  21.097   7.072
 3346POPC   NC343271  27.428  24.511   5.310
 3346POPC   PO443272  26.820  24.500   5.292
 3346POPC   GL143273  26.723  24.499   5.717
 3346POPC   GL243274  26.917  24.772   5.856
 3346POPC   C1A43275  26.519  24.542   6.132
 3346POPC   D2A43276  26.403  24.347   6.534
 3346POPC   C3A43277  26.650  24.523   6.848
 3346POPC   C4A43278  26.558  24.635   7.251
 3346POPC   C1B43279  27.177  24.441   6.080
 3346POPC   C2B43280  27.316  24.224   6.469
 3346POPC   C3B43281  27.328  24.156   6.923
 3346POPC   C4B43282  27.058  24.420   7.202
 3347POPC   NC343283  38.629  25.645   5.463
 3347POPC   PO443284  38.911  26.359   5.448
 3347POPC   GL143285  38.656  26.090   5.721
 3347POPC   GL243286  38.291  26.175   5.742
 3347POPC   C1A43287  38.740  25.885   6.123
 3347POPC   D2A43288  38.676  26.045   6.512
 3347POPC   C3A43289  38.639  25.806   6.878
 3347POPC   C4A43290  38.535  26.026   7.230
 3347POPC   C1B43291  38.258  26.073   6.178
 3347POPC   C2B43292  38.192  25.900   6.591
 3347POPC   C3B43293  38.074  25.996   6.990
 3347POPC   C4B43294  38.153  25.790   7.414
 3348POPC   NC343295  32.915  15.536   5.454
 3348POPC   PO443296  32.967  16.234   5.402
 3348POPC   GL143297  32.987  16.131   5.800
 3348POPC   GL243298  33.367  16.145   5.814
 3348POPC   C1A43299  32.785  16.043   6.200
 3348POPC   D2A43300  32.658  15.825   6.598
 3348POPC   C3A43301  32.776  16.076   6.959
 3348POPC   C4A43302  32.879  15.927   7.372
 3348POPC   C1B43303  33.233  15.794   6.096
 3348POPC   C2B43304  33.180  15.953   6.524
 3348POPC   C3B43305  33.198  15.807   6.933
 3348POPC   C4B43306  33.445  15.848   7.252
 3349POPC   NC343307  37.959  20.017   5.413
 3349POPC   PO443308  37.356  19.922   5.182
 3349POPC   GL143309  37.487  20.031   5.624
 3349POPC   GL243310  37.259  19.801   5.735
 3349POPC   C1A43311  37.772  19.996   6.038
 3349POPC   D2A43312  37.881  19.752   6.403
 3349POPC   C3A43313  37.844  19.783   6.855
 3349POPC   C4A43314  38.088  19.574   7.192
 3349POPC   C1B43315  37.282  20.070   6.097
 3349POPC   C2B43316  37.361  19.859   6.484
 3349POPC   C3B43317  37.278  20.030   6.886
 3349POPC   C4B43318  37.446  19.920   7.277
 3350POPC   NC343319   5.649  18.675   5.690
 3350POPC   PO443320   5.730  18.086   5.329
 3350POPC   GL143321   5.942  18.242   5.699
 3350POPC   GL243322   5.635  18.201   5.885
 3350POPC   C1A43323   6.080  18.355   6.131
 3350POPC   D2A43324   6.085  18.482   6.562
 3350POPC   C3A43325   6.070  18.230   6.949
 3350POPC   C4A43326   6.038  18.486   7.305
 3350POPC   C1B43327   5.718  18.017   6.273
 3350POPC   C2B43328   5.658  18.186   6.663
 3350POPC   C3B43329   5.524  18.345   7.065
 3350POPC   C4B43330   5.681  18.162   7.455
 3351POPC   NC343331   2.080   4.667   5.448
 3351POPC   PO443332   1.565   4.283   5.588
 3351POPC   GL143333   1.870   4.367   5.914
 3351POPC   GL243334   2.242   4.416   5.872
 3351POPC   C1A43335   2.041   4.209   6.307
 3351POPC   D2A43336   2.021   4.251   6.775
 3351POPC   C3A43337   1.826   3.944   7.067
 3351POPC   C4A43338   1.786   3.924   7.524
 3351POPC   C1B43339   2.133   4.721   6.176
 3351POPC   C2B43340   2.276   4.835   6.581
 3351POPC   C3B43341   2.351   4.604   6.953
 3351POPC   C4B43342   2.061   4.366   7.266
 3352POPC   NC343343  12.302  43.314   5.315
 3352POPC   PO443344  11.676  43.373   5.224
 3352POPC   GL143345  11.911  43.280   5.673
 3352POPC   GL243346  12.251  43.159   5.810
 3352POPC   C1A43347  11.901  43.176   6.161
 3352POPC   D2A43348  12.070  42.924   6.503
 3352POPC   C3A43349  12.042  43.084   6.935
 3352POPC   C4A43350  11.812  43.009   7.297
 3352POPC   C1B43351  12.416  43.306   6.227
 3352POPC   C2B43352  12.271  43.418   6.636
 3352POPC   C3B43353  12.414  43.439   7.063
 3352POPC   C4B43354  12.332  43.482   7.524
 3353POPC   NC343355  19.023  23.745   5.420
 3353POPC   PO443356  19.552  24.119   5.382
 3353POPC   GL143357  19.344  23.921   5.773
 3353POPC   GL243358  19.232  23.528   5.841
 3353POPC   C1A43359  19.130  23.893   6.187
 3353POPC   D2A43360  19.188  23.525   6.439
 3353POPC   C3A43361  19.094  23.547   6.880
 3353POPC   C4A43362  19.255  23.904   7.128
 3353POPC   C1B43363  18.781  23.554   6.062
 3353POPC   C2B43364  18.698  23.748   6.481
 3353POPC   C3B43365  18.701  23.903   6.918
 3353POPC   C4B43366  18.746  23.644   7.273
 3354POPC   NC343367  21.702   7.761   5.298
 3354POPC   PO443368  21.645   7.160   5.573
 3354POPC   GL143369  21.884   7.410   5.862
 3354POPC   GL243370  22.154   7.576   5.662
 3354POPC   C1A43371  22.014   7.428   6.309
 3354POPC   D2A43372  21.864   7.598   6.710
 3354POPC   C3A43373  21.943   7.364   7.056
 3354POPC   C4A43374  22.256   7.093   7.165
 3354POPC   C1B43375  22.361   7.262   5.967
 3354POPC   C2B43376  22.540   7.330   6.390
 3354POPC   C3B43377  22.430   7.416   6.816
 3354POPC   C4B43378  22.383   7.608   7.216
 3355POPC   NC343379  14.262  25.529   5.358
 3355POPC   PO443380  14.625  24.896   5.404
 3355POPC   GL143381  14.711  25.133   5.785
 3355POPC   GL243382  14.618  25.482   5.768
 3355POPC   C1A43383  14.836  25.276   6.208
 3355POPC   D2A43384  14.675  25.243   6.630
 3355POPC   C3A43385  14.319  25.092   6.826
 3355POPC   C4A43386  14.307  25.101   7.253
 3355POPC   C1B43387  14.383  25.529   6.188
 3355POPC   C2B43388  14.450  25.698   6.629
 3355POPC   C3B43389  14.578  25.509   7.080
 3355POPC   C4B43390  14.538  25.464   7.557
 3356POPC   NC343391  19.951   3.474   5.397
 3356POPC   PO443392  19.549   2.859   5.494
 3356POPC   GL143393  19.661   3.257   5.797
 3356POPC   GL243394  20.016   3.326   5.862
 3356POPC   C1A43395  19.672   3.616   6.151
 3356POPC   D2A43396  19.606   3.888   6.549
 3356POPC   C3A43397  19.609   3.725   6.988
 3356POPC   C4A43398  19.625   3.314   7.224
 3356POPC   C1B43399  20.176   3.561   6.177
 3356POPC   C2B43400  19.993   3.498   6.572
 3356POPC   C3B43401  20.054   3.419   6.983
 3356POPC   C4B43402  20.047   3.729   7.272
 3357POPC   NC343403  38.924   5.681   5.541
 3357POPC   PO443404  39.559   5.459   5.320
 3357POPC   GL143405  39.384   5.621   5.773
 3357POPC   GL243406  39.255   5.947   5.824
 3357POPC   C1A43407  39.272   5.690   6.243
 3357POPC   D2A43408  39.411   5.982   6.580
 3357POPC   C3A43409  39.413   5.721   6.959
 3357POPC   C4A43410  39.255   5.695   7.368
 3357POPC   C1B43411  39.045   6.146   6.213
 3357POPC   C2B43412  38.912   6.045   6.657
 3357POPC   C3B43413  39.107   6.115   7.034
 3357POPC   C4B43414  39.286   6.216   7.405
 3358POPC   NC343415  34.996  42.619   5.540
 3358POPC   PO443416  34.353  42.525   5.459
 3358POPC   GL143417  34.277  42.449   5.865
 3358POPC   GL243418  34.193  42.108   5.943
 3358POPC   C1A43419  34.483  42.420   6.279
 3358POPC   D2A43420  34.297  42.375   6.686
 3358POPC   C3A43421  34.514  42.442   7.095
 3358POPC   C4A43422  34.770  42.502   7.488
 3358POPC   C1B43423  34.397  41.890   6.270
 3358POPC   C2B43424  34.606  41.986   6.615
 3358POPC   C3B43425  34.752  41.836   6.971
 3358POPC   C4B43426  34.745  42.014   7.350
 3359POPC   NC343427  39.023  21.121   5.469
 3359POPC   PO443428  38.390  21.525   5.515
 3359POPC   GL143429  38.459  21.442   5.914
 3359POPC   GL243430  38.659  21.136   5.870
 3359POPC   C1A43431  38.331  21.512   6.347
 3359POPC   D2A43432  38.197  21.568   6.783
 3359POPC   C3A43433  38.427  21.462   7.176
 3359POPC   C4A43434  38.219  21.515   7.587
 3359POPC   C1B43435  38.305  21.023   6.166
 3359POPC   C2B43436  38.358  21.090   6.618
 3359POPC   C3B43437  38.161  21.061   7.000
 3359POPC   C4B43438  38.379  21.006   7.412
 3360POPC   NC343439  44.601   8.543   5.447
 3360POPC   PO443440  44.557   7.890   5.362
 3360POPC   GL143441  44.575   8.122   5.755
 3360POPC   GL243442  44.276   8.336   5.794
 3360POPC   C1A43443  44.762   8.317   6.141
 3360POPC   D2A43444  44.962   8.368   6.560
 3360POPC   C3A43445  44.761   8.214   6.959
 3360POPC   C4A43446  44.438   8.104   7.263
 3360POPC   C1B43447  44.306   8.073   6.194
 3360POPC   C2B43448  44.438   8.294   6.556
 3360POPC   C3B43449  44.526   8.637   6.801
 3360POPC   C4B43450  44.547   8.620   7.246
 3361POPC   NC343451   2.049  26.285   5.464
 3361POPC   PO443452   1.748  25.698   5.564
 3361POPC   GL143453   1.947  25.978   5.870
 3361POPC   GL243454   2.272  26.153   5.914
 3361POPC   C1A43455   1.780  26.204   6.235
 3361POPC   D2A43456   1.505  26.128   6.607
 3361POPC   C3A43457   1.690  26.177   7.054
 3361POPC   C4A43458   2.100  26.275   7.281
 3361POPC   C1B43459   2.195  25.890   6.313
 3361POPC   C2B43460   1.957  25.874   6.717
 3361POPC   C3B43461   2.024  25.777   7.174
 3361POPC   C4B43462   2.182  25.385   7.423
 3362POPC   NC343463   8.315   6.159   5.521
 3362POPC   PO443464   8.023   5.628   5.191
 3362POPC   GL143465   7.952   5.615   5.714
 3362POPC   GL243466   7.956   5.980   5.858
 3362POPC   C1A43467   8.042   5.605   6.194
 3362POPC   D2A43468   7.938   5.726   6.617
 3362POPC   C3A43469   8.239   5.794   6.929
 3362POPC   C4A43470   8.057   5.674   7.300
 3362POPC   C1B43471   8.311   6.057   6.197
 3362POPC   C2B43472   8.572   6.095   6.567
 3362POPC   C3B43473   8.483   6.250   6.967
 3362POPC   C4B43474   8.400   6.112   7.373
 3363POPC   NC343475  37.326  34.784   5.445
 3363POPC   PO443476  37.026  34.165   5.445
 3363POPC   GL143477  37.205  34.340   5.792
 3363POPC   GL243478  37.019  34.611   5.830
 3363POPC   C1A43479  37.253  34.231   6.222
 3363POPC   D2A43480  37.359  34.315   6.644
 3363POPC   C3A43481  37.054  34.279   6.948
 3363POPC   C4A43482  37.146  34.460   7.330
 3363POPC   C1B43483  36.859  34.587   6.251
 3363POPC   C2B43484  37.071  34.736   6.614
 3363POPC   C3B43485  36.964  34.828   7.017
 3363POPC   C4B43486  36.592  34.883   7.208
 3364POPC   NC343487  20.380   8.089   5.069
 3364POPC   PO443488  19.740   8.222   5.399
 3364POPC   GL143489  19.816   8.258   5.847
 3364POPC   GL243490  20.006   8.565   5.874
 3364POPC   C1A43491  19.799   7.940   6.186
 3364POPC   D2A43492  19.593   7.849   6.566
 3364POPC   C3A43493  19.795   7.824   6.973
 3364POPC   C4A43494  19.761   7.888   7.474
 3364POPC   C1B43495  20.021   8.386   6.303
 3364POPC   C2B43496  19.820   8.321   6.701
 3364POPC   C3B43497  19.872   8.274   7.162
 3364POPC   C4B43498  20.196   8.325   7.459
 3365POPC   NC343499  41.130   3.870   5.351
 3365POPC   PO443500  40.538   3.647   5.593
 3365POPC   GL143501  40.771   3.409   5.831
 3365POPC   GL243502  40.476   3.252   5.906
 3365POPC   C1A43503  41.044   3.506   6.199
 3365POPC   D2A43504  41.181   3.665   6.617
 3365POPC   C3A43505  41.020   3.492   6.988
 3365POPC   C4A43506  40.745   3.771   7.204
 3365POPC   C1B43507  40.547   3.421   6.329
 3365POPC   C2B43508  40.555   3.458   6.802
 3365POPC   C3B43509  40.618   3.298   7.270
 3365POPC   C4B43510  40.561   3.455   7.719
 3366POPC   NC343511   9.538  14.862   5.203
 3366POPC   PO443512   9.270  14.222   5.405
 3366POPC   GL143513   9.410  14.337   5.813
 3366POPC   GL243514   9.729  14.489   5.774
 3366POPC   C1A43515   9.622  14.240   6.206
 3366POPC   D2A43516   9.805  14.018   6.557
 3366POPC   C3A43517   9.517  14.196   6.832
 3366POPC   C4A43518   9.478  14.413   7.241
 3366POPC   C1B43519   9.969  14.618   6.121
 3366POPC   C2B43520   9.893  14.527   6.528
 3366POPC   C3B43521   9.957  14.527   6.943
 3366POPC   C4B43522  10.005  14.698   7.342
 3367POPC   NC343523  28.650   9.917   5.400
 3367POPC   PO443524  28.243   9.444   5.442
 3367POPC   GL143525  28.365   9.594   5.827
 3367POPC   GL243526  28.306   9.955   5.814
 3367POPC   C1A43527  28.289   9.359   6.230
 3367POPC   D2A43528  28.330   9.641   6.582
 3367POPC   C3A43529  28.318   9.521   6.999
 3367POPC   C4A43530  28.338   9.530   7.434
 3367POPC   C1B43531  28.426  10.050   6.256
 3367POPC   C2B43532  28.261  10.144   6.689
 3367POPC   C3B43533  28.369  10.030   7.137
 3367POPC   C4B43534  28.386  10.021   7.605
 3368POPC   NC343535  31.274  19.866   5.264
 3368POPC   PO443536  31.814  19.420   5.407
 3368POPC   GL143537  31.558  19.586   5.713
 3368POPC   GL243538  31.346  19.889   5.778
 3368POPC   C1A43539  31.657  19.607   6.122
 3368POPC   D2A43540  31.561  19.435   6.496
 3368POPC   C3A43541  31.650  19.592   6.868
 3368POPC   C4A43542  31.431  19.563   7.193
 3368POPC   C1B43543  31.405  20.036   6.204
 3368POPC   C2B43544  31.326  19.906   6.623
 3368POPC   C3B43545  31.434  20.052   7.053
 3368POPC   C4B43546  31.396  20.318   7.400
 3369POPC   NC343547  22.822  23.880   5.302
 3369POPC   PO443548  23.055  23.243   5.529
 3369POPC   GL143549  22.998  23.572   5.871
 3369POPC   GL243550  23.007  23.966   5.811
 3369POPC   C1A43551  23.064  23.490   6.325
 3369POPC   D2A43552  23.369  23.381   6.649
 3369POPC   C3A43553  23.167  23.191   6.980
 3369POPC   C4A43554  22.982  23.587   7.067
 3369POPC   C1B43555  22.846  23.962   6.262
 3369POPC   C2B43556  22.878  24.001   6.730
 3369POPC   C3B43557  22.916  24.094   7.166
 3369POPC   C4B43558  23.030  24.211   7.582
 3370POPC   NC343559  35.481  42.371   5.269
 3370POPC   PO443560  34.963  42.139   5.591
 3370POPC   GL143561  35.294  42.358   5.845
 3370POPC   GL243562  35.629  42.435   5.873
 3370POPC   C1A43563  35.272  42.450   6.267
 3370POPC   D2A43564  34.984  42.326   6.569
 3370POPC   C3A43565  35.011  42.500   6.960
 3370POPC   C4A43566  35.237  42.383   7.277
 3370POPC   C1B43567  35.767  42.521   6.268
 3370POPC   C2B43568  35.587  42.566   6.689
 3370POPC   C3B43569  35.750  42.343   7.025
 3370POPC   C4B43570  35.684  42.233   7.461
 3371POPC   NC343571  26.585  42.579   5.585
 3371POPC   PO443572  27.277  42.331   5.413
 3371POPC   GL143573  26.964  42.263   5.757
 3371POPC   GL243574  26.797  41.965   5.721
 3371POPC   C1A43575  26.854  42.404   6.207
 3371POPC   D2A43576  27.005  42.301   6.647
 3371POPC   C3A43577  26.933  42.451   7.086
 3371POPC   C4A43578  27.011  42.091   7.380
 3371POPC   C1B43579  26.580  41.963   6.151
 3371POPC   C2B43580  26.491  42.131   6.555
 3371POPC   C3B43581  26.627  42.064   6.987
 3371POPC   C4B43582  26.384  42.012   7.359
 3372POPC   NC343583  11.059  26.665   5.523
 3372POPC   PO443584  11.491  27.277   5.559
 3372POPC   GL143585  11.281  26.995   5.906
 3372POPC   GL243586  11.299  26.645   5.975
 3372POPC   C1A43587  11.199  26.950   6.377
 3372POPC   D2A43588  11.171  26.727   6.797
 3372POPC   C3A43589  11.256  27.105   7.048
 3372POPC   C4A43590  11.553  27.332   7.362
 3372POPC   C1B43591  11.527  26.546   6.350
 3372POPC   C2B43592  11.606  26.364   6.773
 3372POPC   C3B43593  11.422  26.393   7.206
 3372POPC   C4B43594  11.635  26.516   7.600
 3373POPC   NC343595  35.978  25.534   5.494
 3373POPC   PO443596  36.229  24.995   5.606
 3373POPC   GL143597  35.904  25.120   5.934
 3373POPC   GL243598  35.713  25.445   5.927
 3373POPC   C1A43599  36.055  24.949   6.367
 3373POPC   D2A43600  36.449  24.881   6.611
 3373POPC   C3A43601  36.531  25.191   6.885
 3373POPC   C4A43602  36.281  25.157   7.214
 3373POPC   C1B43603  36.090  25.556   6.165
 3373POPC   C2B43604  36.174  25.397   6.580
 3373POPC   C3B43605  36.102  25.566   6.983
 3373POPC   C4B43606  35.771  25.668   7.266
 3374POPC   NC343607  23.070   5.310   5.427
 3374POPC   PO443608  22.443   5.344   5.376
 3374POPC   GL143609  22.687   5.127   5.737
 3374POPC   GL243610  22.993   5.275   5.917
 3374POPC   C1A43611  22.758   4.806   6.099
 3374POPC   D2A43612  22.719   4.786   6.583
 3374POPC   C3A43613  22.832   4.921   7.024
 3374POPC   C4A43614  22.569   4.827   7.380
 3374POPC   C1B43615  22.973   5.192   6.343
 3374POPC   C2B43616  23.213   5.066   6.696
 3374POPC   C3B43617  23.168   5.323   7.061
 3374POPC   C4B43618  22.938   5.414   7.424
 3375POPC   NC343619   4.046  36.504   5.354
 3375POPC   PO443620   4.655  36.747   5.545
 3375POPC   GL143621   4.486  36.465   5.848
 3375POPC   GL243622   4.176  36.255   5.781
 3375POPC   C1A43623   4.390  36.332   6.272
 3375POPC   D2A43624   4.249  36.392   6.702
 3375POPC   C3A43625   4.312  36.327   7.121
 3375POPC   C4A43626   4.521  36.294   7.495
 3375POPC   C1B43627   4.106  35.906   6.055
 3375POPC   C2B43628   4.161  35.936   6.490
 3375POPC   C3B43629   4.197  35.852   6.923
 3375POPC   C4B43630   4.349  35.847   7.354
 3376POPC   NC343631  44.741  12.261   5.008
 3376POPC   PO443632  44.591  11.926   5.517
 3376POPC   GL143633  44.674  12.187   5.835
 3376POPC   GL243634  44.883  12.429   5.641
 3376POPC   C1A43635  44.551  12.175   6.262
 3376POPC   D2A43636  44.680  11.938   6.629
 3376POPC   C3A43637  44.535  12.048   7.039
 3376POPC   C4A43638  44.566  11.847   7.454
 3376POPC   C1B43639  44.999  12.453   6.107
 3376POPC   C2B43640  44.926  12.380   6.545
 3376POPC   C3B43641  44.990  12.332   6.972
 3376POPC   C4B43642  44.909  12.194   7.359
 3377POPC   NC343643  18.745  34.647   5.569
 3377POPC   PO443644  19.362  34.255   5.472
 3377POPC   GL143645  19.272  34.514   5.827
 3377POPC   GL243646  18.942  34.418   5.975
 3377POPC   C1A43647  19.234  34.667   6.286
 3377POPC   D2A43648  19.022  34.349   6.566
 3377POPC   C3A43649  19.203  34.364   6.991
 3377POPC   C4A43650  19.339  34.374   7.438
 3377POPC   C1B43651  18.745  34.673   6.237
 3377POPC   C2B43652  18.779  34.810   6.632
 3377POPC   C3B43653  18.747  34.662   7.000
 3377POPC   C4B43654  18.875  34.517   7.366
 3378POPC   NC343655  27.372   1.316   5.478
 3378POPC   PO443656  27.955   0.910   5.434
 3378POPC   GL143657  27.743   1.167   5.797
 3378POPC   GL243658  27.449   0.963   5.850
 3378POPC   C1A43659  27.416   1.394   6.131
 3378POPC   D2A43660  27.217   1.348   6.586
 3378POPC   C3A43661  27.305   1.492   7.041
 3378POPC   C4A43662  27.360   1.380   7.526
 3378POPC   C1B43663  27.581   0.940   6.252
 3378POPC   C2B43664  27.732   1.242   6.524
 3378POPC   C3B43665  27.549   0.998   6.830
 3378POPC   C4B43666  27.349   1.015   7.180
 3379POPC   NC343667  21.683   1.460   5.367
 3379POPC   PO443668  21.190   0.976   5.288
 3379POPC   GL143669  21.270   1.216   5.685
 3379POPC   GL243670  21.614   1.147   5.783
 3379POPC   C1A43671  21.343   1.308   6.164
 3379POPC   D2A43672  21.189   1.409   6.601
 3379POPC   C3A43673  21.309   1.200   6.992
 3379POPC   C4A43674  21.165   0.791   7.114
 3379POPC   C1B43675  21.698   0.909   6.206
 3379POPC   C2B43676  21.534   0.833   6.666
 3379POPC   C3B43677  21.680   0.856   7.121
 3379POPC   C4B43678  21.729   1.207   7.406
 3380POPC   NC343679  10.491  39.547   5.528
 3380POPC   PO443680  10.683  38.909   5.319
 3380POPC   GL143681  10.550  39.082   5.730
 3380POPC   GL243682  10.334  38.864   5.775
 3380POPC   C1A43683  10.432  39.317   6.135
 3380POPC   D2A43684  10.671  39.447   6.497
 3380POPC   C3A43685  10.501  39.504   6.882
 3380POPC   C4A43686  10.672  39.314   7.264
 3380POPC   C1B43687  10.096  38.930   6.150
 3380POPC   C2B43688  10.219  39.084   6.561
 3380POPC   C3B43689  10.322  39.010   6.999
 3380POPC   C4B43690  10.047  38.948   7.357
 3381POPC   NC343691  14.291  39.738   5.291
 3381POPC   PO443692  14.853  39.981   5.429
 3381POPC   GL143693  14.652  40.137   5.798
 3381POPC   GL243694  14.314  39.990   5.756
 3381POPC   C1A43695  14.525  40.085   6.221
 3381POPC   D2A43696  14.350  40.061   6.626
 3381POPC   C3A43697  14.506  39.841   6.958
 3381POPC   C4A43698  14.599  39.975   7.361
 3381POPC   C1B43699  14.033  40.019   6.139
 3381POPC   C2B43700  13.884  40.228   6.537
 3381POPC   C3B43701  14.036  40.351   6.915
 3381POPC   C4B43702  14.104  40.082   7.256
 3382POPC   NC343703  11.319  39.746   5.415
 3382POPC   PO443704  11.552  40.302   5.694
 3382POPC   GL143705  11.261  39.991   5.880
 3382POPC   GL243706  11.076  39.627   5.834
 3382POPC   C1A43707  11.449  39.826   6.276
 3382POPC   D2A43708  11.577  39.812   6.732
 3382POPC   C3A43709  11.342  39.990   7.086
 3382POPC   C4A43710  11.536  40.290   7.421
 3382POPC   C1B43711  10.945  39.773   6.210
 3382POPC   C2B43712  11.074  39.759   6.618
 3382POPC   C3B43713  11.001  39.542   6.942
 3382POPC   C4B43714  11.205  39.539   7.295
 3383POPC   NC343715  28.009  38.298   5.516
 3383POPC   PO443716  27.664  38.835   5.375
 3383POPC   GL143717  27.789  38.698   5.815
 3383POPC   GL243718  28.120  38.720   5.809
 3383POPC   C1A43719  27.616  38.523   6.242
 3383POPC   D2A43720  27.651  38.335   6.650
 3383POPC   C3A43721  27.452  38.594   6.951
 3383POPC   C4A43722  27.216  38.736   7.288
 3383POPC   C1B43723  28.112  38.552   6.209
 3383POPC   C2B43724  28.087  38.649   6.647
 3383POPC   C3B43725  27.945  38.493   7.045
 3383POPC   C4B43726  27.706  38.624   7.393
 3384POPC   NC343727  14.070  40.663   5.312
 3384POPC   PO443728  13.504  40.938   5.491
 3384POPC   GL143729  13.808  40.746   5.755
 3384POPC   GL243730  13.637  40.478   5.720
 3384POPC   C1A43731  13.884  40.553   6.158
 3384POPC   D2A43732  13.910  40.759   6.562
 3384POPC   C3A43733  13.661  40.702   6.915
 3384POPC   C4A43734  13.590  40.894   7.277
 3384POPC   C1B43735  13.389  40.634   6.071
 3384POPC   C2B43736  13.396  40.533   6.490
 3384POPC   C3B43737  13.178  40.614   6.845
 3384POPC   C4B43738  13.186  40.573   7.265
 3385POPC   NC343739  27.971  19.952   5.592
 3385POPC   PO443740  28.502  20.106   5.219
 3385POPC   GL143741  28.684  20.033   5.672
 3385POPC   GL243742  28.376  20.003   5.881
 3385POPC   C1A43743  28.773  19.801   6.089
 3385POPC   D2A43744  28.899  19.811   6.504
 3385POPC   C3A43745  28.832  19.928   6.898
 3385POPC   C4A43746  28.699  19.699   7.196
 3385POPC   C1B43747  28.312  19.759   6.287
 3385POPC   C2B43748  28.378  19.672   6.739
 3385POPC   C3B43749  28.269  19.945   7.095
 3385POPC   C4B43750  27.943  20.241   7.265
 3386POPC   NC343751  32.118  23.791   5.270
 3386POPC   PO443752  32.572  23.393   5.503
 3386POPC   GL143753  32.352  23.498   5.841
 3386POPC   GL243754  32.263  23.819   5.792
 3386POPC   C1A43755  32.234  23.549   6.282
 3386POPC   D2A43756  32.386  23.821   6.621
 3386POPC   C3A43757  32.415  23.608   7.018
 3386POPC   C4A43758  32.063  23.510   7.297
 3386POPC   C1B43759  32.178  24.050   6.168
 3386POPC   C2B43760  31.889  24.017   6.506
 3386POPC   C3B43761  31.912  23.743   6.859
 3386POPC   C4B43762  31.710  23.865   7.251
 3387POPC   NC343763  36.381   3.376   5.514
 3387POPC   PO443764  35.819   3.656   5.250
 3387POPC   GL143765  35.950   3.622   5.759
 3387POPC   GL243766  36.286   3.627   5.948
 3387POPC   C1A43767  35.861   3.448   6.157
 3387POPC   D2A43768  36.129   3.563   6.461
 3387POPC   C3A43769  36.020   3.543   6.863
 3387POPC   C4A43770  35.778   3.307   7.151
 3387POPC   C1B43771  36.295   3.191   6.149
 3387POPC   C2B43772  36.383   3.069   6.575
 3387POPC   C3B43773  36.341   3.191   7.038
 3387POPC   C4B43774  36.373   3.647   7.199
 3388POPC   NC343775  12.549  37.326   5.453
 3388POPC   PO443776  12.832  37.977   5.535
 3388POPC   GL143777  13.007  37.651   5.826
 3388POPC   GL243778  12.925  37.329   5.793
 3388POPC   C1A43779  13.049  37.602   6.271
 3388POPC   D2A43780  12.865  37.801   6.602
 3388POPC   C3A43781  13.002  37.842   6.972
 3388POPC   C4A43782  12.709  37.816   7.340
 3388POPC   C1B43783  12.701  37.253   6.156
 3388POPC   C2B43784  12.822  37.239   6.591
 3388POPC   C3B43785  12.810  37.341   7.014
 3388POPC   C4B43786  13.096  37.487   7.313
 3389POPC   NC343787   9.475   2.231   5.393
 3389POPC   PO443788   9.513   2.922   5.324
 3389POPC   GL143789   9.625   2.948   5.756
 3389POPC   GL243790   9.641   2.589   5.787
 3389POPC   C1A43791   9.992   2.929   6.052
 3389POPC   D2A43792  10.131   2.739   6.460
 3389POPC   C3A43793   9.913   2.894   6.807
 3389POPC   C4A43794  10.042   3.087   7.167
 3389POPC   C1B43795   9.748   2.498   6.228
 3389POPC   C2B43796   9.684   2.438   6.666
 3389POPC   C3B43797   9.710   2.515   7.123
 3389POPC   C4B43798   9.626   2.891   7.441
 3390POPC   NC343799   7.051  41.035   5.441
 3390POPC   PO443800   7.659  40.630   5.553
 3390POPC   GL143801   7.495  40.926   5.783
 3390POPC   GL243802   7.168  40.806   5.943
 3390POPC   C1A43803   7.642  40.899   6.197
 3390POPC   D2A43804   7.513  40.638   6.502
 3390POPC   C3A43805   7.391  40.903   6.853
 3390POPC   C4A43806   7.594  41.236   7.079
 3390POPC   C1B43807   7.167  40.371   6.175
 3390POPC   C2B43808   7.064  40.165   6.577
 3390POPC   C3B43809   6.992  40.329   7.019
 3390POPC   C4B43810   7.136  40.710   7.260
 3391POPC   NC343811   5.083  43.423   5.166
 3391POPC   PO443812   5.199  42.831   5.466
 3391POPC   GL143813   5.164  43.062   5.863
 3391POPC   GL243814   5.174  43.439   5.803
 3391POPC   C1A43815   5.264  42.947   6.276
 3391POPC   D2A43816   5.160  43.148   6.654
 3391POPC   C3A43817   5.021  42.893   6.980
 3391POPC   C4A43818   4.750  43.039   7.299
 3391POPC   C1B43819   5.410  43.427   6.208
 3391POPC   C2B43820   5.661  43.162   6.528
 3391POPC   C3B43821   5.558  43.331   6.923
 3391POPC   C4B43822   5.285  43.262   7.252
 3392POPC   NC343823  22.079   3.087   5.451
 3392POPC   PO443824  22.294   2.445   5.425
 3392POPC   GL143825  22.113   2.659   5.782
 3392POPC   GL243826  22.344   2.936   5.884
 3392POPC   C1A43827  22.137   2.496   6.218
 3392POPC   D2A43828  22.224   2.650   6.615
 3392POPC   C3A43829  22.074   2.408   6.913
 3392POPC   C4A43830  21.861   2.580   7.180
 3392POPC   C1B43831  22.001   2.992   6.217
 3392POPC   C2B43832  21.815   2.961   6.633
 3392POPC   C3B43833  22.070   3.014   6.960
 3392POPC   C4B43834  22.441   3.220   7.135
 3393POPC   NC343835   8.510  30.529   5.288
 3393POPC   PO443836   9.182  30.648   5.196
 3393POPC   GL143837   9.066  30.581   5.731
 3393POPC   GL243838   8.705  30.595   5.749
 3393POPC   C1A43839   9.210  30.628   6.193
 3393POPC   D2A43840   8.997  30.691   6.559
 3393POPC   C3A43841   9.233  30.748   6.914
 3393POPC   C4A43842   9.021  30.772   7.307
 3393POPC   C1B43843   8.776  30.377   6.119
 3393POPC   C2B43844   8.916  30.203   6.500
 3393POPC   C3B43845   8.898  30.353   6.936
 3393POPC   C4B43846   8.726  30.359   7.348
 3394POPC   NC343847  18.241  26.766   5.054
 3394POPC   PO443848  18.070  26.617   5.682
 3394POPC   GL143849  18.229  26.682   6.011
 3394POPC   GL243850  18.555  26.732   5.870
 3394POPC   C1A43851  18.188  26.609   6.440
 3394POPC   D2A43852  18.227  26.820   6.815
 3394POPC   C3A43853  17.911  26.685   7.128
 3394POPC   C4A43854  17.984  26.710   7.575
 3394POPC   C1B43855  18.648  26.839   6.276
 3394POPC   C2B43856  18.675  27.040   6.655
 3394POPC   C3B43857  18.558  27.257   7.018
 3394POPC   C4B43858  18.295  27.018   7.282
 3395POPC   NC343859  13.174  35.869   5.486
 3395POPC   PO443860  12.562  36.169   5.376
 3395POPC   GL143861  12.787  36.096   5.738
 3395POPC   GL243862  12.992  36.342   5.811
 3395POPC   C1A43863  12.714  35.917   6.142
 3395POPC   D2A43864  12.656  35.742   6.540
 3395POPC   C3A43865  12.690  35.942   6.896
 3395POPC   C4A43866  12.872  35.856   7.278
 3395POPC   C1B43867  13.132  36.201   6.184
 3395POPC   C2B43868  13.004  36.226   6.588
 3395POPC   C3B43869  13.163  36.161   6.979
 3395POPC   C4B43870  13.131  36.489   7.241
 3396POPC   NC343871  40.864  23.095   5.456
 3396POPC   PO443872  40.236  22.791   5.671
 3396POPC   GL143873  40.586  22.844   5.891
 3396POPC   GL243874  40.830  22.604   5.715
 3396POPC   C1A43875  40.599  22.862   6.368
 3396POPC   D2A43876  40.575  22.661   6.793
 3396POPC   C3A43877  40.629  22.948   7.141
 3396POPC   C4A43878  40.922  23.329   7.187
 3396POPC   C1B43879  41.008  22.660   6.115
 3396POPC   C2B43880  41.074  22.640   6.561
 3396POPC   C3B43881  41.116  22.852   6.959
 3396POPC   C4B43882  41.039  22.757   7.396
 3397POPC   NC343883  28.212   3.791   5.470
 3397POPC   PO443884  28.751   3.489   5.322
 3397POPC   GL143885  28.527   3.473   5.810
 3397POPC   GL243886  28.210   3.636   5.929
 3397POPC   C1A43887  28.471   3.471   6.308
 3397POPC   D2A43888  28.283   3.288   6.653
 3397POPC   C3A43889  28.403   3.379   7.060
 3397POPC   C4A43890  28.100   3.469   7.346
 3397POPC   C1B43891  28.211   3.910   6.292
 3397POPC   C2B43892  28.302   3.816   6.716
 3397POPC   C3B43893  28.317   3.881   7.139
 3397POPC   C4B43894  28.353   3.868   7.605
 3398POPC   NC343895  16.304  32.698   5.190
 3398POPC   PO443896  15.918  32.217   5.511
 3398POPC   GL143897  15.773  32.216   5.880
 3398POPC   GL243898  15.638  31.894   5.843
 3398POPC   C1A43899  15.967  32.036   6.242
 3398POPC   D2A43900  16.125  32.060   6.655
 3398POPC   C3A43901  15.953  32.406   6.902
 3398POPC   C4A43902  15.949  32.295   7.324
 3398POPC   C1B43903  15.461  31.948   6.239
 3398POPC   C2B43904  15.584  32.085   6.637
 3398POPC   C3B43905  15.640  31.967   7.050
 3398POPC   C4B43906  15.350  31.938   7.389
 3399POPC   NC343907   6.131   1.523   5.505
 3399POPC   PO443908   6.680   1.157   5.373
 3399POPC   GL143909   6.545   1.199   5.772
 3399POPC   GL243910   6.237   1.020   5.704
 3399POPC   C1A43911   6.764   1.177   6.178
 3399POPC   D2A43912   6.976   1.120   6.599
 3399POPC   C3A43913   6.933   1.406   6.928
 3399POPC   C4A43914   6.702   1.319   7.269
 3399POPC   C1B43915   6.332   0.879   6.126
 3399POPC   C2B43916   6.538   0.871   6.521
 3399POPC   C3B43917   6.448   1.060   6.918
 3399POPC   C4B43918   6.382   0.944   7.370
 3400POPC   NC343919   5.709   8.741   5.301
 3400POPC   PO443920   6.123   9.231   5.420
 3400POPC   GL143921   5.894   8.989   5.733
 3400POPC   GL243922   6.028   8.628   5.697
 3400POPC   C1A43923   5.745   9.069   6.176
 3400POPC   D2A43924   5.857   9.243   6.578
 3400POPC   C3A43925   5.697   8.959   6.909
 3400POPC   C4A43926   5.691   8.885   7.333
 3400POPC   C1B43927   6.141   8.750   6.139
 3400POPC   C2B43928   6.032   8.757   6.554
 3400POPC   C3B43929   6.220   8.969   6.894
 3400POPC   C4B43930   6.242   8.953   7.340
 3401POPC   NC343931  32.912  41.233   5.300
 3401POPC   PO443932  33.362  41.709   5.349
 3401POPC   GL143933  33.183  41.463   5.687
 3401POPC   GL243934  32.813  41.525   5.735
 3401POPC   C1A43935  33.086  41.286   6.111
 3401POPC   D2A43936  33.098  41.527   6.508
 3401POPC   C3A43937  33.295  41.449   6.920
 3401POPC   C4A43938  33.340  41.737   7.265
 3401POPC   C1B43939  32.657  41.606   6.162
 3401POPC   C2B43940  32.608  41.396   6.551
 3401POPC   C3B43941  32.794  41.386   6.931
 3401POPC   C4B43942  32.708  41.440   7.372
 3402POPC   NC343943  42.080  30.888   5.250
 3402POPC   PO443944  41.395  30.752   5.376
 3402POPC   GL143945  41.531  30.713   5.816
 3402POPC   GL243946  41.873  30.774   5.708
 3402POPC   C1A43947  41.519  30.589   6.301
 3402POPC   D2A43948  41.441  30.771   6.735
 3402POPC   C3A43949  41.529  30.536   7.121
 3402POPC   C4A43950  41.787  30.459   7.476
 3402POPC   C1B43951  41.940  30.864   6.152
 3402POPC   C2B43952  41.998  30.689   6.597
 3402POPC   C3B43953  41.912  30.860   7.030
 3402POPC   C4B43954  41.860  30.985   7.495
 3403POPC   NC343955  14.815  30.143   5.410
 3403POPC   PO443956  15.100  30.843   5.376
 3403POPC   GL143957  15.253  30.731   5.779
 3403POPC   GL243958  15.100  30.387   5.793
 3403POPC   C1A43959  15.386  30.932   6.185
 3403POPC   D2A43960  15.221  31.106   6.598
 3403POPC   C3A43961  15.265  30.969   7.020
 3403POPC   C4A43962  15.519  30.800   7.327
 3403POPC   C1B43963  15.324  30.413   6.182
 3403POPC   C2B43964  15.373  30.604   6.608
 3403POPC   C3B43965  15.338  30.423   6.998
 3403POPC   C4B43966  15.076  30.485   7.300
 3404POPC   NC343967  34.118   7.412   5.525
 3404POPC   PO443968  33.541   7.678   5.400
 3404POPC   GL143969  33.691   7.526   5.835
 3404POPC   GL243970  33.823   7.185   5.873
 3404POPC   C1A43971  33.763   7.593   6.323
 3404POPC   D2A43972  33.582   7.692   6.756
 3404POPC   C3A43973  33.786   7.536   7.143
 3404POPC   C4A43974  33.762   7.635   7.612
 3404POPC   C1B43975  33.597   7.112   6.221
 3404POPC   C2B43976  33.439   7.206   6.616
 3404POPC   C3B43977  33.579   7.082   7.026
 3404POPC   C4B43978  33.727   7.125   7.465
 3405POPC   NC343979  27.950  39.804   5.731
 3405POPC   PO443980  28.447  40.121   5.339
 3405POPC   GL143981  28.424  40.024   5.776
 3405POPC   GL243982  28.414  39.655   5.877
 3405POPC   C1A43983  28.486  40.043   6.229
 3405POPC   D2A43984  28.817  39.989   6.534
 3405POPC   C3A43985  28.667  40.166   6.895
 3405POPC   C4A43986  28.706  40.138   7.322
 3405POPC   C1B43987  28.172  39.636   6.306
 3405POPC   C2B43988  28.344  39.788   6.693
 3405POPC   C3B43989  28.303  39.865   7.116
 3405POPC   C4B43990  27.995  39.684   7.348
 3406POPC   NC343991  17.604  27.826   5.410
 3406POPC   PO443992  17.334  27.248   5.637
 3406POPC   GL143993  17.646  27.517   5.879
 3406POPC   GL243994  17.793  27.864   5.886
 3406POPC   C1A43995  17.628  27.536   6.326
 3406POPC   D2A43996  17.419  27.287   6.653
 3406POPC   C3A43997  17.473  27.437   7.067
 3406POPC   C4A43998  17.367  27.679   7.412
 3406POPC   C1B43999  17.433  27.968   6.153
 3406POPC   C2B44000  17.256  27.887   6.577
 3406POPC   C3B44001  17.456  27.952   6.979
 3406POPC   C4B44002  17.826  27.808   7.186
 3407POPC   NC344003  41.147  26.200   5.309
 3407POPC   PO444004  40.568  25.739   5.322
 3407POPC   GL144005  40.748  26.053   5.629
 3407POPC   GL244006  41.067  25.943   5.761
 3407POPC   C1A44007  40.696  26.261   6.052
 3407POPC   D2A44008  40.521  26.070   6.433
 3407POPC   C3A44009  40.671  26.203   6.836
 3407POPC   C4A44010  40.638  26.013   7.246
 3407POPC   C1B44011  40.866  25.782   6.149
 3407POPC   C2B44012  40.968  25.859   6.581
 3407POPC   C3B44013  41.051  25.818   6.995
 3407POPC   C4B44014  41.153  25.908   7.412
 3408POPC   NC344015  36.968  20.062   5.391
 3408POPC   PO444016  36.869  20.759   5.434
 3408POPC   GL144017  36.924  20.673   5.863
 3408POPC   GL244018  36.857  20.301   5.839
 3408POPC   C1A44019  37.173  20.735   6.275
 3408POPC   D2A44020  37.248  20.548   6.717
 3408POPC   C3A44021  37.168  20.776   7.142
 3408POPC   C4A44022  37.301  20.783   7.627
 3408POPC   C1B44023  36.867  20.323   6.273
 3408POPC   C2B44024  36.764  20.380   6.687
 3408POPC   C3B44025  36.895  20.317   7.101
 3408POPC   C4B44026  36.610  20.186   7.439
 3409POPC   NC344027   6.057  38.506   5.547
 3409POPC   PO444028   5.340  38.557   5.548
 3409POPC   GL144029   5.636  38.627   5.817
 3409POPC   GL244030   5.710  38.276   5.852
 3409POPC   C1A44031   5.801  38.620   6.217
 3409POPC   D2A44032   5.727  38.342   6.520
 3409POPC   C3A44033   5.839  38.532   6.887
 3409POPC   C4A44034   5.758  38.644   7.286
 3409POPC   C1B44035   6.076  38.198   6.144
 3409POPC   C2B44036   6.134  38.048   6.591
 3409POPC   C3B44037   5.983  38.060   7.027
 3409POPC   C4B44038   6.209  38.401   7.289
 3410POPC   NC344039  24.519  14.502   5.140
 3410POPC   PO444040  24.094  14.096   5.605
 3410POPC   GL144041  24.316  14.366   5.838
 3410POPC   GL244042  24.605  14.543   5.718
 3410POPC   C1A44043  24.472  14.333   6.230
 3410POPC   D2A44044  24.599  14.561   6.566
 3410POPC   C3A44045  24.518  14.284   6.884
 3410POPC   C4A44046  24.481  14.227   7.283
 3410POPC   C1B44047  24.913  14.561   6.120
 3410POPC   C2B44048  25.108  14.594   6.589
 3410POPC   C3B44049  24.913  14.572   7.046
 3410POPC   C4B44050  24.882  14.398   7.536
 3411POPC   NC344051   2.286   2.413   5.488
 3411POPC   PO444052   1.931   1.765   5.371
 3411POPC   GL144053   1.883   2.104   5.720
 3411POPC   GL244054   2.193   2.051   5.834
 3411POPC   C1A44055   1.795   2.060   6.181
 3411POPC   D2A44056   1.910   1.687   6.457
 3411POPC   C3A44057   1.919   1.741   6.900
 3411POPC   C4A44058   1.749   2.009   7.194
 3411POPC   C1B44059   2.324   1.941   6.245
 3411POPC   C2B44060   2.372   1.819   6.668
 3411POPC   C3B44061   2.386   1.686   7.101
 3411POPC   C4B44062   2.372   1.869   7.497
 3412POPC   NC344063  35.689   4.109   5.083
 3412POPC   PO444064  35.331   4.280   5.636
 3412POPC   GL144065  35.406   4.540   5.949
 3412POPC   GL244066  35.102   4.481   6.081
 3412POPC   C1A44067  35.569   4.364   6.319
 3412POPC   D2A44068  35.346   4.209   6.665
 3412POPC   C3A44069  35.599   4.264   6.984
 3412POPC   C4A44070  35.587   4.075   7.355
 3412POPC   C1B44071  35.192   4.702   6.472
 3412POPC   C2B44072  35.120   4.742   6.902
 3412POPC   C3B44073  35.138   4.376   7.145
 3412POPC   C4B44074  35.125   4.226   7.555
 3413POPC   NC344075  18.546  20.200   5.494
 3413POPC   PO444076  18.049  19.673   5.487
 3413POPC   GL144077  18.177  19.969   5.759
 3413POPC   GL244078  18.515  19.803   5.799
 3413POPC   C1A44079  18.297  20.099   6.160
 3413POPC   D2A44080  18.146  19.951   6.523
 3413POPC   C3A44081  18.364  20.103   6.862
 3413POPC   C4A44082  18.255  20.218   7.269
 3413POPC   C1B44083  18.591  19.548   6.158
 3413POPC   C2B44084  18.412  19.523   6.570
 3413POPC   C3B44085  18.166  19.591   6.920
 3413POPC   C4B44086  18.391  19.721   7.230
 3414POPC   NC344087  29.561   6.846   5.584
 3414POPC   PO444088  29.053   6.345   5.411
 3414POPC   GL144089  29.060   6.539   5.803
 3414POPC   GL244090  29.365   6.573   5.962
 3414POPC   C1A44091  28.932   6.538   6.251
 3414POPC   D2A44092  28.882   6.884   6.540
 3414POPC   C3A44093  29.165   6.920   6.891
 3414POPC   C4A44094  29.188   6.618   7.219
 3414POPC   C1B44095  29.365   6.773   6.375
 3414POPC   C2B44096  29.491   6.551   6.745
 3414POPC   C3B44097  29.555   6.234   7.076
 3414POPC   C4B44098  29.525   6.347   7.509
 3415POPC   NC344099  34.459  31.564   5.458
 3415POPC   PO444100  34.939  31.001   5.394
 3415POPC   GL144101  34.891  31.189   5.809
 3415POPC   GL244102  34.825  31.559   5.827
 3415POPC   C1A44103  34.853  31.255   6.263
 3415POPC   D2A44104  34.878  31.524   6.622
 3415POPC   C3A44105  34.613  31.506   6.992
 3415POPC   C4A44106  34.665  31.433   7.436
 3415POPC   C1B44107  34.474  31.580   6.141
 3415POPC   C2B44108  34.395  31.716   6.567
 3415POPC   C3B44109  34.312  31.943   6.963
 3415POPC   C4B44110  34.273  31.732   7.332
 3416POPC   NC344111  31.079  17.189   5.413
 3416POPC   PO444112  30.579  17.712   5.347
 3416POPC   GL144113  30.708  17.516   5.733
 3416POPC   GL244114  31.026  17.631   5.884
 3416POPC   C1A44115  30.722  17.198   6.063
 3416POPC   D2A44116  30.886  17.151   6.508
 3416POPC   C3A44117  30.693  17.185   6.933
 3416POPC   C4A44118  30.815  17.224   7.369
 3416POPC   C1B44119  30.748  17.667   6.278
 3416POPC   C2B44120  30.520  17.607   6.710
 3416POPC   C3B44121  30.730  17.681   7.127
 3416POPC   C4B44122  31.024  17.725   7.510
 3417POPC   NC344123   2.790  18.446   5.195
 3417POPC   PO444124   2.347  18.015   5.399
 3417POPC   GL144125   2.610  18.306   5.663
 3417POPC   GL244126   2.963  18.150   5.699
 3417POPC   C1A44127   2.747  18.437   6.082
 3417POPC   D2A44128   2.601  18.267   6.480
 3417POPC   C3A44129   2.799  18.355   6.880
 3417POPC   C4A44130   2.622  18.153   7.228
 3417POPC   C1B44131   3.021  18.010   6.164
 3417POPC   C2B44132   2.970  17.952   6.629
 3417POPC   C3B44133   3.151  17.979   7.050
 3417POPC   C4B44134   3.049  17.886   7.479
 3418POPC   NC344135  33.639  14.053   5.408
 3418POPC   PO444136  33.817  13.377   5.472
 3418POPC   GL144137  33.674  13.368   5.884
 3418POPC   GL244138  33.385  13.538   5.764
 3418POPC   C1A44139  33.718  13.395   6.326
 3418POPC   D2A44140  33.876  13.668   6.619
 3418POPC   C3A44141  33.837  13.490   6.950
 3418POPC   C4A44142  33.773  13.649   7.334
 3418POPC   C1B44143  33.448  13.779   6.139
 3418POPC   C2B44144  33.354  13.730   6.562
 3418POPC   C3B44145  33.481  13.895   6.942
 3418POPC   C4B44146  33.303  13.872   7.338
 3419POPC   NC344147  22.502  37.739   5.450
 3419POPC   PO444148  23.213  37.549   5.352
 3419POPC   GL144149  23.011  37.806   5.719
 3419POPC   GL244150  22.776  37.586   5.837
 3419POPC   C1A44151  22.865  37.905   6.198
 3419POPC   D2A44152  23.037  37.698   6.579
 3419POPC   C3A44153  23.011  37.893   6.979
 3419POPC   C4A44154  22.703  37.992   7.287
 3419POPC   C1B44155  22.773  37.393   6.232
 3419POPC   C2B44156  22.659  37.334   6.652
 3419POPC   C3B44157  22.645  37.506   7.090
 3419POPC   C4B44158  22.764  37.587   7.584
 3420POPC   NC344159  22.773  28.016   5.403
 3420POPC   PO444160  23.080  27.422   5.367
 3420POPC   GL144161  22.689  27.524   5.679
 3420POPC   GL244162  22.636  27.871   5.860
 3420POPC   C1A44163  22.639  27.337   6.106
 3420POPC   D2A44164  22.929  27.306   6.470
 3420POPC   C3A44165  22.882  27.428   6.906
 3420POPC   C4A44166  22.741  27.574   7.289
 3420POPC   C1B44167  22.921  27.767   6.186
 3420POPC   C2B44168  23.010  27.859   6.621
 3420POPC   C3B44169  22.814  27.996   7.008
 3420POPC   C4B44170  22.522  28.015   7.369
 3421POPC   NC344171   6.320  41.785   5.426
 3421POPC   PO444172   6.938  41.463   5.637
 3421POPC   GL144173   6.751  41.644   5.930
 3421POPC   GL244174   6.438  41.555   5.858
 3421POPC   C1A44175   6.798  41.636   6.373
 3421POPC   D2A44176   6.540  41.781   6.684
 3421POPC   C3A44177   6.818  41.681   6.990
 3421POPC   C4A44178   6.787  41.751   7.397
 3421POPC   C1B44179   6.301  41.574   6.265
 3421POPC   C2B44180   6.305  41.338   6.690
 3421POPC   C3B44181   6.371  41.485   7.115
 3421POPC   C4B44182   6.299  41.503   7.570
 3422POPC   NC344183  18.566  40.305   5.553
 3422POPC   PO444184  18.033  39.765   5.520
 3422POPC   GL144185  18.369  39.811   5.793
 3422POPC   GL244186  18.259  40.138   5.911
 3422POPC   C1A44187  18.565  39.857   6.198
 3422POPC   D2A44188  18.493  40.130   6.566
 3422POPC   C3A44189  18.485  39.913   6.960
 3422POPC   C4A44190  18.487  39.624   7.285
 3422POPC   C1B44191  18.005  39.854   6.172
 3422POPC   C2B44192  17.877  39.543   6.489
 3422POPC   C3B44193  18.105  39.528   6.871
 3422POPC   C4B44194  17.987  39.515   7.274
 3423POPC   NC344195  12.861  15.614   5.529
 3423POPC   PO444196  12.362  15.990   5.286
 3423POPC   GL144197  12.469  15.820   5.790
 3423POPC   GL244198  12.430  15.524   5.819
 3423POPC   C1A44199  12.654  16.063   6.214
 3423POPC   D2A44200  12.503  16.188   6.622
 3423POPC   C3A44201  12.804  16.128   6.958
 3423POPC   C4A44202  12.830  16.012   7.405
 3423POPC   C1B44203  12.459  15.599   6.252
 3423POPC   C2B44204  12.720  15.707   6.598
 3423POPC   C3B44205  12.610  15.669   6.999
 3423POPC   C4B44206  12.328  15.438   7.171
 3424POPC   NC344207   5.668   9.395   5.436
 3424POPC   PO444208   4.994   9.500   5.385
 3424POPC   GL144209   5.053   9.602   5.793
 3424POPC   GL244210   5.400   9.724   5.806
 3424POPC   C1A44211   4.867   9.591   6.201
 3424POPC   D2A44212   4.908   9.334   6.545
 3424POPC   C3A44213   4.922   9.477   6.944
 3424POPC   C4A44214   4.805   9.420   7.337
 3424POPC   C1B44215   5.288   9.926   6.183
 3424POPC   C2B44216   5.132   9.837   6.592
 3424POPC   C3B44217   5.299   9.802   6.981
 3424POPC   C4B44218   5.260   9.637   7.346
 3425POPC   NC344219  40.586  44.153   5.165
 3425POPC   PO444220  40.806  44.765   5.401
 3425POPC   GL144221  40.920  44.770   5.828
 3425POPC   GL244222  41.081  44.460   5.761
 3425POPC   C1A44223  40.756  44.828   6.273
 3425POPC   D2A44224  40.582  44.939   6.702
 3425POPC   C3A44225  40.696  44.695   7.060
 3425POPC   C4A44226  40.583  44.693   7.501
 3425POPC   C1B44227  40.794  44.347   6.118
 3425POPC   C2B44228  40.845  44.343   6.552
 3425POPC   C3B44229  40.640  44.206   6.900
 3425POPC   C4B44230  40.441  44.224   7.322
 3426POPC   NC344231  16.374  12.368   5.274
 3426POPC   PO444232  15.791  11.960   5.278
 3426POPC   GL144233  15.881  12.132   5.658
 3426POPC   GL244234  16.178  11.967   5.646
 3426POPC   C1A44235  15.909  12.018   6.104
 3426POPC   D2A44236  15.901  12.198   6.510
 3426POPC   C3A44237  15.922  11.951   6.892
 3426POPC   C4A44238  15.858  12.009   7.323
 3426POPC   C1B44239  16.324  11.734   5.996
 3426POPC   C2B44240  16.269  11.699   6.434
 3426POPC   C3B44241  16.282  11.582   6.868
 3426POPC   C4B44242  16.314  11.779   7.268
 3427POPC   NC344243  10.581  33.312   5.209
 3427POPC   PO444244  10.431  32.684   5.382
 3427POPC   GL144245  10.387  33.071   5.666
 3427POPC   GL244246  10.700  33.256   5.712
 3427POPC   C1A44247  10.424  33.091   6.125
 3427POPC   D2A44248  10.609  32.758   6.409
 3427POPC   C3A44249  10.473  32.803   6.850
 3427POPC   C4A44250  10.360  33.000   7.212
 3427POPC   C1B44251  10.909  33.237   6.172
 3427POPC   C2B44252  10.749  33.205   6.613
 3427POPC   C3B44253  10.879  33.078   7.031
 3427POPC   C4B44254  10.892  33.303   7.421
 3428POPC   NC344255   8.552   5.394   5.347
 3428POPC   PO444256   8.134   4.827   5.307
 3428POPC   GL144257   8.302   5.073   5.663
 3428POPC   GL244258   8.595   4.876   5.780
 3428POPC   C1A44259   8.253   5.119   6.118
 3428POPC   D2A44260   8.156   4.967   6.543
 3428POPC   C3A44261   8.273   5.280   6.882
 3428POPC   C4A44262   8.389   5.242   7.323
 3428POPC   C1B44263   8.554   4.710   6.212
 3428POPC   C2B44264   8.524   4.556   6.635
 3428POPC   C3B44265   8.384   4.799   6.975
 3428POPC   C4B44266   8.232   4.714   7.374
 3429POPC   NC344267   2.751  32.566   5.443
 3429POPC   PO444268   2.925  33.119   5.193
 3429POPC   GL144269   2.945  33.001   5.654
 3429POPC   GL244270   2.933  32.681   5.895
 3429POPC   C1A44271   2.956  33.152   6.082
 3429POPC   D2A44272   2.966  32.895   6.446
 3429POPC   C3A44273   2.864  33.096   6.825
 3429POPC   C4A44274   2.896  33.067   7.248
 3429POPC   C1B44275   2.557  32.823   6.130
 3429POPC   C2B44276   2.448  32.873   6.587
 3429POPC   C3B44277   2.521  32.781   7.046
 3429POPC   C4B44278   2.503  32.760   7.515
 3430POPC   NC344279  15.348  34.057   5.244
 3430POPC   PO444280  15.088  33.474   5.466
 3430POPC   GL144281  15.346  33.747   5.763
 3430POPC   GL244282  15.373  34.119   5.761
 3430POPC   C1A44283  15.432  33.857   6.203
 3430POPC   D2A44284  15.496  33.606   6.549
 3430POPC   C3A44285  15.308  33.801   6.901
 3430POPC   C4A44286  14.906  33.773   7.138
 3430POPC   C1B44287  15.102  34.234   6.122
 3430POPC   C2B44288  15.181  34.193   6.553
 3430POPC   C3B44289  15.019  34.227   6.957
 3430POPC   C4B44290  15.299  34.132   7.300
 3431POPC   NC344291  32.974  14.538   5.458
 3431POPC   PO444292  33.213  13.940   5.288
 3431POPC   GL144293  33.116  13.971   5.800
 3431POPC   GL244294  32.863  14.219   5.855
 3431POPC   C1A44295  33.179  14.202   6.272
 3431POPC   D2A44296  33.331  14.467   6.654
 3431POPC   C3A44297  33.260  14.366   7.116
 3431POPC   C4A44298  32.987  14.467   7.500
 3431POPC   C1B44299  32.890  14.623   6.093
 3431POPC   C2B44300  32.900  14.705   6.509
 3431POPC   C3B44301  32.816  14.485   6.873
 3431POPC   C4B44302  32.578  14.543   7.218
 3432POPC   NC344303  20.287  33.274   5.480
 3432POPC   PO444304  20.598  32.668   5.400
 3432POPC   GL144305  20.610  32.973   5.741
 3432POPC   GL244306  20.275  32.980   5.902
 3432POPC   C1A44307  20.768  33.102   6.145
 3432POPC   D2A44308  20.767  32.892   6.569
 3432POPC   C3A44309  20.630  33.109   6.922
 3432POPC   C4A44310  20.604  33.186   7.341
 3432POPC   C1B44311  20.309  33.277   6.263
 3432POPC   C2B44312  20.171  33.223   6.694
 3432POPC   C3B44313  20.140  33.109   7.118
 3432POPC   C4B44314  20.173  33.335   7.542
 3433POPC   NC344315   5.344  38.085   5.485
 3433POPC   PO444316   4.935  37.576   5.540
 3433POPC   GL144317   5.076  37.534   5.904
 3433POPC   GL244318   5.214  37.869   5.965
 3433POPC   C1A44319   4.881  37.651   6.287
 3433POPC   D2A44320   4.755  37.917   6.612
 3433POPC   C3A44321   4.606  37.720   6.983
 3433POPC   C4A44322   4.642  37.890   7.412
 3433POPC   C1B44323   5.371  37.551   6.313
 3433POPC   C2B44324   5.163  37.572   6.711
 3433POPC   C3B44325   5.102  37.829   7.056
 3433POPC   C4B44326   5.203  37.555   7.359
 3434POPC   NC344327   2.633  10.523   5.399
 3434POPC   PO444328   3.118  10.988   5.558
 3434POPC   GL144329   2.834  10.695   5.856
 3434POPC   GL244330   2.419  10.710   5.818
 3434POPC   C1A44331   2.894  10.437   6.262
 3434POPC   D2A44332   3.102  10.248   6.658
 3434POPC   C3A44333   2.983  10.192   7.108
 3434POPC   C4A44334   2.996  10.478   7.482
 3434POPC   C1B44335   2.487  10.783   6.247
 3434POPC   C2B44336   2.633  10.664   6.645
 3434POPC   C3B44337   2.766  10.645   7.042
 3434POPC   C4B44338   2.508  10.637   7.381
 3435POPC   NC344339   5.419  26.588   5.202
 3435POPC   PO444340   5.071  26.113   5.545
 3435POPC   GL144341   5.042  25.907   5.862
 3435POPC   GL244342   4.794  25.665   5.819
 3435POPC   C1A44343   5.186  26.007   6.230
 3435POPC   D2A44344   5.187  26.422   6.443
 3435POPC   C3A44345   4.949  26.366   6.803
 3435POPC   C4A44346   5.131  26.109   7.177
 3435POPC   C1B44347   4.901  25.574   6.250
 3435POPC   C2B44348   5.208  25.543   6.566
 3435POPC   C3B44349   5.164  25.613   7.012
 3435POPC   C4B44350   5.167  25.589   7.483
 3436POPC   NC344351  23.924  30.153   5.469
 3436POPC   PO444352  23.640  29.529   5.314
 3436POPC   GL144353  23.681  29.636   5.736
 3436POPC   GL244354  24.031  29.743   5.805
 3436POPC   C1A44355  23.612  29.920   6.079
 3436POPC   D2A44356  23.460  29.874   6.504
 3436POPC   C3A44357  23.577  29.674   6.885
 3436POPC   C4A44358  23.583  29.915   7.255
 3436POPC   C1B44359  24.055  29.780   6.260
 3436POPC   C2B44360  23.988  29.910   6.702
 3436POPC   C3B44361  24.104  30.051   7.117
 3436POPC   C4B44362  24.084  29.897   7.541
 3437POPC   NC344363  13.297  20.256   5.738
 3437POPC   PO444364  13.627  20.797   5.386
 3437POPC   GL144365  13.816  20.729   5.814
 3437POPC   GL244366  14.006  20.391   5.782
 3437POPC   C1A44367  13.753  20.879   6.286
 3437POPC   D2A44368  13.788  20.904   6.774
 3437POPC   C3A44369  13.470  20.699   7.030
 3437POPC   C4A44370  13.323  20.851   7.430
 3437POPC   C1B44371  13.790  20.382   6.197
 3437POPC   C2B44372  13.661  20.397   6.645
 3437POPC   C3B44373  13.934  20.397   7.027
 3437POPC   C4B44374  13.869  20.196   7.454
 3438POPC   NC344375  39.482   3.293   5.212
 3438POPC   PO444376  39.041   3.799   5.466
 3438POPC   GL144377  38.959   3.698   5.839
 3438POPC   GL244378  38.790   3.384   5.780
 3438POPC   C1A44379  39.049   3.889   6.243
 3438POPC   D2A44380  39.401   3.832   6.530
 3438POPC   C3A44381  39.326   3.554   6.876
 3438POPC   C4A44382  39.234   3.640   7.292
 3438POPC   C1B44383  38.931   3.356   6.226
 3438POPC   C2B44384  38.880   3.388   6.681
 3438POPC   C3B44385  38.966   3.216   7.126
 3438POPC   C4B44386  38.898   3.406   7.566
 3439POPC   NC344387  21.142  35.543   5.526
 3439POPC   PO444388  21.852  35.642   5.386
 3439POPC   GL144389  21.737  35.305   5.715
 3439POPC   GL244390  21.369  35.139   5.759
 3439POPC   C1A44391  21.636  35.340   6.138
 3439POPC   D2A44392  21.380  35.406   6.460
 3439POPC   C3A44393  21.526  35.239   6.826
 3439POPC   C4A44394  21.614  35.281   7.227
 3439POPC   C1B44395  21.236  34.987   6.185
 3439POPC   C2B44396  21.051  35.052   6.628
 3439POPC   C3B44397  21.059  35.463   6.859
 3439POPC   C4B44398  21.185  35.532   7.324
 3440POPC   NC344399  41.499   7.274   5.094
 3440POPC   PO444400  41.937   7.728   5.365
 3440POPC   GL144401  41.729   7.648   5.787
 3440POPC   GL244402  41.466   7.422   5.755
 3440POPC   C1A44403  41.641   7.551   6.244
 3440POPC   D2A44404  41.760   7.413   6.652
 3440POPC   C3A44405  41.633   7.631   7.028
 3440POPC   C4A44406  41.583   7.794   7.455
 3440POPC   C1B44407  41.194   7.337   6.108
 3440POPC   C2B44408  41.220   7.222   6.552
 3440POPC   C3B44409  41.164   7.362   6.991
 3440POPC   C4B44410  41.407   7.313   7.379
 3441POPC   NC344411   1.580  15.413   5.041
 3441POPC   PO444412   1.444  14.896   5.416
 3441POPC   GL144413   1.307  15.021   5.840
 3441POPC   GL244414   0.973  14.877   5.909
 3441POPC   C1A44415   1.138  15.366   6.135
 3441POPC   D2A44416   1.119  15.673   6.523
 3441POPC   C3A44417   1.015  15.490   6.963
 3441POPC   C4A44418   1.223  15.232   7.268
 3441POPC   C1B44419   0.975  14.943   6.376
 3441POPC   C2B44420   1.259  15.108   6.706
 3441POPC   C3B44421   1.495  14.870   7.044
 3441POPC   C4B44422   1.234  14.758   7.427
 3442POPC   NC344423  30.586  20.614   5.320
 3442POPC   PO444424  31.157  20.305   5.440
 3442POPC   GL144425  30.836  20.504   5.752
 3442POPC   GL244426  30.518  20.320   5.737
 3442POPC   C1A44427  30.883  20.620   6.209
 3442POPC   D2A44428  31.018  20.343   6.546
 3442POPC   C3A44429  31.072  20.472   6.974
 3442POPC   C4A44430  30.753  20.747   7.131
 3442POPC   C1B44431  30.458  20.356   6.177
 3442POPC   C2B44432  30.364  20.247   6.613
 3442POPC   C3B44433  30.566  20.320   6.973
 3442POPC   C4B44434  30.408  20.448   7.379
 3443POPC   NC344435  12.068  38.635   5.098
 3443POPC   PO444436  11.846  38.143   5.496
 3443POPC   GL144437  11.782  38.407   5.808
 3443POPC   GL244438  12.112  38.552   5.861
 3443POPC   C1A44439  11.815  38.359   6.239
 3443POPC   D2A44440  11.961  38.681   6.445
 3443POPC   C3A44441  11.946  38.622   6.870
 3443POPC   C4A44442  12.140  38.559   7.250
 3443POPC   C1B44443  12.335  38.336   6.204
 3443POPC   C2B44444  12.417  38.084   6.586
 3443POPC   C3B44445  12.399  38.161   7.046
 3443POPC   C4B44446  12.441  38.225   7.505
 3444POPC   NC344447   7.109  20.759   5.525
 3444POPC   PO444448   6.494  20.549   5.252
 3444POPC   GL144449   6.709  20.473   5.641
 3444POPC   GL244450   6.537  20.245   5.761
 3444POPC   C1A44451   6.818  20.564   6.081
 3444POPC   D2A44452   6.698  20.822   6.402
 3444POPC   C3A44453   6.907  20.719   6.771
 3444POPC   C4A44454   6.800  20.928   7.153
 3444POPC   C1B44455   6.415  20.250   6.185
 3444POPC   C2B44456   6.384  20.460   6.577
 3444POPC   C3B44457   6.479  20.536   7.000
 3444POPC   C4B44458   6.534  20.576   7.447
 3445POPC   NC344459  42.949  43.160   5.263
 3445POPC   PO444460  43.599  42.924   5.532
 3445POPC   GL144461  43.228  43.078   5.677
 3445POPC   GL244462  42.947  42.819   5.683
 3445POPC   C1A44463  43.142  43.228   6.071
 3445POPC   D2A44464  43.155  43.074   6.491
 3445POPC   C3A44465  43.059  43.332   6.818
 3445POPC   C4A44466  43.134  43.388   7.238
 3445POPC   C1B44467  43.176  42.686   6.071
 3445POPC   C2B44468  43.164  42.569   6.534
 3445POPC   C3B44469  43.146  42.769   6.954
 3445POPC   C4B44470  43.462  42.748   7.263
 3446POPC   NC344471  36.197   6.572   5.588
 3446POPC   PO444472  36.207   5.915   5.482
 3446POPC   GL144473  36.201   5.763   5.890
 3446POPC   GL244474  36.460   5.544   5.826
 3446POPC   C1A44475  36.128   5.832   6.338
 3446POPC   D2A44476  35.902   5.742   6.721
 3446POPC   C3A44477  36.140   5.822   7.101
 3446POPC   C4A44478  36.031   6.205   7.281
 3446POPC   C1B44479  36.394   5.373   6.273
 3446POPC   C2B44480  36.284   5.414   6.749
 3446POPC   C3B44481  36.414   5.393   7.202
 3446POPC   C4B44482  36.441   5.668   7.573
 3447POPC   NC344483  30.894   6.382   5.332
 3447POPC   PO444484  30.254   6.640   5.291
 3447POPC   GL144485  30.587   6.610   5.676
 3447POPC   GL244486  30.844   6.881   5.766
 3447POPC   C1A44487  30.730   6.511   6.101
 3447POPC   D2A44488  30.748   6.768   6.481
 3447POPC   C3A44489  30.516   6.734   6.875
 3447POPC   C4A44490  30.558   6.520   7.240
 3447POPC   C1B44491  31.138   6.856   6.120
 3447POPC   C2B44492  31.247   6.714   6.544
 3447POPC   C3B44493  31.022   6.731   6.955
 3447POPC   C4B44494  30.976   6.734   7.428
 3448POPC   NC344495  37.721   2.244   5.560
 3448POPC   PO444496  37.975   1.689   5.362
 3448POPC   GL144497  37.865   1.822   5.785
 3448POPC   GL244498  38.096   2.088   5.901
 3448POPC   C1A44499  37.647   1.944   6.176
 3448POPC   D2A44500  37.768   1.768   6.582
 3448POPC   C3A44501  38.031   1.993   6.855
 3448POPC   C4A44502  37.774   1.983   7.222
 3448POPC   C1B44503  38.067   2.193   6.357
 3448POPC   C2B44504  37.671   2.280   6.582
 3448POPC   C3B44505  37.408   2.240   6.941
 3448POPC   C4B44506  37.562   2.449   7.269
 3449POPC   NC344507  41.705  43.552   5.609
 3449POPC   PO444508  41.496  44.057   5.250
 3449POPC   GL144509  41.526  44.045   5.699
 3449POPC   GL244510  41.288  43.748   5.752
 3449POPC   C1A44511  41.689  43.955   6.146
 3449POPC   D2A44512  41.807  43.746   6.547
 3449POPC   C3A44513  41.693  43.933   6.956
 3449POPC   C4A44514  41.467  44.103   7.298
 3449POPC   C1B44515  41.347  43.521   6.153
 3449POPC   C2B44516  41.297  43.647   6.563
 3449POPC   C3B44517  41.473  43.477   6.898
 3449POPC   C4B44518  41.356  43.599   7.286
 3450POPC   NC344519  35.787  14.208   5.298
 3450POPC   PO444520  36.283  14.589   4.960
 3450POPC   GL144521  36.187  14.541   5.464
 3450POPC   GL244522  36.163  14.247   5.643
 3450POPC   C1A44523  36.322  14.679   5.896
 3450POPC   D2A44524  36.263  14.699   6.371
 3450POPC   C3A44525  36.379  14.582   6.808
 3450POPC   C4A44526  36.228  14.566   7.228
 3450POPC   C1B44527  36.069  14.273   6.088
 3450POPC   C2B44528  36.117  14.215   6.531
 3450POPC   C3B44529  35.886  14.395   6.878
 3450POPC   C4B44530  35.785  14.294   7.313
 3451POPC   NC344531   5.554   3.103   5.134
 3451POPC   PO444532   5.930   2.603   5.220
 3451POPC   GL144533   5.904   2.913   5.604
 3451POPC   GL244534   5.993   2.705   5.883
 3451POPC   C1A44535   5.848   3.141   6.049
 3451POPC   D2A44536   5.858   2.813   6.425
 3451POPC   C3A44537   5.849   2.906   6.881
 3451POPC   C4A44538   5.793   2.782   7.313
 3451POPC   C1B44539   6.219   2.445   6.162
 3451POPC   C2B44540   6.086   2.347   6.539
 3451POPC   C3B44541   6.070   2.449   6.936
 3451POPC   C4B44542   6.372   2.182   7.087
 3452POPC   NC344543   6.648   0.687   5.317
 3452POPC   PO444544   6.316   0.097   5.313
 3452POPC   GL144545   6.643   0.280   5.687
 3452POPC   GL244546   6.695   0.660   5.817
 3452POPC   C1A44547   6.755   0.299   6.173
 3452POPC   D2A44548   6.642   0.397   6.631
 3452POPC   C3A44549   6.780   0.211   7.023
 3452POPC   C4A44550   6.684   0.293   7.478
 3452POPC   C1B44551   7.021   0.727   6.159
 3452POPC   C2B44552   7.103   0.627   6.604
 3452POPC   C3B44553   6.830   0.730   6.988
 3452POPC   C4B44554   6.872   0.863   7.438
 3453POPC   NC344555  20.075  41.456   5.446
 3453POPC   PO444556  19.445  41.462   5.353
 3453POPC   GL144557  19.682  41.494   5.768
 3453POPC   GL244558  20.011  41.697   5.886
 3453POPC   C1A44559  19.666  41.375   6.193
 3453POPC   D2A44560  19.818  41.165   6.555
 3453POPC   C3A44561  20.108  41.299   6.816
 3453POPC   C4A44562  19.851  41.399   7.157
 3453POPC   C1B44563  20.094  41.618   6.351
 3453POPC   C2B44564  20.024  41.801   6.774
 3453POPC   C3B44565  20.074  42.144   7.074
 3453POPC   C4B44566  19.834  42.230   7.480
 3454POPC   NC344567  44.666  20.757   5.499
 3454POPC   PO444568  44.420  20.168   5.331
 3454POPC   GL144569  44.573  20.334   5.751
 3454POPC   GL244570  44.886  20.190   5.805
 3454POPC   C1A44571  44.433  20.488   6.181
 3454POPC   D2A44572  44.366  20.393   6.616
 3454POPC   C3A44573  44.537  20.689   6.950
 3454POPC   C4A44574  44.432  20.710   7.398
 3454POPC   C1B44575  44.943  20.431   6.172
 3454POPC   C2B44576  44.903  20.547   6.590
 3454POPC   C3B44577   0.052  20.532   7.011
 3454POPC   C4B44578  44.924  20.756   7.329
 3455POPC   NC344579  24.295  37.087   5.345
 3455POPC   PO444580  24.688  36.520   5.418
 3455POPC   GL144581  24.599  36.626   5.872
 3455POPC   GL244582  24.247  36.744   5.859
 3455POPC   C1A44583  24.567  36.963   6.263
 3455POPC   D2A44584  24.144  37.074   6.418
 3455POPC   C3A44585  24.087  37.000   6.877
 3455POPC   C4A44586  24.443  36.931   7.145
 3455POPC   C1B44587  24.277  36.564   6.280
 3455POPC   C2B44588  24.413  36.659   6.678
 3455POPC   C3B44589  24.172  36.453   6.973
 3455POPC   C4B44590  24.147  36.566   7.380
 3456POPC   NC344591   9.191  34.065   5.422
 3456POPC   PO444592   8.663  34.085   5.806
 3456POPC   GL144593   8.823  33.740   5.942
 3456POPC   GL244594   9.110  33.718   5.816
 3456POPC   C1A44595   8.957  33.739   6.350
 3456POPC   D2A44596   8.918  33.970   6.687
 3456POPC   C3A44597   9.080  33.679   6.951
 3456POPC   C4A44598   8.992  33.561   7.340
 3456POPC   C1B44599   9.265  34.054   6.111
 3456POPC   C2B44600   9.415  33.952   6.545
 3456POPC   C3B44601   9.339  34.134   6.948
 3456POPC   C4B44602   9.124  34.046   7.309
 3457POPC   NC344603   6.254   7.930   5.453
 3457POPC   PO444604   5.663   8.298   5.363
 3457POPC   GL144605   5.666   8.241   5.792
 3457POPC   GL244606   5.829   7.921   5.755
 3457POPC   C1A44607   5.592   7.976   6.191
 3457POPC   D2A44608   5.743   7.850   6.599
 3457POPC   C3A44609   5.746   8.246   6.829
 3457POPC   C4A44610   5.793   8.421   7.220
 3457POPC   C1B44611   6.081   8.140   6.069
 3457POPC   C2B44612   6.149   8.136   6.506
 3457POPC   C3B44613   6.125   7.934   6.943
 3457POPC   C4B44614   6.044   8.006   7.350
 3458POPC   NC344615   2.126  20.784   5.278
 3458POPC   PO444616   1.726  20.290   5.394
 3458POPC   GL144617   1.955  20.280   5.804
 3458POPC   GL244618   2.114  20.597   5.807
 3458POPC   C1A44619   2.109  20.305   6.245
 3458POPC   D2A44620   2.218  20.485   6.625
 3458POPC   C3A44621   1.868  20.601   6.863
 3458POPC   C4A44622   2.103  20.541   7.187
 3458POPC   C1B44623   2.254  20.808   6.224
 3458POPC   C2B44624   2.091  20.998   6.638
 3458POPC   C3B44625   2.197  21.041   7.068
 3458POPC   C4B44626   2.057  21.212   7.484
 3459POPC   NC344627  34.189   3.441   5.313
 3459POPC   PO444628  33.592   3.856   5.220
 3459POPC   GL144629  33.748   3.695   5.586
 3459POPC   GL244630  33.538   3.456   5.733
 3459POPC   C1A44631  33.767   3.801   6.044
 3459POPC   D2A44632  33.897   3.672   6.474
 3459POPC   C3A44633  33.659   3.805   6.875
 3459POPC   C4A44634  33.763   3.701   7.295
 3459POPC   C1B44635  33.746   3.317   6.118
 3459POPC   C2B44636  33.858   3.168   6.525
 3459POPC   C3B44637  33.724   3.306   6.935
 3459POPC   C4B44638  33.502   3.234   7.361
 3460POPC   NC344639   9.868  22.667   5.468
 3460POPC   PO444640   9.249  23.015   5.481
 3460POPC   GL144641   9.583  23.079   5.797
 3460POPC   GL244642   9.958  23.073   5.794
 3460POPC   C1A44643   9.604  23.161   6.233
 3460POPC   D2A44644   9.459  23.032   6.639
 3460POPC   C3A44645   9.494  23.244   7.051
 3460POPC   C4A44646   9.616  23.287   7.492
 3460POPC   C1B44647   9.858  22.732   6.122
 3460POPC   C2B44648   9.916  22.756   6.569
 3460POPC   C3B44649   9.812  22.822   7.001
 3460POPC   C4B44650  10.056  23.100   7.245
 3461POPC   NC344651  32.233   4.373   4.952
 3461POPC   PO444652  31.972   4.071   5.493
 3461POPC   GL144653  32.241   4.261   5.830
 3461POPC   GL244654  32.567   4.126   5.821
 3461POPC   C1A44655  32.524   4.485   6.173
 3461POPC   D2A44656  32.472   4.618   6.608
 3461POPC   C3A44657  32.449   4.416   7.054
 3461POPC   C4A44658  32.365   4.681   7.442
 3461POPC   C1B44659  32.410   3.980   6.236
 3461POPC   C2B44660  32.412   4.045   6.678
 3461POPC   C3B44661  32.409   3.793   7.054
 3461POPC   C4B44662  32.387   3.851   7.529
 3462POPC   NC344663  35.748  17.399   5.451
 3462POPC   PO444664  36.431  17.602   5.558
 3462POPC   GL144665  36.183  17.361   5.823
 3462POPC   GL244666  35.942  17.598   5.883
 3462POPC   C1A44667  36.141  17.341   6.271
 3462POPC   D2A44668  36.092  17.532   6.681
 3462POPC   C3A44669  36.445  17.405   6.914
 3462POPC   C4A44670  36.483  17.384   7.344
 3462POPC   C1B44671  35.746  17.680   6.293
 3462POPC   C2B44672  35.685  17.977   6.625
 3462POPC   C3B44673  35.778  17.842   7.022
 3462POPC   C4B44674  35.988  17.491   7.217
 3463POPC   NC344675  13.747  43.420   5.541
 3463POPC   PO444676  13.524  42.800   5.472
 3463POPC   GL144677  13.752  42.985   5.872
 3463POPC   GL244678  13.810  43.362   6.023
 3463POPC   C1A44679  13.917  42.970   6.310
 3463POPC   D2A44680  13.700  43.204   6.640
 3463POPC   C3A44681  13.557  42.879   6.903
 3463POPC   C4A44682  13.919  42.826   7.199
 3463POPC   C1B44683  13.471  43.509   6.246
 3463POPC   C2B44684  13.316  43.705   6.627
 3463POPC   C3B44685  13.349  43.430   6.971
 3463POPC   C4B44686  13.675  43.268   7.177
 3464POPC   NC344687   3.326  41.454   5.023
 3464POPC   PO444688   3.686  41.597   5.527
 3464POPC   GL144689   3.711  41.333   5.832
 3464POPC   GL244690   3.414  41.473   5.960
 3464POPC   C1A44691   3.733  41.269   6.267
 3464POPC   D2A44692   3.485  41.250   6.593
 3464POPC   C3A44693   3.665  41.441   6.915
 3464POPC   C4A44694   3.579  41.217   7.234
 3464POPC   C1B44695   3.626  41.771   6.162
 3464POPC   C2B44696   3.460  41.739   6.540
 3464POPC   C3B44697   3.195  41.618   6.885
 3464POPC   C4B44698   3.324  41.760   7.305
 3465POPC   NC344699   1.185  26.653   5.120
 3465POPC   PO444700   1.339  27.326   5.355
 3465POPC   GL144701   1.256  27.060   5.756
 3465POPC   GL244702   1.012  26.770   5.727
 3465POPC   C1A44703   1.253  26.853   6.196
 3465POPC   D2A44704   1.358  26.614   6.595
 3465POPC   C3A44705   1.286  26.796   7.005
 3465POPC   C4A44706   1.438  26.725   7.420
 3465POPC   C1B44707   0.772  26.672   6.130
 3465POPC   C2B44708   0.850  26.738   6.576
 3465POPC   C3B44709   0.846  26.556   6.990
 3465POPC   C4B44710   0.943  26.667   7.451
 3466POPC   NC344711  10.846  22.588   5.449
 3466POPC   PO444712  10.749  23.363   5.504
 3466POPC   GL144713  10.488  22.986   5.716
 3466POPC   GL244714  10.617  22.700   5.901
 3466POPC   C1A44715  10.307  22.985   6.157
 3466POPC   D2A44716  10.458  22.785   6.508
 3466POPC   C3A44717  10.553  23.012   6.858
 3466POPC   C4A44718  10.672  22.815   7.238
 3466POPC   C1B44719  10.300  22.460   6.138
 3466POPC   C2B44720  10.229  22.338   6.572
 3466POPC   C3B44721  10.274  22.598   6.957
 3466POPC   C4B44722  10.230  22.654   7.420
 3467POPC   NC344723  18.933   3.812   5.463
 3467POPC   PO444724  18.937   4.455   5.358
 3467POPC   GL144725  19.071   4.224   5.774
 3467POPC   GL244726  18.855   3.965   5.938
 3467POPC   C1A44727  19.316   4.235   6.222
 3467POPC   D2A44728  19.220   4.202   6.678
 3467POPC   C3A44729  19.392   4.215   7.073
 3467POPC   C4A44730  19.158   4.391   7.431
 3467POPC   C1B44731  18.830   4.368   6.194
 3467POPC   C2B44732  18.762   4.437   6.616
 3467POPC   C3B44733  18.823   4.344   7.036
 3467POPC   C4B44734  18.500   4.246   7.339
 3468POPC   NC344735  19.570  30.556   5.092
 3468POPC   PO444736  19.160  31.061   5.315
 3468POPC   GL144737  19.059  30.745   5.664
 3468POPC   GL244738  19.320  30.421   5.630
 3468POPC   C1A44739  19.067  30.844   6.127
 3468POPC   D2A44740  18.951  30.984   6.579
 3468POPC   C3A44741  19.083  30.807   7.000
 3468POPC   C4A44742  19.232  30.719   7.426
 3468POPC   C1B44743  19.175  30.316   6.036
 3468POPC   C2B44744  19.200  30.483   6.458
 3468POPC   C3B44745  19.015  30.299   6.806
 3468POPC   C4B44746  18.915  30.346   7.218
 3469POPC   NC344747  43.438   4.587   5.492
 3469POPC   PO444748  43.062   4.046   5.492
 3469POPC   GL144749  43.035   4.324   5.823
 3469POPC   GL244750  43.376   4.246   5.902
 3469POPC   C1A44751  42.896   4.223   6.252
 3469POPC   D2A44752  42.767   4.387   6.656
 3469POPC   C3A44753  42.916   4.280   7.038
 3469POPC   C4A44754  43.130   4.153   7.375
 3469POPC   C1B44755  43.348   4.472   6.318
 3469POPC   C2B44756  43.225   4.631   6.758
 3469POPC   C3B44757  43.261   4.621   7.232
 3469POPC   C4B44758  43.195   4.740   7.685
 3470POPC   NC344759  38.597   3.740   5.344
 3470POPC   PO444760  38.178   3.290   5.406
 3470POPC   GL144761  38.298   3.513   5.750
 3470POPC   GL244762  37.994   3.415   5.866
 3470POPC   C1A44763  38.534   3.700   6.115
 3470POPC   D2A44764  38.609   3.938   6.507
 3470POPC   C3A44765  38.915   3.879   6.818
 3470POPC   C4A44766  38.729   3.669   7.178
 3470POPC   C1B44767  38.029   3.624   6.198
 3470POPC   C2B44768  38.274   3.547   6.537
 3470POPC   C3B44769  38.302   3.730   6.911
 3470POPC   C4B44770  38.240   3.541   7.338
 3471POPC   NC344771  39.483  37.997   5.440
 3471POPC   PO444772  39.288  37.380   5.340
 3471POPC   GL144773  39.332  37.632   5.781
 3471POPC   GL244774  39.089  37.919   5.821
 3471POPC   C1A44775  39.513  37.604   6.253
 3471POPC   D2A44776  39.297  37.720   6.675
 3471POPC   C3A44777  39.193  37.519   7.107
 3471POPC   C4A44778  39.169  37.252   7.491
 3471POPC   C1B44779  39.247  38.033   6.237
 3471POPC   C2B44780  39.190  38.226   6.648
 3471POPC   C3B44781  39.265  38.071   7.087
 3471POPC   C4B44782  39.044  37.913   7.469
 3472POPC   NC344783  14.901  38.142   5.532
 3472POPC   PO444784  15.444  38.342   5.182
 3472POPC   GL144785  15.228  38.530   5.623
 3472POPC   GL244786  15.441  38.752   5.821
 3472POPC   C1A44787  15.154  38.436   6.118
 3472POPC   D2A44788  15.246  38.305   6.583
 3472POPC   C3A44789  15.032  38.457   6.973
 3472POPC   C4A44790  14.931  38.341   7.417
 3472POPC   C1B44791  15.675  38.763   6.210
 3472POPC   C2B44792  15.510  38.761   6.649
 3472POPC   C3B44793  15.440  38.756   7.090
 3472POPC   C4B44794  15.390  38.907   7.510
 3473POPC   NC344795   1.606   2.911   5.438
 3473POPC   PO444796   0.918   2.811   5.383
 3473POPC   GL144797   1.210   2.627   5.625
 3473POPC   GL244798   1.244   2.965   5.789
 3473POPC   C1A44799   1.273   2.524   6.051
 3473POPC   D2A44800   1.271   2.634   6.478
 3473POPC   C3A44801   0.928   2.597   6.770
 3473POPC   C4A44802   0.969   2.837   7.168
 3473POPC   C1B44803   1.499   2.996   6.153
 3473POPC   C2B44804   1.492   3.093   6.589
 3473POPC   C3B44805   1.490   2.856   6.939
 3473POPC   C4B44806   1.430   3.025   7.301
 3474POPC   NC344807  23.020   7.432   4.673
 3474POPC   PO444808  22.906   7.428   5.345
 3474POPC   GL144809  23.024   7.490   5.787
 3474POPC   GL244810  22.693   7.631   5.873
 3474POPC   C1A44811  23.260   7.275   6.153
 3474POPC   D2A44812  23.380   7.242   6.602
 3474POPC   C3A44813  22.993   7.343   6.849
 3474POPC   C4A44814  22.752   7.247   7.219
 3474POPC   C1B44815  22.788   7.811   6.308
 3474POPC   C2B44816  22.773   7.821   6.804
 3474POPC   C3B44817  22.921   7.725   7.241
 3474POPC   C4B44818  23.104   7.652   7.708
 3475POPC   NC344819   9.402  21.044   5.368
 3475POPC   PO444820   9.996  21.421   5.453
 3475POPC   GL144821   9.840  21.332   5.875
 3475POPC   GL244822   9.520  21.175   5.845
 3475POPC   C1A44823   9.948  21.250   6.310
 3475POPC   D2A44824   9.815  21.402   6.720
 3475POPC   C3A44825   9.952  21.313   7.150
 3475POPC   C4A44826   9.726  21.449   7.498
 3475POPC   C1B44827   9.426  21.315   6.252
 3475POPC   C2B44828   9.301  21.515   6.634
 3475POPC   C3B44829   9.422  21.444   7.073
 3475POPC   C4B44830   9.265  21.078   7.273
 3476POPC   NC344831   4.060  39.072   5.427
 3476POPC   PO444832   4.756  39.367   5.497
 3476POPC   GL144833   4.434  39.188   5.805
 3476POPC   GL244834   4.041  39.225   5.905
 3476POPC   C1A44835   4.436  39.238   6.243
 3476POPC   D2A44836   4.320  39.060   6.595
 3476POPC   C3A44837   4.543  39.114   6.922
 3476POPC   C4A44838   4.430  39.120   7.300
 3476POPC   C1B44839   4.028  38.878   6.213
 3476POPC   C2B44840   3.907  38.765   6.666
 3476POPC   C3B44841   4.189  38.706   7.060
 3476POPC   C4B44842   4.293  38.704   7.541
 3477POPC   NC344843  32.024   5.243   5.243
 3477POPC   PO444844  32.630   5.100   5.381
 3477POPC   GL144845  32.302   5.105   5.748
 3477POPC   GL244846  31.972   5.245   5.763
 3477POPC   C1A44847  32.186   5.012   6.199
 3477POPC   D2A44848  32.378   5.123   6.633
 3477POPC   C3A44849  32.171   4.878   6.958
 3477POPC   C4A44850  32.033   5.040   7.348
 3477POPC   C1B44851  31.932   5.472   6.146
 3477POPC   C2B44852  31.899   5.267   6.538
 3477POPC   C3B44853  31.785   5.219   6.903
 3477POPC   C4B44854  31.736   5.459   7.269
 3478POPC   NC344855   5.583   0.931   5.426
 3478POPC   PO444856   5.794   1.389   5.776
 3478POPC   GL144857   5.889   1.158   6.060
 3478POPC   GL244858   6.186   1.370   6.112
 3478POPC   C1A44859   5.634   1.122   6.414
 3478POPC   D2A44860   5.702   1.201   6.818
 3478POPC   C3A44861   5.631   1.555   7.058
 3478POPC   C4A44862   5.665   1.437   7.473
 3478POPC   C1B44863   6.137   1.196   6.506
 3478POPC   C2B44864   6.050   0.826   6.684
 3478POPC   C3B44865   5.971   0.869   7.090
 3478POPC   C4B44866   6.063   1.295   7.183
 3479POPC   NC344867  13.526  37.539   5.481
 3479POPC   PO444868  13.806  38.090   5.730
 3479POPC   GL144869  13.466  37.878   5.843
 3479POPC   GL244870  13.197  38.109   5.932
 3479POPC   C1A44871  13.509  37.471   6.111
 3479POPC   D2A44872  13.544  37.281   6.521
 3479POPC   C3A44873  13.329  37.428   6.866
 3479POPC   C4A44874  13.563  37.700   7.168
 3479POPC   C1B44875  13.405  37.950   6.321
 3479POPC   C2B44876  13.503  37.893   6.702
 3479POPC   C3B44877  13.910  37.909   6.857
 3479POPC   C4B44878  14.087  37.963   7.266
 3480POPC   NC344879  41.970  32.640   5.633
 3480POPC   PO444880  42.556  33.062   5.464
 3480POPC   GL144881  42.491  32.908   5.877
 3480POPC   GL244882  42.798  32.723   5.906
 3480POPC   C1A44883  42.308  33.063   6.288
 3480POPC   D2A44884  42.283  33.398   6.644
 3480POPC   C3A44885  42.308  33.129   7.014
 3480POPC   C4A44886  42.020  32.807   7.098
 3480POPC   C1B44887  42.617  32.626   6.309
 3480POPC   C2B44888  42.335  32.688   6.663
 3480POPC   C3B44889  42.506  32.631   7.049
 3480POPC   C4B44890  42.827  32.634   7.366
 3481POPC   NC344891  17.628  38.359   5.463
 3481POPC   PO444892  17.066  38.446   5.351
 3481POPC   GL144893  17.300  38.507   5.792
 3481POPC   GL244894  17.407  38.215   5.948
 3481POPC   C1A44895  17.526  38.671   6.168
 3481POPC   D2A44896  17.326  38.702   6.543
 3481POPC   C3A44897  17.485  38.662   6.916
 3481POPC   C4A44898  17.459  38.779   7.284
 3481POPC   C1B44899  17.417  38.207   6.424
 3481POPC   C2B44900  17.656  38.189   6.823
 3481POPC   C3B44901  17.528  38.280   7.258
 3481POPC   C4B44902  17.490  38.087   7.681
 3482POPC   NC344903  20.463  12.556   5.349
 3482POPC   PO444904  20.946  13.056   5.391
 3482POPC   GL144905  20.767  12.859   5.760
 3482POPC   GL244906  20.435  12.850   5.813
 3482POPC   C1A44907  20.756  13.103   6.173
 3482POPC   D2A44908  20.716  13.174   6.615
 3482POPC   C3A44909  20.973  13.085   6.939
 3482POPC   C4A44910  20.947  13.287   7.319
 3482POPC   C1B44911  20.486  12.675   6.229
 3482POPC   C2B44912  20.485  12.543   6.663
 3482POPC   C3B44913  20.535  12.844   7.035
 3482POPC   C4B44914  20.430  12.740   7.493
 3483POPC   NC344915  23.465   3.888   5.287
 3483POPC   PO444916  23.783   3.253   5.425
 3483POPC   GL144917  23.869   3.442   5.841
 3483POPC   GL244918  23.715   3.755   5.778
 3483POPC   C1A44919  23.980   3.339   6.276
 3483POPC   D2A44920  23.856   3.111   6.638
 3483POPC   C3A44921  23.743   3.288   7.045
 3483POPC   C4A44922  23.323   3.248   7.251
 3483POPC   C1B44923  23.523   3.630   6.177
 3483POPC   C2B44924  23.543   3.563   6.624
 3483POPC   C3B44925  23.413   3.702   7.029
 3483POPC   C4B44926  23.264   3.720   7.448
 3484POPC   NC344927  21.285  13.511   5.437
 3484POPC   PO444928  21.745  13.974   5.725
 3484POPC   GL144929  21.545  13.588   5.888
 3484POPC   GL244930  21.222  13.695   5.975
 3484POPC   C1A44931  21.458  13.315   6.217
 3484POPC   D2A44932  21.230  13.135   6.497
 3484POPC   C3A44933  21.339  13.424   6.808
 3484POPC   C4A44934  21.475  13.387   7.207
 3484POPC   C1B44935  21.535  13.826   6.326
 3484POPC   C2B44936  21.628  14.032   6.687
 3484POPC   C3B44937  21.265  13.957   6.880
 3484POPC   C4B44938  21.182  13.800   7.266
 3485POPC   NC344939   5.340  31.728   5.519
 3485POPC   PO444940   5.287  32.404   5.450
 3485POPC   GL144941   5.152  32.275   5.862
 3485POPC   GL244942   5.001  31.928   5.850
 3485POPC   C1A44943   5.249  32.406   6.342
 3485POPC   D2A44944   4.996  32.437   6.743
 3485POPC   C3A44945   5.045  32.443   7.223
 3485POPC   C4A44946   4.757  32.205   7.545
 3485POPC   C1B44947   4.984  31.983   6.266
 3485POPC   C2B44948   4.815  31.912   6.666
 3485POPC   C3B44949   4.903  31.985   7.075
 3485POPC   C4B44950   5.285  31.866   7.239
 3486POPC   NC344951  14.715  12.562   5.272
 3486POPC   PO444952  14.223  12.959   5.338
 3486POPC   GL144953  14.419  12.806   5.751
 3486POPC   GL244954  14.624  12.488   5.780
 3486POPC   C1A44955  14.301  12.944   6.197
 3486POPC   D2A44956  14.564  12.989   6.586
 3486POPC   C3A44957  14.543  12.993   7.040
 3486POPC   C4A44958  14.136  12.919   7.254
 3486POPC   C1B44959  14.425  12.447   6.189
 3486POPC   C2B44960  14.144  12.600   6.546
 3486POPC   C3B44961  14.304  12.555   6.950
 3486POPC   C4B44962  14.693  12.416   7.134
 3487POPC   NC344963   6.139  20.499   5.545
 3487POPC   PO444964   5.501  20.452   5.316
 3487POPC   GL144965   5.668  20.694   5.701
 3487POPC   GL244966   5.728  20.393   5.823
 3487POPC   C1A44967   5.720  20.832   6.152
 3487POPC   D2A44968   6.057  20.855   6.502
 3487POPC   C3A44969   5.896  20.790   6.939
 3487POPC   C4A44970   5.543  20.539   7.075
 3487POPC   C1B44971   5.912  20.349   6.194
 3487POPC   C2B44972   5.973  20.131   6.537
 3487POPC   C3B44973   6.015  20.288   6.920
 3487POPC   C4B44974   6.116  20.320   7.319
 3488POPC   NC344975  13.822  34.004   5.462
 3488POPC   PO444976  13.424  33.524   5.395
 3488POPC   GL144977  13.662  33.683   5.810
 3488POPC   GL244978  14.041  33.646   5.821
 3488POPC   C1A44979  13.805  33.945   6.177
 3488POPC   D2A44980  13.828  34.124   6.613
 3488POPC   C3A44981  13.694  33.997   7.067
 3488POPC   C4A44982  13.950  34.024   7.458
 3488POPC   C1B44983  13.900  33.414   6.214
 3488POPC   C2B44984  14.003  33.293   6.663
 3488POPC   C3B44985  13.906  33.523   7.055
 3488POPC   C4B44986  13.669  33.533   7.461
 3489POPC   NC344987  36.346  12.055   5.336
 3489POPC   PO444988  35.749  12.082   5.329
 3489POPC   GL144989  35.828  11.936   5.769
 3489POPC   GL244990  36.123  11.713   5.777
 3489POPC   C1A44991  36.080  12.089   6.164
 3489POPC   D2A44992  36.299  12.194   6.571
 3489POPC   C3A44993  36.014  12.227   6.910
 3489POPC   C4A44994  35.930  11.980   7.248
 3489POPC   C1B44995  35.920  11.616   6.221
 3489POPC   C2B44996  36.030  11.749   6.666
 3489POPC   C3B44997  36.325  11.773   7.022
 3489POPC   C4B44998  36.211  11.585   7.437
 3490POPC   NC344999  25.774   2.408   5.443
 3490POPC   PO445000  26.440   2.700   5.438
 3490POPC   GL145001  26.199   2.886   5.780
 3490POPC   GL245002  25.851   2.767   5.832
 3490POPC   C1A45003  26.225   2.753   6.215
 3490POPC   D2A45004  26.262   2.529   6.621
 3490POPC   C3A45005  26.316   2.764   7.004
 3490POPC   C4A45006  26.360   3.213   7.000
 3490POPC   C1B45007  25.718   2.820   6.256
 3490POPC   C2B45008  25.923   3.014   6.599
 3490POPC   C3B45009  25.851   3.078   7.009
 3490POPC   C4B45010  25.763   2.691   7.140
 3491POPC   NC345011  35.711  43.932   5.624
 3491POPC   PO445012  35.101  44.234   5.429
 3491POPC   GL145013  35.266  44.115   5.824
 3491POPC   GL245014  35.255  43.740   5.768
 3491POPC   C1A45015  35.559  44.178   6.196
 3491POPC   D2A45016  35.598  43.965   6.613
 3491POPC   C3A45017  35.467  44.185   7.002
 3491POPC   C4A45018  35.449  44.098   7.499
 3491POPC   C1B45019  35.304  43.737   6.209
 3491POPC   C2B45020  35.132  43.686   6.611
 3491POPC   C3B45021  35.048  43.874   6.994
 3491POPC   C4B45022  35.070  43.777   7.403
 3492POPC   NC345023   9.085  13.765   5.421
 3492POPC   PO445024   8.513  13.490   5.636
 3492POPC   GL145025   8.903  13.580   5.889
 3492POPC   GL245026   9.251  13.739   5.894
 3492POPC   C1A45027   8.932  13.575   6.321
 3492POPC   D2A45028   8.735  13.369   6.646
 3492POPC   C3A45029   8.787  13.575   7.027
 3492POPC   C4A45030   8.995  13.620   7.398
 3492POPC   C1B45031   9.368  13.821   6.332
 3492POPC   C2B45032   9.212  13.763   6.763
 3492POPC   C3B45033   9.420  13.805   7.169
 3492POPC   C4B45034   9.370  13.974   7.589
 3493POPC   NC345035   5.385  20.914   5.353
 3493POPC   PO445036   5.191  21.565   5.342
 3493POPC   GL145037   5.091  21.308   5.720
 3493POPC   GL245038   5.380  21.145   5.820
 3493POPC   C1A45039   5.028  21.355   6.191
 3493POPC   D2A45040   5.184  21.350   6.642
 3493POPC   C3A45041   4.998  21.407   7.082
 3493POPC   C4A45042   4.851  21.363   7.551
 3493POPC   C1B45043   5.525  21.309   6.220
 3493POPC   C2B45044   5.668  21.162   6.617
 3493POPC   C3B45045   5.452  21.065   7.029
 3493POPC   C4B45046   5.295  21.167   7.427
 3494POPC   NC345047  37.055   3.143   5.368
 3494POPC   PO445048  36.766   3.744   5.560
 3494POPC   GL145049  36.750   3.421   5.868
 3494POPC   GL245050  37.048   3.304   5.876
 3494POPC   C1A45051  36.683   3.469   6.315
 3494POPC   D2A45052  36.551   3.536   6.720
 3494POPC   C3A45053  36.821   3.387   6.973
 3494POPC   C4A45054  36.971   3.766   7.033
 3494POPC   C1B45055  37.142   3.648   6.165
 3494POPC   C2B45056  37.193   3.529   6.610
 3494POPC   C3B45057  37.345   3.375   7.008
 3494POPC   C4B45058  37.125   3.170   7.326
 3495POPC   NC345059   8.922  43.802   5.441
 3495POPC   PO445060   8.457  44.270   5.482
 3495POPC   GL145061   8.769  44.045   5.853
 3495POPC   GL245062   9.171  44.031   5.827
 3495POPC   C1A45063   8.930  43.716   6.175
 3495POPC   D2A45064   8.743  43.576   6.573
 3495POPC   C3A45065   8.873  43.614   6.962
 3495POPC   C4A45066   8.815  43.848   7.344
 3495POPC   C1B45067   9.378  43.964   6.220
 3495POPC   C2B45068   9.178  43.883   6.609
 3495POPC   C3B45069   8.949  44.138   6.885
 3495POPC   C4B45070   8.917  44.360   7.279
 3496POPC   NC345071  42.258  16.203   5.428
 3496POPC   PO445072  42.543  15.646   5.179
 3496POPC   GL145073  42.396  15.732   5.614
 3496POPC   GL245074  42.024  15.775   5.579
 3496POPC   C1A45075  42.370  15.845   6.096
 3496POPC   D2A45076  42.333  16.219   6.414
 3496POPC   C3A45077  42.464  16.275   6.858
 3496POPC   C4A45078  42.483  15.951   7.173
 3496POPC   C1B45079  41.906  15.677   6.003
 3496POPC   C2B45080  42.029  15.565   6.414
 3496POPC   C3B45081  42.167  15.717   6.808
 3496POPC   C4B45082  42.023  15.755   7.203
 3497POPC   NC345083  28.099  38.967   5.361
 3497POPC   PO445084  28.464  38.345   5.342
 3497POPC   GL145085  28.705  38.288   5.703
 3497POPC   GL245086  28.404  38.241   5.864
 3497POPC   C1A45087  28.775  38.479   6.129
 3497POPC   D2A45088  28.553  38.436   6.517
 3497POPC   C3A45089  28.721  38.500   6.939
 3497POPC   C4A45090  28.758  38.159   7.246
 3497POPC   C1B45091  28.139  38.057   6.141
 3497POPC   C2B45092  28.123  38.145   6.538
 3497POPC   C3B45093  28.340  38.181   6.909
 3497POPC   C4B45094  28.237  38.187   7.319
 3498POPC   NC345095  19.520  25.967   5.317
 3498POPC   PO445096  18.869  25.844   5.407
 3498POPC   GL145097  19.134  26.091   5.707
 3498POPC   GL245098  19.457  25.942   5.817
 3498POPC   C1A45099  19.054  26.281   6.123
 3498POPC   D2A45100  18.948  26.038   6.505
 3498POPC   C3A45101  19.117  26.209   6.886
 3498POPC   C4A45102  18.856  26.330   7.211
 3498POPC   C1B45103  19.346  25.876   6.229
 3498POPC   C2B45104  19.389  25.798   6.656
 3498POPC   C3B45105  19.024  25.706   6.903
 3498POPC   C4B45106  19.066  25.679   7.291
 3499POPC   NC345107  36.322  37.977   5.492
 3499POPC   PO445108  36.224  37.267   5.390
 3499POPC   GL145109  36.071  37.472   5.796
 3499POPC   GL245110  35.953  37.846   5.814
 3499POPC   C1A45111  36.079  37.428   6.262
 3499POPC   D2A45112  36.060  37.389   6.718
 3499POPC   C3A45113  36.046  37.808   6.957
 3499POPC   C4A45114  36.054  37.915   7.403
 3499POPC   C1B45115  36.298  37.889   6.167
 3499POPC   C2B45116  36.435  37.764   6.611
 3499POPC   C3B45117  36.460  37.528   7.019
 3499POPC   C4B45118  36.461  37.587   7.472
 3500POPC   NC345119  40.662  43.215   5.346
 3500POPC   PO445120  41.327  43.321   5.439
 3500POPC   GL145121  40.996  43.147   5.768
 3500POPC   GL245122  40.629  42.993   5.791
 3500POPC   C1A45123  40.835  43.137   6.236
 3500POPC   D2A45124  40.731  43.148   6.693
 3500POPC   C3A45125  40.993  43.372   7.008
 3500POPC   C4A45126  40.899  43.424   7.496
 3500POPC   C1B45127  40.419  42.751   6.115
 3500POPC   C2B45128  40.533  42.563   6.510
 3500POPC   C3B45129  40.553  42.715   6.940
 3500POPC   C4B45130  40.804  42.978   7.220
 3501POPC   NC345131  43.570  16.936   5.324
 3501POPC   PO445132  42.973  16.615   5.231
 3501POPC   GL145133  43.241  16.595   5.641
 3501POPC   GL245134  43.179  16.939   5.724
 3501POPC   C1A45135  43.155  16.578   6.132
 3501POPC   D2A45136  42.887  16.578   6.554
 3501POPC   C3A45137  43.085  16.607   6.991
 3501POPC   C4A45138  42.993  16.717   7.457
 3501POPC   C1B45139  43.163  17.084   6.167
 3501POPC   C2B45140  43.332  16.895   6.554
 3501POPC   C3B45141  43.386  17.018   6.978
 3501POPC   C4B45142  42.995  17.133   7.161
 3502POPC   NC345143  27.035   9.960   5.505
 3502POPC   PO445144  26.545   9.540   5.305
 3502POPC   GL145145  26.719   9.621   5.750
 3502POPC   GL245146  27.062   9.717   5.960
 3502POPC   C1A45147  26.615   9.790   6.156
 3502POPC   D2A45148  26.814   9.936   6.534
 3502POPC   C3A45149  26.953   9.660   6.838
 3502POPC   C4A45150  26.797   9.705   7.224
 3502POPC   C1B45151  27.083  10.160   6.145
 3502POPC   C2B45152  27.103  10.390   6.546
 3502POPC   C3B45153  26.985  10.181   6.960
 3502POPC   C4B45154  27.093  10.063   7.412
 3503POPC   NC345155  32.522  22.277   5.225
 3503POPC   PO445156  31.931  21.822   5.332
 3503POPC   GL145157  32.101  22.006   5.732
 3503POPC   GL245158  32.151  22.363   5.805
 3503POPC   C1A45159  32.167  22.045   6.203
 3503POPC   D2A45160  32.149  22.353   6.538
 3503POPC   C3A45161  32.207  22.153   6.957
 3503POPC   C4A45162  31.889  21.907   7.213
 3503POPC   C1B45163  32.383  22.611   6.134
 3503POPC   C2B45164  32.544  22.730   6.538
 3503POPC   C3B45165  32.249  22.714   6.882
 3503POPC   C4B45166  32.372  22.565   7.248
 3504POPC   NC345167  39.592  39.776   5.561
 3504POPC   PO445168  38.979  39.773   5.333
 3504POPC   GL145169  39.019  40.024   5.755
 3504POPC   GL245170  39.365  40.025   5.938
 3504POPC   C1A45171  38.984  40.216   6.204
 3504POPC   D2A45172  39.175  40.002   6.555
 3504POPC   C3A45173  39.055  39.891   6.964
 3504POPC   C4A45174  39.061  40.115   7.352
 3504POPC   C1B45175  39.567  39.771   6.275
 3504POPC   C2B45176  39.524  39.673   6.716
 3504POPC   C3B45177  39.485  39.634   7.146
 3504POPC   C4B45178  39.716  39.700   7.548
 3505POPC   NC345179  41.781   9.550   5.628
 3505POPC   PO445180  41.364  10.044   5.534
 3505POPC   GL145181  41.510   9.897   5.921
 3505POPC   GL245182  41.846  10.024   5.865
 3505POPC   C1A45183  41.621   9.594   6.274
 3505POPC   D2A45184  41.601   9.724   6.711
 3505POPC   C3A45185  41.270   9.590   7.019
 3505POPC   C4A45186  41.228   9.650   7.478
 3505POPC   C1B45187  41.806  10.074   6.313
 3505POPC   C2B45188  41.952  10.116   6.729
 3505POPC   C3B45189  41.674  10.077   7.088
 3505POPC   C4B45190  41.716   9.663   7.254
 3506POPC   NC345191  40.185  24.682   5.537
 3506POPC   PO445192  39.966  24.225   5.089
 3506POPC   GL145193  39.898  24.237   5.575
 3506POPC   GL245194  39.645  24.487   5.752
 3506POPC   C1A45195  40.031  24.228   6.040
 3506POPC   D2A45196  39.855  24.315   6.463
 3506POPC   C3A45197  40.120  24.455   6.802
 3506POPC   C4A45198  40.124  24.458   7.233
 3506POPC   C1B45199  39.772  24.737   6.159
 3506POPC   C2B45200  39.800  24.805   6.644
 3506POPC   C3B45201  39.672  24.587   7.067
 3506POPC   C4B45202  39.759  24.643   7.554
 3507POPC   NC345203  11.601  22.601   5.169
 3507POPC   PO445204  12.105  22.364   5.587
 3507POPC   GL145205  11.963  22.162   5.938
 3507POPC   GL245206  12.055  21.803   5.895
 3507POPC   C1A45207  12.185  22.208   6.329
 3507POPC   D2A45208  12.438  22.167   6.673
 3507POPC   C3A45209  12.167  22.348   7.004
 3507POPC   C4A45210  11.952  22.381   7.374
 3507POPC   C1B45211  11.869  21.796   6.302
 3507POPC   C2B45212  12.030  21.836   6.711
 3507POPC   C3B45213  11.922  21.916   7.141
 3507POPC   C4B45214  12.117  21.923   7.539
 3508POPC   NC345215   7.538  16.401   5.343
 3508POPC   PO445216   7.781  16.965   5.546
 3508POPC   GL145217   7.556  16.701   5.823
 3508POPC   GL245218   7.212  16.600   5.742
 3508POPC   C1A45219   7.572  16.832   6.245
 3508POPC   D2A45220   7.421  17.038   6.608
 3508POPC   C3A45221   7.557  16.803   6.969
 3508POPC   C4A45222   7.486  16.919   7.399
 3508POPC   C1B45223   7.085  16.830   6.128
 3508POPC   C2B45224   7.077  16.666   6.566
 3508POPC   C3B45225   7.144  16.459   6.993
 3508POPC   C4B45226   7.221  16.451   7.450
 3509POPC   NC345227  28.519  35.914   5.519
 3509POPC   PO445228  28.246  36.522   5.407
 3509POPC   GL145229  28.232  36.251   5.786
 3509POPC   GL245230  28.539  36.365   5.898
 3509POPC   C1A45231  28.079  36.070   6.205
 3509POPC   D2A45232  27.840  35.910   6.595
 3509POPC   C3A45233  28.064  35.924   6.982
 3509POPC   C4A45234  28.488  35.964   7.130
 3509POPC   C1B45235  28.169  36.589   6.154
 3509POPC   C2B45236  28.060  36.464   6.557
 3509POPC   C3B45237  28.290  36.386   6.906
 3509POPC   C4B45238  28.120  36.341   7.292
 3510POPC   NC345239  36.623   5.773   5.319
 3510POPC   PO445240  37.181   6.143   5.454
 3510POPC   GL145241  36.946   5.862   5.763
 3510POPC   GL245242  36.626   6.048   5.781
 3510POPC   C1A45243  37.110   5.679   6.167
 3510POPC   D2A45244  37.114   5.903   6.555
 3510POPC   C3A45245  37.230   5.690   6.910
 3510POPC   C4A45246  37.332   5.868   7.275
 3510POPC   C1B45247  36.632   5.827   6.198
 3510POPC   C2B45248  36.742   5.576   6.595
 3510POPC   C3B45249  36.738   5.744   7.030
 3510POPC   C4B45250  36.903   6.126   7.220
 3511POPC   NC345251  40.691  29.571   5.267
 3511POPC   PO445252  40.999  30.139   5.336
 3511POPC   GL145253  40.878  30.062   5.741
 3511POPC   GL245254  40.605  29.862   5.705
 3511POPC   C1A45255  40.904  30.235   6.148
 3511POPC   D2A45256  41.183  30.183   6.482
 3511POPC   C3A45257  41.003  29.958   6.822
 3511POPC   C4A45258  40.814  29.986   7.241
 3511POPC   C1B45259  40.448  29.989   6.097
 3511POPC   C2B45260  40.603  29.864   6.510
 3511POPC   C3B45261  40.477  30.051   6.886
 3511POPC   C4B45262  40.305  30.073   7.281
 3512POPC   NC345263  42.633  34.242   5.571
 3512POPC   PO445264  42.737  34.858   5.608
 3512POPC   GL145265  42.349  34.623   5.830
 3512POPC   GL245266  42.350  34.285   6.010
 3512POPC   C1A45267  42.084  34.646   6.232
 3512POPC   D2A45268  41.919  34.423   6.630
 3512POPC   C3A45269  41.945  34.587   7.043
 3512POPC   C4A45270  42.292  34.900   7.186
 3512POPC   C1B45271  42.730  34.120   6.240
 3512POPC   C2B45272  42.887  34.172   6.682
 3512POPC   C3B45273  42.737  34.387   7.084
 3512POPC   C4B45274  42.676  34.680   7.449
 3513POPC   NC345275   3.844  32.311   5.355
 3513POPC   PO445276   3.180  32.371   5.525
 3513POPC   GL145277   3.557  32.239   5.791
 3513POPC   GL245278   3.875  32.483   5.816
 3513POPC   C1A45279   3.610  31.979   6.177
 3513POPC   D2A45280   3.800  31.836   6.579
 3513POPC   C3A45281   3.574  32.044   6.897
 3513POPC   C4A45282   3.191  32.162   7.076
 3513POPC   C1B45283   3.996  32.316   6.174
 3513POPC   C2B45284   3.733  32.367   6.521
 3513POPC   C3B45285   3.602  32.553   6.896
 3513POPC   C4B45286   3.635  32.397   7.282
 3514POPC   NC345287  42.615  11.525   5.374
 3514POPC   PO445288  42.392  10.873   5.398
 3514POPC   GL145289  42.329  11.228   5.682
 3514POPC   GL245290  42.675  11.262   5.791
 3514POPC   C1A45291  42.136  11.503   6.021
 3514POPC   D2A45292  42.037  11.377   6.444
 3514POPC   C3A45293  42.124  11.395   6.893
 3514POPC   C4A45294  42.363  11.202   7.229
 3514POPC   C1B45295  42.607  11.413   6.160
 3514POPC   C2B45296  42.680  11.490   6.553
 3514POPC   C3B45297  42.618  11.547   6.948
 3514POPC   C4B45298  42.639  11.597   7.369
 3515POPC   NC345299   9.978   9.894   5.391
 3515POPC   PO445300   9.792   9.229   5.495
 3515POPC   GL145301   9.862   9.536   5.802
 3515POPC   GL245302   9.627   9.778   5.736
 3515POPC   C1A45303   9.673   9.605   6.217
 3515POPC   D2A45304   9.787   9.494   6.622
 3515POPC   C3A45305   9.976   9.796   6.867
 3515POPC   C4A45306  10.053   9.686   7.264
 3515POPC   C1B45307   9.346   9.983   6.001
 3515POPC   C2B45308   9.329   9.980   6.447
 3515POPC   C3B45309   9.335   9.680   6.783
 3515POPC   C4B45310   9.539   9.769   7.160
 3516POPC   NC345311  31.308  39.545   5.256
 3516POPC   PO445312  31.644  40.084   5.306
 3516POPC   GL145313  31.630  39.839   5.718
 3516POPC   GL245314  31.265  39.751   5.785
 3516POPC   C1A45315  31.606  39.742   6.190
 3516POPC   D2A45316  31.430  39.941   6.583
 3516POPC   C3A45317  31.655  40.064   7.000
 3516POPC   C4A45318  31.831  40.115   7.457
 3516POPC   C1B45319  31.162  40.092   6.107
 3516POPC   C2B45320  30.983  40.193   6.524
 3516POPC   C3B45321  31.162  40.237   6.915
 3516POPC   C4B45322  31.140  39.915   7.194
 3517POPC   NC345323  42.395   1.599   5.189
 3517POPC   PO445324  41.987   1.990   5.598
 3517POPC   GL145325  42.385   1.812   5.720
 3517POPC   GL245326  42.431   2.101   5.930
 3517POPC   C1A45327  42.560   1.643   6.133
 3517POPC   D2A45328  42.456   1.949   6.478
 3517POPC   C3A45329  42.406   1.762   6.855
 3517POPC   C4A45330  42.298   1.717   7.252
 3517POPC   C1B45331  42.130   2.266   6.239
 3517POPC   C2B45332  42.144   2.381   6.679
 3517POPC   C3B45333  42.098   2.164   7.041
 3517POPC   C4B45334  41.945   2.293   7.488
 3518POPC   NC345335  38.713  24.652   5.547
 3518POPC   PO445336  38.147  24.627   5.219
 3518POPC   GL145337  38.277  24.432   5.692
 3518POPC   GL245338  38.591  24.249   5.853
 3518POPC   C1A45339  38.344  24.596   6.169
 3518POPC   D2A45340  38.464  24.750   6.584
 3518POPC   C3A45341  38.277  24.438   6.842
 3518POPC   C4A45342  38.153  24.487   7.269
 3518POPC   C1B45343  38.794  24.372   6.291
 3518POPC   C2B45344  38.818  24.438   6.759
 3518POPC   C3B45345  38.632  24.663   7.137
 3518POPC   C4B45346  38.660  24.602   7.631
 3519POPC   NC345347   2.874  25.711   5.391
 3519POPC   PO445348   2.477  26.220   5.282
 3519POPC   GL145349   2.720  26.093   5.674
 3519POPC   GL245350   2.664  25.785   5.879
 3519POPC   C1A45351   3.033  26.139   6.025
 3519POPC   D2A45352   3.114  26.142   6.474
 3519POPC   C3A45353   2.805  26.187   6.749
 3519POPC   C4A45354   2.824  26.055   7.142
 3519POPC   C1B45355   2.717  25.828   6.346
 3519POPC   C2B45356   2.494  25.778   6.754
 3519POPC   C3B45357   2.528  25.646   7.174
 3519POPC   C4B45358   2.446  25.890   7.529
 3520POPC   NC345359  12.014  19.358   5.393
 3520POPC   PO445360  11.744  18.663   5.468
 3520POPC   GL145361  11.835  18.898   5.872
 3520POPC   GL245362  12.020  19.221   5.871
 3520POPC   C1A45363  11.919  18.994   6.311
 3520POPC   D2A45364  11.964  18.823   6.708
 3520POPC   C3A45365  11.894  19.071   7.053
 3520POPC   C4A45366  12.247  18.933   7.259
 3520POPC   C1B45367  12.283  19.367   6.212
 3520POPC   C2B45368  12.381  19.189   6.607
 3520POPC   C3B45369  12.424  19.346   7.000
 3520POPC   C4B45370  12.151  19.490   7.289
 3521POPC   NC345371   7.697  41.795   5.369
 3521POPC   PO445372   7.237  41.370   5.142
 3521POPC   GL145373   7.432  41.397   5.581
 3521POPC   GL245374   7.362  41.725   5.741
 3521POPC   C1A45375   7.448  41.352   6.068
 3521POPC   D2A45376   7.569  41.397   6.530
 3521POPC   C3A45377   7.283  41.552   6.822
 3521POPC   C4A45378   7.293  41.677   7.249
 3521POPC   C1B45379   7.610  41.838   6.093
 3521POPC   C2B45380   7.833  41.912   6.479
 3521POPC   C3B45381   7.690  41.905   6.898
 3521POPC   C4B45382   7.821  41.665   7.218
 3522POPC   NC345383  22.002  21.709   5.585
 3522POPC   PO445384  22.321  21.273   5.154
 3522POPC   GL145385  22.276  21.253   5.651
 3522POPC   GL245386  21.906  21.228   5.727
 3522POPC   C1A45387  22.210  21.358   6.149
 3522POPC   D2A45388  22.276  21.567   6.586
 3522POPC   C3A45389  22.238  21.386   7.011
 3522POPC   C4A45390  22.075  21.666   7.315
 3522POPC   C1B45391  21.692  21.395   6.108
 3522POPC   C2B45392  21.794  21.356   6.516
 3522POPC   C3B45393  21.725  21.412   6.928
 3522POPC   C4B45394  21.808  21.168   7.255
 3523POPC   NC345395  40.161  39.831   4.999
 3523POPC   PO445396  40.728  39.947   5.318
 3523POPC   GL145397  40.811  40.049   5.753
 3523POPC   GL245398  41.085  40.319   5.811
 3523POPC   C1A45399  40.673  39.831   6.141
 3523POPC   D2A45400  40.884  39.785   6.535
 3523POPC   C3A45401  40.702  39.865   6.926
 3523POPC   C4A45402  40.581  40.067   7.332
 3523POPC   C1B45403  40.954  40.246   6.234
 3523POPC   C2B45404  41.117  40.224   6.656
 3523POPC   C3B45405  41.048  40.189   7.109
 3523POPC   C4B45406  41.021  40.275   7.510
 3524POPC   NC345407  19.739  13.169   5.533
 3524POPC   PO445408  19.834  13.844   5.429
 3524POPC   GL145409  19.832  13.638   5.785
 3524POPC   GL245410  19.492  13.519   5.791
 3524POPC   C1A45411  19.991  13.614   6.194
 3524POPC   D2A45412  19.926  13.365   6.562
 3524POPC   C3A45413  20.008  13.605   6.921
 3524POPC   C4A45414  19.869  13.780   7.315
 3524POPC   C1B45415  19.478  13.784   6.140
 3524POPC   C2B45416  19.648  13.796   6.555
 3524POPC   C3B45417  19.501  13.707   6.946
 3524POPC   C4B45418  19.383  13.952   7.287
 3525POPC   NC345419  10.470  11.798   5.601
 3525POPC   PO445420  10.838  12.294   5.466
 3525POPC   GL145421  10.735  12.254   5.873
 3525POPC   GL245422  10.882  11.943   5.889
 3525POPC   C1A45423  10.570  12.360   6.284
 3525POPC   D2A45424  10.283  12.438   6.654
 3525POPC   C3A45425  10.266  12.169   7.039
 3525POPC   C4A45426  10.408  12.133   7.465
 3525POPC   C1B45427  10.666  11.840   6.281
 3525POPC   C2B45428  10.655  12.043   6.694
 3525POPC   C3B45429  10.774  12.105   7.110
 3525POPC   C4B45430  10.847  11.893   7.492
 3526POPC   NC345431  21.987  28.368   5.298
 3526POPC   PO445432  22.666  28.453   5.263
 3526POPC   GL145433  22.439  28.324   5.691
 3526POPC   GL245434  22.087  28.271   5.773
 3526POPC   C1A45435  22.415  28.290   6.161
 3526POPC   D2A45436  22.518  28.137   6.580
 3526POPC   C3A45437  22.468  28.383   6.982
 3526POPC   C4A45438  22.177  28.730   7.137
 3526POPC   C1B45439  21.933  28.044   6.113
 3526POPC   C2B45440  22.008  28.017   6.517
 3526POPC   C3B45441  21.989  28.326   6.813
 3526POPC   C4B45442  21.930  28.262   7.216
 3527POPC   NC345443   5.150  27.177   5.586
 3527POPC   PO445444   4.939  27.810   5.371
 3527POPC   GL145445   5.082  27.667   5.771
 3527POPC   GL245446   4.786  27.483   5.854
 3527POPC   C1A45447   5.003  27.763   6.222
 3527POPC   D2A45448   5.167  27.925   6.596
 3527POPC   C3A45449   5.100  27.730   7.009
 3527POPC   C4A45450   5.151  27.869   7.465
 3527POPC   C1B45451   4.900  27.256   6.240
 3527POPC   C2B45452   4.992  27.389   6.649
 3527POPC   C3B45453   4.791  27.268   7.057
 3527POPC   C4B45454   4.723  27.224   7.535
 3528POPC   NC345455  29.637  41.995   5.343
 3528POPC   PO445456  29.129  41.505   5.325
 3528POPC   GL145457  29.099  41.593   5.746
 3528POPC   GL245458  28.953  41.934   5.754
 3528POPC   C1A45459  29.286  41.520   6.117
 3528POPC   D2A45460  29.216  41.330   6.506
 3528POPC   C3A45461  29.174  41.631   6.811
 3528POPC   C4A45462  29.077  41.516   7.204
 3528POPC   C1B45463  29.036  41.954   6.217
 3528POPC   C2B45464  28.824  41.981   6.643
 3528POPC   C3B45465  28.757  41.895   7.093
 3528POPC   C4B45466  28.872  41.795   7.573
 3529POPC   NC345467  12.215  15.558   5.348
 3529POPC   PO445468  11.916  16.158   5.520
 3529POPC   GL145469  11.989  15.942   5.841
 3529POPC   GL245470  11.925  15.605   5.771
 3529POPC   C1A45471  12.154  16.028   6.252
 3529POPC   D2A45472  12.183  15.773   6.645
 3529POPC   C3A45473  12.218  15.999   7.026
 3529POPC   C4A45474  12.360  15.862   7.436
 3529POPC   C1B45475  11.883  15.614   6.218
 3529POPC   C2B45476  11.677  15.868   6.538
 3529POPC   C3B45477  11.558  15.808   6.950
 3529POPC   C4B45478  11.789  15.913   7.288
 3530POPC   NC345479  19.360   6.959   4.971
 3530POPC   PO445480  18.942   6.413   5.353
 3530POPC   GL145481  19.076   6.368   5.759
 3530POPC   GL245482  19.424   6.323   5.768
 3530POPC   C1A45483  19.027   6.569   6.163
 3530POPC   D2A45484  19.095   6.914   6.457
 3530POPC   C3A45485  18.947   6.771   6.850
 3530POPC   C4A45486  19.042   6.906   7.247
 3530POPC   C1B45487  19.411   6.229   6.194
 3530POPC   C2B45488  19.360   6.482   6.568
 3530POPC   C3B45489  19.325   6.449   7.004
 3530POPC   C4B45490  19.337   6.518   7.447
 3531POPC   NC345491  25.944  41.155   5.401
 3531POPC   PO445492  26.231  40.559   5.245
 3531POPC   GL145493  26.072  40.719   5.705
 3531POPC   GL245494  25.765  40.885   5.780
 3531POPC   C1A45495  26.140  40.819   6.174
 3531POPC   D2A45496  26.319  40.801   6.607
 3531POPC   C3A45497  26.056  40.607   6.939
 3531POPC   C4A45498  25.858  40.484   7.323
 3531POPC   C1B45499  25.672  41.054   6.178
 3531POPC   C2B45500  25.789  40.917   6.587
 3531POPC   C3B45501  25.668  40.963   6.994
 3531POPC   C4B45502  25.419  41.210   7.211
 3532POPC   NC345503  17.507  15.566   5.397
 3532POPC   PO445504  17.447  16.251   5.487
 3532POPC   GL145505  17.409  15.935   5.732
 3532POPC   GL245506  17.731  15.895   5.912
 3532POPC   C1A45507  17.274  15.875   6.135
 3532POPC   D2A45508  17.567  15.802   6.448
 3532POPC   C3A45509  17.498  16.046   6.803
 3532POPC   C4A45510  17.565  16.057   7.239
 3532POPC   C1B45511  17.626  16.261   6.216
 3532POPC   C2B45512  17.719  16.484   6.637
 3532POPC   C3B45513  17.890  16.487   7.078
 3532POPC   C4B45514  17.688  16.478   7.522
 3533POPC   NC345515   6.972  39.600   5.099
 3533POPC   PO445516   6.383  39.836   5.383
 3533POPC   GL145517   6.617  39.941   5.767
 3533POPC   GL245518   6.692  40.293   5.854
 3533POPC   C1A45519   6.847  39.878   6.155
 3533POPC   D2A45520   6.631  39.779   6.514
 3533POPC   C3A45521   6.774  39.869   6.894
 3533POPC   C4A45522   6.552  39.766   7.238
 3533POPC   C1B45523   6.468  40.220   6.242
 3533POPC   C2B45524   6.587  40.343   6.668
 3533POPC   C3B45525   6.484  40.281   7.098
 3533POPC   C4B45526   6.596  40.177   7.519
 3534POPC   NC345527  31.278  36.515   5.534
 3534POPC   PO445528  30.871  35.961   5.287
 3534POPC   GL145529  30.652  35.983   5.701
 3534POPC   GL245530  30.692  36.304   5.812
 3534POPC   C1A45531  30.577  35.932   6.139
 3534POPC   D2A45532  30.669  36.156   6.507
 3534POPC   C3A45533  30.671  35.954   6.893
 3534POPC   C4A45534  30.625  36.158   7.298
 3534POPC   C1B45535  30.833  36.519   6.156
 3534POPC   C2B45536  31.035  36.536   6.538
 3534POPC   C3B45537  30.846  36.464   6.919
 3534POPC   C4B45538  30.904  36.587   7.329
 3535POPC   NC345539  34.157  11.359   5.202
 3535POPC   PO445540  33.598  10.999   5.288
 3535POPC   GL145541  33.674  11.270   5.650
 3535POPC   GL245542  34.030  11.231   5.753
 3535POPC   C1A45543  33.707  11.377   6.116
 3535POPC   D2A45544  34.005  11.408   6.460
 3535POPC   C3A45545  33.826  11.356   6.869
 3535POPC   C4A45546  33.975  11.384   7.296
 3535POPC   C1B45547  34.179  11.013   6.172
 3535POPC   C2B45548  34.082  10.906   6.626
 3535POPC   C3B45549  34.082  10.923   7.089
 3535POPC   C4B45550  34.225  10.954   7.516
 3536POPC   NC345551   0.081  10.096   5.356
 3536POPC   PO445552   0.242  10.796   5.455
 3536POPC   GL145553   0.340  10.564   5.807
 3536POPC   GL245554   0.344  10.225   5.760
 3536POPC   C1A45555   0.558  10.369   6.200
 3536POPC   D2A45556   0.734  10.584   6.534
 3536POPC   C3A45557   0.615  10.459   6.922
 3536POPC   C4A45558   0.511  10.716   7.268
 3536POPC   C1B45559   0.056  10.301   6.125
 3536POPC   C2B45560   0.156  10.222   6.524
 3536POPC   C3B45561   0.087  10.349   6.923
 3536POPC   C4B45562   0.282  10.270   7.273
 3537POPC   NC345563   7.054  33.053   5.602
 3537POPC   PO445564   7.700  32.775   5.571
 3537POPC   GL145565   7.505  33.026   5.858
 3537POPC   GL245566   7.272  32.717   5.909
 3537POPC   C1A45567   7.585  33.316   6.203
 3537POPC   D2A45568   7.466  33.471   6.637
 3537POPC   C3A45569   7.459  33.270   7.052
 3537POPC   C4A45570   7.412  33.142   7.477
 3537POPC   C1B45571   7.378  32.832   6.308
 3537POPC   C2B45572   7.352  32.886   6.729
 3537POPC   C3B45573   7.369  32.773   7.120
 3537POPC   C4B45574   7.616  32.690   7.406
 3538POPC   NC345575   2.494  33.312   5.280
 3538POPC   PO445576   2.974  33.892   5.404
 3538POPC   GL145577   2.727  33.862   5.783
 3538POPC   GL245578   2.800  34.178   5.917
 3538POPC   C1A45579   2.498  33.596   6.082
 3538POPC   D2A45580   2.626  33.352   6.443
 3538POPC   C3A45581   2.702  33.572   6.844
 3538POPC   C4A45582   2.803  33.572   7.313
 3538POPC   C1B45583   2.690  34.017   6.314
 3538POPC   C2B45584   2.585  34.184   6.699
 3538POPC   C3B45585   2.714  34.031   7.073
 3538POPC   C4B45586   2.540  34.003   7.443
 3539POPC   NC345587   9.226  32.083   5.430
 3539POPC   PO445588   8.822  32.644   5.377
 3539POPC   GL145589   8.874  32.414   5.740
 3539POPC   GL245590   9.223  32.493   5.762
 3539POPC   C1A45591   8.881  32.272   6.179
 3539POPC   D2A45592   8.979  32.383   6.625
 3539POPC   C3A45593   8.843  32.201   7.064
 3539POPC   C4A45594   8.728  32.556   7.340
 3539POPC   C1B45595   9.397  32.330   6.137
 3539POPC   C2B45596   9.461  32.184   6.557
 3539POPC   C3B45597   9.328  32.297   6.986
 3539POPC   C4B45598   9.204  32.282   7.448
 3540POPC   NC345599   7.961  42.574   5.489
 3540POPC   PO445600   8.386  42.196   5.179
 3540POPC   GL145601   8.107  42.099   5.602
 3540POPC   GL245602   8.321  42.289   5.806
 3540POPC   C1A45603   7.872  42.266   6.051
 3540POPC   D2A45604   7.785  42.445   6.487
 3540POPC   C3A45605   8.040  42.296   6.814
 3540POPC   C4A45606   7.973  42.216   7.247
 3540POPC   C1B45607   8.568  42.362   6.190
 3540POPC   C2B45608   8.669  42.416   6.647
 3540POPC   C3B45609   8.510  42.274   7.054
 3540POPC   C4B45610   8.438  42.302   7.495
 3541POPC   NC345611  16.005  13.842   5.422
 3541POPC   PO445612  15.612  13.286   5.392
 3541POPC   GL145613  15.821  13.487   5.758
 3541POPC   GL245614  15.769  13.869   5.873
 3541POPC   C1A45615  15.872  13.493   6.207
 3541POPC   D2A45616  16.042  13.334   6.572
 3541POPC   C3A45617  16.041  13.470   6.998
 3541POPC   C4A45618  16.103  13.374   7.435
 3541POPC   C1B45619  16.047  13.981   6.218
 3541POPC   C2B45620  16.056  13.856   6.648
 3541POPC   C3B45621  15.919  13.989   7.070
 3541POPC   C4B45622  16.061  13.871   7.498
 3542POPC   NC345623  22.725  42.797   5.466
 3542POPC   PO445624  22.752  42.190   5.167
 3542POPC   GL145625  22.891  42.211   5.631
 3542POPC   GL245626  22.642  42.401   5.787
 3542POPC   C1A45627  23.059  42.184   6.084
 3542POPC   D2A45628  22.963  42.328   6.518
 3542POPC   C3A45629  23.251  42.386   6.853
 3542POPC   C4A45630  23.101  42.345   7.285
 3542POPC   C1B45631  22.751  42.644   6.142
 3542POPC   C2B45632  22.623  42.736   6.557
 3542POPC   C3B45633  22.738  42.611   6.973
 3542POPC   C4B45634  22.595  42.379   7.338
 3543POPC   NC345635  29.669  11.453   5.297
 3543POPC   PO445636  30.240  11.118   5.478
 3543POPC   GL145637  29.998  11.468   5.715
 3543POPC   GL245638  29.613  11.561   5.787
 3543POPC   C1A45639  30.023  11.502   6.148
 3543POPC   D2A45640  29.842  11.326   6.532
 3543POPC   C3A45641  30.103  11.204   6.833
 3543POPC   C4A45642  30.207  11.406   7.216
 3543POPC   C1B45643  29.530  11.300   6.136
 3543POPC   C2B45644  29.347  11.225   6.561
 3543POPC   C3B45645  29.572  11.172   6.982
 3543POPC   C4B45646  29.588  11.126   7.464
 3544POPC   NC345647  19.583  33.209   5.251
 3544POPC   PO445648  19.831  32.608   5.402
 3544POPC   GL145649  19.678  32.795   5.756
 3544POPC   GL245650  19.800  33.130   5.733
 3544POPC   C1A45651  19.514  32.898   6.154
 3544POPC   D2A45652  19.748  32.977   6.541
 3544POPC   C3A45653  19.549  33.024   6.920
 3544POPC   C4A45654  19.685  33.115   7.326
 3544POPC   C1B45655  19.814  33.317   6.164
 3544POPC   C2B45656  19.756  33.518   6.609
 3544POPC   C3B45657  19.810  33.523   7.064
 3544POPC   C4B45658  19.725  33.559   7.557
 3545POPC   NC345659  42.727  26.846   5.177
 3545POPC   PO445660  42.227  26.441   5.400
 3545POPC   GL145661  42.324  26.587   5.815
 3545POPC   GL245662  42.551  26.869   5.884
 3545POPC   C1A45663  42.555  26.516   6.210
 3545POPC   D2A45664  42.578  26.685   6.597
 3545POPC   C3A45665  42.391  26.528   6.946
 3545POPC   C4A45666  42.638  26.528   7.285
 3545POPC   C1B45667  42.351  26.988   6.272
 3545POPC   C2B45668  42.380  27.131   6.734
 3545POPC   C3B45669  42.406  26.990   7.196
 3545POPC   C4B45670  42.527  27.288   7.584
 3546POPC   NC345671  39.509  36.994   5.471
 3546POPC   PO445672  38.893  36.791   5.492
 3546POPC   GL145673  39.175  36.797   5.815
 3546POPC   GL245674  39.309  37.134   5.915
 3546POPC   C1A45675  39.031  36.717   6.211
 3546POPC   D2A45676  38.822  36.933   6.515
 3546POPC   C3A45677  38.856  36.700   6.869
 3546POPC   C4A45678  38.849  36.817   7.296
 3546POPC   C1B45679  39.273  37.160   6.372
 3546POPC   C2B45680  39.304  36.907   6.752
 3546POPC   C3B45681  39.375  36.867   7.196
 3546POPC   C4B45682  39.674  36.825   7.557
 3547POPC   NC345683  20.315  21.733   5.340
 3547POPC   PO445684  20.967  21.520   5.423
 3547POPC   GL145685  20.640  21.268   5.677
 3547POPC   GL245686  20.331  21.039   5.567
 3547POPC   C1A45687  20.523  21.390   6.107
 3547POPC   D2A45688  20.744  21.360   6.497
 3547POPC   C3A45689  20.544  21.378   6.903
 3547POPC   C4A45690  20.799  21.410   7.285
 3547POPC   C1B45691  20.313  20.929   6.027
 3547POPC   C2B45692  20.272  21.094   6.471
 3547POPC   C3B45693  20.273  20.951   6.905
 3547POPC   C4B45694  20.411  21.062   7.315
 3548POPC   NC345695  37.217   6.597   5.356
 3548POPC   PO445696  36.527   6.669   5.265
 3548POPC   GL145697  36.756   6.564   5.697
 3548POPC   GL245698  36.557   6.746   5.974
 3548POPC   C1A45699  37.017   6.596   6.105
 3548POPC   D2A45700  36.833   6.675   6.541
 3548POPC   C3A45701  37.093   6.709   6.919
 3548POPC   C4A45702  37.110   6.562   7.356
 3548POPC   C1B45703  36.566   6.348   6.206
 3548POPC   C2B45704  36.642   6.124   6.603
 3548POPC   C3B45705  36.471   6.191   6.976
 3548POPC   C4B45706  36.628   6.562   7.146
 3549POPC   NC345707  24.301   2.262   5.355
 3549POPC   PO445708  24.550   1.691   5.119
 3549POPC   GL145709  24.411   1.846   5.579
 3549POPC   GL245710  24.690   2.059   5.692
 3549POPC   C1A45711  24.350   1.959   6.053
 3549POPC   D2A45712  24.360   1.998   6.506
 3549POPC   C3A45713  24.147   1.936   6.923
 3549POPC   C4A45714  24.331   2.207   7.266
 3549POPC   C1B45715  24.832   2.205   6.116
 3549POPC   C2B45716  24.843   2.122   6.582
 3549POPC   C3B45717  24.849   2.198   7.031
 3549POPC   C4B45718  24.787   2.106   7.502
 3550POPC   NC345719  12.661  42.180   5.482
 3550POPC   PO445720  12.666  41.465   5.389
 3550POPC   GL145721  12.876  41.462   5.782
 3550POPC   GL245722  12.666  41.758   5.817
 3550POPC   C1A45723  12.975  41.519   6.231
 3550POPC   D2A45724  13.176  41.692   6.612
 3550POPC   C3A45725  12.975  41.562   6.998
 3550POPC   C4A45726  12.834  41.453   7.407
 3550POPC   C1B45727  12.567  41.813   6.214
 3550POPC   C2B45728  12.624  41.662   6.623
 3550POPC   C3B45729  12.556  41.851   7.034
 3550POPC   C4B45730  12.492  41.839   7.493
 3551POPC   NC345731  39.055  43.317   5.105
 3551POPC   PO445732  39.286  42.740   5.482
 3551POPC   GL145733  39.259  42.949   5.885
 3551POPC   GL245734  38.933  42.955   5.860
 3551POPC   C1A45735  39.436  43.038   6.316
 3551POPC   D2A45736  39.485  42.995   6.775
 3551POPC   C3A45737  39.192  43.131   7.082
 3551POPC   C4A45738  39.299  43.258   7.498
 3551POPC   C1B45739  38.923  42.813   6.261
 3551POPC   C2B45740  39.018  42.850   6.671
 3551POPC   C3B45741  38.769  42.839   7.043
 3551POPC   C4B45742  38.819  43.059   7.439
 3552POPC   NC345743  12.893  24.059   5.180
 3552POPC   PO445744  13.048  23.503   5.181
 3552POPC   GL145745  12.898  23.727   5.634
 3552POPC   GL245746  12.735  24.087   5.689
 3552POPC   C1A45747  13.029  23.749   6.139
 3552POPC   D2A45748  13.102  23.904   6.604
 3552POPC   C3A45749  13.079  23.587   6.961
 3552POPC   C4A45750  12.718  23.353   7.091
 3552POPC   C1B45751  12.540  23.889   6.039
 3552POPC   C2B45752  12.606  23.964   6.471
 3552POPC   C3B45753  12.628  23.823   6.874
 3552POPC   C4B45754  12.487  23.767   7.288
 3553POPC   NC345755  23.519  36.525   5.059
 3553POPC   PO445756  23.413  35.962   5.409
 3553POPC   GL145757  23.660  36.042   5.757
 3553POPC   GL245758  23.379  36.029   5.941
 3553POPC   C1A45759  23.820  35.929   6.182
 3553POPC   D2A45760  23.988  36.170   6.507
 3553POPC   C3A45761  23.701  36.260   6.827
 3553POPC   C4A45762  23.738  36.158   7.258
 3553POPC   C1B45763  23.377  36.282   6.297
 3553POPC   C2B45764  23.179  36.301   6.688
 3553POPC   C3B45765  23.263  36.367   7.111
 3553POPC   C4B45766  23.290  36.495   7.527
 3554POPC   NC345767   5.253   3.368   5.665
 3554POPC   PO445768   4.705   3.753   5.486
 3554POPC   GL145769   4.879   3.611   5.902
 3554POPC   GL245770   5.189   3.806   5.942
 3554POPC   C1A45771   4.972   3.352   6.297
 3554POPC   D2A45772   5.211   3.336   6.702
 3554POPC   C3A45773   4.946   3.236   7.073
 3554POPC   C4A45774   4.737   3.512   7.340
 3554POPC   C1B45775   5.181   3.793   6.409
 3554POPC   C2B45776   5.471   3.802   6.761
 3554POPC   C3B45777   5.436   3.782   7.201
 3554POPC   C4B45778   5.272   3.436   7.415
 3555POPC   NC345779  44.968   7.617   5.358
 3555POPC   PO445780  44.459   7.226   5.228
 3555POPC   GL145781  44.708   7.227   5.635
 3555POPC   GL245782  44.620   7.555   5.738
 3555POPC   C1A45783  44.746   7.236   6.121
 3555POPC   D2A45784  44.935   7.339   6.535
 3555POPC   C3A45785  44.712   7.216   6.955
 3555POPC   C4A45786  44.429   7.209   7.360
 3555POPC   C1B45787  44.750   7.772   6.095
 3555POPC   C2B45788  44.775   7.904   6.492
 3555POPC   C3B45789  44.850   7.719   6.865
 3555POPC   C4B45790  44.669   7.657   7.234
 3556POPC   NC345791   7.174  14.000   5.413
 3556POPC   PO445792   7.696  14.405   5.442
 3556POPC   GL145793   7.466  14.473   5.836
 3556POPC   GL245794   7.359  14.125   5.891
 3556POPC   C1A45795   7.539  14.702   6.250
 3556POPC   D2A45796   7.793  14.731   6.650
 3556POPC   C3A45797   7.551  14.651   7.023
 3556POPC   C4A45798   7.128  14.552   7.164
 3556POPC   C1B45799   7.600  14.183   6.255
 3556POPC   C2B45800   7.579  14.274   6.648
 3556POPC   C3B45801   7.418  14.145   7.021
 3556POPC   C4B45802   7.313  14.157   7.449
 3557POPC   NC345803  21.636   5.794   5.311
 3557POPC   PO445804  21.102   5.930   5.642
 3557POPC   GL145805  21.467   5.919   5.897
 3557POPC   GL245806  21.702   5.665   5.805
 3557POPC   C1A45807  21.437   5.895   6.355
 3557POPC   D2A45808  21.454   6.129   6.751
 3557POPC   C3A45809  21.174   6.086   7.129
 3557POPC   C4A45810  21.377   6.018   7.530
 3557POPC   C1B45811  21.732   5.485   6.232
 3557POPC   C2B45812  21.617   5.538   6.691
 3557POPC   C3B45813  21.584   5.747   7.121
 3557POPC   C4B45814  21.502   5.514   7.549
 3558POPC   NC345815   3.375  38.934   5.427
 3558POPC   PO445816   3.759  39.444   5.499
 3558POPC   GL145817   3.435  39.329   5.795
 3558POPC   GL245818   3.516  39.011   5.925
 3558POPC   C1A45819   3.253  39.446   6.193
 3558POPC   D2A45820   3.400  39.633   6.586
 3558POPC   C3A45821   3.475  39.308   6.897
 3558POPC   C4A45822   3.418  39.223   7.320
 3558POPC   C1B45823   3.573  39.087   6.359
 3558POPC   C2B45824   3.874  39.317   6.570
 3558POPC   C3B45825   3.994  39.182   6.970
 3558POPC   C4B45826   3.881  38.984   7.355
 3559POPC   NC345827  41.077  37.068   5.327
 3559POPC   PO445828  40.646  36.464   5.430
 3559POPC   GL145829  40.589  36.705   5.853
 3559POPC   GL245830  40.681  37.008   5.718
 3559POPC   C1A45831  40.556  36.828   6.309
 3559POPC   D2A45832  40.746  36.624   6.688
 3559POPC   C3A45833  40.790  36.896   7.024
 3559POPC   C4A45834  40.412  37.049   6.958
 3559POPC   C1B45835  40.921  37.102   6.076
 3559POPC   C2B45836  40.924  37.108   6.534
 3559POPC   C3B45837  41.228  37.145   6.842
 3559POPC   C4B45838  41.247  37.056   7.238
 3560POPC   NC345839  41.386  33.084   5.288
 3560POPC   PO445840  41.175  32.565   5.677
 3560POPC   GL145841  41.498  32.852   5.835
 3560POPC   GL245842  41.372  33.195   5.789
 3560POPC   C1A45843  41.808  32.885   6.211
 3560POPC   D2A45844  41.902  33.048   6.618
 3560POPC   C3A45845  41.519  33.038   6.824
 3560POPC   C4A45846  41.525  32.869   7.210
 3560POPC   C1B45847  41.541  33.340   6.166
 3560POPC   C2B45848  41.635  33.501   6.537
 3560POPC   C3B45849  41.771  33.472   6.933
 3560POPC   C4B45850  41.399  33.377   7.199
 3561POPC   NC345851  20.735   1.772   5.296
 3561POPC   PO445852  20.192   2.188   5.449
 3561POPC   GL145853  20.446   1.865   5.716
 3561POPC   GL245854  20.848   1.886   5.777
 3561POPC   C1A45855  20.515   1.943   6.165
 3561POPC   D2A45856  20.673   2.210   6.485
 3561POPC   C3A45857  20.665   2.116   6.922
 3561POPC   C4A45858  20.511   1.976   7.297
 3561POPC   C1B45859  20.954   1.676   6.196
 3561POPC   C2B45860  20.790   1.714   6.639
 3561POPC   C3B45861  20.924   1.671   7.102
 3561POPC   C4B45862  20.908   1.762   7.574
 3562POPC   NC345863   7.052  41.756   5.312
 3562POPC   PO445864   7.549  42.234   5.454
 3562POPC   GL145865   7.362  42.250   5.808
 3562POPC   GL245866   7.050  42.131   5.681
 3562POPC   C1A45867   7.339  42.403   6.228
 3562POPC   D2A45868   7.238  42.504   6.660
 3562POPC   C3A45869   7.557  42.406   6.983
 3562POPC   C4A45870   7.537  42.456   7.434
 3562POPC   C1B45871   7.082  41.973   6.115
 3562POPC   C2B45872   7.308  41.963   6.512
 3562POPC   C3B45873   7.180  42.058   6.928
 3562POPC   C4B45874   7.120  42.182   7.343
 3563POPC   NC345875  25.321  21.217   5.462
 3563POPC   PO445876  25.112  21.889   5.454
 3563POPC   GL145877  25.174  21.659   5.863
 3563POPC   GL245878  25.135  21.283   5.919
 3563POPC   C1A45879  25.331  21.690   6.303
 3563POPC   D2A45880  25.577  21.743   6.718
 3563POPC   C3A45881  25.365  21.625   7.117
 3563POPC   C4A45882  25.355  21.438   7.550
 3563POPC   C1B45883  24.948  21.326   6.290
 3563POPC   C2B45884  25.083  21.454   6.708
 3563POPC   C3B45885  24.961  21.278   7.097
 3563POPC   C4B45886  24.915  20.991   7.439
 3564POPC   NC345887  29.404   6.024   5.388
 3564POPC   PO445888  28.853   5.601   5.403
 3564POPC   GL145889  29.081   5.810   5.706
 3564POPC   GL245890  29.375   5.632   5.760
 3564POPC   C1A45891  28.978   6.090   6.023
 3564POPC   D2A45892  28.856   6.046   6.451
 3564POPC   C3A45893  29.085   6.202   6.820
 3564POPC   C4A45894  29.051   6.149   7.269
 3564POPC   C1B45895  29.180   5.677   6.200
 3564POPC   C2B45896  29.322   5.782   6.624
 3564POPC   C3B45897  29.199   5.676   7.062
 3564POPC   C4B45898  29.286   5.770   7.513
 3565POPC   NC345899  38.713   4.592   5.445
 3565POPC   PO445900  38.225   4.069   5.289
 3565POPC   GL145901  38.434   4.200   5.674
 3565POPC   GL245902  38.329   4.545   5.803
 3565POPC   C1A45903  38.576   4.236   6.106
 3565POPC   D2A45904  38.389   4.442   6.467
 3565POPC   C3A45905  38.395   4.228   6.854
 3565POPC   C4A45906  38.693   4.181   7.163
 3565POPC   C1B45907  38.154   4.784   6.146
 3565POPC   C2B45908  37.985   4.751   6.553
 3565POPC   C3B45909  38.089   4.638   6.930
 3565POPC   C4B45910  38.263   4.461   7.284
 3566POPC   NC345911   1.070   7.629   5.280
 3566POPC   PO445912   1.051   8.283   5.327
 3566POPC   GL145913   1.264   8.288   5.791
 3566POPC   GL245914   1.465   8.004   5.820
 3566POPC   C1A45915   1.181   8.068   6.243
 3566POPC   D2A45916   0.787   8.023   6.540
 3566POPC   C3A45917   0.869   8.092   6.975
 3566POPC   C4A45918   1.291   8.141   7.090
 3566POPC   C1B45919   1.567   7.736   6.117
 3566POPC   C2B45920   1.434   7.645   6.513
 3566POPC   C3B45921   1.473   7.691   6.935
 3566POPC   C4B45922   1.617   7.813   7.354
 3567POPC   NC345923  42.605  23.309   5.288
 3567POPC   PO445924  42.034  23.000   5.352
 3567POPC   GL145925  42.357  23.025   5.653
 3567POPC   GL245926  42.416  22.703   5.683
 3567POPC   C1A45927  42.444  23.062   6.094
 3567POPC   D2A45928  42.239  23.155   6.487
 3567POPC   C3A45929  42.434  23.000   6.823
 3567POPC   C4A45930  42.504  23.147   7.198
 3567POPC   C1B45931  42.353  22.556   6.054
 3567POPC   C2B45932  42.388  22.633   6.446
 3567POPC   C3B45933  42.369  22.476   6.833
 3567POPC   C4B45934  42.556  22.623   7.157
 3568POPC   NC345935   7.772  33.240   5.442
 3568POPC   PO445936   8.141  32.736   5.158
 3568POPC   GL145937   8.272  33.066   5.544
 3568POPC   GL245938   8.055  33.043   5.818
 3568POPC   C1A45939   8.508  33.012   6.013
 3568POPC   D2A45940   8.336  33.036   6.455
 3568POPC   C3A45941   8.483  32.957   6.883
 3568POPC   C4A45942   8.324  33.211   7.227
 3568POPC   C1B45943   7.935  32.839   6.188
 3568POPC   C2B45944   7.811  33.021   6.572
 3568POPC   C3B45945   7.856  32.935   7.011
 3568POPC   C4B45946   8.158  32.712   7.279
 3569POPC   NC345947  40.153  26.086   5.327
 3569POPC   PO445948  39.585  25.796   5.150
 3569POPC   GL145949  39.707  25.913   5.596
 3569POPC   GL245950  40.032  25.708   5.662
 3569POPC   C1A45951  39.835  26.008   6.053
 3569POPC   D2A45952  40.041  26.283   6.397
 3569POPC   C3A45953  39.926  26.177   6.842
 3569POPC   C4A45954  40.117  26.119   7.254
 3569POPC   C1B45955  40.277  25.689   6.055
 3569POPC   C2B45956  40.106  25.767   6.471
 3569POPC   C3B45957  40.302  25.827   6.875
 3569POPC   C4B45958  40.287  25.619   7.278
 3570POPC   NC345959  11.281   2.021   5.319
 3570POPC   PO445960  10.747   2.363   5.694
 3570POPC   GL145961  11.098   2.065   5.825
 3570POPC   GL245962  11.356   1.767   5.786
 3570POPC   C1A45963  11.183   2.072   6.242
 3570POPC   D2A45964  11.192   1.986   6.645
 3570POPC   C3A45965  10.961   2.205   6.907
 3570POPC   C4A45966  11.202   2.197   7.223
 3570POPC   C1B45967  11.659   1.976   6.070
 3570POPC   C2B45968  11.646   2.190   6.486
 3570POPC   C3B45969  11.634   2.054   6.927
 3570POPC   C4B45970  11.774   2.226   7.291
 3571POPC   NC345971  11.178  40.262   5.422
 3571POPC   PO445972  11.037  40.917   5.391
 3571POPC   GL145973  11.166  40.664   5.767
 3571POPC   GL245974  10.902  40.406   5.862
 3571POPC   C1A45975  11.357  40.710   6.190
 3571POPC   D2A45976  11.190  40.768   6.622
 3571POPC   C3A45977  11.476  40.933   6.948
 3571POPC   C4A45978  11.454  40.988   7.383
 3571POPC   C1B45979  11.061  40.282   6.279
 3571POPC   C2B45980  11.113  40.266   6.728
 3571POPC   C3B45981  11.205  40.507   7.078
 3571POPC   C4B45982  10.971  40.878   7.191
 3572POPC   NC345983  31.994  40.249   5.569
 3572POPC   PO445984  32.483  39.809   5.344
 3572POPC   GL145985  32.418  39.877   5.786
 3572POPC   GL245986  32.368  40.216   5.935
 3572POPC   C1A45987  32.157  39.785   6.167
 3572POPC   D2A45988  31.949  39.925   6.544
 3572POPC   C3A45989  32.161  40.120   6.881
 3572POPC   C4A45990  32.188  39.849   7.225
 3572POPC   C1B45991  32.331  40.274   6.397
 3572POPC   C2B45992  32.599  40.392   6.748
 3572POPC   C3B45993  32.618  40.177   7.127
 3572POPC   C4B45994  32.347  40.300   7.463
 3573POPC   NC345995  29.755  25.263   5.464
 3573POPC   PO445996  30.520  25.148   5.388
 3573POPC   GL145997  30.159  25.077   5.732
 3573POPC   GL245998  30.018  25.441   5.877
 3573POPC   C1A45999  29.958  25.044   6.168
 3573POPC   D2A46000  30.042  25.381   6.466
 3573POPC   C3A46001  29.764  25.528   6.791
 3573POPC   C4A46002  29.806  25.501   7.217
 3573POPC   C1B46003  29.621  25.436   6.140
 3573POPC   C2B46004  29.508  25.152   6.522
 3573POPC   C3B46005  29.579  25.068   6.987
 3573POPC   C4B46006  29.580  25.015   7.445
 3574POPC   NC346007  42.126  21.823   5.350
 3574POPC   PO446008  42.495  21.197   5.371
 3574POPC   GL146009  42.338  21.248   5.788
 3574POPC   GL246010  41.973  21.123   5.832
 3574POPC   C1A46011  42.569  21.443   6.148
 3574POPC   D2A46012  42.488  21.590   6.575
 3574POPC   C3A46013  42.372  21.488   7.026
 3574POPC   C4A46014  42.517  21.475   7.458
 3574POPC   C1B46015  42.160  21.172   6.268
 3574POPC   C2B46016  42.313  21.109   6.681
 3574POPC   C3B46017  42.014  21.117   7.022
 3574POPC   C4B46018  42.071  21.225   7.444
 3575POPC   NC346019  23.343   7.993   5.286
 3575POPC   PO446020  23.854   8.394   5.376
 3575POPC   GL146021  23.790   8.290   5.773
 3575POPC   GL246022  23.460   8.216   5.802
 3575POPC   C1A46023  24.075   8.415   6.094
 3575POPC   D2A46024  24.266   8.316   6.471
 3575POPC   C3A46025  24.162   8.493   6.835
 3575POPC   C4A46026  24.097   8.283   7.231
 3575POPC   C1B46027  23.699   8.088   6.238
 3575POPC   C2B46028  23.861   8.082   6.690
 3575POPC   C3B46029  23.736   7.973   7.105
 3575POPC   C4B46030  23.390   7.944   7.400
 3576POPC   NC346031  36.544  17.152   5.476
 3576POPC   PO446032  37.104  17.521   5.341
 3576POPC   GL146033  36.959  17.317   5.779
 3576POPC   GL246034  36.673  17.455   5.978
 3576POPC   C1A46035  37.065  17.273   6.254
 3576POPC   D2A46036  36.931  17.443   6.683
 3576POPC   C3A46037  36.924  17.256   7.106
 3576POPC   C4A46038  36.910  17.305   7.591
 3576POPC   C1B46039  36.543  17.649   6.387
 3576POPC   C2B46040  36.658  17.861   6.768
 3576POPC   C3B46041  36.823  17.771   7.213
 3576POPC   C4B46042  36.660  17.729   7.665
 3577POPC   NC346043  28.653  30.767   5.149
 3577POPC   PO446044  28.915  31.048   5.695
 3577POPC   GL146045  29.186  30.750   5.871
 3577POPC   GL246046  29.412  30.978   5.958
 3577POPC   C1A46047  29.134  30.487   6.232
 3577POPC   D2A46048  28.966  30.609   6.642
 3577POPC   C3A46049  29.118  30.470   7.057
 3577POPC   C4A46050  29.262  30.198   7.418
 3577POPC   C1B46051  29.166  31.003   6.340
 3577POPC   C2B46052  29.126  31.081   6.765
 3577POPC   C3B46053  29.133  30.970   7.200
 3577POPC   C4B46054  29.107  31.136   7.629
 3578POPC   NC346055  26.513  20.705   5.442
 3578POPC   PO446056  27.171  20.472   5.427
 3578POPC   GL146057  26.964  20.489   5.797
 3578POPC   GL246058  26.713  20.211   5.786
 3578POPC   C1A46059  26.896  20.723   6.168
 3578POPC   D2A46060  27.047  20.802   6.582
 3578POPC   C3A46061  26.718  20.723   6.895
 3578POPC   C4A46062  26.866  20.610   7.260
 3578POPC   C1B46063  26.905  20.199   6.218
 3578POPC   C2B46064  26.736  20.296   6.616
 3578POPC   C3B46065  26.756  20.179   7.048
 3578POPC   C4B46066  27.031  19.899   7.243
 3579POPC   NC346067  26.126  27.648   5.341
 3579POPC   PO446068  25.745  27.061   5.436
 3579POPC   GL146069  25.983  27.348   5.751
 3579POPC   GL246070  25.975  27.743   5.803
 3579POPC   C1A46071  26.085  27.417   6.183
 3579POPC   D2A46072  25.896  27.344   6.583
 3579POPC   C3A46073  26.067  27.538   6.954
 3579POPC   C4A46074  25.907  27.379   7.355
 3579POPC   C1B46075  25.816  27.856   6.187
 3579POPC   C2B46076  26.060  27.885   6.544
 3579POPC   C3B46077  25.981  28.091   6.901
 3579POPC   C4B46078  25.972  27.900   7.285
 3580POPC   NC346079  22.514  11.196   5.385
 3580POPC   PO446080  21.949  11.429   5.577
 3580POPC   GL146081  22.108  11.157   5.902
 3580POPC   GL246082  22.457  11.104   5.873
 3580POPC   C1A46083  21.954  11.014   6.301
 3580POPC   D2A46084  22.050  11.185   6.699
 3580POPC   C3A46085  21.986  11.035   7.104
 3580POPC   C4A46086  21.964  11.330   7.449
 3580POPC   C1B46087  22.453  11.208   6.301
 3580POPC   C2B46088  22.539  11.324   6.722
 3580POPC   C3B46089  22.452  11.262   7.146
 3580POPC   C4B46090  22.438  11.530   7.464
 3581POPC   NC346091  14.175   1.885   5.113
 3581POPC   PO446092  14.613   2.276   5.459
 3581POPC   GL146093  14.448   2.044   5.876
 3581POPC   GL246094  14.325   1.780   5.683
 3581POPC   C1A46095  14.350   2.071   6.334
 3581POPC   D2A46096  14.529   2.329   6.683
 3581POPC   C3A46097  14.463   2.443   7.126
 3581POPC   C4A46098  14.393   2.581   7.599
 3581POPC   C1B46099  14.153   1.661   6.065
 3581POPC   C2B46100  14.035   1.679   6.501
 3581POPC   C3B46101  14.048   2.043   6.766
 3581POPC   C4B46102  14.158   1.893   7.150
 3582POPC   NC346103  33.907  28.040   5.438
 3582POPC   PO446104  34.012  27.374   5.406
 3582POPC   GL146105  33.834  27.624   5.718
 3582POPC   GL246106  34.119  27.628   5.913
 3582POPC   C1A46107  33.680  27.568   6.124
 3582POPC   D2A46108  33.555  27.446   6.550
 3582POPC   C3A46109  33.596  27.545   6.996
 3582POPC   C4A46110  33.425  27.266   7.310
 3582POPC   C1B46111  34.201  27.512   6.353
 3582POPC   C2B46112  34.062  27.479   6.795
 3582POPC   C3B46113  34.029  27.513   7.267
 3582POPC   C4B46114  33.844  27.251   7.576
 3583POPC   NC346115  20.340   2.641   5.471
 3583POPC   PO446116  20.967   2.915   5.304
 3583POPC   GL146117  20.740   2.855   5.713
 3583POPC   GL246118  20.470   3.067   5.795
 3583POPC   C1A46119  20.572   2.575   6.064
 3583POPC   D2A46120  20.461   2.673   6.450
 3583POPC   C3A46121  20.660   2.641   6.813
 3583POPC   C4A46122  20.504   2.518   7.205
 3583POPC   C1B46123  20.272   3.061   6.213
 3583POPC   C2B46124  20.285   3.083   6.684
 3583POPC   C3B46125  20.225   2.925   7.107
 3583POPC   C4B46126  20.266   2.804   7.571
 3584POPC   NC346127  44.393   9.111   5.415
 3584POPC   PO446128   0.011   8.781   5.379
 3584POPC   GL146129  44.778   8.969   5.779
 3584POPC   GL246130  44.432   8.837   5.844
 3584POPC   C1A46131  44.730   8.829   6.266
 3584POPC   D2A46132  44.962   8.858   6.673
 3584POPC   C3A46133  44.840   9.018   7.080
 3584POPC   C4A46134  44.865   8.907   7.528
 3584POPC   C1B46135  44.319   9.117   6.179
 3584POPC   C2B46136  44.425   9.122   6.613
 3584POPC   C3B46137  44.320   9.048   7.047
 3584POPC   C4B46138  44.172   8.897   7.448
 3585POPC   NC346139  40.354  15.855   5.334
 3585POPC   PO446140  39.807  15.663   5.621
 3585POPC   GL146141  40.112  15.864   5.839
 3585POPC   GL246142  40.368  15.652   5.793
 3585POPC   C1A46143  40.047  15.904   6.268
 3585POPC   D2A46144  39.767  15.692   6.559
 3585POPC   C3A46145  39.846  15.820   6.957
 3585POPC   C4A46146  39.990  16.039   7.276
 3585POPC   C1B46147  40.434  15.481   6.183
 3585POPC   C2B46148  40.280  15.562   6.603
 3585POPC   C3B46149  40.338  15.694   7.038
 3585POPC   C4B46150  40.228  15.609   7.474
 3586POPC   NC346151  16.693  10.827   5.376
 3586POPC   PO446152  16.373  10.303   5.609
 3586POPC   GL146153  16.744  10.514   5.785
 3586POPC   GL246154  16.526  10.580   6.043
 3586POPC   C1A46155  16.911  10.903   6.048
 3586POPC   D2A46156  16.903  10.959   6.507
 3586POPC   C3A46157  16.827  10.617   6.828
 3586POPC   C4A46158  16.709  10.634   7.275
 3586POPC   C1B46159  16.468  10.198   6.271
 3586POPC   C2B46160  16.485  10.147   6.707
 3586POPC   C3B46161  16.594  10.154   7.118
 3586POPC   C4B46162  16.356  10.341   7.503
 3587POPC   NC346163  17.306   9.535   5.249
 3587POPC   PO446164  17.340  10.176   5.426
 3587POPC   GL146165  17.537   9.845   5.736
 3587POPC   GL246166  17.253   9.638   5.765
 3587POPC   C1A46167  17.556   9.624   6.176
 3587POPC   D2A46168  17.364   9.489   6.569
 3587POPC   C3A46169  17.588   9.631   6.918
 3587POPC   C4A46170  17.698   9.706   7.374
 3587POPC   C1B46171  17.172   9.945   6.131
 3587POPC   C2B46172  16.992   9.859   6.541
 3587POPC   C3B46173  17.132   9.926   6.961
 3587POPC   C4B46174  17.113  10.325   7.132
 3588POPC   NC346175  34.286  22.418   5.407
 3588POPC   PO446176  34.663  21.863   5.383
 3588POPC   GL146177  34.644  21.957   5.806
 3588POPC   GL246178  34.523  22.268   5.842
 3588POPC   C1A46179  34.418  21.876   6.186
 3588POPC   D2A46180  34.448  21.647   6.551
 3588POPC   C3A46181  34.418  21.859   6.932
 3588POPC   C4A46182  34.712  21.844   7.273
 3588POPC   C1B46183  34.820  22.231   6.194
 3588POPC   C2B46184  34.775  22.081   6.616
 3588POPC   C3B46185  34.710  22.288   7.010
 3588POPC   C4B46186  34.488  22.305   7.395
 3589POPC   NC346187  20.013  34.202   5.699
 3589POPC   PO446188  19.916  33.551   5.355
 3589POPC   GL146189  19.687  33.631   5.766
 3589POPC   GL246190  19.539  33.929   5.792
 3589POPC   C1A46191  19.799  33.825   6.208
 3589POPC   D2A46192  19.955  34.143   6.508
 3589POPC   C3A46193  20.116  34.056   6.935
 3589POPC   C4A46194  20.018  33.900   7.324
 3589POPC   C1B46195  19.388  34.141   6.153
 3589POPC   C2B46196  19.365  33.934   6.526
 3589POPC   C3B46197  19.591  33.970   6.876
 3589POPC   C4B46198  19.463  33.884   7.261
 3590POPC   NC346199  10.819  12.734   5.560
 3590POPC   PO446200  10.452  13.253   5.457
 3590POPC   GL146201  10.494  13.102   5.817
 3590POPC   GL246202  10.252  12.842   5.726
 3590POPC   C1A46203  10.722  13.062   6.201
 3590POPC   D2A46204  10.643  12.790   6.550
 3590POPC   C3A46205  10.665  12.906   6.976
 3590POPC   C4A46206  10.554  12.573   7.229
 3590POPC   C1B46207  10.272  12.793   6.173
 3590POPC   C2B46208  10.132  12.943   6.553
 3590POPC   C3B46209  10.180  12.842   6.952
 3590POPC   C4B46210  10.264  13.025   7.328
 3591POPC   NC346211  27.011  27.189   5.412
 3591POPC   PO446212  26.627  26.621   5.454
 3591POPC   GL146213  26.794  26.861   5.787
 3591POPC   GL246214  26.531  27.095   5.843
 3591POPC   C1A46215  26.980  27.073   6.142
 3591POPC   D2A46216  26.841  27.223   6.535
 3591POPC   C3A46217  26.955  27.055   6.905
 3591POPC   C4A46218  27.001  26.740   7.186
 3591POPC   C1B46219  26.437  27.018   6.279
 3591POPC   C2B46220  26.554  26.828   6.698
 3591POPC   C3B46221  26.486  26.809   7.138
 3591POPC   C4B46222  26.299  27.044   7.521
 3592POPC   NC346223   7.670  19.970   5.478
 3592POPC   PO446224   7.124  19.777   5.161
 3592POPC   GL146225   7.246  19.787   5.669
 3592POPC   GL246226   7.533  19.818   5.936
 3592POPC   C1A46227   7.065  19.598   6.071
 3592POPC   D2A46228   6.976  19.630   6.553
 3592POPC   C3A46229   7.335  19.764   6.856
 3592POPC   C4A46230   7.480  19.808   7.295
 3592POPC   C1B46231   7.751  20.066   6.281
 3592POPC   C2B46232   7.863  19.914   6.733
 3592POPC   C3B46233   7.924  20.048   7.166
 3592POPC   C4B46234   7.742  20.164   7.572
 3593POPC   NC346235  42.061  29.407   5.433
 3593POPC   PO446236  42.374  28.764   5.243
 3593POPC   GL146237  42.342  29.054   5.659
 3593POPC   GL246238  42.093  28.916   5.871
 3593POPC   C1A46239  42.259  29.318   6.108
 3593POPC   D2A46240  42.378  29.194   6.560
 3593POPC   C3A46241  42.219  29.258   6.986
 3593POPC   C4A46242  42.351  29.203   7.430
 3593POPC   C1B46243  42.474  28.848   6.115
 3593POPC   C2B46244  42.422  28.688   6.512
 3593POPC   C3B46245  42.217  28.746   6.906
 3593POPC   C4B46246  42.451  28.692   7.295
 3594POPC   NC346247  32.739  33.551   5.429
 3594POPC   PO446248  32.116  33.680   5.334
 3594POPC   GL146249  32.097  33.745   5.773
 3594POPC   GL246250  32.456  33.793   5.854
 3594POPC   C1A46251  32.087  33.814   6.226
 3594POPC   D2A46252  32.385  33.729   6.565
 3594POPC   C3A46253  32.147  33.742   6.944
 3594POPC   C4A46254  32.226  33.918   7.349
 3594POPC   C1B46255  32.671  33.515   6.177
 3594POPC   C2B46256  32.760  33.366   6.604
 3594POPC   C3B46257  32.483  33.352   6.976
 3594POPC   C4B46258  32.480  33.470   7.442
 3595POPC   NC346259   0.139  34.335   5.102
 3595POPC   PO446260   0.551  34.701   5.506
 3595POPC   GL146261   0.431  34.392   5.825
 3595POPC   GL246262   0.729  34.229   5.791
 3595POPC   C1A46263   0.273  34.443   6.270
 3595POPC   D2A46264   0.448  34.511   6.656
 3595POPC   C3A46265   0.472  34.856   6.964
 3595POPC   C4A46266   0.524  34.806   7.400
 3595POPC   C1B46267   0.777  34.453   6.205
 3595POPC   C2B46268   0.960  34.533   6.623
 3595POPC   C3B46269   0.761  34.443   7.045
 3595POPC   C4B46270   0.634  34.294   7.462
 3596POPC   NC346271   9.038  36.720   5.387
 3596POPC   PO446272   8.606  37.362   5.470
 3596POPC   GL146273   8.849  37.028   5.757
 3596POPC   GL246274   8.754  36.644   5.794
 3596POPC   C1A46275   8.996  36.874   6.178
 3596POPC   D2A46276   9.226  36.930   6.560
 3596POPC   C3A46277   9.107  36.728   6.938
 3596POPC   C4A46278   9.130  36.916   7.339
 3596POPC   C1B46279   8.518  36.592   6.167
 3596POPC   C2B46280   8.628  36.428   6.586
 3596POPC   C3B46281   8.494  36.496   6.992
 3596POPC   C4B46282   8.745  36.616   7.289
 3597POPC   NC346283   4.391  34.854   5.636
 3597POPC   PO446284   4.231  35.201   5.095
 3597POPC   GL146285   4.364  35.359   5.617
 3597POPC   GL246286   4.682  35.546   5.758
 3597POPC   C1A46287   4.295  35.389   6.123
 3597POPC   D2A46288   4.109  35.448   6.577
 3597POPC   C3A46289   4.318  35.345   6.971
 3597POPC   C4A46290   4.077  35.063   7.203
 3597POPC   C1B46291   4.623  35.789   6.173
 3597POPC   C2B46292   4.595  35.658   6.619
 3597POPC   C3B46293   4.716  35.679   7.056
 3597POPC   C4B46294   4.661  35.471   7.480
 3598POPC   NC346295  20.259   4.841   5.544
 3598POPC   PO446296  20.553   5.366   5.419
 3598POPC   GL146297  20.583   5.158   5.812
 3598POPC   GL246298  20.926   5.098   5.837
 3598POPC   C1A46299  20.600   4.958   6.227
 3598POPC   D2A46300  20.575   4.723   6.611
 3598POPC   C3A46301  20.577   5.014   6.971
 3598POPC   C4A46302  20.472   4.964   7.407
 3598POPC   C1B46303  20.858   5.407   6.199
 3598POPC   C2B46304  21.064   5.531   6.599
 3598POPC   C3B46305  20.954   5.519   7.052
 3598POPC   C4B46306  20.949   5.175   7.359
 3599POPC   NC346307  40.382  18.905   5.602
 3599POPC   PO446308  40.781  19.368   5.303
 3599POPC   GL146309  40.643  19.279   5.834
 3599POPC   GL246310  40.376  19.263   6.022
 3599POPC   C1A46311  40.822  19.260   6.271
 3599POPC   D2A46312  40.784  19.473   6.658
 3599POPC   C3A46313  40.550  19.341   6.999
 3599POPC   C4A46314  40.620  19.094   7.353
 3599POPC   C1B46315  40.499  18.884   6.214
 3599POPC   C2B46316  40.492  19.007   6.608
 3599POPC   C3B46317  40.548  18.795   6.955
 3599POPC   C4B46318  40.398  18.629   7.341
 3600POPC   NC346319  39.408  15.539   5.406
 3600POPC   PO446320  39.441  14.873   5.333
 3600POPC   GL146321  39.205  15.027   5.717
 3600POPC   GL246322  39.187  15.391   5.828
 3600POPC   C1A46323  39.180  15.028   6.184
 3600POPC   D2A46324  39.058  14.866   6.556
 3600POPC   C3A46325  39.223  14.995   6.937
 3600POPC   C4A46326  39.066  15.035   7.313
 3600POPC   C1B46327  39.436  15.471   6.210
 3600POPC   C2B46328  39.334  15.388   6.626
 3600POPC   C3B46329  39.036  15.459   6.977
 3600POPC   C4B46330  39.282  15.485   7.277
 3601POPC   NC346331  44.104  20.151   5.666
 3601POPC   PO446332  43.533  19.853   5.414
 3601POPC   GL146333  43.739  19.816   5.842
 3601POPC   GL246334  43.926  19.531   5.987
 3601POPC   C1A46335  43.627  19.786   6.306
 3601POPC   D2A46336  43.923  19.606   6.628
 3601POPC   C3A46337  43.882  19.661   7.052
 3601POPC   C4A46338  43.957  19.970   7.330
 3601POPC   C1B46339  44.128  19.876   6.244
 3601POPC   C2B46340  44.367  19.869   6.646
 3601POPC   C3B46341  44.402  19.837   7.110
 3601POPC   C4B46342  44.290  19.660   7.520
 3602POPC   NC346343  28.669   6.057   5.424
 3602POPC   PO446344  28.104   6.228   5.751
 3602POPC   GL146345  28.270   5.843   5.830
 3602POPC   GL246346  28.596   5.746   5.835
 3602POPC   C1A46347  28.263   5.725   6.236
 3602POPC   D2A46348  28.360   5.998   6.554
 3602POPC   C3A46349  28.117   6.115   6.884
 3602POPC   C4A46350  28.245   5.793   7.179
 3602POPC   C1B46351  28.722   5.461   6.158
 3602POPC   C2B46352  28.885   5.536   6.596
 3602POPC   C3B46353  28.713   5.809   6.899
 3602POPC   C4B46354  28.750   5.754   7.308
 3603POPC   NC346355  28.247  23.168   5.379
 3603POPC   PO446356  28.632  22.617   5.492
 3603POPC   GL146357  28.541  22.783   5.878
 3603POPC   GL246358  28.495  23.146   5.840
 3603POPC   C1A46359  28.359  22.783   6.279
 3603POPC   D2A46360  28.164  22.936   6.643
 3603POPC   C3A46361  28.396  22.852   7.005
 3603POPC   C4A46362  28.560  22.908   7.371
 3603POPC   C1B46363  28.593  23.242   6.267
 3603POPC   C2B46364  28.715  23.067   6.662
 3603POPC   C3B46365  28.801  23.264   7.069
 3603POPC   C4B46366  28.460  23.401   7.333
 3604POPC   NC346367  35.025   7.589   5.467
 3604POPC   PO446368  35.704   7.770   5.385
 3604POPC   GL146369  35.536   7.569   5.755
 3604POPC   GL246370  35.219   7.373   5.893
 3604POPC   C1A46371  35.599   7.577   6.187
 3604POPC   D2A46372  35.466   7.842   6.528
 3604POPC   C3A46373  35.391   7.635   6.914
 3604POPC   C4A46374  35.658   7.378   7.191
 3604POPC   C1B46375  35.172   7.406   6.372
 3604POPC   C2B46376  35.508   7.210   6.649
 3604POPC   C3B46377  35.414   6.981   6.996
 3604POPC   C4B46378  35.009   7.098   7.135
 3605POPC   NC346379  28.458  31.047   5.624
 3605POPC   PO446380  28.344  30.459   5.311
 3605POPC   GL146381  28.388  30.543   5.733
 3605POPC   GL246382  28.731  30.546   5.724
 3605POPC   C1A46383  28.151  30.524   6.150
 3605POPC   D2A46384  27.933  30.830   6.433
 3605POPC   C3A46385  27.960  30.757   6.880
 3605POPC   C4A46386  28.193  30.960   7.213
 3605POPC   C1B46387  28.655  30.666   6.175
 3605POPC   C2B46388  28.470  30.838   6.549
 3605POPC   C3B46389  28.642  30.827   6.983
 3605POPC   C4B46390  28.572  30.465   7.288
 3606POPC   NC346391  20.054  23.123   5.537
 3606POPC   PO446392  20.677  23.110   5.258
 3606POPC   GL146393  20.674  22.920   5.675
 3606POPC   GL246394  20.347  22.786   5.805
 3606POPC   C1A46395  20.735  23.024   6.107
 3606POPC   D2A46396  20.640  23.119   6.562
 3606POPC   C3A46397  20.356  23.079   6.948
 3606POPC   C4A46398  20.578  23.034   7.331
 3606POPC   C1B46399  20.270  22.882   6.268
 3606POPC   C2B46400  20.371  22.679   6.657
 3606POPC   C3B46401  20.756  22.746   6.921
 3606POPC   C4B46402  20.929  22.656   7.328
 3607POPC   NC346403  12.208  14.888   5.315
 3607POPC   PO446404  11.753  15.376   5.324
 3607POPC   GL146405  11.836  15.101   5.689
 3607POPC   GL246406  12.175  15.097   5.784
 3607POPC   C1A46407  11.791  15.114   6.173
 3607POPC   D2A46408  11.618  15.344   6.567
 3607POPC   C3A46409  11.885  15.419   6.910
 3607POPC   C4A46410  11.985  15.085   7.187
 3607POPC   C1B46411  12.312  15.121   6.227
 3607POPC   C2B46412  12.192  15.067   6.680
 3607POPC   C3B46413  12.474  14.955   7.071
 3607POPC   C4B46414  12.384  15.062   7.524
 3608POPC   NC346415  27.363  11.866   5.547
 3608POPC   PO446416  27.637  12.437   5.488
 3608POPC   GL146417  27.657  12.145   5.896
 3608POPC   GL246418  27.778  11.804   5.878
 3608POPC   C1A46419  27.584  11.945   6.340
 3608POPC   D2A46420  27.362  11.824   6.746
 3608POPC   C3A46421  27.415  12.176   7.041
 3608POPC   C4A46422  27.345  12.567   7.271
 3608POPC   C1B46423  27.784  11.497   6.217
 3608POPC   C2B46424  27.941  11.466   6.636
 3608POPC   C3B46425  27.741  11.556   7.013
 3608POPC   C4B46426  27.875  11.943   7.173
 3609POPC   NC346427  20.606   3.205   5.282
 3609POPC   PO446428  20.362   3.788   5.347
 3609POPC   GL146429  20.657   3.645   5.734
 3609POPC   GL246430  20.914   3.356   5.681
 3609POPC   C1A46431  20.630   3.796   6.198
 3609POPC   D2A46432  20.520   3.536   6.564
 3609POPC   C3A46433  20.519   3.632   6.999
 3609POPC   C4A46434  20.836   3.564   7.287
 3609POPC   C1B46435  20.791   3.294   6.126
 3609POPC   C2B46436  20.784   3.090   6.533
 3609POPC   C3B46437  20.715   3.139   6.978
 3609POPC   C4B46438  20.563   3.161   7.393
 3610POPC   NC346439  31.558  10.526   5.178
 3610POPC   PO446440  32.007  10.427   5.647
 3610POPC   GL146441  31.629  10.560   5.947
 3610POPC   GL246442  31.268  10.748   6.004
 3610POPC   C1A46443  31.573  10.626   6.395
 3610POPC   D2A46444  31.742  10.665   6.788
 3610POPC   C3A46445  31.712  10.314   7.055
 3610POPC   C4A46446  31.943  10.433   7.397
 3610POPC   C1B46447  31.107  10.409   6.299
 3610POPC   C2B46448  31.222  10.345   6.682
 3610POPC   C3B46449  31.248  10.721   6.878
 3610POPC   C4B46450  31.464  10.715   7.242
 3611POPC   NC346451  34.363  34.070   5.444
 3611POPC   PO446452  34.623  33.390   5.498
 3611POPC   GL146453  34.463  33.665   5.797
 3611POPC   GL246454  34.640  33.953   5.853
 3611POPC   C1A46455  34.483  33.652   6.269
 3611POPC   D2A46456  34.266  33.522   6.624
 3611POPC   C3A46457  34.543  33.567   6.964
 3611POPC   C4A46458  34.271  33.411   7.262
 3611POPC   C1B46459  34.647  34.150   6.239
 3611POPC   C2B46460  34.800  34.077   6.663
 3611POPC   C3B46461  34.632  34.244   7.033
 3611POPC   C4B46462  34.486  34.107   7.431
 3612POPC   NC346463   6.548  36.114   5.414
 3612POPC   PO446464   7.016  36.649   5.486
 3612POPC   GL146465   6.765  36.381   5.796
 3612POPC   GL246466   6.855  36.019   5.807
 3612POPC   C1A46467   6.489  36.184   6.129
 3612POPC   D2A46468   6.605  36.077   6.555
 3612POPC   C3A46469   6.318  36.209   6.897
 3612POPC   C4A46470   6.242  36.104   7.311
 3612POPC   C1B46471   6.936  35.828   6.194
 3612POPC   C2B46472   7.004  35.694   6.608
 3612POPC   C3B46473   6.914  35.960   6.945
 3612POPC   C4B46474   6.729  36.151   7.291
 3613POPC   NC346475  28.560  28.150   5.561
 3613POPC   PO446476  28.176  28.642   5.385
 3613POPC   GL146477  28.153  28.460   5.818
 3613POPC   GL246478  28.175  28.113   5.893
 3613POPC   C1A46479  27.963  28.466   6.257
 3613POPC   D2A46480  28.076  28.248   6.692
 3613POPC   C3A46481  28.242  28.448   7.082
 3613POPC   C4A46482  28.574  28.440   7.464
 3613POPC   C1B46483  28.416  28.245   6.290
 3613POPC   C2B46484  28.579  28.261   6.739
 3613POPC   C3B46485  28.517  28.035   7.157
 3613POPC   C4B46486  28.728  27.885   7.540
 3614POPC   NC346487  24.256   1.431   5.339
 3614POPC   PO446488  24.763   1.539   5.726
 3614POPC   GL146489  24.382   1.422   5.897
 3614POPC   GL246490  24.483   1.097   6.019
 3614POPC   C1A46491  24.370   1.498   6.355
 3614POPC   D2A46492  24.655   1.630   6.716
 3614POPC   C3A46493  24.698   1.315   7.036
 3614POPC   C4A46494  24.267   1.307   7.126
 3614POPC   C1B46495  24.294   0.882   6.361
 3614POPC   C2B46496  24.337   0.689   6.779
 3614POPC   C3B46497  24.483   0.852   7.177
 3614POPC   C4B46498  24.684   0.777   7.563
 3615POPC   NC346499  43.397  40.732   5.420
 3615POPC   PO446500  42.734  40.812   5.443
 3615POPC   GL146501  42.884  40.624   5.820
 3615POPC   GL246502  43.243  40.599   5.885
 3615POPC   C1A46503  42.893  40.796   6.237
 3615POPC   D2A46504  43.146  40.840   6.595
 3615POPC   C3A46505  43.007  40.810   7.014
 3615POPC   C4A46506  43.083  40.481   7.286
 3615POPC   C1B46507  43.430  40.874   6.174
 3615POPC   C2B46508  43.574  41.168   6.466
 3615POPC   C3B46509  43.462  41.092   6.890
 3615POPC   C4B46510  43.432  40.899   7.324
 3616POPC   NC346511  33.457  16.867   5.713
 3616POPC   PO446512  33.909  16.571   5.407
 3616POPC   GL146513  33.933  16.664   5.822
 3616POPC   GL246514  33.957  17.024   5.810
 3616POPC   C1A46515  33.739  16.457   6.172
 3616POPC   D2A46516  33.482  16.533   6.504
 3616POPC   C3A46517  33.708  16.668   6.844
 3616POPC   C4A46518  33.714  16.694   7.258
 3616POPC   C1B46519  33.846  16.967   6.252
 3616POPC   C2B46520  34.089  16.935   6.632
 3616POPC   C3B46521  33.986  17.095   7.043
 3616POPC   C4B46522  34.014  17.248   7.476
 3617POPC   NC346523  29.400  43.854   5.515
 3617POPC   PO446524  30.058  43.945   5.364
 3617POPC   GL146525  30.065  43.783   5.776
 3617POPC   GL246526  29.712  43.738   5.912
 3617POPC   C1A46527  30.105  43.653   6.220
 3617POPC   D2A46528  29.956  43.808   6.582
 3617POPC   C3A46529  30.161  43.948   6.963
 3617POPC   C4A46530  30.144  43.647   7.290
 3617POPC   C1B46531  29.482  44.038   6.179
 3617POPC   C2B46532  29.498  44.017   6.621
 3617POPC   C3B46533  29.647  43.732   6.976
 3617POPC   C4B46534  29.774  43.998   7.310
 3618POPC   NC346535  36.830  43.337   5.277
 3618POPC   PO446536  37.320  42.884   5.338
 3618POPC   GL146537  37.156  43.173   5.698
 3618POPC   GL246538  36.793  43.193   5.762
 3618POPC   C1A46539  37.077  43.301   6.159
 3618POPC   D2A46540  36.893  43.185   6.571
 3618POPC   C3A46541  37.075  43.369   6.935
 3618POPC   C4A46542  37.288  43.125   7.227
 3618POPC   C1B46543  36.563  43.188   6.161
 3618POPC   C2B46544  36.382  43.175   6.557
 3618POPC   C3B46545  36.503  42.963   6.900
 3618POPC   C4B46546  36.642  43.210   7.195
 3619POPC   NC346547  30.476  38.940   5.345
 3619POPC   PO446548  30.850  39.482   5.382
 3619POPC   GL146549  30.606  39.344   5.730
 3619POPC   GL246550  30.246  39.323   5.653
 3619POPC   C1A46551  30.688  39.254   6.164
 3619POPC   D2A46552  30.582  39.061   6.547
 3619POPC   C3A46553  30.777  39.242   6.887
 3619POPC   C4A46554  30.648  39.168   7.277
 3619POPC   C1B46555  30.225  39.474   6.067
 3619POPC   C2B46556  30.362  39.612   6.466
 3619POPC   C3B46557  30.310  39.604   6.885
 3619POPC   C4B46558  30.171  39.348   7.202
 3620POPC   NC346559   8.438  19.783   5.482
 3620POPC   PO446560   7.797  19.494   5.548
 3620POPC   GL146561   8.048  19.655   5.870
 3620POPC   GL246562   8.041  20.016   5.832
 3620POPC   C1A46563   8.055  19.652   6.321
 3620POPC   D2A46564   8.363  19.719   6.652
 3620POPC   C3A46565   8.270  19.662   7.097
 3620POPC   C4A46566   8.484  19.614   7.494
 3620POPC   C1B46567   8.329  20.062   6.172
 3620POPC   C2B46568   8.569  20.178   6.539
 3620POPC   C3B46569   8.419  20.155   6.974
 3620POPC   C4B46570   8.680  20.098   7.330
 3621POPC   NC346571  31.669  17.805   4.891
 3621POPC   PO446572  31.580  17.420   5.395
 3621POPC   GL146573  31.533  17.472   5.812
 3621POPC   GL246574  31.588  17.782   5.960
 3621POPC   C1A46575  31.608  17.337   6.209
 3621POPC   D2A46576  31.378  17.276   6.553
 3621POPC   C3A46577  31.620  17.437   6.839
 3621POPC   C4A46578  31.665  17.210   7.182
 3621POPC   C1B46579  31.285  17.739   6.325
 3621POPC   C2B46580  31.032  17.606   6.697
 3621POPC   C3B46581  31.174  17.430   7.076
 3621POPC   C4B46582  31.478  17.675   7.295
 3622POPC   NC346583   2.472   9.559   5.187
 3622POPC   PO446584   2.969  10.037   5.288
 3622POPC   GL146585   2.688   9.736   5.613
 3622POPC   GL246586   2.850   9.366   5.710
 3622POPC   C1A46587   2.629   9.668   6.075
 3622POPC   D2A46588   2.520   9.671   6.519
 3622POPC   C3A46589   2.763   9.724   6.901
 3622POPC   C4A46590   2.663   9.846   7.320
 3622POPC   C1B46591   2.981   9.305   6.149
 3622POPC   C2B46592   2.862   9.277   6.577
 3622POPC   C3B46593   3.090   9.329   6.964
 3622POPC   C4B46594   3.086   9.566   7.351
 3623POPC   NC346595   7.320   2.881   5.490
 3623POPC   PO446596   7.825   2.506   5.627
 3623POPC   GL146597   7.498   2.676   5.924
 3623POPC   GL246598   7.255   3.016   5.966
 3623POPC   C1A46599   7.377   2.623   6.336
 3623POPC   D2A46600   7.444   2.812   6.727
 3623POPC   C3A46601   7.462   2.516   7.048
 3623POPC   C4A46602   7.219   2.499   7.418
 3623POPC   C1B46603   7.654   3.075   6.192
 3623POPC   C2B46604   7.814   3.187   6.584
 3623POPC   C3B46605   7.825   3.072   7.010
 3623POPC   C4B46606   7.453   2.991   7.242
 3624POPC   NC346607  27.403  34.078   5.563
 3624POPC   PO446608  27.795  33.685   5.254
 3624POPC   GL146609  27.872  33.613   5.700
 3624POPC   GL246610  27.802  33.922   5.863
 3624POPC   C1A46611  27.711  33.409   6.093
 3624POPC   D2A46612  27.428  33.354   6.481
 3624POPC   C3A46613  27.489  33.671   6.816
 3624POPC   C4A46614  27.636  33.744   7.237
 3624POPC   C1B46615  27.712  33.918   6.304
 3624POPC   C2B46616  27.882  33.991   6.726
 3624POPC   C3B46617  27.789  34.214   7.102
 3624POPC   C4B46618  27.855  34.161   7.531
 3625POPC   NC346619  30.406  41.926   5.504
 3625POPC   PO446620  30.509  41.211   5.408
 3625POPC   GL146621  30.488  41.304   5.863
 3625POPC   GL246622  30.376  41.648   5.934
 3625POPC   C1A46623  30.641  41.385   6.298
 3625POPC   D2A46624  30.899  41.641   6.562
 3625POPC   C3A46625  30.917  41.496   6.976
 3625POPC   C4A46626  30.701  41.467   7.357
 3625POPC   C1B46627  30.647  41.941   6.194
 3625POPC   C2B46628  30.706  42.123   6.622
 3625POPC   C3B46629  30.629  41.941   7.046
 3625POPC   C4B46630  30.333  41.941   7.403
 3626POPC   NC346631  19.832   4.281   5.409
 3626POPC   PO446632  19.539   3.709   5.431
 3626POPC   GL146633  19.557   4.040   5.796
 3626POPC   GL246634  19.534   4.448   5.808
 3626POPC   C1A46635  19.828   4.150   6.153
 3626POPC   D2A46636  20.109   3.990   6.473
 3626POPC   C3A46637  19.989   4.122   6.899
 3626POPC   C4A46638  19.843   4.180   7.327
 3626POPC   C1B46639  19.668   4.655   6.209
 3626POPC   C2B46640  19.672   4.462   6.620
 3626POPC   C3B46641  19.750   4.611   7.031
 3626POPC   C4B46642  19.603   4.605   7.440
 3627POPC   NC346643   1.111  30.287   5.461
 3627POPC   PO446644   1.416  29.607   5.485
 3627POPC   GL146645   1.270  29.941   5.831
 3627POPC   GL246646   1.445  30.285   5.896
 3627POPC   C1A46647   1.218  30.019   6.288
 3627POPC   D2A46648   1.168  30.199   6.706
 3627POPC   C3A46649   1.206  29.836   6.970
 3627POPC   C4A46650   1.069  29.814   7.361
 3627POPC   C1B46651   1.688  30.227   6.301
 3627POPC   C2B46652   1.676  30.073   6.750
 3627POPC   C3B46653   1.497  30.201   7.167
 3627POPC   C4B46654   1.508  29.939   7.534
 3628POPC   NC346655  23.256   7.110   5.253
 3628POPC   PO446656  23.858   7.395   5.412
 3628POPC   GL146657  23.655   7.440   5.780
 3628POPC   GL246658  23.731   7.774   5.814
 3628POPC   C1A46659  23.770   7.414   6.206
 3628POPC   D2A46660  23.740   7.626   6.569
 3628POPC   C3A46661  23.929   7.509   6.953
 3628POPC   C4A46662  23.673   7.169   7.084
 3628POPC   C1B46663  23.347   7.767   6.088
 3628POPC   C2B46664  23.242   7.745   6.545
 3628POPC   C3B46665  23.401   7.618   6.971
 3628POPC   C4B46666  23.271   7.373   7.316
 3629POPC   NC346667  13.880  44.445   5.431
 3629POPC   PO446668  13.545   0.066   5.502
 3629POPC   GL146669  13.501  44.736   5.812
 3629POPC   GL246670  13.524  44.357   5.848
 3629POPC   C1A46671  13.595  44.758   6.238
 3629POPC   D2A46672  13.479  44.506   6.578
 3629POPC   C3A46673  13.377  44.774   6.926
 3629POPC   C4A46674  13.620  44.940   7.250
 3629POPC   C1B46675  13.911  44.370   6.131
 3629POPC   C2B46676  14.016  44.582   6.543
 3629POPC   C3B46677  13.831  44.534   6.981
 3629POPC   C4B46678  13.879  44.493   7.429
 3630POPC   NC346679   2.868  38.433   5.083
 3630POPC   PO446680   2.522  38.812   5.629
 3630POPC   GL146681   2.672  38.662   6.031
 3630POPC   GL246682   2.801  38.301   6.062
 3630POPC   C1A46683   2.711  38.653   6.450
 3630POPC   D2A46684   2.544  38.400   6.712
 3630POPC   C3A46685   2.565  38.610   7.048
 3630POPC   C4A46686   2.986  38.751   7.168
 3630POPC   C1B46687   2.961  38.228   6.442
 3630POPC   C2B46688   3.185  38.383   6.765
 3630POPC   C3B46689   2.925  38.242   7.048
 3630POPC   C4B46690   3.014  38.043   7.375
 3631POPC   NC346691  38.920  23.878   5.458
 3631POPC   PO446692  39.061  23.230   5.380
 3631POPC   GL146693  39.258  23.524   5.691
 3631POPC   GL246694  39.435  23.876   5.639
 3631POPC   C1A46695  39.136  23.727   6.101
 3631POPC   D2A46696  38.935  23.735   6.525
 3631POPC   C3A46697  39.153  23.797   6.927
 3631POPC   C4A46698  39.021  23.863   7.355
 3631POPC   C1B46699  39.553  24.038   6.081
 3631POPC   C2B46700  39.414  24.072   6.543
 3631POPC   C3B46701  39.660  24.037   6.953
 3631POPC   C4B46702  39.526  23.828   7.326
 3632POPC   NC346703  40.443  10.656   5.221
 3632POPC   PO446704  40.854  10.191   5.219
 3632POPC   GL146705  40.750  10.433   5.656
 3632POPC   GL246706  41.043  10.603   5.832
 3632POPC   C1A46707  40.675  10.503   6.151
 3632POPC   D2A46708  40.670  10.651   6.603
 3632POPC   C3A46709  40.797  10.478   7.016
 3632POPC   C4A46710  40.718  10.404   7.474
 3632POPC   C1B46711  41.098  10.804   6.254
 3632POPC   C2B46712  41.138  10.874   6.699
 3632POPC   C3B46713  40.938  11.030   7.056
 3632POPC   C4B46714  40.645  10.907   7.387
 3633POPC   NC346715  27.335  39.020   5.648
 3633POPC   PO446716  27.528  39.742   5.482
 3633POPC   GL146717  27.572  39.462   5.820
 3633POPC   GL246718  27.855  39.218   5.746
 3633POPC   C1A46719  27.566  39.313   6.234
 3633POPC   D2A46720  27.649  39.368   6.660
 3633POPC   C3A46721  27.430  39.131   6.966
 3633POPC   C4A46722  27.631  39.359   7.243
 3633POPC   C1B46723  28.054  39.132   6.148
 3633POPC   C2B46724  28.126  39.198   6.596
 3633POPC   C3B46725  27.941  39.020   6.991
 3633POPC   C4B46726  27.975  39.035   7.453
 3634POPC   NC346727  42.948  13.737   5.342
 3634POPC   PO446728  43.546  13.442   5.403
 3634POPC   GL146729  43.317  13.656   5.699
 3634POPC   GL246730  43.042  13.421   5.729
 3634POPC   C1A46731  43.149  13.805   6.092
 3634POPC   D2A46732  43.047  13.946   6.509
 3634POPC   C3A46733  43.100  13.681   6.851
 3634POPC   C4A46734  43.276  13.702   7.228
 3634POPC   C1B46735  42.716  13.535   6.023
 3634POPC   C2B46736  42.686  13.577   6.470
 3634POPC   C3B46737  42.671  13.393   6.866
 3634POPC   C4B46738  42.956  13.277   7.154
 3635POPC   NC346739   9.595  19.953   5.492
 3635POPC   PO446740  10.223  20.115   5.445
 3635POPC   GL146741   9.996  19.998   5.798
 3635POPC   GL246742   9.974  19.662   5.791
 3635POPC   C1A46743   9.723  20.018   6.171
 3635POPC   D2A46744   9.998  20.038   6.515
 3635POPC   C3A46745   9.762  20.010   6.882
 3635POPC   C4A46746   9.969  20.035   7.286
 3635POPC   C1B46747   9.669  19.524   6.117
 3635POPC   C2B46748   9.732  19.615   6.546
 3635POPC   C3B46749   9.796  19.494   6.955
 3635POPC   C4B46750   9.478  19.340   7.253
 3636POPC   NC346751  24.966   1.685   5.337
 3636POPC   PO446752  25.343   2.258   5.344
 3636POPC   GL146753  25.306   2.153   5.784
 3636POPC   GL246754  25.155   1.844   5.829
 3636POPC   C1A46755  25.496   2.023   6.204
 3636POPC   D2A46756  25.346   2.170   6.613
 3636POPC   C3A46757  25.339   2.025   7.040
 3636POPC   C4A46758  25.666   1.807   7.137
 3636POPC   C1B46759  25.054   1.755   6.286
 3636POPC   C2B46760  25.153   1.675   6.736
 3636POPC   C3B46761  24.950   1.721   7.192
 3636POPC   C4B46762  24.912   1.638   7.672
 3637POPC   NC346763  34.826  34.942   5.606
 3637POPC   PO446764  34.820  34.267   5.476
 3637POPC   GL146765  34.594  34.466   5.800
 3637POPC   GL246766  34.354  34.743   5.778
 3637POPC   C1A46767  34.739  34.663   6.174
 3637POPC   D2A46768  35.049  34.794   6.446
 3637POPC   C3A46769  34.895  34.741   6.851
 3637POPC   C4A46770  34.770  34.724   7.267
 3637POPC   C1B46771  34.244  34.484   6.168
 3637POPC   C2B46772  34.453  34.510   6.567
 3637POPC   C3B46773  34.384  34.731   6.903
 3637POPC   C4B46774  34.267  34.535   7.255
 3638POPC   NC346775  31.609  34.961   5.644
 3638POPC   PO446776  31.496  35.695   5.624
 3638POPC   GL146777  31.389  35.381   5.876
 3638POPC   GL246778  31.222  35.615   6.070
 3638POPC   C1A46779  31.493  35.159   6.256
 3638POPC   D2A46780  31.512  35.285   6.678
 3638POPC   C3A46781  31.304  35.111   7.021
 3638POPC   C4A46782  31.533  34.889   7.321
 3638POPC   C1B46783  30.948  35.699   6.405
 3638POPC   C2B46784  31.082  35.580   6.775
 3638POPC   C3B46785  31.347  35.615   7.057
 3638POPC   C4B46786  31.108  35.518   7.373
 3639POPC   NC346787   4.893  29.258   5.340
 3639POPC   PO446788   5.533  29.392   5.150
 3639POPC   GL146789   5.332  29.203   5.625
 3639POPC   GL246790   5.012  29.312   5.839
 3639POPC   C1A46791   5.308  28.995   6.088
 3639POPC   D2A46792   5.182  29.091   6.532
 3639POPC   C3A46793   5.026  28.785   6.846
 3639POPC   C4A46794   5.214  28.877   7.247
 3639POPC   C1B46795   5.197  29.525   6.227
 3639POPC   C2B46796   5.230  29.597   6.693
 3639POPC   C3B46797   5.033  29.307   6.995
 3639POPC   C4B46798   4.672  29.068   7.109
 3640POPC   NC346799  40.942  25.422   5.351
 3640POPC   PO446800  40.537  24.971   5.432
 3640POPC   GL146801  40.690  25.254   5.760
 3640POPC   GL246802  41.032  25.411   5.845
 3640POPC   C1A46803  40.626  25.303   6.190
 3640POPC   D2A46804  40.559  25.547   6.519
 3640POPC   C3A46805  40.482  25.354   6.888
 3640POPC   C4A46806  40.771  25.479   7.234
 3640POPC   C1B46807  41.024  25.012   6.069
 3640POPC   C2B46808  40.854  24.868   6.441
 3640POPC   C3B46809  40.808  24.978   6.862
 3640POPC   C4B46810  40.939  24.990   7.271
 3641POPC   NC346811  40.460  13.465   5.460
 3641POPC   PO446812  40.945  13.996   5.346
 3641POPC   GL146813  40.811  13.740   5.742
 3641POPC   GL246814  41.041  13.485   5.898
 3641POPC   C1A46815  40.551  13.673   6.109
 3641POPC   D2A46816  40.244  13.776   6.451
 3641POPC   C3A46817  40.448  13.869   6.858
 3641POPC   C4A46818  40.637  13.647   7.216
 3641POPC   C1B46819  41.098  13.761   6.263
 3641POPC   C2B46820  41.075  13.743   6.731
 3641POPC   C3B46821  41.136  13.660   7.192
 3641POPC   C4B46822  40.985  13.896   7.585
 3642POPC   NC346823   8.954  41.191   5.521
 3642POPC   PO446824   9.205  40.529   5.470
 3642POPC   GL146825   9.120  40.611   5.867
 3642POPC   GL246826   9.218  40.937   5.849
 3642POPC   C1A46827   9.153  40.606   6.313
 3642POPC   D2A46828   8.945  40.754   6.675
 3642POPC   C3A46829   9.116  40.594   7.057
 3642POPC   C4A46830   9.276  40.494   7.459
 3642POPC   C1B46831   8.991  41.084   6.201
 3642POPC   C2B46832   9.164  41.213   6.578
 3642POPC   C3B46833   9.067  41.126   7.018
 3642POPC   C4B46834   9.057  40.973   7.451
 3643POPC   NC346835  36.449  42.126   5.324
 3643POPC   PO446836  35.880  42.505   5.432
 3643POPC   GL146837  36.156  42.408   5.803
 3643POPC   GL246838  36.303  42.058   5.798
 3643POPC   C1A46839  36.254  42.317   6.233
 3643POPC   D2A46840  36.116  42.446   6.625
 3643POPC   C3A46841  36.289  42.281   6.952
 3643POPC   C4A46842  36.161  42.321   7.346
 3643POPC   C1B46843  36.489  41.852   6.150
 3643POPC   C2B46844  36.545  42.033   6.569
 3643POPC   C3B46845  36.485  41.789   6.964
 3643POPC   C4B46846  36.370  41.875   7.383
 3644POPC   NC346847  24.727  31.451   5.521
 3644POPC   PO446848  24.083  31.179   5.422
 3644POPC   GL146849  24.352  31.237   5.777
 3644POPC   GL246850  24.363  31.621   5.844
 3644POPC   C1A46851  24.456  31.277   6.214
 3644POPC   D2A46852  24.324  31.377   6.617
 3644POPC   C3A46853  24.643  31.457   6.905
 3644POPC   C4A46854  24.411  31.533   7.261
 3644POPC   C1B46855  24.308  31.941   6.172
 3644POPC   C2B46856  24.400  31.886   6.580
 3644POPC   C3B46857  24.200  31.940   6.950
 3644POPC   C4B46858  24.376  32.079   7.307
 3645POPC   NC346859   7.170  44.877   5.583
 3645POPC   PO446860   7.822  44.985   5.449
 3645POPC   GL146861   7.639  44.792   5.829
 3645POPC   GL246862   7.711  44.440   5.886
 3645POPC   C1A46863   7.357  44.750   6.201
 3645POPC   D2A46864   7.200  44.538   6.585
 3645POPC   C3A46865   7.220  44.806   6.958
 3645POPC   C4A46866   7.070  44.968   7.372
 3645POPC   C1B46867   7.767  44.504   6.338
 3645POPC   C2B46868   7.686  44.651   6.768
 3645POPC   C3B46869   7.531  44.457   7.142
 3645POPC   C4B46870   7.664  44.270   7.556
 3646POPC   NC346871  40.043  27.106   5.388
 3646POPC   PO446872  39.843  26.421   5.421
 3646POPC   GL146873  39.891  26.602   5.844
 3646POPC   GL246874  39.938  26.980   5.891
 3646POPC   C1A46875  40.296  26.623   6.071
 3646POPC   D2A46876  40.528  26.580   6.449
 3646POPC   C3A46877  40.287  26.560   6.826
 3646POPC   C4A46878  40.458  26.493   7.226
 3646POPC   C1B46879  39.984  26.925   6.359
 3646POPC   C2B46880  39.692  26.981   6.704
 3646POPC   C3B46881  39.828  26.797   7.073
 3646POPC   C4B46882  40.200  26.918   7.213
 3647POPC   NC346883  12.111  11.413   5.090
 3647POPC   PO446884  11.761  11.101   5.517
 3647POPC   GL146885  12.007  11.223   5.836
 3647POPC   GL246886  12.295  11.057   5.862
 3647POPC   C1A46887  12.003  11.298   6.262
 3647POPC   D2A46888  12.035  11.619   6.531
 3647POPC   C3A46889  11.928  11.457   6.890
 3647POPC   C4A46890  12.031  11.277   7.232
 3647POPC   C1B46891  12.491  11.194   6.231
 3647POPC   C2B46892  12.391  11.284   6.665
 3647POPC   C3B46893  12.441  11.481   7.002
 3647POPC   C4B46894  12.456  11.489   7.421
 3648POPC   NC346895   5.370  38.709   5.114
 3648POPC   PO446896   4.840  38.386   5.340
 3648POPC   GL146897   4.947  38.308   5.780
 3648POPC   GL246898   5.072  38.631   5.990
 3648POPC   C1A46899   4.815  38.240   6.201
 3648POPC   D2A46900   4.999  38.495   6.521
 3648POPC   C3A46901   4.974  38.327   6.914
 3648POPC   C4A46902   5.241  38.569   7.188
 3648POPC   C1B46903   5.330  38.333   6.176
 3648POPC   C2B46904   5.250  38.056   6.518
 3648POPC   C3B46905   5.450  38.176   6.905
 3648POPC   C4B46906   5.556  38.169   7.293
 3649POPC   NC346907  17.793   0.196   4.894
 3649POPC   PO446908  17.273   0.336   5.263
 3649POPC   GL146909  17.276   0.387   5.731
 3649POPC   GL246910  17.593   0.527   5.897
 3649POPC   C1A46911  17.132   0.397   6.170
 3649POPC   D2A46912  17.346   0.381   6.588
 3649POPC   C3A46913  17.151   0.377   6.982
 3649POPC   C4A46914  17.331   0.274   7.385
 3649POPC   C1B46915  17.720   0.672   6.330
 3649POPC   C2B46916  17.635   0.866   6.742
 3649POPC   C3B46917  17.801   0.792   7.149
 3649POPC   C4B46918  17.849   0.380   7.312
 3650POPC   NC346919  27.974  25.060   5.496
 3650POPC   PO446920  27.359  25.331   5.437
 3650POPC   GL146921  27.514  25.362   5.860
 3650POPC   GL246922  27.796  25.135   5.963
 3650POPC   C1A46923  27.272  25.344   6.238
 3650POPC   D2A46924  27.220  25.092   6.578
 3650POPC   C3A46925  27.548  25.182   6.869
 3650POPC   C4A46926  27.531  25.238   7.301
 3650POPC   C1B46927  27.843  25.188   6.394
 3650POPC   C2B46928  27.886  25.575   6.626
 3650POPC   C3B46929  27.772  25.733   7.019
 3650POPC   C4B46930  27.903  25.585   7.406
 3651POPC   NC346931  34.567  14.940   5.592
 3651POPC   PO446932  34.667  15.604   5.512
 3651POPC   GL146933  34.693  15.376   5.879
 3651POPC   GL246934  34.981  15.127   5.873
 3651POPC   C1A46935  34.351  15.354   6.183
 3651POPC   D2A46936  34.312  15.207   6.619
 3651POPC   C3A46937  34.589  15.300   6.960
 3651POPC   C4A46938  34.506  15.181   7.371
 3651POPC   C1B46939  34.731  15.024   6.255
 3651POPC   C2B46940  34.666  14.806   6.650
 3651POPC   C3B46941  34.596  14.776   7.087
 3651POPC   C4B46942  34.924  14.841   7.424
 3652POPC   NC346943  19.000  37.844   4.925
 3652POPC   PO446944  19.227  37.573   5.469
 3652POPC   GL146945  18.946  37.780   5.753
 3652POPC   GL246946  18.640  37.594   5.825
 3652POPC   C1A46947  19.017  37.787   6.199
 3652POPC   D2A46948  19.259  37.884   6.562
 3652POPC   C3A46949  19.349  37.585   6.872
 3652POPC   C4A46950  19.164  37.547   7.234
 3652POPC   C1B46951  18.563  37.559   6.272
 3652POPC   C2B46952  18.707  37.475   6.704
 3652POPC   C3B46953  18.683  37.422   7.175
 3652POPC   C4B46954  18.551  37.391   7.607
 3653POPC   NC346955  23.970  20.480   5.358
 3653POPC   PO446956  23.307  20.579   5.507
 3653POPC   GL146957  23.612  20.658   5.821
 3653POPC   GL246958  23.984  20.639   5.841
 3653POPC   C1A46959  23.621  20.712   6.243
 3653POPC   D2A46960  23.407  20.728   6.621
 3653POPC   C3A46961  23.617  20.895   6.988
 3653POPC   C4A46962  23.764  20.765   7.418
 3653POPC   C1B46963  24.142  20.628   6.239
 3653POPC   C2B46964  23.954  20.681   6.636
 3653POPC   C3B46965  24.091  20.712   7.029
 3653POPC   C4B46966  24.140  20.406   7.330
 3654POPC   NC346967  14.236  23.077   5.326
 3654POPC   PO446968  14.791  23.243   5.500
 3654POPC   GL146969  14.551  22.907   5.721
 3654POPC   GL246970  14.209  23.011   5.828
 3654POPC   C1A46971  14.544  22.648   6.104
 3654POPC   D2A46972  14.679  22.798   6.513
 3654POPC   C3A46973  14.442  22.701   6.910
 3654POPC   C4A46974  14.459  22.792   7.335
 3654POPC   C1B46975  14.417  23.148   6.210
 3654POPC   C2B46976  14.300  23.109   6.651
 3654POPC   C3B46977  14.383  23.241   7.077
 3654POPC   C4B46978  14.146  23.375   7.443
 3655POPC   NC346979  36.478  27.036   5.156
 3655POPC   PO446980  37.080  26.961   5.439
 3655POPC   GL146981  36.884  26.681   5.717
 3655POPC   GL246982  37.082  26.389   5.651
 3655POPC   C1A46983  36.908  26.712   6.178
 3655POPC   D2A46984  37.115  26.868   6.564
 3655POPC   C3A46985  36.825  26.973   6.870
 3655POPC   C4A46986  36.763  26.765   7.222
 3655POPC   C1B46987  37.156  26.279   6.096
 3655POPC   C2B46988  37.061  26.354   6.546
 3655POPC   C3B46989  37.085  26.459   7.012
 3655POPC   C4B46990  37.093  26.432   7.512
 3656POPC   NC346991   5.130  20.185   5.422
 3656POPC   PO446992   4.930  20.836   5.427
 3656POPC   GL146993   5.040  20.775   5.816
 3656POPC   GL246994   5.216  20.485   5.821
 3656POPC   C1A46995   5.196  20.873   6.215
 3656POPC   D2A46996   5.310  20.791   6.619
 3656POPC   C3A46997   4.980  20.932   6.882
 3656POPC   C4A46998   4.866  20.898   7.299
 3656POPC   C1B46999   5.387  20.396   6.221
 3656POPC   C2B47000   5.166  20.303   6.588
 3656POPC   C3B47001   5.034  20.439   6.993
 3656POPC   C4B47002   4.932  20.250   7.348
 3657POPC   NC347003  26.356  24.682   5.310
 3657POPC   PO447004  26.228  24.044   5.364
 3657POPC   GL147005  26.246  24.302   5.751
 3657POPC   GL247006  26.166  24.678   5.767
 3657POPC   C1A47007  26.030  24.340   6.167
 3657POPC   D2A47008  25.908  24.541   6.567
 3657POPC   C3A47009  26.068  24.362   6.962
 3657POPC   C4A47010  25.875  24.392   7.363
 3657POPC   C1B47011  26.092  24.866   6.148
 3657POPC   C2B47012  26.312  24.866   6.501
 3657POPC   C3B47013  26.243  24.842   6.904
 3657POPC   C4B47014  25.927  24.871   7.193
 3658POPC   NC347015  22.073  35.237   5.327
 3658POPC   PO447016  22.752  35.215   5.479
 3658POPC   GL147017  22.391  35.248   5.724
 3658POPC   GL247018  22.228  35.547   5.734
 3658POPC   C1A47019  22.130  35.195   6.094
 3658POPC   D2A47020  21.943  35.159   6.502
 3658POPC   C3A47021  22.153  35.027   6.854
 3658POPC   C4A47022  22.110  35.176   7.242
 3658POPC   C1B47023  22.012  35.709   6.104
 3658POPC   C2B47024  21.822  35.658   6.523
 3658POPC   C3B47025  21.957  35.531   6.920
 3658POPC   C4B47026  22.228  35.700   7.261
 3659POPC   NC347027  29.825   7.799   5.440
 3659POPC   PO447028  29.975   7.103   5.487
 3659POPC   GL147029  30.033   7.391   5.838
 3659POPC   GL247030  30.242   7.719   5.773
 3659POPC   C1A47031  29.990   7.253   6.281
 3659POPC   D2A47032  29.757   7.007   6.605
 3659POPC   C3A47033  29.620   7.178   6.988
 3659POPC   C4A47034  29.773   7.161   7.461
 3659POPC   C1B47035  30.092   7.767   6.212
 3659POPC   C2B47036  29.886   7.695   6.656
 3659POPC   C3B47037  29.919   7.564   7.102
 3659POPC   C4B47038  30.211   7.381   7.387
 3660POPC   NC347039  22.902   9.796   5.217
 3660POPC   PO447040  22.822   9.263   5.540
 3660POPC   GL147041  22.955   9.545   5.841
 3660POPC   GL247042  22.927   9.884   5.731
 3660POPC   C1A47043  22.928   9.633   6.285
 3660POPC   D2A47044  22.709   9.561   6.694
 3660POPC   C3A47045  22.953   9.460   7.071
 3660POPC   C4A47046  23.101   9.382   7.495
 3660POPC   C1B47047  22.675  10.040   6.105
 3660POPC   C2B47048  22.684  10.118   6.576
 3660POPC   C3B47049  22.863   9.961   6.969
 3660POPC   C4B47050  22.874  10.041   7.407
 3661POPC   NC347051  31.422  23.308   5.082
 3661POPC   PO447052  31.402  22.669   5.392
 3661POPC   GL147053  31.574  22.844   5.775
 3661POPC   GL247054  31.880  22.789   5.686
 3661POPC   C1A47055  31.448  23.011   6.210
 3661POPC   D2A47056  31.235  22.889   6.616
 3661POPC   C3A47057  31.366  22.973   7.018
 3661POPC   C4A47058  31.717  22.937   7.266
 3661POPC   C1B47059  31.865  22.658   6.145
 3661POPC   C2B47060  31.748  22.776   6.560
 3661POPC   C3B47061  31.662  22.549   6.881
 3661POPC   C4B47062  31.873  22.439   7.216
 3662POPC   NC347063  19.970  24.081   5.132
 3662POPC   PO447064  19.780  23.499   5.472
 3662POPC   GL147065  19.750  23.604   5.822
 3662POPC   GL247066  20.066  23.640   5.921
 3662POPC   C1A47067  19.614  23.710   6.178
 3662POPC   D2A47068  19.716  23.486   6.511
 3662POPC   C3A47069  19.606  23.583   6.906
 3662POPC   C4A47070  19.811  23.723   7.264
 3662POPC   C1B47071  20.112  23.850   6.320
 3662POPC   C2B47072  20.001  23.913   6.768
 3662POPC   C3B47073  20.166  24.063   7.165
 3662POPC   C4B47074  20.271  23.828   7.572
 3663POPC   NC347075  34.462  12.246   5.063
 3663POPC   PO447076  35.055  12.028   5.369
 3663POPC   GL147077  34.849  11.925   5.852
 3663POPC   GL247078  34.475  12.041   5.835
 3663POPC   C1A47079  34.649  11.901   6.278
 3663POPC   D2A47080  34.343  11.897   6.590
 3663POPC   C3A47081  34.600  11.749   6.912
 3663POPC   C4A47082  34.505  11.705   7.328
 3663POPC   C1B47083  34.434  12.338   6.157
 3663POPC   C2B47084  34.575  12.358   6.576
 3663POPC   C3B47085  34.304  12.473   6.904
 3663POPC   C4B47086  34.274  12.098   7.102
 3664POPC   NC347087   3.996  40.827   5.419
 3664POPC   PO447088   3.379  41.071   5.274
 3664POPC   GL147089   3.348  40.970   5.722
 3664POPC   GL247090   3.419  40.640   5.807
 3664POPC   C1A47091   3.310  41.005   6.153
 3664POPC   D2A47092   3.405  40.753   6.493
 3664POPC   C3A47093   3.621  40.845   6.861
 3664POPC   C4A47094   3.586  40.684   7.276
 3664POPC   C1B47095   3.770  40.665   6.123
 3664POPC   C2B47096   3.801  40.449   6.530
 3664POPC   C3B47097   3.984  40.483   6.910
 3664POPC   C4B47098   4.024  40.414   7.327
 3665POPC   NC347099  11.701   2.933   5.340
 3665POPC   PO447100  12.303   2.580   5.362
 3665POPC   GL147101  12.217   2.625   5.808
 3665POPC   GL247102  11.866   2.740   5.829
 3665POPC   C1A47103  12.194   2.657   6.270
 3665POPC   D2A47104  11.853   2.728   6.518
 3665POPC   C3A47105  11.903   2.635   6.932
 3665POPC   C4A47106  12.140   2.717   7.271
 3665POPC   C1B47107  11.967   3.087   6.110
 3665POPC   C2B47108  12.192   3.200   6.489
 3665POPC   C3B47109  12.240   3.079   6.902
 3665POPC   C4B47110  12.267   3.206   7.341
 3666POPC   NC347111  29.306   9.119   5.335
 3666POPC   PO447112  29.282   8.440   5.191
 3666POPC   GL147113  29.241   8.633   5.638
 3666POPC   GL247114  29.024   8.909   5.739
 3666POPC   C1A47115  29.247   8.635   6.121
 3666POPC   D2A47116  29.343   8.799   6.580
 3666POPC   C3A47117  28.987   8.851   6.904
 3666POPC   C4A47118  28.983   8.843   7.373
 3666POPC   C1B47119  29.169   9.163   6.121
 3666POPC   C2B47120  29.085   9.246   6.570
 3666POPC   C3B47121  29.149   9.332   7.028
 3666POPC   C4B47122  29.102   9.314   7.491
 3667POPC   NC347123   8.797  25.508   5.694
 3667POPC   PO447124   8.163  25.312   5.471
 3667POPC   GL147125   8.312  25.140   5.801
 3667POPC   GL247126   8.355  24.795   5.715
 3667POPC   C1A47127   8.315  25.313   6.207
 3667POPC   D2A47128   8.475  25.458   6.602
 3667POPC   C3A47129   8.141  25.628   6.840
 3667POPC   C4A47130   8.285  25.474   7.191
 3667POPC   C1B47131   8.475  24.824   6.167
 3667POPC   C2B47132   8.382  24.950   6.565
 3667POPC   C3B47133   8.112  25.101   6.873
 3667POPC   C4B47134   7.922  25.133   7.301
 3668POPC   NC347135  29.792  40.315   5.030
 3668POPC   PO447136  29.906  40.875   5.347
 3668POPC   GL147137  29.928  40.811   5.752
 3668POPC   GL247138  30.054  41.065   5.947
 3668POPC   C1A47139  29.759  40.700   6.137
 3668POPC   D2A47140  29.882  40.839   6.532
 3668POPC   C3A47141  29.692  40.690   6.916
 3668POPC   C4A47142  29.965  40.503   7.240
 3668POPC   C1B47143  30.319  40.991   6.297
 3668POPC   C2B47144  30.446  41.064   6.721
 3668POPC   C3B47145  30.081  41.025   6.972
 3668POPC   C4B47146  29.804  40.973   7.325
 3669POPC   NC347147   1.395   6.922   5.445
 3669POPC   PO447148   0.950   6.482   5.219
 3669POPC   GL147149   1.091   6.494   5.680
 3669POPC   GL247150   1.458   6.551   5.782
 3669POPC   C1A47151   1.034   6.751   6.068
 3669POPC   D2A47152   1.001   6.928   6.499
 3669POPC   C3A47153   0.961   6.626   6.844
 3669POPC   C4A47154   1.068   6.731   7.259
 3669POPC   C1B47155   1.538   6.821   6.149
 3669POPC   C2B47156   1.500   6.653   6.554
 3669POPC   C3B47157   1.479   6.585   6.973
 3669POPC   C4B47158   1.574   6.900   7.263
 3670POPC   NC347159   5.644  29.749   5.429
 3670POPC   PO447160   6.107  30.280   5.415
 3670POPC   GL147161   5.955  30.025   5.776
 3670POPC   GL247162   5.614  30.181   5.791
 3670POPC   C1A47163   5.943  29.805   6.193
 3670POPC   D2A47164   6.238  29.638   6.510
 3670POPC   C3A47165   6.174  29.757   6.924
 3670POPC   C4A47166   6.083  29.670   7.345
 3670POPC   C1B47167   5.686  30.252   6.231
 3670POPC   C2B47168   5.580  29.973   6.582
 3670POPC   C3B47169   5.656  29.800   7.004
 3670POPC   C4B47170   5.594  30.086   7.351
 3671POPC   NC347171  24.280  13.685   5.506
 3671POPC   PO447172  24.893  13.514   5.340
 3671POPC   GL147173  24.668  13.519   5.789
 3671POPC   GL247174  24.611  13.904   5.845
 3671POPC   C1A47175  24.341  13.321   6.125
 3671POPC   D2A47176  24.117  13.304   6.561
 3671POPC   C3A47177  24.314  13.338   6.985
 3671POPC   C4A47178  24.695  13.556   7.063
 3671POPC   C1B47179  24.351  13.834   6.220
 3671POPC   C2B47180  24.135  13.828   6.644
 3671POPC   C3B47181  24.173  13.868   7.098
 3671POPC   C4B47182  24.073  14.031   7.529
 3672POPC   NC347183  22.141  30.914   5.327
 3672POPC   PO447184  22.511  30.452   5.667
 3672POPC   GL147185  22.342  30.823   5.801
 3672POPC   GL247186  22.010  30.733   5.823
 3672POPC   C1A47187  22.319  30.918   6.231
 3672POPC   D2A47188  21.946  30.830   6.507
 3672POPC   C3A47189  21.924  30.770   6.940
 3672POPC   C4A47190  21.885  30.908   7.344
 3672POPC   C1B47191  22.097  30.453   6.178
 3672POPC   C2B47192  22.324  30.467   6.566
 3672POPC   C3B47193  22.341  30.476   7.004
 3672POPC   C4B47194  22.104  30.417   7.357
 3673POPC   NC347195  21.562  30.100   5.291
 3673POPC   PO447196  21.229  29.501   5.312
 3673POPC   GL147197  21.295  29.814   5.654
 3673POPC   GL247198  21.615  29.763   5.811
 3673POPC   C1A47199  21.240  29.922   6.118
 3673POPC   D2A47200  21.559  29.885   6.464
 3673POPC   C3A47201  21.369  30.063   6.817
 3673POPC   C4A47202  21.181  30.145   7.245
 3673POPC   C1B47203  21.454  29.469   6.166
 3673POPC   C2B47204  21.224  29.531   6.605
 3673POPC   C3B47205  21.264  29.634   7.062
 3673POPC   C4B47206  21.026  29.501   7.400
 3674POPC   NC347207  21.481  31.211   5.497
 3674POPC   PO447208  21.174  31.851   5.353
 3674POPC   GL147209  21.196  31.592   5.764
 3674POPC   GL247210  21.408  31.359   5.985
 3674POPC   C1A47211  21.072  31.678   6.220
 3674POPC   D2A47212  21.178  31.973   6.576
 3674POPC   C3A47213  21.460  31.878   6.948
 3674POPC   C4A47214  21.419  31.644   7.336
 3674POPC   C1B47215  21.116  31.185   6.329
 3674POPC   C2B47216  21.170  31.224   6.766
 3674POPC   C3B47217  21.437  31.040   7.071
 3674POPC   C4B47218  21.251  31.152   7.421
 3675POPC   NC347219  43.568   0.271   5.441
 3675POPC   PO447220  44.223   0.529   5.471
 3675POPC   GL147221  44.087   0.406   5.850
 3675POPC   GL247222  43.749   0.386   5.907
 3675POPC   C1A47223  44.092   0.381   6.287
 3675POPC   D2A47224  44.237   0.643   6.605
 3675POPC   C3A47225  44.105   0.474   6.997
 3675POPC   C4A47226  43.992   0.344   7.448
 3675POPC   C1B47227  43.617   0.560   6.311
 3675POPC   C2B47228  43.716   0.285   6.661
 3675POPC   C3B47229  43.626   0.218   7.078
 3675POPC   C4B47230  43.674   0.640   7.224
 3676POPC   NC347231  10.577  41.040   5.362
 3676POPC   PO447232  10.105  40.577   5.518
 3676POPC   GL147233  10.377  40.752   5.863
 3676POPC   GL247234  10.714  40.923   5.825
 3676POPC   C1A47235  10.401  41.010   6.234
 3676POPC   D2A47236  10.623  41.132   6.589
 3676POPC   C3A47237  10.501  40.941   6.966
 3676POPC   C4A47238  10.336  40.727   7.339
 3676POPC   C1B47239  10.861  40.805   6.219
 3676POPC   C2B47240  10.677  40.605   6.569
 3676POPC   C3B47241  10.523  40.424   6.935
 3676POPC   C4B47242  10.751  40.402   7.316
 3677POPC   NC347243  30.016  43.390   5.354
 3677POPC   PO447244  30.189  42.800   5.676
 3677POPC   GL147245  29.819  43.018   5.804
 3677POPC   GL247246  29.963  43.299   5.859
 3677POPC   C1A47247  29.593  43.156   6.178
 3677POPC   D2A47248  29.753  43.330   6.555
 3677POPC   C3A47249  29.690  43.038   6.897
 3677POPC   C4A47250  29.791  43.209   7.301
 3677POPC   C1B47251  30.170  43.139   6.222
 3677POPC   C2B47252  30.154  43.010   6.619
 3677POPC   C3B47253  30.157  43.232   6.965
 3677POPC   C4B47254  30.296  43.138   7.384
 3678POPC   NC347255  30.643   9.800   5.374
 3678POPC   PO447256  31.140   9.944   5.775
 3678POPC   GL147257  30.766   9.671   5.872
 3678POPC   GL247258  30.426   9.494   5.765
 3678POPC   C1A47259  30.812   9.611   6.298
 3678POPC   D2A47260  30.958   9.890   6.629
 3678POPC   C3A47261  30.855   9.738   7.025
 3678POPC   C4A47262  30.660  10.062   7.290
 3678POPC   C1B47263  30.325   9.701   6.170
 3678POPC   C2B47264  30.421   9.826   6.612
 3678POPC   C3B47265  30.353   9.687   7.043
 3678POPC   C4B47266  30.570   9.592   7.466
 3679POPC   NC347267  18.930   9.250   5.390
 3679POPC   PO447268  19.259   8.679   5.403
 3679POPC   GL147269  19.170   8.945   5.759
 3679POPC   GL247270  19.307   8.766   6.012
 3679POPC   C1A47271  18.987   9.099   6.204
 3679POPC   D2A47272  19.030   9.188   6.692
 3679POPC   C3A47273  18.806   8.892   6.975
 3679POPC   C4A47274  18.891   8.637   7.365
 3679POPC   C1B47275  19.298   8.771   6.480
 3679POPC   C2B47276  19.281   8.692   6.920
 3679POPC   C3B47277  19.271   9.002   7.250
 3679POPC   C4B47278  19.432   9.435   7.237
 3680POPC   NC347279  31.121   8.814   5.592
 3680POPC   PO447280  30.797   9.358   5.435
 3680POPC   GL147281  30.808   9.137   5.835
 3680POPC   GL247282  30.488   8.967   5.822
 3680POPC   C1A47283  30.808   8.767   6.153
 3680POPC   D2A47284  30.904   8.539   6.516
 3680POPC   C3A47285  30.852   8.813   6.851
 3680POPC   C4A47286  31.023   8.880   7.245
 3680POPC   C1B47287  30.515   9.197   6.262
 3680POPC   C2B47288  30.651   9.354   6.710
 3680POPC   C3B47289  30.625   9.196   7.132
 3680POPC   C4B47290  30.489   8.755   7.230
 3681POPC   NC347291  21.488  36.325   5.108
 3681POPC   PO447292  21.040  36.001   5.463
 3681POPC   GL147293  21.366  36.194   5.766
 3681POPC   GL247294  21.702  35.995   5.733
 3681POPC   C1A47295  21.398  36.375   6.224
 3681POPC   D2A47296  21.382  36.464   6.687
 3681POPC   C3A47297  21.147  36.169   6.965
 3681POPC   C4A47298  21.256  36.017   7.378
 3681POPC   C1B47299  21.507  35.851   6.138
 3681POPC   C2B47300  21.327  35.904   6.555
 3681POPC   C3B47301  21.486  35.757   6.951
 3681POPC   C4B47302  21.719  35.806   7.331
 3682POPC   NC347303  28.960  44.883   5.440
 3682POPC   PO447304  29.316  44.323   5.446
 3682POPC   GL147305  29.278  44.668   5.810
 3682POPC   GL247306  29.028  44.951   5.944
 3682POPC   C1A47307  29.146  44.573   6.265
 3682POPC   D2A47308  28.892  44.593   6.660
 3682POPC   C3A47309  29.109  44.366   6.968
 3682POPC   C4A47310  29.542  44.338   7.028
 3682POPC   C1B47311  29.270   0.097   6.303
 3682POPC   C2B47312  29.421  44.944   6.701
 3682POPC   C3B47313  29.371  44.811   7.127
 3682POPC   C4B47314  28.966  44.767   7.293
 3683POPC   NC347315  29.609  40.167   5.511
 3683POPC   PO447316  29.990  39.640   5.314
 3683POPC   GL147317  30.063  39.912   5.723
 3683POPC   GL247318  30.002  40.299   5.818
 3683POPC   C1A47319  30.199  39.984   6.158
 3683POPC   D2A47320  29.973  40.011   6.592
 3683POPC   C3A47321  30.149  40.065   7.029
 3683POPC   C4A47322  30.130  39.804   7.414
 3683POPC   C1B47323  29.719  40.201   6.166
 3683POPC   C2B47324  29.564  40.339   6.561
 3683POPC   C3B47325  29.634  40.185   7.006
 3683POPC   C4B47326  29.684  40.094   7.445
 3684POPC   NC347327  21.110  23.054   5.420
 3684POPC   PO447328  21.766  23.087   5.351
 3684POPC   GL147329  21.535  22.932   5.750
 3684POPC   GL247330  21.194  22.769   5.840
 3684POPC   C1A47331  21.662  22.796   6.162
 3684POPC   D2A47332  21.517  22.913   6.565
 3684POPC   C3A47333  21.788  22.994   6.901
 3684POPC   C4A47334  21.659  23.186   7.248
 3684POPC   C1B47335  21.115  22.699   6.282
 3684POPC   C2B47336  21.174  22.555   6.693
 3684POPC   C3B47337  21.355  22.724   7.039
 3684POPC   C4B47338  21.162  23.092   7.191
 3685POPC   NC347339  15.258  42.888   5.384
 3685POPC   PO447340  14.911  43.524   5.376
 3685POPC   GL147341  14.948  43.168   5.685
 3685POPC   GL247342  15.271  43.224   5.816
 3685POPC   C1A47343  14.969  42.923   6.113
 3685POPC   D2A47344  15.183  42.860   6.560
 3685POPC   C3A47345  15.126  43.138   6.954
 3685POPC   C4A47346  14.929  43.125   7.363
 3685POPC   C1B47347  15.334  43.267   6.265
 3685POPC   C2B47348  15.583  43.160   6.671
 3685POPC   C3B47349  15.578  43.333   7.085
 3685POPC   C4B47350  15.589  43.066   7.445
 3686POPC   NC347351  34.382  27.199   5.177
 3686POPC   PO447352  34.749  27.683   5.479
 3686POPC   GL147353  34.625  27.832   5.857
 3686POPC   GL247354  34.366  28.027   5.726
 3686POPC   C1A47355  34.788  27.862   6.291
 3686POPC   D2A47356  34.872  27.736   6.723
 3686POPC   C3A47357  34.576  27.446   6.879
 3686POPC   C4A47358  34.545  27.411   7.316
 3686POPC   C1B47359  34.286  28.018   6.198
 3686POPC   C2B47360  34.382  27.899   6.643
 3686POPC   C3B47361  34.361  27.863   7.092
 3686POPC   C4B47362  34.469  27.921   7.522
 3687POPC   NC347363  27.055  26.473   5.542
 3687POPC   PO447364  26.857  25.851   5.422
 3687POPC   GL147365  26.934  26.053   5.828
 3687POPC   GL247366  26.697  26.318   5.853
 3687POPC   C1A47367  26.840  26.082   6.299
 3687POPC   D2A47368  26.473  25.866   6.543
 3687POPC   C3A47369  26.581  25.696   6.955
 3687POPC   C4A47370  26.877  25.814   7.252
 3687POPC   C1B47371  26.687  26.572   6.226
 3687POPC   C2B47372  26.892  26.469   6.629
 3687POPC   C3B47373  27.035  26.277   6.999
 3687POPC   C4B47374  26.849  26.291   7.403
 3688POPC   NC347375  17.444  24.334   5.415
 3688POPC   PO447376  17.716  24.889   5.210
 3688POPC   GL147377  17.716  24.708   5.717
 3688POPC   GL247378  17.568  24.388   5.900
 3688POPC   C1A47379  17.829  24.667   6.224
 3688POPC   D2A47380  17.607  24.477   6.525
 3688POPC   C3A47381  17.770  24.447   6.915
 3688POPC   C4A47382  17.598  24.388   7.277
 3688POPC   C1B47383  17.210  24.370   6.178
 3688POPC   C2B47384  17.097  24.588   6.546
 3688POPC   C3B47385  17.238  24.352   6.887
 3688POPC   C4B47386  17.163  24.118   7.288
 3689POPC   NC347387  38.673  40.140   5.380
 3689POPC   PO447388  38.199  39.675   5.308
 3689POPC   GL147389  38.416  39.784   5.691
 3689POPC   GL247390  38.375  39.483   5.847
 3689POPC   C1A47391  38.570  39.930   6.095
 3689POPC   D2A47392  38.422  40.210   6.446
 3689POPC   C3A47393  38.582  40.117   6.857
 3689POPC   C4A47394  38.569  40.183   7.296
 3689POPC   C1B47395  38.146  39.658   6.182
 3689POPC   C2B47396  38.103  39.721   6.612
 3689POPC   C3B47397  38.154  39.871   7.044
 3689POPC   C4B47398  38.287  39.809   7.486
 3690POPC   NC347399  22.159  41.290   5.591
 3690POPC   PO447400  22.094  40.614   5.290
 3690POPC   GL147401  22.054  40.723   5.686
 3690POPC   GL247402  22.324  40.494   5.741
 3690POPC   C1A47403  21.844  40.780   6.098
 3690POPC   D2A47404  21.990  40.678   6.527
 3690POPC   C3A47405  21.876  40.891   6.919
 3690POPC   C4A47406  21.916  41.182   7.264
 3690POPC   C1B47407  22.368  40.749   6.123
 3690POPC   C2B47408  22.488  40.860   6.539
 3690POPC   C3B47409  22.343  40.682   6.908
 3690POPC   C4B47410  22.280  40.834   7.291
 3691POPC   NC347411  24.061  33.273   5.472
 3691POPC   PO447412  23.476  32.970   5.574
 3691POPC   GL147413  23.672  33.099   5.931
 3691POPC   GL247414  23.962  32.882   5.826
 3691POPC   C1A47415  23.577  33.220   6.386
 3691POPC   D2A47416  23.430  33.248   6.839
 3691POPC   C3A47417  23.749  33.352   7.145
 3691POPC   C4A47418  24.159  33.198   7.239
 3691POPC   C1B47419  23.934  32.840   6.275
 3691POPC   C2B47420  24.066  32.660   6.645
 3691POPC   C3B47421  23.879  32.848   6.999
 3691POPC   C4B47422  23.867  32.785   7.440
 3692POPC   NC347423   7.995  43.323   5.503
 3692POPC   PO447424   8.380  42.764   5.622
 3692POPC   GL147425   8.192  43.038   5.911
 3692POPC   GL247426   8.294  43.376   5.909
 3692POPC   C1A47427   8.306  43.097   6.350
 3692POPC   D2A47428   8.221  42.749   6.642
 3692POPC   C3A47429   8.106  42.749   7.079
 3692POPC   C4A47430   8.436  42.808   7.379
 3692POPC   C1B47431   7.915  43.376   6.201
 3692POPC   C2B47432   7.859  43.174   6.607
 3692POPC   C3B47433   8.116  43.255   6.966
 3692POPC   C4B47434   8.097  43.591   7.250
 3693POPC   NC347435  33.067   6.228   5.510
 3693POPC   PO447436  33.131   6.837   5.242
 3693POPC   GL147437  33.018   6.701   5.721
 3693POPC   GL247438  32.778   6.893   5.917
 3693POPC   C1A47439  33.070   6.387   6.119
 3693POPC   D2A47440  33.014   6.192   6.530
 3693POPC   C3A47441  32.908   6.410   6.909
 3693POPC   C4A47442  33.085   6.500   7.365
 3693POPC   C1B47443  33.160   6.865   6.198
 3693POPC   C2B47444  33.250   6.722   6.620
 3693POPC   C3B47445  33.114   6.875   7.009
 3693POPC   C4B47446  33.213   7.012   7.421
 3694POPC   NC347447  18.437  19.419   5.460
 3694POPC   PO447448  18.035  18.897   5.302
 3694POPC   GL147449  18.198  19.043   5.710
 3694POPC   GL247450  18.529  18.946   5.773
 3694POPC   C1A47451  18.220  19.211   6.133
 3694POPC   D2A47452  18.348  19.037   6.560
 3694POPC   C3A47453  18.133  18.843   6.896
 3694POPC   C4A47454  18.195  19.144   7.225
 3694POPC   C1B47455  18.423  18.736   6.162
 3694POPC   C2B47456  18.645  18.636   6.545
 3694POPC   C3B47457  18.641  18.809   6.951
 3694POPC   C4B47458  18.420  18.645   7.306
 3695POPC   NC347459  37.523  27.968   5.592
 3695POPC   PO447460  37.799  27.724   5.061
 3695POPC   GL147461  37.697  27.508   5.525
 3695POPC   GL247462  37.845  27.248   5.637
 3695POPC   C1A47463  37.678  27.529   6.063
 3695POPC   D2A47464  37.668  27.368   6.531
 3695POPC   C3A47465  37.645  27.562   6.992
 3695POPC   C4A47466  37.816  27.783   7.415
 3695POPC   C1B47467  38.135  27.338   5.922
 3695POPC   C2B47468  38.146  27.369   6.350
 3695POPC   C3B47469  38.109  27.343   6.774
 3695POPC   C4B47470  38.072  27.333   7.202
 3696POPC   NC347471   5.373  16.169   5.392
 3696POPC   PO447472   4.745  15.864   5.463
 3696POPC   GL147473   4.970  16.121   5.721
 3696POPC   GL247474   5.229  15.891   5.813
 3696POPC   C1A47475   4.924  16.247   6.140
 3696POPC   D2A47476   4.840  16.020   6.526
 3696POPC   C3A47477   5.091  16.063   6.892
 3696POPC   C4A47478   4.815  15.992   7.231
 3696POPC   C1B47479   5.382  16.013   6.194
 3696POPC   C2B47480   5.294  15.750   6.506
 3696POPC   C3B47481   5.376  15.631   6.906
 3696POPC   C4B47482   5.275  15.752   7.302
 3697POPC   NC347483   1.340  16.248   5.432
 3697POPC   PO447484   1.248  15.528   5.372
 3697POPC   GL147485   1.140  15.851   5.747
 3697POPC   GL247486   0.888  16.147   5.723
 3697POPC   C1A47487   1.251  16.156   6.111
 3697POPC   D2A47488   1.490  16.241   6.525
 3697POPC   C3A47489   1.533  15.864   6.811
 3697POPC   C4A47490   1.392  15.718   7.226
 3697POPC   C1B47491   0.780  15.989   6.169
 3697POPC   C2B47492   0.965  16.191   6.546
 3697POPC   C3B47493   1.168  16.196   6.953
 3697POPC   C4B47494   0.901  15.944   7.207
 3698POPC   NC347495  12.213  31.779   5.538
 3698POPC   PO447496  11.783  31.228   5.444
 3698POPC   GL147497  12.057  31.335   5.772
 3698POPC   GL247498  12.342  31.171   5.830
 3698POPC   C1A47499  11.970  31.511   6.164
 3698POPC   D2A47500  11.717  31.365   6.488
 3698POPC   C3A47501  11.956  31.290   6.859
 3698POPC   C4A47502  12.005  31.514   7.225
 3698POPC   C1B47503  12.457  31.383   6.204
 3698POPC   C2B47504  12.375  31.540   6.633
 3698POPC   C3B47505  12.460  31.397   7.051
 3698POPC   C4B47506  12.420  31.410   7.532
 3699POPC   NC347507  40.668   0.942   5.464
 3699POPC   PO447508  41.045   1.502   5.567
 3699POPC   GL147509  40.951   1.230   5.881
 3699POPC   GL247510  41.073   0.918   5.842
 3699POPC   C1A47511  40.723   1.061   6.217
 3699POPC   D2A47512  40.640   1.267   6.627
 3699POPC   C3A47513  40.691   1.111   7.045
 3699POPC   C4A47514  40.727   1.063   7.516
 3699POPC   C1B47515  41.248   1.003   6.234
 3699POPC   C2B47516  41.277   1.145   6.651
 3699POPC   C3B47517  41.197   1.021   7.064
 3699POPC   C4B47518  41.077   1.362   7.330
 3700POPC   NC347519   7.991  25.843   5.443
 3700POPC   PO447520   8.467  26.245   5.277
 3700POPC   GL147521   8.344  26.029   5.731
 3700POPC   GL247522   8.324  25.675   5.818
 3700POPC   C1A47523   8.116  26.116   6.124
 3700POPC   D2A47524   7.815  26.033   6.450
 3700POPC   C3A47525   7.897  26.094   6.894
 3700POPC   C4A47526   8.121  25.958   7.260
 3700POPC   C1B47527   8.522  25.804   6.214
 3700POPC   C2B47528   8.485  25.975   6.635
 3700POPC   C3B47529   8.611  25.864   7.050
 3700POPC   C4B47530   8.520  25.812   7.509
 3701POPC   NC347531  15.436  36.705   5.271
 3701POPC   PO447532  14.937  37.169   5.403
 3701POPC   GL147533  15.303  37.102   5.695
 3701POPC   GL247534  15.262  36.736   5.765
 3701POPC   C1A47535  15.361  37.126   6.159
 3701POPC   D2A47536  14.973  36.938   6.420
 3701POPC   C3A47537  14.970  36.891   6.876
 3701POPC   C4A47538  14.791  37.063   7.248
 3701POPC   C1B47539  15.326  36.626   6.199
 3701POPC   C2B47540  15.446  36.844   6.622
 3701POPC   C3B47541  15.416  36.640   7.059
 3701POPC   C4B47542  15.449  36.546   7.522
 3702POPC   NC347543   8.084  24.001   5.508
 3702POPC   PO447544   8.043  23.358   5.565
 3702POPC   GL147545   8.032  23.664   5.886
 3702POPC   GL247546   8.398  23.776   5.843
 3702POPC   C1A47547   8.102  23.935   6.234
 3702POPC   D2A47548   8.419  24.036   6.538
 3702POPC   C3A47549   8.393  23.820   6.910
 3702POPC   C4A47550   8.066  23.691   7.193
 3702POPC   C1B47551   8.625  23.675   6.211
 3702POPC   C2B47552   8.596  23.477   6.598
 3702POPC   C3B47553   8.493  23.334   6.995
 3702POPC   C4B47554   8.614  23.556   7.305
 3703POPC   NC347555   1.073  29.273   5.486
 3703POPC   PO447556   1.672  29.100   5.289
 3703POPC   GL147557   1.487  29.107   5.725
 3703POPC   GL247558   1.298  28.796   5.678
 3703POPC   C1A47559   1.356  29.337   6.126
 3703POPC   D2A47560   1.336  29.571   6.538
 3703POPC   C3A47561   1.377  29.338   6.913
 3703POPC   C4A47562   1.100  29.297   7.249
 3703POPC   C1B47563   1.218  28.829   6.116
 3703POPC   C2B47564   1.291  29.000   6.521
 3703POPC   C3B47565   1.047  28.926   6.888
 3703POPC   C4B47566   1.078  28.744   7.292
 3704POPC   NC347567  30.762  16.604   5.159
 3704POPC   PO447568  30.796  16.022   5.482
 3704POPC   GL147569  30.732  15.931   5.880
 3704POPC   GL247570  30.987  15.697   5.890
 3704POPC   C1A47571  30.711  15.784   6.312
 3704POPC   D2A47572  30.483  15.710   6.693
 3704POPC   C3A47573  30.658  15.964   6.984
 3704POPC   C4A47574  30.745  16.096   7.418
 3704POPC   C1B47575  31.206  15.664   6.287
 3704POPC   C2B47576  31.097  15.820   6.720
 3704POPC   C3B47577  31.078  15.767   7.151
 3704POPC   C4B47578  31.105  15.766   7.586
 3705POPC   NC347579  24.318  30.250   4.838
 3705POPC   PO447580  24.451  30.074   5.472
 3705POPC   GL147581  24.536  29.860   5.865
 3705POPC   GL247582  24.385  30.063   6.034
 3705POPC   C1A47583  24.795  29.782   6.217
 3705POPC   D2A47584  24.473  29.869   6.525
 3705POPC   C3A47585  24.467  29.708   6.919
 3705POPC   C4A47586  24.819  29.753   7.195
 3705POPC   C1B47587  24.688  30.285   6.250
 3705POPC   C2B47588  24.867  30.171   6.592
 3705POPC   C3B47589  24.594  30.199   6.920
 3705POPC   C4B47590  24.662  30.536   7.154
 3706POPC   NC347591   7.775  24.570   5.347
 3706POPC   PO447592   8.394  24.339   5.448
 3706POPC   GL147593   8.313  24.300   5.886
 3706POPC   GL247594   7.982  24.398   5.815
 3706POPC   C1A47595   8.192  24.438   6.311
 3706POPC   D2A47596   8.297  24.490   6.750
 3706POPC   C3A47597   8.129  24.209   7.082
 3706POPC   C4A47598   8.427  24.015   7.392
 3706POPC   C1B47599   7.925  24.790   6.047
 3706POPC   C2B47600   7.854  24.811   6.501
 3706POPC   C3B47601   7.867  24.649   6.926
 3706POPC   C4B47602   8.040  24.637   7.329
 3707POPC   NC347603  37.193  14.315   5.517
 3707POPC   PO447604  37.780  14.464   5.461
 3707POPC   GL147605  37.545  14.542   5.829
 3707POPC   GL247606  37.270  14.793   5.899
 3707POPC   C1A47607  37.675  14.527   6.229
 3707POPC   D2A47608  37.795  14.757   6.568
 3707POPC   C3A47609  37.897  14.458   6.858
 3707POPC   C4A47610  37.637  14.363   7.222
 3707POPC   C1B47611  37.183  14.453   6.229
 3707POPC   C2B47612  37.255  14.375   6.704
 3707POPC   C3B47613  37.184  14.139   7.130
 3707POPC   C4B47614  37.426  14.042   7.551
 3708POPC   NC347615  18.102  21.093   5.435
 3708POPC   PO447616  18.495  21.635   5.521
 3708POPC   GL147617  18.613  21.321   5.849
 3708POPC   GL247618  18.489  20.986   5.815
 3708POPC   C1A47619  18.540  21.270   6.317
 3708POPC   D2A47620  18.242  21.443   6.650
 3708POPC   C3A47621  18.376  21.516   7.067
 3708POPC   C4A47622  18.431  21.771   7.416
 3708POPC   C1B47623  18.161  20.961   6.108
 3708POPC   C2B47624  18.094  20.971   6.528
 3708POPC   C3B47625  18.187  21.030   6.953
 3708POPC   C4B47626  18.058  21.207   7.325
 3709POPC   NC347627  32.445  37.635   5.411
 3709POPC   PO447628  33.137  37.603   5.395
 3709POPC   GL147629  33.346  37.716   5.786
 3709POPC   GL247630  33.413  37.439   5.905
 3709POPC   C1A47631  33.313  37.800   6.253
 3709POPC   D2A47632  33.521  37.803   6.671
 3709POPC   C3A47633  33.243  37.762   7.003
 3709POPC   C4A47634  32.852  37.852   7.176
 3709POPC   C1B47635  33.012  37.354   6.102
 3709POPC   C2B47636  32.989  37.160   6.495
 3709POPC   C3B47637  33.197  37.257   6.874
 3709POPC   C4B47638  33.003  37.383   7.251
 3710POPC   NC347639   6.890   4.276   5.390
 3710POPC   PO447640   6.238   4.301   5.161
 3710POPC   GL147641   6.439   4.283   5.660
 3710POPC   GL247642   6.736   4.098   5.849
 3710POPC   C1A47643   6.483   4.443   6.108
 3710POPC   D2A47644   6.644   4.229   6.495
 3710POPC   C3A47645   6.537   4.435   6.890
 3710POPC   C4A47646   6.248   4.405   7.238
 3710POPC   C1B47647   7.046   4.115   6.190
 3710POPC   C2B47648   7.134   4.081   6.637
 3710POPC   C3B47649   7.021   4.133   7.061
 3710POPC   C4B47650   6.654   4.086   7.274
 3711POPC   NC347651  37.336  20.825   5.366
 3711POPC   PO447652  37.835  20.446   5.542
 3711POPC   GL147653  37.663  20.744   5.772
 3711POPC   GL247654  37.394  20.517   5.830
 3711POPC   C1A47655  37.800  20.916   6.135
 3711POPC   D2A47656  37.994  20.748   6.510
 3711POPC   C3A47657  37.713  20.741   6.787
 3711POPC   C4A47658  37.624  21.048   7.060
 3711POPC   C1B47659  37.612  20.456   6.222
 3711POPC   C2B47660  37.676  20.237   6.572
 3711POPC   C3B47661  37.730  20.262   6.987
 3711POPC   C4B47662  37.498  20.428   7.316
 3712POPC   NC347663  35.269  10.753   5.381
 3712POPC   PO447664  35.730  10.194   5.526
 3712POPC   GL147665  35.423  10.423   5.795
 3712POPC   GL247666  35.501  10.768   5.827
 3712POPC   C1A47667  35.212  10.521   6.206
 3712POPC   D2A47668  35.093  10.697   6.624
 3712POPC   C3A47669  35.207  10.403   6.953
 3712POPC   C4A47670  35.452  10.395   7.314
 3712POPC   C1B47671  35.689  10.712   6.232
 3712POPC   C2B47672  35.600  10.526   6.618
 3712POPC   C3B47673  35.633  10.736   6.989
 3712POPC   C4B47674  35.862  10.680   7.383
 3713POPC   NC347675  44.336   9.757   5.426
 3713POPC   PO447676  44.802   9.297   5.305
 3713POPC   GL147677  44.778   9.521   5.681
 3713POPC   GL247678  44.475   9.438   5.839
 3713POPC   C1A47679  44.848   9.823   6.027
 3713POPC   D2A47680  44.707   9.848   6.466
 3713POPC   C3A47681  44.872   9.890   6.893
 3713POPC   C4A47682  44.696  10.154   7.217
 3713POPC   C1B47683  44.767   9.355   6.238
 3713POPC   C2B47684  44.849   9.388   6.706
 3713POPC   C3B47685  44.588   9.493   7.090
 3713POPC   C4B47686  44.370   9.351   7.481
 3714POPC   NC347687  11.764  11.607   5.571
 3714POPC   PO447688  12.301  11.850   5.131
 3714POPC   GL147689  12.246  11.905   5.645
 3714POPC   GL247690  12.224  12.277   5.797
 3714POPC   C1A47691  12.158  11.875   6.112
 3714POPC   D2A47692  12.299  12.071   6.536
 3714POPC   C3A47693  12.160  11.917   6.940
 3714POPC   C4A47694  12.090  11.817   7.360
 3714POPC   C1B47695  12.026  12.375   6.213
 3714POPC   C2B47696  11.837  12.350   6.639
 3714POPC   C3B47697  11.785  12.239   7.074
 3714POPC   C4B47698  12.072  12.352   7.403
 3715POPC   NC347699   5.359  25.695   5.487
 3715POPC   PO447700   4.855  25.306   5.414
 3715POPC   GL147701   5.136  25.296   5.803
 3715POPC   GL247702   5.360  25.541   5.957
 3715POPC   C1A47703   5.198  25.139   6.208
 3715POPC   D2A47704   5.060  24.915   6.530
 3715POPC   C3A47705   4.897  25.217   6.807
 3715POPC   C4A47706   4.974  25.196   7.241
 3715POPC   C1B47707   5.603  25.440   6.263
 3715POPC   C2B47708   5.563  25.159   6.578
 3715POPC   C3B47709   5.373  25.078   6.920
 3715POPC   C4B47710   5.462  25.129   7.315
 3716POPC   NC347711  10.790  13.576   5.489
 3716POPC   PO447712  10.230  13.949   5.467
 3716POPC   GL147713  10.254  13.603   5.810
 3716POPC   GL247714  10.556  13.618   5.941
 3716POPC   C1A47715  10.276  13.328   6.231
 3716POPC   D2A47716  10.541  13.294   6.638
 3716POPC   C3A47717  10.377  13.447   7.035
 3716POPC   C4A47718  10.302  13.780   7.354
 3716POPC   C1B47719  10.830  13.560   6.298
 3716POPC   C2B47720  10.807  13.786   6.680
 3716POPC   C3B47721  10.882  13.636   7.059
 3716POPC   C4B47722  11.014  13.243   7.073
 3717POPC   NC347723  27.380  19.182   5.237
 3717POPC   PO447724  27.983  18.966   5.257
 3717POPC   GL147725  27.670  19.046   5.623
 3717POPC   GL247726  27.570  18.773   5.826
 3717POPC   C1A47727  27.557  19.214   6.058
 3717POPC   D2A47728  27.451  18.975   6.422
 3717POPC   C3A47729  27.436  19.164   6.816
 3717POPC   C4A47730  27.236  19.019   7.136
 3717POPC   C1B47731  27.884  18.818   6.161
 3717POPC   C2B47732  27.882  18.712   6.600
 3717POPC   C3B47733  27.670  18.750   6.982
 3717POPC   C4B47734  27.875  18.728   7.381
 3718POPC   NC347735  19.724  20.946   5.521
 3718POPC   PO447736  20.017  21.439   5.118
 3718POPC   GL147737  19.960  21.380   5.658
 3718POPC   GL247738  19.781  21.588   5.906
 3718POPC   C1A47739  19.878  21.174   6.145
 3718POPC   D2A47740  19.819  21.339   6.602
 3718POPC   C3A47741  19.794  21.104   6.982
 3718POPC   C4A47742  19.831  21.015   7.406
 3718POPC   C1B47743  20.085  21.644   6.279
 3718POPC   C2B47744  19.937  21.832   6.692
 3718POPC   C3B47745  19.767  21.611   7.049
 3718POPC   C4B47746  20.105  21.455   7.273
 3719POPC   NC347747  30.168  33.495   5.580
 3719POPC   PO447748  29.710  34.002   5.504
 3719POPC   GL147749  29.925  33.855   5.882
 3719POPC   GL247750  30.289  33.927   5.865
 3719POPC   C1A47751  29.791  33.813   6.314
 3719POPC   D2A47752  29.446  33.688   6.592
 3719POPC   C3A47753  29.597  33.536   6.984
 3719POPC   C4A47754  29.962  33.798   7.098
 3719POPC   C1B47755  30.307  33.665   6.241
 3719POPC   C2B47756  30.136  33.529   6.637
 3719POPC   C3B47757  30.408  33.589   6.981
 3719POPC   C4B47758  30.369  33.534   7.441
 3720POPC   NC347759  20.931  29.447   5.672
 3720POPC   PO447760  20.523  29.088   5.265
 3720POPC   GL147761  20.526  29.015   5.736
 3720POPC   GL247762  20.705  28.705   5.817
 3720POPC   C1A47763  20.574  29.130   6.203
 3720POPC   D2A47764  20.729  29.383   6.578
 3720POPC   C3A47765  20.663  29.227   7.007
 3720POPC   C4A47766  20.532  29.405   7.403
 3720POPC   C1B47767  20.847  28.667   6.230
 3720POPC   C2B47768  20.756  28.857   6.633
 3720POPC   C3B47769  20.853  28.746   7.064
 3720POPC   C4B47770  20.879  29.003   7.422
 3721POPC   NC347771  24.615  11.048   5.430
 3721POPC   PO447772  24.314  11.647   5.455
 3721POPC   GL147773  24.516  11.427   5.785
 3721POPC   GL247774  24.392  11.080   5.883
 3721POPC   C1A47775  24.696  11.371   6.190
 3721POPC   D2A47776  24.587  11.149   6.560
 3721POPC   C3A47777  24.567  11.299   6.997
 3721POPC   C4A47778  24.929  11.417   7.285
 3721POPC   C1B47779  24.174  11.323   6.169
 3721POPC   C2B47780  24.081  11.242   6.583
 3721POPC   C3B47781  24.070  11.519   6.917
 3721POPC   C4B47782  24.109  11.376   7.307
 3722POPC   NC347783  14.763  44.643   5.571
 3722POPC   PO447784  15.294  44.226   5.323
 3722POPC   GL147785  15.403  44.394   5.772
 3722POPC   GL247786  15.224  44.728   5.825
 3722POPC   C1A47787  15.333  44.477   6.238
 3722POPC   D2A47788  15.531  44.605   6.606
 3722POPC   C3A47789  15.421  44.498   7.001
 3722POPC   C4A47790  15.499  44.820   7.264
 3722POPC   C1B47791  15.094  44.940   6.254
 3722POPC   C2B47792  14.924   0.149   6.648
 3722POPC   C3B47793  15.046  44.890   7.010
 3722POPC   C4B47794  14.843  44.509   7.147
 3723POPC   NC347795  20.819  31.516   5.396
 3723POPC   PO447796  21.133  31.019   5.719
 3723POPC   GL147797  20.782  31.279   5.857
 3723POPC   GL247798  20.703  31.677   5.868
 3723POPC   C1A47799  20.578  31.320   6.226
 3723POPC   D2A47800  20.727  31.418   6.575
 3723POPC   C3A47801  20.658  31.192   6.898
 3723POPC   C4A47802  20.731  31.357   7.251
 3723POPC   C1B47803  20.280  31.687   6.047
 3723POPC   C2B47804  20.212  31.652   6.462
 3723POPC   C3B47805  20.392  31.678   6.864
 3723POPC   C4B47806  20.270  31.597   7.260
 3724POPC   NC347807  41.486  44.506   5.408
 3724POPC   PO447808  42.063  44.279   5.577
 3724POPC   GL147809  41.779  44.569   5.842
 3724POPC   GL247810  41.452  44.797   5.840
 3724POPC   C1A47811  41.741  44.777   6.251
 3724POPC   D2A47812  41.582  44.636   6.643
 3724POPC   C3A47813  41.821  44.756   6.979
 3724POPC   C4A47814  41.881  44.394   7.204
 3724POPC   C1B47815  41.235  44.629   6.237
 3724POPC   C2B47816  41.092  44.768   6.667
 3724POPC   C3B47817  41.240  44.644   7.066
 3724POPC   C4B47818  41.065  44.844   7.430
 3725POPC   NC347819  42.809  28.286   5.296
 3725POPC   PO447820  43.198  28.809   5.385
 3725POPC   GL147821  43.192  28.472   5.714
 3725POPC   GL247822  42.972  28.667   5.916
 3725POPC   C1A47823  43.096  28.171   6.108
 3725POPC   D2A47824  42.884  28.064   6.522
 3725POPC   C3A47825  43.098  28.075   6.968
 3725POPC   C4A47826  43.207  28.251   7.363
 3725POPC   C1B47827  43.340  28.613   6.224
 3725POPC   C2B47828  43.235  28.434   6.638
 3725POPC   C3B47829  43.010  28.593   7.046
 3725POPC   C4B47830  42.901  28.618   7.537
 3726POPC   NC347831  32.457  18.677   5.735
 3726POPC   PO447832  32.894  18.273   5.384
 3726POPC   GL147833  33.028  18.254   5.815
 3726POPC   GL247834  32.962  18.603   5.848
 3726POPC   C1A47835  33.325  18.181   6.188
 3726POPC   D2A47836  33.271  17.990   6.596
 3726POPC   C3A47837  33.052  18.255   6.891
 3726POPC   C4A47838  33.100  18.282   7.328
 3726POPC   C1B47839  32.871  18.475   6.294
 3726POPC   C2B47840  32.972  18.717   6.674
 3726POPC   C3B47841  32.809  18.856   7.085
 3726POPC   C4B47842  32.746  18.596   7.484
 3727POPC   NC347843  34.442  39.222   5.219
 3727POPC   PO447844  34.684  38.631   5.237
 3727POPC   GL147845  34.651  38.951   5.651
 3727POPC   GL247846  34.421  39.245   5.763
 3727POPC   C1A47847  34.785  39.117   6.095
 3727POPC   D2A47848  34.875  38.962   6.542
 3727POPC   C3A47849  34.691  39.149   6.940
 3727POPC   C4A47850  34.593  38.968   7.337
 3727POPC   C1B47851  34.442  39.461   6.197
 3727POPC   C2B47852  34.574  39.562   6.606
 3727POPC   C3B47853  34.342  39.560   6.983
 3727POPC   C4B47854  34.166  39.164   7.095
 3728POPC   NC347855  24.250   0.432   5.296
 3728POPC   PO447856  24.362   1.024   5.519
 3728POPC   GL147857  24.253   0.671   5.790
 3728POPC   GL247858  24.078   0.326   5.775
 3728POPC   C1A47859  24.517   0.468   6.097
 3728POPC   D2A47860  24.606   0.251   6.477
 3728POPC   C3A47861  24.809   0.433   6.829
 3728POPC   C4A47862  24.540   0.354   7.150
 3728POPC   C1B47863  24.237   0.015   6.105
 3728POPC   C2B47864  24.256  44.889   6.554
 3728POPC   C3B47865  24.109   0.029   6.974
 3728POPC   C4B47866  24.198   0.008   7.429
 3729POPC   NC347867   9.661  27.673   5.292
 3729POPC   PO447868  10.276  27.772   5.471
 3729POPC   GL147869   9.929  27.571   5.747
 3729POPC   GL247870   9.597  27.735   5.784
 3729POPC   C1A47871   9.767  27.372   6.135
 3729POPC   D2A47872   9.948  27.316   6.538
 3729POPC   C3A47873   9.919  27.502   6.928
 3729POPC   C4A47874   9.574  27.463   7.234
 3729POPC   C1B47875   9.703  27.869   6.176
 3729POPC   C2B47876   9.718  27.972   6.582
 3729POPC   C3B47877   9.635  27.915   7.001
 3729POPC   C4B47878   9.870  27.861   7.367
 3730POPC   NC347879  34.798  38.309   4.928
 3730POPC   PO447880  34.926  38.086   5.513
 3730POPC   GL147881  34.716  38.443   5.776
 3730POPC   GL247882  34.374  38.326   5.877
 3730POPC   C1A47883  34.624  38.649   6.167
 3730POPC   D2A47884  34.570  38.463   6.538
 3730POPC   C3A47885  34.732  38.602   6.914
 3730POPC   C4A47886  34.603  38.427   7.313
 3730POPC   C1B47887  34.278  38.057   6.152
 3730POPC   C2B47888  34.471  37.959   6.529
 3730POPC   C3B47889  34.342  38.184   6.907
 3730POPC   C4B47890  34.363  37.967   7.292
 3731POPC   NC347891  26.555  40.683   5.548
 3731POPC   PO447892  26.853  40.110   5.464
 3731POPC   GL147893  26.647  40.176   5.824
 3731POPC   GL247894  26.384  39.903   5.809
 3731POPC   C1A47895  26.716  39.992   6.208
 3731POPC   D2A47896  26.990  39.891   6.525
 3731POPC   C3A47897  26.991  40.085   6.925
 3731POPC   C4A47898  27.027  39.942   7.364
 3731POPC   C1B47899  26.246  39.820   6.255
 3731POPC   C2B47900  26.462  39.813   6.676
 3731POPC   C3B47901  26.594  39.833   7.127
 3731POPC   C4B47902  26.582  39.994   7.580
 3732POPC   NC347903  12.677   9.215   5.485
 3732POPC   PO447904  12.562   9.830   5.330
 3732POPC   GL147905  12.708   9.826   5.776
 3732POPC   GL247906  12.859   9.498   5.873
 3732POPC   C1A47907  12.858   9.897   6.223
 3732POPC   D2A47908  12.918   9.770   6.661
 3732POPC   C3A47909  12.942  10.036   7.052
 3732POPC   C4A47910  12.882   9.852   7.458
 3732POPC   C1B47911  12.696   9.391   6.285
 3732POPC   C2B47912  12.582   9.379   6.727
 3732POPC   C3B47913  12.724   9.416   7.168
 3732POPC   C4B47914  12.535   9.487   7.581
 3733POPC   NC347915  17.980  37.726   5.231
 3733POPC   PO447916  17.296  37.581   5.348
 3733POPC   GL147917  17.390  37.722   5.755
 3733POPC   GL247918  17.712  37.889   5.690
 3733POPC   C1A47919  17.197  37.801   6.166
 3733POPC   D2A47920  16.966  37.998   6.499
 3733POPC   C3A47921  17.221  37.921   6.873
 3733POPC   C4A47922  17.410  37.797   7.241
 3733POPC   C1B47923  17.735  37.863   6.145
 3733POPC   C2B47924  17.596  37.726   6.562
 3733POPC   C3B47925  17.813  37.696   6.974
 3733POPC   C4B47926  17.895  37.943   7.371
 3734POPC   NC347927  26.690   7.711   5.386
 3734POPC   PO447928  27.060   7.252   5.405
 3734POPC   GL147929  26.907   7.453   5.764
 3734POPC   GL247930  26.540   7.374   5.744
 3734POPC   C1A47931  26.818   7.440   6.194
 3734POPC   D2A47932  27.014   7.421   6.586
 3734POPC   C3A47933  26.803   7.672   6.868
 3734POPC   C4A47934  26.669   7.653   7.253
 3734POPC   C1B47935  26.672   6.982   5.989
 3734POPC   C2B47936  26.762   6.963   6.446
 3734POPC   C3B47937  26.686   7.148   6.870
 3734POPC   C4B47938  26.972   7.241   7.157
 3735POPC   NC347939  23.787  35.633   5.423
 3735POPC   PO447940  24.108  35.062   5.285
 3735POPC   GL147941  23.823  35.154   5.718
 3735POPC   GL247942  23.696  35.509   5.879
 3735POPC   C1A47943  23.641  35.092   6.145
 3735POPC   D2A47944  23.513  35.242   6.561
 3735POPC   C3A47945  23.465  34.987   6.935
 3735POPC   C4A47946  23.689  35.285   7.183
 3735POPC   C1B47947  23.395  35.589   6.191
 3735POPC   C2B47948  23.423  35.823   6.561
 3735POPC   C3B47949  23.651  35.745   6.922
 3735POPC   C4B47950  23.448  35.734   7.299
 3736POPC   NC347951  34.796  33.003   5.312
 3736POPC   PO447952  34.210  32.748   5.613
 3736POPC   GL147953  34.567  32.876   5.788
 3736POPC   GL247954  34.463  33.171   5.931
 3736POPC   C1A47955  34.742  32.810   6.194
 3736POPC   D2A47956  34.665  32.699   6.616
 3736POPC   C3A47957  34.513  32.910   6.980
 3736POPC   C4A47958  34.790  32.795   7.283
 3736POPC   C1B47959  34.807  33.298   6.170
 3736POPC   C2B47960  34.686  33.208   6.584
 3736POPC   C3B47961  34.937  33.193   6.947
 3736POPC   C4B47962  34.785  33.299   7.354
 3737POPC   NC347963   5.999  44.995   5.634
 3737POPC   PO447964   5.766   0.506   5.306
 3737POPC   GL147965   5.874   0.633   5.749
 3737POPC   GL247966   6.191   0.479   5.825
 3737POPC   C1A47967   5.837   0.676   6.224
 3737POPC   D2A47968   5.592   0.620   6.635
 3737POPC   C3A47969   5.766   0.411   7.028
 3737POPC   C4A47970   5.679   0.601   7.423
 3737POPC   C1B47971   6.257   0.402   6.280
 3737POPC   C2B47972   6.141   0.338   6.689
 3737POPC   C3B47973   6.327   0.490   7.074
 3737POPC   C4B47974   6.167   0.508   7.497
 3738POPC   NC347975   1.372   5.225   5.108
 3738POPC   PO447976   2.005   5.158   5.388
 3738POPC   GL147977   2.038   5.065   5.779
 3738POPC   GL247978   1.730   4.849   5.768
 3738POPC   C1A47979   2.216   5.242   6.163
 3738POPC   D2A47980   1.963   5.343   6.524
 3738POPC   C3A47981   2.135   5.252   6.888
 3738POPC   C4A47982   1.971   5.222   7.268
 3738POPC   C1B47983   1.741   5.038   6.174
 3738POPC   C2B47984   1.760   4.799   6.558
 3738POPC   C3B47985   1.904   4.785   6.987
 3738POPC   C4B47986   1.707   4.799   7.378
 3739POPC   NC347987   6.371  43.329   5.438
 3739POPC   PO447988   6.727  42.790   5.516
 3739POPC   GL147989   6.499  42.930   5.836
 3739POPC   GL247990   6.719  43.219   5.851
 3739POPC   C1A47991   6.640  42.850   6.258
 3739POPC   D2A47992   6.734  43.137   6.553
 3739POPC   C3A47993   6.909  43.081   6.940
 3739POPC   C4A47994   6.847  43.038   7.373
 3739POPC   C1B47995   6.435  43.398   6.119
 3739POPC   C2B47996   6.334  43.452   6.539
 3739POPC   C3B47997   6.423  43.326   6.945
 3739POPC   C4B47998   6.444  43.625   7.267
 3740POPC   NC347999  28.227   8.983   5.428
 3740POPC   PO448000  28.552   8.499   5.367
 3740POPC   GL148001  28.526   8.729   5.760
 3740POPC   GL248002  28.543   9.101   5.834
 3740POPC   C1A48003  28.290   8.732   6.125
 3740POPC   D2A48004  28.227   8.567   6.543
 3740POPC   C3A48005  28.252   8.824   6.918
 3740POPC   C4A48006  28.484   8.802   7.319
 3740POPC   C1B48007  28.689   9.032   6.284
 3740POPC   C2B48008  28.595   9.179   6.727
 3740POPC   C3B48009  28.688   9.243   7.196
 3740POPC   C4B48010  28.645   9.165   7.681
 3741POPC   NC348011  43.494   9.406   5.724
 3741POPC   PO448012  43.300   8.836   5.409
 3741POPC   GL148013  43.128   9.037   5.792
 3741POPC   GL248014  43.009   9.357   5.973
 3741POPC   C1A48015  43.006   8.882   6.193
 3741POPC   D2A48016  42.846   9.096   6.544
 3741POPC   C3A48017  42.921   8.859   6.907
 3741POPC   C4A48018  42.898   9.026   7.304
 3741POPC   C1B48019  43.332   9.232   6.339
 3741POPC   C2B48020  43.448   9.074   6.770
 3741POPC   C3B48021  43.342   9.230   7.188
 3741POPC   C4B48022  43.336   9.232   7.643
 3742POPC   NC348023   9.360   1.181   5.002
 3742POPC   PO448024   8.755   1.162   5.403
 3742POPC   GL148025   8.930   1.180   5.789
 3742POPC   GL248026   9.264   1.101   5.661
 3742POPC   C1A48027   8.851   1.307   6.234
 3742POPC   D2A48028   8.943   1.386   6.676
 3742POPC   C3A48029   8.881   1.331   7.113
 3742POPC   C4A48030   8.580   1.500   7.346
 3742POPC   C1B48031   9.296   1.051   6.128
 3742POPC   C2B48032   9.106   0.928   6.503
 3742POPC   C3B48033   9.228   1.008   6.900
 3742POPC   C4B48034   9.478   0.897   7.206
 3743POPC   NC348035  26.003  25.450   5.407
 3743POPC   PO448036  25.881  24.839   5.342
 3743POPC   GL148037  25.864  25.124   5.761
 3743POPC   GL248038  26.166  25.330   5.871
 3743POPC   C1A48039  25.797  25.289   6.208
 3743POPC   D2A48040  25.791  25.042   6.591
 3743POPC   C3A48041  25.691  25.257   6.947
 3743POPC   C4A48042  25.841  25.377   7.309
 3743POPC   C1B48043  26.337  25.331   6.273
 3743POPC   C2B48044  26.112  25.461   6.620
 3743POPC   C3B48045  26.225  25.336   7.002
 3743POPC   C4B48046  26.579  25.161   7.187
 3744POPC   NC348047  33.659   8.205   5.103
 3744POPC   PO448048  34.278   8.468   5.163
 3744POPC   GL148049  34.257   8.408   5.668
 3744POPC   GL248050  33.940   8.218   5.802
 3744POPC   C1A48051  34.308   8.378   6.125
 3744POPC   D2A48052  34.100   8.153   6.490
 3744POPC   C3A48053  34.138   8.291   6.931
 3744POPC   C4A48054  34.077   7.938   7.219
 3744POPC   C1B48055  33.773   8.417   6.195
 3744POPC   C2B48056  33.780   8.535   6.643
 3744POPC   C3B48057  33.613   8.242   6.961
 3744POPC   C4B48058  33.609   8.068   7.388
 3745POPC   NC348059  12.181  30.962   5.416
 3745POPC   PO448060  11.768  30.467   5.500
 3745POPC   GL148061  11.897  30.741   5.806
 3745POPC   GL248062  12.199  30.665   5.858
 3745POPC   C1A48063  11.895  30.534   6.239
 3745POPC   D2A48064  12.094  30.436   6.626
 3745POPC   C3A48065  11.914  30.440   7.059
 3745POPC   C4A48066  12.106  30.515   7.468
 3745POPC   C1B48067  12.067  31.002   6.197
 3745POPC   C2B48068  12.271  31.036   6.554
 3745POPC   C3B48069  12.218  30.832   6.926
 3745POPC   C4B48070  12.171  31.007   7.286
 3746POPC   NC348071  18.139  36.952   5.436
 3746POPC   PO448072  18.736  36.660   5.427
 3746POPC   GL148073  18.415  36.723   5.803
 3746POPC   GL248074  18.125  36.985   5.928
 3746POPC   C1A48075  18.480  36.797   6.241
 3746POPC   D2A48076  18.350  37.136   6.507
 3746POPC   C3A48077  18.548  37.007   6.889
 3746POPC   C4A48078  18.561  36.609   7.106
 3746POPC   C1B48079  17.975  36.690   6.219
 3746POPC   C2B48080  17.988  36.778   6.671
 3746POPC   C3B48081  18.048  36.606   7.075
 3746POPC   C4B48082  18.008  36.629   7.530
 3747POPC   NC348083  28.493  36.911   5.401
 3747POPC   PO448084  27.854  36.893   5.359
 3747POPC   GL148085  28.104  36.963   5.778
 3747POPC   GL248086  28.415  37.219   5.801
 3747POPC   C1A48087  28.200  37.153   6.225
 3747POPC   D2A48088  28.137  37.263   6.640
 3747POPC   C3A48089  28.208  36.891   6.828
 3747POPC   C4A48090  28.360  36.795   7.207
 3747POPC   C1B48091  28.747  37.291   6.149
 3747POPC   C2B48092  28.634  37.108   6.537
 3747POPC   C3B48093  28.564  37.241   6.954
 3747POPC   C4B48094  28.216  37.289   7.227
 3748POPC   NC348095   8.837  24.256   5.531
 3748POPC   PO448096   9.048  24.923   5.325
 3748POPC   GL148097   9.121  24.656   5.709
 3748POPC   GL248098   8.787  24.555   5.895
 3748POPC   C1A48099   9.253  24.408   6.087
 3748POPC   D2A48100   9.440  24.509   6.502
 3748POPC   C3A48101   9.294  24.675   6.887
 3748POPC   C4A48102   9.036  24.493   7.201
 3748POPC   C1B48103   8.741  24.339   6.253
 3748POPC   C2B48104   8.911  24.398   6.638
 3748POPC   C3B48105   8.675  24.238   6.960
 3748POPC   C4B48106   8.527  24.480   7.268
 3749POPC   NC348107  38.650  29.044   5.415
 3749POPC   PO448108  39.257  28.959   5.212
 3749POPC   GL148109  39.154  29.264   5.602
 3749POPC   GL248110  39.035  29.023   5.784
 3749POPC   C1A48111  39.190  29.408   6.086
 3749POPC   D2A48112  39.034  29.464   6.546
 3749POPC   C3A48113  39.178  29.261   6.948
 3749POPC   C4A48114  39.570  29.115   7.097
 3749POPC   C1B48115  39.025  28.958   6.243
 3749POPC   C2B48116  39.333  28.967   6.576
 3749POPC   C3B48117  39.283  28.733   6.972
 3749POPC   C4B48118  38.866  28.803   7.076
 3750POPC   NC348119   9.378  41.801   5.530
 3750POPC   PO448120   8.804  41.694   5.305
 3750POPC   GL148121   8.923  41.669   5.738
 3750POPC   GL248122   8.684  41.924   5.829
 3750POPC   C1A48123   9.159  41.566   6.149
 3750POPC   D2A48124   9.300  41.799   6.526
 3750POPC   C3A48125   9.183  41.618   6.903
 3750POPC   C4A48126   9.251  41.496   7.313
 3750POPC   C1B48127   8.602  41.559   6.114
 3750POPC   C2B48128   8.752  41.482   6.501
 3750POPC   C3B48129   8.659  41.438   6.914
 3750POPC   C4B48130   8.774  41.660   7.245
 3751POPC   NC348131  13.592  36.785   5.491
 3751POPC   PO448132  13.959  37.378   5.407
 3751POPC   GL148133  13.825  37.169   5.798
 3751POPC   GL248134  13.928  36.808   5.872
 3751POPC   C1A48135  13.983  37.152   6.242
 3751POPC   D2A48136  13.872  36.898   6.627
 3751POPC   C3A48137  13.828  37.172   6.978
 3751POPC   C4A48138  13.537  37.204   7.293
 3751POPC   C1B48139  13.540  36.911   6.165
 3751POPC   C2B48140  13.403  36.685   6.560
 3751POPC   C3B48141  13.521  36.739   7.011
 3751POPC   C4B48142  13.856  36.788   7.334
 3752POPC   NC348143  31.022  12.153   5.401
 3752POPC   PO448144  31.687  11.920   5.312
 3752POPC   GL148145  31.431  11.942   5.688
 3752POPC   GL248146  31.528  12.276   5.725
 3752POPC   C1A48147  31.548  11.826   6.137
 3752POPC   D2A48148  31.714  11.889   6.573
 3752POPC   C3A48149  31.451  11.717   6.928
 3752POPC   C4A48150  31.406  11.883   7.373
 3752POPC   C1B48151  31.290  12.274   6.107
 3752POPC   C2B48152  31.416  12.312   6.533
 3752POPC   C3B48153  31.370  12.216   6.960
 3752POPC   C4B48154  31.112  12.431   7.251
 3753POPC   NC348155  18.432  38.620   5.200
 3753POPC   PO448156  18.073  38.133   5.412
 3753POPC   GL148157  18.221  38.439   5.713
 3753POPC   GL248158  17.905  38.359   5.891
 3753POPC   C1A48159  18.251  38.634   6.149
 3753POPC   D2A48160  18.366  38.396   6.526
 3753POPC   C3A48161  18.385  38.675   6.867
 3753POPC   C4A48162  18.551  38.664   7.266
 3753POPC   C1B48163  17.893  38.324   6.326
 3753POPC   C2B48164  17.911  38.623   6.652
 3753POPC   C3B48165  17.953  38.552   7.116
 3753POPC   C4B48166  18.216  38.320   7.417
 3754POPC   NC348167  40.237  23.856   5.292
 3754POPC   PO448168  39.747  23.476   5.503
 3754POPC   GL148169  39.964  23.752   5.751
 3754POPC   GL248170  40.321  23.709   5.790
 3754POPC   C1A48171  40.014  23.699   6.184
 3754POPC   D2A48172  39.861  23.797   6.546
 3754POPC   C3A48173  39.970  23.519   6.844
 3754POPC   C4A48174  39.980  23.618   7.258
 3754POPC   C1B48175  40.463  23.943   6.157
 3754POPC   C2B48176  40.307  24.060   6.543
 3754POPC   C3B48177  40.173  23.979   6.953
 3754POPC   C4B48178  40.399  23.900   7.301
 3755POPC   NC348179  19.701  35.810   5.249
 3755POPC   PO448180  19.768  35.116   5.410
 3755POPC   GL148181  19.806  35.299   5.795
 3755POPC   GL248182  19.847  35.660   5.748
 3755POPC   C1A48183  19.777  35.124   6.192
 3755POPC   D2A48184  19.605  34.953   6.563
 3755POPC   C3A48185  19.572  35.238   6.903
 3755POPC   C4A48186  19.757  35.282   7.293
 3755POPC   C1B48187  19.623  35.667   6.167
 3755POPC   C2B48188  19.786  35.537   6.541
 3755POPC   C3B48189  19.970  35.587   6.919
 3755POPC   C4B48190  20.286  35.716   7.167
 3756POPC   NC348191  31.446  14.963   5.330
 3756POPC   PO448192  31.655  15.516   5.570
 3756POPC   GL148193  31.512  15.129   5.821
 3756POPC   GL248194  31.202  14.898   5.780
 3756POPC   C1A48195  31.462  15.157   6.256
 3756POPC   D2A48196  31.523  15.428   6.603
 3756POPC   C3A48197  31.291  15.354   6.947
 3756POPC   C4A48198  31.455  15.491   7.321
 3756POPC   C1B48199  31.126  14.759   6.195
 3756POPC   C2B48200  31.134  14.963   6.593
 3756POPC   C3B48201  31.144  14.877   7.025
 3756POPC   C4B48202  31.398  14.997   7.371
 3757POPC   NC348203  11.919  26.564   5.476
 3757POPC   PO448204  12.164  27.211   5.336
 3757POPC   GL148205  12.190  26.911   5.736
 3757POPC   GL248206  11.831  26.868   5.886
 3757POPC   C1A48207  12.256  26.700   6.160
 3757POPC   D2A48208  12.032  26.620   6.555
 3757POPC   C3A48209  12.244  26.704   6.937
 3757POPC   C4A48210  12.462  26.991   7.182
 3757POPC   C1B48211  11.698  27.040   6.291
 3757POPC   C2B48212  11.627  26.914   6.714
 3757POPC   C3B48213  11.692  26.840   7.139
 3757POPC   C4B48214  11.979  27.144   7.168
 3758POPC   NC348215  13.809  33.285   5.522
 3758POPC   PO448216  13.407  32.715   5.441
 3758POPC   GL148217  13.475  32.987   5.811
 3758POPC   GL248218  13.338  33.296   5.882
 3758POPC   C1A48219  13.732  32.905   6.206
 3758POPC   D2A48220  13.815  32.679   6.612
 3758POPC   C3A48221  13.555  32.862   6.943
 3758POPC   C4A48222  13.769  33.054   7.275
 3758POPC   C1B48223  13.247  33.076   6.264
 3758POPC   C2B48224  13.492  33.236   6.597
 3758POPC   C3B48225  13.423  33.357   7.025
 3758POPC   C4B48226  13.230  33.094   7.323
 3759POPC   NC348227  37.903  28.406   5.236
 3759POPC   PO448228  38.034  27.892   5.576
 3759POPC   GL148229  37.898  28.305   5.792
 3759POPC   GL248230  37.592  28.327   5.925
 3759POPC   C1A48231  37.936  28.463   6.235
 3759POPC   D2A48232  37.750  28.330   6.639
 3759POPC   C3A48233  38.036  28.299   6.993
 3759POPC   C4A48234  38.014  28.354   7.418
 3759POPC   C1B48235  37.557  28.019   6.262
 3759POPC   C2B48236  37.403  27.926   6.689
 3759POPC   C3B48237  37.553  28.086   7.080
 3759POPC   C4B48238  37.546  28.207   7.529
 3760POPC   NC348239  14.453  29.214   5.331
 3760POPC   PO448240  14.025  28.769   5.580
 3760POPC   GL148241  14.409  28.966   5.781
 3760POPC   GL248242  14.445  29.357   5.816
 3760POPC   C1A48243  14.578  28.997   6.192
 3760POPC   D2A48244  14.273  28.917   6.539
 3760POPC   C3A48245  14.303  29.199   6.882
 3760POPC   C4A48246  14.563  29.242   7.260
 3760POPC   C1B48247  14.199  29.359   6.197
 3760POPC   C2B48248  14.170  29.631   6.555
 3760POPC   C3B48249  13.965  29.606   6.932
 3760POPC   C4B48250  14.072  29.382   7.296
 3761POPC   NC348251  42.687   9.817   5.299
 3761POPC   PO448252  42.229   9.397   5.512
 3761POPC   GL148253  42.507   9.606   5.843
 3761POPC   GL248254  42.447   9.950   5.731
 3761POPC   C1A48255  42.504   9.581   6.311
 3761POPC   D2A48256  42.100   9.646   6.534
 3761POPC   C3A48257  42.137   9.479   6.943
 3761POPC   C4A48258  42.521   9.492   7.188
 3761POPC   C1B48259  42.285   9.995   6.128
 3761POPC   C2B48260  42.484  10.078   6.507
 3761POPC   C3B48261  42.473   9.891   6.873
 3761POPC   C4B48262  42.152   9.921   7.175
 3762POPC   NC348263  31.509  21.632   5.505
 3762POPC   PO448264  31.309  21.020   5.316
 3762POPC   GL148265  31.465  21.110   5.736
 3762POPC   GL248266  31.211  21.331   5.823
 3762POPC   C1A48267  31.688  21.294   6.132
 3762POPC   D2A48268  31.860  21.580   6.506
 3762POPC   C3A48269  31.667  21.535   6.944
 3762POPC   C4A48270  31.627  21.169   7.215
 3762POPC   C1B48271  31.220  21.498   6.241
 3762POPC   C2B48272  31.254  21.366   6.670
 3762POPC   C3B48273  31.136  21.504   7.073
 3762POPC   C4B48274  31.162  21.309   7.529
 3763POPC   NC348275   1.656  15.371   5.565
 3763POPC   PO448276   2.051  14.925   5.445
 3763POPC   GL148277   1.956  15.028   5.844
 3763POPC   GL248278   2.185  15.325   5.837
 3763POPC   C1A48279   1.717  14.915   6.216
 3763POPC   D2A48280   1.789  15.035   6.650
 3763POPC   C3A48281   1.652  15.359   6.924
 3763POPC   C4A48282   1.735  15.263   7.332
 3763POPC   C1B48283   2.106  15.290   6.293
 3763POPC   C2B48284   2.103  15.504   6.694
 3763POPC   C3B48285   2.190  15.336   7.086
 3763POPC   C4B48286   2.265  15.195   7.519
 3764POPC   NC348287  22.259  12.667   5.493
 3764POPC   PO448288  22.196  13.304   5.359
 3764POPC   GL148289  22.073  13.082   5.723
 3764POPC   GL248290  22.402  13.058   5.805
 3764POPC   C1A48291  22.088  12.834   6.148
 3764POPC   D2A48292  21.957  12.645   6.589
 3764POPC   C3A48293  22.145  12.766   7.031
 3764POPC   C4A48294  22.141  12.869   7.509
 3764POPC   C1B48295  22.477  13.177   6.197
 3764POPC   C2B48296  22.253  13.106   6.556
 3764POPC   C3B48297  22.422  13.194   6.907
 3764POPC   C4B48298  22.508  13.119   7.280
 3765POPC   NC348299  14.175  24.803   5.371
 3765POPC   PO448300  14.319  24.123   5.438
 3765POPC   GL148301  14.215  24.398   5.766
 3765POPC   GL248302  14.378  24.719   5.825
 3765POPC   C1A48303  14.413  24.336   6.167
 3765POPC   D2A48304  14.438  24.017   6.479
 3765POPC   C3A48305  14.585  24.193   6.843
 3765POPC   C4A48306  14.500  24.181   7.269
 3765POPC   C1B48307  14.592  24.821   6.212
 3765POPC   C2B48308  14.531  24.654   6.616
 3765POPC   C3B48309  14.549  24.664   7.063
 3765POPC   C4B48310  14.374  24.649   7.473
 3766POPC   NC348311  38.647  21.892   5.437
 3766POPC   PO448312  38.427  22.521   5.433
 3766POPC   GL148313  38.376  22.271   5.791
 3766POPC   GL248314  38.726  22.261   5.881
 3766POPC   C1A48315  38.352  22.381   6.240
 3766POPC   D2A48316  38.512  22.301   6.643
 3766POPC   C3A48317  38.308  22.414   7.006
 3766POPC   C4A48318  38.284  22.200   7.420
 3766POPC   C1B48319  38.575  21.929   6.174
 3766POPC   C2B48320  38.619  21.813   6.621
 3766POPC   C3B48321  38.534  21.946   7.041
 3766POPC   C4B48322  38.619  21.837   7.476
 3767POPC   NC348323   8.349  13.081   5.553
 3767POPC   PO448324   7.742  12.783   5.507
 3767POPC   GL148325   8.013  12.647   5.808
 3767POPC   GL248326   7.974  13.000   5.895
 3767POPC   C1A48327   8.365  12.738   6.100
 3767POPC   D2A48328   8.407  13.045   6.425
 3767POPC   C3A48329   8.414  12.854   6.832
 3767POPC   C4A48330   8.344  12.532   7.124
 3767POPC   C1B48331   7.912  12.880   6.293
 3767POPC   C2B48332   7.965  13.057   6.684
 3767POPC   C3B48333   7.991  13.015   7.136
 3767POPC   C4B48334   8.071  13.182   7.557
 3768POPC   NC348335  29.591  39.387   5.344
 3768POPC   PO448336  30.038  38.901   5.460
 3768POPC   GL148337  29.780  39.110   5.781
 3768POPC   GL248338  29.767  39.490   5.798
 3768POPC   C1A48339  29.841  39.159   6.232
 3768POPC   D2A48340  30.094  39.213   6.608
 3768POPC   C3A48341  29.812  39.131   6.909
 3768POPC   C4A48342  29.761  39.056   7.324
 3768POPC   C1B48343  29.775  39.694   6.187
 3768POPC   C2B48344  29.730  39.552   6.583
 3768POPC   C3B48345  29.802  39.679   6.986
 3768POPC   C4B48346  29.664  39.587   7.373
 3769POPC   NC348347  25.239  19.487   5.395
 3769POPC   PO448348  25.042  20.169   5.367
 3769POPC   GL148349  25.238  19.934   5.659
 3769POPC   GL248350  24.942  19.780   5.719
 3769POPC   C1A48351  25.326  19.780   6.073
 3769POPC   D2A48352  25.140  19.779   6.479
 3769POPC   C3A48353  25.365  19.823   6.837
 3769POPC   C4A48354  25.496  19.696   7.230
 3769POPC   C1B48355  24.787  19.885   6.111
 3769POPC   C2B48356  24.683  19.993   6.538
 3769POPC   C3B48357  24.829  19.854   6.950
 3769POPC   C4B48358  25.087  19.982   7.321
 3770POPC   NC348359   4.401  41.416   5.175
 3770POPC   PO448360   3.982  41.841   5.069
 3770POPC   GL148361   4.183  41.602   5.578
 3770POPC   GL248362   4.205  41.235   5.668
 3770POPC   C1A48363   4.116  41.615   6.077
 3770POPC   D2A48364   3.977  41.633   6.551
 3770POPC   C3A48365   4.136  41.867   6.950
 3770POPC   C4A48366   4.520  42.081   7.118
 3770POPC   C1B48367   4.179  41.078   6.147
 3770POPC   C2B48368   4.030  41.124   6.644
 3770POPC   C3B48369   4.162  41.370   6.988
 3770POPC   C4B48370   4.546  41.531   7.143
 3771POPC   NC348371  43.084  20.157   5.398
 3771POPC   PO448372  43.408  20.807   5.254
 3771POPC   GL148373  43.279  20.832   5.705
 3771POPC   GL248374  43.082  20.532   5.805
 3771POPC   C1A48375  43.221  20.894   6.160
 3771POPC   D2A48376  43.119  20.695   6.529
 3771POPC   C3A48377  43.178  20.812   6.955
 3771POPC   C4A48378  43.335  20.837   7.374
 3771POPC   C1B48379  42.801  20.466   6.162
 3771POPC   C2B48380  42.887  20.242   6.526
 3771POPC   C3B48381  42.983  20.201   6.941
 3771POPC   C4B48382  43.205  20.351   7.281
 3772POPC   NC348383  28.885  34.992   5.362
 3772POPC   PO448384  29.289  34.389   5.243
 3772POPC   GL148385  29.193  34.591   5.647
 3772POPC   GL248386  29.098  34.925   5.810
 3772POPC   C1A48387  29.292  34.545   6.085
 3772POPC   D2A48388  29.043  34.404   6.431
 3772POPC   C3A48389  29.189  34.466   6.856
 3772POPC   C4A48390  29.095  34.207   7.232
 3772POPC   C1B48391  28.869  34.837   6.187
 3772POPC   C2B48392  28.929  34.923   6.627
 3772POPC   C3B48393  28.871  34.847   7.068
 3772POPC   C4B48394  29.235  34.724   7.290
 3773POPC   NC348395   0.383  43.863   5.274
 3773POPC   PO448396   0.762  43.423   5.373
 3773POPC   GL148397   0.469  43.597   5.716
 3773POPC   GL248398   0.297  43.929   5.782
 3773POPC   C1A48399   0.509  43.631   6.191
 3773POPC   D2A48400   0.530  43.891   6.598
 3773POPC   C3A48401   0.502  43.670   7.006
 3773POPC   C4A48402   0.607  43.563   7.430
 3773POPC   C1B48403   0.193  44.100   6.207
 3773POPC   C2B48404   0.048  44.082   6.636
 3773POPC   C3B48405   0.287  44.133   7.002
 3773POPC   C4B48406   0.724  44.105   7.181
 3774POPC   NC348407  32.562  40.742   5.441
 3774POPC   PO448408  31.914  40.691   5.406
 3774POPC   GL148409  32.164  40.679   5.800
 3774POPC   GL248410  32.294  40.973   5.820
 3774POPC   C1A48411  32.248  40.753   6.261
 3774POPC   D2A48412  31.972  40.628   6.607
 3774POPC   C3A48413  32.188  40.634   6.992
 3774POPC   C4A48414  32.064  40.718   7.405
 3774POPC   C1B48415  32.617  41.094   6.101
 3774POPC   C2B48416  32.730  40.883   6.478
 3774POPC   C3B48417  32.652  40.899   6.912
 3774POPC   C4B48418  32.571  40.756   7.322
 3775POPC   NC348419  15.589  21.682   5.657
 3775POPC   PO448420  15.962  21.334   5.191
 3775POPC   GL148421  16.078  21.280   5.716
 3775POPC   GL248422  15.820  21.388   5.973
 3775POPC   C1A48423  16.131  21.107   6.213
 3775POPC   D2A48424  15.818  21.389   6.515
 3775POPC   C3A48425  15.698  21.291   6.998
 3775POPC   C4A48426  15.640  21.418   7.476
 3775POPC   C1B48427  16.195  21.610   6.154
 3775POPC   C2B48428  16.242  21.723   6.560
 3775POPC   C3B48429  16.010  21.708   6.923
 3775POPC   C4B48430  16.100  21.444   7.277
 3776POPC   NC348431  31.685   4.561   5.415
 3776POPC   PO448432  31.064   4.430   5.277
 3776POPC   GL148433  31.389   4.346   5.749
 3776POPC   GL248434  31.758   4.517   5.901
 3776POPC   C1A48435  31.547   4.190   6.186
 3776POPC   D2A48436  31.335   4.119   6.574
 3776POPC   C3A48437  31.491   4.174   6.968
 3776POPC   C4A48438  31.590   4.101   7.417
 3776POPC   C1B48439  32.014   4.412   6.291
 3776POPC   C2B48440  32.016   4.429   6.750
 3776POPC   C3B48441  31.784   4.560   7.099
 3776POPC   C4B48442  31.352   4.542   7.321
 3777POPC   NC348443  14.869   1.394   5.531
 3777POPC   PO448444  14.244   1.450   5.310
 3777POPC   GL148445  14.207   1.256   5.761
 3777POPC   GL248446  14.540   1.345   5.922
 3777POPC   C1A48447  14.191   1.188   6.254
 3777POPC   D2A48448  14.379   1.305   6.648
 3777POPC   C3A48449  14.737   1.107   6.845
 3777POPC   C4A48450  14.896   1.016   7.241
 3777POPC   C1B48451  14.626   1.638   6.290
 3777POPC   C2B48452  14.526   1.785   6.741
 3777POPC   C3B48453  14.598   1.574   7.156
 3777POPC   C4B48454  14.586   1.632   7.637
 3778POPC   NC348455  30.910  18.935   5.234
 3778POPC   PO448456  30.575  19.455   5.585
 3778POPC   GL148457  30.791  19.067   5.713
 3778POPC   GL248458  30.505  18.870   5.774
 3778POPC   C1A48459  30.969  18.848   6.078
 3778POPC   D2A48460  30.969  19.081   6.476
 3778POPC   C3A48461  30.902  18.888   6.846
 3778POPC   C4A48462  30.777  19.067   7.210
 3778POPC   C1B48463  30.517  19.035   6.194
 3778POPC   C2B48464  30.435  19.017   6.609
 3778POPC   C3B48465  30.555  19.339   6.841
 3778POPC   C4B48466  30.439  19.440   7.249
 3779POPC   NC348467  30.076  12.468   5.478
 3779POPC   PO448468  29.824  11.886   5.405
 3779POPC   GL148469  29.915  11.980   5.840
 3779POPC   GL248470  30.257  12.027   5.817
 3779POPC   C1A48471  29.975  11.986   6.303
 3779POPC   D2A48472  30.149  11.699   6.607
 3779POPC   C3A48473  29.859  11.658   6.938
 3779POPC   C4A48474  29.732  11.966   7.209
 3779POPC   C1B48475  30.486  11.899   6.214
 3779POPC   C2B48476  30.510  12.040   6.635
 3779POPC   C3B48477  30.118  12.134   6.856
 3779POPC   C4B48478  30.146  12.371   7.180
 3780POPC   NC348479  41.134  27.109   5.346
 3780POPC   PO448480  40.501  27.187   5.471
 3780POPC   GL148481  40.681  26.849   5.749
 3780POPC   GL248482  40.938  26.554   5.677
 3780POPC   C1A48483  40.887  26.786   6.141
 3780POPC   D2A48484  41.071  26.871   6.532
 3780POPC   C3A48485  40.824  26.716   6.851
 3780POPC   C4A48486  40.691  26.941   7.201
 3780POPC   C1B48487  41.207  26.374   6.028
 3780POPC   C2B48488  41.065  26.351   6.454
 3780POPC   C3B48489  41.185  26.289   6.876
 3780POPC   C4B48490  40.960  26.415   7.239
 3781POPC   NC348491  11.753  29.328   5.107
 3781POPC   PO448492  11.252  28.963   5.513
 3781POPC   GL148493  11.284  29.103   5.924
 3781POPC   GL248494  11.611  28.993   6.045
 3781POPC   C1A48495  11.088  29.237   6.292
 3781POPC   D2A48496  10.969  29.487   6.644
 3781POPC   C3A48497  11.030  29.282   7.040
 3781POPC   C4A48498  11.232  29.011   7.265
 3781POPC   C1B48499  11.366  28.802   6.350
 3781POPC   C2B48500  11.128  28.922   6.694
 3781POPC   C3B48501  11.448  28.737   6.899
 3781POPC   C4B48502  11.782  28.846   7.142
 3782POPC   NC348503  11.798  32.433   5.178
 3782POPC   PO448504  11.222  32.531   5.494
 3782POPC   GL148505  11.156  32.261   5.828
 3782POPC   GL248506  11.148  31.922   5.721
 3782POPC   C1A48507  11.325  32.220   6.228
 3782POPC   D2A48508  11.187  32.304   6.623
 3782POPC   C3A48509  11.433  32.160   6.969
 3782POPC   C4A48510  11.505  32.355   7.336
 3782POPC   C1B48511  11.003  31.824   6.134
 3782POPC   C2B48512  10.847  31.769   6.526
 3782POPC   C3B48513  10.981  31.924   6.899
 3782POPC   C4B48514  11.169  31.762   7.249
 3783POPC   NC348515  24.181  43.684   5.707
 3783POPC   PO448516  23.628  43.967   5.429
 3783POPC   GL148517  23.710  43.873   5.858
 3783POPC   GL248518  23.808  44.204   5.862
 3783POPC   C1A48519  23.512  43.742   6.258
 3783POPC   D2A48520  23.261  43.819   6.638
 3783POPC   C3A48521  23.424  43.680   7.038
 3783POPC   C4A48522  23.811  43.539   7.225
 3783POPC   C1B48523  23.526  44.282   6.212
 3783POPC   C2B48524  23.610  44.229   6.598
 3783POPC   C3B48525  23.447  44.183   6.963
 3783POPC   C4B48526  23.813  44.022   7.103
 3784POPC   NC348527  19.695   7.331   5.427
 3784POPC   PO448528  20.264   7.706   5.295
 3784POPC   GL148529  20.098   7.637   5.705
 3784POPC   GL248530  19.759   7.762   5.712
 3784POPC   C1A48531  20.130   7.490   6.132
 3784POPC   D2A48532  19.907   7.447   6.509
 3784POPC   C3A48533  20.050   7.292   6.894
 3784POPC   C4A48534  19.884   7.430   7.271
 3784POPC   C1B48535  19.594   7.484   6.069
 3784POPC   C2B48536  19.395   7.357   6.449
 3784POPC   C3B48537  19.510   7.427   6.856
 3784POPC   C4B48538  19.411   7.259   7.212
 3785POPC   NC348539  35.762  32.746   5.308
 3785POPC   PO448540  35.106  32.675   5.174
 3785POPC   GL148541  35.074  32.714   5.670
 3785POPC   GL248542  35.030  33.090   5.764
 3785POPC   C1A48543  35.262  32.796   6.102
 3785POPC   D2A48544  35.157  33.047   6.468
 3785POPC   C3A48545  35.427  33.003   6.809
 3785POPC   C4A48546  35.310  32.802   7.176
 3785POPC   C1B48547  35.322  33.336   6.056
 3785POPC   C2B48548  35.523  33.431   6.444
 3785POPC   C3B48549  35.516  33.507   6.878
 3785POPC   C4B48550  35.330  33.334   7.242
 3786POPC   NC348551  21.103  30.629   5.453
 3786POPC   PO448552  21.831  30.513   5.288
 3786POPC   GL148553  21.548  30.579   5.685
 3786POPC   GL248554  21.287  30.314   5.789
 3786POPC   C1A48555  21.581  30.740   6.139
 3786POPC   D2A48556  21.372  30.797   6.564
 3786POPC   C3A48557  21.416  30.548   6.935
 3786POPC   C4A48558  21.606  30.482   7.311
 3786POPC   C1B48559  21.167  30.418   6.236
 3786POPC   C2B48560  20.956  30.475   6.649
 3786POPC   C3B48561  20.975  30.788   6.971
 3786POPC   C4B48562  21.109  30.672   7.381
 3787POPC   NC348563  24.788  44.590   5.318
 3787POPC   PO448564  25.445  44.370   5.449
 3787POPC   GL148565  25.324  44.579   5.799
 3787POPC   GL248566  24.995  44.506   5.799
 3787POPC   C1A48567  25.276  44.784   6.191
 3787POPC   D2A48568  25.521  44.718   6.564
 3787POPC   C3A48569  25.633  44.910   6.961
 3787POPC   C4A48570  25.404  44.802   7.343
 3787POPC   C1B48571  24.949  44.368   6.225
 3787POPC   C2B48572  25.125  44.380   6.650
 3787POPC   C3B48573  24.965  44.548   7.073
 3787POPC   C4B48574  24.855  44.458   7.559
 3788POPC   NC348575  13.816   7.460   5.461
 3788POPC   PO448576  13.509   6.970   5.336
 3788POPC   GL148577  13.541   7.173   5.776
 3788POPC   GL248578  13.415   7.499   5.775
 3788POPC   C1A48579  13.766   7.354   6.160
 3788POPC   D2A48580  13.553   7.447   6.555
 3788POPC   C3A48581  13.712   7.460   6.968
 3788POPC   C4A48582  13.734   7.330   7.400
 3788POPC   C1B48583  13.461   7.775   6.111
 3788POPC   C2B48584  13.529   7.951   6.474
 3788POPC   C3B48585  13.455   7.867   6.882
 3788POPC   C4B48586  13.290   7.673   7.268
 3789POPC   NC348587  14.074  29.920   5.319
 3789POPC   PO448588  14.689  29.672   5.358
 3789POPC   GL148589  14.438  29.874   5.678
 3789POPC   GL248590  14.567  30.199   5.840
 3789POPC   C1A48591  14.368  29.832   6.112
 3789POPC   D2A48592  14.478  30.104   6.454
 3789POPC   C3A48593  14.335  30.018   6.849
 3789POPC   C4A48594  14.407  29.749   7.173
 3789POPC   C1B48595  14.753  30.437   6.161
 3789POPC   C2B48596  14.952  30.320   6.535
 3789POPC   C3B48597  14.887  30.158   6.929
 3789POPC   C4B48598  14.603  30.328   7.150
 3790POPC   NC348599  34.176  18.047   5.484
 3790POPC   PO448600  34.572  18.645   5.377
 3790POPC   GL148601  34.545  18.324   5.740
 3790POPC   GL248602  34.812  18.071   5.808
 3790POPC   C1A48603  34.405  18.177   6.148
 3790POPC   D2A48604  34.240  18.302   6.546
 3790POPC   C3A48605  34.403  18.259   6.961
 3790POPC   C4A48606  34.316  18.555   7.292
 3790POPC   C1B48607  34.918  18.255   6.188
 3790POPC   C2B48608  34.762  18.128   6.584
 3790POPC   C3B48609  34.925  18.262   6.986
 3790POPC   C4B48610  34.931  18.385   7.408
 3791POPC   NC348611  42.856   0.474   5.263
 3791POPC   PO448612  43.414   0.659   5.660
 3791POPC   GL148613  43.059   0.675   5.887
 3791POPC   GL248614  42.962   0.371   5.749
 3791POPC   C1A48615  43.101   0.749   6.310
 3791POPC   D2A48616  43.190   0.414   6.565
 3791POPC   C3A48617  43.265   0.566   6.929
 3791POPC   C4A48618  43.165   0.400   7.297
 3791POPC   C1B48619  42.993   0.190   6.146
 3791POPC   C2B48620  42.862  44.980   6.523
 3791POPC   C3B48621  42.992   0.092   6.938
 3791POPC   C4B48622  42.780   0.047   7.319
 3792POPC   NC348623  38.625  39.447   5.372
 3792POPC   PO448624  39.239  39.137   5.385
 3792POPC   GL148625  39.399  39.263   5.780
 3792POPC   GL248626  39.177  39.535   5.765
 3792POPC   C1A48627  39.355  39.234   6.252
 3792POPC   D2A48628  39.542  39.166   6.695
 3792POPC   C3A48629  39.345  39.048   7.120
 3792POPC   C4A48630  39.002  39.071   7.423
 3792POPC   C1B48631  39.051  39.675   6.167
 3792POPC   C2B48632  39.073  39.486   6.581
 3792POPC   C3B48633  38.978  39.355   6.976
 3792POPC   C4B48634  39.049  39.567   7.374
 3793POPC   NC348635  15.270  27.168   5.394
 3793POPC   PO448636  15.507  26.654   5.034
 3793POPC   GL148637  15.334  26.585   5.530
 3793POPC   GL248638  14.970  26.620   5.694
 3793POPC   C1A48639  15.355  26.603   6.030
 3793POPC   D2A48640  15.355  26.887   6.414
 3793POPC   C3A48641  15.304  26.721   6.824
 3793POPC   C4A48642  15.242  26.941   7.164
 3793POPC   C1B48643  14.933  26.893   6.089
 3793POPC   C2B48644  14.888  27.079   6.509
 3793POPC   C3B48645  14.789  26.973   6.920
 3793POPC   C4B48646  14.787  26.748   7.309
 3794POPC   NC348647  16.580  15.185   5.450
 3794POPC   PO448648  17.155  15.278   5.236
 3794POPC   GL148649  17.093  15.125   5.729
 3794POPC   GL248650  16.788  14.977   5.841
 3794POPC   C1A48651  17.112  14.928   6.218
 3794POPC   D2A48652  17.134  14.984   6.705
 3794POPC   C3A48653  16.894  15.262   7.041
 3794POPC   C4A48654  16.980  15.271   7.521
 3794POPC   C1B48655  16.546  14.936   6.198
 3794POPC   C2B48656  16.632  15.023   6.622
 3794POPC   C3B48657  16.548  14.862   7.012
 3794POPC   C4B48658  16.478  15.124   7.386
 3795POPC   NC348659  35.405  12.392   5.365
 3795POPC   PO448660  34.665  12.366   5.462
 3795POPC   GL148661  35.029  12.376   5.784
 3795POPC   GL248662  35.327  12.119   5.793
 3795POPC   C1A48663  35.060  12.213   6.246
 3795POPC   D2A48664  35.039  11.891   6.614
 3795POPC   C3A48665  35.019  12.012   7.074
 3795POPC   C4A48666  35.323  11.812   7.341
 3795POPC   C1B48667  35.575  12.211   6.159
 3795POPC   C2B48668  35.622  12.066   6.587
 3795POPC   C3B48669  35.513  12.156   7.023
 3795POPC   C4B48670  35.613  12.293   7.490
 3796POPC   NC348671  28.113  34.009   5.407
 3796POPC   PO448672  28.769  33.767   5.465
 3796POPC   GL148673  28.598  33.764   5.860
 3796POPC   GL248674  28.318  34.023   5.877
 3796POPC   C1A48675  28.644  33.944   6.259
 3796POPC   D2A48676  28.381  33.956   6.593
 3796POPC   C3A48677  28.537  33.822   6.988
 3796POPC   C4A48678  28.246  34.001   7.245
 3796POPC   C1B48679  28.161  33.697   6.176
 3796POPC   C2B48680  27.934  33.511   6.548
 3796POPC   C3B48681  28.054  33.593   6.964
 3796POPC   C4B48682  28.091  33.501   7.369
 3797POPC   NC348683  40.438  20.168   5.192
 3797POPC   PO448684  40.108  20.726   5.275
 3797POPC   GL148685  40.182  20.720   5.705
 3797POPC   GL248686  40.412  20.480   5.683
 3797POPC   C1A48687  39.948  20.805   6.077
 3797POPC   D2A48688  39.702  20.869   6.445
 3797POPC   C3A48689  39.948  20.889   6.817
 3797POPC   C4A48690  39.934  21.001   7.259
 3797POPC   C1B48691  40.166  20.344   6.061
 3797POPC   C2B48692  40.100  20.208   6.501
 3797POPC   C3B48693  40.116  20.386   6.910
 3797POPC   C4B48694  39.749  20.551   7.147
 3798POPC   NC348695  19.161   2.527   5.400
 3798POPC   PO448696  18.957   3.131   5.178
 3798POPC   GL148697  18.946   2.948   5.656
 3798POPC   GL248698  18.911   2.588   5.836
 3798POPC   C1A48699  18.896   2.967   6.149
 3798POPC   D2A48700  18.881   2.676   6.506
 3798POPC   C3A48701  18.996   2.915   6.869
 3798POPC   C4A48702  19.021   3.069   7.297
 3798POPC   C1B48703  19.273   2.578   6.141
 3798POPC   C2B48704  19.415   2.704   6.569
 3798POPC   C3B48705  19.407   2.604   7.024
 3798POPC   C4B48706  19.276   2.655   7.453
 3799POPC   NC348707   9.279  21.879   5.104
 3799POPC   PO448708   9.495  22.456   5.298
 3799POPC   GL148709   9.611  22.210   5.648
 3799POPC   GL248710   9.983  22.229   5.727
 3799POPC   C1A48711   9.480  21.908   5.978
 3799POPC   D2A48712   9.655  21.767   6.384
 3799POPC   C3A48713   9.547  21.898   6.831
 3799POPC   C4A48714   9.631  21.901   7.275
 3799POPC   C1B48715   9.888  22.175   6.159
 3799POPC   C2B48716   9.694  22.291   6.533
 3799POPC   C3B48717   9.857  22.290   6.941
 3799POPC   C4B48718   9.817  22.367   7.354
 3800POPC   NC348719  32.977  13.584   5.444
 3800POPC   PO448720  32.332  13.838   5.491
 3800POPC   GL148721  32.661  13.739   5.833
 3800POPC   GL248722  32.879  13.401   5.903
 3800POPC   C1A48723  32.929  13.746   6.237
 3800POPC   D2A48724  32.912  13.446   6.602
 3800POPC   C3A48725  32.968  13.709   6.959
 3800POPC   C4A48726  32.830  14.067   7.208
 3800POPC   C1B48727  33.237  13.313   6.215
 3800POPC   C2B48728  33.398  13.223   6.676
 3800POPC   C3B48729  33.363  13.426   7.110
 3800POPC   C4B48730  33.411  13.456   7.629
 3801POPC   NC348731  42.885   2.825   5.484
 3801POPC   PO448732  43.347   2.364   5.453
 3801POPC   GL148733  43.116   2.501   5.844
 3801POPC   GL248734  43.126   2.866   5.948
 3801POPC   C1A48735  43.092   2.456   6.307
 3801POPC   D2A48736  43.046   2.548   6.747
 3801POPC   C3A48737  43.246   2.907   6.901
 3801POPC   C4A48738  43.374   2.786   7.285
 3801POPC   C1B48739  43.016   2.962   6.393
 3801POPC   C2B48740  42.759   3.033   6.764
 3801POPC   C3B48741  42.805   3.096   7.195
 3801POPC   C4B48742  43.156   3.275   7.445
 3802POPC   NC348743  17.530   0.696   5.405
 3802POPC   PO448744  17.795   1.383   5.374
 3802POPC   GL148745  17.716   1.407   5.812
 3802POPC   GL248746  17.369   1.283   5.774
 3802POPC   C1A48747  17.572   1.485   6.236
 3802POPC   D2A48748  17.324   1.289   6.570
 3802POPC   C3A48749  17.319   1.321   7.026
 3802POPC   C4A48750  17.531   1.167   7.387
 3802POPC   C1B48751  17.432   1.014   6.096
 3802POPC   C2B48752  17.217   0.830   6.408
 3802POPC   C3B48753  17.132   0.871   6.845
 3802POPC   C4B48754  17.203   0.797   7.298
 3803POPC   NC348755  37.205  38.138   5.392
 3803POPC   PO448756  36.798  38.663   5.199
 3803POPC   GL148757  36.892  38.575   5.651
 3803POPC   GL248758  36.552  38.478   5.747
 3803POPC   C1A48759  36.979  38.335   6.069
 3803POPC   D2A48760  36.783  38.085   6.397
 3803POPC   C3A48761  36.743  38.282   6.808
 3803POPC   C4A48762  36.993  38.281   7.182
 3803POPC   C1B48763  36.582  38.657   6.135
 3803POPC   C2B48764  36.406  38.569   6.519
 3803POPC   C3B48765  36.389  38.753   6.886
 3803POPC   C4B48766  36.556  38.578   7.201
 3804POPC   NC348767  44.075   1.556   5.544
 3804POPC   PO448768  43.687   1.958   5.178
 3804POPC   GL148769  43.751   1.963   5.668
 3804POPC   GL248770  43.843   2.279   5.845
 3804POPC   C1A48771  43.897   1.834   6.119
 3804POPC   D2A48772  43.806   1.897   6.556
 3804POPC   C3A48773  43.711   1.593   6.880
 3804POPC   C4A48774  43.783   1.933   7.136
 3804POPC   C1B48775  43.992   2.314   6.293
 3804POPC   C2B48776  44.301   2.078   6.542
 3804POPC   C3B48777  44.332   2.070   6.978
 3804POPC   C4B48778  44.105   2.278   7.283
 3805POPC   NC348779  13.751  32.317   5.432
 3805POPC   PO448780  13.286  31.938   5.220
 3805POPC   GL148781  13.352  32.247   5.727
 3805POPC   GL248782  13.589  32.499   5.878
 3805POPC   C1A48783  13.349  32.234   6.220
 3805POPC   D2A48784  13.302  32.570   6.554
 3805POPC   C3A48785  13.456  32.360   6.947
 3805POPC   C4A48786  13.633  32.120   7.308
 3805POPC   C1B48787  13.935  32.308   6.120
 3805POPC   C2B48788  14.026  32.054   6.498
 3805POPC   C3B48789  14.023  32.238   6.884
 3805POPC   C4B48790  13.880  32.546   7.172
 3806POPC   NC348791  22.372   9.355   5.446
 3806POPC   PO448792  22.394   8.685   5.433
 3806POPC   GL148793  22.235   8.949   5.760
 3806POPC   GL248794  22.500   9.167   5.911
 3806POPC   C1A48795  22.097   8.928   6.201
 3806POPC   D2A48796  21.902   8.850   6.626
 3806POPC   C3A48797  22.146   8.885   6.994
 3806POPC   C4A48798  21.989   9.175   7.273
 3806POPC   C1B48799  22.708   9.149   6.297
 3806POPC   C2B48800  22.371   9.172   6.590
 3806POPC   C3B48801  22.261   9.420   6.917
 3806POPC   C4B48802  22.513   9.190   7.201
 3807POPC   NC348803  26.194   6.392   5.395
 3807POPC   PO448804  25.859   6.938   5.460
 3807POPC   GL148805  26.009   6.722   5.849
 3807POPC   GL248806  26.330   6.574   5.873
 3807POPC   C1A48807  26.049   6.870   6.298
 3807POPC   D2A48808  26.239   7.001   6.707
 3807POPC   C3A48809  26.123   6.767   7.072
 3807POPC   C4A48810  25.765   6.876   7.320
 3807POPC   C1B48811  26.154   6.281   6.185
 3807POPC   C2B48812  26.285   6.110   6.596
 3807POPC   C3B48813  26.283   6.252   7.025
 3807POPC   C4B48814  26.389   6.421   7.438
 3808POPC   NC348815  26.983  18.377   5.412
 3808POPC   PO448816  26.275  18.338   5.556
 3808POPC   GL148817  26.603  18.474   5.804
 3808POPC   GL248818  26.832  18.715   5.765
 3808POPC   C1A48819  26.663  18.460   6.231
 3808POPC   D2A48820  26.568  18.371   6.665
 3808POPC   C3A48821  26.770  18.140   6.992
 3808POPC   C4A48822  26.603  18.151   7.401
 3808POPC   C1B48823  27.119  18.715   6.100
 3808POPC   C2B48824  26.994  18.745   6.506
 3808POPC   C3B48825  26.972  18.634   6.917
 3808POPC   C4B48826  26.852  18.569   7.279
 3809POPC   NC348827  33.144   7.614   5.627
 3809POPC   PO448828  33.020   8.253   5.443
 3809POPC   GL148829  33.089   8.115   5.853
 3809POPC   GL248830  33.442   7.996   5.844
 3809POPC   C1A48831  32.844   8.280   6.214
 3809POPC   D2A48832  32.751   8.524   6.570
 3809POPC   C3A48833  32.794   8.331   6.945
 3809POPC   C4A48834  32.847   8.520   7.308
 3809POPC   C1B48835  33.369   8.055   6.287
 3809POPC   C2B48836  33.098   8.073   6.625
 3809POPC   C3B48837  33.192   7.945   7.027
 3809POPC   C4B48838  33.103   8.109   7.405
 3810POPC   NC348839  24.698  15.283   5.357
 3810POPC   PO448840  25.306  15.178   5.274
 3810POPC   GL148841  25.165  14.935   5.692
 3810POPC   GL248842  24.820  15.001   5.814
 3810POPC   C1A48843  25.348  14.842   6.151
 3810POPC   D2A48844  25.411  15.038   6.583
 3810POPC   C3A48845  25.400  14.893   7.024
 3810POPC   C4A48846  25.491  15.165   7.407
 3810POPC   C1B48847  24.885  15.040   6.284
 3810POPC   C2B48848  24.908  15.041   6.742
 3810POPC   C3B48849  24.927  15.062   7.184
 3810POPC   C4B48850  24.800  15.046   7.634
 3811POPC   NC348851   9.530  10.758   5.184
 3811POPC   PO448852  10.076  10.314   5.220
 3811POPC   GL148853   9.863  10.582   5.593
 3811POPC   GL248854   9.707  10.290   5.717
 3811POPC   C1A48855   9.770  10.778   6.061
 3811POPC   D2A48856   9.753  10.664   6.518
 3811POPC   C3A48857   9.769  10.831   6.935
 3811POPC   C4A48858   9.775  10.640   7.345
 3811POPC   C1B48859   9.908  10.061   6.055
 3811POPC   C2B48860   9.916  10.150   6.475
 3811POPC   C3B48861   9.668  10.216   6.834
 3811POPC   C4B48862   9.845  10.154   7.252
 3812POPC   NC348863  20.162  14.064   5.677
 3812POPC   PO448864  20.569  14.527   5.419
 3812POPC   GL148865  20.619  14.344   5.820
 3812POPC   GL248866  20.962  14.271   5.854
 3812POPC   C1A48867  20.692  14.509   6.252
 3812POPC   D2A48868  20.769  14.578   6.683
 3812POPC   C3A48869  20.442  14.473   6.940
 3812POPC   C4A48870  20.426  14.636   7.341
 3812POPC   C1B48871  21.020  14.094   6.276
 3812POPC   C2B48872  20.773  14.052   6.657
 3812POPC   C3B48873  20.832  14.152   7.073
 3812POPC   C4B48874  20.896  14.564   7.184
 3813POPC   NC348875  41.341  15.806   5.413
 3813POPC   PO448876  41.801  16.279   5.400
 3813POPC   GL148877  41.657  16.075   5.777
 3813POPC   GL248878  41.397  15.840   5.920
 3813POPC   C1A48879  41.914  16.189   6.105
 3813POPC   D2A48880  41.872  16.419   6.470
 3813POPC   C3A48881  41.927  16.163   6.816
 3813POPC   C4A48882  41.714  16.141   7.187
 3813POPC   C1B48883  41.551  15.915   6.346
 3813POPC   C2B48884  41.348  16.062   6.720
 3813POPC   C3B48885  41.272  15.919   7.105
 3813POPC   C4B48886  41.559  15.729   7.417
 3814POPC   NC348887  34.482   2.860   5.188
 3814POPC   PO448888  34.824   2.331   5.271
 3814POPC   GL148889  34.668   2.615   5.652
 3814POPC   GL248890  34.418   2.926   5.699
 3814POPC   C1A48891  34.677   2.602   6.127
 3814POPC   D2A48892  34.766   2.470   6.571
 3814POPC   C3A48893  34.574   2.646   6.970
 3814POPC   C4A48894  34.805   2.866   7.306
 3814POPC   C1B48895  34.708   3.095   6.006
 3814POPC   C2B48896  34.870   2.995   6.429
 3814POPC   C3B48897  34.784   3.109   6.851
 3814POPC   C4B48898  34.416   3.184   7.110
 3815POPC   NC348899  35.257   0.482   5.166
 3815POPC   PO448900  35.606  44.978   5.336
 3815POPC   GL148901  35.690   0.170   5.784
 3815POPC   GL248902  35.698   0.562   5.796
 3815POPC   C1A48903  35.541   0.270   6.246
 3815POPC   D2A48904  35.427   0.060   6.676
 3815POPC   C3A48905  35.144   0.227   7.029
 3815POPC   C4A48906  35.055   0.675   7.205
 3815POPC   C1B48907  35.790   0.822   6.184
 3815POPC   C2B48908  35.550   0.960   6.559
 3815POPC   C3B48909  35.511   0.809   6.980
 3815POPC   C4B48910  35.540   0.456   7.263
 3816POPC   NC348911  41.938  40.892   5.583
 3816POPC   PO448912  41.325  40.594   5.407
 3816POPC   GL148913  41.523  40.634   5.799
 3816POPC   GL248914  41.410  40.994   5.877
 3816POPC   C1A48915  41.699  40.735   6.209
 3816POPC   D2A48916  41.476  40.859   6.573
 3816POPC   C3A48917  41.726  40.791   6.955
 3816POPC   C4A48918  41.694  40.771   7.402
 3816POPC   C1B48919  41.501  41.281   6.250
 3816POPC   C2B48920  41.496  41.350   6.727
 3816POPC   C3B48921  41.459  41.186   7.188
 3816POPC   C4B48922  41.319  41.044   7.622
 3817POPC   NC348923   0.222  17.698   5.157
 3817POPC   PO448924  44.498  17.400   5.298
 3817POPC   GL148925  44.486  17.395   5.778
 3817POPC   GL248926  44.763  17.549   5.949
 3817POPC   C1A48927  44.477  17.274   6.248
 3817POPC   D2A48928  44.409  17.472   6.691
 3817POPC   C3A48929  44.696  17.519   7.047
 3817POPC   C4A48930  44.697  17.426   7.483
 3817POPC   C1B48931  44.982  17.871   6.200
 3817POPC   C2B48932   0.180  17.843   6.605
 3817POPC   C3B48933  44.967  18.010   6.936
 3817POPC   C4B48934  44.944  17.886   7.340
 3818POPC   NC348935   2.650  40.270   5.487
 3818POPC   PO448936   2.419  39.674   5.427
 3818POPC   GL148937   2.685  39.828   5.774
 3818POPC   GL248938   3.039  39.718   5.800
 3818POPC   C1A48939   2.578  40.048   6.152
 3818POPC   D2A48940   2.398  39.965   6.541
 3818POPC   C3A48941   2.560  40.174   6.912
 3818POPC   C4A48942   2.791  39.849   7.146
 3818POPC   C1B48943   3.069  39.921   6.228
 3818POPC   C2B48944   2.936  39.973   6.654
 3818POPC   C3B48945   3.092  40.211   7.044
 3818POPC   C4B48946   3.099  40.016   7.504
 3819POPC   NC348947  41.954   4.661   5.498
 3819POPC   PO448948  41.391   4.269   5.394
 3819POPC   GL148949  41.566   4.414   5.780
 3819POPC   GL248950  41.433   4.731   5.707
 3819POPC   C1A48951  41.630   4.329   6.280
 3819POPC   D2A48952  41.465   4.156   6.701
 3819POPC   C3A48953  41.629   4.254   7.121
 3819POPC   C4A48954  41.809   3.993   7.423
 3819POPC   C1B48955  41.241   4.614   6.116
 3819POPC   C2B48956  41.112   4.667   6.564
 3819POPC   C3B48957  41.213   4.545   6.981
 3819POPC   C4B48958  41.430   4.648   7.379
 3820POPC   NC348959  13.035  30.630   5.377
 3820POPC   PO448960  12.407  30.671   5.131
 3820POPC   GL148961  12.619  30.795   5.620
 3820POPC   GL248962  12.867  30.583   5.842
 3820POPC   C1A48963  12.580  30.859   6.137
 3820POPC   D2A48964  12.635  30.680   6.558
 3820POPC   C3A48965  12.699  30.978   6.888
 3820POPC   C4A48966  12.699  31.034   7.327
 3820POPC   C1B48967  13.098  30.483   6.209
 3820POPC   C2B48968  13.030  30.373   6.662
 3820POPC   C3B48969  12.889  30.555   7.056
 3820POPC   C4B48970  13.107  30.656   7.411
 3821POPC   NC348971  28.333  17.324   5.519
 3821POPC   PO448972  28.646  16.789   5.806
 3821POPC   GL148973  28.644  17.301   5.920
 3821POPC   GL248974  28.643  17.699   5.853
 3821POPC   C1A48975  28.469  17.539   6.290
 3821POPC   D2A48976  28.650  17.502   6.659
 3821POPC   C3A48977  28.332  17.408   6.923
 3821POPC   C4A48978  28.396  17.478   7.309
 3821POPC   C1B48979  28.913  17.765   6.222
 3821POPC   C2B48980  28.768  17.994   6.607
 3821POPC   C3B48981  28.711  17.821   7.068
 3821POPC   C4B48982  28.863  17.623   7.466
 3822POPC   NC348983  10.956  10.036   5.545
 3822POPC   PO448984  10.358   9.708   5.574
 3822POPC   GL148985  10.618   9.740   5.901
 3822POPC   GL248986  11.013   9.617   5.831
 3822POPC   C1A48987  10.329   9.712   6.275
 3822POPC   D2A48988  10.320   9.472   6.650
 3822POPC   C3A48989  10.494   9.669   7.013
 3822POPC   C4A48990  10.812   9.553   7.311
 3822POPC   C1B48991  11.002   9.893   6.188
 3822POPC   C2B48992  10.769   9.859   6.552
 3822POPC   C3B48993  10.958   9.882   6.917
 3822POPC   C4B48994  10.828  10.067   7.237
 3823POPC   NC348995  20.179   8.115   5.530
 3823POPC   PO448996  20.653   8.482   5.085
 3823POPC   GL148997  20.465   8.581   5.636
 3823POPC   GL248998  20.468   8.279   5.895
 3823POPC   C1A48999  20.469   8.652   6.189
 3823POPC   D2A49000  20.481   8.310   6.501
 3823POPC   C3A49001  20.318   8.290   6.906
 3823POPC   C4A49002  20.623   8.178   7.197
 3823POPC   C1B49003  20.313   7.966   6.155
 3823POPC   C2B49004  20.143   7.907   6.558
 3823POPC   C3B49005  20.305   7.756   6.910
 3823POPC   C4B49006  20.218   7.870   7.272
 3824POPC   NC349007  39.002  34.879   5.449
 3824POPC   PO449008  38.902  34.208   5.391
 3824POPC   GL149009  39.097  34.428   5.751
 3824POPC   GL249010  39.429  34.336   5.823
 3824POPC   C1A49011  39.186  34.714   6.102
 3824POPC   D2A49012  38.983  34.914   6.446
 3824POPC   C3A49013  38.952  34.621   6.792
 3824POPC   C4A49014  39.013  34.758   7.190
 3824POPC   C1B49015  39.587  34.380   6.248
 3824POPC   C2B49016  39.422  34.608   6.572
 3824POPC   C3B49017  39.491  34.718   6.990
 3824POPC   C4B49018  39.466  34.558   7.416
 3825POPC   NC349019  39.132  28.354   5.441
 3825POPC   PO449020  38.590  28.710   5.724
 3825POPC   GL149021  39.059  28.536   5.907
 3825POPC   GL249022  39.204  28.177   5.908
 3825POPC   C1A49023  39.321  28.541   6.272
 3825POPC   D2A49024  39.012  28.525   6.593
 3825POPC   C3A49025  39.001  28.302   6.975
 3825POPC   C4A49026  39.106  28.444   7.401
 3825POPC   C1B49027  39.266  28.057   6.316
 3825POPC   C2B49028  39.526  28.177   6.656
 3825POPC   C3B49029  39.503  28.260   7.082
 3825POPC   C4B49030  39.290  27.981   7.336
 3826POPC   NC349031  42.868  10.796   5.389
 3826POPC   PO449032  43.517  10.449   5.332
 3826POPC   GL149033  43.401  10.303   5.797
 3826POPC   GL249034  43.050  10.360   5.853
 3826POPC   C1A49035  43.314  10.188   6.273
 3826POPC   D2A49036  43.010  10.071   6.616
 3826POPC   C3A49037  42.866  10.335   6.913
 3826POPC   C4A49038  43.045  10.390   7.335
 3826POPC   C1B49039  42.870  10.438   6.260
 3826POPC   C2B49040  43.134  10.627   6.585
 3826POPC   C3B49041  43.080  10.784   6.992
 3826POPC   C4B49042  42.673  10.765   7.250
 3827POPC   NC349043  14.254  26.263   5.186
 3827POPC   PO449044  14.675  25.805   5.333
 3827POPC   GL149045  14.423  25.963   5.673
 3827POPC   GL249046  14.592  26.252   5.744
 3827POPC   C1A49047  14.303  26.045   6.133
 3827POPC   D2A49048  14.366  26.250   6.555
 3827POPC   C3A49049  14.234  26.056   6.936
 3827POPC   C4A49050  14.231  25.838   7.328
 3827POPC   C1B49051  14.717  26.397   6.139
 3827POPC   C2B49052  14.946  26.552   6.490
 3827POPC   C3B49053  14.814  26.458   6.901
 3827POPC   C4B49054  14.551  26.297   7.270
 3828POPC   NC349055  41.951  26.970   5.639
 3828POPC   PO449056  41.324  26.635   5.341
 3828POPC   GL149057  41.432  26.737   5.736
 3828POPC   GL249058  41.720  26.552   5.848
 3828POPC   C1A49059  41.416  26.856   6.144
 3828POPC   D2A49060  41.545  26.593   6.475
 3828POPC   C3A49061  41.428  26.727   6.882
 3828POPC   C4A49062  41.183  26.894   7.194
 3828POPC   C1B49063  42.011  26.600   6.211
 3828POPC   C2B49064  42.043  26.731   6.626
 3828POPC   C3B49065  41.918  26.976   6.964
 3828POPC   C4B49066  41.680  26.877   7.302
 3829POPC   NC349067  32.856  34.490   5.408
 3829POPC   PO449068  33.499  34.278   5.549
 3829POPC   GL149069  33.253  34.649   5.752
 3829POPC   GL249070  32.956  34.465   5.893
 3829POPC   C1A49071  33.077  34.866   6.128
 3829POPC   D2A49072  32.842  34.572   6.395
 3829POPC   C3A49073  32.838  34.624   6.801
 3829POPC   C4A49074  33.048  34.726   7.117
 3829POPC   C1B49075  33.254  34.338   6.198
 3829POPC   C2B49076  33.207  34.274   6.631
 3829POPC   C3B49077  33.071  34.209   7.054
 3829POPC   C4B49078  33.289  34.310   7.430
 3830POPC   NC349079  22.437  32.779   5.412
 3830POPC   PO449080  21.940  32.286   5.618
 3830POPC   GL149081  22.370  32.354   5.785
 3830POPC   GL249082  22.447  32.691   5.910
 3830POPC   C1A49083  22.474  32.189   6.204
 3830POPC   D2A49084  22.191  32.202   6.572
 3830POPC   C3A49085  22.349  32.057   6.959
 3830POPC   C4A49086  21.984  31.920   7.154
 3830POPC   C1B49087  22.187  32.611   6.229
 3830POPC   C2B49088  22.256  32.692   6.641
 3830POPC   C3B49089  22.226  32.544   7.040
 3830POPC   C4B49090  22.436  32.715   7.408
 3831POPC   NC349091   1.051  34.055   5.402
 3831POPC   PO449092   1.340  33.499   5.554
 3831POPC   GL149093   1.196  33.747   5.858
 3831POPC   GL249094   0.858  33.754   5.873
 3831POPC   C1A49095   1.391  33.779   6.260
 3831POPC   D2A49096   1.292  34.008   6.617
 3831POPC   C3A49097   1.267  33.854   7.027
 3831POPC   C4A49098   1.454  33.638   7.394
 3831POPC   C1B49099   0.908  33.948   6.279
 3831POPC   C2B49100   0.800  34.044   6.713
 3831POPC   C3B49101   0.767  33.904   7.140
 3831POPC   C4B49102   1.063  33.954   7.497
 3832POPC   NC349103  24.874  18.915   5.340
 3832POPC   PO449104  24.224  18.569   5.512
 3832POPC   GL149105  24.508  18.724   5.863
 3832POPC   GL249106  24.767  18.989   5.817
 3832POPC   C1A49107  24.481  19.038   6.217
 3832POPC   D2A49108  24.320  19.171   6.593
 3832POPC   C3A49109  24.263  18.864   6.872
 3832POPC   C4A49110  24.208  19.072   7.216
 3832POPC   C1B49111  24.967  18.847   6.167
 3832POPC   C2B49112  24.847  18.939   6.573
 3832POPC   C3B49113  24.742  19.025   6.987
 3832POPC   C4B49114  24.599  18.752   7.283
 3833POPC   NC349115  32.460  32.593   5.374
 3833POPC   PO449116  32.031  32.085   5.487
 3833POPC   GL149117  32.239  32.329   5.775
 3833POPC   GL249118  32.579  32.222   5.786
 3833POPC   C1A49119  32.160  32.337   6.204
 3833POPC   D2A49120  32.084  32.578   6.563
 3833POPC   C3A49121  32.116  32.325   6.924
 3833POPC   C4A49122  32.311  32.464   7.314
 3833POPC   C1B49123  32.586  32.005   6.236
 3833POPC   C2B49124  32.661  31.986   6.731
 3833POPC   C3B49125  32.668  32.093   7.174
 3833POPC   C4B49126  32.575  32.162   7.632
 3834POPC   NC349127  25.974  40.172   5.220
 3834POPC   PO449128  25.990  39.607   5.520
 3834POPC   GL149129  25.879  39.920   5.828
 3834POPC   GL249130  25.800  40.262   5.728
 3834POPC   C1A49131  25.771  40.019   6.225
 3834POPC   D2A49132  25.555  39.932   6.592
 3834POPC   C3A49133  25.786  40.052   6.973
 3834POPC   C4A49134  25.792  39.992   7.425
 3834POPC   C1B49135  26.162  40.316   6.033
 3834POPC   C2B49136  26.289  40.293   6.472
 3834POPC   C3B49137  26.458  40.293   6.887
 3834POPC   C4B49138  26.235  40.159   7.233
 3835POPC   NC349139  44.466  18.624   5.515
 3835POPC   PO449140   0.070  18.579   5.162
 3835POPC   GL149141  44.880  18.343   5.616
 3835POPC   GL249142  44.688  18.014   5.709
 3835POPC   C1A49143  44.687  18.364   6.100
 3835POPC   D2A49144  44.450  18.598   6.463
 3835POPC   C3A49145  44.380  18.457   6.883
 3835POPC   C4A49146  44.667  18.344   7.195
 3835POPC   C1B49147  44.448  17.906   6.115
 3835POPC   C2B49148  44.522  18.054   6.543
 3835POPC   C3B49149  44.413  17.943   6.958
 3835POPC   C4B49150  44.459  17.898   7.401
 3836POPC   NC349151  42.625  27.604   5.254
 3836POPC   PO449152  42.373  27.003   5.459
 3836POPC   GL149153  42.500  27.438   5.759
 3836POPC   GL249154  42.652  27.335   6.065
 3836POPC   C1A49155  42.577  27.800   6.158
 3836POPC   D2A49156  42.657  27.596   6.590
 3836POPC   C3A49157  42.633  27.853   6.923
 3836POPC   C4A49158  42.310  27.958   7.172
 3836POPC   C1B49159  42.236  27.472   6.333
 3836POPC   C2B49160  41.958  27.448   6.712
 3836POPC   C3B49161  42.151  27.421   7.128
 3836POPC   C4B49162  42.041  27.160   7.527
 3837POPC   NC349163   4.872  32.611   5.486
 3837POPC   PO449164   4.296  32.263   5.477
 3837POPC   GL149165   4.483  32.091   5.843
 3837POPC   GL249166   4.651  32.391   5.912
 3837POPC   C1A49167   4.495  32.114   6.301
 3837POPC   D2A49168   4.234  32.281   6.628
 3837POPC   C3A49169   4.071  32.094   6.946
 3837POPC   C4A49170   4.269  32.142   7.289
 3837POPC   C1B49171   4.412  32.609   6.277
 3837POPC   C2B49172   4.545  32.694   6.662
 3837POPC   C3B49173   4.568  32.469   7.035
 3837POPC   C4B49174   4.456  32.591   7.444
 3838POPC   NC349175  13.623  11.710   5.528
 3838POPC   PO449176  13.506  12.348   5.250
 3838POPC   GL149177  13.521  12.379   5.725
 3838POPC   GL249178  13.654  12.081   5.864
 3838POPC   C1A49179  13.403  12.379   6.195
 3838POPC   D2A49180  13.666  12.337   6.599
 3838POPC   C3A49181  13.498  12.272   7.005
 3838POPC   C4A49182  13.338  12.623   7.235
 3838POPC   C1B49183  13.553  11.897   6.298
 3838POPC   C2B49184  13.703  11.844   6.744
 3838POPC   C3B49185  13.686  11.835   7.194
 3838POPC   C4B49186  13.919  11.988   7.518
 3839POPC   NC349187  32.714  17.049   5.538
 3839POPC   PO449188  33.315  16.834   5.276
 3839POPC   GL149189  33.016  16.655   5.697
 3839POPC   GL249190  32.950  16.920   5.982
 3839POPC   C1A49191  33.119  16.473   6.151
 3839POPC   D2A49192  32.962  16.410   6.604
 3839POPC   C3A49193  32.815  16.586   7.021
 3839POPC   C4A49194  32.917  16.497   7.478
 3839POPC   C1B49195  33.183  16.964   6.372
 3839POPC   C2B49196  33.213  16.848   6.808
 3839POPC   C3B49197  33.175  16.873   7.242
 3839POPC   C4B49198  33.003  16.963   7.655
 3840POPC   NC349199   9.792  35.620   5.328
 3840POPC   PO449200   9.403  35.115   5.311
 3840POPC   GL149201   9.663  35.226   5.715
 3840POPC   GL249202  10.039  35.221   5.774
 3840POPC   C1A49203   9.622  35.158   6.163
 3840POPC   D2A49204   9.712  35.337   6.578
 3840POPC   C3A49205   9.619  35.141   6.952
 3840POPC   C4A49206   9.758  35.253   7.316
 3840POPC   C1B49207  10.088  35.452   6.225
 3840POPC   C2B49208  10.046  35.716   6.627
 3840POPC   C3B49209  10.014  35.646   7.070
 3840POPC   C4B49210  10.101  35.579   7.516
 3841POPC   NC349211  10.154  40.134   5.339
 3841POPC   PO449212  10.829  39.890   5.457
 3841POPC   GL149213  10.606  39.944   5.839
 3841POPC   GL249214  10.398  40.224   5.799
 3841POPC   C1A49215  10.451  39.833   6.244
 3841POPC   D2A49216  10.673  40.064   6.573
 3841POPC   C3A49217  10.762  39.979   7.004
 3841POPC   C4A49218  10.586  39.798   7.355
 3841POPC   C1B49219  10.388  40.330   6.237
 3841POPC   C2B49220  10.181  40.136   6.627
 3841POPC   C3B49221  10.222  39.930   7.011
 3841POPC   C4B49222  10.268  40.211   7.344
 3842POPC   NC349223  27.747  34.662   5.234
 3842POPC   PO449224  28.444  34.761   5.330
 3842POPC   GL149225  28.518  34.703   5.764
 3842POPC   GL249226  28.195  34.583   5.819
 3842POPC   C1A49227  28.557  34.434   6.139
 3842POPC   D2A49228  28.573  34.546   6.558
 3842POPC   C3A49229  28.720  34.279   6.836
 3842POPC   C4A49230  28.614  34.402   7.210
 3842POPC   C1B49231  28.033  34.342   6.155
 3842POPC   C2B49232  27.980  34.437   6.535
 3842POPC   C3B49233  28.213  34.366   6.884
 3842POPC   C4B49234  28.122  34.593   7.239
 3843POPC   NC349235  10.604  15.548   5.535
 3843POPC   PO449236  10.474  14.900   5.653
 3843POPC   GL149237  10.430  15.235   5.874
 3843POPC   GL249238  10.138  15.437   5.786
 3843POPC   C1A49239  10.466  15.500   6.202
 3843POPC   D2A49240  10.696  15.504   6.565
 3843POPC   C3A49241  10.494  15.420   6.956
 3843POPC   C4A49242  10.724  15.411   7.321
 3843POPC   C1B49243  10.060  15.170   6.193
 3843POPC   C2B49244  10.228  15.213   6.571
 3843POPC   C3B49245  10.168  15.001   6.940
 3843POPC   C4B49246  10.415  15.009   7.302
 3844POPC   NC349247  35.706  28.462   5.124
 3844POPC   PO449248  35.080  28.518   5.442
 3844POPC   GL149249  35.146  28.401   5.839
 3844POPC   GL249250  35.471  28.246   5.838
 3844POPC   C1A49251  35.176  28.514   6.264
 3844POPC   D2A49252  35.071  28.771   6.613
 3844POPC   C3A49253  35.134  28.486   6.921
 3844POPC   C4A49254  35.373  28.518   7.238
 3844POPC   C1B49255  35.305  28.023   6.175
 3844POPC   C2B49256  35.218  28.086   6.592
 3844POPC   C3B49257  35.446  28.092   6.966
 3844POPC   C4B49258  35.671  28.084   7.343
 3845POPC   NC349259  35.650   8.225   5.485
 3845POPC   PO449260  34.995   8.014   5.254
 3845POPC   GL149261  35.198   8.041   5.664
 3845POPC   GL249262  35.277   8.359   5.785
 3845POPC   C1A49263  35.161   7.968   6.124
 3845POPC   D2A49264  34.954   7.860   6.546
 3845POPC   C3A49265  35.000   8.149   6.874
 3845POPC   C4A49266  35.188   8.016   7.214
 3845POPC   C1B49267  35.447   8.446   6.176
 3845POPC   C2B49268  35.347   8.414   6.602
 3845POPC   C3B49269  35.372   8.486   7.033
 3845POPC   C4B49270  35.539   8.332   7.393
 3846POPC   NC349271  41.330  29.304   5.345
 3846POPC   PO449272  41.873  28.957   5.417
 3846POPC   GL149273  41.640  29.188   5.734
 3846POPC   GL249274  41.269  29.027   5.759
 3846POPC   C1A49275  41.761  29.260   6.156
 3846POPC   D2A49276  41.910  29.011   6.527
 3846POPC   C3A49277  41.730  29.133   6.938
 3846POPC   C4A49278  41.798  29.335   7.342
 3846POPC   C1B49279  41.249  29.278   6.116
 3846POPC   C2B49280  41.417  29.300   6.527
 3846POPC   C3B49281  41.283  29.499   6.864
 3846POPC   C4B49282  41.309  29.281   7.198
 3847POPC   NC349283  15.345  31.280   5.342
 3847POPC   PO449284  14.783  31.460   5.145
 3847POPC   GL149285  14.907  31.372   5.631
 3847POPC   GL249286  15.264  31.505   5.784
 3847POPC   C1A49287  14.840  31.554   6.064
 3847POPC   D2A49288  14.803  31.367   6.475
 3847POPC   C3A49289  14.788  31.573   6.896
 3847POPC   C4A49290  14.898  31.672   7.310
 3847POPC   C1B49291  15.308  31.462   6.244
 3847POPC   C2B49292  15.483  31.577   6.662
 3847POPC   C3B49293  15.346  31.516   7.084
 3847POPC   C4B49294  15.309  31.280   7.472
 3848POPC   NC349295  15.428  28.789   5.440
 3848POPC   PO449296  14.892  29.083   5.332
 3848POPC   GL149297  14.943  29.141   5.785
 3848POPC   GL249298  15.281  29.291   5.838
 3848POPC   C1A49299  15.122  28.911   6.168
 3848POPC   D2A49300  15.375  28.970   6.566
 3848POPC   C3A49301  15.274  28.841   7.005
 3848POPC   C4A49302  15.544  28.938   7.359
 3848POPC   C1B49303  15.113  29.426   6.231
 3848POPC   C2B49304  15.365  29.504   6.599
 3848POPC   C3B49305  15.448  29.327   6.992
 3848POPC   C4B49306  15.415  29.540   7.356
 3849POPC   NC349307  20.784   1.193   5.295
 3849POPC   PO449308  20.927   0.631   5.575
 3849POPC   GL149309  20.804   1.020   5.808
 3849POPC   GL249310  20.722   1.386   5.767
 3849POPC   C1A49311  20.886   1.112   6.246
 3849POPC   D2A49312  20.942   0.934   6.652
 3849POPC   C3A49313  20.786   1.161   6.997
 3849POPC   C4A49314  20.899   1.113   7.408
 3849POPC   C1B49315  20.497   1.434   6.171
 3849POPC   C2B49316  20.477   1.320   6.599
 3849POPC   C3B49317  20.406   1.521   7.008
 3849POPC   C4B49318  20.521   1.474   7.414
 3850POPC   NC349319  37.295  41.596   5.381
 3850POPC   PO449320  37.861  41.232   5.253
 3850POPC   GL149321  37.775  41.410   5.725
 3850POPC   GL249322  37.455  41.608   5.878
 3850POPC   C1A49323  37.827  41.474   6.199
 3850POPC   D2A49324  37.969  41.722   6.590
 3850POPC   C3A49325  37.752  41.593   6.972
 3850POPC   C4A49326  37.554  41.309   7.300
 3850POPC   C1B49327  37.482  41.846   6.305
 3850POPC   C2B49328  37.344  41.803   6.751
 3850POPC   C3B49329  37.364  41.780   7.257
 3850POPC   C4B49330  37.485  41.711   7.714
 3851POPC   NC349331  10.289   7.778   5.418
 3851POPC   PO449332  10.572   7.244   5.285
 3851POPC   GL149333  10.566   7.295   5.762
 3851POPC   GL249334  10.737   7.584   5.906
 3851POPC   C1A49335  10.622   7.195   6.226
 3851POPC   D2A49336  10.514   7.424   6.633
 3851POPC   C3A49337  10.513   7.240   7.049
 3851POPC   C4A49338  10.821   6.976   7.247
 3851POPC   C1B49339  10.392   7.680   6.180
 3851POPC   C2B49340  10.111   7.719   6.535
 3851POPC   C3B49341  10.161   7.671   6.992
 3851POPC   C4B49342  10.405   7.613   7.391
 3852POPC   NC349343  43.910  42.579   5.379
 3852POPC   PO449344  43.602  41.954   5.341
 3852POPC   GL149345  43.922  42.119   5.655
 3852POPC   GL249346  43.856  42.440   5.855
 3852POPC   C1A49347  44.121  42.047   6.060
 3852POPC   D2A49348  43.895  42.200   6.397
 3852POPC   C3A49349  44.094  42.199   6.782
 3852POPC   C4A49350  43.968  42.245   7.181
 3852POPC   C1B49351  44.063  42.657   6.190
 3852POPC   C2B49352  43.918  42.666   6.611
 3852POPC   C3B49353  43.912  42.724   7.020
 3852POPC   C4B49354  44.267  42.660   7.249
 3853POPC   NC349355  22.209  20.778   5.284
 3853POPC   PO449356  21.590  20.648   5.430
 3853POPC   GL149357  21.880  20.716   5.797
 3853POPC   GL249358  22.261  20.753   5.798
 3853POPC   C1A49359  21.868  20.917   6.225
 3853POPC   D2A49360  21.728  20.876   6.686
 3853POPC   C3A49361  22.017  20.756   7.018
 3853POPC   C4A49362  22.129  20.359   7.228
 3853POPC   C1B49363  22.388  20.886   6.215
 3853POPC   C2B49364  22.255  21.043   6.612
 3853POPC   C3B49365  22.524  20.924   6.960
 3853POPC   C4B49366  22.650  20.528   7.213
 3854POPC   NC349367  12.502   7.790   5.392
 3854POPC   PO449368  11.987   7.437   5.169
 3854POPC   GL149369  12.064   7.344   5.637
 3854POPC   GL249370  12.198   7.626   5.768
 3854POPC   C1A49371  12.019   7.288   6.118
 3854POPC   D2A49372  12.236   7.275   6.534
 3854POPC   C3A49373  12.033   7.250   6.942
 3854POPC   C4A49374  12.039   7.532   7.275
 3854POPC   C1B49375  12.338   7.803   6.166
 3854POPC   C2B49376  12.530   7.724   6.583
 3854POPC   C3B49377  12.457   7.632   7.032
 3854POPC   C4B49378  12.490   7.527   7.521
 3855POPC   NC349379   3.771  21.665   5.357
 3855POPC   PO449380   3.383  21.204   5.498
 3855POPC   GL149381   3.624  21.394   5.821
 3855POPC   GL249382   3.594  21.764   5.825
 3855POPC   C1A49383   3.716  21.215   6.234
 3855POPC   D2A49384   3.526  21.064   6.610
 3855POPC   C3A49385   3.524  21.243   7.027
 3855POPC   C4A49386   3.661  21.059   7.400
 3855POPC   C1B49387   3.924  21.672   6.143
 3855POPC   C2B49388   3.931  21.536   6.593
 3855POPC   C3B49389   3.756  21.714   7.007
 3855POPC   C4B49390   3.572  21.912   7.394
 3856POPC   NC349391  13.674  39.020   5.310
 3856POPC   PO449392  13.722  38.338   5.259
 3856POPC   GL149393  13.478  38.477   5.722
 3856POPC   GL249394  13.520  38.805   5.882
 3856POPC   C1A49395  13.545  38.426   6.203
 3856POPC   D2A49396  13.244  38.389   6.512
 3856POPC   C3A49397  13.322  38.304   6.938
 3856POPC   C4A49398  13.650  38.219   7.172
 3856POPC   C1B49399  13.306  38.856   6.317
 3856POPC   C2B49400  13.464  38.783   6.766
 3856POPC   C3B49401  13.667  38.749   7.192
 3856POPC   C4B49402  13.755  38.862   7.662
 3857POPC   NC349403  25.781  18.583   5.600
 3857POPC   PO449404  26.211  19.090   5.266
 3857POPC   GL149405  25.981  19.056   5.661
 3857POPC   GL249406  25.714  19.283   5.595
 3857POPC   C1A49407  26.049  19.029   6.123
 3857POPC   D2A49408  26.038  19.294   6.499
 3857POPC   C3A49409  26.200  19.157   6.895
 3857POPC   C4A49410  25.994  18.932   7.213
 3857POPC   C1B49411  25.660  19.384   6.043
 3857POPC   C2B49412  25.631  19.593   6.454
 3857POPC   C3B49413  25.626  19.355   6.853
 3857POPC   C4B49414  25.893  19.409   7.203
 3858POPC   NC349415   4.950  13.352   5.342
 3858POPC   PO449416   5.279  13.967   5.320
 3858POPC   GL149417   5.051  13.765   5.669
 3858POPC   GL249418   4.760  13.967   5.768
 3858POPC   C1A49419   5.017  13.454   6.043
 3858POPC   D2A49420   5.388  13.336   6.343
 3858POPC   C3A49421   5.356  13.352   6.811
 3858POPC   C4A49422   5.077  13.332   7.161
 3858POPC   C1B49423   5.057  13.937   6.158
 3858POPC   C2B49424   5.024  13.664   6.535
 3858POPC   C3B49425   5.016  13.781   6.965
 3858POPC   C4B49426   5.010  13.922   7.432
 3859POPC   NC349427   6.383  30.624   5.538
 3859POPC   PO449428   6.973  30.400   5.269
 3859POPC   GL149429   6.858  30.575   5.736
 3859POPC   GL249430   6.550  30.635   5.983
 3859POPC   C1A49431   6.909  30.952   6.073
 3859POPC   D2A49432   6.892  31.161   6.479
 3859POPC   C3A49433   6.790  30.938   6.798
 3859POPC   C4A49434   6.567  30.862   7.166
 3859POPC   C1B49435   6.284  30.797   6.225
 3859POPC   C2B49436   6.315  30.882   6.611
 3859POPC   C3B49437   6.274  30.559   6.880
 3859POPC   C4B49438   6.128  30.659   7.268
 3860POPC   NC349439  41.629  21.239   5.412
 3860POPC   PO449440  40.965  21.183   5.389
 3860POPC   GL149441  41.282  21.187   5.763
 3860POPC   GL249442  41.333  21.547   5.757
 3860POPC   C1A49443  41.547  21.196   6.146
 3860POPC   D2A49444  41.710  21.067   6.563
 3860POPC   C3A49445  41.511  21.196   6.945
 3860POPC   C4A49446  41.585  21.159   7.376
 3860POPC   C1B49447  41.212  21.618   6.190
 3860POPC   C2B49448  41.478  21.546   6.552
 3860POPC   C3B49449  41.862  21.652   6.780
 3860POPC   C4B49450  41.894  21.616   7.200
 3861POPC   NC349451  13.076  42.774   5.609
 3861POPC   PO449452  12.588  42.969   5.164
 3861POPC   GL149453  12.735  43.174   5.653
 3861POPC   GL249454  12.726  42.949   5.960
 3861POPC   C1A49455  12.949  43.347   6.126
 3861POPC   D2A49456  13.184  43.202   6.534
 3861POPC   C3A49457  12.944  43.128   6.945
 3861POPC   C4A49458  12.797  43.253   7.356
 3861POPC   C1B49459  12.516  42.813   6.299
 3861POPC   C2B49460  12.526  42.980   6.704
 3861POPC   C3B49461  12.496  42.907   7.122
 3861POPC   C4B49462  12.714  42.749   7.480
 3862POPC   NC349463   5.151   4.098   5.470
 3862POPC   PO449464   4.954   4.720   5.540
 3862POPC   GL149465   4.981   4.425   5.831
 3862POPC   GL249466   4.789   4.122   5.824
 3862POPC   C1A49467   5.128   4.255   6.193
 3862POPC   D2A49468   5.365   4.257   6.554
 3862POPC   C3A49469   5.253   4.259   6.967
 3862POPC   C4A49470   5.391   4.597   7.190
 3862POPC   C1B49471   4.683   3.972   6.228
 3862POPC   C2B49472   4.646   3.742   6.583
 3862POPC   C3B49473   4.939   3.733   6.901
 3862POPC   C4B49474   4.957   3.958   7.251
 3863POPC   NC349475   3.643  39.895   5.498
 3863POPC   PO449476   3.111  40.240   5.525
 3863POPC   GL149477   3.365  40.135   5.860
 3863POPC   GL249478   3.523  39.821   5.976
 3863POPC   C1A49479   3.404  40.316   6.228
 3863POPC   D2A49480   3.389  40.167   6.602
 3863POPC   C3A49481   3.589  40.142   6.960
 3863POPC   C4A49482   3.346  39.766   7.114
 3863POPC   C1B49483   3.842  40.068   6.162
 3863POPC   C2B49484   3.847  39.898   6.573
 3863POPC   C3B49485   3.836  39.689   6.943
 3863POPC   C4B49486   3.899  39.931   7.304
 3864POPC   NC349487  10.882   0.195   5.335
 3864POPC   PO449488  10.192   0.438   5.443
 3864POPC   GL149489  10.602   0.448   5.693
 3864POPC   GL249490  10.708   0.090   5.814
 3864POPC   C1A49491  10.672   0.735   6.061
 3864POPC   D2A49492  10.483   0.720   6.484
 3864POPC   C3A49493  10.704   0.662   6.891
 3864POPC   C4A49494  10.647   0.801   7.325
 3864POPC   C1B49495  10.436   0.280   6.148
 3864POPC   C2B49496  10.278   0.244   6.558
 3864POPC   C3B49497  10.260   0.407   6.970
 3864POPC   C4B49498  10.550   0.286   7.280
 3865POPC   NC349499  11.358  24.347   5.277
 3865POPC   PO449500  10.777  24.415   5.590
 3865POPC   GL149501  11.122  24.319   5.762
 3865POPC   GL249502  11.376  24.565   5.791
 3865POPC   C1A49503  11.064  24.252   6.175
 3865POPC   D2A49504  11.305  24.258   6.531
 3865POPC   C3A49505  11.037  24.121   6.820
 3865POPC   C4A49506  10.789  24.274   7.116
 3865POPC   C1B49507  11.259  24.723   6.246
 3865POPC   C2B49508  11.449  24.730   6.674
 3865POPC   C3B49509  11.456  24.534   7.098
 3865POPC   C4B49510  11.564  24.617   7.562
 3866POPC   NC349511   7.485  15.681   5.591
 3866POPC   PO449512   7.124  16.227   5.379
 3866POPC   GL149513   7.206  16.073   5.792
 3866POPC   GL249514   7.543  16.166   5.821
 3866POPC   C1A49515   7.347  15.822   6.189
 3866POPC   D2A49516   7.511  15.815   6.585
 3866POPC   C3A49517   7.222  15.954   6.876
 3866POPC   C4A49518   7.348  15.830   7.254
 3866POPC   C1B49519   7.371  16.358   6.198
 3866POPC   C2B49520   7.501  16.355   6.630
 3866POPC   C3B49521   7.626  16.240   7.061
 3866POPC   C4B49522   7.651  16.155   7.526
 3867POPC   NC349523  35.565  19.231   5.649
 3867POPC   PO449524  36.231  18.922   5.525
 3867POPC   GL149525  36.163  19.142   5.953
 3867POPC   GL249526  35.857  19.295   6.099
 3867POPC   C1A49527  36.233  19.088   6.396
 3867POPC   D2A49528  35.968  18.984   6.708
 3867POPC   C3A49529  36.190  18.858   7.039
 3867POPC   C4A49530  36.290  19.079   7.359
 3867POPC   C1B49531  36.120  19.572   6.322
 3867POPC   C2B49532  36.123  19.535   6.764
 3867POPC   C3B49533  35.937  19.353   7.114
 3867POPC   C4B49534  35.787  19.106   7.479
 3868POPC   NC349535  26.938  23.309   5.501
 3868POPC   PO449536  26.906  22.671   5.399
 3868POPC   GL149537  26.805  22.852   5.760
 3868POPC   GL249538  27.162  22.902   5.801
 3868POPC   C1A49539  26.792  23.079   6.139
 3868POPC   D2A49540  26.880  22.947   6.544
 3868POPC   C3A49541  26.922  23.196   6.866
 3868POPC   C4A49542  26.524  23.194   7.037
 3868POPC   C1B49543  27.262  22.866   6.216
 3868POPC   C2B49544  27.328  22.735   6.641
 3868POPC   C3B49545  27.054  22.698   6.999
 3868POPC   C4B49546  26.889  22.979   7.325
 3869POPC   NC349547  40.358  38.933   5.371
 3869POPC   PO449548  39.884  39.518   5.257
 3869POPC   GL149549  39.925  39.392   5.680
 3869POPC   GL249550  39.881  39.039   5.693
 3869POPC   C1A49551  39.836  39.334   6.121
 3869POPC   D2A49552  39.951  39.483   6.520
 3869POPC   C3A49553  39.918  39.412   6.956
 3869POPC   C4A49554  39.754  39.245   7.313
 3869POPC   C1B49555  40.148  38.924   6.061
 3869POPC   C2B49556  40.013  38.975   6.487
 3869POPC   C3B49557  39.922  38.881   6.910
 3869POPC   C4B49558  40.195  39.005   7.222
 3870POPC   NC349559   0.204  21.986   4.926
 3870POPC   PO449560   0.291  21.441   5.359
 3870POPC   GL149561   0.389  21.308   5.775
 3870POPC   GL249562   0.514  20.981   5.733
 3870POPC   C1A49563   0.476  21.320   6.219
 3870POPC   D2A49564   0.653  21.466   6.602
 3870POPC   C3A49565   0.359  21.418   6.918
 3870POPC   C4A49566   0.546  21.326   7.281
 3870POPC   C1B49567   0.809  20.969   6.081
 3870POPC   C2B49568   0.804  20.973   6.509
 3870POPC   C3B49569   0.864  21.089   6.931
 3870POPC   C4B49570   0.855  20.914   7.330
 3871POPC   NC349571  13.285  20.399   5.246
 3871POPC   PO449572  12.666  20.737   5.292
 3871POPC   GL149573  12.770  20.807   5.732
 3871POPC   GL249574  12.830  20.448   5.776
 3871POPC   C1A49575  12.979  20.758   6.170
 3871POPC   D2A49576  13.116  20.515   6.579
 3871POPC   C3A49577  12.942  20.599   7.020
 3871POPC   C4A49578  12.923  20.545   7.485
 3871POPC   C1B49579  12.781  20.272   6.207
 3871POPC   C2B49580  12.665  20.194   6.649
 3871POPC   C3B49581  12.570  20.231   7.109
 3871POPC   C4B49582  12.577  20.178   7.582
 3872POPC   NC349583  22.363  38.397   5.496
 3872POPC   PO449584  21.738  38.711   5.521
 3872POPC   GL149585  22.001  38.592   5.846
 3872POPC   GL249586  21.699  38.600   6.032
 3872POPC   C1A49587  22.091  38.363   6.234
 3872POPC   D2A49588  22.367  38.515   6.547
 3872POPC   C3A49589  22.346  38.622   6.967
 3872POPC   C4A49590  22.303  38.292   7.211
 3872POPC   C1B49591  21.706  38.669   6.448
 3872POPC   C2B49592  21.856  38.376   6.745
 3872POPC   C3B49593  21.835  38.519   7.139
 3872POPC   C4B49594  22.012  38.891   7.254
 3873POPC   NC349595  41.326  42.846   5.429
 3873POPC   PO449596  41.914  43.166   5.489
 3873POPC   GL149597  41.588  43.087   5.793
 3873POPC   GL249598  41.746  42.853   5.895
 3873POPC   C1A49599  41.322  42.983   6.144
 3873POPC   D2A49600  41.242  43.137   6.558
 3873POPC   C3A49601  41.309  42.876   6.910
 3873POPC   C4A49602  41.331  43.014   7.295
 3873POPC   C1B49603  41.804  43.120   6.259
 3873POPC   C2B49604  41.751  43.057   6.694
 3873POPC   C3B49605  41.827  43.190   7.101
 3873POPC   C4B49606  41.790  43.404   7.469
 3874POPC   NC349607  18.879  37.047   5.194
 3874POPC   PO449608  19.464  36.872   5.501
 3874POPC   GL149609  19.048  36.962   5.713
 3874POPC   GL249610  18.911  36.669   5.907
 3874POPC   C1A49611  18.878  37.151   6.121
 3874POPC   D2A49612  19.129  37.315   6.485
 3874POPC   C3A49613  19.065  37.143   6.922
 3874POPC   C4A49614  19.315  37.027   7.290
 3874POPC   C1B49615  18.961  36.553   6.320
 3874POPC   C2B49616  19.165  36.685   6.686
 3874POPC   C3B49617  19.062  36.643   7.085
 3874POPC   C4B49618  18.936  36.412   7.422
 3875POPC   NC349619  27.359  38.105   5.510
 3875POPC   PO449620  27.162  37.501   5.510
 3875POPC   GL149621  26.825  37.579   5.778
 3875POPC   GL249622  26.723  37.262   5.884
 3875POPC   C1A49623  26.815  37.720   6.205
 3875POPC   D2A49624  26.780  37.916   6.604
 3875POPC   C3A49625  27.010  37.783   6.950
 3875POPC   C4A49626  26.846  37.776   7.357
 3875POPC   C1B49627  26.508  37.295   6.219
 3875POPC   C2B49628  26.405  37.568   6.546
 3875POPC   C3B49629  26.584  37.515   6.957
 3875POPC   C4B49630  26.531  37.173   7.234
 3876POPC   NC349631   4.825  17.108   5.400
 3876POPC   PO449632   5.130  16.552   5.387
 3876POPC   GL149633   4.997  16.700   5.773
 3876POPC   GL249634   5.217  17.002   5.759
 3876POPC   C1A49635   5.203  16.685   6.185
 3876POPC   D2A49636   5.286  16.417   6.542
 3876POPC   C3A49637   5.213  16.648   6.904
 3876POPC   C4A49638   4.894  16.664   7.162
 3876POPC   C1B49639   4.902  17.103   6.087
 3876POPC   C2B49640   4.974  17.016   6.525
 3876POPC   C3B49641   4.794  17.173   6.902
 3876POPC   C4B49642   4.939  17.158   7.295
 3877POPC   NC349643  24.153  23.762   5.348
 3877POPC   PO449644  24.745  23.527   5.466
 3877POPC   GL149645  24.484  23.769   5.749
 3877POPC   GL249646  24.241  23.483   5.783
 3877POPC   C1A49647  24.302  23.839   6.165
 3877POPC   D2A49648  24.295  23.630   6.576
 3877POPC   C3A49649  24.304  23.865   6.963
 3877POPC   C4A49650  24.190  23.837   7.392
 3877POPC   C1B49651  24.560  23.362   6.118
 3877POPC   C2B49652  24.799  23.486   6.496
 3877POPC   C3B49653  24.782  23.672   6.897
 3877POPC   C4B49654  24.674  23.741   7.315
 3878POPC   NC349655  44.834  19.967   5.354
 3878POPC   PO449656  44.199  19.669   5.572
 3878POPC   GL149657  44.519  19.834   5.768
 3878POPC   GL249658  44.832  19.655   5.785
 3878POPC   C1A49659  44.606  20.010   6.174
 3878POPC   D2A49660  44.866  20.019   6.512
 3878POPC   C3A49661  44.728  20.158   6.889
 3878POPC   C4A49662  44.739  20.213   7.310
 3878POPC   C1B49663  44.807  19.553   6.249
 3878POPC   C2B49664  44.772  19.553   6.726
 3878POPC   C3B49665  44.941  19.736   7.126
 3878POPC   C4B49666   0.085  19.901   7.544
 3879POPC   NC349667  29.477   1.699   5.570
 3879POPC   PO449668  28.997   2.024   5.161
 3879POPC   GL149669  29.039   2.080   5.680
 3879POPC   GL249670  28.991   1.760   5.855
 3879POPC   C1A49671  29.033   2.220   6.106
 3879POPC   D2A49672  29.053   2.038   6.493
 3879POPC   C3A49673  29.260   2.258   6.778
 3879POPC   C4A49674  29.027   2.011   7.047
 3879POPC   C1B49675  29.368   1.824   6.162
 3879POPC   C2B49676  29.485   1.745   6.558
 3879POPC   C3B49677  29.243   1.575   6.851
 3879POPC   C4B49678  29.116   1.567   7.250
 3880POPC   NC349679   6.041   5.556   5.182
 3880POPC   PO449680   5.664   5.929   5.552
 3880POPC   GL149681   5.839   6.023   5.946
 3880POPC   GL249682   6.201   6.050   5.876
 3880POPC   C1A49683   5.773   5.838   6.352
 3880POPC   D2A49684   5.509   5.960   6.694
 3880POPC   C3A49685   5.679   5.894   7.065
 3880POPC   C4A49686   6.043   5.630   7.103
 3880POPC   C1B49687   6.181   6.186   6.310
 3880POPC   C2B49688   6.091   6.025   6.734
 3880POPC   C3B49689   6.198   6.153   7.149
 3880POPC   C4B49690   6.279   6.331   7.589
 3881POPC   NC349691   8.980  29.648   5.401
 3881POPC   PO449692   8.513  30.078   5.405
 3881POPC   GL149693   8.841  30.076   5.693
 3881POPC   GL249694   9.140  30.141   5.517
 3881POPC   C1A49695   8.880  29.811   6.078
 3881POPC   D2A49696   8.790  29.711   6.514
 3881POPC   C3A49697   8.772  29.564   6.941
 3881POPC   C4A49698   9.053  29.517   7.256
 3881POPC   C1B49699   9.236  30.156   6.006
 3881POPC   C2B49700   9.305  29.875   6.397
 3881POPC   C3B49701   9.176  29.890   6.855
 3881POPC   C4B49702   9.114  30.049   7.276
 3882POPC   NC349703  17.174  19.743   5.517
 3882POPC   PO449704  17.369  20.228   5.242
 3882POPC   GL149705  17.637  19.994   5.624
 3882POPC   GL249706  17.595  19.639   5.779
 3882POPC   C1A49707  17.766  20.008   6.097
 3882POPC   D2A49708  17.689  20.209   6.531
 3882POPC   C3A49709  17.850  20.063   6.936
 3882POPC   C4A49710  17.606  20.127   7.293
 3882POPC   C1B49711  17.252  19.576   6.143
 3882POPC   C2B49712  17.045  19.474   6.568
 3882POPC   C3B49713  17.202  19.523   7.013
 3882POPC   C4B49714  17.661  19.609   7.111
 3883POPC   NC349715  19.376  35.527   5.577
 3883POPC   PO449716  18.825  35.098   5.463
 3883POPC   GL149717  18.957  35.284   5.822
 3883POPC   GL249718  19.047  34.959   5.911
 3883POPC   C1A49719  18.979  35.606   6.164
 3883POPC   D2A49720  18.796  35.702   6.598
 3883POPC   C3A49721  18.936  35.470   6.966
 3883POPC   C4A49722  19.227  35.352   7.282
 3883POPC   C1B49723  19.271  35.188   6.215
 3883POPC   C2B49724  19.133  35.177   6.607
 3883POPC   C3B49725  19.190  34.904   6.952
 3883POPC   C4B49726  19.427  34.871   7.320
 3884POPC   NC349727   8.435  23.095   5.554
 3884POPC   PO449728   8.024  22.575   5.470
 3884POPC   GL149729   8.150  22.815   5.858
 3884POPC   GL249730   7.952  23.085   6.000
 3884POPC   C1A49731   8.272  22.811   6.283
 3884POPC   D2A49732   8.350  23.019   6.633
 3884POPC   C3A49733   8.344  22.813   6.987
 3884POPC   C4A49734   8.104  22.747   7.323
 3884POPC   C1B49735   8.202  23.353   6.261
 3884POPC   C2B49736   8.075  23.469   6.675
 3884POPC   C3B49737   7.994  23.199   7.023
 3884POPC   C4B49738   8.195  23.238   7.435
 3885POPC   NC349739  20.468   0.573   5.542
 3885POPC   PO449740  19.878   0.611   5.255
 3885POPC   GL149741  19.917   0.568   5.721
 3885POPC   GL249742  19.607   0.437   5.862
 3885POPC   C1A49743  19.930   0.721   6.184
 3885POPC   D2A49744  19.748   0.709   6.613
 3885POPC   C3A49745  19.981   0.541   6.989
 3885POPC   C4A49746  19.902   0.319   7.420
 3885POPC   C1B49747  19.707   0.263   6.280
 3885POPC   C2B49748  19.675   0.206   6.721
 3885POPC   C3B49749  19.721  44.970   7.099
 3885POPC   C4B49750  19.592  44.875   7.536
 3886POPC   NC349751  39.144  18.785   5.444
 3886POPC   PO449752  39.463  19.337   5.121
 3886POPC   GL149753  39.460  19.156   5.629
 3886POPC   GL249754  39.543  18.769   5.752
 3886POPC   C1A49755  39.187  19.178   6.057
 3886POPC   D2A49756  39.152  19.277   6.541
 3886POPC   C3A49757  39.050  19.257   6.998
 3886POPC   C4A49758  39.230  19.287   7.428
 3886POPC   C1B49759  39.562  18.865   6.187
 3886POPC   C2B49760  39.373  18.815   6.596
 3886POPC   C3B49761  39.453  18.881   7.048
 3886POPC   C4B49762  39.626  18.905   7.488
 3887POPC   NC349763  16.191   4.673   5.570
 3887POPC   PO449764  15.832   5.166   5.512
 3887POPC   GL149765  16.053   5.153   5.882
 3887POPC   GL249766  15.904   5.474   5.974
 3887POPC   C1A49767  16.429   4.992   6.101
 3887POPC   D2A49768  16.540   4.877   6.506
 3887POPC   C3A49769  16.291   5.110   6.789
 3887POPC   C4A49770  16.331   5.087   7.212
 3887POPC   C1B49771  15.876   5.278   6.414
 3887POPC   C2B49772  15.752   5.030   6.796
 3887POPC   C3B49773  15.695   5.069   7.249
 3887POPC   C4B49774  15.618   5.447   7.483
 3888POPC   NC349775  21.845   2.287   5.462
 3888POPC   PO449776  21.158   1.972   5.308
 3888POPC   GL149777  21.365   1.776   5.687
 3888POPC   GL249778  21.493   2.107   5.782
 3888POPC   C1A49779  21.460   1.811   6.182
 3888POPC   D2A49780  21.270   1.940   6.602
 3888POPC   C3A49781  21.459   1.699   6.947
 3888POPC   C4A49782  21.714   1.706   7.321
 3888POPC   C1B49783  21.653   2.301   6.184
 3888POPC   C2B49784  21.641   2.456   6.622
 3888POPC   C3B49785  21.578   2.216   7.008
 3888POPC   C4B49786  21.390   2.461   7.355
 3889POPC   NC349787   0.576  39.666   5.446
 3889POPC   PO449788   0.456  39.034   5.417
 3889POPC   GL149789   0.413  39.276   5.773
 3889POPC   GL249790   0.733  39.410   5.858
 3889POPC   C1A49791   0.383  39.337   6.231
 3889POPC   D2A49792   0.519  39.096   6.581
 3889POPC   C3A49793   0.251  39.051   6.903
 3889POPC   C4A49794   0.131  39.293   7.190
 3889POPC   C1B49795   0.887  39.293   6.249
 3889POPC   C2B49796   0.786  39.519   6.649
 3889POPC   C3B49797   0.685  39.337   7.047
 3889POPC   C4B49798   0.924  39.359   7.414
 3890POPC   NC349799  18.245  26.269   5.440
 3890POPC   PO449800  17.882  25.695   5.343
 3890POPC   GL149801  17.978  25.789   5.820
 3890POPC   GL249802  18.151  26.135   5.923
 3890POPC   C1A49803  18.102  25.757   6.284
 3890POPC   D2A49804  18.365  25.767   6.682
 3890POPC   C3A49805  18.107  25.760   7.064
 3890POPC   C4A49806  18.105  26.117   7.336
 3890POPC   C1B49807  18.532  26.302   6.170
 3890POPC   C2B49808  18.663  26.445   6.592
 3890POPC   C3B49809  18.427  26.297   6.924
 3890POPC   C4B49810  18.379  26.530   7.270
 3891POPC   NC349811   6.189  37.536   5.345
 3891POPC   PO449812   5.803  38.070   5.395
 3891POPC   GL149813   6.017  37.866   5.744
 3891POPC   GL249814   5.694  37.722   5.826
 3891POPC   C1A49815   6.100  37.681   6.183
 3891POPC   D2A49816   5.987  37.431   6.565
 3891POPC   C3A49817   6.108  37.514   7.008
 3891POPC   C4A49818   5.997  37.304   7.410
 3891POPC   C1B49819   5.660  37.938   6.214
 3891POPC   C2B49820   5.685  37.829   6.625
 3891POPC   C3B49821   5.598  37.670   6.987
 3891POPC   C4B49822   5.694  37.704   7.373
 3892POPC   NC349823   2.245  12.089   5.422
 3892POPC   PO449824   1.642  11.931   5.598
 3892POPC   GL149825   1.966  12.129   5.856
 3892POPC   GL249826   2.206  12.421   5.817
 3892POPC   C1A49827   2.072  12.006   6.271
 3892POPC   D2A49828   1.793  11.882   6.591
 3892POPC   C3A49829   1.773  12.145   6.936
 3892POPC   C4A49830   1.824  11.895   7.296
 3892POPC   C1B49831   2.003  12.507   6.203
 3892POPC   C2B49832   2.138  12.407   6.618
 3892POPC   C3B49833   2.312  12.409   7.016
 3892POPC   C4B49834   2.267  12.222   7.397
 3893POPC   NC349835  21.665  32.042   5.316
 3893POPC   PO449836  21.236  32.592   5.254
 3893POPC   GL149837  21.426  32.382   5.647
 3893POPC   GL249838  21.221  32.132   5.770
 3893POPC   C1A49839  21.481  32.405   6.141
 3893POPC   D2A49840  21.646  32.215   6.556
 3893POPC   C3A49841  21.696  32.340   7.003
 3893POPC   C4A49842  21.618  32.119   7.421
 3893POPC   C1B49843  20.971  32.176   6.115
 3893POPC   C2B49844  20.856  32.384   6.497
 3893POPC   C3B49845  21.150  32.422   6.823
 3893POPC   C4B49846  21.173  32.282   7.215
 3894POPC   NC349847  33.541  12.082   5.414
 3894POPC   PO449848  34.208  11.861   5.225
 3894POPC   GL149849  33.997  12.027   5.643
 3894POPC   GL249850  33.770  11.768   5.763
 3894POPC   C1A49851  33.861  12.297   6.060
 3894POPC   D2A49852  34.039  12.350   6.486
 3894POPC   C3A49853  33.799  12.341   6.883
 3894POPC   C4A49854  33.882  12.286   7.329
 3894POPC   C1B49855  34.005  11.832   6.168
 3894POPC   C2B49856  33.828  11.884   6.601
 3894POPC   C3B49857  33.837  11.839   7.046
 3894POPC   C4B49858  33.539  11.791   7.360
 3895POPC   NC349859  39.607  29.230   5.355
 3895POPC   PO449860  40.175  28.872   5.598
 3895POPC   GL149861  39.981  29.036   5.940
 3895POPC   GL249862  39.601  29.116   5.861
 3895POPC   C1A49863  40.182  29.060   6.365
 3895POPC   D2A49864  40.138  28.926   6.787
 3895POPC   C3A49865  40.064  29.105   7.202
 3895POPC   C4A49866  40.084  28.932   7.610
 3895POPC   C1B49867  39.679  29.322   6.245
 3895POPC   C2B49868  39.760  29.297   6.640
 3895POPC   C3B49869  39.559  29.599   6.877
 3895POPC   C4B49870  39.770  29.562   7.242
 3896POPC   NC349871  23.178  36.346   5.564
 3896POPC   PO449872  22.651  35.964   5.506
 3896POPC   GL149873  22.874  36.004   5.862
 3896POPC   GL249874  22.868  36.347   5.975
 3896POPC   C1A49875  22.984  35.902   6.283
 3896POPC   D2A49876  22.742  35.848   6.670
 3896POPC   C3A49877  22.996  35.924   7.037
 3896POPC   C4A49878  22.982  36.095   7.453
 3896POPC   C1B49879  22.746  36.346   6.404
 3896POPC   C2B49880  22.677  36.329   6.858
 3896POPC   C3B49881  22.529  36.144   7.243
 3896POPC   C4B49882  22.545  36.278   7.709
 3897POPC   NC349883  20.211  32.356   5.370
 3897POPC   PO449884  19.606  31.954   5.388
 3897POPC   GL149885  19.865  32.169   5.751
 3897POPC   GL249886  20.095  32.477   5.840
 3897POPC   C1A49887  19.977  32.103   6.211
 3897POPC   D2A49888  20.213  32.149   6.626
 3897POPC   C3A49889  19.906  32.081   6.931
 3897POPC   C4A49890  19.853  31.875   7.278
 3897POPC   C1B49891  19.948  32.626   6.208
 3897POPC   C2B49892  19.805  32.463   6.601
 3897POPC   C3B49893  19.765  32.566   7.050
 3897POPC   C4B49894  19.922  32.348   7.428
 3898POPC   NC349895  42.308   5.595   5.463
 3898POPC   PO449896  42.778   6.053   5.548
 3898POPC   GL149897  42.528   5.879   5.842
 3898POPC   GL249898  42.201   6.000   5.773
 3898POPC   C1A49899  42.441   5.991   6.266
 3898POPC   D2A49900  42.372   6.285   6.572
 3898POPC   C3A49901  42.324   6.083   6.957
 3898POPC   C4A49902  42.648   5.800   7.098
 3898POPC   C1B49903  42.020   5.748   6.118
 3898POPC   C2B49904  42.075   5.524   6.494
 3898POPC   C3B49905  42.035   5.639   6.903
 3898POPC   C4B49906  42.149   5.650   7.302
 3899POPC   NC349907  27.342  43.856   5.487
 3899POPC   PO449908  27.912  44.176   5.410
 3899POPC   GL149909  27.707  44.091   5.786
 3899POPC   GL249910  27.668  43.730   5.882
 3899POPC   C1A49911  27.602  44.173   6.201
 3899POPC   D2A49912  27.601  43.974   6.603
 3899POPC   C3A49913  27.658  44.190   7.001
 3899POPC   C4A49914  27.732  43.830   7.215
 3899POPC   C1B49915  27.293  43.755   6.155
 3899POPC   C2B49916  27.136  43.715   6.560
 3899POPC   C3B49917  27.200  43.885   6.958
 3899POPC   C4B49918  27.264  43.707   7.334
 3900POPC   NC349919  26.483  11.708   5.398
 3900POPC   PO449920  26.670  11.002   5.411
 3900POPC   GL149921  26.623  11.084   5.824
 3900POPC   GL249922  26.541  11.450   5.828
 3900POPC   C1A49923  26.768  11.218   6.226
 3900POPC   D2A49924  26.899  11.423   6.613
 3900POPC   C3A49925  26.755  11.244   6.977
 3900POPC   C4A49926  26.882  11.053   7.332
 3900POPC   C1B49927  26.488  11.655   6.265
 3900POPC   C2B49928  26.403  11.568   6.722
 3900POPC   C3B49929  26.417  11.534   7.195
 3900POPC   C4B49930  26.527  11.460   7.687
 3901POPC   NC349931  35.705  35.180   5.582
 3901POPC   PO449932  35.409  35.804   5.392
 3901POPC   GL149933  35.326  35.497   5.760
 3901POPC   GL249934  34.993  35.441   5.703
 3901POPC   C1A49935  35.380  35.253   6.201
 3901POPC   D2A49936  35.489  35.352   6.621
 3901POPC   C3A49937  35.549  35.215   7.082
 3901POPC   C4A49938  35.501  35.279   7.539
 3901POPC   C1B49939  34.926  35.463   6.134
 3901POPC   C2B49940  34.963  35.287   6.544
 3901POPC   C3B49941  35.090  35.398   6.920
 3901POPC   C4B49942  35.215  35.628   7.255
 3902POPC   NC349943  39.823  35.059   5.608
 3902POPC   PO449944  40.208  35.538   5.283
 3902POPC   GL149945  40.221  35.395   5.741
 3902POPC   GL249946  39.887  35.445   5.895
 3902POPC   C1A49947  40.234  35.241   6.212
 3902POPC   D2A49948  40.348  35.219   6.666
 3902POPC   C3A49949  40.024  35.058   6.952
 3902POPC   C4A49950  39.690  35.119   7.256
 3902POPC   C1B49951  39.908  35.628   6.257
 3902POPC   C2B49952  39.867  35.430   6.621
 3902POPC   C3B49953  39.899  35.563   7.042
 3902POPC   C4B49954  40.275  35.498   7.271
 3903POPC   NC349955  16.874  37.702   5.462
 3903POPC   PO449956  16.299  37.824   5.195
 3903POPC   GL149957  16.432  37.668   5.685
 3903POPC   GL249958  16.444  37.350   5.833
 3903POPC   C1A49959  16.675  37.734   6.103
 3903POPC   D2A49960  16.512  37.769   6.545
 3903POPC   C3A49961  16.720  37.870   6.943
 3903POPC   C4A49962  16.967  37.530   7.158
 3903POPC   C1B49963  16.403  37.326   6.288
 3903POPC   C2B49964  16.268  37.364   6.719
 3903POPC   C3B49965  16.425  37.501   7.139
 3903POPC   C4B49966  16.366  37.462   7.612
 3904POPC   NC349967  37.895   1.296   5.590
 3904POPC   PO449968  37.461   1.835   5.437
 3904POPC   GL149969  37.410   1.608   5.859
 3904POPC   GL249970  37.314   1.267   5.909
 3904POPC   C1A49971  37.668   1.426   6.212
 3904POPC   D2A49972  37.834   1.053   6.406
 3904POPC   C3A49973  37.856   1.064   6.869
 3904POPC   C4A49974  37.566   1.326   7.143
 3904POPC   C1B49975  37.310   1.057   6.305
 3904POPC   C2B49976  37.360   1.012   6.745
 3904POPC   C3B49977  37.482   0.727   7.076
 3904POPC   C4B49978  37.377   0.690   7.550
 3905POPC   NC349979   8.397  41.755   5.095
 3905POPC   PO449980   7.896  41.383   5.359
 3905POPC   GL149981   7.906  41.540   5.770
 3905POPC   GL249982   8.262  41.618   5.717
 3905POPC   C1A49983   7.955  41.443   6.206
 3905POPC   D2A49984   8.239  41.441   6.557
 3905POPC   C3A49985   8.159  41.356   7.010
 3905POPC   C4A49986   8.414  41.355   7.400
 3905POPC   C1B49987   8.200  41.878   6.084
 3905POPC   C2B49988   8.359  41.969   6.484
 3905POPC   C3B49989   8.250  41.842   6.882
 3905POPC   C4B49990   8.305  41.845   7.287
 3906POPC   NC349991  13.876  23.892   5.101
 3906POPC   PO449992  13.417  23.715   5.577
 3906POPC   GL149993  13.592  23.612   5.932
 3906POPC   GL249994  13.861  23.416   5.792
 3906POPC   C1A49995  13.599  23.746   6.325
 3906POPC   D2A49996  13.535  23.612   6.706
 3906POPC   C3A49997  13.465  23.951   6.974
 3906POPC   C4A49998  13.235  23.904   7.340
 3906POPC   C1B49999  14.061  23.530   6.177
 3906POPC   C2B50000  14.043  23.534   6.593
 3906POPC   C3B50001  13.922  23.502   7.006
 3906POPC   C4B50002  13.679  23.639   7.320
 3907POPC   NC350003   1.241  18.923   5.598
 3907POPC   PO450004   1.263  19.603   5.485
 3907POPC   GL150005   1.172  19.347   5.871
 3907POPC   GL250006   0.941  19.044   5.995
 3907POPC   C1A50007   1.473  19.146   6.168
 3907POPC   D2A50008   1.532  19.328   6.549
 3907POPC   C3A50009   1.635  19.157   6.928
 3907POPC   C4A50010   1.671  19.349   7.278
 3907POPC   C1B50011   1.020  19.160   6.437
 3907POPC   C2B50012   1.119  19.028   6.876
 3907POPC   C3B50013   0.951  18.997   7.308
 3907POPC   C4B50014   0.826  18.827   7.728
 3908POPC   NC350015  13.356   8.197   5.257
 3908POPC   PO450016  12.638   8.196   5.193
 3908POPC   GL150017  12.742   8.139   5.666
 3908POPC   GL250018  13.101   8.196   5.742
 3908POPC   C1A50019  12.674   8.213   6.120
 3908POPC   D2A50020  12.625   8.381   6.533
 3908POPC   C3A50021  12.620   8.138   6.893
 3908POPC   C4A50022  12.694   8.408   7.249
 3908POPC   C1B50023  13.204   8.233   6.193
 3908POPC   C2B50024  13.065   8.117   6.608
 3908POPC   C3B50025  13.119   8.187   7.046
 3908POPC   C4B50026  13.179   8.544   7.190
 3909POPC   NC350027  31.516   5.473   5.620
 3909POPC   PO450028  31.254   5.980   5.222
 3909POPC   GL150029  31.449   5.983   5.654
 3909POPC   GL250030  31.725   6.189   5.691
 3909POPC   C1A50031  31.376   5.855   6.118
 3909POPC   D2A50032  31.509   5.564   6.430
 3909POPC   C3A50033  31.647   5.714   6.826
 3909POPC   C4A50034  31.445   5.866   7.204
 3909POPC   C1B50035  31.731   6.186   6.108
 3909POPC   C2B50036  31.869   6.063   6.518
 3909POPC   C3B50037  31.736   6.204   6.948
 3909POPC   C4B50038  31.851   6.404   7.341
 3910POPC   NC350039  28.665   1.885   5.445
 3910POPC   PO450040  28.009   1.901   5.563
 3910POPC   GL150041  28.314   1.913   5.925
 3910POPC   GL250042  28.564   2.146   5.881
 3910POPC   C1A50043  28.653   1.808   6.259
 3910POPC   D2A50044  28.761   1.593   6.673
 3910POPC   C3A50045  28.600   1.690   7.104
 3910POPC   C4A50046  28.164   1.716   7.296
 3910POPC   C1B50047  28.567   2.319   6.312
 3910POPC   C2B50048  28.601   2.105   6.711
 3910POPC   C3B50049  28.202   1.962   6.854
 3910POPC   C4B50050  27.898   2.187   7.096
 3911POPC   NC350051  30.674   8.006   5.528
 3911POPC   PO450052  30.742   8.607   5.145
 3911POPC   GL150053  30.726   8.505   5.659
 3911POPC   GL250054  30.427   8.383   5.818
 3911POPC   C1A50055  30.951   8.280   6.063
 3911POPC   D2A50056  30.929   8.009   6.465
 3911POPC   C3A50057  30.690   8.195   6.816
 3911POPC   C4A50058  30.875   8.404   7.181
 3911POPC   C1B50059  30.470   8.191   6.241
 3911POPC   C2B50060  30.227   8.071   6.595
 3911POPC   C3B50061  30.289   7.887   6.980
 3911POPC   C4B50062  30.478   8.114   7.276
 3912POPC   NC350063  18.691  35.570   5.491
 3912POPC   PO450064  18.219  35.035   5.457
 3912POPC   GL150065  18.378  35.252   5.785
 3912POPC   GL250066  18.527  34.972   5.899
 3912POPC   C1A50067  18.220  35.260   6.224
 3912POPC   D2A50068  17.950  35.075   6.557
 3912POPC   C3A50069  18.076  35.267   6.947
 3912POPC   C4A50070  18.357  35.637   7.060
 3912POPC   C1B50071  18.717  35.179   6.267
 3912POPC   C2B50072  18.523  35.255   6.670
 3912POPC   C3B50073  18.553  35.129   7.086
 3912POPC   C4B50074  18.873  35.013   7.359
 3913POPC   NC350075  24.345   4.342   5.424
 3913POPC   PO450076  24.980   4.710   5.491
 3913POPC   GL150077  24.763   4.588   5.850
 3913POPC   GL250078  24.648   4.243   5.857
 3913POPC   C1A50079  24.565   4.567   6.264
 3913POPC   D2A50080  24.771   4.337   6.619
 3913POPC   C3A50081  24.693   4.514   7.035
 3913POPC   C4A50082  24.287   4.569   7.229
 3913POPC   C1B50083  24.491   4.069   6.244
 3913POPC   C2B50084  24.255   4.168   6.610
 3913POPC   C3B50085  24.402   4.104   7.021
 3913POPC   C4B50086  24.255   4.105   7.457
 3914POPC   NC350087  40.795  41.294   5.381
 3914POPC   PO450088  40.674  42.003   5.467
 3914POPC   GL150089  40.791  41.729   5.809
 3914POPC   GL250090  40.625  41.390   5.838
 3914POPC   C1A50091  40.703  41.684   6.262
 3914POPC   D2A50092  40.576  41.473   6.616
 3914POPC   C3A50093  40.668  41.639   7.014
 3914POPC   C4A50094  40.567  41.474   7.391
 3914POPC   C1B50095  40.982  41.276   6.093
 3914POPC   C2B50096  41.015  41.142   6.523
 3914POPC   C3B50097  40.753  41.076   6.898
 3914POPC   C4B50098  40.947  41.126   7.277
 3915POPC   NC350099  40.743  18.148   5.444
 3915POPC   PO450100  40.866  18.895   5.630
 3915POPC   GL150101  40.875  18.510   5.867
 3915POPC   GL250102  41.054  18.183   5.837
 3915POPC   C1A50103  40.696  18.298   6.248
 3915POPC   D2A50104  40.545  18.095   6.656
 3915POPC   C3A50105  40.701  18.313   7.025
 3915POPC   C4A50106  40.938  18.641   7.258
 3915POPC   C1B50107  41.132  18.025   6.226
 3915POPC   C2B50108  41.070  18.209   6.642
 3915POPC   C3B50109  41.186  18.143   7.061
 3915POPC   C4B50110  41.339  17.846   7.352
 3916POPC   NC350111   8.563  33.788   5.467
 3916POPC   PO450112   7.900  33.688   5.345
 3916POPC   GL150113   8.010  33.561   5.783
 3916POPC   GL250114   8.371  33.482   5.829
 3916POPC   C1A50115   8.051  33.577   6.255
 3916POPC   D2A50116   8.341  33.845   6.579
 3916POPC   C3A50117   8.132  33.922   6.993
 3916POPC   C4A50118   7.833  33.597   7.159
 3916POPC   C1B50119   8.536  33.466   6.252
 3916POPC   C2B50120   8.685  33.421   6.665
 3916POPC   C3B50121   8.576  33.605   7.035
 3916POPC   C4B50122   8.637  34.009   7.109
 3917POPC   NC350123  27.762   4.684   5.503
 3917POPC   PO450124  27.852   4.051   5.347
 3917POPC   GL150125  27.635   4.163   5.740
 3917POPC   GL250126  27.967   4.103   5.874
 3917POPC   C1A50127  27.558   4.442   6.136
 3917POPC   D2A50128  27.334   4.392   6.531
 3917POPC   C3A50129  27.512   4.474   6.933
 3917POPC   C4A50130  27.562   4.211   7.266
 3917POPC   C1B50131  27.718   3.979   6.237
 3917POPC   C2B50132  27.734   4.085   6.640
 3917POPC   C3B50133  27.969   4.207   6.930
 3917POPC   C4B50134  28.065   4.256   7.328
 3918POPC   NC350135  27.525   0.741   5.363
 3918POPC   PO450136  27.656   0.121   5.208
 3918POPC   GL150137  27.705   0.397   5.657
 3918POPC   GL250138  27.375   0.469   5.777
 3918POPC   C1A50139  27.798   0.506   6.095
 3918POPC   D2A50140  27.588   0.502   6.529
 3918POPC   C3A50141  27.803   0.465   6.926
 3918POPC   C4A50142  27.620   0.596   7.231
 3918POPC   C1B50143  27.258   0.312   6.182
 3918POPC   C2B50144  27.259   0.052   6.529
 3918POPC   C3B50145  27.292   0.231   6.885
 3918POPC   C4B50146  27.447   0.123   7.244
 3919POPC   NC350147  38.754  22.884   5.486
 3919POPC   PO450148  38.089  23.075   5.554
 3919POPC   GL150149  38.410  23.123   5.857
 3919POPC   GL250150  38.488  22.765   5.899
 3919POPC   C1A50151  38.528  23.050   6.304
 3919POPC   D2A50152  38.404  22.799   6.650
 3919POPC   C3A50153  38.484  23.018   7.027
 3919POPC   C4A50154  38.233  23.319   7.252
 3919POPC   C1B50155  38.090  22.798   6.151
 3919POPC   C2B50156  37.939  22.592   6.525
 3919POPC   C3B50157  37.933  22.758   6.928
 3919POPC   C4B50158  38.135  22.786   7.314
 3920POPC   NC350159  43.080  44.031   5.330
 3920POPC   PO450160  43.398  43.463   5.145
 3920POPC   GL150161  43.269  43.664   5.641
 3920POPC   GL250162  43.324  44.042   5.771
 3920POPC   C1A50163  43.047  43.731   6.064
 3920POPC   D2A50164  43.200  43.729   6.496
 3920POPC   C3A50165  43.021  43.849   6.881
 3920POPC   C4A50166  42.715  43.630   7.118
 3920POPC   C1B50167  43.294  44.179   6.191
 3920POPC   C2B50168  43.541  44.127   6.571
 3920POPC   C3B50169  43.423  44.196   6.979
 3920POPC   C4B50170  43.161  44.114   7.296
 3921POPC   NC350171  39.536  43.234   5.566
 3921POPC   PO450172  40.211  43.105   5.385
 3921POPC   GL150173  40.097  43.285   5.745
 3921POPC   GL250174  40.401  43.468   5.720
 3921POPC   C1A50175  40.005  43.106   6.174
 3921POPC   D2A50176  40.237  43.000   6.562
 3921POPC   C3A50177  39.967  43.074   6.925
 3921POPC   C4A50178  39.673  42.984   7.276
 3921POPC   C1B50179  40.411  43.413   6.142
 3921POPC   C2B50180  40.193  43.547   6.479
 3921POPC   C3B50181  40.325  43.430   6.862
 3921POPC   C4B50182  40.354  43.204   7.235
 3922POPC   NC350183   3.606  18.996   5.371
 3922POPC   PO450184   3.250  18.440   5.229
 3922POPC   GL150185   3.339  18.703   5.700
 3922POPC   GL250186   3.661  18.950   5.855
 3922POPC   C1A50187   3.260  18.935   6.137
 3922POPC   D2A50188   3.301  19.263   6.446
 3922POPC   C3A50189   3.209  19.095   6.837
 3922POPC   C4A50190   3.451  18.976   7.198
 3922POPC   C1B50191   3.793  18.857   6.276
 3922POPC   C2B50192   3.738  19.060   6.693
 3922POPC   C3B50193   3.919  19.107   7.101
 3922POPC   C4B50194   4.114  18.839   7.387
 3923POPC   NC350195  20.722  16.824   5.442
 3923POPC   PO450196  20.120  17.053   5.331
 3923POPC   GL150197  20.288  16.843   5.736
 3923POPC   GL250198  20.385  16.499   5.699
 3923POPC   C1A50199  20.648  16.763   6.067
 3923POPC   D2A50200  20.888  16.660   6.439
 3923POPC   C3A50201  21.005  16.899   6.804
 3923POPC   C4A50202  20.796  16.955   7.218
 3923POPC   C1B50203  20.281  16.377   6.104
 3923POPC   C2B50204  20.362  16.627   6.454
 3923POPC   C3B50205  20.535  16.685   6.846
 3923POPC   C4B50206  20.364  16.673   7.248
 3924POPC   NC350207  33.420  43.136   5.439
 3924POPC   PO450208  34.039  43.251   5.334
 3924POPC   GL150209  33.881  43.005   5.661
 3924POPC   GL250210  33.823  43.298   5.822
 3924POPC   C1A50211  33.910  42.909   6.133
 3924POPC   D2A50212  34.147  42.847   6.552
 3924POPC   C3A50213  33.942  42.909   6.970
 3924POPC   C4A50214  34.017  42.995   7.430
 3924POPC   C1B50215  33.728  43.400   6.235
 3924POPC   C2B50216  33.824  43.299   6.636
 3924POPC   C3B50217  33.815  43.388   7.051
 3924POPC   C4B50218  33.543  43.087   7.320
 3925POPC   NC350219  43.555  33.881   5.426
 3925POPC   PO450220  42.906  33.882   5.469
 3925POPC   GL150221  42.979  33.769   5.882
 3925POPC   GL250222  43.259  33.605   5.761
 3925POPC   C1A50223  43.156  33.846   6.330
 3925POPC   D2A50224  43.223  33.779   6.789
 3925POPC   C3A50225  42.994  33.935   7.130
 3925POPC   C4A50226  43.418  33.944   7.289
 3925POPC   C1B50227  43.263  33.385   6.143
 3925POPC   C2B50228  43.134  33.351   6.539
 3925POPC   C3B50229  43.254  33.284   6.930
 3925POPC   C4B50230  43.155  33.472   7.306
 3926POPC   NC350231  28.893  23.923   5.490
 3926POPC   PO450232  28.260  23.635   5.445
 3926POPC   GL150233  28.199  23.784   5.866
 3926POPC   GL250234  28.522  23.970   5.863
 3926POPC   C1A50235  28.363  23.718   6.312
 3926POPC   D2A50236  28.466  23.521   6.727
 3926POPC   C3A50237  28.186  23.709   6.996
 3926POPC   C4A50238  28.121  24.072   7.176
 3926POPC   C1B50239  28.839  23.946   6.193
 3926POPC   C2B50240  28.719  24.003   6.609
 3926POPC   C3B50241  28.925  24.097   6.974
 3926POPC   C4B50242  28.673  23.821   7.171
 3927POPC   NC350243  14.190   8.665   5.539
 3927POPC   PO450244  14.527   9.065   5.244
 3927POPC   GL150245  14.503   9.078   5.705
 3927POPC   GL250246  14.851   9.219   5.752
 3927POPC   C1A50247  14.338   9.074   6.143
 3927POPC   D2A50248  14.317   8.881   6.559
 3927POPC   C3A50249  14.497   8.882   6.960
 3927POPC   C4A50250  14.435   8.769   7.400
 3927POPC   C1B50251  14.815   8.879   6.076
 3927POPC   C2B50252  14.877   8.878   6.527
 3927POPC   C3B50253  14.938   8.659   6.918
 3927POPC   C4B50254  14.917   8.853   7.330
 3928POPC   NC350255  26.116  17.896   5.539
 3928POPC   PO450256  25.909  17.291   5.605
 3928POPC   GL150257  25.774  17.676   5.860
 3928POPC   GL250258  26.097  17.769   6.034
 3928POPC   C1A50259  25.660  17.866   6.275
 3928POPC   D2A50260  25.944  17.742   6.612
 3928POPC   C3A50261  25.917  17.662   7.040
 3928POPC   C4A50262  25.949  17.246   7.225
 3928POPC   C1B50263  26.332  17.531   6.334
 3928POPC   C2B50264  26.327  17.382   6.770
 3928POPC   C3B50265  26.475  17.217   7.166
 3928POPC   C4B50266  26.294  16.969   7.522
 3929POPC   NC350267  21.015  43.293   5.421
 3929POPC   PO450268  21.721  43.327   5.409
 3929POPC   GL150269  21.465  43.003   5.664
 3929POPC   GL250270  21.337  43.278   5.831
 3929POPC   C1A50271  21.298  42.861   6.122
 3929POPC   D2A50272  21.301  43.077   6.587
 3929POPC   C3A50273  21.297  42.894   7.031
 3929POPC   C4A50274  21.127  43.103   7.425
 3929POPC   C1B50275  21.092  43.342   6.207
 3929POPC   C2B50276  21.012  43.543   6.590
 3929POPC   C3B50277  21.105  43.371   6.983
 3929POPC   C4B50278  21.176  43.600   7.357
 3930POPC   NC350279   0.869  40.982   5.342
 3930POPC   PO450280   1.336  40.594   5.522
 3930POPC   GL150281   1.101  40.852   5.818
 3930POPC   GL250282   0.802  40.636   5.862
 3930POPC   C1A50283   1.230  41.151   6.171
 3930POPC   D2A50284   1.360  40.923   6.551
 3930POPC   C3A50285   1.214  41.010   6.971
 3930POPC   C4A50286   1.325  40.955   7.411
 3930POPC   C1B50287   1.013  40.520   6.285
 3930POPC   C2B50288   1.320  40.419   6.644
 3930POPC   C3B50289   1.331  40.478   7.106
 3930POPC   C4B50290   0.994  40.317   7.378
 3931POPC   NC350291  13.304   1.995   5.325
 3931POPC   PO450292  12.611   1.790   5.241
 3931POPC   GL150293  12.687   1.840   5.705
 3931POPC   GL250294  12.964   2.058   5.731
 3931POPC   C1A50295  12.860   1.700   6.133
 3931POPC   D2A50296  12.972   1.904   6.512
 3931POPC   C3A50297  13.057   1.737   6.902
 3931POPC   C4A50298  12.804   1.708   7.272
 3931POPC   C1B50299  12.687   2.193   6.078
 3931POPC   C2B50300  12.618   2.353   6.481
 3931POPC   C3B50301  12.699   2.152   6.869
 3931POPC   C4B50302  12.719   2.226   7.286
 3932POPC   NC350303   4.753  12.423   5.356
 3932POPC   PO450304   5.162  12.974   5.174
 3932POPC   GL150305   5.048  12.952   5.672
 3932POPC   GL250306   4.815  12.670   5.819
 3932POPC   C1A50307   5.037  12.962   6.175
 3932POPC   D2A50308   4.900  13.111   6.600
 3932POPC   C3A50309   5.093  12.880   6.956
 3932POPC   C4A50310   5.217  12.905   7.395
 3932POPC   C1B50311   4.971  12.441   6.217
 3932POPC   C2B50312   5.113  12.429   6.687
 3932POPC   C3B50313   5.162  12.418   7.182
 3932POPC   C4B50314   4.928  12.540   7.576
 3933POPC   NC350315  36.195  16.506   5.389
 3933POPC   PO450316  36.099  17.106   5.366
 3933POPC   GL150317  36.047  16.861   5.764
 3933POPC   GL250318  36.164  16.507   5.884
 3933POPC   C1A50319  36.018  16.853   6.216
 3933POPC   D2A50320  36.225  16.881   6.597
 3933POPC   C3A50321  36.068  17.041   6.951
 3933POPC   C4A50322  36.015  16.743   7.243
 3933POPC   C1B50323  36.422  16.511   6.248
 3933POPC   C2B50324  36.493  16.297   6.628
 3933POPC   C3B50325  36.343  16.479   6.985
 3933POPC   C4B50326  36.387  16.434   7.459
 3934POPC   NC350327  14.732   7.677   5.646
 3934POPC   PO450328  14.491   8.317   5.567
 3934POPC   GL150329  14.231   8.280   5.904
 3934POPC   GL250330  14.360   7.940   5.899
 3934POPC   C1A50331  14.430   8.528   6.214
 3934POPC   D2A50332  14.596   8.451   6.604
 3934POPC   C3A50333  14.237   8.446   6.853
 3934POPC   C4A50334  14.179   8.368   7.257
 3934POPC   C1B50335  14.526   8.033   6.279
 3934POPC   C2B50336  14.436   7.974   6.693
 3934POPC   C3B50337  14.600   8.132   7.053
 3934POPC   C4B50338  14.388   7.952   7.406
 3935POPC   NC350339  26.305   0.534   5.301
 3935POPC   PO450340  25.713   0.143   5.326
 3935POPC   GL150341  25.910   0.429   5.660
 3935POPC   GL250342  26.229   0.653   5.788
 3935POPC   C1A50343  25.988   0.314   6.084
 3935POPC   D2A50344  26.129   0.476   6.462
 3935POPC   C3A50345  25.963   0.317   6.851
 3935POPC   C4A50346  26.240   0.482   7.156
 3935POPC   C1B50347  25.943   0.834   6.100
 3935POPC   C2B50348  25.689   0.740   6.474
 3935POPC   C3B50349  25.842   0.806   6.898
 3935POPC   C4B50350  26.122   0.967   7.224
 3936POPC   NC350351   4.633   3.249   5.387
 3936POPC   PO450352   3.963   3.383   5.386
 3936POPC   GL150353   4.296   3.431   5.719
 3936POPC   GL250354   4.388   3.736   5.894
 3936POPC   C1A50355   4.500   3.284   6.096
 3936POPC   D2A50356   4.299   3.354   6.483
 3936POPC   C3A50357   4.486   3.349   6.882
 3936POPC   C4A50358   4.181   3.367   7.183
 3936POPC   C1B50359   4.115   3.929   6.136
 3936POPC   C2B50360   3.961   3.791   6.498
 3936POPC   C3B50361   4.163   3.771   6.866
 3936POPC   C4B50362   4.453   3.878   7.150
 3937POPC   NC350363  41.120   2.476   5.091
 3937POPC   PO450364  40.536   2.815   5.231
 3937POPC   GL150365  40.751   2.873   5.654
 3937POPC   GL250366  40.692   2.518   5.627
 3937POPC   C1A50367  40.892   2.997   6.117
 3937POPC   D2A50368  40.904   3.144   6.564
 3937POPC   C3A50369  40.638   2.953   6.865
 3937POPC   C4A50370  40.754   2.792   7.245
 3937POPC   C1B50371  40.784   2.499   6.074
 3937POPC   C2B50372  40.734   2.618   6.486
 3937POPC   C3B50373  40.738   2.449   6.881
 3937POPC   C4B50374  40.842   2.258   7.245
 3938POPC   NC350375  10.184  44.989   5.576
 3938POPC   PO450376  10.796  44.697   5.458
 3938POPC   GL150377  10.616  44.556   5.817
 3938POPC   GL250378  10.241  44.497   5.823
 3938POPC   C1A50379  10.806  44.545   6.212
 3938POPC   D2A50380  10.679  44.765   6.567
 3938POPC   C3A50381  10.661  44.525   6.912
 3938POPC   C4A50382  10.821  44.845   7.187
 3938POPC   C1B50383  10.328  44.775   6.184
 3938POPC   C2B50384  10.162  44.763   6.594
 3938POPC   C3B50385  10.331  44.886   6.984
 3938POPC   C4B50386  10.209  44.567   7.245
 3939POPC   NC350387   5.237  19.365   5.371
 3939POPC   PO450388   4.737  19.896   5.400
 3939POPC   GL150389   4.957  19.795   5.741
 3939POPC   GL250390   4.904  19.436   5.751
 3939POPC   C1A50391   5.048  20.012   6.125
 3939POPC   D2A50392   5.114  19.803   6.494
 3939POPC   C3A50393   5.038  19.912   6.916
 3939POPC   C4A50394   5.268  19.735   7.257
 3939POPC   C1B50395   4.764  19.571   6.173
 3939POPC   C2B50396   4.794  19.412   6.596
 3939POPC   C3B50397   4.894  19.434   7.050
 3939POPC   C4B50398   4.767  19.361   7.495
 3940POPC   NC350399   9.506  24.996   5.471
 3940POPC   PO450400   9.859  25.562   5.444
 3940POPC   GL150401   9.739  25.322   5.780
 3940POPC   GL250402   9.518  25.485   5.990
 3940POPC   C1A50403   9.923  25.266   6.172
 3940POPC   D2A50404   9.967  25.472   6.551
 3940POPC   C3A50405  10.081  25.238   6.884
 3940POPC   C4A50406   9.851  25.181   7.264
 3940POPC   C1B50407   9.455  25.336   6.408
 3940POPC   C2B50408   9.530  25.257   6.843
 3940POPC   C3B50409   9.391  25.421   7.222
 3940POPC   C4B50410   9.347  25.586   7.655
 3941POPC   NC350411  18.067  35.450   5.379
 3941POPC   PO450412  17.827  34.878   5.102
 3941POPC   GL150413  17.733  35.040   5.562
 3941POPC   GL250414  17.611  34.812   5.805
 3941POPC   C1A50415  17.764  35.268   5.994
 3941POPC   D2A50416  17.542  35.514   6.358
 3941POPC   C3A50417  17.580  35.410   6.823
 3941POPC   C4A50418  17.463  35.535   7.251
 3941POPC   C1B50419  17.287  35.055   6.081
 3941POPC   C2B50420  17.131  35.196   6.512
 3941POPC   C3B50421  17.083  35.294   6.951
 3941POPC   C4B50422  17.110  35.201   7.401
 3942POPC   NC350423  26.716  19.244   5.205
 3942POPC   PO450424  27.211  18.799   5.448
 3942POPC   GL150425  27.035  19.192   5.646
 3942POPC   GL250426  26.650  19.200   5.748
 3942POPC   C1A50427  27.032  19.254   6.096
 3942POPC   D2A50428  26.999  19.263   6.534
 3942POPC   C3A50429  26.713  19.047   6.797
 3942POPC   C4A50430  26.739  19.067   7.215
 3942POPC   C1B50431  26.609  18.957   6.175
 3942POPC   C2B50432  26.335  18.801   6.547
 3942POPC   C3B50433  26.404  18.695   7.045
 3942POPC   C4B50434  26.385  18.923   7.514
 3943POPC   NC350435   5.393  17.833   5.596
 3943POPC   PO450436   4.901  18.378   5.505
 3943POPC   GL150437   5.126  18.270   5.832
 3943POPC   GL250438   5.252  18.573   6.014
 3943POPC   C1A50439   5.188  18.083   6.215
 3943POPC   D2A50440   5.173  18.310   6.585
 3943POPC   C3A50441   5.163  18.000   6.884
 3943POPC   C4A50442   5.122  18.043   7.309
 3943POPC   C1B50443   4.841  18.526   6.227
 3943POPC   C2B50444   4.696  18.506   6.662
 3943POPC   C3B50445   4.978  18.481   7.055
 3943POPC   C4B50446   4.851  18.543   7.533
 3944POPC   NC350447  16.723  22.812   5.372
 3944POPC   PO450448  16.435  23.437   5.274
 3944POPC   GL150449  16.385  23.161   5.697
 3944POPC   GL250450  16.621  22.902   5.847
 3944POPC   C1A50451  16.405  23.205   6.183
 3944POPC   D2A50452  16.643  23.323   6.568
 3944POPC   C3A50453  16.646  23.003   6.906
 3944POPC   C4A50454  16.385  23.016   7.263
 3944POPC   C1B50455  16.854  22.938   6.259
 3944POPC   C2B50456  17.097  23.054   6.638
 3944POPC   C3B50457  17.104  22.805   7.054
 3944POPC   C4B50458  16.797  22.768   7.405
 3945POPC   NC350459  20.904  32.284   5.371
 3945POPC   PO450460  20.454  31.817   5.417
 3945POPC   GL150461  20.462  32.124   5.758
 3945POPC   GL250462  20.633  32.439   5.838
 3945POPC   C1A50463  20.478  32.131   6.195
 3945POPC   D2A50464  20.677  31.904   6.486
 3945POPC   C3A50465  20.720  32.088   6.907
 3945POPC   C4A50466  20.347  32.130   7.157
 3945POPC   C1B50467  20.482  32.646   6.218
 3945POPC   C2B50468  20.256  32.715   6.623
 3945POPC   C3B50469  20.333  32.638   7.058
 3945POPC   C4B50470  20.771  32.633   7.227
 3946POPC   NC350471  14.535  32.599   5.475
 3946POPC   PO450472  14.264  33.221   5.566
 3946POPC   GL150473  14.358  33.234   5.976
 3946POPC   GL250474  14.598  32.978   5.892
 3946POPC   C1A50475  14.258  32.953   6.321
 3946POPC   D2A50476  14.346  32.572   6.563
 3946POPC   C3A50477  14.308  32.717   6.975
 3946POPC   C4A50478  14.240  33.133   7.144
 3946POPC   C1B50479  14.773  33.072   6.297
 3946POPC   C2B50480  14.650  33.018   6.724
 3946POPC   C3B50481  14.739  33.152   7.150
 3946POPC   C4B50482  14.552  33.143   7.561
 3947POPC   NC350483  16.680   3.040   5.325
 3947POPC   PO450484  16.278   2.440   5.370
 3947POPC   GL150485  16.534   2.694   5.732
 3947POPC   GL250486  16.829   2.529   5.890
 3947POPC   C1A50487  16.679   2.963   6.142
 3947POPC   D2A50488  16.918   3.061   6.568
 3947POPC   C3A50489  16.633   2.987   6.962
 3947POPC   C4A50490  16.286   2.658   7.137
 3947POPC   C1B50491  17.077   2.668   6.261
 3947POPC   C2B50492  16.851   2.558   6.635
 3947POPC   C3B50493  16.782   2.521   7.052
 3947POPC   C4B50494  17.072   2.445   7.373
 3948POPC   NC350495   8.277  28.519   5.329
 3948POPC   PO450496   7.949  27.931   5.440
 3948POPC   GL150497   8.095  28.130   5.811
 3948POPC   GL250498   7.987  28.454   5.866
 3948POPC   C1A50499   8.396  28.277   6.142
 3948POPC   D2A50500   8.494  28.526   6.518
 3948POPC   C3A50501   8.427  28.347   6.899
 3948POPC   C4A50502   8.390  28.095   7.271
 3948POPC   C1B50503   7.897  28.364   6.299
 3948POPC   C2B50504   7.810  28.325   6.743
 3948POPC   C3B50505   7.989  28.448   7.117
 3948POPC   C4B50506   8.157  28.491   7.544
 3949POPC   NC350507  15.079  25.041   5.419
 3949POPC   PO450508  15.609  25.308   5.443
 3949POPC   GL150509  15.408  25.116   5.821
 3949POPC   GL250510  15.168  25.388   5.813
 3949POPC   C1A50511  15.334  25.113   6.292
 3949POPC   D2A50512  15.448  25.317   6.701
 3949POPC   C3A50513  15.249  25.134   7.071
 3949POPC   C4A50514  15.271  24.921   7.492
 3949POPC   C1B50515  15.231  25.619   6.185
 3949POPC   C2B50516  15.024  25.603   6.587
 3949POPC   C3B50517  15.155  25.635   7.012
 3949POPC   C4B50518  15.038  25.470   7.420
 3950POPC   NC350519  31.717  22.306   5.321
 3950POPC   PO450520  31.394  21.750   5.068
 3950POPC   GL150521  31.376  22.102   5.604
 3950POPC   GL250522  31.622  22.321   5.811
 3950POPC   C1A50523  31.321  22.009   6.128
 3950POPC   D2A50524  31.409  21.861   6.606
 3950POPC   C3A50525  31.425  22.082   7.041
 3950POPC   C4A50526  31.138  22.129   7.440
 3950POPC   C1B50527  31.327  22.517   6.112
 3950POPC   C2B50528  31.272  22.371   6.541
 3950POPC   C3B50529  31.148  22.493   6.935
 3950POPC   C4B50530  31.380  22.548   7.308
 3951POPC   NC350531   2.128  32.384   5.334
 3951POPC   PO450532   1.581  32.532   5.629
 3951POPC   GL150533   2.054  32.570   5.819
 3951POPC   GL250534   2.262  32.239   5.827
 3951POPC   C1A50535   2.190  32.479   6.272
 3951POPC   D2A50536   1.884  32.262   6.523
 3951POPC   C3A50537   1.698  32.529   6.827
 3951POPC   C4A50538   1.810  32.389   7.211
 3951POPC   C1B50539   2.474  32.047   6.194
 3951POPC   C2B50540   2.368  32.068   6.619
 3951POPC   C3B50541   2.218  32.383   6.900
 3951POPC   C4B50542   2.349  32.313   7.316
 3952POPC   NC350543  10.506  37.659   5.496
 3952POPC   PO450544  10.976  38.098   5.408
 3952POPC   GL150545  10.724  37.915   5.873
 3952POPC   GL250546  10.335  37.777   5.944
 3952POPC   C1A50547  10.594  37.805   6.358
 3952POPC   D2A50548  10.454  37.508   6.704
 3952POPC   C3A50549  10.664  37.572   7.079
 3952POPC   C4A50550  10.540  38.011   7.279
 3952POPC   C1B50551  10.067  37.624   6.277
 3952POPC   C2B50552   9.947  37.700   6.702
 3952POPC   C3B50553  10.162  37.710   7.097
 3952POPC   C4B50554  10.304  37.359   7.365
 3953POPC   NC350555  31.481  13.958   5.675
 3953POPC   PO450556  31.328  14.514   5.362
 3953POPC   GL150557  31.578  14.542   5.744
 3953POPC   GL250558  31.337  14.380   5.912
 3953POPC   C1A50559  31.627  14.659   6.220
 3953POPC   D2A50560  31.597  14.835   6.672
 3953POPC   C3A50561  31.655  14.664   7.087
 3953POPC   C4A50562  31.317  14.513   7.420
 3953POPC   C1B50563  31.487  14.168   6.302
 3953POPC   C2B50564  31.641  14.309   6.692
 3953POPC   C3B50565  31.518  14.183   7.091
 3953POPC   C4B50566  31.685  14.208   7.512
 3954POPC   NC350567  33.405  40.541   5.417
 3954POPC   PO450568  33.980  40.991   5.381
 3954POPC   GL150569  33.770  40.845   5.766
 3954POPC   GL250570  33.484  41.065   5.809
 3954POPC   C1A50571  33.834  40.630   6.210
 3954POPC   D2A50572  34.131  40.544   6.594
 3954POPC   C3A50573  33.901  40.596   6.988
 3954POPC   C4A50574  33.488  40.442   7.136
 3954POPC   C1B50575  33.768  41.132   6.185
 3954POPC   C2B50576  33.927  41.029   6.596
 3954POPC   C3B50577  33.802  41.138   6.995
 3954POPC   C4B50578  33.566  41.282   7.360
 3955POPC   NC350579  44.566   0.817   5.370
 3955POPC   PO450580  44.850   0.213   5.272
 3955POPC   GL150581  44.720   0.453   5.680
 3955POPC   GL250582  44.716   0.206   5.924
 3955POPC   C1A50583  44.484   0.613   6.072
 3955POPC   D2A50584  44.595   0.306   6.426
 3955POPC   C3A50585  44.634   0.399   6.853
 3955POPC   C4A50586  44.524   0.256   7.238
 3955POPC   C1B50587  44.958   0.564   6.183
 3955POPC   C2B50588  44.842   0.783   6.550
 3955POPC   C3B50589  44.990   0.754   6.990
 3955POPC   C4B50590  44.747   0.737   7.371
 3956POPC   NC350591  24.569  24.722   5.215
 3956POPC   PO450592  24.272  24.193   5.438
 3956POPC   GL150593  24.515  24.407   5.717
 3956POPC   GL250594  24.286  24.688   5.681
 3956POPC   C1A50595  24.535  24.292   6.161
 3956POPC   D2A50596  24.290  24.219   6.545
 3956POPC   C3A50597  24.479  24.343   6.941
 3956POPC   C4A50598  24.384  24.298   7.368
 3956POPC   C1B50599  24.408  24.786   6.135
 3956POPC   C2B50600  24.265  24.789   6.597
 3956POPC   C3B50601  24.180  24.727   7.066
 3956POPC   C4B50602  24.602  24.750   7.295
 3957POPC   NC350603  21.777  34.299   5.392
 3957POPC   PO450604  21.133  34.331   5.556
 3957POPC   GL150605  21.390  34.572   5.837
 3957POPC   GL250606  21.652  34.731   5.681
 3957POPC   C1A50607  21.305  34.510   6.269
 3957POPC   D2A50608  20.977  34.519   6.569
 3957POPC   C3A50609  21.181  34.470   6.964
 3957POPC   C4A50610  21.481  34.226   7.196
 3957POPC   C1B50611  21.751  34.828   6.122
 3957POPC   C2B50612  21.588  34.806   6.562
 3957POPC   C3B50613  21.694  34.771   7.015
 3957POPC   C4B50614  21.403  34.729   7.356
 3958POPC   NC350615   7.522  39.338   5.326
 3958POPC   PO450616   7.203  38.869   5.640
 3958POPC   GL150617   7.449  39.181   5.822
 3958POPC   GL250618   7.754  39.071   5.702
 3958POPC   C1A50619   7.552  39.338   6.240
 3958POPC   D2A50620   7.727  39.533   6.606
 3958POPC   C3A50621   7.448  39.343   6.855
 3958POPC   C4A50622   7.389  39.082   7.175
 3958POPC   C1B50623   7.896  39.003   6.113
 3958POPC   C2B50624   7.685  38.931   6.518
 3958POPC   C3B50625   7.820  38.945   6.934
 3958POPC   C4B50626   7.774  38.706   7.306
 3959POPC   NC350627  26.469  29.379   5.655
 3959POPC   PO450628  25.778  29.300   5.594
 3959POPC   GL150629  25.805  29.172   5.994
 3959POPC   GL250630  26.119  29.062   5.911
 3959POPC   C1A50631  25.818  29.104   6.444
 3959POPC   D2A50632  26.054  28.872   6.739
 3959POPC   C3A50633  25.849  28.922   7.132
 3959POPC   C4A50634  25.932  29.258   7.414
 3959POPC   C1B50635  26.241  29.326   6.253
 3959POPC   C2B50636  26.170  29.607   6.581
 3959POPC   C3B50637  26.045  29.373   6.916
 3959POPC   C4B50638  26.334  29.094   7.122
 3960POPC   NC350639   0.034  12.915   5.123
 3960POPC   PO450640   0.468  13.266   5.539
 3960POPC   GL150641   0.528  13.026   5.941
 3960POPC   GL250642   0.591  13.254   6.175
 3960POPC   C1A50643   0.418  12.759   6.283
 3960POPC   D2A50644   0.729  12.809   6.598
 3960POPC   C3A50645   0.585  12.886   6.990
 3960POPC   C4A50646   0.417  12.551   7.202
 3960POPC   C1B50647   0.113  13.198   6.215
 3960POPC   C2B50648  44.903  12.875   6.444
 3960POPC   C3B50649  44.991  12.829   6.888
 3960POPC   C4B50650   0.161  13.013   7.250
 3961POPC   NC350651  21.010   6.336   5.450
 3961POPC   PO450652  20.698   6.907   5.373
 3961POPC   GL150653  20.634   6.581   5.714
 3961POPC   GL250654  20.306   6.436   5.787
 3961POPC   C1A50655  20.686   6.446   6.139
 3961POPC   D2A50656  20.509   6.438   6.545
 3961POPC   C3A50657  20.791   6.624   6.833
 3961POPC   C4A50658  20.813   6.503   7.244
 3961POPC   C1B50659  20.219   6.704   6.178
 3961POPC   C2B50660  20.176   6.819   6.641
 3961POPC   C3B50661  20.320   6.630   7.031
 3961POPC   C4B50662  20.110   6.566   7.383
 3962POPC   NC350663   9.802  37.361   5.312
 3962POPC   PO450664   9.420  37.903   5.269
 3962POPC   GL150665   9.583  37.715   5.663
 3962POPC   GL250666   9.352  37.454   5.782
 3962POPC   C1A50667   9.609  37.841   6.122
 3962POPC   D2A50668   9.332  37.743   6.502
 3962POPC   C3A50669   9.492  37.843   6.919
 3962POPC   C4A50670   9.726  37.883   7.303
 3962POPC   C1B50671   9.527  37.347   6.209
 3962POPC   C2B50672   9.582  37.325   6.662
 3962POPC   C3B50673   9.765  37.396   7.097
 3962POPC   C4B50674   9.843  37.476   7.570
 3963POPC   NC350675  36.857  44.918   5.152
 3963POPC   PO450676  37.339  44.537   5.406
 3963POPC   GL150677  36.966  44.552   5.704
 3963POPC   GL250678  36.815  44.213   5.772
 3963POPC   C1A50679  36.750  44.683   6.086
 3963POPC   D2A50680  36.691  44.764   6.506
 3963POPC   C3A50681  36.907   0.073   6.727
 3963POPC   C4A50682  36.992  44.896   7.106
 3963POPC   C1B50683  37.091  44.302   6.142
 3963POPC   C2B50684  37.003  44.215   6.571
 3963POPC   C3B50685  36.925  44.402   6.963
 3963POPC   C4B50686  37.191  44.482   7.321
 3964POPC   NC350687  42.768  13.027   5.514
 3964POPC   PO450688  42.249  12.584   5.455
 3964POPC   GL150689  42.426  12.782   5.820
 3964POPC   GL250690  42.378  13.192   5.796
 3964POPC   C1A50691  42.628  12.666   6.237
 3964POPC   D2A50692  42.717  12.993   6.541
 3964POPC   C3A50693  42.651  12.895   6.999
 3964POPC   C4A50694  42.463  13.187   7.315
 3964POPC   C1B50695  42.293  13.056   6.232
 3964POPC   C2B50696  42.247  12.796   6.633
 3964POPC   C3B50697  42.155  12.801   7.082
 3964POPC   C4B50698  41.910  13.122   7.215
 3965POPC   NC350699  11.262   5.454   5.600
 3965POPC   PO450700  11.575   5.054   5.166
 3965POPC   GL150701  11.119   5.007   5.703
 3965POPC   GL250702  11.047   4.676   5.859
 3965POPC   C1A50703  11.176   5.087   6.208
 3965POPC   D2A50704  11.444   5.230   6.626
 3965POPC   C3A50705  11.296   5.181   7.094
 3965POPC   C4A50706  11.549   5.272   7.515
 3965POPC   C1B50707  10.789   4.714   6.219
 3965POPC   C2B50708  10.849   4.808   6.659
 3965POPC   C3B50709  10.986   4.744   7.090
 3965POPC   C4B50710  11.383   4.567   7.155
 3966POPC   NC350711  16.257  30.922   5.526
 3966POPC   PO450712  16.782  30.432   5.419
 3966POPC   GL150713  16.620  30.596   5.816
 3966POPC   GL250714  16.598  30.950   5.915
 3966POPC   C1A50715  16.491  30.537   6.255
 3966POPC   D2A50716  16.738  30.487   6.614
 3966POPC   C3A50717  16.579  30.329   6.994
 3966POPC   C4A50718  16.425  30.539   7.345
 3966POPC   C1B50719  16.937  30.809   6.212
 3966POPC   C2B50720  17.038  30.883   6.673
 3966POPC   C3B50721  16.825  30.811   7.090
 3966POPC   C4B50722  16.651  31.084   7.455
 3967POPC   NC350723   6.149   4.635   5.472
 3967POPC   PO450724   5.579   4.262   5.549
 3967POPC   GL150725   5.902   4.126   5.831
 3967POPC   GL250726   6.007   4.411   5.897
 3967POPC   C1A50727   6.177   4.027   6.184
 3967POPC   D2A50728   6.133   4.331   6.523
 3967POPC   C3A50729   5.813   4.214   6.813
 3967POPC   C4A50730   5.860   4.081   7.218
 3967POPC   C1B50731   5.706   4.441   6.224
 3967POPC   C2B50732   5.682   4.684   6.601
 3967POPC   C3B50733   5.874   4.692   6.999
 3967POPC   C4B50734   5.829   4.670   7.404
 3968POPC   NC350735  44.958  31.798   5.458
 3968POPC   PO450736  44.837  32.511   5.262
 3968POPC   GL150737  44.729  32.280   5.602
 3968POPC   GL250738  44.405  32.407   5.684
 3968POPC   C1A50739  44.741  32.153   6.045
 3968POPC   D2A50740  44.455  32.098   6.385
 3968POPC   C3A50741  44.555  32.133   6.816
 3968POPC   C4A50742  44.868  32.125   7.143
 3968POPC   C1B50743  44.257  32.483   6.120
 3968POPC   C2B50744  44.267  32.588   6.571
 3968POPC   C3B50745  44.188  32.539   7.007
 3968POPC   C4B50746  44.414  32.291   7.305
 3969POPC   NC350747  35.635  29.458   5.096
 3969POPC   PO450748  35.233  29.917   5.443
 3969POPC   GL150749  35.353  29.902   5.833
 3969POPC   GL250750  35.008  29.896   5.932
 3969POPC   C1A50751  35.565  29.911   6.235
 3969POPC   D2A50752  35.381  29.760   6.635
 3969POPC   C3A50753  35.617  29.708   6.999
 3969POPC   C4A50754  35.705  30.007   7.280
 3969POPC   C1B50755  35.062  30.005   6.329
 3969POPC   C2B50756  35.024  30.175   6.707
 3969POPC   C3B50757  35.127  29.931   7.066
 3969POPC   C4B50758  35.093  29.847   7.475
 3970POPC   NC350759  40.888  42.109   5.073
 3970POPC   PO450760  40.827  42.734   5.379
 3970POPC   GL150761  40.916  42.538   5.736
 3970POPC   GL250762  40.703  42.274   5.887
 3970POPC   C1A50763  40.934  42.648   6.139
 3970POPC   D2A50764  41.152  42.623   6.497
 3970POPC   C3A50765  40.957  42.426   6.816
 3970POPC   C4A50766  41.036  42.546   7.221
 3970POPC   C1B50767  40.825  42.174   6.317
 3970POPC   C2B50768  40.601  42.048   6.672
 3970POPC   C3B50769  40.599  42.164   7.105
 3970POPC   C4B50770  40.995  42.044   7.188
 3971POPC   NC350771  44.162   6.049   5.533
 3971POPC   PO450772  44.748   5.760   5.506
 3971POPC   GL150773  44.747   5.824   5.893
 3971POPC   GL250774  44.476   6.056   5.921
 3971POPC   C1A50775  44.767   5.671   6.281
 3971POPC   D2A50776  44.554   5.550   6.600
 3971POPC   C3A50777  44.809   5.612   6.970
 3971POPC   C4A50778  44.900   5.829   7.382
 3971POPC   C1B50779  44.289   5.805   6.223
 3971POPC   C2B50780  44.168   5.912   6.621
 3971POPC   C3B50781  44.318   5.784   6.997
 3971POPC   C4B50782  44.460   5.602   7.367
 3972POPC   NC350783  38.078  32.529   5.595
 3972POPC   PO450784  38.365  32.012   5.233
 3972POPC   GL150785  38.520  32.029   5.725
 3972POPC   GL250786  38.488  32.382   5.862
 3972POPC   C1A50787  38.633  32.030   6.186
 3972POPC   D2A50788  38.837  32.118   6.610
 3972POPC   C3A50789  38.678  32.103   7.056
 3972POPC   C4A50790  38.696  32.239   7.510
 3972POPC   C1B50791  38.243  32.421   6.238
 3972POPC   C2B50792  38.149  32.663   6.610
 3972POPC   C3B50793  38.106  32.575   7.046
 3972POPC   C4B50794  38.228  32.592   7.468
 3973POPC   NC350795  30.410  19.870   5.438
 3973POPC   PO450796  30.849  19.821   4.976
 3973POPC   GL150797  30.872  19.908   5.582
 3973POPC   GL250798  30.571  19.837   5.906
 3973POPC   C1A50799  30.933  20.114   6.057
 3973POPC   D2A50800  30.730  19.939   6.466
 3973POPC   C3A50801  30.918  19.956   6.912
 3973POPC   C4A50802  30.927  19.559   7.132
 3973POPC   C1B50803  30.313  19.691   6.252
 3973POPC   C2B50804  30.171  19.707   6.653
 3973POPC   C3B50805  30.424  19.833   6.926
 3973POPC   C4B50806  30.556  19.934   7.311
 3974POPC   NC350807   0.656  16.651   5.196
 3974POPC   PO450808   0.343  17.255   5.276
 3974POPC   GL150809   0.555  16.997   5.624
 3974POPC   GL250810   0.623  16.608   5.702
 3974POPC   C1A50811   0.514  16.946   6.083
 3974POPC   D2A50812   0.253  16.929   6.450
 3974POPC   C3A50813   0.405  16.964   6.882
 3974POPC   C4A50814   0.361  16.735   7.236
 3974POPC   C1B50815   0.830  16.526   6.119
 3974POPC   C2B50816   0.652  16.607   6.551
 3974POPC   C3B50817   0.724  16.457   6.985
 3974POPC   C4B50818   0.973  16.414   7.392
 3975POPC   NC350819  44.728  44.151   5.424
 3975POPC   PO450820  44.311  43.605   5.148
 3975POPC   GL150821  44.444  43.753   5.577
 3975POPC   GL250822  44.824  43.713   5.661
 3975POPC   C1A50823  44.518  43.877   6.028
 3975POPC   D2A50824  44.621  43.855   6.467
 3975POPC   C3A50825  44.476  44.013   6.860
 3975POPC   C4A50826  44.801  44.113   7.177
 3975POPC   C1B50827   0.003  43.624   6.075
 3975POPC   C2B50828   0.122  43.565   6.526
 3975POPC   C3B50829   0.003  43.684   6.953
 3975POPC   C4B50830   0.107  43.493   7.329
 3976POPC   NC350831  17.769   6.214   5.430
 3976POPC   PO450832  17.463   6.866   5.463
 3976POPC   GL150833  17.396   6.502   5.697
 3976POPC   GL250834  17.717   6.456   5.878
 3976POPC   C1A50835  17.243   6.473   6.120
 3976POPC   D2A50836  17.364   6.390   6.550
 3976POPC   C3A50837  17.529   6.615   6.879
 3976POPC   C4A50838  17.287   6.616   7.271
 3976POPC   C1B50839  17.803   6.362   6.304
 3976POPC   C2B50840  17.836   6.203   6.733
 3976POPC   C3B50841  17.989   6.418   7.113
 3976POPC   C4B50842  17.866   6.421   7.558
 3977POPC   NC350843  20.007  31.741   5.445
 3977POPC   PO450844  19.683  31.195   5.275
 3977POPC   GL150845  19.640  31.425   5.685
 3977POPC   GL250846  19.829  31.179   5.853
 3977POPC   C1A50847  19.754  31.630   6.110
 3977POPC   D2A50848  19.729  31.780   6.554
 3977POPC   C3A50849  19.905  31.534   6.887
 3977POPC   C4A50850  19.789  31.359   7.294
 3977POPC   C1B50851  20.075  31.182   6.219
 3977POPC   C2B50852  20.227  31.167   6.633
 3977POPC   C3B50853  20.170  31.112   7.073
 3977POPC   C4B50854  20.221  31.160   7.553
 3978POPC   NC350855  18.858  18.587   5.549
 3978POPC   PO450856  18.866  19.262   5.539
 3978POPC   GL150857  19.164  19.145   5.855
 3978POPC   GL250858  19.009  18.826   5.966
 3978POPC   C1A50859  19.388  19.015   6.236
 3978POPC   D2A50860  19.141  18.781   6.544
 3978POPC   C3A50861  19.139  18.924   6.966
 3978POPC   C4A50862  19.070  19.143   7.358
 3978POPC   C1B50863  18.787  19.069   6.264
 3978POPC   C2B50864  18.846  19.253   6.680
 3978POPC   C3B50865  18.666  19.305   7.101
 3978POPC   C4B50866  18.602  19.063   7.527
 3979POPC   NC350867   0.584   8.404   5.323
 3979POPC   PO450868   0.403   7.799   5.454
 3979POPC   GL150869   0.511   8.088   5.812
 3979POPC   GL250870   0.768   8.347   5.785
 3979POPC   C1A50871   0.341   8.314   6.193
 3979POPC   D2A50872   0.446   8.562   6.578
 3979POPC   C3A50873   0.279   8.367   6.971
 3979POPC   C4A50874   0.145   7.986   7.210
 3979POPC   C1B50875   0.836   8.436   6.207
 3979POPC   C2B50876   0.998   8.507   6.619
 3979POPC   C3B50877   0.774   8.578   6.984
 3979POPC   C4B50878   0.609   8.369   7.364
 3980POPC   NC350879  23.464  37.946   5.270
 3980POPC   PO450880  23.971  37.451   5.396
 3980POPC   GL150881  23.900  37.697   5.758
 3980POPC   GL250882  23.535  37.687   5.734
 3980POPC   C1A50883  23.976  37.551   6.191
 3980POPC   D2A50884  24.082  37.542   6.636
 3980POPC   C3A50885  23.928  37.839   6.891
 3980POPC   C4A50886  23.900  37.576   7.223
 3980POPC   C1B50887  23.354  37.708   6.131
 3980POPC   C2B50888  23.573  37.682   6.494
 3980POPC   C3B50889  23.458  37.617   6.877
 3980POPC   C4B50890  23.469  37.857   7.210
 3981POPC   NC350891  15.919   1.821   5.110
 3981POPC   PO450892  15.584   2.260   5.567
 3981POPC   GL150893  15.975   2.235   5.729
 3981POPC   GL250894  16.163   1.954   5.554
 3981POPC   C1A50895  16.016   2.140   6.146
 3981POPC   D2A50896  15.869   2.108   6.549
 3981POPC   C3A50897  16.210   2.231   6.782
 3981POPC   C4A50898  16.203   2.149   7.182
 3981POPC   C1B50899  16.225   1.705   5.954
 3981POPC   C2B50900  16.088   1.656   6.401
 3981POPC   C3B50901  16.074   1.711   6.861
 3981POPC   C4B50902  16.352   1.680   7.229
 3982POPC   NC350903  44.718  42.040   5.617
 3982POPC   PO450904  44.357  41.444   5.497
 3982POPC   GL150905  44.454  41.651   5.860
 3982POPC   GL250906  44.764  41.500   5.888
 3982POPC   C1A50907  44.582  41.855   6.252
 3982POPC   D2A50908  44.604  42.064   6.662
 3982POPC   C3A50909  44.862  41.891   6.981
 3982POPC   C4A50910  44.866  41.469   7.143
 3982POPC   C1B50911  44.617  41.313   6.275
 3982POPC   C2B50912  44.541  41.312   6.732
 3982POPC   C3B50913  44.514  41.041   7.111
 3982POPC   C4B50914  44.731  41.128   7.516
 3983POPC   NC350915  10.212  21.842   5.463
 3983POPC   PO450916  10.317  22.542   5.490
 3983POPC   GL150917  10.588  22.215   5.767
 3983POPC   GL250918  10.843  21.935   5.865
 3983POPC   C1A50919  10.744  22.248   6.236
 3983POPC   D2A50920  10.888  22.051   6.617
 3983POPC   C3A50921  10.508  22.004   6.873
 3983POPC   C4A50922  10.299  22.185   7.234
 3983POPC   C1B50923  10.412  21.873   6.125
 3983POPC   C2B50924  10.138  21.839   6.525
 3983POPC   C3B50925  10.050  21.792   6.983
 3983POPC   C4B50926  10.122  21.769   7.448
 3984POPC   NC350927  25.614  21.958   5.499
 3984POPC   PO450928  25.329  22.520   5.370
 3984POPC   GL150929  25.518  22.366   5.773
 3984POPC   GL250930  25.233  22.204   5.838
 3984POPC   C1A50931  25.591  22.119   6.193
 3984POPC   D2A50932  25.685  22.240   6.644
 3984POPC   C3A50933  25.379  22.170   7.006
 3984POPC   C4A50934  25.259  22.408   7.387
 3984POPC   C1B50935  25.083  22.195   6.251
 3984POPC   C2B50936  25.057  21.973   6.654
 3984POPC   C3B50937  24.853  22.225   6.951
 3984POPC   C4B50938  24.836  22.646   6.930
 3985POPC   NC350939  30.485  23.243   5.426
 3985POPC   PO450940  30.153  23.823   5.431
 3985POPC   GL150941  30.060  23.642   5.803
 3985POPC   GL250942  30.316  23.460   5.919
 3985POPC   C1A50943  29.943  23.642   6.241
 3985POPC   D2A50944  29.799  23.728   6.643
 3985POPC   C3A50945  30.107  23.607   6.984
 3985POPC   C4A50946  30.063  23.726   7.434
 3985POPC   C1B50947  30.395  23.864   6.185
 3985POPC   C2B50948  30.349  23.965   6.672
 3985POPC   C3B50949  30.436  24.017   7.162
 3985POPC   C4B50950  30.378  24.032   7.677
 3986POPC   NC350951  34.102  30.632   5.394
 3986POPC   PO450952  33.426  30.619   5.355
 3986POPC   GL150953  33.654  30.701   5.734
 3986POPC   GL250954  33.702  31.043   5.651
 3986POPC   C1A50955  33.968  30.754   6.097
 3986POPC   D2A50956  34.164  30.682   6.534
 3986POPC   C3A50957  33.875  30.677   6.901
 3986POPC   C4A50958  33.708  30.395   7.223
 3986POPC   C1B50959  33.618  31.142   6.061
 3986POPC   C2B50960  33.566  30.958   6.435
 3986POPC   C3B50961  33.471  31.039   6.842
 3986POPC   C4B50962  33.501  30.865   7.256
 3987POPC   NC350963  16.735   4.577   5.166
 3987POPC   PO450964  16.273   4.228   5.493
 3987POPC   GL150965  16.668   4.408   5.725
 3987POPC   GL250966  16.955   4.188   5.873
 3987POPC   C1A50967  16.734   4.523   6.179
 3987POPC   D2A50968  16.843   4.476   6.634
 3987POPC   C3A50969  16.684   4.366   7.063
 3987POPC   C4A50970  16.399   4.599   7.308
 3987POPC   C1B50971  17.063   4.087   6.332
 3987POPC   C2B50972  17.014   3.982   6.791
 3987POPC   C3B50973  17.101   3.926   7.223
 3987POPC   C4B50974  16.851   3.948   7.587
 3988POPC   NC350975  27.388  17.643   5.429
 3988POPC   PO450976  27.884  17.278   5.514
 3988POPC   GL150977  27.785  17.560   5.869
 3988POPC   GL250978  28.140  17.592   5.911
 3988POPC   C1A50979  27.519  17.601   6.288
 3988POPC   D2A50980  27.282  17.406   6.672
 3988POPC   C3A50981  27.361  17.611   7.069
 3988POPC   C4A50982  27.659  17.899   7.037
 3988POPC   C1B50983  27.986  17.373   6.322
 3988POPC   C2B50984  27.816  17.503   6.741
 3988POPC   C3B50985  27.875  17.426   7.189
 3988POPC   C4B50986  28.022  17.391   7.624
 3989POPC   NC350987  35.806  41.363   5.334
 3989POPC   PO450988  35.989  40.692   5.435
 3989POPC   GL150989  36.153  40.703   5.815
 3989POPC   GL250990  36.305  41.036   5.747
 3989POPC   C1A50991  35.953  40.846   6.215
 3989POPC   D2A50992  35.878  40.694   6.659
 3989POPC   C3A50993  35.970  40.933   7.082
 3989POPC   C4A50994  36.006  40.746   7.524
 3989POPC   C1B50995  36.461  40.916   6.150
 3989POPC   C2B50996  36.310  40.951   6.565
 3989POPC   C3B50997  36.450  40.767   6.902
 3989POPC   C4B50998  36.450  40.827   7.273
 3990POPC   NC350999  27.035   5.487   5.560
 3990POPC   PO451000  27.357   4.917   5.409
 3990POPC   GL151001  27.027   4.985   5.754
 3990POPC   GL251002  26.729   4.751   5.779
 3990POPC   C1A51003  26.944   5.136   6.206
 3990POPC   D2A51004  26.909   5.340   6.623
 3990POPC   C3A51005  26.961   5.046   6.971
 3990POPC   C4A51006  27.140   5.173   7.380
 3990POPC   C1B51007  26.558   4.755   6.197
 3990POPC   C2B51008  26.490   5.028   6.546
 3990POPC   C3B51009  26.443   5.254   6.924
 3990POPC   C4B51010  26.582   5.114   7.329
 3991POPC   NC351011  29.773  16.512   5.271
 3991POPC   PO451012  30.290  16.832   5.587
 3991POPC   GL151013  29.982  16.801   5.880
 3991POPC   GL251014  29.879  16.465   5.774
 3991POPC   C1A51015  29.742  16.984   6.255
 3991POPC   D2A51016  29.635  16.799   6.656
 3991POPC   C3A51017  29.996  16.797   6.910
 3991POPC   C4A51018  29.967  17.016   7.264
 3991POPC   C1B51019  30.082  16.394   6.164
 3991POPC   C2B51020  29.895  16.285   6.525
 3991POPC   C3B51021  29.755  16.335   6.890
 3991POPC   C4B51022  30.004  16.385   7.228
 3992POPC   NC351023  41.207  37.944   5.333
 3992POPC   PO451024  40.761  37.440   5.460
 3992POPC   GL151025  40.727  37.547   5.883
 3992POPC   GL251026  40.773  37.901   5.767
 3992POPC   C1A51027  40.528  37.412   6.282
 3992POPC   D2A51028  40.470  37.534   6.725
 3992POPC   C3A51029  40.843  37.436   7.013
 3992POPC   C4A51030  40.872  37.383   7.472
 3992POPC   C1B51031  40.593  37.970   6.193
 3992POPC   C2B51032  40.733  37.977   6.640
 3992POPC   C3B51033  40.634  37.921   7.082
 3992POPC   C4B51034  40.964  37.919   7.391
 3993POPC   NC351035   8.900  30.943   5.420
 3993POPC   PO451036   8.987  31.659   5.417
 3993POPC   GL151037   9.033  31.370   5.780
 3993POPC   GL251038   8.710  31.174   5.831
 3993POPC   C1A51039   9.184  31.522   6.214
 3993POPC   D2A51040   9.346  31.641   6.665
 3993POPC   C3A51041   9.080  31.643   7.054
 3993POPC   C4A51042   9.052  31.698   7.524
 3993POPC   C1B51043   8.949  31.060   6.178
 3993POPC   C2B51044   9.098  31.179   6.581
 3993POPC   C3B51045   8.891  31.142   6.933
 3993POPC   C4B51046   8.692  31.247   7.293
 3994POPC   NC351047   6.847  26.747   5.327
 3994POPC   PO451048   6.222  26.880   5.452
 3994POPC   GL151049   6.576  26.987   5.737
 3994POPC   GL251050   6.772  26.690   5.832
 3994POPC   C1A51051   6.628  26.982   6.199
 3994POPC   D2A51052   6.397  26.881   6.583
 3994POPC   C3A51053   6.682  26.903   6.941
 3994POPC   C4A51054   6.938  27.228   7.132
 3994POPC   C1B51055   6.712  26.451   6.243
 3994POPC   C2B51056   6.412  26.346   6.559
 3994POPC   C3B51057   6.216  26.473   6.893
 3994POPC   C4B51058   6.443  26.556   7.264
 3995POPC   NC351059   5.638  33.974   5.607
 3995POPC   PO451060   5.687  33.288   5.695
 3995POPC   GL151061   5.796  33.619   5.942
 3995POPC   GL251062   6.064  33.838   5.858
 3995POPC   C1A51063   5.750  33.702   6.351
 3995POPC   D2A51064   5.687  33.898   6.716
 3995POPC   C3A51065   5.698  33.548   6.959
 3995POPC   C4A51066   5.873  33.481   7.335
 3995POPC   C1B51067   6.244  33.682   6.216
 3995POPC   C2B51068   6.188  33.791   6.636
 3995POPC   C3B51069   6.103  33.852   7.043
 3995POPC   C4B51070   6.318  33.728   7.386
 3996POPC   NC351071  20.548  20.694   5.268
 3996POPC   PO451072  20.743  20.197   5.603
 3996POPC   GL151073  20.501  20.499   5.772
 3996POPC   GL251074  20.723  20.755   5.744
 3996POPC   C1A51075  20.275  20.439   6.164
 3996POPC   D2A51076  20.247  20.579   6.569
 3996POPC   C3A51077  20.548  20.486   6.916
 3996POPC   C4A51078  20.650  20.560   7.353
 3996POPC   C1B51079  20.838  20.949   6.140
 3996POPC   C2B51080  20.718  20.847   6.573
 3996POPC   C3B51081  20.793  20.931   7.006
 3996POPC   C4B51082  21.022  20.915   7.381
 3997POPC   NC351083   2.218  28.693   5.466
 3997POPC   PO451084   1.878  28.155   5.213
 3997POPC   GL151085   2.006  28.240   5.682
 3997POPC   GL251086   2.232  28.479   5.918
 3997POPC   C1A51087   1.939  28.121   6.121
 3997POPC   D2A51088   1.801  28.145   6.559
 3997POPC   C3A51089   2.056  28.374   6.859
 3997POPC   C4A51090   2.170  28.143   7.211
 3997POPC   C1B51091   2.166  28.572   6.363
 3997POPC   C2B51092   2.475  28.673   6.703
 3997POPC   C3B51093   2.461  28.858   7.122
 3997POPC   C4B51094   2.100  28.675   7.352
 3998POPC   NC351095   8.093   1.084   5.279
 3998POPC   PO451096   8.353   1.693   5.383
 3998POPC   GL151097   8.336   1.340   5.697
 3998POPC   GL251098   7.994   1.184   5.778
 3998POPC   C1A51099   8.342   1.237   6.150
 3998POPC   D2A51100   8.413   1.487   6.519
 3998POPC   C3A51101   8.397   1.289   6.906
 3998POPC   C4A51102   8.357   1.031   7.236
 3998POPC   C1B51103   7.844   1.081   6.208
 3998POPC   C2B51104   8.018   1.054   6.625
 3998POPC   C3B51105   7.878   1.134   7.061
 3998POPC   C4B51106   7.718   1.058   7.485
 3999POPC   NC351107   1.628  36.457   5.395
 3999POPC   PO451108   2.263  36.320   5.553
 3999POPC   GL151109   2.021  35.985   5.751
 3999POPC   GL251110   2.207  35.707   5.905
 3999POPC   C1A51111   1.847  35.947   6.158
 3999POPC   D2A51112   1.781  36.153   6.544
 3999POPC   C3A51113   1.973  36.038   6.940
 3999POPC   C4A51114   1.907  36.069   7.372
 3999POPC   C1B51115   2.356  36.049   6.187
 3999POPC   C2B51116   2.299  36.271   6.593
 3999POPC   C3B51117   2.430  36.290   7.020
 3999POPC   C4B51118   2.507  35.937   7.259
 4000POPC   NC351119   2.928   8.878   5.388
 4000POPC   PO451120   2.399   9.255   5.522
 4000POPC   GL151121   2.580   8.942   5.848
 4000POPC   GL251122   2.924   8.870   5.898
 4000POPC   C1A51123   2.577   8.852   6.312
 4000POPC   D2A51124   2.311   8.919   6.694
 4000POPC   C3A51125   2.454   9.281   6.893
 4000POPC   C4A51126   2.643   9.318   7.272
 4000POPC   C1B51127   3.093   8.717   6.274
 4000POPC   C2B51128   3.152   8.870   6.693
 4000POPC   C3B51129   2.798   8.901   6.993
 4000POPC   C4B51130   2.784   8.677   7.385
 4001POPC   NC351131   0.167  19.025   5.309
 4001POPC   PO451132   0.827  19.103   5.487
 4001POPC   GL151133   0.458  19.018   5.790
 4001POPC   GL251134   0.163  19.243   5.776
 4001POPC   C1A51135   0.490  18.845   6.236
 4001POPC   D2A51136   0.714  18.723   6.592
 4001POPC   C3A51137   0.484  18.813   6.968
 4001POPC   C4A51138   0.447  19.024   7.362
 4001POPC   C1B51139   0.108  19.158   6.204
 4001POPC   C2B51140   0.287  19.152   6.611
 4001POPC   C3B51141   0.112  19.230   7.008
 4001POPC   C4B51142  44.957  19.135   7.391
 4002POPC   NC351143  18.525   3.124   5.335
 4002POPC   PO451144  18.061   2.686   5.191
 4002POPC   GL151145  18.066   2.679   5.673
 4002POPC   GL251146  18.420   2.708   5.729
 4002POPC   C1A51147  17.921   2.833   6.111
 4002POPC   D2A51148  18.012   2.919   6.555
 4002POPC   C3A51149  17.932   2.664   6.867
 4002POPC   C4A51150  18.008   2.691   7.264
 4002POPC   C1B51151  18.396   3.015   6.086
 4002POPC   C2B51152  18.503   3.042   6.527
 4002POPC   C3B51153  18.420   2.869   6.931
 4002POPC   C4B51154  18.513   2.978   7.334
 4003POPC   NC351155   1.653  35.563   5.612
 4003POPC   PO451156   2.290  35.422   5.485
 4003POPC   GL151157   2.171  35.174   5.855
 4003POPC   GL251158   1.789  35.099   5.889
 4003POPC   C1A51159   2.114  35.343   6.263
 4003POPC   D2A51160   2.124  35.714   6.517
 4003POPC   C3A51161   2.321  35.639   6.885
 4003POPC   C4A51162   2.100  35.588   7.268
 4003POPC   C1B51163   1.616  35.273   6.310
 4003POPC   C2B51164   1.668  35.315   6.792
 4003POPC   C3B51165   1.886  35.109   7.161
 4003POPC   C4B51166   1.835  35.144   7.608
 4004POPC   NC351167  35.080  41.462   5.384
 4004POPC   PO451168  35.653  41.807   5.276
 4004POPC   GL151169  35.474  41.586   5.675
 4004POPC   GL251170  35.372  41.875   5.718
 4004POPC   C1A51171  35.141  41.591   6.068
 4004POPC   D2A51172  35.083  41.793   6.510
 4004POPC   C3A51173  35.230  41.567   6.896
 4004POPC   C4A51174  35.616  41.384   7.146
 4004POPC   C1B51175  35.486  41.981   6.130
 4004POPC   C2B51176  35.572  42.087   6.534
 4004POPC   C3B51177  35.338  42.066   6.901
 4004POPC   C4B51178  35.383  41.851   7.305
 4005POPC   NC351179  19.694  15.663   5.269
 4005POPC   PO451180  20.104  16.179   5.434
 4005POPC   GL151181  19.939  15.891   5.729
 4005POPC   GL251182  19.573  15.771   5.769
 4005POPC   C1A51183  19.998  15.784   6.152
 4005POPC   D2A51184  19.834  15.927   6.530
 4005POPC   C3A51185  19.834  15.669   6.881
 4005POPC   C4A51186  19.987  15.812   7.262
 4005POPC   C1B51187  19.548  16.074   6.109
 4005POPC   C2B51188  19.402  16.221   6.531
 4005POPC   C3B51189  19.636  16.214   6.919
 4005POPC   C4B51190  19.923  16.330   7.234
 4006POPC   NC351191   8.900  35.668   5.486
 4006POPC   PO451192   9.204  36.270   5.505
 4006POPC   GL151193   8.955  36.116   5.814
 4006POPC   GL251194   9.103  35.801   5.910
 4006POPC   C1A51195   8.970  36.356   6.203
 4006POPC   D2A51196   9.183  36.324   6.615
 4006POPC   C3A51197   8.956  36.253   7.005
 4006POPC   C4A51198   9.127  36.333   7.418
 4006POPC   C1B51199   9.117  35.892   6.297
 4006POPC   C2B51200   8.853  35.917   6.605
 4006POPC   C3B51201   9.022  35.768   6.950
 4006POPC   C4B51202   9.118  35.832   7.354
 4007POPC   NC351203  31.948  10.067   5.376
 4007POPC   PO451204  32.274   9.502   5.378
 4007POPC   GL151205  32.284   9.597   5.835
 4007POPC   GL251206  32.203   9.953   5.834
 4007POPC   C1A51207  32.350   9.729   6.295
 4007POPC   D2A51208  32.484   9.929   6.696
 4007POPC   C3A51209  32.427   9.674   7.047
 4007POPC   C4A51210  32.081   9.449   7.256
 4007POPC   C1B51211  32.059  10.165   6.213
 4007POPC   C2B51212  31.924  10.188   6.600
 4007POPC   C3B51213  31.963   9.872   6.895
 4007POPC   C4B51214  32.023   9.945   7.288
 4008POPC   NC351215  23.588  28.589   5.357
 4008POPC   PO451216  24.164  28.293   5.406
 4008POPC   GL151217  23.920  28.494   5.744
 4008POPC   GL251218  23.558  28.398   5.823
 4008POPC   C1A51219  23.907  28.484   6.195
 4008POPC   D2A51220  23.803  28.318   6.593
 4008POPC   C3A51221  24.036  28.460   6.930
 4008POPC   C4A51222  23.937  28.399   7.327
 4008POPC   C1B51223  23.404  28.409   6.239
 4008POPC   C2B51224  23.386  28.625   6.624
 4008POPC   C3B51225  23.545  28.584   7.031
 4008POPC   C4B51226  23.432  28.396   7.406
 4009POPC   NC351227  39.141  26.073   5.076
 4009POPC   PO451228  39.079  25.654   5.593
 4009POPC   GL151229  39.171  26.044   5.847
 4009POPC   GL251230  39.409  26.325   5.992
 4009POPC   C1A51231  39.269  25.930   6.277
 4009POPC   D2A51232  39.152  26.022   6.690
 4009POPC   C3A51233  39.293  25.815   7.055
 4009POPC   C4A51234  38.958  25.798   7.335
 4009POPC   C1B51235  39.000  26.369   6.249
 4009POPC   C2B51236  38.879  26.486   6.702
 4009POPC   C3B51237  38.970  26.277   7.095
 4009POPC   C4B51238  39.330  26.189   7.400
 4010POPC   NC351239  19.634  37.363   5.529
 4010POPC   PO451240  20.241  37.776   5.437
 4010POPC   GL151241  19.999  37.687   5.785
 4010POPC   GL251242  19.655  37.832   5.749
 4010POPC   C1A51243  19.885  37.731   6.226
 4010POPC   D2A51244  20.060  37.716   6.643
 4010POPC   C3A51245  19.848  37.500   7.020
 4010POPC   C4A51246  19.623  37.409   7.420
 4010POPC   C1B51247  19.513  38.070   6.124
 4010POPC   C2B51248  19.742  38.176   6.497
 4010POPC   C3B51249  19.678  37.976   6.879
 4010POPC   C4B51250  19.711  37.918   7.299
 4011POPC   NC351251  31.309  15.844   5.506
 4011POPC   PO451252  31.971  16.188   5.482
 4011POPC   GL151253  31.803  16.028   5.859
 4011POPC   GL251254  31.433  15.982   5.972
 4011POPC   C1A51255  31.831  16.031   6.274
 4011POPC   D2A51256  31.532  15.987   6.547
 4011POPC   C3A51257  31.575  15.821   6.958
 4011POPC   C4A51258  31.500  15.996   7.362
 4011POPC   C1B51259  31.107  16.169   6.256
 4011POPC   C2B51260  30.944  16.299   6.684
 4011POPC   C3B51261  31.114  16.282   7.139
 4011POPC   C4B51262  31.170  16.262   7.647
 4012POPC   NC351263  18.546   5.437   5.475
 4012POPC   PO451264  18.045   4.904   5.405
 4012POPC   GL151265  18.368   4.839   5.695
 4012POPC   GL251266  18.561   5.127   5.881
 4012POPC   C1A51267  18.246   4.778   6.095
 4012POPC   D2A51268  18.069   4.965   6.467
 4012POPC   C3A51269  18.356   4.977   6.796
 4012POPC   C4A51270  18.309   4.924   7.224
 4012POPC   C1B51271  18.187   5.322   6.115
 4012POPC   C2B51272  18.088   5.476   6.554
 4012POPC   C3B51273  18.016   5.324   6.979
 4012POPC   C4B51274  18.338   5.448   7.264
 4013POPC   NC351275  20.005  16.610   5.341
 4013POPC   PO451276  19.416  16.905   5.462
 4013POPC   GL151277  19.737  16.791   5.732
 4013POPC   GL251278  19.780  16.423   5.790
 4013POPC   C1A51279  19.969  16.766   6.126
 4013POPC   D2A51280  19.868  16.474   6.471
 4013POPC   C3A51281  20.014  16.661   6.847
 4013POPC   C4A51282  19.898  16.847   7.235
 4013POPC   C1B51283  19.472  16.590   6.131
 4013POPC   C2B51284  19.288  16.754   6.508
 4013POPC   C3B51285  19.498  16.727   6.911
 4013POPC   C4B51286  19.410  16.531   7.282
 4014POPC   NC351287  33.957  21.267   5.391
 4014POPC   PO451288  33.434  21.612   5.456
 4014POPC   GL151289  33.602  21.308   5.745
 4014POPC   GL251290  33.846  21.546   5.821
 4014POPC   C1A51291  33.761  21.193   6.167
 4014POPC   D2A51292  33.510  21.219   6.535
 4014POPC   C3A51293  33.680  21.161   6.939
 4014POPC   C4A51294  33.808  21.320   7.330
 4014POPC   C1B51295  33.923  21.708   6.233
 4014POPC   C2B51296  34.003  21.879   6.611
 4014POPC   C3B51297  33.901  21.687   6.985
 4014POPC   C4B51298  33.691  21.813   7.417
 4015POPC   NC351299   8.843  42.801   5.660
 4015POPC   PO451300   9.136  43.415   5.565
 4015POPC   GL151301   9.076  43.182   5.906
 4015POPC   GL251302   9.348  42.967   5.824
 4015POPC   C1A51303   8.845  43.161   6.302
 4015POPC   D2A51304   8.626  43.092   6.740
 4015POPC   C3A51305   8.866  43.028   7.098
 4015POPC   C4A51306   9.152  43.347   7.272
 4015POPC   C1B51307   9.342  42.871   6.231
 4015POPC   C2B51308   9.132  42.879   6.612
 4015POPC   C3B51309   9.347  42.993   6.969
 4015POPC   C4B51310   9.289  42.848   7.384
 4016POPC   NC351311  20.569  11.860   5.681
 4016POPC   PO451312  20.887  12.431   5.476
 4016POPC   GL151313  20.613  12.357   5.847
 4016POPC   GL251314  20.242  12.373   5.775
 4016POPC   C1A51315  20.693  12.194   6.292
 4016POPC   D2A51316  20.669  11.817   6.581
 4016POPC   C3A51317  20.707  11.910   7.020
 4016POPC   C4A51318  20.940  12.167   7.295
 4016POPC   C1B51319  20.205  12.253   6.206
 4016POPC   C2B51320  20.217  12.097   6.600
 4016POPC   C3B51321  20.101  12.322   6.939
 4016POPC   C4B51322  20.491  12.368   7.153
 4017POPC   NC351323  10.794  32.370   5.470
 4017POPC   PO451324  10.305  32.057   5.422
 4017POPC   GL151325  10.311  32.372   5.780
 4017POPC   GL251326  10.608  32.612   5.884
 4017POPC   C1A51327  10.312  32.319   6.211
 4017POPC   D2A51328  10.199  32.487   6.578
 4017POPC   C3A51329  10.253  32.244   6.945
 4017POPC   C4A51330  10.546  32.033   7.163
 4017POPC   C1B51331  10.810  32.318   6.191
 4017POPC   C2B51332  10.664  32.249   6.601
 4017POPC   C3B51333  10.812  32.436   6.949
 4017POPC   C4B51334  11.004  32.261   7.287
 4018POPC   NC351335  18.232   1.275   5.286
 4018POPC   PO451336  18.626   0.879   5.662
 4018POPC   GL151337  18.479   1.157   5.964
 4018POPC   GL251338  18.269   1.382   5.795
 4018POPC   C1A51339  18.587   1.299   6.376
 4018POPC   D2A51340  18.324   1.440   6.690
 4018POPC   C3A51341  18.412   1.287   7.069
 4018POPC   C4A51342  18.674   1.529   7.276
 4018POPC   C1B51343  18.094   1.438   6.215
 4018POPC   C2B51344  17.859   1.294   6.593
 4018POPC   C3B51345  17.883   1.294   7.029
 4018POPC   C4B51346  18.051   1.185   7.451
 4019POPC   NC351347  25.057   2.614   5.287
 4019POPC   PO451348  25.598   2.868   5.398
 4019POPC   GL151349  25.348   2.667   5.727
 4019POPC   GL251350  25.067   2.903   5.718
 4019POPC   C1A51351  25.284   2.520   6.180
 4019POPC   D2A51352  25.065   2.588   6.603
 4019POPC   C3A51353  25.277   2.527   7.005
 4019POPC   C4A51354  25.165   2.425   7.400
 4019POPC   C1B51355  25.367   3.116   5.992
 4019POPC   C2B51356  25.260   3.019   6.386
 4019POPC   C3B51357  25.407   2.955   6.776
 4019POPC   C4B51358  25.364   3.026   7.211
 4020POPC   NC351359  33.661  19.530   5.437
 4020POPC   PO451360  33.944  20.184   5.349
 4020POPC   GL151361  33.757  20.032   5.726
 4020POPC   GL251362  33.936  19.739   5.826
 4020POPC   C1A51363  33.632  20.006   6.179
 4020POPC   D2A51364  33.779  19.844   6.585
 4020POPC   C3A51365  33.695  20.053   6.958
 4020POPC   C4A51366  33.581  20.055   7.394
 4020POPC   C1B51367  33.845  19.506   6.212
 4020POPC   C2B51368  33.991  19.357   6.631
 4020POPC   C3B51369  34.014  19.620   6.984
 4020POPC   C4B51370  33.864  19.652   7.422
 4021POPC   NC351371  24.193   9.561   5.525
 4021POPC   PO451372  24.339   8.944   5.369
 4021POPC   GL151373  24.299   8.987   5.824
 4021POPC   GL251374  24.558   8.782   5.993
 4021POPC   C1A51375  24.150   8.902   6.273
 4021POPC   D2A51376  24.403   9.082   6.615
 4021POPC   C3A51377  24.279   9.012   7.044
 4021POPC   C4A51378  24.457   8.652   7.203
 4021POPC   C1B51379  24.827   9.099   6.192
 4021POPC   C2B51380  24.910   9.275   6.610
 4021POPC   C3B51381  24.718   9.254   6.995
 4021POPC   C4B51382  24.780   9.027   7.355
 4022POPC   NC351383  11.454  32.929   5.510
 4022POPC   PO451384  11.026  33.487   5.328
 4022POPC   GL151385  11.197  33.284   5.742
 4022POPC   GL251386  11.052  32.909   5.810
 4022POPC   C1A51387  11.446  33.231   6.130
 4022POPC   D2A51388  11.561  33.047   6.535
 4022POPC   C3A51389  11.397  33.156   6.920
 4022POPC   C4A51390  11.362  33.120   7.358
 4022POPC   C1B51391  11.133  32.735   6.211
 4022POPC   C2B51392  11.103  32.809   6.641
 4022POPC   C3B51393  11.256  32.682   7.036
 4022POPC   C4B51394  11.023  32.752   7.395
 4023POPC   NC351395  26.633   2.222   5.502
 4023POPC   PO451396  26.018   1.964   5.472
 4023POPC   GL151397  26.247   2.038   5.824
 4023POPC   GL251398  26.187   2.370   5.795
 4023POPC   C1A51399  26.100   1.837   6.207
 4023POPC   D2A51400  25.855   1.681   6.557
 4023POPC   C3A51401  26.103   1.735   6.936
 4023POPC   C4A51402  26.165   1.917   7.355
 4023POPC   C1B51403  25.928   2.331   6.169
 4023POPC   C2B51404  25.867   2.193   6.605
 4023POPC   C3B51405  26.049   2.270   7.019
 4023POPC   C4B51406  26.091   2.451   7.458
 4024POPC   NC351407  37.405   7.512   5.545
 4024POPC   PO451408  37.602   6.957   5.206
 4024POPC   GL151409  37.750   7.079   5.701
 4024POPC   GL251410  37.873   7.422   5.784
 4024POPC   C1A51411  37.575   7.248   6.137
 4024POPC   D2A51412  37.452   7.501   6.494
 4024POPC   C3A51413  37.576   7.418   6.963
 4024POPC   C4A51414  37.453   7.448   7.433
 4024POPC   C1B51415  38.064   7.452   6.196
 4024POPC   C2B51416  37.941   7.447   6.591
 4024POPC   C3B51417  38.085   7.618   6.949
 4024POPC   C4B51418  37.951   7.553   7.313
 4025POPC   NC351419  39.068  14.605   5.304
 4025POPC   PO451420  39.322  14.015   5.364
 4025POPC   GL151421  39.265  14.338   5.715
 4025POPC   GL251422  39.511  14.590   5.771
 4025POPC   C1A51423  39.160  14.510   6.162
 4025POPC   D2A51424  39.262  14.406   6.622
 4025POPC   C3A51425  38.982  14.528   7.004
 4025POPC   C4A51426  39.091  14.265   7.389
 4025POPC   C1B51427  39.631  14.748   6.208
 4025POPC   C2B51428  39.582  14.792   6.671
 4025POPC   C3B51429  39.483  14.581   7.110
 4025POPC   C4B51430  39.303  14.692   7.561
 4026POPC   NC351431  18.716  25.390   5.493
 4026POPC   PO451432  19.203  24.907   5.513
 4026POPC   GL151433  19.041  25.176   5.864
 4026POPC   GL251434  19.134  25.530   5.830
 4026POPC   C1A51435  18.904  25.064   6.306
 4026POPC   D2A51436  19.046  24.824   6.701
 4026POPC   C3A51437  19.005  25.086   7.091
 4026POPC   C4A51438  18.681  25.372   7.255
 4026POPC   C1B51439  19.312  25.372   6.243
 4026POPC   C2B51440  19.232  25.299   6.657
 4026POPC   C3B51441  19.425  25.405   7.025
 4026POPC   C4B51442  19.479  25.168   7.363
 4027POPC   NC351443   2.096  16.263   5.461
 4027POPC   PO451444   1.847  15.707   5.271
 4027POPC   GL151445   1.740  15.926   5.654
 4027POPC   GL251446   2.085  15.850   5.793
 4027POPC   C1A51447   1.757  16.099   6.091
 4027POPC   D2A51448   1.997  15.975   6.454
 4027POPC   C3A51449   1.989  16.094   6.876
 4027POPC   C4A51450   1.911  15.749   7.164
 4027POPC   C1B51451   2.348  15.732   6.161
 4027POPC   C2B51452   2.493  15.845   6.576
 4027POPC   C3B51453   2.411  15.825   7.009
 4027POPC   C4B51454   2.417  15.662   7.404
 4028POPC   NC351455   8.032  35.517   5.509
 4028POPC   PO451456   8.563  35.044   5.539
 4028POPC   GL151457   8.341  35.316   5.880
 4028POPC   GL251458   8.493  35.658   5.885
 4028POPC   C1A51459   8.161  35.246   6.312
 4028POPC   D2A51460   8.289  35.060   6.720
 4028POPC   C3A51461   8.160  35.289   7.108
 4028POPC   C4A51462   7.990  35.158   7.541
 4028POPC   C1B51463   8.129  35.747   6.171
 4028POPC   C2B51464   7.956  35.669   6.599
 4028POPC   C3B51465   8.015  35.765   7.061
 4028POPC   C4B51466   8.311  35.698   7.413
 4029POPC   NC351467  18.779  20.892   5.411
 4029POPC   PO451468  19.375  20.652   5.538
 4029POPC   GL151469  19.085  20.496   5.800
 4029POPC   GL251470  18.987  20.843   5.898
 4029POPC   C1A51471  18.995  20.452   6.233
 4029POPC   D2A51472  18.834  20.378   6.635
 4029POPC   C3A51473  18.970  20.665   6.933
 4029POPC   C4A51474  18.944  20.550   7.358
 4029POPC   C1B51475  19.328  20.851   6.239
 4029POPC   C2B51476  19.347  20.959   6.704
 4029POPC   C3B51477  19.433  20.760   7.121
 4029POPC   C4B51478  19.341  20.819   7.544
 4030POPC   NC351479  30.816  24.822   5.504
 4030POPC   PO451480  30.719  24.168   5.373
 4030POPC   GL151481  30.732  24.382   5.803
 4030POPC   GL251482  30.463  24.662   5.833
 4030POPC   C1A51483  30.639  24.320   6.244
 4030POPC   D2A51484  30.892  24.392   6.591
 4030POPC   C3A51485  30.782  24.589   6.943
 4030POPC   C4A51486  30.866  24.334   7.268
 4030POPC   C1B51487  30.211  24.597   6.199
 4030POPC   C2B51488  30.291  24.464   6.605
 4030POPC   C3B51489  30.295  24.493   7.022
 4030POPC   C4B51490  30.423  24.472   7.440
 4031POPC   NC351491  23.382  33.997   5.352
 4031POPC   PO451492  23.989  33.748   5.492
 4031POPC   GL151493  23.888  33.556   5.859
 4031POPC   GL251494  24.177  33.323   5.976
 4031POPC   C1A51495  23.518  33.653   6.112
 4031POPC   D2A51496  23.444  33.712   6.551
 4031POPC   C3A51497  23.598  34.031   6.845
 4031POPC   C4A51498  23.322  33.946   7.155
 4031POPC   C1B51499  24.042  33.605   6.328
 4031POPC   C2B51500  23.932  33.662   6.749
 4031POPC   C3B51501  24.143  33.690   7.125
 4031POPC   C4B51502  24.061  33.600   7.555
 4032POPC   NC351503  32.213  33.252   5.206
 4032POPC   PO451504  31.967  32.691   5.379
 4032POPC   GL151505  32.244  32.920   5.713
 4032POPC   GL251506  32.378  33.293   5.704
 4032POPC   C1A51507  32.349  32.822   6.164
 4032POPC   D2A51508  32.453  32.954   6.594
 4032POPC   C3A51509  32.254  32.874   6.992
 4032POPC   C4A51510  32.488  32.977   7.329
 4032POPC   C1B51511  32.209  33.322   6.095
 4032POPC   C2B51512  32.097  33.315   6.522
 4032POPC   C3B51513  31.941  33.260   6.928
 4032POPC   C4B51514  31.986  33.417   7.344
 4033POPC   NC351515   3.837  14.747   5.498
 4033POPC   PO451516   4.492  14.401   5.442
 4033POPC   GL151517   4.503  14.406   5.854
 4033POPC   GL251518   4.439  14.746   5.904
 4033POPC   C1A51519   4.331  14.253   6.227
 4033POPC   D2A51520   4.180  14.176   6.621
 4033POPC   C3A51521   4.417  14.387   6.908
 4033POPC   C4A51522   4.349  14.353   7.310
 4033POPC   C1B51523   4.107  14.706   6.229
 4033POPC   C2B51524   4.091  14.715   6.674
 4033POPC   C3B51525   4.236  14.836   7.072
 4033POPC   C4B51526   4.386  14.791   7.512
 4034POPC   NC351527  37.388  33.121   5.178
 4034POPC   PO451528  37.598  32.491   5.451
 4034POPC   GL151529  37.687  32.805   5.837
 4034POPC   GL251530  38.027  32.966   5.888
 4034POPC   C1A51531  37.584  33.003   6.277
 4034POPC   D2A51532  37.484  33.333   6.600
 4034POPC   C3A51533  37.372  33.175   7.021
 4034POPC   C4A51534  37.456  33.095   7.486
 4034POPC   C1B51535  38.021  33.267   6.253
 4034POPC   C2B51536  37.942  33.135   6.689
 4034POPC   C3B51537  37.873  33.079   7.133
 4034POPC   C4B51538  37.962  33.189   7.553
 4035POPC   NC351539  40.004  21.127   5.481
 4035POPC   PO451540  39.555  21.217   5.094
 4035POPC   GL151541  39.704  21.481   5.647
 4035POPC   GL251542  39.966  21.308   5.929
 4035POPC   C1A51543  39.601  21.552   6.145
 4035POPC   D2A51544  39.514  21.333   6.577
 4035POPC   C3A51545  39.763  21.349   6.945
 4035POPC   C4A51546  39.657  21.523   7.328
 4035POPC   C1B51547  40.212  21.164   6.300
 4035POPC   C2B51548  40.492  21.177   6.615
 4035POPC   C3B51549  40.293  21.262   6.995
 4035POPC   C4B51550  40.390  21.107   7.410
 4036POPC   NC351551  12.512   0.539   5.104
 4036POPC   PO451552  12.070   0.205   5.489
 4036POPC   GL151553  12.121   0.317   5.961
 4036POPC   GL251554  11.944   0.624   5.945
 4036POPC   C1A51555  12.394   0.539   6.317
 4036POPC   D2A51556  12.289   0.771   6.736
 4036POPC   C3A51557  12.152   0.466   7.024
 4036POPC   C4A51558  12.344   0.069   7.129
 4036POPC   C1B51559  11.894   0.526   6.403
 4036POPC   C2B51560  11.738   0.723   6.759
 4036POPC   C3B51561  11.885   0.888   7.139
 4036POPC   C4B51562  12.210   0.832   7.452
 4037POPC   NC351563   7.874  21.678   5.459
 4037POPC   PO451564   8.299  21.213   5.389
 4037POPC   GL151565   8.486  21.238   5.797
 4037POPC   GL251566   8.457  20.927   5.943
 4037POPC   C1A51567   8.405  21.466   6.201
 4037POPC   D2A51568   8.120  21.415   6.570
 4037POPC   C3A51569   8.111  21.690   6.926
 4037POPC   C4A51570   7.748  21.789   7.170
 4037POPC   C1B51571   8.115  21.040   6.187
 4037POPC   C2B51572   8.029  20.900   6.591
 4037POPC   C3B51573   7.930  21.062   6.959
 4037POPC   C4B51574   8.220  20.928   7.200
 4038POPC   NC351575  38.341  17.587   5.412
 4038POPC   PO451576  38.986  17.361   5.623
 4038POPC   GL151577  38.628  17.528   5.844
 4038POPC   GL251578  38.403  17.837   5.839
 4038POPC   C1A51579  38.497  17.535   6.261
 4038POPC   D2A51580  38.293  17.275   6.567
 4038POPC   C3A51581  38.327  17.427   6.973
 4038POPC   C4A51582  38.045  17.583   7.233
 4038POPC   C1B51583  38.410  18.047   6.213
 4038POPC   C2B51584  38.323  17.922   6.617
 4038POPC   C3B51585  38.276  18.084   7.014
 4038POPC   C4B51586  38.512  17.820   7.241
 4039POPC   NC351587  13.131  21.997   5.465
 4039POPC   PO451588  13.843  22.065   5.535
 4039POPC   GL151589  13.498  22.186   5.789
 4039POPC   GL251590  13.412  21.871   5.879
 4039POPC   C1A51591  13.365  22.251   6.220
 4039POPC   D2A51592  13.714  22.344   6.510
 4039POPC   C3A51593  13.720  22.134   6.892
 4039POPC   C4A51594  13.479  22.223   7.255
 4039POPC   C1B51595  13.714  21.875   6.242
 4039POPC   C2B51596  13.948  21.718   6.615
 4039POPC   C3B51597  13.766  21.653   7.014
 4039POPC   C4B51598  13.318  21.760   7.127
 4040POPC   NC351599  39.174  17.037   5.360
 4040POPC   PO451600  39.496  16.507   5.721
 4040POPC   GL151601  39.141  16.584   5.971
 4040POPC   GL251602  39.014  16.262   6.082
 4040POPC   C1A51603  39.191  16.905   6.280
 4040POPC   D2A51604  39.447  17.162   6.561
 4040POPC   C3A51605  39.244  17.193   6.966
 4040POPC   C4A51606  39.128  16.855   7.253
 4040POPC   C1B51607  38.814  16.510   6.423
 4040POPC   C2B51608  39.025  16.716   6.770
 4040POPC   C3B51609  39.469  16.739   6.871
 4040POPC   C4B51610  39.653  16.687   7.266
 4041POPC   NC351611  28.820  16.453   5.570
 4041POPC   PO451612  29.346  16.725   5.275
 4041POPC   GL151613  29.175  16.826   5.707
 4041POPC   GL251614  29.493  16.898   5.812
 4041POPC   C1A51615  29.174  16.895   6.193
 4041POPC   D2A51616  28.998  16.839   6.596
 4041POPC   C3A51617  29.216  16.913   6.966
 4041POPC   C4A51618  29.119  16.779   7.411
 4041POPC   C1B51619  29.537  16.531   6.164
 4041POPC   C2B51620  29.317  16.406   6.574
 4041POPC   C3B51621  29.278  16.416   7.036
 4041POPC   C4B51622  29.588  16.673   7.227
 4042POPC   NC351623  10.986   8.472   5.306
 4042POPC   PO451624  11.656   8.381   5.157
 4042POPC   GL151625  11.395   8.206   5.574
 4042POPC   GL251626  11.085   8.358   5.782
 4042POPC   C1A51627  11.437   8.156   6.061
 4042POPC   D2A51628  11.225   8.080   6.451
 4042POPC   C3A51629  11.477   8.046   6.821
 4042POPC   C4A51630  11.384   8.281   7.183
 4042POPC   C1B51631  10.880   8.557   6.147
 4042POPC   C2B51632  10.847   8.433   6.590
 4042POPC   C3B51633  10.930   8.200   6.965
 4042POPC   C4B51634  10.867   8.228   7.428
 4043POPC   NC351635  21.621  15.293   5.409
 4043POPC   PO451636  21.093  14.863   5.223
 4043POPC   GL151637  21.236  15.015   5.617
 4043POPC   GL251638  21.052  15.291   5.797
 4043POPC   C1A51639  21.371  14.923   6.037
 4043POPC   D2A51640  21.602  15.070   6.432
 4043POPC   C3A51641  21.536  14.972   6.868
 4043POPC   C4A51642  21.518  15.194   7.278
 4043POPC   C1B51643  21.356  15.424   6.132
 4043POPC   C2B51644  21.309  15.476   6.574
 4043POPC   C3B51645  21.224  15.487   6.995
 4043POPC   C4B51646  21.386  15.682   7.396
 4044POPC   NC351647  22.011  27.379   5.288
 4044POPC   PO451648  22.280  27.983   5.367
 4044POPC   GL151649  22.152  27.754   5.758
 4044POPC   GL251650  22.119  27.409   5.799
 4044POPC   C1A51651  22.311  27.714   6.211
 4044POPC   D2A51652  22.509  27.634   6.605
 4044POPC   C3A51653  22.277  27.878   6.943
 4044POPC   C4A51654  22.000  27.762   7.278
 4044POPC   C1B51655  21.844  27.514   6.167
 4044POPC   C2B51656  21.955  27.508   6.618
 4044POPC   C3B51657  22.222  27.379   6.970
 4044POPC   C4B51658  22.335  27.323   7.404
 4045POPC   NC351659  28.902  40.282   5.354
 4045POPC   PO451660  29.313  39.757   5.492
 4045POPC   GL151661  29.395  39.889   5.884
 4045POPC   GL251662  29.226  40.218   5.825
 4045POPC   C1A51663  29.292  39.930   6.303
 4045POPC   D2A51664  29.362  39.877   6.714
 4045POPC   C3A51665  29.043  39.812   6.969
 4045POPC   C4A51666  29.212  39.993   7.296
 4045POPC   C1B51667  28.925  40.276   6.115
 4045POPC   C2B51668  28.963  40.482   6.522
 4045POPC   C3B51669  29.149  40.337   6.881
 4045POPC   C4B51670  29.062  40.501   7.257
 4046POPC   NC351671  24.494  23.121   5.386
 4046POPC   PO451672  24.570  22.457   5.142
 4046POPC   GL151673  24.464  22.623   5.637
 4046POPC   GL251674  24.629  22.916   5.816
 4046POPC   C1A51675  24.242  22.717   6.081
 4046POPC   D2A51676  24.265  23.047   6.426
 4046POPC   C3A51677  24.255  22.962   6.887
 4046POPC   C4A51678  24.494  22.801   7.270
 4046POPC   C1B51679  24.746  22.739   6.181
 4046POPC   C2B51680  24.764  22.980   6.558
 4046POPC   C3B51681  24.737  23.163   6.968
 4046POPC   C4B51682  24.404  23.321   7.230
 4047POPC   NC351683  25.995  36.942   5.355
 4047POPC   PO451684  26.458  37.383   5.442
 4047POPC   GL151685  26.235  37.086   5.782
 4047POPC   GL251686  26.138  36.692   5.791
 4047POPC   C1A51687  25.824  36.972   6.054
 4047POPC   D2A51688  25.692  36.796   6.462
 4047POPC   C3A51689  25.702  37.036   6.862
 4047POPC   C4A51690  25.826  36.870   7.279
 4047POPC   C1B51691  26.287  36.797   6.195
 4047POPC   C2B51692  26.195  36.662   6.574
 4047POPC   C3B51693  26.213  36.850   6.942
 4047POPC   C4B51694  26.332  36.720   7.326
 4048POPC   NC351695   7.585  29.239   5.494
 4048POPC   PO451696   7.322  28.642   5.377
 4048POPC   GL151697   7.284  28.942   5.776
 4048POPC   GL251698   7.123  29.288   5.702
 4048POPC   C1A51699   7.243  29.138   6.226
 4048POPC   D2A51700   7.371  29.322   6.666
 4048POPC   C3A51701   7.356  29.069   7.079
 4048POPC   C4A51702   7.437  28.937   7.530
 4048POPC   C1B51703   7.022  29.572   6.027
 4048POPC   C2B51704   6.989  29.700   6.429
 4048POPC   C3B51705   7.068  29.708   6.830
 4048POPC   C4B51706   7.139  29.521   7.203
 4049POPC   NC351707  34.642  23.333   5.602
 4049POPC   PO451708  34.293  23.989   5.399
 4049POPC   GL151709  34.456  24.014   5.779
 4049POPC   GL251710  34.768  23.819   5.765
 4049POPC   C1A51711  34.401  23.821   6.167
 4049POPC   D2A51712  34.523  23.575   6.511
 4049POPC   C3A51713  34.547  23.763   6.906
 4049POPC   C4A51714  34.365  24.017   7.216
 4049POPC   C1B51715  34.893  23.736   6.172
 4049POPC   C2B51716  35.170  23.855   6.482
 4049POPC   C3B51717  35.056  23.970   6.901
 4049POPC   C4B51718  34.949  23.715   7.229
 4050POPC   NC351719  14.646  31.045   5.302
 4050POPC   PO451720  14.311  30.348   5.413
 4050POPC   GL151721  14.363  30.675   5.775
 4050POPC   GL251722  14.717  30.759   5.733
 4050POPC   C1A51723  14.320  30.713   6.266
 4050POPC   D2A51724  14.371  30.540   6.714
 4050POPC   C3A51725  14.283  30.730   7.134
 4050POPC   C4A51726  13.997  30.649   7.491
 4050POPC   C1B51727  14.895  30.933   6.098
 4050POPC   C2B51728  14.774  30.839   6.498
 4050POPC   C3B51729  14.850  30.694   6.883
 4050POPC   C4B51730  14.787  30.903   7.256
 4051POPC   NC351731  23.509  27.347   5.504
 4051POPC   PO451732  24.125  27.482   5.555
 4051POPC   GL151733  23.928  27.636   5.912
 4051POPC   GL251734  23.856  27.965   5.757
 4051POPC   C1A51735  23.579  27.463   6.212
 4051POPC   D2A51736  23.424  27.235   6.608
 4051POPC   C3A51737  23.395  27.543   6.941
 4051POPC   C4A51738  23.755  27.570   7.209
 4051POPC   C1B51739  23.662  27.978   6.186
 4051POPC   C2B51740  23.709  27.821   6.638
 4051POPC   C3B51741  23.648  28.045   7.058
 4051POPC   C4B51742  23.491  27.911   7.502
 4052POPC   NC351743  31.288  26.357   5.509
 4052POPC   PO451744  31.499  26.938   5.297
 4052POPC   GL151745  31.484  26.787   5.721
 4052POPC   GL251746  31.743  26.930   5.873
 4052POPC   C1A51747  31.410  26.582   6.131
 4052POPC   D2A51748  31.364  26.752   6.543
 4052POPC   C3A51749  31.480  26.576   6.921
 4052POPC   C4A51750  31.337  26.698   7.284
 4052POPC   C1B51751  31.746  26.996   6.298
 4052POPC   C2B51752  31.853  26.879   6.701
 4052POPC   C3B51753  31.714  26.996   7.099
 4052POPC   C4B51754  31.676  27.215   7.473
 4053POPC   NC351755  33.555  27.102   5.358
 4053POPC   PO451756  34.181  26.861   5.436
 4053POPC   GL151757  33.877  26.840   5.756
 4053POPC   GL251758  33.730  27.142   5.829
 4053POPC   C1A51759  33.784  26.633   6.162
 4053POPC   D2A51760  33.582  26.527   6.571
 4053POPC   C3A51761  33.869  26.548   6.865
 4053POPC   C4A51762  34.062  26.650   7.217
 4053POPC   C1B51763  33.896  27.124   6.220
 4053POPC   C2B51764  33.822  27.007   6.603
 4053POPC   C3B51765  33.748  27.033   7.011
 4053POPC   C4B51766  33.567  26.716   7.279
 4054POPC   NC351767  18.837   1.286   5.611
 4054POPC   PO451768  19.470   1.144   5.280
 4054POPC   GL151769  19.338   1.266   5.703
 4054POPC   GL251770  19.298   1.632   5.670
 4054POPC   C1A51771  19.277   1.169   6.152
 4054POPC   D2A51772  19.319   1.068   6.599
 4054POPC   C3A51773  18.892   1.057   6.790
 4054POPC   C4A51774  18.812   0.995   7.218
 4054POPC   C1B51775  19.162   1.670   6.132
 4054POPC   C2B51776  19.070   1.516   6.577
 4054POPC   C3B51777  19.146   1.433   7.039
 4054POPC   C4B51778  19.244   1.707   7.384
 4055POPC   NC351779   8.146  14.048   5.396
 4055POPC   PO451780   8.405  14.710   5.518
 4055POPC   GL151781   8.154  14.419   5.814
 4055POPC   GL251782   7.897  14.194   5.852
 4055POPC   C1A51783   8.038  14.550   6.224
 4055POPC   D2A51784   8.318  14.757   6.528
 4055POPC   C3A51785   8.231  14.736   6.942
 4055POPC   C4A51786   8.219  14.578   7.334
 4055POPC   C1B51787   8.082  14.041   6.266
 4055POPC   C2B51788   8.151  14.254   6.639
 4055POPC   C3B51789   7.948  14.316   7.000
 4055POPC   C4B51790   8.027  14.084   7.337
 4056POPC   NC351791  43.623   8.476   5.471
 4056POPC   PO451792  43.740   7.884   5.135
 4056POPC   GL151793  43.890   8.022   5.605
 4056POPC   GL251794  44.156   7.820   5.744
 4056POPC   C1A51795  43.848   8.283   6.054
 4056POPC   D2A51796  43.925   8.260   6.518
 4056POPC   C3A51797  43.644   8.416   6.832
 4056POPC   C4A51798  43.324   8.514   7.104
 4056POPC   C1B51799  43.869   7.788   6.092
 4056POPC   C2B51800  43.998   7.745   6.506
 4056POPC   C3B51801  44.180   7.952   6.840
 4056POPC   C4B51802  43.906   8.073   7.153
 4057POPC   NC351803  40.164  33.672   5.623
 4057POPC   PO451804  39.587  33.908   5.407
 4057POPC   GL151805  39.799  33.994   5.793
 4057POPC   GL251806  39.699  33.644   5.883
 4057POPC   C1A51807  40.029  33.960   6.204
 4057POPC   D2A51808  40.172  33.612   6.492
 4057POPC   C3A51809  40.306  33.774   6.886
 4057POPC   C4A51810  40.119  33.865   7.268
 4057POPC   C1B51811  39.521  33.888   6.207
 4057POPC   C2B51812  39.697  34.007   6.601
 4057POPC   C3B51813  39.636  33.801   6.967
 4057POPC   C4B51814  39.596  33.860   7.374
 4058POPC   NC351815  22.063  17.749   5.508
 4058POPC   PO451816  22.490  17.155   5.495
 4058POPC   GL151817  22.219  17.316   5.786
 4058POPC   GL251818  22.421  17.578   5.833
 4058POPC   C1A51819  22.048  17.432   6.199
 4058POPC   D2A51820  22.171  17.224   6.587
 4058POPC   C3A51821  21.903  17.212   6.927
 4058POPC   C4A51822  21.987  17.388   7.319
 4058POPC   C1B51823  22.346  17.867   6.159
 4058POPC   C2B51824  22.293  17.771   6.562
 4058POPC   C3B51825  22.244  17.635   6.964
 4058POPC   C4B51826  22.381  17.762   7.371
 4059POPC   NC351827  29.171  41.044   5.316
 4059POPC   PO451828  29.362  40.409   5.193
 4059POPC   GL151829  29.423  40.682   5.649
 4059POPC   GL251830  29.233  41.036   5.806
 4059POPC   C1A51831  29.258  40.655   6.118
 4059POPC   D2A51832  29.375  40.836   6.505
 4059POPC   C3A51833  29.187  40.857   6.895
 4059POPC   C4A51834  29.304  40.943   7.331
 4059POPC   C1B51835  28.896  41.168   6.099
 4059POPC   C2B51836  28.808  40.997   6.501
 4059POPC   C3B51837  28.831  41.216   6.862
 4059POPC   C4B51838  28.827  41.033   7.231
 4060POPC   NC351839  44.005  33.454   5.302
 4060POPC   PO451840  43.948  34.103   5.541
 4060POPC   GL151841  43.875  33.687   5.769
 4060POPC   GL251842  43.634  33.854   5.998
 4060POPC   C1A51843  43.775  33.391   6.123
 4060POPC   D2A51844  43.601  33.583   6.488
 4060POPC   C3A51845  43.759  33.473   6.876
 4060POPC   C4A51846  43.864  33.649   7.273
 4060POPC   C1B51847  44.040  33.806   6.276
 4060POPC   C2B51848  44.129  33.831   6.755
 4060POPC   C3B51849  43.895  34.118   7.066
 4060POPC   C4B51850  43.594  34.432   7.275
 4061POPC   NC351851  25.043   4.256   5.530
 4061POPC   PO451852  25.656   4.464   5.460
 4061POPC   GL151853  25.376   4.496   5.831
 4061POPC   GL251854  25.336   4.142   5.945
 4061POPC   C1A51855  25.102   4.490   6.213
 4061POPC   D2A51856  25.342   4.317   6.537
 4061POPC   C3A51857  25.191   4.391   6.923
 4061POPC   C4A51858  24.967   4.109   7.217
 4061POPC   C1B51859  25.020   3.966   6.260
 4061POPC   C2B51860  25.084   3.901   6.726
 4061POPC   C3B51861  25.434   3.942   7.027
 4061POPC   C4B51862  25.460   3.989   7.490
 4062POPC   NC351863  34.900  23.152   5.116
 4062POPC   PO451864  34.309  22.994   5.495
 4062POPC   GL151865  34.633  22.899   5.823
 4062POPC   GL251866  34.846  22.637   5.801
 4062POPC   C1A51867  34.701  23.129   6.250
 4062POPC   D2A51868  34.346  23.099   6.557
 4062POPC   C3A51869  34.426  23.254   6.957
 4062POPC   C4A51870  34.208  23.131   7.332
 4062POPC   C1B51871  34.538  22.642   6.223
 4062POPC   C2B51872  34.592  22.665   6.671
 4062POPC   C3B51873  34.508  22.757   7.110
 4062POPC   C4B51874  34.831  22.703   7.419
 4063POPC   NC351875   0.522  38.618   5.213
 4063POPC   PO451876   0.114  38.246   5.479
 4063POPC   GL151877   0.250  38.647   5.700
 4063POPC   GL251878  44.970  38.673   5.909
 4063POPC   C1A51879   0.454  38.823   6.114
 4063POPC   D2A51880   0.625  38.607   6.527
 4063POPC   C3A51881   0.438  38.585   6.982
 4063POPC   C4A51882   0.544  38.434   7.412
 4063POPC   C1B51883   0.206  38.372   6.213
 4063POPC   C2B51884   0.342  38.177   6.638
 4063POPC   C3B51885   0.201  38.128   7.073
 4063POPC   C4B51886   0.258  38.036   7.507
 4064POPC   NC351887  11.667  35.377   5.498
 4064POPC   PO451888  11.119  34.996   5.307
 4064POPC   GL151889  11.192  35.278   5.694
 4064POPC   GL251890  11.267  35.635   5.689
 4064POPC   C1A51891  11.385  35.242   6.145
 4064POPC   D2A51892  11.462  35.188   6.606
 4064POPC   C3A51893  11.286  35.174   7.020
 4064POPC   C4A51894  11.274  35.041   7.477
 4064POPC   C1B51895  11.443  35.762   6.094
 4064POPC   C2B51896  11.469  35.937   6.506
 4064POPC   C3B51897  11.438  35.699   6.904
 4064POPC   C4B51898  11.257  35.598   7.300
 4065POPC   NC351899  44.833  21.586   5.375
 4065POPC   PO451900  44.434  21.149   5.577
 4065POPC   GL151901  44.586  21.484   5.858
 4065POPC   GL251902  44.948  21.605   5.868
 4065POPC   C1A51903  44.671  21.534   6.321
 4065POPC   D2A51904  44.896  21.596   6.715
 4065POPC   C3A51905  44.619  21.508   7.040
 4065POPC   C4A51906  44.558  21.184   7.325
 4065POPC   C1B51907  44.993  21.190   6.085
 4065POPC   C2B51908   0.096  21.104   6.533
 4065POPC   C3B51909  44.908  21.087   6.934
 4065POPC   C4B51910   0.054  21.261   7.333
 4066POPC   NC351911  15.345  11.785   5.252
 4066POPC   PO451912  14.923  12.190   5.449
 4066POPC   GL151913  15.100  12.220   5.811
 4066POPC   GL251914  15.389  12.002   5.768
 4066POPC   C1A51915  14.857  12.104   6.158
 4066POPC   D2A51916  14.918  11.875   6.516
 4066POPC   C3A51917  14.979  12.101   6.858
 4066POPC   C4A51918  14.979  12.004   7.262
 4066POPC   C1B51919  15.390  12.050   6.225
 4066POPC   C2B51920  15.437  12.009   6.652
 4066POPC   C3B51921  15.437  11.946   7.057
 4066POPC   C4B51922  15.398  11.648   7.357
 4067POPC   NC351923  13.190  29.875   5.390
 4067POPC   PO451924  12.683  30.317   5.444
 4067POPC   GL151925  12.674  30.086   5.815
 4067POPC   GL251926  13.037  30.068   5.853
 4067POPC   C1A51927  12.513  29.778   6.132
 4067POPC   D2A51928  12.450  29.634   6.573
 4067POPC   C3A51929  12.521  29.828   6.989
 4067POPC   C4A51930  12.746  29.707   7.348
 4067POPC   C1B51931  12.923  30.017   6.290
 4067POPC   C2B51932  12.943  29.857   6.710
 4067POPC   C3B51933  12.986  30.078   7.102
 4067POPC   C4B51934  12.907  30.165   7.570
 4068POPC   NC351935  41.237  18.726   5.432
 4068POPC   PO451936  41.246  18.083   5.370
 4068POPC   GL151937  41.542  18.299   5.641
 4068POPC   GL251938  41.415  18.542   5.861
 4068POPC   C1A51939  41.725  18.207   6.061
 4068POPC   D2A51940  41.593  18.004   6.423
 4068POPC   C3A51941  41.612  18.165   6.802
 4068POPC   C4A51942  41.779  18.067   7.176
 4068POPC   C1B51943  41.273  18.529   6.273
 4068POPC   C2B51944  41.321  18.737   6.672
 4068POPC   C3B51945  41.431  18.587   7.076
 4068POPC   C4B51946  41.347  18.402   7.471
 4069POPC   NC351947  28.883   8.221   5.244
 4069POPC   PO451948  29.424   7.988   5.532
 4069POPC   GL151949  29.126   8.135   5.751
 4069POPC   GL251950  28.837   8.313   5.737
 4069POPC   C1A51951  29.117   8.072   6.166
 4069POPC   D2A51952  29.220   8.293   6.509
 4069POPC   C3A51953  29.060   8.168   6.882
 4069POPC   C4A51954  29.225   8.441   7.143
 4069POPC   C1B51955  28.752   8.450   6.135
 4069POPC   C2B51956  28.689   8.304   6.533
 4069POPC   C3B51957  28.638   8.477   6.926
 4069POPC   C4B51958  28.755   8.367   7.330
 4070POPC   NC351959   2.305  42.066   5.522
 4070POPC   PO451960   1.903  41.428   5.445
 4070POPC   GL151961   2.139  41.552   5.814
 4070POPC   GL251962   2.431  41.349   5.854
 4070POPC   C1A51963   1.990  41.670   6.242
 4070POPC   D2A51964   2.182  41.817   6.629
 4070POPC   C3A51965   1.989  41.651   6.997
 4070POPC   C4A51966   2.168  41.803   7.362
 4070POPC   C1B51967   2.228  41.212   6.212
 4070POPC   C2B51968   2.140  41.291   6.630
 4070POPC   C3B51969   2.347  41.262   6.993
 4070POPC   C4B51970   2.220  41.273   7.417
 4071POPC   NC351971  23.415  19.733   5.287
 4071POPC   PO451972  24.055  20.022   5.290
 4071POPC   GL151973  23.804  19.831   5.633
 4071POPC   GL251974  23.780  20.161   5.740
 4071POPC   C1A51975  23.747  19.687   6.102
 4071POPC   D2A51976  23.880  19.803   6.558
 4071POPC   C3A51977  23.905  19.563   6.989
 4071POPC   C4A51978  23.723  19.709   7.395
 4071POPC   C1B51979  23.808  20.228   6.162
 4071POPC   C2B51980  23.654  20.272   6.553
 4071POPC   C3B51981  23.820  20.226   6.947
 4071POPC   C4B51982  23.603  20.258   7.320
 4072POPC   NC351983   4.792   2.456   5.108
 4072POPC   PO451984   5.047   3.000   5.470
 4072POPC   GL151985   5.118   2.814   5.866
 4072POPC   GL251986   5.466   2.713   5.859
 4072POPC   C1A51987   4.916   2.844   6.274
 4072POPC   D2A51988   4.838   2.905   6.697
 4072POPC   C3A51989   5.043   2.583   6.974
 4072POPC   C4A51990   5.061   2.665   7.401
 4072POPC   C1B51991   5.406   2.970   6.258
 4072POPC   C2B51992   5.369   2.863   6.690
 4072POPC   C3B51993   5.376   2.984   7.127
 4072POPC   C4B51994   5.429   2.972   7.591
 4073POPC   NC351995   1.126  43.154   5.355
 4073POPC   PO451996   1.636  42.919   5.455
 4073POPC   GL151997   1.296  42.914   5.800
 4073POPC   GL251998   1.023  43.173   5.850
 4073POPC   C1A51999   1.288  42.955   6.267
 4073POPC   D2A52000   1.160  43.132   6.684
 4073POPC   C3A52001   1.385  43.096   7.119
 4073POPC   C4A52002   1.570  43.035   7.548
 4073POPC   C1B52003   0.799  43.141   6.253
 4073POPC   C2B52004   0.663  43.322   6.645
 4073POPC   C3B52005   0.873  43.331   7.054
 4073POPC   C4B52006   1.074  43.702   7.284
 4074POPC   NC352007  28.272  24.751   5.100
 4074POPC   PO452008  28.689  24.323   5.423
 4074POPC   GL152009  28.480  24.491   5.793
 4074POPC   GL252010  28.592  24.812   5.957
 4074POPC   C1A52011  28.543  24.386   6.229
 4074POPC   D2A52012  28.586  24.658   6.571
 4074POPC   C3A52013  28.369  24.480   6.917
 4074POPC   C4A52014  28.554  24.312   7.274
 4074POPC   C1B52015  28.165  24.771   6.106
 4074POPC   C2B52016  28.076  24.640   6.502
 4074POPC   C3B52017  27.942  24.804   6.886
 4074POPC   C4B52018  27.923  24.935   7.291
 4075POPC   NC352019  43.104   0.951   5.468
 4075POPC   PO452020  42.802   1.527   5.401
 4075POPC   GL152021  43.119   1.512   5.755
 4075POPC   GL252022  43.233   1.176   5.905
 4075POPC   C1A52023  43.243   1.596   6.204
 4075POPC   D2A52024  43.265   1.421   6.648
 4075POPC   C3A52025  43.035   1.039   6.777
 4075POPC   C4A52026  42.932   0.870   7.186
 4075POPC   C1B52027  43.517   1.089   6.264
 4075POPC   C2B52028  43.552   0.945   6.700
 4075POPC   C3B52029  43.413   1.050   7.138
 4075POPC   C4B52030  43.321   0.786   7.551
 4076POPC   NC352031  44.198  24.632   5.336
 4076POPC   PO452032  43.686  24.161   5.439
 4076POPC   GL152033  43.916  24.407   5.773
 4076POPC   GL252034  43.650  24.271   5.998
 4076POPC   C1A52035  43.889  24.671   6.178
 4076POPC   D2A52036  43.760  24.544   6.576
 4076POPC   C3A52037  43.986  24.741   6.899
 4076POPC   C4A52038  43.860  24.757   7.300
 4076POPC   C1B52039  44.023  24.179   6.283
 4076POPC   C2B52040  44.132  24.230   6.732
 4076POPC   C3B52041  43.875  24.254   7.101
 4076POPC   C4B52042  43.957  24.165   7.554
 4077POPC   NC352043  26.694   8.481   5.580
 4077POPC   PO452044  27.104   7.977   5.454
 4077POPC   GL152045  26.819   7.980   5.817
 4077POPC   GL252046  26.451   8.089   5.845
 4077POPC   C1A52047  26.788   8.056   6.261
 4077POPC   D2A52048  26.519   8.044   6.626
 4077POPC   C3A52049  26.723   8.171   7.017
 4077POPC   C4A52050  27.019   8.034   7.318
 4077POPC   C1B52051  26.413   8.403   6.174
 4077POPC   C2B52052  26.649   8.529   6.526
 4077POPC   C3B52053  26.467   8.611   6.914
 4077POPC   C4B52054  26.416   8.486   7.320
 4078POPC   NC352055  22.747  44.917   5.598
 4078POPC   PO452056  23.059  44.376   5.415
 4078POPC   GL152057  23.032  44.552   5.835
 4078POPC   GL252058  23.136  44.922   5.898
 4078POPC   C1A52059  23.077  44.542   6.273
 4078POPC   D2A52060  23.273  44.611   6.656
 4078POPC   C3A52061  23.056  44.515   7.039
 4078POPC   C4A52062  22.812  44.468   7.445
 4078POPC   C1B52063  22.861   0.006   6.299
 4078POPC   C2B52064  22.868  44.991   6.767
 4078POPC   C3B52065  22.778  44.915   7.209
 4078POPC   C4B52066  22.928   0.079   7.635
 4079POPC   NC352067  30.322  31.112   5.500
 4079POPC   PO452068  29.783  31.445   5.399
 4079POPC   GL152069  29.984  31.415   5.801
 4079POPC   GL252070  30.311  31.583   5.818
 4079POPC   C1A52071  29.930  31.587   6.226
 4079POPC   D2A52072  29.884  31.884   6.536
 4079POPC   C3A52073  29.921  31.695   6.923
 4079POPC   C4A52074  29.752  31.651   7.286
 4079POPC   C1B52075  30.418  31.455   6.268
 4079POPC   C2B52076  30.192  31.376   6.653
 4079POPC   C3B52077  30.288  31.347   7.112
 4079POPC   C4B52078  30.365  30.991   7.438
 4080POPC   NC352079  32.040  19.788   5.590
 4080POPC   PO452080  32.441  20.166   5.285
 4080POPC   GL152081  32.329  20.178   5.742
 4080POPC   GL252082  32.441  19.866   5.935
 4080POPC   C1A52083  32.018  20.131   6.122
 4080POPC   D2A52084  31.826  19.946   6.500
 4080POPC   C3A52085  32.108  19.796   6.827
 4080POPC   C4A52086  31.925  19.826   7.242
 4080POPC   C1B52087  32.639  19.585   6.265
 4080POPC   C2B52088  32.508  19.441   6.695
 4080POPC   C3B52089  32.575  19.351   7.132
 4080POPC   C4B52090  32.731  19.583   7.527
 4081POPC   NC352091  15.312  38.774   5.167
 4081POPC   PO452092  14.877  39.283   5.283
 4081POPC   GL152093  15.028  39.004   5.563
 4081POPC   GL252094  15.282  39.218   5.685
 4081POPC   C1A52095  14.953  38.917   5.994
 4081POPC   D2A52096  14.833  39.145   6.387
 4081POPC   C3A52097  15.078  39.014   6.770
 4081POPC   C4A52098  14.954  38.948   7.205
 4081POPC   C1B52099  15.178  39.379   6.090
 4081POPC   C2B52100  15.467  39.214   6.403
 4081POPC   C3B52101  15.550  39.288   6.838
 4081POPC   C4B52102  15.250  39.366   7.145
 4082POPC   NC352103  28.038  32.484   5.394
 4082POPC   PO452104  28.325  33.098   5.366
 4082POPC   GL152105  28.200  33.031   5.810
 4082POPC   GL252106  28.555  32.958   5.905
 4082POPC   C1A52107  28.223  33.186   6.264
 4082POPC   D2A52108  28.426  33.409   6.643
 4082POPC   C3A52109  28.338  33.180   7.042
 4082POPC   C4A52110  28.002  32.900   7.233
 4082POPC   C1B52111  28.343  32.689   6.230
 4082POPC   C2B52112  28.449  32.672   6.680
 4082POPC   C3B52113  28.475  32.699   7.146
 4082POPC   C4B52114  28.541  33.000   7.500
 4083POPC   NC352115  11.573   0.825   5.297
 4083POPC   PO452116  11.290   1.356   5.484
 4083POPC   GL152117  11.330   1.229   5.905
 4083POPC   GL252118  11.510   0.910   5.795
 4083POPC   C1A52119  11.260   1.541   6.258
 4083POPC   D2A52120  11.070   1.502   6.688
 4083POPC   C3A52121  11.250   1.662   7.071
 4083POPC   C4A52122  11.403   1.408   7.404
 4083POPC   C1B52123  11.646   0.980   6.217
 4083POPC   C2B52124  11.410   1.122   6.546
 4083POPC   C3B52125  11.474   1.152   6.968
 4083POPC   C4B52126  11.392   0.873   7.336
 4084POPC   NC352127  30.385  18.455   5.439
 4084POPC   PO452128  29.680  18.406   5.252
 4084POPC   GL152129  29.708  18.320   5.741
 4084POPC   GL252130  30.082  18.260   5.852
 4084POPC   C1A52131  29.648  18.401   6.195
 4084POPC   D2A52132  29.615  18.149   6.584
 4084POPC   C3A52133  29.634  18.321   7.003
 4084POPC   C4A52134  29.688  18.522   7.428
 4084POPC   C1B52135  30.149  18.450   6.283
 4084POPC   C2B52136  30.064  18.338   6.705
 4084POPC   C3B52137  30.111  18.473   7.123
 4084POPC   C4B52138  30.166  18.231   7.491
 4085POPC   NC352139  36.008   6.530   5.095
 4085POPC   PO452140  36.298   7.005   5.636
 4085POPC   GL152141  36.014   6.902   5.915
 4085POPC   GL252142  35.710   7.090   5.870
 4085POPC   C1A52143  36.110   6.643   6.280
 4085POPC   D2A52144  36.101   6.316   6.605
 4085POPC   C3A52145  36.143   6.574   6.962
 4085POPC   C4A52146  36.204   6.668   7.424
 4085POPC   C1B52147  35.875   7.166   6.299
 4085POPC   C2B52148  36.072   7.034   6.656
 4085POPC   C3B52149  35.955   7.010   7.078
 4085POPC   C4B52150  35.718   6.713   7.305
 4086POPC   NC352151  21.221  17.686   5.379
 4086POPC   PO452152  21.754  17.342   5.560
 4086POPC   GL152153  21.595  17.630   5.825
 4086POPC   GL252154  21.267  17.582   5.881
 4086POPC   C1A52155  21.566  17.609   6.297
 4086POPC   D2A52156  21.791  17.664   6.689
 4086POPC   C3A52157  21.549  17.546   7.059
 4086POPC   C4A52158  21.480  17.766   7.401
 4086POPC   C1B52159  21.069  17.444   6.252
 4086POPC   C2B52160  21.034  17.608   6.668
 4086POPC   C3B52161  21.046  17.378   7.071
 4086POPC   C4B52162  21.090  17.476   7.518
 4087POPC   NC352163  25.817  10.700   5.147
 4087POPC   PO452164  25.734  10.913   5.752
 4087POPC   GL152165  25.864  10.491   5.939
 4087POPC   GL252166  26.215  10.444   5.994
 4087POPC   C1A52167  25.923  10.321   6.374
 4087POPC   D2A52168  26.159  10.576   6.645
 4087POPC   C3A52169  26.040  10.637   7.038
 4087POPC   C4A52170  26.058  10.332   7.295
 4087POPC   C1B52171  26.441  10.776   6.233
 4087POPC   C2B52172  26.572  10.917   6.637
 4087POPC   C3B52173  26.538  10.735   7.077
 4087POPC   C4B52174  26.426  10.594   7.516
 4088POPC   NC352175   6.617  15.197   5.485
 4088POPC   PO452176   6.805  14.610   5.478
 4088POPC   GL152177   6.604  14.793   5.876
 4088POPC   GL252178   6.708  15.139   5.971
 4088POPC   C1A52179   6.565  14.873   6.375
 4088POPC   D2A52180   6.774  15.160   6.657
 4088POPC   C3A52181   6.443  15.377   6.912
 4088POPC   C4A52182   6.209  15.186   7.267
 4088POPC   C1B52183   6.956  15.448   6.194
 4088POPC   C2B52184   6.918  15.666   6.581
 4088POPC   C3B52185   6.951  15.499   7.023
 4088POPC   C4B52186   6.647  15.424   7.379
 4089POPC   NC352187  21.147   4.735   5.440
 4089POPC   PO452188  21.444   5.366   5.375
 4089POPC   GL152189  21.420   5.237   5.799
 4089POPC   GL252190  21.423   4.875   5.852
 4089POPC   C1A52191  21.320   5.214   6.229
 4089POPC   D2A52192  21.497   5.005   6.553
 4089POPC   C3A52193  21.328   5.150   6.954
 4089POPC   C4A52194  21.533   5.019   7.315
 4089POPC   C1B52195  21.107   4.760   6.185
 4089POPC   C2B52196  21.001   4.968   6.589
 4089POPC   C3B52197  20.988   4.718   6.986
 4089POPC   C4B52198  21.153   4.717   7.399
 4090POPC   NC352199  33.737  39.598   5.413
 4090POPC   PO452200  33.393  40.095   5.309
 4090POPC   GL152201  33.568  40.052   5.734
 4090POPC   GL252202  33.368  39.788   5.775
 4090POPC   C1A52203  33.794  40.113   6.170
 4090POPC   D2A52204  33.646  40.303   6.584
 4090POPC   C3A52205  33.818  40.088   6.942
 4090POPC   C4A52206  33.703  39.997   7.330
 4090POPC   C1B52207  33.500  39.700   6.195
 4090POPC   C2B52208  33.546  39.788   6.639
 4090POPC   C3B52209  33.387  39.669   7.065
 4090POPC   C4B52210  33.419  39.638   7.551
 4091POPC   NC352211  38.734  32.281   5.349
 4091POPC   PO452212  39.337  32.115   5.444
 4091POPC   GL152213  39.192  32.157   5.819
 4091POPC   GL252214  38.991  32.381   5.795
 4091POPC   C1A52215  39.149  32.045   6.205
 4091POPC   D2A52216  39.251  31.788   6.547
 4091POPC   C3A52217  39.228  31.984   6.926
 4091POPC   C4A52218  39.185  32.177   7.332
 4091POPC   C1B52219  39.259  32.551   6.155
 4091POPC   C2B52220  39.302  32.359   6.571
 4091POPC   C3B52221  39.074  32.460   6.917
 4091POPC   C4B52222  39.139  32.713   7.220
 4092POPC   NC352223  29.798  37.997   5.351
 4092POPC   PO452224  30.391  37.640   5.322
 4092POPC   GL152225  30.195  37.699   5.742
 4092POPC   GL252226  29.838  37.762   5.816
 4092POPC   C1A52227  30.084  37.433   6.119
 4092POPC   D2A52228  29.927  37.320   6.568
 4092POPC   C3A52229  30.123  37.529   6.922
 4092POPC   C4A52230  30.149  37.972   7.125
 4092POPC   C1B52231  29.581  37.949   6.180
 4092POPC   C2B52232  29.402  37.960   6.617
 4092POPC   C3B52233  29.698  37.827   6.906
 4092POPC   C4B52234  29.717  37.537   7.240
 4093POPC   NC352235   3.979  35.507   5.321
 4093POPC   PO452236   3.267  35.409   5.266
 4093POPC   GL152237   3.311  35.450   5.716
 4093POPC   GL252238   3.653  35.435   5.742
 4093POPC   C1A52239   3.273  35.415   6.171
 4093POPC   D2A52240   3.390  35.331   6.606
 4093POPC   C3A52241   3.709  35.102   6.833
 4093POPC   C4A52242   3.558  35.161   7.261
 4093POPC   C1B52243   3.780  35.520   6.171
 4093POPC   C2B52244   3.692  35.753   6.550
 4093POPC   C3B52245   3.716  35.608   6.951
 4093POPC   C4B52246   3.947  35.544   7.282
 4094POPC   NC352247  40.306  39.800   5.513
 4094POPC   PO452248  40.776  39.269   5.304
 4094POPC   GL152249  40.756  39.225   5.746
 4094POPC   GL252250  40.416  39.260   5.766
 4094POPC   C1A52251  40.880  39.360   6.175
 4094POPC   D2A52252  41.123  39.344   6.532
 4094POPC   C3A52253  40.924  39.403   6.915
 4094POPC   C4A52254  40.944  39.661   7.316
 4094POPC   C1B52255  40.361  39.384   6.174
 4094POPC   C2B52256  40.474  39.235   6.564
 4094POPC   C3B52257  40.421  39.399   6.959
 4094POPC   C4B52258  40.603  39.297   7.316
 4095POPC   NC352259  24.767  17.117   5.147
 4095POPC   PO452260  24.372  17.566   5.545
 4095POPC   GL152261  24.501  17.488   5.960
 4095POPC   GL252262  24.356  17.159   6.036
 4095POPC   C1A52263  24.614  17.748   6.330
 4095POPC   D2A52264  24.805  17.982   6.689
 4095POPC   C3A52265  24.893  17.722   7.043
 4095POPC   C4A52266  24.547  17.761   7.258
 4095POPC   C1B52267  24.431  17.176   6.448
 4095POPC   C2B52268  24.369  17.451   6.765
 4095POPC   C3B52269  24.295  17.364   7.148
 4095POPC   C4B52270  24.592  17.276   7.439
 4096POPC   NC352271   4.104  26.992   5.450
 4096POPC   PO452272   4.700  27.038   5.624
 4096POPC   GL152273   4.363  26.891   5.888
 4096POPC   GL252274   4.210  26.553   5.757
 4096POPC   C1A52275   4.243  26.924   6.326
 4096POPC   D2A52276   4.009  26.856   6.714
 4096POPC   C3A52277   4.261  27.032   7.006
 4096POPC   C4A52278   4.299  26.939   7.409
 4096POPC   C1B52279   4.354  26.464   6.175
 4096POPC   C2B52280   4.466  26.556   6.626
 4096POPC   C3B52281   4.246  26.516   7.016
 4096POPC   C4B52282   4.245  26.202   7.274
 4097POPC   NC352283  20.677  10.130   5.065
 4097POPC   PO452284  20.817  10.676   5.446
 4097POPC   GL152285  20.683  10.558   5.851
 4097POPC   GL252286  21.000  10.479   5.998
 4097POPC   C1A52287  20.356  10.491   6.190
 4097POPC   D2A52288  20.504  10.430   6.599
 4097POPC   C3A52289  20.198  10.510   6.874
 4097POPC   C4A52290  20.333  10.614   7.227
 4097POPC   C1B52291  20.930  10.714   6.346
 4097POPC   C2B52292  20.789  10.852   6.736
 4097POPC   C3B52293  20.805  10.602   7.075
 4097POPC   C4B52294  21.100  10.576   7.397
 4098POPC   NC352295  39.669  32.292   5.705
 4098POPC   PO452296  40.271  32.328   5.436
 4098POPC   GL152297  40.104  32.045   5.815
 4098POPC   GL252298  39.718  31.839   5.887
 4098POPC   C1A52299  40.143  32.199   6.240
 4098POPC   D2A52300  40.171  32.032   6.628
 4098POPC   C3A52301  40.169  32.233   6.993
 4098POPC   C4A52302  40.068  32.552   7.280
 4098POPC   C1B52303  39.654  32.085   6.309
 4098POPC   C2B52304  39.810  32.405   6.627
 4098POPC   C3B52305  39.646  32.320   7.052
 4098POPC   C4B52306  39.622  31.914   7.221
 4099POPC   NC352307   9.813  24.107   5.456
 4099POPC   PO452308   9.806  23.399   5.421
 4099POPC   GL152309   9.734  23.613   5.832
 4099POPC   GL252310   9.584  23.980   5.877
 4099POPC   C1A52311   9.582  23.667   6.267
 4099POPC   D2A52312   9.503  23.987   6.553
 4099POPC   C3A52313   9.594  23.811   6.968
 4099POPC   C4A52314   9.872  23.574   7.167
 4099POPC   C1B52315   9.985  23.951   6.121
 4099POPC   C2B52316  10.028  23.822   6.538
 4099POPC   C3B52317  10.119  23.959   6.924
 4099POPC   C4B52318  10.302  23.841   7.294
 4100POPC   NC352319  43.239   1.910   5.316
 4100POPC   PO452320  42.599   2.020   5.169
 4100POPC   GL152321  42.863   2.019   5.646
 4100POPC   GL252322  43.249   2.003   5.801
 4100POPC   C1A52323  42.895   2.018   6.142
 4100POPC   D2A52324  42.921   1.801   6.544
 4100POPC   C3A52325  42.810   2.086   6.874
 4100POPC   C4A52326  42.789   1.850   7.244
 4100POPC   C1B52327  43.450   2.092   6.186
 4100POPC   C2B52328  43.328   2.093   6.617
 4100POPC   C3B52329  43.268   1.871   6.993
 4100POPC   C4B52330  43.371   2.173   7.280
 4101POPC   NC352331  29.031  43.258   5.242
 4101POPC   PO452332  29.579  43.425   5.504
 4101POPC   GL152333  29.268  43.478   5.845
 4101POPC   GL252334  29.104  43.169   5.784
 4101POPC   C1A52335  29.295  43.560   6.313
 4101POPC   D2A52336  29.257  43.246   6.670
 4101POPC   C3A52337  29.319  43.303   7.119
 4101POPC   C4A52338  29.419  42.881   7.385
 4101POPC   C1B52339  29.039  43.044   6.232
 4101POPC   C2B52340  28.823  42.940   6.627
 4101POPC   C3B52341  29.013  42.901   7.014
 4101POPC   C4B52342  28.909  43.085   7.373
 4102POPC   NC352343  15.618  21.645   5.130
 4102POPC   PO452344  15.025  21.511   5.469
 4102POPC   GL152345  15.144  21.433   5.857
 4102POPC   GL252346  15.379  21.150   5.790
 4102POPC   C1A52347  15.351  21.502   6.257
 4102POPC   D2A52348  15.327  21.469   6.688
 4102POPC   C3A52349  15.013  21.607   6.975
 4102POPC   C4A52350  15.156  21.503   7.379
 4102POPC   C1B52351  15.156  21.035   6.165
 4102POPC   C2B52352  15.188  20.947   6.593
 4102POPC   C3B52353  15.152  21.104   7.015
 4102POPC   C4B52354  15.326  21.010   7.388
 4103POPC   NC352355   2.483   5.786   5.620
 4103POPC   PO452356   3.043   6.048   5.517
 4103POPC   GL152357   2.957   5.860   5.949
 4103POPC   GL252358   3.121   5.519   6.067
 4103POPC   C1A52359   2.769   6.047   6.301
 4103POPC   D2A52360   2.761   6.066   6.735
 4103POPC   C3A52361   2.927   5.790   6.978
 4103POPC   C4A52362   2.777   5.974   7.297
 4103POPC   C1B52363   2.776   5.520   6.360
 4103POPC   C2B52364   2.510   5.583   6.714
 4103POPC   C3B52365   2.489   5.525   7.153
 4103POPC   C4B52366   2.790   5.466   7.441
 4104POPC   NC352367  41.160   0.073   5.407
 4104POPC   PO452368  41.060   0.717   5.385
 4104POPC   GL152369  40.791   0.514   5.762
 4104POPC   GL252370  40.606   0.193   5.838
 4104POPC   C1A52371  40.964   0.585   6.198
 4104POPC   D2A52372  40.891   0.793   6.608
 4104POPC   C3A52373  40.647   0.583   6.899
 4104POPC   C4A52374  40.846   0.663   7.233
 4104POPC   C1B52375  40.581   0.299   6.319
 4104POPC   C2B52376  40.954   0.276   6.616
 4104POPC   C3B52377  40.915   0.170   7.057
 4104POPC   C4B52378  40.503   0.160   7.293
 4105POPC   NC352379   2.975  37.501   5.430
 4105POPC   PO452380   2.642  38.108   5.338
 4105POPC   GL152381   2.748  37.885   5.718
 4105POPC   GL252382   2.519  37.616   5.758
 4105POPC   C1A52383   2.936  37.802   6.137
 4105POPC   D2A52384   2.728  37.786   6.573
 4105POPC   C3A52385   2.816  37.714   7.028
 4105POPC   C4A52386   2.583  37.784   7.457
 4105POPC   C1B52387   2.579  37.439   6.210
 4105POPC   C2B52388   2.654  37.213   6.623
 4105POPC   C3B52389   2.554  37.257   7.087
 4105POPC   C4B52390   2.345  37.318   7.541
 4106POPC   NC352391  36.607  41.367   5.362
 4106POPC   PO452392  36.888  41.992   5.273
 4106POPC   GL152393  36.818  41.914   5.712
 4106POPC   GL252394  36.903  41.567   5.722
 4106POPC   C1A52395  36.996  41.808   6.155
 4106POPC   D2A52396  36.861  41.646   6.572
 4106POPC   C3A52397  36.998  41.522   6.993
 4106POPC   C4A52398  36.866  41.732   7.361
 4106POPC   C1B52399  36.719  41.367   6.092
 4106POPC   C2B52400  36.759  41.156   6.499
 4106POPC   C3B52401  36.583  41.250   6.919
 4106POPC   C4B52402  36.716  41.248   7.350
 4107POPC   NC352403  27.309  25.782   5.365
 4107POPC   PO452404  27.763  26.264   5.331
 4107POPC   GL152405  27.482  26.199   5.695
 4107POPC   GL252406  27.609  25.870   5.780
 4107POPC   C1A52407  27.575  26.248   6.159
 4107POPC   D2A52408  27.379  26.281   6.578
 4107POPC   C3A52409  27.600  26.230   6.953
 4107POPC   C4A52410  27.442  26.183   7.324
 4107POPC   C1B52411  27.295  25.831   6.108
 4107POPC   C2B52412  27.392  25.753   6.538
 4107POPC   C3B52413  27.280  25.845   6.934
 4107POPC   C4B52414  27.372  25.695   7.341
 4108POPC   NC352415   8.732  11.936   5.516
 4108POPC   PO452416   9.194  12.348   5.497
 4108POPC   GL152417   9.137  12.081   5.868
 4108POPC   GL252418   8.853  11.860   6.000
 4108POPC   C1A52419   9.122  12.186   6.313
 4108POPC   D2A52420   8.944  12.288   6.721
 4108POPC   C3A52421   9.193  12.114   7.046
 4108POPC   C4A52422   9.074  11.844   7.380
 4108POPC   C1B52423   8.690  12.315   6.078
 4108POPC   C2B52424   8.509  12.444   6.479
 4108POPC   C3B52425   8.436  12.155   6.802
 4108POPC   C4B52426   8.693  12.123   7.178
 4109POPC   NC352427  11.866  21.091   5.492
 4109POPC   PO452428  12.453  21.428   5.547
 4109POPC   GL152429  12.305  21.342   5.919
 4109POPC   GL252430  12.285  21.005   5.787
 4109POPC   C1A52431  12.175  21.392   6.359
 4109POPC   D2A52432  11.764  21.306   6.544
 4109POPC   C3A52433  11.781  21.444   6.956
 4109POPC   C4A52434  12.233  21.510   7.067
 4109POPC   C1B52435  12.010  20.967   6.133
 4109POPC   C2B52436  12.148  20.877   6.513
 4109POPC   C3B52437  12.070  21.039   6.869
 4109POPC   C4B52438  12.092  21.025   7.268
 4110POPC   NC352439  15.712  12.934   5.123
 4110POPC   PO452440  15.147  12.722   5.271
 4110POPC   GL152441  15.078  12.743   5.691
 4110POPC   GL252442  15.412  12.908   5.711
 4110POPC   C1A52443  14.855  12.919   6.066
 4110POPC   D2A52444  15.067  13.010   6.469
 4110POPC   C3A52445  14.985  12.735   6.831
 4110POPC   C4A52446  15.008  12.854   7.260
 4110POPC   C1B52447  15.475  13.061   6.126
 4110POPC   C2B52448  15.532  13.249   6.521
 4110POPC   C3B52449  15.427  13.016   6.870
 4110POPC   C4B52450  15.575  12.848   7.220
 4111POPC   NC352451  43.873  43.482   5.054
 4111POPC   PO452452  43.752  43.847   5.596
 4111POPC   GL152453  44.039  43.978   5.903
 4111POPC   GL252454  43.759  44.050   6.078
 4111POPC   C1A52455  44.185  44.122   6.336
 4111POPC   D2A52456  44.035  44.311   6.688
 4111POPC   C3A52457  43.896  44.011   6.962
 4111POPC   C4A52458  43.989  43.667   7.169
 4111POPC   C1B52459  43.602  43.631   6.189
 4111POPC   C2B52460  43.699  43.633   6.608
 4111POPC   C3B52461  43.489  43.637   6.937
 4111POPC   C4B52462  43.491  43.744   7.305
 4112POPC   NC352463  42.668  25.105   5.326
 4112POPC   PO452464  42.146  25.477   5.316
 4112POPC   GL152465  42.283  25.269   5.718
 4112POPC   GL252466  42.575  25.324   5.770
 4112POPC   C1A52467  42.363  25.075   6.155
 4112POPC   D2A52468  42.469  25.267   6.559
 4112POPC   C3A52469  42.294  25.214   6.960
 4112POPC   C4A52470  42.392  25.005   7.312
 4112POPC   C1B52471  42.542  25.602   6.118
 4112POPC   C2B52472  42.382  25.754   6.490
 4112POPC   C3B52473  42.513  25.684   6.912
 4112POPC   C4B52474  42.538  25.520   7.328
 4113POPC   NC352475  41.896  12.933   5.357
 4113POPC   PO452476  41.538  12.506   5.659
 4113POPC   GL152477  41.896  12.711   5.847
 4113POPC   GL252478  41.875  13.097   5.852
 4113POPC   C1A52479  41.858  12.783   6.284
 4113POPC   D2A52480  41.534  12.858   6.595
 4113POPC   C3A52481  41.626  12.746   7.032
 4113POPC   C4A52482  41.798  12.677   7.452
 4113POPC   C1B52483  41.476  13.131   6.094
 4113POPC   C2B52484  41.386  13.359   6.504
 4113POPC   C3B52485  41.407  13.231   6.949
 4113POPC   C4B52486  41.224  13.153   7.351
 4114POPC   NC352487  23.099  34.910   5.500
 4114POPC   PO452488  22.909  34.260   5.478
 4114POPC   GL152489  22.812  34.492   5.850
 4114POPC   GL252490  22.685  34.820   5.793
 4114POPC   C1A52491  22.835  34.655   6.262
 4114POPC   D2A52492  23.071  34.749   6.614
 4114POPC   C3A52493  22.836  34.624   6.988
 4114POPC   C4A52494  23.057  34.749   7.383
 4114POPC   C1B52495  22.636  35.114   6.143
 4114POPC   C2B52496  22.630  35.054   6.567
 4114POPC   C3B52497  22.861  35.109   6.936
 4114POPC   C4B52498  22.564  34.980   7.231
 4115POPC   NC352499  37.221  32.182   5.479
 4115POPC   PO452500  36.601  32.401   5.443
 4115POPC   GL152501  36.557  32.208   5.816
 4115POPC   GL252502  36.897  32.195   5.870
 4115POPC   C1A52503  36.601  32.278   6.271
 4115POPC   D2A52504  36.855  32.378   6.618
 4115POPC   C3A52505  36.620  32.156   6.903
 4115POPC   C4A52506  36.484  32.043   7.301
 4115POPC   C1B52507  37.221  32.190   6.188
 4115POPC   C2B52508  37.364  32.245   6.597
 4115POPC   C3B52509  37.194  32.180   6.977
 4115POPC   C4B52510  37.225  32.113   7.379
 4116POPC   NC352511  24.478  28.623   5.432
 4116POPC   PO452512  24.790  28.094   5.665
 4116POPC   GL152513  24.507  28.352   5.846
 4116POPC   GL252514  24.253  28.187   5.977
 4116POPC   C1A52515  24.397  28.665   6.126
 4116POPC   D2A52516  24.322  28.437   6.502
 4116POPC   C3A52517  24.576  28.327   6.846
 4116POPC   C4A52518  24.442  28.523   7.245
 4116POPC   C1B52519  24.134  27.978   6.357
 4116POPC   C2B52520  24.188  27.967   6.818
 4116POPC   C3B52521  24.126  27.940   7.267
 4116POPC   C4B52522  24.259  28.187   7.656
 4117POPC   NC352523  23.182  25.822   5.161
 4117POPC   PO452524  23.779  25.885   5.471
 4117POPC   GL152525  23.879  26.131   5.845
 4117POPC   GL252526  24.228  26.280   5.878
 4117POPC   C1A52527  23.636  26.196   6.206
 4117POPC   D2A52528  23.554  26.004   6.593
 4117POPC   C3A52529  23.368  26.220   6.918
 4117POPC   C4A52530  23.326  25.947   7.252
 4117POPC   C1B52531  24.189  26.037   6.269
 4117POPC   C2B52532  24.399  25.937   6.661
 4117POPC   C3B52533  24.241  26.082   7.015
 4117POPC   C4B52534  23.803  26.016   7.093
 4118POPC   NC352535  20.693  22.650   5.215
 4118POPC   PO452536  20.249  22.207   5.308
 4118POPC   GL152537  20.481  22.242   5.731
 4118POPC   GL252538  20.800  22.434   5.716
 4118POPC   C1A52539  20.550  22.008   6.151
 4118POPC   D2A52540  20.496  21.816   6.584
 4118POPC   C3A52541  20.842  21.783   6.899
 4118POPC   C4A52542  20.735  21.944   7.310
 4118POPC   C1B52543  20.639  22.520   6.141
 4118POPC   C2B52544  20.727  22.339   6.526
 4118POPC   C3B52545  20.617  22.244   6.907
 4118POPC   C4B52546  20.462  22.457   7.247
 4119POPC   NC352547  28.953   6.829   5.360
 4119POPC   PO452548  28.367   6.405   5.312
 4119POPC   GL152549  28.535   6.499   5.774
 4119POPC   GL252550  28.488   6.241   6.088
 4119POPC   C1A52551  28.470   6.734   6.201
 4119POPC   D2A52552  28.546   6.472   6.596
 4119POPC   C3A52553  28.751   6.573   6.949
 4119POPC   C4A52554  28.727   6.920   7.174
 4119POPC   C1B52555  28.100   6.407   6.363
 4119POPC   C2B52556  28.080   6.655   6.741
 4119POPC   C3B52557  28.258   6.565   7.121
 4119POPC   C4B52558  28.523   6.220   7.274
 4120POPC   NC352559   6.499  30.207   5.186
 4120POPC   PO452560   7.013  29.774   5.340
 4120POPC   GL152561   6.809  29.934   5.740
 4120POPC   GL252562   6.513  30.157   5.748
 4120POPC   C1A52563   6.558  29.825   6.157
 4120POPC   D2A52564   6.575  30.030   6.592
 4120POPC   C3A52565   6.647  29.920   7.038
 4120POPC   C4A52566   6.921  29.929   7.385
 4120POPC   C1B52567   6.792  30.255   6.141
 4120POPC   C2B52568   6.671  30.522   6.485
 4120POPC   C3B52569   6.775  30.447   6.918
 4120POPC   C4B52570   6.613  30.366   7.323
 4121POPC   NC352571   4.134   9.920   5.340
 4121POPC   PO452572   4.429   9.396   5.273
 4121POPC   GL152573   4.485   9.659   5.650
 4121POPC   GL252574   4.141   9.622   5.780
 4121POPC   C1A52575   4.452   9.869   6.082
 4121POPC   D2A52576   4.358   9.655   6.474
 4121POPC   C3A52577   4.568   9.817   6.821
 4121POPC   C4A52578   4.403   9.723   7.217
 4121POPC   C1B52579   3.935   9.885   6.111
 4121POPC   C2B52580   4.078  10.107   6.459
 4121POPC   C3B52581   4.095  10.011   6.886
 4121POPC   C4B52582   3.884   9.912   7.255
 4122POPC   NC352583  13.094  33.201   5.455
 4122POPC   PO452584  12.543  32.866   5.205
 4122POPC   GL152585  12.748  32.818   5.636
 4122POPC   GL252586  12.862  33.073   5.884
 4122POPC   C1A52587  12.582  32.704   6.074
 4122POPC   D2A52588  12.791  32.871   6.453
 4122POPC   C3A52589  12.567  32.837   6.847
 4122POPC   C4A52590  12.808  32.794   7.212
 4122POPC   C1B52591  12.905  33.446   6.140
 4122POPC   C2B52592  13.026  33.460   6.559
 4122POPC   C3B52593  12.980  33.157   6.866
 4122POPC   C4B52594  12.752  33.290   7.228
 4123POPC   NC352595  28.739  11.634   5.305
 4123POPC   PO452596  29.255  11.202   5.325
 4123POPC   GL152597  29.226  11.165   5.758
 4123POPC   GL252598  29.082  11.489   5.804
 4123POPC   C1A52599  29.004  11.132   6.164
 4123POPC   D2A52600  28.800  11.153   6.561
 4123POPC   C3A52601  29.018  11.110   6.933
 4123POPC   C4A52602  29.079  11.178   7.338
 4123POPC   C1B52603  29.163  11.632   6.217
 4123POPC   C2B52604  29.498  11.705   6.493
 4123POPC   C3B52605  29.351  11.754   6.889
 4123POPC   C4B52606  29.412  11.566   7.266
 4124POPC   NC352607   1.409  42.508   5.488
 4124POPC   PO452608   1.074  41.977   5.334
 4124POPC   GL152609   1.148  42.113   5.770
 4124POPC   GL252610   1.069  42.443   5.859
 4124POPC   C1A52611   1.308  42.202   6.225
 4124POPC   D2A52612   1.154  42.351   6.651
 4124POPC   C3A52613   1.204  42.050   7.000
 4124POPC   C4A52614   1.561  41.894   7.183
 4124POPC   C1B52615   0.927  42.596   6.249
 4124POPC   C2B52616   0.802  42.765   6.650
 4124POPC   C3B52617   0.975  42.809   7.058
 4124POPC   C4B52618   1.356  42.540   7.117
 4125POPC   NC352619  40.330  37.521   5.562
 4125POPC   PO452620  39.915  37.917   5.223
 4125POPC   GL152621  39.874  37.761   5.699
 4125POPC   GL252622  39.789  37.432   5.850
 4125POPC   C1A52623  39.979  37.902   6.156
 4125POPC   D2A52624  40.234  38.016   6.560
 4125POPC   C3A52625  40.117  37.890   6.980
 4125POPC   C4A52626  39.675  37.733   7.034
 4125POPC   C1B52627  40.002  37.398   6.224
 4125POPC   C2B52628  39.934  37.592   6.603
 4125POPC   C3B52629  40.039  37.388   6.990
 4125POPC   C4B52630  40.399  37.464   7.236
 4126POPC   NC352631  29.654  38.635   5.478
 4126POPC   PO452632  30.219  38.223   5.307
 4126POPC   GL152633  30.095  38.245   5.755
 4126POPC   GL252634  29.731  38.257   5.801
 4126POPC   C1A52635  30.202  38.488   6.177
 4126POPC   D2A52636  29.999  38.726   6.552
 4126POPC   C3A52637  30.079  38.684   7.028
 4126POPC   C4A52638  29.889  38.557   7.451
 4126POPC   C1B52639  29.693  38.466   6.194
 4126POPC   C2B52640  29.577  38.448   6.626
 4126POPC   C3B52641  29.685  38.333   7.038
 4126POPC   C4B52642  29.697  38.051   7.373
 4127POPC   NC352643  23.244  12.642   5.322
 4127POPC   PO452644  22.708  12.971   5.412
 4127POPC   GL152645  22.800  12.741   5.772
 4127POPC   GL252646  23.098  12.866   5.784
 4127POPC   C1A52647  22.826  12.769   6.222
 4127POPC   D2A52648  22.777  12.991   6.606
 4127POPC   C3A52649  22.766  12.789   7.000
 4127POPC   C4A52650  22.973  12.820   7.373
 4127POPC   C1B52651  23.276  13.132   6.092
 4127POPC   C2B52652  23.228  13.232   6.521
 4127POPC   C3B52653  23.242  12.920   6.826
 4127POPC   C4B52654  23.433  12.865   7.178
 4128POPC   NC352655  10.783  44.216   5.461
 4128POPC   PO452656  10.154  43.931   5.428
 4128POPC   GL152657  10.244  43.908   5.866
 4128POPC   GL252658  10.201  43.548   5.875
 4128POPC   C1A52659  10.610  43.992   6.188
 4128POPC   D2A52660  10.946  43.942   6.531
 4128POPC   C3A52661  10.805  44.033   6.982
 4128POPC   C4A52662  10.383  44.100   7.117
 4128POPC   C1B52663  10.269  43.592   6.319
 4128POPC   C2B52664  10.479  43.757   6.674
 4128POPC   C3B52665  10.474  43.596   7.062
 4128POPC   C4B52666  10.098  43.398   7.209
 4129POPC   NC352667  29.308  10.076   5.746
 4129POPC   PO452668  29.254   9.585   5.350
 4129POPC   GL152669  29.077   9.615   5.817
 4129POPC   GL252670  28.823   9.892   5.890
 4129POPC   C1A52671  29.223   9.696   6.276
 4129POPC   D2A52672  29.349   9.998   6.589
 4129POPC   C3A52673  29.331   9.792   6.969
 4129POPC   C4A52674  29.311   9.778   7.430
 4129POPC   C1B52675  28.729   9.614   6.241
 4129POPC   C2B52676  28.835   9.661   6.688
 4129POPC   C3B52677  28.827   9.785   7.100
 4129POPC   C4B52678  28.803   9.722   7.514
 4130POPC   NC352679  23.483   6.137   5.269
 4130POPC   PO452680  24.108   5.773   5.363
 4130POPC   GL152681  23.861   5.973   5.730
 4130POPC   GL252682  23.493   6.079   5.795
 4130POPC   C1A52683  23.792   5.932   6.207
 4130POPC   D2A52684  23.481   5.812   6.555
 4130POPC   C3A52685  23.568   5.634   6.985
 4130POPC   C4A52686  23.703   5.707   7.427
 4130POPC   C1B52687  23.358   6.330   6.168
 4130POPC   C2B52688  23.223   6.260   6.587
 4130POPC   C3B52689  23.459   6.142   6.963
 4130POPC   C4B52690  23.593   6.205   7.347
 4131POPC   NC352691  43.290   5.423   5.575
 4131POPC   PO452692  42.988   4.722   5.457
 4131POPC   GL152693  42.979   4.924   5.879
 4131POPC   GL252694  42.794   5.229   5.894
 4131POPC   C1A52695  43.134   5.214   6.272
 4131POPC   D2A52696  43.420   5.367   6.643
 4131POPC   C3A52697  43.299   5.107   7.005
 4131POPC   C4A52698  42.876   4.904   7.037
 4131POPC   C1B52699  42.768   5.602   6.175
 4131POPC   C2B52700  42.782   5.755   6.588
 4131POPC   C3B52701  42.958   5.466   6.868
 4131POPC   C4B52702  43.031   5.481   7.301
 4132POPC   NC352703   7.461  36.514   5.491
 4132POPC   PO452704   7.733  35.875   5.395
 4132POPC   GL152705   7.648  35.966   5.833
 4132POPC   GL252706   7.340  36.173   5.847
 4132POPC   C1A52707   7.442  35.892   6.252
 4132POPC   D2A52708   7.301  36.106   6.625
 4132POPC   C3A52709   7.555  35.979   7.000
 4132POPC   C4A52710   7.639  36.060   7.469
 4132POPC   C1B52711   7.085  36.332   6.191
 4132POPC   C2B52712   7.052  36.586   6.560
 4132POPC   C3B52713   6.983  36.504   6.975
 4132POPC   C4B52714   7.210  36.247   7.248
 4133POPC   NC352715  31.211  14.000   5.198
 4133POPC   PO452716  31.566  13.517   5.551
 4133POPC   GL152717  31.310  13.539   5.897
 4133POPC   GL252718  31.080  13.827   5.930
 4133POPC   C1A52719  31.593  13.592   6.243
 4133POPC   D2A52720  31.709  13.800   6.608
 4133POPC   C3A52721  31.529  13.685   6.949
 4133POPC   C4A52722  31.666  13.745   7.318
 4133POPC   C1B52723  31.135  13.779   6.372
 4133POPC   C2B52724  31.167  13.980   6.769
 4133POPC   C3B52725  31.128  13.869   7.217
 4133POPC   C4B52726  31.252  13.472   7.400
 4134POPC   NC352727  23.137  15.651   5.566
 4134POPC   PO452728  22.862  16.235   5.618
 4134POPC   GL152729  22.928  15.983   5.957
 4134POPC   GL252730  22.694  15.748   5.846
 4134POPC   C1A52731  22.864  16.018   6.407
 4134POPC   D2A52732  22.689  16.271   6.726
 4134POPC   C3A52733  22.909  16.257   7.102
 4134POPC   C4A52734  23.054  16.225   7.534
 4134POPC   C1B52735  22.852  15.545   6.225
 4134POPC   C2B52736  22.690  15.493   6.605
 4134POPC   C3B52737  22.728  15.785   6.944
 4134POPC   C4B52738  22.799  15.827   7.376
 4135POPC   NC352739  41.931  28.688   5.038
 4135POPC   PO452740  41.955  28.070   5.340
 4135POPC   GL152741  42.348  28.162   5.639
 4135POPC   GL252742  42.152  28.072   5.928
 4135POPC   C1A52743  42.563  28.315   6.075
 4135POPC   D2A52744  42.374  28.175   6.497
 4135POPC   C3A52745  42.559  28.357   6.879
 4135POPC   C4A52746  42.706  28.242   7.269
 4135POPC   C1B52747  42.068  28.476   6.157
 4135POPC   C2B52748  41.899  28.495   6.547
 4135POPC   C3B52749  42.010  28.265   6.896
 4135POPC   C4B52750  42.037  28.366   7.320
 4136POPC   NC352751  36.569  36.440   5.494
 4136POPC   PO452752  36.975  35.880   5.425
 4136POPC   GL152753  36.785  36.004   5.796
 4136POPC   GL252754  36.868  36.338   5.900
 4136POPC   C1A52755  36.832  35.860   6.216
 4136POPC   D2A52756  36.737  35.874   6.639
 4136POPC   C3A52757  36.894  36.190   6.880
 4136POPC   C4A52758  36.839  36.018   7.281
 4136POPC   C1B52759  36.721  36.342   6.339
 4136POPC   C2B52760  36.438  36.506   6.681
 4136POPC   C3B52761  36.600  36.555   7.107
 4136POPC   C4B52762  36.960  36.502   7.425
 4137POPC   NC352763   1.542   3.812   5.546
 4137POPC   PO452764   2.057   3.477   5.259
 4137POPC   GL152765   1.998   3.544   5.722
 4137POPC   GL252766   1.880   3.239   5.838
 4137POPC   C1A52767   2.188   3.722   6.139
 4137POPC   D2A52768   1.996   3.752   6.573
 4137POPC   C3A52769   2.209   3.616   6.943
 4137POPC   C4A52770   2.366   3.936   7.189
 4137POPC   C1B52771   1.827   3.375   6.263
 4137POPC   C2B52772   1.976   3.221   6.674
 4137POPC   C3B52773   1.859   3.245   7.081
 4137POPC   C4B52774   1.974   3.093   7.483
 4138POPC   NC352775  34.993  19.989   5.335
 4138POPC   PO452776  35.563  19.616   5.278
 4138POPC   GL152777  35.376  19.763   5.721
 4138POPC   GL252778  35.639  19.763   5.978
 4138POPC   C1A52779  35.210  20.008   6.142
 4138POPC   D2A52780  35.338  20.184   6.580
 4138POPC   C3A52781  35.212  20.086   7.005
 4138POPC   C4A52782  35.420  19.979   7.422
 4138POPC   C1B52783  35.344  19.510   6.225
 4138POPC   C2B52784  35.239  19.663   6.644
 4138POPC   C3B52785  35.532  19.704   6.986
 4138POPC   C4B52786  35.511  19.490   7.377
 4139POPC   NC352787  41.230  22.271   5.337
 4139POPC   PO452788  41.658  21.735   5.387
 4139POPC   GL152789  41.534  22.026   5.782
 4139POPC   GL252790  41.373  22.363   5.824
 4139POPC   C1A52791  41.548  22.015   6.269
 4139POPC   D2A52792  41.297  22.007   6.658
 4139POPC   C3A52793  41.497  21.927   7.077
 4139POPC   C4A52794  41.787  22.063   7.424
 4139POPC   C1B52795  41.475  22.518   6.240
 4139POPC   C2B52796  41.548  22.444   6.667
 4139POPC   C3B52797  41.593  22.675   7.044
 4139POPC   C4B52798  41.538  22.550   7.440
 4140POPC   NC352799  18.545  32.070   5.431
 4140POPC   PO452800  18.352  32.688   5.286
 4140POPC   GL152801  18.286  32.476   5.718
 4140POPC   GL252802  18.094  32.179   5.728
 4140POPC   C1A52803  18.449  32.189   6.084
 4140POPC   D2A52804  18.524  32.404   6.444
 4140POPC   C3A52805  18.383  32.306   6.847
 4140POPC   C4A52806  18.335  32.055   7.206
 4140POPC   C1B52807  17.939  32.234   6.149
 4140POPC   C2B52808  18.021  32.104   6.565
 4140POPC   C3B52809  17.896  32.279   6.990
 4140POPC   C4B52810  17.922  32.315   7.456
 4141POPC   NC352811  21.363  38.530   5.312
 4141POPC   PO452812  21.168  39.270   5.304
 4141POPC   GL152813  21.431  39.166   5.699
 4141POPC   GL252814  21.319  39.458   5.880
 4141POPC   C1A52815  21.378  38.965   6.140
 4141POPC   D2A52816  21.235  38.917   6.605
 4141POPC   C3A52817  21.506  38.932   6.995
 4141POPC   C4A52818  21.600  39.158   7.407
 4141POPC   C1B52819  21.182  39.393   6.313
 4141POPC   C2B52820  21.267  39.426   6.759
 4141POPC   C3B52821  21.318  39.494   7.172
 4141POPC   C4B52822  21.682  39.660   7.368
 4142POPC   NC352823  37.281   1.402   5.407
 4142POPC   PO452824  36.591   1.325   5.322
 4142POPC   GL152825  36.859   1.186   5.681
 4142POPC   GL252826  36.848   1.467   5.832
 4142POPC   C1A52827  36.824   1.097   6.183
 4142POPC   D2A52828  36.567   1.093   6.563
 4142POPC   C3A52829  36.751   0.956   6.929
 4142POPC   C4A52830  37.046   0.908   7.243
 4142POPC   C1B52831  37.055   1.550   6.227
 4142POPC   C2B52832  36.912   1.470   6.618
 4142POPC   C3B52833  37.068   1.369   6.994
 4142POPC   C4B52834  37.002   1.409   7.398
 4143POPC   NC352835  32.174  42.450   5.442
 4143POPC   PO452836  31.812  41.901   5.671
 4143POPC   GL152837  31.981  42.212   5.944
 4143POPC   GL252838  32.314  42.381   5.923
 4143POPC   C1A52839  32.131  42.307   6.396
 4143POPC   D2A52840  32.440  42.261   6.714
 4143POPC   C3A52841  32.194  42.165   7.033
 4143POPC   C4A52842  32.041  42.177   7.403
 4143POPC   C1B52843  31.970  42.679   6.091
 4143POPC   C2B52844  31.844  42.723   6.533
 4143POPC   C3B52845  32.045  42.618   6.891
 4143POPC   C4B52846  32.327  42.616   7.247
 4144POPC   NC352847  43.848  29.408   5.264
 4144POPC   PO452848  44.180  28.923   5.539
 4144POPC   GL152849  44.001  29.234   5.795
 4144POPC   GL252850  43.693  29.202   5.823
 4144POPC   C1A52851  44.075  29.243   6.264
 4144POPC   D2A52852  44.045  29.078   6.689
 4144POPC   C3A52853  44.033  29.189   7.125
 4144POPC   C4A52854  43.856  28.826   7.284
 4144POPC   C1B52855  43.588  29.139   6.227
 4144POPC   C2B52856  43.423  29.280   6.615
 4144POPC   C3B52857  43.346  29.129   7.038
 4144POPC   C4B52858  43.558  29.199   7.439
 4145POPC   NC352859  28.820  42.369   5.337
 4145POPC   PO452860  29.458  42.449   5.319
 4145POPC   GL152861  29.398  42.263   5.751
 4145POPC   GL252862  29.492  41.919   5.824
 4145POPC   C1A52863  29.285  42.416   6.187
 4145POPC   D2A52864  29.257  42.642   6.604
 4145POPC   C3A52865  28.999  42.396   6.915
 4145POPC   C4A52866  29.023  42.234   7.345
 4145POPC   C1B52867  29.593  41.941   6.243
 4145POPC   C2B52868  29.379  42.109   6.599
 4145POPC   C3B52869  29.387  42.071   7.026
 4145POPC   C4B52870  29.390  41.880   7.418
 4146POPC   NC352871  23.523  40.562   5.195
 4146POPC   PO452872  23.920  41.055   5.299
 4146POPC   GL152873  23.885  40.677   5.615
 4146POPC   GL252874  23.536  40.632   5.724
 4146POPC   C1A52875  23.872  40.546   6.091
 4146POPC   D2A52876  23.941  40.406   6.526
 4146POPC   C3A52877  23.851  40.657   6.868
 4146POPC   C4A52878  23.687  40.656   7.271
 4146POPC   C1B52879  23.410  40.956   6.109
 4146POPC   C2B52880  23.467  41.115   6.589
 4146POPC   C3B52881  23.662  41.121   7.039
 4146POPC   C4B52882  23.793  41.083   7.518
 4147POPC   NC352883  14.613  11.105   5.286
 4147POPC   PO452884  14.118  11.601   5.375
 4147POPC   GL152885  14.297  11.327   5.682
 4147POPC   GL252886  13.957  11.250   5.762
 4147POPC   C1A52887  14.595  11.331   6.070
 4147POPC   D2A52888  14.794  11.374   6.501
 4147POPC   C3A52889  14.689  11.253   6.949
 4147POPC   C4A52890  14.795  11.508   7.349
 4147POPC   C1B52891  14.154  11.069   6.129
 4147POPC   C2B52892  14.355  11.062   6.546
 4147POPC   C3B52893  14.181  11.067   6.968
 4147POPC   C4B52894  14.349  11.251   7.347
 4148POPC   NC352895  43.849  14.809   5.236
 4148POPC   PO452896  44.062  14.220   5.460
 4148POPC   GL152897  43.888  14.227   5.917
 4148POPC   GL252898  43.697  13.926   5.950
 4148POPC   C1A52899  43.771  14.549   6.292
 4148POPC   D2A52900  43.893  14.789   6.687
 4148POPC   C3A52901  43.886  14.474   6.997
 4148POPC   C4A52902  43.877  14.338   7.425
 4148POPC   C1B52903  43.524  14.090   6.313
 4148POPC   C2B52904  43.509  14.236   6.692
 4148POPC   C3B52905  43.566  14.091   7.090
 4148POPC   C4B52906  43.397  14.151   7.479
 4149POPC   NC352907  17.823  39.337   5.544
 4149POPC   PO452908  18.469  39.051   5.387
 4149POPC   GL152909  18.240  39.133   5.766
 4149POPC   GL252910  17.951  38.892   5.812
 4149POPC   C1A52911  18.280  39.397   6.121
 4149POPC   D2A52912  18.578  39.250   6.392
 4149POPC   C3A52913  18.611  39.356   6.839
 4149POPC   C4A52914  18.674  39.145   7.239
 4149POPC   C1B52915  17.917  39.040   6.242
 4149POPC   C2B52916  18.166  39.081   6.632
 4149POPC   C3B52917  18.171  39.067   7.097
 4149POPC   C4B52918  17.910  38.943   7.434
 4150POPC   NC352919   1.157  17.957   5.354
 4150POPC   PO452920   1.133  17.315   5.571
 4150POPC   GL152921   1.191  17.596   5.877
 4150POPC   GL252922   0.992  17.903   5.861
 4150POPC   C1A52923   1.364  17.485   6.267
 4150POPC   D2A52924   1.169  17.343   6.639
 4150POPC   C3A52925   1.375  17.414   6.975
 4150POPC   C4A52926   1.405  17.108   7.210
 4150POPC   C1B52927   1.242  17.989   6.224
 4150POPC   C2B52928   1.221  17.841   6.642
 4150POPC   C3B52929   1.042  17.771   7.041
 4150POPC   C4B52930   1.160  17.860   7.481
 4151POPC   NC352931  21.884  10.934   5.512
 4151POPC   PO452932  21.428  11.371   5.279
 4151POPC   GL152933  21.400  11.192   5.738
 4151POPC   GL252934  21.076  10.979   5.842
 4151POPC   C1A52935  21.529  11.322   6.175
 4151POPC   D2A52936  21.610  11.453   6.621
 4151POPC   C3A52937  21.501  11.293   7.048
 4151POPC   C4A52938  21.432  11.216   7.513
 4151POPC   C1B52939  21.000  11.215   6.215
 4151POPC   C2B52940  21.089  11.504   6.546
 4151POPC   C3B52941  20.942  11.396   6.942
 4151POPC   C4B52942  21.075  11.038   7.183
 4152POPC   NC352943  15.836  19.590   5.433
 4152POPC   PO452944  16.218  20.222   5.476
 4152POPC   GL152945  15.821  20.182   5.711
 4152POPC   GL252946  15.938  19.871   5.853
 4152POPC   C1A52947  15.636  20.167   6.138
 4152POPC   D2A52948  15.866  19.934   6.476
 4152POPC   C3A52949  15.838  19.976   6.922
 4152POPC   C4A52950  16.183  19.986   7.184
 4152POPC   C1B52951  16.077  19.569   6.173
 4152POPC   C2B52952  16.067  19.449   6.623
 4152POPC   C3B52953  16.106  19.507   7.083
 4152POPC   C4B52954  15.941  19.263   7.470
 4153POPC   NC352955   7.583  10.726   5.326
 4153POPC   PO452956   6.940  10.575   5.363
 4153POPC   GL152957   7.314  10.463   5.698
 4153POPC   GL252958   7.502  10.787   5.820
 4153POPC   C1A52959   7.580  10.419   6.137
 4153POPC   D2A52960   7.819  10.364   6.521
 4153POPC   C3A52961   7.542  10.353   6.889
 4153POPC   C4A52962   7.345  10.365   7.336
 4153POPC   C1B52963   7.154  10.788   6.099
 4153POPC   C2B52964   7.041  10.918   6.503
 4153POPC   C3B52965   7.221  10.767   6.884
 4153POPC   C4B52966   7.139  10.847   7.305
 4154POPC   NC352967   5.931   5.579   5.718
 4154POPC   PO452968   6.086   5.072   5.254
 4154POPC   GL152969   6.022   5.013   5.776
 4154POPC   GL252970   5.710   4.836   5.887
 4154POPC   C1A52971   6.103   4.784   6.202
 4154POPC   D2A52972   6.191   4.831   6.621
 4154POPC   C3A52973   5.964   5.159   6.812
 4154POPC   C4A52974   5.976   5.151   7.258
 4154POPC   C1B52975   5.696   5.090   6.266
 4154POPC   C2B52976   5.452   5.176   6.631
 4154POPC   C3B52977   5.527   5.376   7.011
 4154POPC   C4B52978   5.482   5.081   7.321
 4155POPC   NC352979  35.796  37.074   5.496
 4155POPC   PO452980  35.039  37.229   5.688
 4155POPC   GL152981  35.405  36.995   5.820
 4155POPC   GL252982  35.675  37.180   5.969
 4155POPC   C1A52983  35.515  36.732   6.156
 4155POPC   D2A52984  35.603  36.602   6.563
 4155POPC   C3A52985  35.436  36.766   6.956
 4155POPC   C4A52986  35.491  36.607   7.362
 4155POPC   C1B52987  35.369  37.223   6.281
 4155POPC   C2B52988  35.437  37.183   6.680
 4155POPC   C3B52989  35.209  37.205   7.078
 4155POPC   C4B52990  35.322  37.070   7.488
 4156POPC   NC352991  17.956  32.880   5.419
 4156POPC   PO452992  17.512  33.384   5.489
 4156POPC   GL152993  17.470  33.064   5.803
 4156POPC   GL252994  17.191  32.799   5.763
 4156POPC   C1A52995  17.608  33.133   6.220
 4156POPC   D2A52996  17.520  32.933   6.593
 4156POPC   C3A52997  17.594  33.176   6.941
 4156POPC   C4A52998  17.471  33.260   7.335
 4156POPC   C1B52999  17.134  32.922   6.201
 4156POPC   C2B53000  16.999  33.013   6.648
 4156POPC   C3B53001  17.144  32.909   7.078
 4156POPC   C4B53002  17.222  32.834   7.524
 4157POPC   NC353003  37.514  43.297   5.337
 4157POPC   PO453004  37.963  42.799   5.593
 4157POPC   GL153005  37.648  42.992   5.799
 4157POPC   GL253006  37.780  43.297   5.805
 4157POPC   C1A53007  37.552  43.120   6.247
 4157POPC   D2A53008  37.573  43.355   6.659
 4157POPC   C3A53009  37.763  43.110   7.004
 4157POPC   C4A53010  37.730  42.977   7.437
 4157POPC   C1B53011  37.987  43.392   6.159
 4157POPC   C2B53012  38.076  43.234   6.539
 4157POPC   C3B53013  38.094  43.477   6.888
 4157POPC   C4B53014  38.050  43.544   7.301
 4158POPC   NC353015  15.020  22.460   5.389
 4158POPC   PO453016  15.483  22.033   5.373
 4158POPC   GL153017  15.188  21.965   5.738
 4158POPC   GL253018  14.897  22.102   5.728
 4158POPC   C1A53019  15.232  22.002   6.196
 4158POPC   D2A53020  15.057  21.946   6.599
 4158POPC   C3A53021  15.249  22.193   6.950
 4158POPC   C4A53022  15.415  22.301   7.372
 4158POPC   C1B53023  15.006  22.427   6.042
 4158POPC   C2B53024  15.099  22.470   6.471
 4158POPC   C3B53025  14.923  22.566   6.876
 4158POPC   C4B53026  14.918  22.480   7.303
 4159POPC   NC353027  22.360  44.248   5.536
 4159POPC   PO453028  22.365  44.956   5.348
 4159POPC   GL153029  22.301  44.709   5.762
 4159POPC   GL253030  21.981  44.513   5.810
 4159POPC   C1A53031  22.561  44.562   6.141
 4159POPC   D2A53032  22.467  44.726   6.556
 4159POPC   C3A53033  22.285  44.504   6.893
 4159POPC   C4A53034  22.328  44.628   7.304
 4159POPC   C1B53035  22.064  44.519   6.235
 4159POPC   C2B53036  21.865  44.373   6.574
 4159POPC   C3B53037  21.717  44.244   6.948
 4159POPC   C4B53038  21.932  44.289   7.314
 4160POPC   NC353039  10.561  36.760   5.062
 4160POPC   PO453040  10.242  37.276   5.400
 4160POPC   GL153041  10.410  37.240   5.831
 4160POPC   GL253042  10.360  36.879   5.978
 4160POPC   C1A53043  10.477  37.258   6.273
 4160POPC   D2A53044  10.448  36.890   6.558
 4160POPC   C3A53045  10.481  37.007   6.993
 4160POPC   C4A53046  10.464  36.817   7.409
 4160POPC   C1B53047  10.757  36.718   6.177
 4160POPC   C2B53048  10.970  36.691   6.589
 4160POPC   C3B53049  10.818  36.598   7.014
 4160POPC   C4B53050  10.975  36.439   7.404
 4161POPC   NC353051  18.085  30.259   5.414
 4161POPC   PO453052  18.007  29.439   5.409
 4161POPC   GL153053  18.101  29.801   5.715
 4161POPC   GL253054  17.921  30.106   5.871
 4161POPC   C1A53055  18.145  29.761   6.186
 4161POPC   D2A53056  17.827  29.677   6.491
 4161POPC   C3A53057  17.966  29.644   6.907
 4161POPC   C4A53058  18.316  29.665   7.199
 4161POPC   C1B53059  17.949  30.246   6.285
 4161POPC   C2B53060  18.153  30.052   6.639
 4161POPC   C3B53061  18.111  30.127   7.079
 4161POPC   C4B53062  18.464  30.132   7.355
 4162POPC   NC353063  33.197  23.863   5.469
 4162POPC   PO453064  32.554  23.918   5.261
 4162POPC   GL153065  32.752  23.835   5.698
 4162POPC   GL253066  32.957  23.521   5.804
 4162POPC   C1A53067  32.668  23.819   6.142
 4162POPC   D2A53068  32.884  23.729   6.527
 4162POPC   C3A53069  32.964  24.010   6.851
 4162POPC   C4A53070  32.898  23.806   7.235
 4162POPC   C1B53071  33.201  23.644   6.150
 4162POPC   C2B53072  33.434  23.668   6.559
 4162POPC   C3B53073  33.557  23.489   6.953
 4162POPC   C4B53074  33.364  23.572   7.326
 4163POPC   NC353075  40.175  22.332   5.625
 4163POPC   PO453076  40.776  22.093   5.301
 4163POPC   GL153077  40.980  22.045   5.735
 4163POPC   GL253078  40.724  21.882   5.873
 4163POPC   C1A53079  41.039  22.139   6.214
 4163POPC   D2A53080  40.796  22.213   6.636
 4163POPC   C3A53081  40.954  22.025   7.022
 4163POPC   C4A53082  41.212  22.346   7.121
 4163POPC   C1B53083  40.529  22.042   6.227
 4163POPC   C2B53084  40.362  21.943   6.640
 4163POPC   C3B53085  40.461  22.006   7.093
 4163POPC   C4B53086  40.408  21.977   7.551
 4164POPC   NC353087  19.265  28.834   5.537
 4164POPC   PO453088  18.822  29.313   5.452
 4164POPC   GL153089  19.128  29.262   5.800
 4164POPC   GL253090  19.114  28.925   6.004
 4164POPC   C1A53091  19.351  29.314   6.195
 4164POPC   D2A53092  19.353  28.958   6.493
 4164POPC   C3A53093  19.131  29.109   6.835
 4164POPC   C4A53094  19.205  29.407   7.175
 4164POPC   C1B53095  18.764  28.837   6.281
 4164POPC   C2B53096  18.644  28.945   6.720
 4164POPC   C3B53097  18.801  28.835   7.139
 4164POPC   C4B53098  19.258  28.896   7.273
 4165POPC   NC353099  12.992  13.958   5.025
 4165POPC   PO453100  12.843  13.394   5.256
 4165POPC   GL153101  12.799  13.500   5.731
 4165POPC   GL253102  13.048  13.778   5.819
 4165POPC   C1A53103  12.904  13.508   6.210
 4165POPC   D2A53104  12.690  13.536   6.602
 4165POPC   C3A53105  12.903  13.529   6.952
 4165POPC   C4A53106  12.823  13.353   7.307
 4165POPC   C1B53107  13.122  14.010   6.171
 4165POPC   C2B53108  13.098  13.860   6.570
 4165POPC   C3B53109  13.052  14.025   6.965
 4165POPC   C4B53110  13.052  13.877   7.366
 4166POPC   NC353111  40.228  36.646   5.498
 4166POPC   PO453112  39.932  37.230   5.425
 4166POPC   GL153113  39.912  36.940   5.775
 4166POPC   GL253114  40.204  37.039   5.920
 4166POPC   C1A53115  39.731  36.953   6.190
 4166POPC   D2A53116  39.752  37.120   6.624
 4166POPC   C3A53117  39.876  36.874   7.003
 4166POPC   C4A53118  40.097  37.025   7.363
 4166POPC   C1B53119  40.132  36.618   6.137
 4166POPC   C2B53120  40.210  36.516   6.578
 4166POPC   C3B53121  40.317  36.535   6.998
 4166POPC   C4B53122  40.062  36.517   7.345
 4167POPC   NC353123  32.779  27.103   5.692
 4167POPC   PO453124  33.292  26.680   5.394
 4167POPC   GL153125  33.012  26.650   5.770
 4167POPC   GL253126  33.244  26.918   5.830
 4167POPC   C1A53127  32.784  26.718   6.228
 4167POPC   D2A53128  32.756  26.950   6.666
 4167POPC   C3A53129  32.697  26.775   7.111
 4167POPC   C4A53130  32.638  26.817   7.599
 4167POPC   C1B53131  33.298  26.789   6.229
 4167POPC   C2B53132  33.308  26.988   6.621
 4167POPC   C3B53133  33.168  26.938   7.031
 4167POPC   C4B53134  32.931  27.167   7.375
 4168POPC   NC353135  33.597   6.592   5.289
 4168POPC   PO453136  34.090   6.948   5.503
 4168POPC   GL153137  33.858   6.668   5.800
 4168POPC   GL253138  33.498   6.510   5.782
 4168POPC   C1A53139  33.996   6.734   6.219
 4168POPC   D2A53140  33.775   6.810   6.599
 4168POPC   C3A53141  33.836   6.594   6.966
 4168POPC   C4A53142  33.571   6.655   7.303
 4168POPC   C1B53143  33.544   6.526   6.216
 4168POPC   C2B53144  33.570   6.331   6.591
 4168POPC   C3B53145  33.398   6.292   6.978
 4168POPC   C4B53146  33.504   6.011   7.301
 4169POPC   NC353147  20.201  44.816   5.321
 4169POPC   PO453148  19.670  44.649   5.452
 4169POPC   GL153149  20.014  44.680   5.777
 4169POPC   GL253150  20.022   0.045   5.754
 4169POPC   C1A53151  20.196  44.777   6.217
 4169POPC   D2A53152  20.001  44.807   6.653
 4169POPC   C3A53153  20.006  44.531   7.040
 4169POPC   C4A53154  19.803  44.400   7.477
 4169POPC   C1B53155  20.185   0.286   6.089
 4169POPC   C2B53156  20.161   0.291   6.565
 4169POPC   C3B53157  20.231   0.091   7.005
 4169POPC   C4B53158  20.404   0.241   7.417
 4170POPC   NC353159  15.453   9.616   5.550
 4170POPC   PO453160  14.825   9.858   5.366
 4170POPC   GL153161  14.959   9.754   5.785
 4170POPC   GL253162  15.206  10.011   5.774
 4170POPC   C1A53163  15.136   9.723   6.214
 4170POPC   D2A53164  15.380   9.773   6.602
 4170POPC   C3A53165  15.088   9.785   6.995
 4170POPC   C4A53166  15.063   9.525   7.376
 4170POPC   C1B53167  15.493  10.078   6.106
 4170POPC   C2B53168  15.548  10.241   6.520
 4170POPC   C3B53169  15.529  10.120   6.940
 4170POPC   C4B53170  15.212  10.276   7.184
 4171POPC   NC353171  20.207  34.962   5.406
 4171POPC   PO453172  20.886  35.146   5.451
 4171POPC   GL153173  20.856  35.103   5.850
 4171POPC   GL253174  20.544  34.945   5.814
 4171POPC   C1A53175  20.910  35.372   6.209
 4171POPC   D2A53176  20.618  35.349   6.500
 4171POPC   C3A53177  20.496  35.368   6.869
 4171POPC   C4A53178  20.708  35.447   7.207
 4171POPC   C1B53179  20.321  35.211   6.109
 4171POPC   C2B53180  20.139  35.172   6.533
 4171POPC   C3B53181  20.080  35.077   6.945
 4171POPC   C4B53182  20.274  35.205   7.340
 4172POPC   NC353183  31.944  18.973   5.394
 4172POPC   PO453184  31.378  19.002   5.198
 4172POPC   GL153185  31.334  19.110   5.637
 4172POPC   GL253186  31.673  19.076   5.785
 4172POPC   C1A53187  31.332  19.192   6.111
 4172POPC   D2A53188  31.463  18.927   6.487
 4172POPC   C3A53189  31.374  19.121   6.871
 4172POPC   C4A53190  31.348  19.066   7.284
 4172POPC   C1B53191  31.855  19.096   6.195
 4172POPC   C2B53192  32.002  18.814   6.516
 4172POPC   C3B53193  31.800  18.800   6.912
 4172POPC   C4B53194  31.837  18.935   7.339
 4173POPC   NC353195   9.894  33.999   5.379
 4173POPC   PO453196   9.433  33.542   5.464
 4173POPC   GL153197   9.597  33.871   5.771
 4173POPC   GL253198   9.879  33.706   5.886
 4173POPC   C1A53199   9.764  34.089   6.179
 4173POPC   D2A53200   9.994  33.961   6.551
 4173POPC   C3A53201   9.826  33.957   6.940
 4173POPC   C4A53202   9.531  33.733   7.203
 4173POPC   C1B53203  10.057  33.509   6.263
 4173POPC   C2B53204  10.260  33.472   6.665
 4173POPC   C3B53205  10.065  33.486   7.081
 4173POPC   C4B53206   9.904  33.536   7.484
 4174POPC   NC353207   9.972  39.155   5.266
 4174POPC   PO453208   9.606  39.616   5.545
 4174POPC   GL153209   9.694  39.241   5.709
 4174POPC   GL253210  10.053  39.295   5.747
 4174POPC   C1A53211   9.615  39.071   6.114
 4174POPC   D2A53212   9.695  39.279   6.510
 4174POPC   C3A53213   9.540  39.112   6.859
 4174POPC   C4A53214   9.612  39.174   7.243
 4174POPC   C1B53215   9.941  39.487   6.121
 4174POPC   C2B53216  10.105  39.593   6.536
 4174POPC   C3B53217   9.988  39.407   6.919
 4174POPC   C4B53218  10.192  39.464   7.284
 4175POPC   NC353219  35.210   2.258   5.494
 4175POPC   PO453220  35.655   2.670   5.287
 4175POPC   GL153221  35.393   2.797   5.694
 4175POPC   GL253222  35.148   2.575   5.885
 4175POPC   C1A53223  35.309   3.008   6.128
 4175POPC   D2A53224  35.388   3.016   6.598
 4175POPC   C3A53225  35.241   2.831   6.992
 4175POPC   C4A53226  35.439   2.982   7.378
 4175POPC   C1B53227  35.536   2.556   6.149
 4175POPC   C2B53228  35.814   2.453   6.489
 4175POPC   C3B53229  35.848   2.340   6.925
 4175POPC   C4B53230  35.534   2.474   7.287
 4176POPC   NC353231  28.888  20.373   5.314
 4176POPC   PO453232  29.537  20.673   5.411
 4176POPC   GL153233  29.414  20.553   5.809
 4176POPC   GL253234  29.093  20.393   5.782
 4176POPC   C1A53235  29.267  20.639   6.232
 4176POPC   D2A53236  29.071  20.919   6.529
 4176POPC   C3A53237  29.194  20.723   6.903
 4176POPC   C4A53238  29.054  20.789   7.301
 4176POPC   C1B53239  29.083  20.177   6.173
 4176POPC   C2B53240  28.982  20.346   6.597
 4176POPC   C3B53241  28.820  20.408   7.030
 4176POPC   C4B53242  28.892  20.140   7.408
 4177POPC   NC353243  30.160  14.287   4.889
 4177POPC   PO453244  29.830  14.320   5.510
 4177POPC   GL153245  30.055  14.449   5.852
 4177POPC   GL253246  30.149  14.771   5.723
 4177POPC   C1A53247  30.009  14.295   6.305
 4177POPC   D2A53248  30.000  14.268   6.778
 4177POPC   C3A53249  29.663  14.348   7.070
 4177POPC   C4A53250  29.620  14.211   7.512
 4177POPC   C1B53251  30.128  14.842   6.172
 4177POPC   C2B53252  30.212  14.704   6.577
 4177POPC   C3B53253  30.091  14.757   6.989
 4177POPC   C4B53254  30.012  14.557   7.363
 4178POPC   NC353255  34.350   9.832   5.477
 4178POPC   PO453256  34.993   9.604   5.586
 4178POPC   GL153257  34.694   9.597   5.961
 4178POPC   GL253258  34.324   9.736   5.977
 4178POPC   C1A53259  34.619   9.627   6.425
 4178POPC   D2A53260  34.880   9.878   6.680
 4178POPC   C3A53261  34.790   9.818   7.092
 4178POPC   C4A53262  34.798   9.472   7.404
 4178POPC   C1B53263  34.258   9.995   6.354
 4178POPC   C2B53264  34.341   9.951   6.807
 4178POPC   C3B53265  34.266   9.817   7.247
 4178POPC   C4B53266  34.173  10.041   7.662
 4179POPC   NC353267   3.343  27.238   5.444
 4179POPC   PO453268   3.791  26.659   5.453
 4179POPC   GL153269   3.726  26.855   5.851
 4179POPC   GL253270   3.390  27.033   5.935
 4179POPC   C1A53271   3.720  26.882   6.300
 4179POPC   D2A53272   3.414  26.995   6.592
 4179POPC   C3A53273   3.502  26.764   6.971
 4179POPC   C4A53274   3.811  26.866   7.274
 4179POPC   C1B53275   3.298  26.626   6.181
 4179POPC   C2B53276   3.509  26.451   6.544
 4179POPC   C3B53277   3.371  26.258   6.922
 4179POPC   C4B53278   3.282  26.197   7.373
 4180POPC   NC353279  41.157  39.458   5.536
 4180POPC   PO453280  41.641  38.966   5.428
 4180POPC   GL153281  41.607  39.250   5.793
 4180POPC   GL253282  41.279  39.173   5.905
 4180POPC   C1A53283  41.576  39.350   6.270
 4180POPC   D2A53284  41.582  39.386   6.734
 4180POPC   C3A53285  41.832  39.271   7.101
 4180POPC   C4A53286  41.943  39.301   7.536
 4180POPC   C1B53287  41.219  38.924   6.213
 4180POPC   C2B53288  41.389  38.921   6.594
 4180POPC   C3B53289  41.248  39.001   6.967
 4180POPC   C4B53290  41.348  39.368   7.181
 4181POPC   NC353291  42.179   0.651   5.423
 4181POPC   PO453292  42.620   0.096   5.430
 4181POPC   GL153293  42.256   0.202   5.705
 4181POPC   GL253294  42.469   0.465   5.785
 4181POPC   C1A53295  42.098   0.433   6.121
 4181POPC   D2A53296  42.120   0.702   6.524
 4181POPC   C3A53297  42.121   0.485   6.959
 4181POPC   C4A53298  42.172   0.508   7.457
 4181POPC   C1B53299  42.632   0.600   6.149
 4181POPC   C2B53300  42.626   0.840   6.520
 4181POPC   C3B53301  42.483   0.858   6.927
 4181POPC   C4B53302  42.591   0.494   7.171
 4182POPC   NC353303   2.876  20.242   5.521
 4182POPC   PO453304   2.488  19.732   5.441
 4182POPC   GL153305   2.605  19.894   5.784
 4182POPC   GL253306   2.954  19.778   5.764
 4182POPC   C1A53307   2.687  19.944   6.197
 4182POPC   D2A53308   2.839  19.780   6.590
 4182POPC   C3A53309   2.659  19.900   6.985
 4182POPC   C4A53310   2.518  19.655   7.359
 4182POPC   C1B53311   3.180  19.704   6.159
 4182POPC   C2B53312   3.348  19.768   6.579
 4182POPC   C3B53313   3.199  19.866   6.996
 4182POPC   C4B53314   3.210  19.813   7.429
 4183POPC   NC353315  20.547   7.344   5.318
 4183POPC   PO453316  20.647   8.130   5.465
 4183POPC   GL153317  20.629   7.736   5.685
 4183POPC   GL253318  20.883   7.434   5.673
 4183POPC   C1A53319  20.668   7.588   6.119
 4183POPC   D2A53320  20.500   7.475   6.529
 4183POPC   C3A53321  20.786   7.551   6.905
 4183POPC   C4A53322  20.568   7.498   7.295
 4183POPC   C1B53323  20.789   7.088   6.017
 4183POPC   C2B53324  20.646   6.965   6.458
 4183POPC   C3B53325  20.544   7.088   6.903
 4183POPC   C4B53326  20.776   7.022   7.283
 4184POPC   NC353327  17.935   3.741   5.471
 4184POPC   PO453328  18.505   3.991   5.415
 4184POPC   GL153329  18.364   3.799   5.793
 4184POPC   GL253330  18.261   3.436   5.803
 4184POPC   C1A53331  18.071   3.748   6.152
 4184POPC   D2A53332  18.084   3.372   6.374
 4184POPC   C3A53333  18.188   3.345   6.828
 4184POPC   C4A53334  18.189   3.366   7.290
 4184POPC   C1B53335  18.563   3.517   6.204
 4184POPC   C2B53336  18.870   3.385   6.531
 4184POPC   C3B53337  18.698   3.336   6.966
 4184POPC   C4B53338  18.693   3.453   7.414
 4185POPC   NC353339  26.128   9.965   5.254
 4185POPC   PO453340  25.564   9.584   5.463
 4185POPC   GL153341  25.990   9.613   5.705
 4185POPC   GL253342  26.259   9.345   5.715
 4185POPC   C1A53343  26.138   9.927   6.056
 4185POPC   D2A53344  26.292   9.978   6.511
 4185POPC   C3A53345  25.974  10.040   6.821
 4185POPC   C4A53346  25.868   9.884   7.238
 4185POPC   C1B53347  26.170   9.425   6.193
 4185POPC   C2B53348  26.048   9.523   6.648
 4185POPC   C3B53349  26.323   9.711   6.986
 4185POPC   C4B53350  26.352   9.617   7.428
 4186POPC   NC353351  15.171  27.822   5.456
 4186POPC   PO453352  14.817  27.306   5.348
 4186POPC   GL153353  14.859  27.525   5.741
 4186POPC   GL253354  14.752  27.898   5.744
 4186POPC   C1A53355  15.088  27.391   6.108
 4186POPC   D2A53356  15.420  27.445   6.398
 4186POPC   C3A53357  15.331  27.273   6.791
 4186POPC   C4A53358  15.336  27.454   7.213
 4186POPC   C1B53359  15.057  27.914   6.100
 4186POPC   C2B53360  15.290  27.957   6.477
 4186POPC   C3B53361  15.262  27.910   6.921
 4186POPC   C4B53362  15.087  27.964   7.330
 4187POPC   NC353363  19.172  26.643   5.399
 4187POPC   PO453364  18.561  26.896   5.370
 4187POPC   GL153365  18.894  27.058   5.665
 4187POPC   GL253366  19.097  26.775   5.878
 4187POPC   C1A53367  18.954  27.198   6.094
 4187POPC   D2A53368  19.193  26.997   6.444
 4187POPC   C3A53369  19.056  26.735   6.824
 4187POPC   C4A53370  18.785  26.843   7.190
 4187POPC   C1B53371  19.446  26.611   6.144
 4187POPC   C2B53372  19.448  26.423   6.538
 4187POPC   C3B53373  19.548  26.611   6.938
 4187POPC   C4B53374  19.377  26.428   7.284
 4188POPC   NC353375  19.708  17.305   5.418
 4188POPC   PO453376  20.046  17.797   5.656
 4188POPC   GL153377  19.938  17.542   5.945
 4188POPC   GL253378  19.953  17.234   5.847
 4188POPC   C1A53379  19.967  17.421   6.349
 4188POPC   D2A53380  20.076  17.604   6.723
 4188POPC   C3A53381  19.765  17.664   7.023
 4188POPC   C4A53382  20.045  17.535   7.338
 4188POPC   C1B53383  19.607  17.110   6.132
 4188POPC   C2B53384  19.729  16.992   6.525
 4188POPC   C3B53385  19.809  17.180   6.876
 4188POPC   C4B53386  19.611  17.250   7.263
 4189POPC   NC353387  19.459  12.734   5.234
 4189POPC   PO453388  20.107  12.882   5.401
 4189POPC   GL153389  19.929  12.816   5.858
 4189POPC   GL253390  19.806  13.144   6.032
 4189POPC   C1A53391  19.939  12.703   6.313
 4189POPC   D2A53392  19.731  12.888   6.690
 4189POPC   C3A53393  19.751  12.679   7.089
 4189POPC   C4A53394  19.549  12.643   7.499
 4189POPC   C1B53395  20.219  13.128   6.193
 4189POPC   C2B53396  20.258  12.987   6.616
 4189POPC   C3B53397  20.087  13.090   7.021
 4189POPC   C4B53398  19.730  13.293   7.201
 4190POPC   NC353399   2.113  37.855   5.297
 4190POPC   PO453400   2.098  37.276   5.516
 4190POPC   GL153401   1.993  37.613   5.818
 4190POPC   GL253402   1.740  37.895   5.741
 4190POPC   C1A53403   2.086  37.588   6.265
 4190POPC   D2A53404   2.283  37.540   6.668
 4190POPC   C3A53405   2.060  37.571   7.001
 4190POPC   C4A53406   2.101  37.749   7.365
 4190POPC   C1B53407   1.877  38.027   6.185
 4190POPC   C2B53408   1.782  37.828   6.631
 4190POPC   C3B53409   1.648  37.876   7.094
 4190POPC   C4B53410   1.680  37.886   7.576
 4191POPC   NC353411  32.432  16.277   5.347
 4191POPC   PO453412  32.454  15.612   5.303
 4191POPC   GL153413  32.519  15.862   5.745
 4191POPC   GL253414  32.412  16.202   5.841
 4191POPC   C1A53415  32.304  15.868   6.203
 4191POPC   D2A53416  32.013  15.651   6.521
 4191POPC   C3A53417  32.229  15.554   6.881
 4191POPC   C4A53418  32.381  15.848   7.174
 4191POPC   C1B53419  32.114  16.434   6.106
 4191POPC   C2B53420  31.951  16.442   6.541
 4191POPC   C3B53421  31.982  16.078   6.802
 4191POPC   C4B53422  31.958  16.155   7.236
 4192POPC   NC353423  15.071  35.041   5.094
 4192POPC   PO453424  15.428  34.491   5.389
 4192POPC   GL153425  15.079  34.549   5.711
 4192POPC   GL253426  15.353  34.634   5.938
 4192POPC   C1A53427  14.899  34.695   6.131
 4192POPC   D2A53428  15.199  34.726   6.445
 4192POPC   C3A53429  15.245  34.680   6.894
 4192POPC   C4A53430  15.058  34.573   7.316
 4192POPC   C1B53431  15.554  34.407   6.262
 4192POPC   C2B53432  15.706  34.523   6.645
 4192POPC   C3B53433  15.665  34.414   7.063
 4192POPC   C4B53434  15.561  34.703   7.359
 4193POPC   NC353435  39.515  23.100   5.385
 4193POPC   PO453436  39.140  22.624   5.609
 4193POPC   GL153437  39.260  22.941   5.881
 4193POPC   GL253438  38.943  23.147   5.896
 4193POPC   C1A53439  39.453  22.714   6.264
 4193POPC   D2A53440  39.406  22.391   6.597
 4193POPC   C3A53441  39.287  22.603   6.969
 4193POPC   C4A53442  39.447  22.969   7.194
 4193POPC   C1B53443  39.036  23.243   6.338
 4193POPC   C2B53444  39.145  23.291   6.795
 4193POPC   C3B53445  39.513  23.428   7.044
 4193POPC   C4B53446  39.649  23.361   7.510
 4194POPC   NC353447  29.644   9.874   5.304
 4194POPC   PO453448  30.247   9.614   5.238
 4194POPC   GL153449  30.142   9.894   5.600
 4194POPC   GL253450  29.907   9.639   5.726
 4194POPC   C1A53451  29.974  10.041   6.023
 4194POPC   D2A53452  29.813   9.768   6.365
 4194POPC   C3A53453  29.900   9.842   6.798
 4194POPC   C4A53454  29.782   9.815   7.208
 4194POPC   C1B53455  29.586   9.449   6.001
 4194POPC   C2B53456  29.572   9.317   6.462
 4194POPC   C3B53457  29.656   9.371   6.912
 4194POPC   C4B53458  29.589   9.350   7.370
 4195POPC   NC353459  29.713  15.691   5.431
 4195POPC   PO453460  30.120  16.202   5.374
 4195POPC   GL153461  30.216  16.018   5.800
 4195POPC   GL253462  30.000  15.753   5.843
 4195POPC   C1A53463  30.230  15.910   6.260
 4195POPC   D2A53464  29.986  15.703   6.569
 4195POPC   C3A53465  30.016  15.908   6.943
 4195POPC   C4A53466  30.255  15.950   7.295
 4195POPC   C1B53467  29.733  15.991   6.139
 4195POPC   C2B53468  29.525  15.936   6.565
 4195POPC   C3B53469  29.469  15.925   7.013
 4195POPC   C4B53470  29.573  16.167   7.390
 4196POPC   NC353471  43.900  41.594   5.477
 4196POPC   PO453472  43.438  41.162   5.630
 4196POPC   GL153473  43.702  41.356   5.956
 4196POPC   GL253474  44.045  41.243   5.852
 4196POPC   C1A53475  43.697  41.730   6.282
 4196POPC   D2A53476  43.750  41.841   6.730
 4196POPC   C3A53477  43.815  41.478   6.917
 4196POPC   C4A53478  43.616  41.355   7.280
 4196POPC   C1B53479  44.138  41.492   6.219
 4196POPC   C2B53480  44.216  41.726   6.585
 4196POPC   C3B53481  44.305  41.721   7.026
 4196POPC   C4B53482  44.165  41.355   7.278
 4197POPC   NC353483  28.683  41.565   5.443
 4197POPC   PO453484  28.240  41.069   5.465
 4197POPC   GL153485  28.262  41.365   5.844
 4197POPC   GL253486  28.262  41.746   5.793
 4197POPC   C1A53487  28.126  41.538   6.276
 4197POPC   D2A53488  27.904  41.424   6.675
 4197POPC   C3A53489  28.078  41.438   7.107
 4197POPC   C4A53490  28.536  41.453   7.210
 4197POPC   C1B53491  28.620  41.668   6.082
 4197POPC   C2B53492  28.638  41.512   6.486
 4197POPC   C3B53493  28.362  41.708   6.784
 4197POPC   C4B53494  28.234  41.931   7.171
 4198POPC   NC353495  39.822  18.202   5.418
 4198POPC   PO453496  40.399  18.470   5.450
 4198POPC   GL153497  40.042  18.521   5.747
 4198POPC   GL253498  40.053  18.166   5.874
 4198POPC   C1A53499  39.975  18.551   6.184
 4198POPC   D2A53500  40.300  18.529   6.513
 4198POPC   C3A53501  40.184  18.434   6.908
 4198POPC   C4A53502  39.876  18.601   7.179
 4198POPC   C1B53503  39.817  18.053   6.262
 4198POPC   C2B53504  39.740  18.075   6.738
 4198POPC   C3B53505  39.928  18.093   7.177
 4198POPC   C4B53506  40.354  18.086   7.314
 4199POPC   NC353507  16.190  23.872   5.447
 4199POPC   PO453508  15.709  23.521   5.610
 4199POPC   GL153509  15.914  23.821   5.898
 4199POPC   GL253510  16.231  24.051   5.926
 4199POPC   C1A53511  16.071  23.605   6.257
 4199POPC   D2A53512  16.086  23.324   6.609
 4199POPC   C3A53513  15.756  23.489   6.888
 4199POPC   C4A53514  15.828  23.639   7.297
 4199POPC   C1B53515  16.002  24.118   6.328
 4199POPC   C2B53516  15.950  23.978   6.779
 4199POPC   C3B53517  16.238  23.936   7.126
 4199POPC   C4B53518  16.218  23.880   7.569
 4200POPC   NC353519  30.502  35.045   5.535
 4200POPC   PO453520  30.863  34.581   5.337
 4200POPC   GL153521  30.763  34.667   5.789
 4200POPC   GL253522  30.414  34.677   5.884
 4200POPC   C1A53523  30.753  34.448   6.210
 4200POPC   D2A53524  31.037  34.352   6.575
 4200POPC   C3A53525  30.823  34.382   6.988
 4200POPC   C4A53526  30.700  34.396   7.444
 4200POPC   C1B53527  30.583  34.941   6.241
 4200POPC   C2B53528  30.753  34.831   6.683
 4200POPC   C3B53529  30.536  34.788   7.113
 4200POPC   C4B53530  30.377  34.802   7.546
 4201POPC   NC353531   0.673   7.473   5.616
 4201POPC   PO453532   0.171   7.103   5.309
 4201POPC   GL153533   0.228   7.210   5.732
 4201POPC   GL253534   0.138   7.526   5.839
 4201POPC   C1A53535   0.426   7.196   6.142
 4201POPC   D2A53536   0.461   7.388   6.514
 4201POPC   C3A53537   0.674   7.179   6.858
 4201POPC   C4A53538   0.595   7.327   7.297
 4201POPC   C1B53539   0.296   7.779   6.186
 4201POPC   C2B53540   0.285   7.927   6.616
 4201POPC   C3B53541   0.386   7.642   6.938
 4201POPC   C4B53542   0.120   7.447   7.219
 4202POPC   NC353543  44.973   3.790   4.951
 4202POPC   PO453544   0.327   3.489   5.404
 4202POPC   GL153545   0.490   3.525   5.842
 4202POPC   GL253546   0.637   3.841   5.788
 4202POPC   C1A53547   0.580   3.377   6.307
 4202POPC   D2A53548   0.271   3.305   6.680
 4202POPC   C3A53549   0.297   3.240   7.120
 4202POPC   C4A53550   0.558   3.590   7.293
 4202POPC   C1B53551   0.417   3.894   6.194
 4202POPC   C2B53552   0.206   4.032   6.568
 4202POPC   C3B53553   0.414   3.957   6.947
 4202POPC   C4B53554   0.119   3.719   7.096
 4203POPC   NC353555   0.088   4.546   5.596
 4203POPC   PO453556   0.256   5.061   5.234
 4203POPC   GL153557   0.295   5.066   5.725
 4203POPC   GL253558   0.187   4.824   5.990
 4203POPC   C1A53559   0.568   5.145   6.114
 4203POPC   D2A53560   0.481   5.431   6.454
 4203POPC   C3A53561   0.563   5.314   6.866
 4203POPC   C4A53562   0.680   5.232   7.301
 4203POPC   C1B53563   0.230   4.867   6.419
 4203POPC   C2B53564   0.598   4.830   6.596
 4203POPC   C3B53565   0.744   4.845   6.990
 4203POPC   C4B53566   0.351   4.850   7.264
 4204POPC   NC353567   4.732  37.938   5.313
 4204POPC   PO453568   4.094  37.724   5.412
 4204POPC   GL153569   4.247  37.915   5.795
 4204POPC   GL253570   4.620  37.856   5.860
 4204POPC   C1A53571   4.050  37.947   6.215
 4204POPC   D2A53572   4.240  37.803   6.597
 4204POPC   C3A53573   4.006  37.875   6.933
 4204POPC   C4A53574   4.181  37.731   7.275
 4204POPC   C1B53575   4.401  37.559   6.175
 4204POPC   C2B53576   4.555  37.363   6.582
 4204POPC   C3B53577   4.557  37.198   7.006
 4204POPC   C4B53578   4.712  37.385   7.367
 4205POPC   NC353579  27.776  26.622   5.641
 4205POPC   PO453580  28.335  26.897   5.358
 4205POPC   GL153581  28.311  26.697   5.754
 4205POPC   GL253582  28.094  26.831   6.005
 4205POPC   C1A53583  28.593  26.573   6.095
 4205POPC   D2A53584  28.765  26.418   6.490
 4205POPC   C3A53585  28.603  26.627   6.843
 4205POPC   C4A53586  28.430  26.512   7.216
 4205POPC   C1B53587  28.231  26.740   6.442
 4205POPC   C2B53588  28.074  26.731   6.872
 4205POPC   C3B53589  27.944  26.545   7.245
 4205POPC   C4B53590  28.102  26.712   7.646
 4206POPC   NC353591  38.336   9.087   5.448
 4206POPC   PO453592  38.075   8.511   5.446
 4206POPC   GL153593  38.458   8.757   5.787
 4206POPC   GL253594  38.767   8.607   5.927
 4206POPC   C1A53595  38.416   8.732   6.267
 4206POPC   D2A53596  38.213   8.636   6.666
 4206POPC   C3A53597  38.341   8.897   7.012
 4206POPC   C4A53598  38.514   9.294   7.107
 4206POPC   C1B53599  38.905   8.593   6.340
 4206POPC   C2B53600  38.723   8.728   6.725
 4206POPC   C3B53601  38.892   8.703   7.162
 4206POPC   C4B53602  39.179   8.972   7.456
 4207POPC   NC353603   6.329  42.538   5.532
 4207POPC   PO453604   6.683  42.051   5.280
 4207POPC   GL153605   6.552  42.110   5.749
 4207POPC   GL253606   6.677  42.434   5.894
 4207POPC   C1A53607   6.543  42.043   6.203
 4207POPC   D2A53608   6.836  42.173   6.546
 4207POPC   C3A53609   6.677  42.175   6.988
 4207POPC   C4A53610   6.694  42.473   7.301
 4207POPC   C1B53611   6.293  42.488   6.170
 4207POPC   C2B53612   6.371  42.402   6.579
 4207POPC   C3B53613   6.668  42.648   6.800
 4207POPC   C4B53614   6.437  42.853   7.117
 4208POPC   NC353615  13.162  14.938   5.020
 4208POPC   PO453616  12.591  15.200   5.380
 4208POPC   GL153617  12.710  15.103   5.804
 4208POPC   GL253618  13.041  15.030   5.791
 4208POPC   C1A53619  12.830  15.233   6.234
 4208POPC   D2A53620  12.671  15.193   6.654
 4208POPC   C3A53621  12.922  15.262   7.011
 4208POPC   C4A53622  13.115  15.678   7.136
 4208POPC   C1B53623  13.101  14.788   6.171
 4208POPC   C2B53624  13.108  14.918   6.582
 4208POPC   C3B53625  13.316  14.922   6.942
 4208POPC   C4B53626  13.282  14.719   7.318
 4209POPC   NC353627  42.992  41.122   5.668
 4209POPC   PO453628  42.735  41.696   5.333
 4209POPC   GL153629  42.882  41.789   5.808
 4209POPC   GL253630  43.267  41.743   5.807
 4209POPC   C1A53631  42.819  41.756   6.322
 4209POPC   D2A53632  42.871  41.742   6.814
 4209POPC   C3A53633  43.100  41.388   7.101
 4209POPC   C4A53634  43.001  41.422   7.552
 4209POPC   C1B53635  43.251  41.497   6.210
 4209POPC   C2B53636  43.329  41.570   6.667
 4209POPC   C3B53637  43.374  41.811   7.076
 4209POPC   C4B53638  43.417  41.739   7.539
 4210POPC   NC353639  24.884  36.033   5.369
 4210POPC   PO453640  25.511  36.335   5.542
 4210POPC   GL153641  25.341  36.019   5.833
 4210POPC   GL253642  25.390  35.673   5.722
 4210POPC   C1A53643  25.232  36.087   6.292
 4210POPC   D2A53644  24.984  36.340   6.610
 4210POPC   C3A53645  25.124  36.347   7.040
 4210POPC   C4A53646  24.973  36.082   7.298
 4210POPC   C1B53647  25.378  35.577   6.190
 4210POPC   C2B53648  25.482  35.694   6.646
 4210POPC   C3B53649  25.491  35.747   7.140
 4210POPC   C4B53650  25.447  35.604   7.599
 4211POPC   NC353651   1.363  40.143   5.570
 4211POPC   PO453652   1.043  39.568   5.390
 4211POPC   GL153653   1.046  39.800   5.802
 4211POPC   GL253654   1.002  40.163   5.904
 4211POPC   C1A53655   0.928  39.793   6.223
 4211POPC   D2A53656   1.182  39.856   6.571
 4211POPC   C3A53657   1.063  40.061   6.910
 4211POPC   C4A53658   0.884  39.817   7.186
 4211POPC   C1B53659   1.389  40.125   6.198
 4211POPC   C2B53660   1.663  40.020   6.548
 4211POPC   C3B53661   1.567  39.857   6.962
 4211POPC   C4B53662   1.336  39.949   7.371
 4212POPC   NC353663  10.692  20.145   5.464
 4212POPC   PO453664  10.586  20.788   5.350
 4212POPC   GL153665  10.497  20.659   5.758
 4212POPC   GL253666  10.825  20.495   5.819
 4212POPC   C1A53667  10.269  20.872   6.101
 4212POPC   D2A53668  10.089  20.772   6.487
 4212POPC   C3A53669  10.137  20.957   6.840
 4212POPC   C4A53670  10.273  20.827   7.228
 4212POPC   C1B53671  10.570  20.458   6.236
 4212POPC   C2B53672  10.390  20.389   6.665
 4212POPC   C3B53673  10.397  20.259   7.111
 4212POPC   C4B53674  10.358  20.193   7.585
 4213POPC   NC353675   9.678  38.220   5.522
 4213POPC   PO453676   9.634  38.835   5.232
 4213POPC   GL153677   9.744  38.724   5.693
 4213POPC   GL253678  10.024  38.479   5.769
 4213POPC   C1A53679   9.701  38.569   6.142
 4213POPC   D2A53680   9.762  38.768   6.530
 4213POPC   C3A53681   9.568  38.576   6.870
 4213POPC   C4A53682   9.652  38.598   7.305
 4213POPC   C1B53683  10.085  38.220   6.152
 4213POPC   C2B53684   9.816  38.174   6.509
 4213POPC   C3B53685   9.913  38.187   6.938
 4213POPC   C4B53686  10.069  38.282   7.338
 4214POPC   NC353687  32.003  12.307   5.349
 4214POPC   PO453688  32.026  12.992   5.373
 4214POPC   GL153689  31.987  12.750   5.768
 4214POPC   GL253690  32.210  12.541   5.966
 4214POPC   C1A53691  32.007  12.958   6.184
 4214POPC   D2A53692  31.756  13.153   6.481
 4214POPC   C3A53693  31.877  12.992   6.855
 4214POPC   C4A53694  32.178  13.035   7.164
 4214POPC   C1B53695  32.431  12.700   6.317
 4214POPC   C2B53696  32.321  12.750   6.722
 4214POPC   C3B53697  32.378  12.543   7.079
 4214POPC   C4B53698  32.651  12.850   7.199
 4215POPC   NC353699  42.044   8.280   5.438
 4215POPC   PO453700  42.598   8.013   5.380
 4215POPC   GL153701  42.362   8.009   5.758
 4215POPC   GL253702  42.379   8.346   5.844
 4215POPC   C1A53703  42.550   7.928   6.173
 4215POPC   D2A53704  42.584   8.118   6.559
 4215POPC   C3A53705  42.622   7.874   6.913
 4215POPC   C4A53706  42.542   8.106   7.259
 4215POPC   C1B53707  42.249   8.347   6.231
 4215POPC   C2B53708  42.041   8.207   6.559
 4215POPC   C3B53709  42.157   8.082   6.919
 4215POPC   C4B53710  42.045   7.987   7.315
 4216POPC   NC353711   9.799  44.206   5.280
 4216POPC   PO453712   9.786  43.527   5.157
 4216POPC   GL153713   9.760  43.678   5.619
 4216POPC   GL253714   9.671  43.982   5.709
 4216POPC   C1A53715   9.806  43.710   6.116
 4216POPC   D2A53716   9.686  43.700   6.554
 4216POPC   C3A53717   9.972  43.810   6.921
 4216POPC   C4A53718   9.910  44.128   7.276
 4216POPC   C1B53719   9.845  44.214   6.042
 4216POPC   C2B53720   9.780  44.219   6.491
 4216POPC   C3B53721   9.555  44.107   6.871
 4216POPC   C4B53722   9.291  43.869   7.135
 4217POPC   NC353723   6.584  34.181   5.355
 4217POPC   PO453724   6.403  34.922   5.481
 4217POPC   GL153725   6.578  34.699   5.835
 4217POPC   GL253726   6.830  34.523   5.683
 4217POPC   C1A53727   6.441  34.655   6.264
 4217POPC   D2A53728   6.716  34.565   6.606
 4217POPC   C3A53729   6.620  34.680   7.010
 4217POPC   C4A53730   6.829  34.753   7.376
 4217POPC   C1B53731   6.940  34.435   6.134
 4217POPC   C2B53732   7.114  34.252   6.523
 4217POPC   C3B53733   6.995  34.175   6.940
 4217POPC   C4B53734   7.071  34.316   7.359
 4218POPC   NC353735  10.252  29.929   5.458
 4218POPC   PO453736  10.792  30.281   5.609
 4218POPC   GL153737  10.551  30.057   5.891
 4218POPC   GL253738  10.841  29.849   5.954
 4218POPC   C1A53739  10.500  30.047   6.327
 4218POPC   D2A53740  10.566  30.224   6.735
 4218POPC   C3A53741  10.398  29.953   7.043
 4218POPC   C4A53742  10.039  29.879   7.313
 4218POPC   C1B53743  10.994  30.162   6.262
 4218POPC   C2B53744  11.041  30.050   6.701
 4218POPC   C3B53745  10.945  30.285   7.119
 4218POPC   C4B53746  10.859  30.421   7.589
 4219POPC   NC353747  17.571  23.342   5.409
 4219POPC   PO453748  17.343  23.852   5.200
 4219POPC   GL153749  17.539  23.800   5.667
 4219POPC   GL253750  17.479  23.467   5.893
 4219POPC   C1A53751  17.642  23.899   6.134
 4219POPC   D2A53752  17.398  24.006   6.527
 4219POPC   C3A53753  17.543  23.962   6.963
 4219POPC   C4A53754  17.496  23.639   7.239
 4219POPC   C1B53755  17.424  23.477   6.360
 4219POPC   C2B53756  17.725  23.592   6.674
 4219POPC   C3B53757  17.931  23.426   7.036
 4219POPC   C4B53758  17.913  23.514   7.504
 4220POPC   NC353759  32.436  18.376   5.185
 4220POPC   PO453760  32.001  18.599   5.679
 4220POPC   GL153761  32.126  18.149   5.753
 4220POPC   GL253762  32.500  18.134   5.691
 4220POPC   C1A53763  32.086  17.858   6.145
 4220POPC   D2A53764  32.245  17.929   6.596
 4220POPC   C3A53765  32.029  18.287   6.843
 4220POPC   C4A53766  32.074  18.467   7.245
 4220POPC   C1B53767  32.460  18.191   6.156
 4220POPC   C2B53768  32.396  18.459   6.512
 4220POPC   C3B53769  32.524  18.468   6.931
 4220POPC   C4B53770  32.631  18.147   7.194
 4221POPC   NC353771   6.012  16.934   5.475
 4221POPC   PO453772   5.592  17.409   5.614
 4221POPC   GL153773   5.764  17.048   5.906
 4221POPC   GL253774   6.039  16.733   5.924
 4221POPC   C1A53775   5.806  16.962   6.323
 4221POPC   D2A53776   5.482  16.953   6.588
 4221POPC   C3A53777   5.652  16.946   6.989
 4221POPC   C4A53778   5.869  16.777   7.330
 4221POPC   C1B53779   6.173  16.549   6.305
 4221POPC   C2B53780   6.300  16.366   6.721
 4221POPC   C3B53781   6.139  16.382   7.139
 4221POPC   C4B53782   6.248  16.428   7.624
 4222POPC   NC353783  43.664  43.381   5.531
 4222POPC   PO453784  44.178  43.021   5.228
 4222POPC   GL153785  44.080  43.098   5.694
 4222POPC   GL253786  44.078  43.468   5.818
 4222POPC   C1A53787  43.859  43.128   6.126
 4222POPC   D2A53788  43.857  43.165   6.566
 4222POPC   C3A53789  43.548  43.117   6.876
 4222POPC   C4A53790  43.617  43.248   7.292
 4222POPC   C1B53791  44.112  43.601   6.269
 4222POPC   C2B53792  44.187  43.532   6.719
 4222POPC   C3B53793  44.069  43.201   7.051
 4222POPC   C4B53794  44.042  43.065   7.504
 4223POPC   NC353795   1.717  10.124   5.452
 4223POPC   PO453796   2.027   9.584   5.127
 4223POPC   GL153797   2.150   9.780   5.588
 4223POPC   GL253798   2.004   9.639   5.912
 4223POPC   C1A53799   2.291  10.059   5.996
 4223POPC   D2A53800   2.373  10.211   6.478
 4223POPC   C3A53801   2.270   9.951   6.883
 4223POPC   C4A53802   2.231   9.621   7.202
 4223POPC   C1B53803   1.794  10.049   6.129
 4223POPC   C2B53804   1.674  10.290   6.528
 4223POPC   C3B53805   1.783  10.211   6.985
 4223POPC   C4B53806   1.808   9.883   7.297
 4224POPC   NC353807  25.097  40.549   5.395
 4224POPC   PO453808  25.479  41.075   5.348
 4224POPC   GL153809  25.256  40.892   5.730
 4224POPC   GL253810  25.365  40.557   5.835
 4224POPC   C1A53811  25.147  40.912   6.157
 4224POPC   D2A53812  25.287  41.091   6.537
 4224POPC   C3A53813  25.155  40.839   6.843
 4224POPC   C4A53814  24.993  40.950   7.216
 4224POPC   C1B53815  25.685  40.533   6.157
 4224POPC   C2B53816  25.781  40.404   6.558
 4224POPC   C3B53817  25.536  40.478   6.902
 4224POPC   C4B53818  25.364  40.610   7.254
 4225POPC   NC353819  39.595  30.711   5.305
 4225POPC   PO453820  40.234  30.658   5.454
 4225POPC   GL153821  40.029  30.697   5.822
 4225POPC   GL253822  40.079  30.322   5.857
 4225POPC   C1A53823  40.130  30.924   6.204
 4225POPC   D2A53824  40.175  30.758   6.585
 4225POPC   C3A53825  40.235  30.967   6.938
 4225POPC   C4A53826  40.163  30.855   7.326
 4225POPC   C1B53827  39.963  30.430   6.266
 4225POPC   C2B53828  39.845  30.374   6.692
 4225POPC   C3B53829  40.094  30.448   7.027
 4225POPC   C4B53830  39.960  30.422   7.484
 4226POPC   NC353831  34.751  29.821   5.470
 4226POPC   PO453832  34.336  30.347   5.666
 4226POPC   GL153833  34.455  29.995   5.944
 4226POPC   GL253834  34.541  29.651   5.897
 4226POPC   C1A53835  34.414  29.927   6.387
 4226POPC   D2A53836  34.319  30.207   6.710
 4226POPC   C3A53837  34.636  30.164   7.026
 4226POPC   C4A53838  34.655  30.087   7.439
 4226POPC   C1B53839  34.779  29.594   6.284
 4226POPC   C2B53840  34.793  29.708   6.727
 4226POPC   C3B53841  34.724  29.618   7.172
 4226POPC   C4B53842  34.735  29.521   7.618
 4227POPC   NC353843  12.274   2.126   5.262
 4227POPC   PO453844  11.763   1.669   5.275
 4227POPC   GL153845  12.038   1.777   5.696
 4227POPC   GL253846  12.230   2.097   5.767
 4227POPC   C1A53847  12.343   1.705   6.077
 4227POPC   D2A53848  12.471   1.864   6.482
 4227POPC   C3A53849  12.250   1.766   6.860
 4227POPC   C4A53850  12.315   1.822   7.299
 4227POPC   C1B53851  12.140   2.159   6.208
 4227POPC   C2B53852  12.136   2.265   6.647
 4227POPC   C3B53853  12.242   2.265   7.070
 4227POPC   C4B53854  12.273   2.274   7.528
 4228POPC   NC353855  30.892  37.169   5.383
 4228POPC   PO453856  30.862  36.462   5.360
 4228POPC   GL153857  30.634  36.766   5.603
 4228POPC   GL253858  30.911  36.871   5.796
 4228POPC   C1A53859  30.455  36.870   6.038
 4228POPC   D2A53860  30.385  37.137   6.406
 4228POPC   C3A53861  30.383  37.063   6.846
 4228POPC   C4A53862  30.618  36.986   7.212
 4228POPC   C1B53863  31.105  36.938   6.210
 4228POPC   C2B53864  30.871  36.992   6.630
 4228POPC   C3B53865  31.091  36.939   7.003
 4228POPC   C4B53866  31.110  37.068   7.438
 4229POPC   NC353867  41.717  16.750   5.321
 4229POPC   PO453868  41.017  16.808   5.383
 4229POPC   GL153869  41.367  16.864   5.712
 4229POPC   GL253870  41.262  17.064   6.001
 4229POPC   C1A53871  41.572  16.624   6.056
 4229POPC   D2A53872  41.355  16.486   6.427
 4229POPC   C3A53873  41.556  16.522   6.842
 4229POPC   C4A53874  41.432  16.538   7.221
 4229POPC   C1B53875  41.674  17.118   6.188
 4229POPC   C2B53876  41.770  16.925   6.601
 4229POPC   C3B53877  41.707  16.983   7.078
 4229POPC   C4B53878  41.966  16.825   7.421
 4230POPC   NC353879  38.442   6.194   5.420
 4230POPC   PO453880  38.245   6.885   5.401
 4230POPC   GL153881  38.239   6.644   5.793
 4230POPC   GL253882  38.285   6.287   5.883
 4230POPC   C1A53883  38.423   6.700   6.218
 4230POPC   D2A53884  38.600   6.620   6.639
 4230POPC   C3A53885  38.377   6.737   6.987
 4230POPC   C4A53886  38.480   6.759   7.417
 4230POPC   C1B53887  38.502   6.213   6.274
 4230POPC   C2B53888  38.421   6.134   6.680
 4230POPC   C3B53889  38.575   6.273   7.087
 4230POPC   C4B53890  38.344   6.293   7.488
 4231POPC   NC353891  22.982  35.637   5.439
 4231POPC   PO453892  23.461  35.183   5.371
 4231POPC   GL153893  23.255  35.261   5.814
 4231POPC   GL253894  22.954  35.478   5.915
 4231POPC   C1A53895  23.130  35.130   6.240
 4231POPC   D2A53896  22.992  35.428   6.530
 4231POPC   C3A53897  23.214  35.467   6.925
 4231POPC   C4A53898  23.210  35.242   7.323
 4231POPC   C1B53899  22.565  35.624   6.119
 4231POPC   C2B53900  22.337  35.502   6.493
 4231POPC   C3B53901  22.472  35.430   6.913
 4231POPC   C4B53902  22.766  35.500   7.251
 4232POPC   NC353903  20.857  34.682   5.474
 4232POPC   PO453904  20.463  34.099   5.576
 4232POPC   GL153905  20.557  34.433   5.841
 4232POPC   GL253906  20.898  34.587   5.967
 4232POPC   C1A53907  20.571  34.367   6.264
 4232POPC   D2A53908  20.420  34.336   6.640
 4232POPC   C3A53909  20.663  34.425   6.976
 4232POPC   C4A53910  20.522  34.251   7.358
 4232POPC   C1B53911  20.712  34.867   6.285
 4232POPC   C2B53912  20.513  34.851   6.683
 4232POPC   C3B53913  20.639  34.930   7.086
 4232POPC   C4B53914  21.073  35.056   7.176
 4233POPC   NC353915  36.371  38.741   5.330
 4233POPC   PO453916  35.929  38.195   5.360
 4233POPC   GL153917  36.033  38.460   5.684
 4233POPC   GL253918  35.732  38.624   5.744
 4233POPC   C1A53919  36.116  38.384   6.134
 4233POPC   D2A53920  36.041  38.166   6.553
 4233POPC   C3A53921  36.207  38.283   6.972
 4233POPC   C4A53922  36.517  38.050   7.228
 4233POPC   C1B53923  35.667  38.648   6.173
 4233POPC   C2B53924  35.885  38.672   6.559
 4233POPC   C3B53925  35.758  38.556   6.974
 4233POPC   C4B53926  35.766  38.357   7.381
 4234POPC   NC353927   8.617   8.433   5.492
 4234POPC   PO453928   9.107   7.907   5.491
 4234POPC   GL153929   8.903   8.072   5.822
 4234POPC   GL253930   8.580   7.989   5.744
 4234POPC   C1A53931   8.987   8.360   6.164
 4234POPC   D2A53932   9.262   8.380   6.519
 4234POPC   C3A53933   9.034   8.233   6.897
 4234POPC   C4A53934   9.174   8.200   7.332
 4234POPC   C1B53935   8.497   8.146   6.138
 4234POPC   C2B53936   8.608   8.060   6.542
 4234POPC   C3B53937   8.455   8.102   6.934
 4234POPC   C4B53938   8.673   8.289   7.268
 4235POPC   NC353939  28.027   5.962   5.388
 4235POPC   PO453940  27.385   5.670   5.336
 4235POPC   GL153941  27.613   5.827   5.654
 4235POPC   GL253942  27.842   5.606   5.736
 4235POPC   C1A53943  27.604   5.937   6.069
 4235POPC   D2A53944  27.834   5.962   6.441
 4235POPC   C3A53945  27.629   5.887   6.845
 4235POPC   C4A53946  27.780   5.968   7.242
 4235POPC   C1B53947  27.804   5.485   6.174
 4235POPC   C2B53948  27.942   5.500   6.625
 4235POPC   C3B53949  27.858   5.475   7.060
 4235POPC   C4B53950  27.918   5.516   7.533
 4236POPC   NC353951   4.676  31.024   5.602
 4236POPC   PO453952   5.217  30.705   5.250
 4236POPC   GL153953   5.159  30.901   5.699
 4236POPC   GL253954   5.180  30.613   5.873
 4236POPC   C1A53955   5.038  30.995   6.176
 4236POPC   D2A53956   4.789  30.795   6.534
 4236POPC   C3A53957   4.793  30.944   6.982
 4236POPC   C4A53958   4.902  30.710   7.371
 4236POPC   C1B53959   5.248  30.537   6.316
 4236POPC   C2B53960   5.426  30.462   6.718
 4236POPC   C3B53961   5.407  30.544   7.181
 4236POPC   C4B53962   5.253  30.406   7.593
 4237POPC   NC353963  27.721  44.664   5.304
 4237POPC   PO453964  27.258  44.290   5.597
 4237POPC   GL153965  27.494  44.595   5.806
 4237POPC   GL253966  27.406  44.959   5.862
 4237POPC   C1A53967  27.409  44.635   6.245
 4237POPC   D2A53968  27.632  44.544   6.603
 4237POPC   C3A53969  27.398  44.701   6.933
 4237POPC   C4A53970  27.188  44.380   7.135
 4237POPC   C1B53971  27.705   0.042   6.273
 4237POPC   C2B53972  27.773   0.013   6.718
 4237POPC   C3B53973  27.885  44.849   7.122
 4237POPC   C4B53974  27.812   0.014   7.556
 4238POPC   NC353975  39.329   6.601   5.637
 4238POPC   PO453976  38.885   6.148   5.556
 4238POPC   GL153977  38.771   6.461   5.875
 4238POPC   GL253978  38.717   6.830   5.817
 4238POPC   C1A53979  38.933   6.647   6.259
 4238POPC   D2A53980  39.113   6.494   6.656
 4238POPC   C3A53981  38.994   6.601   7.060
 4238POPC   C4A53982  39.304   6.875   7.159
 4238POPC   C1B53983  38.694   7.144   6.189
 4238POPC   C2B53984  38.827   7.136   6.634
 4238POPC   C3B53985  38.775   7.044   7.086
 4238POPC   C4B53986  38.937   6.996   7.509
 4239POPC   NC353987  17.378  28.781   5.607
 4239POPC   PO453988  17.552  28.270   5.257
 4239POPC   GL153989  17.505  28.305   5.758
 4239POPC   GL253990  17.790  28.374   5.986
 4239POPC   C1A53991  17.286  28.461   6.155
 4239POPC   D2A53992  17.224  28.441   6.594
 4239POPC   C3A53993  17.389  28.744   6.901
 4239POPC   C4A53994  17.521  28.592   7.333
 4239POPC   C1B53995  17.797  28.685   6.306
 4239POPC   C2B53996  17.755  28.464   6.687
 4239POPC   C3B53997  17.851  28.314   7.077
 4239POPC   C4B53998  18.014  28.467   7.451
 4240POPC   NC353999  15.962  34.381   5.348
 4240POPC   PO454000  16.225  34.929   5.591
 4240POPC   GL154001  16.154  34.543   5.816
 4240POPC   GL254002  15.811  34.393   5.832
 4240POPC   C1A54003  16.050  34.572   6.250
 4240POPC   D2A54004  16.216  34.859   6.553
 4240POPC   C3A54005  16.051  34.777   6.957
 4240POPC   C4A54006  16.066  34.600   7.356
 4240POPC   C1B54007  15.924  34.068   6.188
 4240POPC   C2B54008  15.923  34.013   6.642
 4240POPC   C3B54009  16.104  34.152   7.041
 4240POPC   C4B54010  16.032  34.124   7.518
 4241POPC   NC354011  37.912  42.382   5.416
 4241POPC   PO454012  37.344  42.019   5.590
 4241POPC   GL154013  37.758  42.052   5.811
 4241POPC   GL254014  37.750  42.421   5.885
 4241POPC   C1A54015  37.925  42.109   6.244
 4241POPC   D2A54016  37.639  42.284   6.582
 4241POPC   C3A54017  37.578  42.163   7.007
 4241POPC   C4A54018  37.670  42.175   7.447
 4241POPC   C1B54019  37.784  42.663   6.243
 4241POPC   C2B54020  37.957  42.716   6.639
 4241POPC   C3B54021  37.860  42.600   7.064
 4241POPC   C4B54022  37.412  42.631   7.122
 4242POPC   NC354023   7.790  40.217   5.388
 4242POPC   PO454024   7.370  39.768   5.236
 4242POPC   GL154025   7.580  39.848   5.666
 4242POPC   GL254026   7.767  39.604   5.856
 4242POPC   C1A54027   7.653  40.159   6.042
 4242POPC   D2A54028   7.717  40.063   6.505
 4242POPC   C3A54029   7.497  40.285   6.851
 4242POPC   C4A54030   7.421  40.274   7.288
 4242POPC   C1B54031   7.357  39.771   6.120
 4242POPC   C2B54032   7.175  39.664   6.527
 4242POPC   C3B54033   7.288  39.828   6.932
 4242POPC   C4B54034   7.431  39.617   7.304
 4243POPC   NC354035  43.436  30.674   5.530
 4243POPC   PO454036  42.865  30.946   5.628
 4243POPC   GL154037  43.109  30.763   5.934
 4243POPC   GL254038  43.279  30.462   5.977
 4243POPC   C1A54039  42.943  30.706   6.306
 4243POPC   D2A54040  42.957  30.438   6.636
 4243POPC   C3A54041  43.060  30.620   7.022
 4243POPC   C4A54042  43.119  30.730   7.461
 4243POPC   C1B54043  43.429  30.598   6.419
 4243POPC   C2B54044  43.382  30.918   6.751
 4243POPC   C3B54045  43.600  31.055   7.127
 4243POPC   C4B54046  43.558  30.955   7.601
 4244POPC   NC354047  34.191   8.847   5.403
 4244POPC   PO454048  34.797   8.757   5.542
 4244POPC   GL154049  34.518   8.842   5.853
 4244POPC   GL254050  34.478   9.189   5.721
 4244POPC   C1A54051  34.678   8.904   6.277
 4244POPC   D2A54052  34.865   9.174   6.624
 4244POPC   C3A54053  34.730   9.026   7.024
 4244POPC   C4A54054  34.763   8.916   7.475
 4244POPC   C1B54055  34.358   9.274   6.157
 4244POPC   C2B54056  34.362   9.197   6.591
 4244POPC   C3B54057  34.472   9.446   6.935
 4244POPC   C4B54058  34.365   9.225   7.329
 4245POPC   NC354059  29.834  42.737   5.382
 4245POPC   PO454060  30.092  42.124   5.216
 4245POPC   GL154061  29.929  42.320   5.631
 4245POPC   GL254062  30.213  42.279   5.812
 4245POPC   C1A54063  29.790  42.411   6.078
 4245POPC   D2A54064  29.774  42.707   6.453
 4245POPC   C3A54065  29.966  42.603   6.878
 4245POPC   C4A54066  29.738  42.422   7.193
 4245POPC   C1B54067  30.152  42.067   6.210
 4245POPC   C2B54068  29.951  42.187   6.560
 4245POPC   C3B54069  30.121  42.095   6.940
 4245POPC   C4B54070  29.854  41.918   7.205
 4246POPC   NC354071  17.743  10.397   5.504
 4246POPC   PO454072  17.153  10.718   5.390
 4246POPC   GL154073  17.270  10.607   5.836
 4246POPC   GL254074  17.446  10.322   5.900
 4246POPC   C1A54075  17.370  10.569   6.329
 4246POPC   D2A54076  17.716  10.484   6.664
 4246POPC   C3A54077  17.545  10.601   7.075
 4246POPC   C4A54078  17.164  10.855   7.138
 4246POPC   C1B54079  17.659  10.125   6.219
 4246POPC   C2B54080  17.479  10.024   6.600
 4246POPC   C3B54081  17.636  10.108   7.033
 4246POPC   C4B54082  17.754  10.218   7.443
 4247POPC   NC354083  19.625   8.943   5.434
 4247POPC   PO454084  20.253   9.189   5.313
 4247POPC   GL154085  20.062   9.101   5.757
 4247POPC   GL254086  19.680   9.100   5.901
 4247POPC   C1A54087  20.064   9.230   6.206
 4247POPC   D2A54088  19.712   9.322   6.474
 4247POPC   C3A54089  19.645   9.088   6.855
 4247POPC   C4A54090  19.873   9.161   7.232
 4247POPC   C1B54091  19.757   8.826   6.247
 4247POPC   C2B54092  20.052   8.846   6.569
 4247POPC   C3B54093  20.019   8.733   6.993
 4247POPC   C4B54094  19.667   8.710   7.275
 4248POPC   NC354095  23.572  17.813   5.113
 4248POPC   PO454096  23.306  18.317   5.449
 4248POPC   GL154097  23.549  18.309   5.837
 4248POPC   GL254098  23.905  18.275   5.819
 4248POPC   C1A54099  23.674  18.329   6.285
 4248POPC   D2A54100  23.781  18.070   6.627
 4248POPC   C3A54101  23.670  18.233   7.016
 4248POPC   C4A54102  23.662  18.040   7.389
 4248POPC   C1B54103  24.109  18.550   6.159
 4248POPC   C2B54104  24.165  18.428   6.602
 4248POPC   C3B54105  24.166  18.390   7.063
 4248POPC   C4B54106  23.862  18.674   7.262
 4249POPC   NC354107  18.774  31.161   5.081
 4249POPC   PO454108  18.328  30.741   5.427
 4249POPC   GL154109  18.172  30.829   5.858
 4249POPC   GL254110  18.083  31.177   5.918
 4249POPC   C1A54111  18.247  30.688   6.295
 4249POPC   D2A54112  18.074  30.555   6.697
 4249POPC   C3A54113  18.379  30.584   7.058
 4249POPC   C4A54114  18.316  30.608   7.510
 4249POPC   C1B54115  18.389  31.188   6.258
 4249POPC   C2B54116  18.396  31.011   6.676
 4249POPC   C3B54117  18.433  31.120   7.091
 4249POPC   C4B54118  18.667  31.010   7.458
 4250POPC   NC354119   0.636  20.565   5.353
 4250POPC   PO454120   0.029  20.476   5.423
 4250POPC   GL154121   0.305  20.514   5.813
 4250POPC   GL254122   0.679  20.494   5.859
 4250POPC   C1A54123   0.335  20.781   6.200
 4250POPC   D2A54124   0.392  20.695   6.655
 4250POPC   C3A54125   0.376  20.923   7.035
 4250POPC   C4A54126   0.389  20.860   7.494
 4250POPC   C1B54127   0.735  20.487   6.315
 4250POPC   C2B54128   0.746  20.351   6.747
 4250POPC   C3B54129   0.610  20.490   7.132
 4250POPC   C4B54130   0.702  20.445   7.557
 4251POPC   NC354131  42.761   6.373   5.232
 4251POPC   PO454132  42.444   6.898   5.132
 4251POPC   GL154133  42.377   6.578   5.554
 4251POPC   GL254134  42.010   6.591   5.656
 4251POPC   C1A54135  42.465   6.493   6.063
 4251POPC   D2A54136  42.467   6.785   6.474
 4251POPC   C3A54137  42.442   6.645   6.925
 4251POPC   C4A54138  42.200   6.808   7.280
 4251POPC   C1B54139  42.030   6.762   6.079
 4251POPC   C2B54140  41.994   6.613   6.495
 4251POPC   C3B54141  41.940   6.541   6.919
 4251POPC   C4B54142  42.057   6.336   7.308
 4252POPC   NC354143  42.107  31.720   5.578
 4252POPC   PO454144  42.597  31.377   5.346
 4252POPC   GL154145  42.509  31.502   5.852
 4252POPC   GL254146  42.143  31.380   5.978
 4252POPC   C1A54147  42.513  31.276   6.292
 4252POPC   D2A54148  42.182  31.173   6.610
 4252POPC   C3A54149  42.347  31.175   7.028
 4252POPC   C4A54150  42.647  31.470   7.224
 4252POPC   C1B54151  42.205  31.729   6.240
 4252POPC   C2B54152  42.431  31.697   6.606
 4252POPC   C3B54153  42.240  31.671   6.974
 4252POPC   C4B54154  42.205  31.827   7.355
 4253POPC   NC354155  22.816  37.244   5.310
 4253POPC   PO454156  23.255  36.754   5.360
 4253POPC   GL154157  23.039  36.796   5.767
 4253POPC   GL254158  22.862  37.082   5.798
 4253POPC   C1A54159  23.048  36.778   6.232
 4253POPC   D2A54160  22.788  36.821   6.608
 4253POPC   C3A54161  22.916  36.748   7.022
 4253POPC   C4A54162  23.211  36.915   7.259
 4253POPC   C1B54163  23.208  37.235   5.999
 4253POPC   C2B54164  23.235  37.247   6.437
 4253POPC   C3B54165  23.114  37.221   6.859
 4253POPC   C4B54166  23.126  37.449   7.245
 4254POPC   NC354167  21.731   4.246   5.133
 4254POPC   PO454168  22.317   3.969   5.363
 4254POPC   GL154169  22.088   4.181   5.669
 4254POPC   GL254170  22.279   4.028   5.892
 4254POPC   C1A54171  22.082   4.521   6.012
 4254POPC   D2A54172  22.222   4.703   6.428
 4254POPC   C3A54173  22.026   4.622   6.852
 4254POPC   C4A54174  22.212   4.476   7.258
 4254POPC   C1B54175  21.943   4.059   6.159
 4254POPC   C2B54176  21.865   4.237   6.542
 4254POPC   C3B54177  22.119   4.111   6.898
 4254POPC   C4B54178  21.985   4.032   7.310
 4255POPC   NC354179  41.021  17.138   5.061
 4255POPC   PO454180  40.441  17.017   5.409
 4255POPC   GL154181  40.660  16.923   5.798
 4255POPC   GL254182  40.480  16.654   5.924
 4255POPC   C1A54183  40.925  16.714   6.125
 4255POPC   D2A54184  40.795  16.785   6.523
 4255POPC   C3A54185  41.102  16.738   6.799
 4255POPC   C4A54186  41.181  16.956   7.135
 4255POPC   C1B54187  40.434  16.462   6.317
 4255POPC   C2B54188  40.361  16.615   6.736
 4255POPC   C3B54189  40.670  16.704   7.057
 4255POPC   C4B54190  40.966  16.336   7.110
 4256POPC   NC354191  35.284  22.353   5.383
 4256POPC   PO454192  35.284  21.732   5.618
 4256POPC   GL154193  35.301  22.046   5.940
 4256POPC   GL254194  35.471  22.372   5.895
 4256POPC   C1A54195  35.277  22.126   6.389
 4256POPC   D2A54196  35.104  22.470   6.655
 4256POPC   C3A54197  35.189  22.415   7.097
 4256POPC   C4A54198  35.172  22.095   7.430
 4256POPC   C1B54199  35.577  22.527   6.337
 4256POPC   C2B54200  35.594  22.325   6.746
 4256POPC   C3B54201  35.684  22.170   7.150
 4256POPC   C4B54202  35.553  22.444   7.447
 4257POPC   NC354203  18.665  32.990   5.630
 4257POPC   PO454204  19.136  33.308   5.242
 4257POPC   GL154205  19.225  33.136   5.707
 4257POPC   GL254206  19.159  32.770   5.771
 4257POPC   C1A54207  19.036  33.104   6.171
 4257POPC   D2A54208  18.892  32.876   6.581
 4257POPC   C3A54209  18.932  33.069   6.986
 4257POPC   C4A54210  19.192  33.055   7.332
 4257POPC   C1B54211  19.092  32.586   6.194
 4257POPC   C2B54212  19.345  32.655   6.579
 4257POPC   C3B54213  19.217  32.622   6.991
 4257POPC   C4B54214  18.755  32.596   7.067
 4258POPC   NC354215  20.625  19.200   5.281
 4258POPC   PO454216  20.939  18.743   5.446
 4258POPC   GL154217  20.690  18.994   5.754
 4258POPC   GL254218  20.865  19.311   5.733
 4258POPC   C1A54219  20.478  19.216   6.128
 4258POPC   D2A54220  20.378  19.294   6.581
 4258POPC   C3A54221  20.191  18.972   6.859
 4258POPC   C4A54222  20.289  19.001   7.282
 4258POPC   C1B54223  21.006  19.152   6.140
 4258POPC   C2B54224  20.788  18.940   6.504
 4258POPC   C3B54225  20.708  19.028   6.940
 4258POPC   C4B54226  20.643  19.403   7.167
 4259POPC   NC354227   3.485  31.267   5.315
 4259POPC   PO454228   3.680  31.864   5.437
 4259POPC   GL154229   3.529  31.626   5.817
 4259POPC   GL254230   3.285  31.400   5.769
 4259POPC   C1A54231   3.736  31.461   6.217
 4259POPC   D2A54232   4.012  31.330   6.572
 4259POPC   C3A54233   3.768  31.428   6.944
 4259POPC   C4A54234   3.376  31.628   7.087
 4259POPC   C1B54235   3.299  31.186   6.141
 4259POPC   C2B54236   3.292  31.433   6.505
 4259POPC   C3B54237   3.288  31.201   6.826
 4259POPC   C4B54238   3.381  31.089   7.189
 4260POPC   NC354239  33.653   9.116   5.517
 4260POPC   PO454240  33.819   8.572   5.446
 4260POPC   GL154241  33.876   8.748   5.831
 4260POPC   GL254242  34.009   9.055   5.869
 4260POPC   C1A54243  33.651   8.920   6.215
 4260POPC   D2A54244  33.867   9.044   6.614
 4260POPC   C3A54245  33.643   8.937   6.991
 4260POPC   C4A54246  33.472   9.289   7.196
 4260POPC   C1B54247  34.152   8.828   6.246
 4260POPC   C2B54248  34.321   8.686   6.623
 4260POPC   C3B54249  34.164   8.815   7.018
 4260POPC   C4B54250  33.865   8.558   7.285
 4261POPC   NC354251  38.033  36.573   5.462
 4261POPC   PO454252  37.671  37.106   5.467
 4261POPC   GL154253  37.425  36.979   5.814
 4261POPC   GL254254  37.300  36.650   5.695
 4261POPC   C1A54255  37.621  36.935   6.206
 4261POPC   D2A54256  38.048  36.957   6.363
 4261POPC   C3A54257  37.990  36.958   6.787
 4261POPC   C4A54258  37.951  36.772   7.207
 4261POPC   C1B54259  37.182  36.654   6.136
 4261POPC   C2B54260  37.350  36.629   6.527
 4261POPC   C3B54261  37.519  36.833   6.880
 4261POPC   C4B54262  37.449  36.708   7.294
 4262POPC   NC354263  21.220  21.112   5.407
 4262POPC   PO454264  21.667  21.564   5.294
 4262POPC   GL154265  21.438  21.517   5.685
 4262POPC   GL254266  21.562  21.835   5.787
 4262POPC   C1A54267  21.159  21.415   6.063
 4262POPC   D2A54268  21.242  21.504   6.510
 4262POPC   C3A54269  21.112  21.306   6.868
 4262POPC   C4A54270  21.319  21.291   7.249
 4262POPC   C1B54271  21.446  21.843   6.190
 4262POPC   C2B54272  21.616  21.838   6.589
 4262POPC   C3B54273  21.373  21.768   6.949
 4262POPC   C4B54274  21.627  21.871   7.245
 4263POPC   NC354275  44.466  27.070   5.008
 4263POPC   PO454276   0.046  27.066   5.277
 4263POPC   GL154277  44.799  26.999   5.733
 4263POPC   GL254278  44.430  27.109   5.790
 4263POPC   C1A54279  44.788  26.901   6.223
 4263POPC   D2A54280  44.476  26.763   6.558
 4263POPC   C3A54281  44.612  26.634   6.967
 4263POPC   C4A54282  44.965  26.698   7.211
 4263POPC   C1B54283  44.335  27.170   6.256
 4263POPC   C2B54284  44.371  27.244   6.698
 4263POPC   C3B54285  44.344  27.053   7.078
 4263POPC   C4B54286  44.150  26.677   7.219
 4264POPC   NC354287   3.761   4.222   5.048
 4264POPC   PO454288   3.246   4.527   5.387
 4264POPC   GL154289   3.481   4.351   5.730
 4264POPC   GL254290   3.544   4.613   5.927
 4264POPC   C1A54291   3.649   4.151   6.119
 4264POPC   D2A54292   3.495   3.998   6.504
 4264POPC   C3A54293   3.708   4.062   6.886
 4264POPC   C4A54294   3.538   4.150   7.270
 4264POPC   C1B54295   3.410   4.563   6.370
 4264POPC   C2B54296   3.465   4.618   6.827
 4264POPC   C3B54297   3.345   4.629   7.269
 4264POPC   C4B54298   3.268   4.757   7.703
 4265POPC   NC354299   4.160  34.440   5.327
 4265POPC   PO454300   3.946  35.025   5.632
 4265POPC   GL154301   4.045  34.546   5.842
 4265POPC   GL254302   3.831  34.200   5.796
 4265POPC   C1A54303   4.144  34.600   6.290
 4265POPC   D2A54304   4.199  34.946   6.610
 4265POPC   C3A54305   4.506  34.866   6.919
 4265POPC   C4A54306   4.327  34.581   7.185
 4265POPC   C1B54307   3.780  34.224   6.262
 4265POPC   C2B54308   3.976  34.314   6.697
 4265POPC   C3B54309   3.943  34.196   7.146
 4265POPC   C4B54310   4.141  34.244   7.546
 4266POPC   NC354311  37.857   4.696   5.574
 4266POPC   PO454312  37.568   5.321   5.441
 4266POPC   GL154313  37.623   5.148   5.796
 4266POPC   GL254314  37.424   4.832   5.815
 4266POPC   C1A54315  37.744   5.358   6.180
 4266POPC   D2A54316  37.838   5.236   6.572
 4266POPC   C3A54317  37.691   5.423   6.926
 4266POPC   C4A54318  37.883   5.329   7.294
 4266POPC   C1B54319  37.628   4.845   6.205
 4266POPC   C2B54320  37.449   4.829   6.590
 4266POPC   C3B54321  37.654   4.903   6.943
 4266POPC   C4B54322  37.574   4.918   7.331
 4267POPC   NC354323   7.891   7.946   5.360
 4267POPC   PO454324   8.175   8.592   5.355
 4267POPC   GL154325   7.998   8.396   5.722
 4267POPC   GL254326   8.074   8.048   5.833
 4267POPC   C1A54327   8.052   8.498   6.147
 4267POPC   D2A54328   8.226   8.424   6.536
 4267POPC   C3A54329   7.999   8.498   6.902
 4267POPC   C4A54330   8.167   8.358   7.267
 4267POPC   C1B54331   8.059   7.940   6.291
 4267POPC   C2B54332   7.927   8.021   6.731
 4267POPC   C3B54333   8.024   7.857   7.160
 4267POPC   C4B54334   8.394   7.891   7.449
 4268POPC   NC354335   5.842  32.496   5.333
 4268POPC   PO454336   5.745  31.811   5.322
 4268POPC   GL154337   5.900  32.026   5.707
 4268POPC   GL254338   5.681  32.330   5.804
 4268POPC   C1A54339   6.027  32.158   6.142
 4268POPC   D2A54340   5.783  32.274   6.511
 4268POPC   C3A54341   5.990  32.220   6.926
 4268POPC   C4A54342   6.084  32.490   7.287
 4268POPC   C1B54343   5.504  32.021   6.113
 4268POPC   C2B54344   5.401  31.942   6.564
 4268POPC   C3B54345   5.441  32.230   6.910
 4268POPC   C4B54346   5.648  32.214   7.300
 4269POPC   NC354347  14.909  20.146   5.442
 4269POPC   PO454348  15.402  19.649   5.550
 4269POPC   GL154349  15.200  19.941   5.837
 4269POPC   GL254350  14.897  19.751   5.804
 4269POPC   C1A54351  15.109  20.029   6.289
 4269POPC   D2A54352  15.353  20.095   6.694
 4269POPC   C3A54353  15.229  19.956   7.144
 4269POPC   C4A54354  15.248  20.131   7.577
 4269POPC   C1B54355  15.010  19.534   6.230
 4269POPC   C2B54356  15.025  19.648   6.700
 4269POPC   C3B54357  15.105  19.431   7.116
 4269POPC   C4B54358  15.383  19.177   7.447
 4270POPC   NC354359   6.013  18.531   5.237
 4270POPC   PO454360   6.639  18.262   5.425
 4270POPC   GL154361   6.823  18.287   5.808
 4270POPC   GL254362   7.096  18.055   5.913
 4270POPC   C1A54363   6.595  18.331   6.171
 4270POPC   D2A54364   6.403  18.081   6.466
 4270POPC   C3A54365   6.557  18.306   6.770
 4270POPC   C4A54366   6.528  18.321   7.171
 4270POPC   C1B54367   7.095  18.440   6.197
 4270POPC   C2B54368   6.948  18.605   6.608
 4270POPC   C3B54369   6.873  18.686   7.069
 4270POPC   C4B54370   6.972  18.399   7.441
 4271POPC   NC354371  27.642   2.996   5.387
 4271POPC   PO454372  27.396   2.444   5.121
 4271POPC   GL154373  27.463   2.603   5.612
 4271POPC   GL254374  27.745   2.577   5.819
 4271POPC   C1A54375  27.318   2.778   6.046
 4271POPC   D2A54376  27.480   2.685   6.464
 4271POPC   C3A54377  27.365   2.851   6.864
 4271POPC   C4A54378  27.608   2.750   7.203
 4271POPC   C1B54379  27.773   2.968   6.122
 4271POPC   C2B54380  27.839   3.043   6.603
 4271POPC   C3B54381  28.091   2.934   7.017
 4271POPC   C4B54382  28.076   2.585   7.351
 4272POPC   NC354383   1.930  13.807   4.963
 4272POPC   PO454384   2.183  13.474   5.493
 4272POPC   GL154385   2.119  13.582   5.896
 4272POPC   GL254386   2.295  13.866   5.922
 4272POPC   C1A54387   1.977  13.426   6.285
 4272POPC   D2A54388   2.208  13.385   6.670
 4272POPC   C3A54389   2.030  13.521   7.043
 4272POPC   C4A54390   1.600  13.465   7.176
 4272POPC   C1B54391   2.122  13.913   6.342
 4272POPC   C2B54392   2.117  14.047   6.777
 4272POPC   C3B54393   2.265  13.940   7.204
 4272POPC   C4B54394   2.148  13.778   7.606
 4273POPC   NC354395  21.661   3.890   5.587
 4273POPC   PO454396  21.302   4.348   5.239
 4273POPC   GL154397  21.524   4.387   5.672
 4273POPC   GL254398  21.269   4.230   5.866
 4273POPC   C1A54399  21.578   4.501   6.165
 4273POPC   D2A54400  21.328   4.484   6.569
 4273POPC   C3A54401  21.501   4.652   6.937
 4273POPC   C4A54402  21.721   4.505   7.264
 4273POPC   C1B54403  21.445   4.009   6.244
 4273POPC   C2B54404  21.528   3.850   6.647
 4273POPC   C3B54405  21.584   4.113   6.974
 4273POPC   C4B54406  21.234   4.268   7.207
 4274POPC   NC354407  30.351   9.167   5.285
 4274POPC   PO454408  29.725   8.932   5.397
 4274POPC   GL154409  29.833   8.798   5.789
 4274POPC   GL254410  30.003   9.127   5.810
 4274POPC   C1A54411  29.707   8.877   6.206
 4274POPC   D2A54412  29.911   8.925   6.607
 4274POPC   C3A54413  29.728   8.697   6.935
 4274POPC   C4A54414  29.434   8.918   7.143
 4274POPC   C1B54415  30.020   9.294   6.210
 4274POPC   C2B54416  30.126   9.399   6.619
 4274POPC   C3B54417  30.129   9.217   7.024
 4274POPC   C4B54418  30.082   9.446   7.403
 4275POPC   NC354419  26.037   8.267   5.377
 4275POPC   PO454420  25.493   7.942   5.329
 4275POPC   GL154421  25.790   8.021   5.757
 4275POPC   GL254422  25.898   8.375   5.846
 4275POPC   C1A54423  26.039   8.043   6.206
 4275POPC   D2A54424  26.048   7.841   6.648
 4275POPC   C3A54425  26.216   8.049   7.048
 4275POPC   C4A54426  26.032   8.147   7.449
 4275POPC   C1B54427  25.920   8.547   6.275
 4275POPC   C2B54428  26.055   8.391   6.680
 4275POPC   C3B54429  25.969   8.546   7.112
 4275POPC   C4B54430  26.003   8.709   7.562
 4276POPC   NC354431  38.957  32.956   5.475
 4276POPC   PO454432  39.523  32.694   5.557
 4276POPC   GL154433  39.420  33.030   5.868
 4276POPC   GL254434  39.106  33.246   5.870
 4276POPC   C1A54435  39.361  33.133   6.304
 4276POPC   D2A54436  39.173  32.845   6.574
 4276POPC   C3A54437  39.500  32.770   6.848
 4276POPC   C4A54438  39.512  33.087   7.118
 4276POPC   C1B54439  38.860  33.195   6.266
 4276POPC   C2B54440  38.942  33.273   6.694
 4276POPC   C3B54441  38.857  33.142   7.095
 4276POPC   C4B54442  38.764  33.436   7.419
 4277POPC   NC354443  25.900  23.695   5.514
 4277POPC   PO454444  26.571  23.570   5.543
 4277POPC   GL154445  26.332  23.792   5.827
 4277POPC   GL254446  26.054  23.558   5.989
 4277POPC   C1A54447  26.338  23.919   6.243
 4277POPC   D2A54448  26.136  23.707   6.564
 4277POPC   C3A54449  26.169  23.841   6.972
 4277POPC   C4A54450  26.084  23.434   7.122
 4277POPC   C1B54451  25.781  23.861   6.227
 4277POPC   C2B54452  25.752  24.046   6.670
 4277POPC   C3B54453  25.675  23.885   7.104
 4277POPC   C4B54454  25.827  23.921   7.526
 4278POPC   NC354455   0.665  13.711   5.420
 4278POPC   PO454456   0.087  14.098   5.421
 4278POPC   GL154457   0.127  13.830   5.838
 4278POPC   GL254458   0.455  13.677   5.859
 4278POPC   C1A54459   0.310  13.675   6.315
 4278POPC   D2A54460   0.241  13.443   6.665
 4278POPC   C3A54461   0.328  13.733   6.991
 4278POPC   C4A54462   0.501  13.401   7.219
 4278POPC   C1B54463   0.485  14.084   6.091
 4278POPC   C2B54464   0.661  14.036   6.490
 4278POPC   C3B54465   0.822  13.775   6.826
 4278POPC   C4B54466   0.776  13.852   7.265
 4279POPC   NC354467  35.579   3.174   5.338
 4279POPC   PO454468  35.317   3.853   5.249
 4279POPC   GL154469  35.307   3.620   5.684
 4279POPC   GL254470  35.091   3.303   5.662
 4279POPC   C1A54471  35.460   3.747   6.167
 4279POPC   D2A54472  35.597   3.513   6.579
 4279POPC   C3A54473  35.555   3.740   6.958
 4279POPC   C4A54474  35.177   3.875   7.102
 4279POPC   C1B54475  35.050   3.451   6.116
 4279POPC   C2B54476  35.087   3.451   6.583
 4279POPC   C3B54477  35.228   3.343   7.011
 4279POPC   C4B54478  35.034   3.271   7.432
 4280POPC   NC354479  36.886   2.367   5.546
 4280POPC   PO454480  36.604   2.969   5.381
 4280POPC   GL154481  36.797   2.875   5.755
 4280POPC   GL254482  37.158   2.803   5.786
 4280POPC   C1A54483  36.755   2.972   6.170
 4280POPC   D2A54484  36.743   2.706   6.491
 4280POPC   C3A54485  36.739   2.885   6.887
 4280POPC   C4A54486  36.769   2.796   7.297
 4280POPC   C1B54487  37.260   2.958   6.204
 4280POPC   C2B54488  37.193   3.007   6.665
 4280POPC   C3B54489  37.207   2.743   7.050
 4280POPC   C4B54490  37.228   2.706   7.540
 4281POPC   NC354491  11.049  36.926   5.483
 4281POPC   PO454492  11.661  36.586   5.494
 4281POPC   GL154493  11.488  36.871   5.882
 4281POPC   GL254494  11.151  36.939   5.957
 4281POPC   C1A54495  11.379  36.953   6.392
 4281POPC   D2A54496  11.374  37.275   6.747
 4281POPC   C3A54497  11.456  37.025   7.115
 4281POPC   C4A54498  11.327  36.604   7.075
 4281POPC   C1B54499  10.982  37.238   6.239
 4281POPC   C2B54500  10.856  37.188   6.660
 4281POPC   C3B54501  10.965  37.099   7.073
 4281POPC   C4B54502  11.023  37.344   7.418
 4282POPC   NC354503  17.888  33.665   5.405
 4282POPC   PO454504  17.439  34.170   5.358
 4282POPC   GL154505  17.658  33.999   5.769
 4282POPC   GL254506  17.436  33.744   5.827
 4282POPC   C1A54507  17.815  33.676   6.148
 4282POPC   D2A54508  17.845  33.475   6.583
 4282POPC   C3A54509  17.630  33.695   6.942
 4282POPC   C4A54510  17.628  34.080   7.214
 4282POPC   C1B54511  17.367  33.911   6.249
 4282POPC   C2B54512  17.402  34.095   6.651
 4282POPC   C3B54513  17.163  33.937   6.988
 4282POPC   C4B54514  17.268  33.753   7.362
 4283POPC   NC354515  11.205   3.847   5.286
 4283POPC   PO454516  11.199   3.163   5.351
 4283POPC   GL154517  11.262   3.376   5.728
 4283POPC   GL254518  11.565   3.180   5.788
 4283POPC   C1A54519  11.230   3.673   6.111
 4283POPC   D2A54520  11.417   3.840   6.507
 4283POPC   C3A54521  11.473   3.599   6.899
 4283POPC   C4A54522  11.431   3.766   7.326
 4283POPC   C1B54523  11.331   3.143   6.159
 4283POPC   C2B54524  11.189   3.338   6.522
 4283POPC   C3B54525  11.136   3.194   6.927
 4283POPC   C4B54526  11.365   3.258   7.294
 4284POPC   NC354527   7.989  18.033   5.267
 4284POPC   PO454528   8.537  18.371   5.524
 4284POPC   GL154529   8.406  18.501   5.928
 4284POPC   GL254530   8.079  18.570   5.883
 4284POPC   C1A54531   8.372  18.296   6.334
 4284POPC   D2A54532   8.639  17.975   6.526
 4284POPC   C3A54533   8.527  17.982   6.959
 4284POPC   C4A54534   8.519  18.223   7.335
 4284POPC   C1B54535   7.890  18.434   6.249
 4284POPC   C2B54536   7.869  18.149   6.551
 4284POPC   C3B54537   7.693  18.083   6.916
 4284POPC   C4B54538   8.037  18.201   7.171
 4285POPC   NC354539  27.830  21.634   5.432
 4285POPC   PO454540  27.747  22.361   5.483
 4285POPC   GL154541  27.509  22.352   5.854
 4285POPC   GL254542  27.360  21.989   5.899
 4285POPC   C1A54543  27.604  22.488   6.265
 4285POPC   D2A54544  27.822  22.543   6.650
 4285POPC   C3A54545  27.579  22.507   7.040
 4285POPC   C4A54546  27.730  22.489   7.494
 4285POPC   C1B54547  27.747  22.009   6.182
 4285POPC   C2B54548  27.861  22.025   6.642
 4285POPC   C3B54549  27.636  22.011   7.039
 4285POPC   C4B54550  27.369  21.826   7.328
 4286POPC   NC354551   7.633  31.893   5.561
 4286POPC   PO454552   7.447  31.229   5.329
 4286POPC   GL154553   7.394  31.378   5.741
 4286POPC   GL254554   7.173  31.654   5.718
 4286POPC   C1A54555   7.322  31.244   6.179
 4286POPC   D2A54556   7.309  31.471   6.578
 4286POPC   C3A54557   7.139  31.308   6.972
 4286POPC   C4A54558   7.463  31.136   7.258
 4286POPC   C1B54559   7.354  31.790   6.116
 4286POPC   C2B54560   7.269  31.987   6.486
 4286POPC   C3B54561   7.519  31.876   6.829
 4286POPC   C4B54562   7.476  31.645   7.202
 4287POPC   NC354563  25.520  32.757   5.397
 4287POPC   PO454564  25.502  33.366   5.295
 4287POPC   GL154565  25.479  33.175   5.728
 4287POPC   GL254566  25.214  32.949   5.808
 4287POPC   C1A54567  25.487  33.200   6.194
 4287POPC   D2A54568  25.315  32.973   6.548
 4287POPC   C3A54569  25.551  32.968   6.917
 4287POPC   C4A54570  25.319  33.064   7.260
 4287POPC   C1B54571  24.949  32.712   6.134
 4287POPC   C2B54572  24.796  32.772   6.588
 4287POPC   C3B54573  24.983  32.816   6.990
 4287POPC   C4B54574  25.016  32.683   7.450
 4288POPC   NC354575  12.382  38.124   5.558
 4288POPC   PO454576  12.069  37.497   5.548
 4288POPC   GL154577  12.180  37.579   5.940
 4288POPC   GL254578  12.497  37.685   5.801
 4288POPC   C1A54579  12.058  37.894   6.286
 4288POPC   D2A54580  11.918  38.101   6.717
 4288POPC   C3A54581  11.940  37.795   7.088
 4288POPC   C4A54582  11.869  37.323   7.170
 4288POPC   C1B54583  12.574  37.778   6.178
 4288POPC   C2B54584  12.418  37.561   6.498
 4288POPC   C3B54585  12.434  37.673   6.903
 4288POPC   C4B54586  12.353  37.462   7.249
 4289POPC   NC354587  32.549  24.933   5.475
 4289POPC   PO454588  32.123  25.438   5.571
 4289POPC   GL154589  32.273  25.141   5.856
 4289POPC   GL254590  32.587  25.036   5.993
 4289POPC   C1A54591  32.093  24.991   6.237
 4289POPC   D2A54592  32.024  25.297   6.578
 4289POPC   C3A54593  32.281  25.136   6.840
 4289POPC   C4A54594  32.189  25.175   7.217
 4289POPC   C1B54595  32.412  25.401   6.253
 4289POPC   C2B54596  32.424  25.646   6.594
 4289POPC   C3B54597  32.379  25.611   7.015
 4289POPC   C4B54598  32.693  25.309   7.136
 4290POPC   NC354599  11.949  18.205   5.435
 4290POPC   PO454600  12.672  18.292   5.463
 4290POPC   GL154601  12.320  18.113   5.781
 4290POPC   GL254602  11.991  18.378   5.909
 4290POPC   C1A54603  12.122  17.996   6.187
 4290POPC   D2A54604  12.091  18.375   6.448
 4290POPC   C3A54605  12.018  18.313   6.859
 4290POPC   C4A54606  12.242  18.409   7.209
 4290POPC   C1B54607  11.667  18.197   6.247
 4290POPC   C2B54608  11.657  17.951   6.593
 4290POPC   C3B54609  11.587  18.096   6.997
 4290POPC   C4B54610  11.683  18.202   7.380
 4291POPC   NC354611   1.273  25.819   5.482
 4291POPC   PO454612   1.531  26.517   5.409
 4291POPC   GL154613   1.345  26.282   5.786
 4291POPC   GL254614   1.443  25.951   5.944
 4291POPC   C1A54615   1.172  26.307   6.215
 4291POPC   D2A54616   0.971  26.215   6.605
 4291POPC   C3A54617   1.166  26.143   6.986
 4291POPC   C4A54618   1.248  26.262   7.377
 4291POPC   C1B54619   1.588  25.715   6.315
 4291POPC   C2B54620   1.378  25.649   6.750
 4291POPC   C3B54621   1.447  25.753   7.201
 4291POPC   C4B54622   1.718  25.545   7.507
 4292POPC   NC354623  18.054  23.797   5.362
 4292POPC   PO454624  18.697  24.116   5.491
 4292POPC   GL154625  18.328  23.889   5.785
 4292POPC   GL254626  18.011  23.617   5.823
 4292POPC   C1A54627  18.178  23.870   6.224
 4292POPC   D2A54628  18.281  24.013   6.616
 4292POPC   C3A54629  18.049  23.991   6.955
 4292POPC   C4A54630  18.265  23.746   7.209
 4292POPC   C1B54631  17.945  23.421   6.232
 4292POPC   C2B54632  18.239  23.463   6.611
 4292POPC   C3B54633  18.455  23.281   6.986
 4292POPC   C4B54634  18.442  23.221   7.443
 4293POPC   NC354635  29.689  20.176   5.400
 4293POPC   PO454636  29.750  19.537   5.620
 4293POPC   GL154637  29.918  19.745   5.939
 4293POPC   GL254638  30.076  20.037   5.805
 4293POPC   C1A54639  29.755  19.709   6.344
 4293POPC   D2A54640  29.629  19.462   6.670
 4293POPC   C3A54641  29.682  19.722   6.977
 4293POPC   C4A54642  30.022  19.710   7.222
 4293POPC   C1B54643  30.030  20.124   6.252
 4293POPC   C2B54644  29.868  20.105   6.694
 4293POPC   C3B54645  30.081  20.189   7.076
 4293POPC   C4B54646  30.100  20.084   7.548
 4294POPC   NC354647  30.924   2.399   5.575
 4294POPC   PO454648  30.579   2.047   5.171
 4294POPC   GL154649  30.512   2.072   5.661
 4294POPC   GL254650  30.830   1.943   5.806
 4294POPC   C1A54651  30.371   2.031   6.145
 4294POPC   D2A54652  30.389   1.748   6.545
 4294POPC   C3A54653  30.516   1.934   6.967
 4294POPC   C4A54654  30.498   2.365   7.043
 4294POPC   C1B54655  30.871   2.153   6.227
 4294POPC   C2B54656  30.867   2.228   6.680
 4294POPC   C3B54657  31.030   2.020   7.049
 4294POPC   C4B54658  30.903   1.630   7.281
 4295POPC   NC354659  23.798  34.874   4.973
 4295POPC   PO454660  23.705  34.406   5.455
 4295POPC   GL154661  23.591  34.675   5.823
 4295POPC   GL254662  23.262  34.738   5.950
 4295POPC   C1A54663  23.679  34.606   6.282
 4295POPC   D2A54664  24.089  34.704   6.509
 4295POPC   C3A54665  23.995  34.848   6.908
 4295POPC   C4A54666  23.783  34.545   7.129
 4295POPC   C1B54667  23.218  34.322   6.151
 4295POPC   C2B54668  23.164  34.208   6.598
 4295POPC   C3B54669  23.302  34.439   6.980
 4295POPC   C4B54670  23.404  34.386   7.414
 4296POPC   NC354671  38.238  16.660   5.052
 4296POPC   PO454672  37.609  16.565   5.406
 4296POPC   GL154673  37.478  16.718   5.820
 4296POPC   GL254674  37.230  16.487   5.947
 4296POPC   C1A54675  37.434  16.894   6.285
 4296POPC   D2A54676  37.652  16.928   6.720
 4296POPC   C3A54677  37.431  16.831   7.125
 4296POPC   C4A54678  37.416  17.080   7.538
 4296POPC   C1B54679  37.627  16.431   6.214
 4296POPC   C2B54680  37.884  16.463   6.575
 4296POPC   C3B54681  37.830  16.508   7.014
 4296POPC   C4B54682  37.916  16.215   7.365
 4297POPC   NC354683  23.588  16.403   5.594
 4297POPC   PO454684  24.116  16.849   5.474
 4297POPC   GL154685  23.892  16.924   5.888
 4297POPC   GL254686  23.768  16.566   6.021
 4297POPC   C1A54687  23.749  16.936   6.357
 4297POPC   D2A54688  23.771  16.505   6.531
 4297POPC   C3A54689  23.875  16.448   6.959
 4297POPC   C4A54690  24.090  16.492   7.331
 4297POPC   C1B54691  23.404  16.295   6.237
 4297POPC   C2B54692  23.295  16.325   6.670
 4297POPC   C3B54693  23.468  16.746   6.861
 4297POPC   C4B54694  23.647  16.837   7.242
 4298POPC   NC354695  34.793  28.146   5.435
 4298POPC   PO454696  34.158  28.447   5.357
 4298POPC   GL154697  34.485  28.519   5.678
 4298POPC   GL254698  34.341  28.763   5.886
 4298POPC   C1A54699  34.685  28.309   6.055
 4298POPC   D2A54700  34.765  28.325   6.511
 4298POPC   C3A54701  34.728  28.181   6.927
 4298POPC   C4A54702  34.657  28.345   7.331
 4298POPC   C1B54703  34.256  28.538   6.233
 4298POPC   C2B54704  34.136  28.332   6.579
 4298POPC   C3B54705  34.245  28.371   6.995
 4298POPC   C4B54706  34.267  28.755   7.201
 4299POPC   NC354707   5.218   8.357   5.388
 4299POPC   PO454708   4.653   8.063   5.551
 4299POPC   GL154709   4.978   8.228   5.808
 4299POPC   GL254710   5.230   7.978   5.756
 4299POPC   C1A54711   5.276   8.407   6.113
 4299POPC   D2A54712   5.326   8.284   6.551
 4299POPC   C3A54713   5.277   8.468   6.968
 4299POPC   C4A54714   4.860   8.444   7.190
 4299POPC   C1B54715   5.078   7.914   6.191
 4299POPC   C2B54716   5.251   7.776   6.566
 4299POPC   C3B54717   5.355   7.923   6.991
 4299POPC   C4B54718   5.027   7.971   7.307
 4300POPC   NC354719  29.611  36.431   5.472
 4300POPC   PO454720  28.940  36.122   5.558
 4300POPC   GL154721  29.288  36.225   5.817
 4300POPC   GL254722  29.186  36.543   5.772
 4300POPC   C1A54723  29.417  36.220   6.235
 4300POPC   D2A54724  29.184  36.018   6.547
 4300POPC   C3A54725  29.291  36.050   6.963
 4300POPC   C4A54726  28.977  35.820   7.207
 4300POPC   C1B54727  28.996  36.489   6.181
 4300POPC   C2B54728  29.089  36.503   6.624
 4300POPC   C3B54729  28.848  36.279   6.921
 4300POPC   C4B54730  28.669  36.406   7.281
 4301POPC   NC354731  12.906  34.233   5.517
 4301POPC   PO454732  13.058  34.957   5.444
 4301POPC   GL154733  12.952  34.712   5.809
 4301POPC   GL254734  12.765  34.922   6.037
 4301POPC   C1A54735  12.966  34.503   6.235
 4301POPC   D2A54736  12.826  34.748   6.606
 4301POPC   C3A54737  12.807  34.580   7.023
 4301POPC   C4A54738  13.130  34.339   7.249
 4301POPC   C1B54739  12.452  34.657   6.230
 4301POPC   C2B54740  12.204  34.629   6.582
 4301POPC   C3B54741  12.281  34.476   6.964
 4301POPC   C4B54742  12.317  34.717   7.314
 4302POPC   NC354743  26.732   3.841   5.576
 4302POPC   PO454744  27.194   3.301   5.420
 4302POPC   GL154745  27.008   3.425   5.798
 4302POPC   GL254746  27.192   3.699   5.860
 4302POPC   C1A54747  26.912   3.543   6.254
 4302POPC   D2A54748  26.669   3.395   6.619
 4302POPC   C3A54749  26.853   3.422   7.029
 4302POPC   C4A54750  26.778   3.729   7.312
 4302POPC   C1B54751  27.208   4.007   6.166
 4302POPC   C2B54752  27.318   3.808   6.522
 4302POPC   C3B54753  27.306   3.932   6.916
 4302POPC   C4B54754  27.287   3.648   7.227
 4303POPC   NC354755  28.894  19.578   5.497
 4303POPC   PO454756  29.244  20.085   5.319
 4303POPC   GL154757  29.245  19.907   5.738
 4303POPC   GL254758  29.533  20.067   5.879
 4303POPC   C1A54759  29.280  19.700   6.153
 4303POPC   D2A54760  29.179  19.382   6.457
 4303POPC   C3A54761  29.175  19.550   6.876
 4303POPC   C4A54762  29.237  19.710   7.261
 4303POPC   C1B54763  29.550  20.200   6.300
 4303POPC   C2B54764  29.361  19.984   6.630
 4303POPC   C3B54765  29.313  20.157   7.027
 4303POPC   C4B54766  29.648  20.081   7.330
 4304POPC   NC354767  22.425  24.407   5.316
 4304POPC   PO454768  21.770  24.685   5.302
 4304POPC   GL154769  22.069  24.613   5.650
 4304POPC   GL254770  22.108  24.266   5.710
 4304POPC   C1A54771  22.152  24.629   6.099
 4304POPC   D2A54772  22.204  24.537   6.531
 4304POPC   C3A54773  22.003  24.800   6.837
 4304POPC   C4A54774  22.232  24.640   7.148
 4304POPC   C1B54775  22.228  24.110   6.128
 4304POPC   C2B54776  22.396  24.040   6.523
 4304POPC   C3B54777  22.263  24.146   6.910
 4304POPC   C4B54778  22.432  24.141   7.314
 4305POPC   NC354779   0.849   0.781   5.498
 4305POPC   PO454780   0.235   1.134   5.223
 4305POPC   GL154781   0.361   1.160   5.712
 4305POPC   GL254782   0.703   1.094   5.879
 4305POPC   C1A54783   0.326   1.190   6.203
 4305POPC   D2A54784   0.323   0.965   6.612
 4305POPC   C3A54785   0.330   1.149   7.025
 4305POPC   C4A54786   0.575   1.506   7.146
 4305POPC   C1B54787   0.814   1.080   6.335
 4305POPC   C2B54788   0.776   1.182   6.787
 4305POPC   C3B54789   0.802   1.055   7.249
 4305POPC   C4B54790   0.839   0.979   7.728
 4306POPC   NC354791  25.331  28.108   5.466
 4306POPC   PO454792  25.147  28.708   5.094
 4306POPC   GL154793  25.145  28.600   5.628
 4306POPC   GL254794  24.841  28.804   5.764
 4306POPC   C1A54795  25.365  28.374   6.078
 4306POPC   D2A54796  25.666  28.294   6.471
 4306POPC   C3A54797  25.621  28.519   6.892
 4306POPC   C4A54798  25.463  28.464   7.350
 4306POPC   C1B54799  24.900  28.563   6.139
 4306POPC   C2B54800  25.109  28.490   6.535
 4306POPC   C3B54801  25.129  28.364   6.951
 4306POPC   C4B54802  24.949  28.446   7.324
 4307POPC   NC354803   3.895  42.276   5.027
 4307POPC   PO454804   4.374  42.267   5.465
 4307POPC   GL154805   4.282  42.077   5.899
 4307POPC   GL254806   3.945  42.164   6.014
 4307POPC   C1A54807   4.284  42.067   6.390
 4307POPC   D2A54808   4.191  42.334   6.781
 4307POPC   C3A54809   4.498  42.594   7.012
 4307POPC   C4A54810   4.485  42.640   7.457
 4307POPC   C1B54811   3.979  42.540   6.341
 4307POPC   C2B54812   4.097  42.830   6.735
 4307POPC   C3B54813   4.038  42.772   7.212
 4307POPC   C4B54814   4.073  42.784   7.717
 4308POPC   NC354815  37.365  31.249   5.435
 4308POPC   PO454816  37.981  30.981   5.256
 4308POPC   GL154817  37.933  31.204   5.671
 4308POPC   GL254818  37.700  31.490   5.735
 4308POPC   C1A54819  37.948  31.300   6.135
 4308POPC   D2A54820  37.981  31.593   6.497
 4308POPC   C3A54821  37.858  31.375   6.856
 4308POPC   C4A54822  37.779  31.374   7.270
 4308POPC   C1B54823  37.435  31.571   6.127
 4308POPC   C2B54824  37.452  31.654   6.589
 4308POPC   C3B54825  37.348  31.450   6.971
 4308POPC   C4B54826  37.328  31.620   7.372
 4309POPC   NC354827   3.417  35.005   5.463
 4309POPC   PO454828   3.695  34.389   5.326
 4309POPC   GL154829   3.554  34.609   5.722
 4309POPC   GL254830   3.268  34.480   5.887
 4309POPC   C1A54831   3.656  34.707   6.164
 4309POPC   D2A54832   3.396  34.594   6.527
 4309POPC   C3A54833   3.517  34.454   6.933
 4309POPC   C4A54834   3.768  34.667   7.221
 4309POPC   C1B54835   3.190  34.892   6.139
 4309POPC   C2B54836   2.997  34.954   6.536
 4309POPC   C3B54837   3.232  34.907   6.921
 4309POPC   C4B54838   3.258  34.682   7.326
 4310POPC   NC354839   4.951   2.419   5.570
 4310POPC   PO454840   4.462   2.816   5.234
 4310POPC   GL154841   4.311   2.913   5.655
 4310POPC   GL254842   4.595   2.821   5.860
 4310POPC   C1A54843   4.117   2.949   6.062
 4310POPC   D2A54844   4.395   2.830   6.412
 4310POPC   C3A54845   4.210   2.913   6.812
 4310POPC   C4A54846   4.388   2.867   7.214
 4310POPC   C1B54847   4.671   2.433   6.135
 4310POPC   C2B54848   4.791   2.391   6.533
 4310POPC   C3B54849   4.559   2.508   6.871
 4310POPC   C4B54850   4.574   2.383   7.284
 4311POPC   NC354851  36.760   9.588   5.417
 4311POPC   PO454852  37.348   9.784   5.675
 4311POPC   GL154853  36.878   9.851   5.838
 4311POPC   GL254854  36.636  10.138   5.847
 4311POPC   C1A54855  36.648   9.642   6.193
 4311POPC   D2A54856  36.781   9.531   6.622
 4311POPC   C3A54857  36.693   9.639   7.027
 4311POPC   C4A54858  36.977   9.928   7.190
 4311POPC   C1B54859  36.758  10.135   6.310
 4311POPC   C2B54860  36.644  10.093   6.761
 4311POPC   C3B54861  36.688  10.341   7.157
 4311POPC   C4B54862  36.914  10.295   7.561
 4312POPC   NC354863  14.946  26.223   5.360
 4312POPC   PO454864  15.594  26.139   5.542
 4312POPC   GL154865  15.282  25.997   5.810
 4312POPC   GL254866  14.961  25.873   5.754
 4312POPC   C1A54867  15.180  26.156   6.193
 4312POPC   D2A54868  15.423  26.339   6.506
 4312POPC   C3A54869  15.239  26.177   6.891
 4312POPC   C4A54870  15.207  26.420   7.248
 4312POPC   C1B54871  14.774  25.853   6.156
 4312POPC   C2B54872  14.829  26.060   6.547
 4312POPC   C3B54873  14.761  25.960   6.954
 4312POPC   C4B54874  14.968  25.982   7.343
 4313POPC   NC354875  17.809   7.147   5.569
 4313POPC   PO454876  18.464   7.199   5.651
 4313POPC   GL154877  18.176   7.525   5.807
 4313POPC   GL254878  17.911   7.331   6.033
 4313POPC   C1A54879  18.138   7.751   6.194
 4313POPC   D2A54880  17.953   7.511   6.538
 4313POPC   C3A54881  18.020   7.613   6.963
 4313POPC   C4A54882  18.140   7.337   7.315
 4313POPC   C1B54883  18.313   7.249   6.279
 4313POPC   C2B54884  18.496   6.979   6.618
 4313POPC   C3B54885  18.565   7.109   7.037
 4313POPC   C4B54886  18.555   6.971   7.449
 4314POPC   NC354887   2.999  42.325   5.390
 4314POPC   PO454888   2.454  42.529   5.485
 4314POPC   GL154889   2.667  42.308   5.830
 4314POPC   GL254890   3.012  42.329   5.904
 4314POPC   C1A54891   2.669  42.139   6.266
 4314POPC   D2A54892   2.659  42.308   6.700
 4314POPC   C3A54893   2.441  42.088   7.026
 4314POPC   C4A54894   2.611  42.035   7.444
 4314POPC   C1B54895   3.010  42.516   6.325
 4314POPC   C2B54896   3.131  42.531   6.745
 4314POPC   C3B54897   2.943  42.574   7.114
 4314POPC   C4B54898   3.151  42.733   7.460
 4315POPC   NC354899   7.646   0.510   5.298
 4315POPC   PO454900   7.019   0.222   5.310
 4315POPC   GL154901   7.154   0.371   5.748
 4315POPC   GL254902   7.497   0.286   5.735
 4315POPC   C1A54903   7.278   0.272   6.203
 4315POPC   D2A54904   7.468   0.102   6.582
 4315POPC   C3A54905   7.321   0.309   6.944
 4315POPC   C4A54906   7.132   0.460   7.308
 4315POPC   C1B54907   7.609   0.643   5.990
 4315POPC   C2B54908   7.635   0.613   6.429
 4315POPC   C3B54909   7.748   0.648   6.864
 4315POPC   C4B54910   7.616   0.575   7.269
 4316POPC   NC354911  32.984  23.213   5.392
 4316POPC   PO454912  32.886  22.570   5.131
 4316POPC   GL154913  32.893  22.673   5.595
 4316POPC   GL254914  33.136  22.854   5.723
 4316POPC   C1A54915  32.901  22.685   6.133
 4316POPC   D2A54916  33.285  22.741   6.452
 4316POPC   C3A54917  33.231  22.754   6.937
 4316POPC   C4A54918  32.889  22.702   7.280
 4316POPC   C1B54919  33.177  23.122   6.088
 4316POPC   C2B54920  33.121  23.258   6.510
 4316POPC   C3B54921  33.031  23.413   6.919
 4316POPC   C4B54922  33.124  23.148   7.250
 4317POPC   NC354923  36.383  31.281   5.246
 4317POPC   PO454924  36.980  31.117   5.202
 4317POPC   GL154925  36.786  31.278   5.606
 4317POPC   GL254926  36.738  31.667   5.722
 4317POPC   C1A54927  36.979  31.298   6.027
 4317POPC   D2A54928  37.144  31.227   6.457
 4317POPC   C3A54929  36.875  31.317   6.809
 4317POPC   C4A54930  36.944  31.276   7.265
 4317POPC   C1B54931  36.857  31.789   6.174
 4317POPC   C2B54932  36.966  31.850   6.620
 4317POPC   C3B54933  36.897  31.759   7.067
 4317POPC   C4B54934  36.829  31.740   7.494
 4318POPC   NC354935   1.561   7.376   5.075
 4318POPC   PO454936   1.045   7.225   5.522
 4318POPC   GL154937   1.177   7.530   5.812
 4318POPC   GL254938   0.980   7.850   5.775
 4318POPC   C1A54939   1.255   7.286   6.204
 4318POPC   D2A54940   1.454   7.152   6.635
 4318POPC   C3A54941   1.278   7.238   7.051
 4318POPC   C4A54942   1.490   7.346   7.505
 4318POPC   C1B54943   0.853   7.654   6.193
 4318POPC   C2B54944   0.964   7.483   6.580
 4318POPC   C3B54945   0.914   7.599   6.980
 4318POPC   C4B54946   1.124   7.661   7.317
 4319POPC   NC354947  12.577  19.688   5.290
 4319POPC   PO454948  13.174  19.910   5.443
 4319POPC   GL154949  12.903  19.896   5.789
 4319POPC   GL254950  12.548  20.008   5.714
 4319POPC   C1A54951  13.042  19.813   6.225
 4319POPC   D2A54952  13.195  19.750   6.636
 4319POPC   C3A54953  13.104  20.099   6.904
 4319POPC   C4A54954  13.006  20.041   7.314
 4319POPC   C1B54955  12.523  19.828   6.135
 4319POPC   C2B54956  12.454  19.712   6.558
 4319POPC   C3B54957  12.708  19.758   6.911
 4319POPC   C4B54958  12.563  19.765   7.299
 4320POPC   NC354959  37.893  39.447   5.579
 4320POPC   PO454960  37.497  38.970   5.405
 4320POPC   GL154961  37.636  38.986   5.841
 4320POPC   GL254962  37.991  39.024   5.865
 4320POPC   C1A54963  37.439  39.184   6.220
 4320POPC   D2A54964  37.165  39.131   6.586
 4320POPC   C3A54965  37.384  38.987   6.948
 4320POPC   C4A54966  37.610  39.212   7.164
 4320POPC   C1B54967  37.949  39.184   6.253
 4320POPC   C2B54968  37.794  39.181   6.658
 4320POPC   C3B54969  38.037  39.378   6.968
 4320POPC   C4B54970  37.902  39.550   7.349
 4321POPC   NC354971   2.981  11.438   5.604
 4321POPC   PO454972   2.606  10.974   5.391
 4321POPC   GL154973   2.660  11.161   5.856
 4321POPC   GL254974   3.042  11.166   6.022
 4321POPC   C1A54975   2.586  11.311   6.270
 4321POPC   D2A54976   2.611  11.642   6.584
 4321POPC   C3A54977   2.589  11.502   7.002
 4321POPC   C4A54978   2.525  11.077   7.092
 4321POPC   C1B54979   2.961  10.950   6.367
 4321POPC   C2B54980   2.854  11.152   6.705
 4321POPC   C3B54981   3.024  11.193   7.087
 4321POPC   C4B54982   2.879  10.984   7.440
 4322POPC   NC354983  28.103   0.455   5.325
 4322POPC   PO454984  27.865  44.941   5.661
 4322POPC   GL154985  28.218   0.226   5.779
 4322POPC   GL254986  28.203   0.626   5.782
 4322POPC   C1A54987  28.313   0.347   6.179
 4322POPC   D2A54988  28.092   0.369   6.508
 4322POPC   C3A54989  28.322   0.358   6.868
 4322POPC   C4A54990  28.202   0.224   7.283
 4322POPC   C1B54991  28.537   0.793   6.034
 4322POPC   C2B54992  28.483   0.750   6.466
 4322POPC   C3B54993  28.443   0.875   6.893
 4322POPC   C4B54994  28.409   0.691   7.260
 4323POPC   NC354995   1.756  29.524   5.155
 4323POPC   PO454996   2.245  29.919   5.289
 4323POPC   GL154997   2.115  29.959   5.723
 4323POPC   GL254998   1.778  29.847   5.824
 4323POPC   C1A54999   2.178  30.144   6.134
 4323POPC   D2A55000   2.113  29.920   6.505
 4323POPC   C3A55001   2.167  29.885   6.942
 4323POPC   C4A55002   1.989  30.143   7.239
 4323POPC   C1B55003   1.742  29.681   6.255
 4323POPC   C2B55004   1.835  29.537   6.709
 4323POPC   C3B55005   1.725  29.660   7.144
 4323POPC   C4B55006   1.715  29.473   7.577
 4324POPC   NC355007   9.536  43.251   5.417
 4324POPC   PO455008  10.090  42.936   5.503
 4324POPC   GL155009   9.885  42.953   5.907
 4324POPC   GL255010   9.747  43.264   5.892
 4324POPC   C1A55011   9.803  43.114   6.354
 4324POPC   D2A55012   9.993  43.302   6.684
 4324POPC   C3A55013   9.853  43.023   6.956
 4324POPC   C4A55014   9.703  43.111   7.327
 4324POPC   C1B55015   9.399  43.409   6.204
 4324POPC   C2B55016   9.269  43.383   6.638
 4324POPC   C3B55017   9.566  43.466   6.988
 4324POPC   C4B55018   9.689  43.658   7.386
 4325POPC   NC355019  40.136  23.238   5.596
 4325POPC   PO455020  39.891  22.559   5.312
 4325POPC   GL155021  39.731  22.767   5.718
 4325POPC   GL255022  39.829  22.524   5.955
 4325POPC   C1A55023  39.780  23.065   6.102
 4325POPC   D2A55024  40.101  23.222   6.420
 4325POPC   C3A55025  40.213  23.056   6.828
 4325POPC   C4A55026  39.960  23.098   7.189
 4325POPC   C1B55027  39.993  22.681   6.371
 4325POPC   C2B55028  39.766  22.763   6.764
 4325POPC   C3B55029  39.788  22.608   7.173
 4325POPC   C4B55030  40.155  22.614   7.418
 4326POPC   NC355031   8.470  26.706   5.283
 4326POPC   PO455032   8.013  27.122   5.120
 4326POPC   GL155033   8.007  27.063   5.614
 4326POPC   GL255034   8.173  26.725   5.711
 4326POPC   C1A55035   7.997  27.029   6.087
 4326POPC   D2A55036   7.978  26.894   6.541
 4326POPC   C3A55037   8.289  26.825   6.857
 4326POPC   C4A55038   8.189  26.747   7.279
 4326POPC   C1B55039   8.302  26.603   6.155
 4326POPC   C2B55040   8.182  26.408   6.567
 4326POPC   C3B55041   8.347  26.334   7.001
 4326POPC   C4B55042   8.396  26.331   7.467
 4327POPC   NC355043  12.173  10.833   5.414
 4327POPC   PO455044  11.872  10.125   5.394
 4327POPC   GL155045  11.924  10.310   5.811
 4327POPC   GL255046  11.914  10.684   5.839
 4327POPC   C1A55047  11.976  10.279   6.277
 4327POPC   D2A55048  12.209  10.420   6.653
 4327POPC   C3A55049  12.011  10.340   7.072
 4327POPC   C4A55050  12.137  10.334   7.508
 4327POPC   C1B55051  12.150  10.762   6.235
 4327POPC   C2B55052  12.052  10.928   6.635
 4327POPC   C3B55053  12.218  10.828   7.032
 4327POPC   C4B55054  11.959  10.802   7.396
 4328POPC   NC355055  38.469   0.497   5.410
 4328POPC   PO455056  37.863   0.216   5.634
 4328POPC   GL155057  38.273   0.344   5.884
 4328POPC   GL255058  38.606   0.554   5.888
 4328POPC   C1A55059  38.406   0.361   6.330
 4328POPC   D2A55060  38.609   0.128   6.641
 4328POPC   C3A55061  38.407   0.089   6.995
 4328POPC   C4A55062  38.593   0.281   7.340
 4328POPC   C1B55063  38.349   0.830   6.127
 4328POPC   C2B55064  38.236   0.794   6.564
 4328POPC   C3B55065  38.391   0.591   6.915
 4328POPC   C4B55066  38.187   0.566   7.292
 4329POPC   NC355067  39.730   6.918   5.327
 4329POPC   PO455068  40.151   7.431   5.340
 4329POPC   GL155069  40.107   7.615   5.776
 4329POPC   GL255070  40.173   7.278   5.874
 4329POPC   C1A55071  39.971   7.551   6.255
 4329POPC   D2A55072  39.870   7.163   6.524
 4329POPC   C3A55073  39.677   7.208   6.950
 4329POPC   C4A55074  39.802   7.434   7.285
 4329POPC   C1B55075  40.416   7.207   6.240
 4329POPC   C2B55076  40.346   7.298   6.657
 4329POPC   C3B55077  40.168   7.066   6.963
 4329POPC   C4B55078  40.188   7.074   7.359
 4330POPC   NC355079  32.651  10.262   5.373
 4330POPC   PO455080  32.985  10.807   5.329
 4330POPC   GL155081  32.975  10.716   5.758
 4330POPC   GL255082  33.045  10.379   5.760
 4330POPC   C1A55083  32.854  10.723   6.198
 4330POPC   D2A55084  33.025  10.948   6.571
 4330POPC   C3A55085  33.163  10.648   6.892
 4330POPC   C4A55086  32.830  10.527   7.178
 4330POPC   C1B55087  33.049  10.210   6.189
 4330POPC   C2B55088  32.922  10.260   6.646
 4330POPC   C3B55089  32.899  10.026   7.052
 4330POPC   C4B55090  32.871  10.088   7.544
 4331POPC   NC355091  27.408   7.599   5.479
 4331POPC   PO455092  27.895   7.146   5.524
 4331POPC   GL155093  27.777   7.449   5.824
 4331POPC   GL255094  27.405   7.373   5.932
 4331POPC   C1A55095  27.727   7.657   6.205
 4331POPC   D2A55096  27.518   7.523   6.574
 4331POPC   C3A55097  27.743   7.503   6.969
 4331POPC   C4A55098  27.978   7.423   7.331
 4331POPC   C1B55099  27.218   7.755   6.140
 4331POPC   C2B55100  27.165   7.923   6.581
 4331POPC   C3B55101  27.288   7.762   6.981
 4331POPC   C4B55102  27.549   7.844   7.313
 4332POPC   NC355103  27.323  32.410   5.162
 4332POPC   PO455104  26.713  32.061   5.222
 4332POPC   GL155105  26.772  32.088   5.737
 4332POPC   GL255106  26.882  32.391   5.932
 4332POPC   C1A55107  26.692  32.004   6.204
 4332POPC   D2A55108  26.505  32.182   6.594
 4332POPC   C3A55109  26.627  32.148   7.037
 4332POPC   C4A55110  26.504  32.495   7.318
 4332POPC   C1B55111  27.161  32.180   6.223
 4332POPC   C2B55112  27.054  32.120   6.639
 4332POPC   C3B55113  27.085  32.384   6.971
 4332POPC   C4B55114  26.991  32.280   7.404
 4333POPC   NC355115   3.123   1.233   4.868
 4333POPC   PO455116   2.801   1.250   5.408
 4333POPC   GL155117   2.752   1.435   5.822
 4333POPC   GL255118   2.415   1.341   5.914
 4333POPC   C1A55119   2.966   1.380   6.233
 4333POPC   D2A55120   2.883   1.123   6.617
 4333POPC   C3A55121   2.684   1.276   6.993
 4333POPC   C4A55122   2.582   1.104   7.409
 4333POPC   C1B55123   2.475   1.348   6.367
 4333POPC   C2B55124   2.225   1.338   6.715
 4333POPC   C3B55125   2.153   1.199   7.113
 4333POPC   C4B55126   2.161   1.381   7.506
 4334POPC   NC355127  10.251  19.638   5.346
 4334POPC   PO455128  10.935  19.753   5.501
 4334POPC   GL155129  10.536  19.766   5.759
 4334POPC   GL255130  10.673  20.034   5.963
 4334POPC   C1A55131  10.298  19.774   6.159
 4334POPC   D2A55132  10.490  19.892   6.541
 4334POPC   C3A55133  10.246  19.798   6.895
 4334POPC   C4A55134  10.346  19.678   7.287
 4334POPC   C1B55135  10.962  20.100   6.318
 4334POPC   C2B55136  10.974  19.758   6.612
 4334POPC   C3B55137  10.767  19.713   6.992
 4334POPC   C4B55138  10.760  19.950   7.371
 4335POPC   NC355139  19.565  28.580   5.077
 4335POPC   PO455140  20.144  28.281   5.330
 4335POPC   GL155141  19.971  28.086   5.730
 4335POPC   GL255142  19.659  28.290   5.765
 4335POPC   C1A55143  19.985  28.239   6.176
 4335POPC   D2A55144  19.675  28.495   6.412
 4335POPC   C3A55145  19.673  28.479   6.853
 4335POPC   C4A55146  19.931  28.541   7.208
 4335POPC   C1B55147  19.500  28.074   6.134
 4335POPC   C2B55148  19.698  27.970   6.533
 4335POPC   C3B55149  20.006  28.078   6.854
 4335POPC   C4B55150  19.814  28.049   7.259
 4336POPC   NC355151  22.457   4.448   5.353
 4336POPC   PO455152  23.036   4.056   5.377
 4336POPC   GL155153  23.008   4.318   5.711
 4336POPC   GL255154  22.698   4.320   5.871
 4336POPC   C1A55155  23.217   4.502   6.065
 4336POPC   D2A55156  23.026   4.389   6.441
 4336POPC   C3A55157  23.104   4.509   6.858
 4336POPC   C4A55158  22.966   4.501   7.316
 4336POPC   C1B55159  22.645   4.042   6.248
 4336POPC   C2B55160  22.637   4.138   6.663
 4336POPC   C3B55161  22.603   4.432   6.951
 4336POPC   C4B55162  22.544   4.117   7.232
 4337POPC   NC355163  44.649   2.891   5.245
 4337POPC   PO455164  44.332   2.426   5.612
 4337POPC   GL155165  44.503   2.768   5.844
 4337POPC   GL255166  44.707   3.056   5.724
 4337POPC   C1A55167  44.497   2.917   6.271
 4337POPC   D2A55168  44.458   3.171   6.643
 4337POPC   C3A55169  44.467   2.921   7.019
 4337POPC   C4A55170  44.388   2.700   7.448
 4337POPC   C1B55171  44.968   3.044   6.093
 4337POPC   C2B55172  44.939   2.952   6.546
 4337POPC   C3B55173  44.972   2.855   6.991
 4337POPC   C4B55174  44.812   3.002   7.392
 4338POPC   NC355175  42.756  26.520   5.539
 4338POPC   PO455176  43.152  27.040   5.373
 4338POPC   GL155177  43.051  26.869   5.816
 4338POPC   GL255178  42.993  26.537   5.976
 4338POPC   C1A55179  42.889  26.940   6.257
 4338POPC   D2A55180  42.969  27.184   6.598
 4338POPC   C3A55181  42.856  26.957   6.912
 4338POPC   C4A55182  42.926  26.954   7.299
 4338POPC   C1B55183  43.304  26.640   6.243
 4338POPC   C2B55184  43.344  26.780   6.640
 4338POPC   C3B55185  43.217  26.619   7.012
 4338POPC   C4B55186  43.135  26.494   7.422
 4339POPC   NC355187   9.258  24.544   5.181
 4339POPC   PO455188   9.878  24.567   5.348
 4339POPC   GL155189   9.637  24.533   5.706
 4339POPC   GL255190   9.827  24.818   5.822
 4339POPC   C1A55191   9.770  24.411   6.124
 4339POPC   D2A55192   9.957  24.340   6.533
 4339POPC   C3A55193   9.700  24.305   6.901
 4339POPC   C4A55194   9.916  24.284   7.260
 4339POPC   C1B55195   9.541  24.891   6.150
 4339POPC   C2B55196   9.775  24.919   6.544
 4339POPC   C3B55197   9.881  24.768   6.952
 4339POPC   C4B55198   9.600  24.693   7.299
 4340POPC   NC355199  35.057  15.836   5.427
 4340POPC   PO455200  35.599  16.240   5.373
 4340POPC   GL155201  35.299  16.173   5.725
 4340POPC   GL255202  35.380  15.834   5.820
 4340POPC   C1A55203  35.239  16.200   6.181
 4340POPC   D2A55204  35.405  16.360   6.600
 4340POPC   C3A55205  35.199  16.425   7.003
 4340POPC   C4A55206  35.298  16.191   7.373
 4340POPC   C1B55207  35.207  15.656   6.179
 4340POPC   C2B55208  35.327  15.702   6.592
 4340POPC   C3B55209  35.228  15.889   6.967
 4340POPC   C4B55210  34.971  15.638   7.218
 4341POPC   NC355211   8.994   0.745   5.382
 4341POPC   PO455212   8.849   0.077   5.405
 4341POPC   GL155213   9.110   0.301   5.751
 4341POPC   GL255214   9.082   0.660   5.870
 4341POPC   C1A55215   8.966   0.287   6.190
 4341POPC   D2A55216   8.832   0.498   6.573
 4341POPC   C3A55217   9.076   0.487   6.939
 4341POPC   C4A55218   8.841   0.372   7.253
 4341POPC   C1B55219   8.728   0.808   6.136
 4341POPC   C2B55220   8.580   0.969   6.539
 4341POPC   C3B55221   8.732   0.865   6.944
 4341POPC   C4B55222   8.971   0.872   7.330
 4342POPC   NC355223  14.148   2.267   5.565
 4342POPC   PO455224  13.745   1.823   5.253
 4342POPC   GL155225  13.786   1.926   5.691
 4342POPC   GL255226  13.499   2.130   5.766
 4342POPC   C1A55227  13.743   1.939   6.166
 4342POPC   D2A55228  13.489   1.719   6.500
 4342POPC   C3A55229  13.590   1.872   6.918
 4342POPC   C4A55230  13.662   2.023   7.312
 4342POPC   C1B55231  13.263   2.092   6.147
 4342POPC   C2B55232  13.359   2.206   6.594
 4342POPC   C3B55233  13.200   2.194   7.036
 4342POPC   C4B55234  13.172   2.039   7.440
 4343POPC   NC355235  38.054  40.982   5.598
 4343POPC   PO455236  38.619  40.598   5.409
 4343POPC   GL155237  38.486  40.766   5.807
 4343POPC   GL255238  38.664  41.043   5.881
 4343POPC   C1A55239  38.500  40.729   6.269
 4343POPC   D2A55240  38.306  40.749   6.671
 4343POPC   C3A55241  38.480  40.624   7.054
 4343POPC   C4A55242  38.381  40.632   7.506
 4343POPC   C1B55243  38.633  41.238   6.234
 4343POPC   C2B55244  38.671  41.107   6.630
 4343POPC   C3B55245  38.447  41.131   6.990
 4343POPC   C4B55246  38.564  41.082   7.406
 4344POPC   NC355247  15.393  35.683   5.359
 4344POPC   PO455248  15.123  36.340   5.316
 4344POPC   GL155249  15.077  35.982   5.644
 4344POPC   GL255250  15.153  36.218   5.897
 4344POPC   C1A55251  15.015  35.747   6.095
 4344POPC   D2A55252  14.989  35.812   6.586
 4344POPC   C3A55253  15.319  35.990   6.843
 4344POPC   C4A55254  15.334  36.130   7.259
 4344POPC   C1B55255  15.309  36.125   6.315
 4344POPC   C2B55256  15.151  36.411   6.619
 4344POPC   C3B55257  14.975  36.381   6.984
 4344POPC   C4B55258  14.959  36.586   7.367
 4345POPC   NC355259  24.005   5.330   5.498
 4345POPC   PO455260  23.382   4.986   5.502
 4345POPC   GL155261  23.528   4.942   5.913
 4345POPC   GL255262  23.882   5.002   5.886
 4345POPC   C1A55263  23.683   4.859   6.336
 4345POPC   D2A55264  23.874   5.114   6.643
 4345POPC   C3A55265  23.658   5.119   7.005
 4345POPC   C4A55266  23.351   4.835   7.152
 4345POPC   C1B55267  23.876   5.385   6.190
 4345POPC   C2B55268  23.980   5.622   6.587
 4345POPC   C3B55269  24.064   5.466   7.003
 4345POPC   C4B55270  23.955   5.277   7.404
 4346POPC   NC355271  23.943  11.928   5.333
 4346POPC   PO455272  23.316  12.194   5.251
 4346POPC   GL155273  23.515  12.013   5.670
 4346POPC   GL255274  23.306  11.749   5.827
 4346POPC   C1A55275  23.873  11.942   5.983
 4346POPC   D2A55276  23.988  11.909   6.422
 4346POPC   C3A55277  23.695  11.852   6.747
 4346POPC   C4A55278  23.883  11.974   7.148
 4346POPC   C1B55279  23.421  11.919   6.228
 4346POPC   C2B55280  23.372  12.228   6.547
 4346POPC   C3B55281  23.476  12.278   6.964
 4346POPC   C4B55282  23.391  12.020   7.312
 4347POPC   NC355283  32.064   9.074   5.386
 4347POPC   PO455284  32.628   9.026   5.654
 4347POPC   GL155285  32.255   9.059   5.875
 4347POPC   GL255286  31.920   9.220   5.861
 4347POPC   C1A55287  32.276   9.156   6.284
 4347POPC   D2A55288  32.400   8.900   6.625
 4347POPC   C3A55289  32.345   9.141   6.954
 4347POPC   C4A55290  32.552   9.228   7.316
 4347POPC   C1B55291  31.858   8.887   6.187
 4347POPC   C2B55292  31.875   8.933   6.628
 4347POPC   C3B55293  31.857   9.002   7.059
 4347POPC   C4B55294  32.110   8.942   7.389
 4348POPC   NC355295  12.632  27.254   5.350
 4348POPC   PO455296  12.984  26.653   5.267
 4348POPC   GL155297  12.750  26.828   5.699
 4348POPC   GL255298  12.973  27.070   5.936
 4348POPC   C1A55299  12.779  26.633   6.137
 4348POPC   D2A55300  13.001  26.541   6.542
 4348POPC   C3A55301  12.776  26.670   6.905
 4348POPC   C4A55302  12.944  26.773   7.259
 4348POPC   C1B55303  12.647  27.130   6.168
 4348POPC   C2B55304  12.543  26.967   6.549
 4348POPC   C3B55305  12.771  27.208   6.855
 4348POPC   C4B55306  12.946  27.265   7.250
 4349POPC   NC355307   3.095  12.156   5.461
 4349POPC   PO455308   2.567  11.693   5.541
 4349POPC   GL155309   2.638  12.101   5.783
 4349POPC   GL255310   2.961  12.218   5.946
 4349POPC   C1A55311   2.554  12.173   6.227
 4349POPC   D2A55312   2.852  12.094   6.555
 4349POPC   C3A55313   2.656  12.024   6.926
 4349POPC   C4A55314   2.777  12.296   7.181
 4349POPC   C1B55315   2.904  11.764   6.165
 4349POPC   C2B55316   3.116  11.604   6.575
 4349POPC   C3B55317   3.070  11.716   7.022
 4349POPC   C4B55318   3.103  11.968   7.399
 4350POPC   NC355319  15.490  41.916   5.363
 4350POPC   PO455320  14.853  41.685   5.365
 4350POPC   GL155321  15.128  41.658   5.717
 4350POPC   GL255322  15.425  41.490   5.657
 4350POPC   C1A55323  15.073  41.550   6.158
 4350POPC   D2A55324  14.755  41.480   6.467
 4350POPC   C3A55325  14.968  41.332   6.821
 4350POPC   C4A55326  15.020  41.364   7.249
 4350POPC   C1B55327  15.540  41.374   6.058
 4350POPC   C2B55328  15.529  41.508   6.485
 4350POPC   C3B55329  15.467  41.458   6.957
 4350POPC   C4B55330  15.511  41.276   7.379
 4351POPC   NC355331  33.338  37.189   5.472
 4351POPC   PO455332  32.971  36.617   5.363
 4351POPC   GL155333  32.779  36.803   5.738
 4351POPC   GL255334  33.106  36.906   5.878
 4351POPC   C1A55335  32.656  36.903   6.190
 4351POPC   D2A55336  32.451  36.840   6.625
 4351POPC   C3A55337  32.707  37.041   6.912
 4351POPC   C4A55338  32.973  36.902   7.187
 4351POPC   C1B55339  33.181  36.678   6.267
 4351POPC   C2B55340  33.216  36.749   6.721
 4351POPC   C3B55341  33.339  36.585   7.126
 4351POPC   C4B55342  33.259  36.724   7.583
 4352POPC   NC355343  21.631  19.319   5.323
 4352POPC   PO455344  21.736  18.595   5.264
 4352POPC   GL155345  21.607  18.797   5.676
 4352POPC   GL255346  21.354  19.100   5.705
 4352POPC   C1A55347  21.593  18.929   6.135
 4352POPC   D2A55348  21.310  18.952   6.507
 4352POPC   C3A55349  21.487  19.009   6.924
 4352POPC   C4A55350  21.156  18.876   7.166
 4352POPC   C1B55351  21.488  19.412   6.070
 4352POPC   C2B55352  21.651  19.319   6.522
 4352POPC   C3B55353  21.643  19.510   6.969
 4352POPC   C4B55354  21.525  19.444   7.412
 4353POPC   NC355355  17.950  28.247   5.515
 4353POPC   PO455356  18.444  28.682   5.440
 4353POPC   GL155357  18.298  28.458   5.837
 4353POPC   GL255358  18.264  28.102   5.919
 4353POPC   C1A55359  18.296  28.537   6.278
 4353POPC   D2A55360  18.193  28.716   6.679
 4353POPC   C3A55361  18.328  28.568   7.042
 4353POPC   C4A55362  18.516  28.520   7.455
 4353POPC   C1B55363  18.051  28.097   6.336
 4353POPC   C2B55364  18.236  28.160   6.752
 4353POPC   C3B55365  18.287  28.079   7.217
 4353POPC   C4B55366  18.107  27.986   7.602
 4354POPC   NC355367  23.398  21.040   5.509
 4354POPC   PO455368  22.681  20.809   5.476
 4354POPC   GL155369  22.988  20.907   5.782
 4354POPC   GL255370  22.802  20.689   5.986
 4354POPC   C1A55371  23.134  20.975   6.223
 4354POPC   D2A55372  22.855  20.797   6.536
 4354POPC   C3A55373  23.020  20.733   6.941
 4354POPC   C4A55374  23.268  20.710   7.302
 4354POPC   C1B55375  23.148  20.475   6.203
 4354POPC   C2B55376  23.135  20.274   6.602
 4354POPC   C3B55377  23.185  20.248   7.031
 4354POPC   C4B55378  23.101  20.260   7.469
 4355POPC   NC355379   3.949   6.838   5.357
 4355POPC   PO455380   4.419   6.348   5.428
 4355POPC   GL155381   4.200   6.476   5.787
 4355POPC   GL255382   4.171   6.796   5.803
 4355POPC   C1A55383   4.284   6.435   6.240
 4355POPC   D2A55384   4.188   6.203   6.641
 4355POPC   C3A55385   4.266   6.489   7.021
 4355POPC   C4A55386   4.172   6.737   7.419
 4355POPC   C1B55387   3.895   6.767   6.155
 4355POPC   C2B55388   4.013   6.710   6.599
 4355POPC   C3B55389   4.105   6.968   6.958
 4355POPC   C4B55390   3.962   7.205   7.285
 4356POPC   NC355391  14.996   0.527   5.463
 4356POPC   PO455392  15.440   0.072   5.515
 4356POPC   GL155393  15.208   0.262   5.865
 4356POPC   GL255394  14.880   0.128   5.837
 4356POPC   C1A55395  15.351   0.383   6.304
 4356POPC   D2A55396  15.432   0.108   6.686
 4356POPC   C3A55397  15.380   0.304   7.087
 4356POPC   C4A55398  15.631   0.650   7.257
 4356POPC   C1B55399  14.820   0.415   6.195
 4356POPC   C2B55400  14.955   0.700   6.521
 4356POPC   C3B55401  14.997   0.620   6.938
 4356POPC   C4B55402  14.855   0.316   7.211
 4357POPC   NC355403   5.823   2.146   5.165
 4357POPC   PO455404   5.734   1.503   5.238
 4357POPC   GL155405   5.786   1.884   5.626
 4357POPC   GL255406   5.829   2.265   5.683
 4357POPC   C1A55407   5.970   1.944   6.078
 4357POPC   D2A55408   5.722   1.939   6.485
 4357POPC   C3A55409   5.910   1.971   6.897
 4357POPC   C4A55410   6.033   1.807   7.305
 4357POPC   C1B55411   5.710   2.373   6.153
 4357POPC   C2B55412   5.585   2.419   6.598
 4357POPC   C3B55413   5.548   2.461   7.026
 4357POPC   C4B55414   5.814   2.263   7.339
 4358POPC   NC355415  30.190  10.657   5.607
 4358POPC   PO455416  29.618  10.336   5.526
 4358POPC   GL155417  29.735  10.609   5.869
 4358POPC   GL255418  29.750  10.995   5.753
 4358POPC   C1A55419  29.922  10.472   6.303
 4358POPC   D2A55420  30.159  10.281   6.682
 4358POPC   C3A55421  29.996  10.301   7.128
 4358POPC   C4A55422  29.694  10.618   7.400
 4358POPC   C1B55423  29.929  10.973   6.176
 4358POPC   C2B55424  29.707  10.849   6.559
 4358POPC   C3B55425  29.860  10.731   6.910
 4358POPC   C4B55426  30.010  10.944   7.240
 4359POPC   NC355427  19.345   3.273   5.396
 4359POPC   PO455428  18.730   3.426   5.607
 4359POPC   GL155429  19.014   3.404   5.912
 4359POPC   GL255430  19.258   3.612   5.836
 4359POPC   C1A55431  19.333   3.224   6.203
 4359POPC   D2A55432  19.511   3.331   6.603
 4359POPC   C3A55433  19.213   3.392   6.927
 4359POPC   C4A55434  19.203   3.542   7.354
 4359POPC   C1B55435  19.182   3.736   6.261
 4359POPC   C2B55436  18.871   3.897   6.507
 4359POPC   C3B55437  18.925   3.831   6.947
 4359POPC   C4B55438  18.910   3.952   7.372
 4360POPC   NC355439  35.602  37.964   5.129
 4360POPC   PO455440  35.456  37.277   5.258
 4360POPC   GL155441  35.476  37.547   5.673
 4360POPC   GL255442  35.239  37.803   5.827
 4360POPC   C1A55443  35.614  37.644   6.126
 4360POPC   D2A55444  35.719  37.745   6.544
 4360POPC   C3A55445  35.605  37.575   6.954
 4360POPC   C4A55446  35.588  37.913   7.218
 4360POPC   C1B55447  35.109  37.720   6.246
 4360POPC   C2B55448  35.173  37.641   6.685
 4360POPC   C3B55449  35.135  37.708   7.133
 4360POPC   C4B55450  35.099  37.573   7.549
 4361POPC   NC355451  25.027   3.613   5.266
 4361POPC   PO455452  25.648   3.640   5.341
 4361POPC   GL155453  25.387   3.570   5.713
 4361POPC   GL255454  25.073   3.756   5.756
 4361POPC   C1A55455  25.414   3.619   6.175
 4361POPC   D2A55456  25.558   3.403   6.544
 4361POPC   C3A55457  25.352   3.449   6.920
 4361POPC   C4A55458  25.495   3.512   7.331
 4361POPC   C1B55459  24.950   3.440   6.047
 4361POPC   C2B55460  25.016   3.456   6.478
 4361POPC   C3B55461  24.846   3.439   6.875
 4361POPC   C4B55462  24.938   3.302   7.290
 4362POPC   NC355463   8.141   4.413   5.070
 4362POPC   PO455464   8.420   4.030   5.570
 4362POPC   GL155465   8.384   4.319   5.920
 4362POPC   GL255466   8.166   4.620   5.866
 4362POPC   C1A55467   8.153   4.343   6.323
 4362POPC   D2A55468   8.032   4.287   6.763
 4362POPC   C3A55469   8.297   4.322   7.061
 4362POPC   C4A55470   8.478   4.163   7.408
 4362POPC   C1B55471   7.867   4.748   6.157
 4362POPC   C2B55472   7.681   4.743   6.527
 4362POPC   C3B55473   7.854   4.738   6.932
 4362POPC   C4B55474   7.816   4.434   7.234
 4363POPC   NC355475  13.835  11.947   5.094
 4363POPC   PO455476  13.436  11.342   5.281
 4363POPC   GL155477  13.455  11.180   5.711
 4363POPC   GL255478  13.481  11.476   5.947
 4363POPC   C1A55479  13.588  11.025   6.140
 4363POPC   D2A55480  13.383  11.097   6.549
 4363POPC   C3A55481  13.626  11.096   6.922
 4363POPC   C4A55482  13.507  11.320   7.267
 4363POPC   C1B55483  13.848  11.482   6.220
 4363POPC   C2B55484  13.933  11.388   6.647
 4363POPC   C3B55485  14.076  11.564   7.052
 4363POPC   C4B55486  13.920  11.477   7.506
 4364POPC   NC355487  27.310  20.172   5.111
 4364POPC   PO455488  27.827  20.405   5.509
 4364POPC   GL155489  27.497  20.389   5.816
 4364POPC   GL255490  27.587  20.072   5.885
 4364POPC   C1A55491  27.355  20.495   6.232
 4364POPC   D2A55492  27.713  20.567   6.531
 4364POPC   C3A55493  27.649  20.569   6.960
 4364POPC   C4A55494  27.304  20.816   7.138
 4364POPC   C1B55495  27.679  20.109   6.272
 4364POPC   C2B55496  27.350  20.078   6.547
 4364POPC   C3B55497  27.193  20.351   6.860
 4364POPC   C4B55498  27.304  20.327   7.288
 4365POPC   NC355499  35.824   5.647   5.527
 4365POPC   PO455500  35.601   6.294   5.235
 4365POPC   GL155501  35.568   6.089   5.693
 4365POPC   GL255502  35.326   5.809   5.740
 4365POPC   C1A55503  35.497   6.020   6.175
 4365POPC   D2A55504  35.269   6.245   6.519
 4365POPC   C3A55505  35.281   6.027   6.914
 4365POPC   C4A55506  35.623   5.823   7.136
 4365POPC   C1B55507  35.016   5.806   6.103
 4365POPC   C2B55508  34.914   5.838   6.525
 4365POPC   C3B55509  34.999   5.605   6.874
 4365POPC   C4B55510  35.132   5.688   7.268
 4366POPC   NC355511  12.249  33.517   5.656
 4366POPC   PO455512  12.635  33.926   5.197
 4366POPC   GL155513  12.395  34.012   5.618
 4366POPC   GL255514  12.037  33.996   5.725
 4366POPC   C1A55515  12.380  34.139   6.081
 4366POPC   D2A55516  12.473  34.193   6.527
 4366POPC   C3A55517  12.286  33.881   6.818
 4366POPC   C4A55518  12.111  33.763   7.215
 4366POPC   C1B55519  11.997  33.804   6.169
 4366POPC   C2B55520  11.664  33.712   6.447
 4366POPC   C3B55521  11.732  33.715   6.868
 4366POPC   C4B55522  11.688  33.484   7.248
 4367POPC   NC355523  30.428  36.283   5.356
 4367POPC   PO455524  29.711  35.943   5.450
 4367POPC   GL155525  29.801  36.106   5.868
 4367POPC   GL255526  30.096  36.305   5.788
 4367POPC   C1A55527  30.018  35.951   6.263
 4367POPC   D2A55528  30.111  36.081   6.709
 4367POPC   C3A55529  29.792  35.925   7.051
 4367POPC   C4A55530  29.737  36.084   7.504
 4367POPC   C1B55531  30.335  36.390   6.171
 4367POPC   C2B55532  30.473  36.635   6.543
 4367POPC   C3B55533  30.350  36.566   6.985
 4367POPC   C4B55534  30.123  36.265   7.214
 4368POPC   NC355535  32.905   8.673   5.565
 4368POPC   PO455536  33.235   9.326   5.520
 4368POPC   GL155537  33.136   9.039   5.837
 4368POPC   GL255538  33.370   8.774   5.774
 4368POPC   C1A55539  32.899   8.890   6.223
 4368POPC   D2A55540  33.011   8.996   6.621
 4368POPC   C3A55541  32.804   8.892   6.963
 4368POPC   C4A55542  33.041   9.008   7.307
 4368POPC   C1B55543  33.278   8.538   6.101
 4368POPC   C2B55544  33.279   8.544   6.517
 4368POPC   C3B55545  33.229   8.602   6.937
 4368POPC   C4B55546  33.362   8.556   7.338
 4369POPC   NC355547  33.463  13.074   5.514
 4369POPC   PO455548  33.775  12.472   5.441
 4369POPC   GL155549  33.877  12.830   5.737
 4369POPC   GL255550  33.586  12.751   5.918
 4369POPC   C1A55551  33.986  12.973   6.175
 4369POPC   D2A55552  33.827  12.818   6.597
 4369POPC   C3A55553  33.987  12.948   7.006
 4369POPC   C4A55554  33.712  13.151   7.314
 4369POPC   C1B55555  33.350  12.708   6.303
 4369POPC   C2B55556  33.326  12.522   6.708
 4369POPC   C3B55557  33.493  12.745   7.052
 4369POPC   C4B55558  33.627  12.682   7.473
 4370POPC   NC355559  36.611  34.390   5.544
 4370POPC   PO455560  35.976  34.765   5.563
 4370POPC   GL155561  36.265  34.587   5.886
 4370POPC   GL255562  36.544  34.786   5.876
 4370POPC   C1A55563  36.321  34.535   6.359
 4370POPC   D2A55564  36.064  34.719   6.707
 4370POPC   C3A55565  35.756  34.480   6.975
 4370POPC   C4A55566  35.873  34.155   7.283
 4370POPC   C1B55567  36.446  35.026   6.250
 4370POPC   C2B55568  36.582  34.932   6.656
 4370POPC   C3B55569  36.552  34.527   6.861
 4370POPC   C4B55570  36.215  34.541   7.182
 4371POPC   NC355571  40.699  35.430   5.298
 4371POPC   PO455572  40.911  34.835   5.385
 4371POPC   GL155573  40.621  35.009   5.691
 4371POPC   GL255574  40.751  35.335   5.789
 4371POPC   C1A55575  40.687  35.012   6.176
 4371POPC   D2A55576  40.878  35.203   6.541
 4371POPC   C3A55577  40.746  35.129   6.976
 4371POPC   C4A55578  40.963  35.370   7.304
 4371POPC   C1B55579  40.934  35.555   6.121
 4371POPC   C2B55580  40.843  35.730   6.512
 4371POPC   C3B55581  40.687  35.647   6.928
 4371POPC   C4B55582  40.697  35.807   7.343
 4372POPC   NC355583  19.658  24.983   5.429
 4372POPC   PO455584  19.861  25.660   5.484
 4372POPC   GL155585  19.652  25.462   5.808
 4372POPC   GL255586  19.544  25.105   5.890
 4372POPC   C1A55587  19.771  25.600   6.196
 4372POPC   D2A55588  19.738  25.401   6.581
 4372POPC   C3A55589  19.888  25.619   6.929
 4372POPC   C4A55590  19.814  25.547   7.337
 4372POPC   C1B55591  19.919  25.109   6.115
 4372POPC   C2B55592  19.985  24.934   6.523
 4372POPC   C3B55593  19.793  24.995   6.931
 4372POPC   C4B55594  19.972  25.065   7.316
 4373POPC   NC355595  10.938   7.483   5.448
 4373POPC   PO455596  11.625   7.600   5.540
 4373POPC   GL155597  11.390   7.446   5.849
 4373POPC   GL255598  11.220   7.746   5.904
 4373POPC   C1A55599  11.160   7.366   6.237
 4373POPC   D2A55600  11.199   7.593   6.633
 4373POPC   C3A55601  11.033   7.341   6.946
 4373POPC   C4A55602  11.224   7.287   7.334
 4373POPC   C1B55603  11.594   7.693   6.240
 4373POPC   C2B55604  11.838   7.651   6.632
 4373POPC   C3B55605  11.599   7.582   7.018
 4373POPC   C4B55606  11.218   7.780   7.159
 4374POPC   NC355607   7.739  12.308   5.372
 4374POPC   PO455608   8.280  11.942   5.448
 4374POPC   GL155609   8.230  12.122   5.841
 4374POPC   GL255610   7.888  12.014   5.952
 4374POPC   C1A55611   8.338  11.993   6.260
 4374POPC   D2A55612   8.052  11.870   6.552
 4374POPC   C3A55613   7.948  12.047   6.938
 4374POPC   C4A55614   8.204  12.080   7.280
 4374POPC   C1B55615   7.991  12.365   6.245
 4374POPC   C2B55616   8.036  12.519   6.666
 4374POPC   C3B55617   7.825  12.537   7.049
 4374POPC   C4B55618   7.747  12.253   7.376
 4375POPC   NC355619  40.341  44.867   5.435
 4375POPC   PO455620  40.138  44.268   5.157
 4375POPC   GL155621  40.130  44.436   5.599
 4375POPC   GL255622  40.511  44.426   5.679
 4375POPC   C1A55623  39.895  44.700   5.953
 4375POPC   D2A55624  39.961  44.830   6.414
 4375POPC   C3A55625  39.773  44.721   6.834
 4375POPC   C4A55626  40.049  44.852   7.202
 4375POPC   C1B55627  40.309  44.444   6.095
 4375POPC   C2B55628  40.364  44.524   6.521
 4375POPC   C3B55629  40.222  44.476   6.927
 4375POPC   C4B55630  39.922  44.266   7.198
 4376POPC   NC355631  16.000  23.276   5.359
 4376POPC   PO455632  16.259  22.662   5.424
 4376POPC   GL155633  15.952  22.881   5.680
 4376POPC   GL255634  15.955  22.628   5.897
 4376POPC   C1A55635  15.916  23.069   6.118
 4376POPC   D2A55636  15.943  22.814   6.496
 4376POPC   C3A55637  15.758  22.962   6.850
 4376POPC   C4A55638  15.901  23.133   7.218
 4376POPC   C1B55639  16.313  22.678   6.179
 4376POPC   C2B55640  16.413  22.607   6.595
 4376POPC   C3B55641  16.233  22.605   6.988
 4376POPC   C4B55642  16.283  22.555   7.447
 4377POPC   NC355643   3.918  28.048   5.558
 4377POPC   PO455644   4.278  28.552   5.495
 4377POPC   GL155645   4.391  28.399   5.883
 4377POPC   GL255646   4.126  28.225   6.016
 4377POPC   C1A55647   4.441  28.544   6.293
 4377POPC   D2A55648   4.287  28.426   6.683
 4377POPC   C3A55649   4.579  28.547   7.030
 4377POPC   C4A55650   4.788  28.679   7.414
 4377POPC   C1B55651   4.500  27.988   6.218
 4377POPC   C2B55652   4.661  27.810   6.624
 4377POPC   C3B55653   4.472  28.035   6.978
 4377POPC   C4B55654   4.104  28.325   7.141
 4378POPC   NC355655  29.925   1.045   5.404
 4378POPC   PO455656  29.889   1.637   5.377
 4378POPC   GL155657  29.804   1.393   5.797
 4378POPC   GL255658  30.057   1.177   5.893
 4378POPC   C1A55659  29.663   1.222   6.238
 4378POPC   D2A55660  29.791   0.953   6.633
 4378POPC   C3A55661  29.955   1.147   7.003
 4378POPC   C4A55662  30.033   1.272   7.435
 4378POPC   C1B55663  30.176   1.171   6.330
 4378POPC   C2B55664  30.381   1.265   6.711
 4378POPC   C3B55665  30.471   1.201   7.114
 4378POPC   C4B55666  30.316   0.822   7.214
 4379POPC   NC355667   0.160   5.997   5.499
 4379POPC   PO455668   0.663   5.619   5.343
 4379POPC   GL155669   0.559   5.556   5.772
 4379POPC   GL255670   0.207   5.581   5.778
 4379POPC   C1A55671   0.707   5.778   6.147
 4379POPC   D2A55672   0.800   6.156   6.448
 4379POPC   C3A55673   0.651   6.113   6.895
 4379POPC   C4A55674   0.592   5.734   7.160
 4379POPC   C1B55675   0.214   5.860   6.146
 4379POPC   C2B55676   0.160   5.827   6.590
 4379POPC   C3B55677   0.136   6.012   6.982
 4379POPC   C4B55678   0.309   6.110   7.363
 4380POPC   NC355679  19.453   5.432   5.519
 4380POPC   PO455680  19.765   4.752   5.471
 4380POPC   GL155681  19.910   4.997   5.866
 4380POPC   GL255682  19.863   5.363   5.877
 4380POPC   C1A55683  20.085   5.013   6.278
 4380POPC   D2A55684  20.080   4.793   6.672
 4380POPC   C3A55685  20.064   5.033   7.052
 4380POPC   C4A55686  19.893   5.018   7.472
 4380POPC   C1B55687  19.616   5.224   6.247
 4380POPC   C2B55688  19.600   5.022   6.665
 4380POPC   C3B55689  19.540   5.207   7.089
 4380POPC   C4B55690  19.508   5.340   7.538
 4381POPC   NC355691  31.336  38.584   4.980
 4381POPC   PO455692  31.598  38.447   5.544
 4381POPC   GL155693  31.457  38.475   5.946
 4381POPC   GL255694  31.275  38.162   5.969
 4381POPC   C1A55695  31.453  38.811   6.265
 4381POPC   D2A55696  31.767  38.889   6.578
 4381POPC   C3A55697  31.770  38.578   6.914
 4381POPC   C4A55698  31.540  38.770   7.232
 4381POPC   C1B55699  31.166  38.379   6.380
 4381POPC   C2B55700  31.079  38.439   6.840
 4381POPC   C3B55701  31.350  38.304   7.177
 4381POPC   C4B55702  31.688  38.014   7.112
 4382POPC   NC355703  37.172   4.941   5.391
 4382POPC   PO455704  36.658   5.331   5.195
 4382POPC   GL155705  36.797   5.220   5.634
 4382POPC   GL255706  37.123   5.342   5.739
 4382POPC   C1A55707  36.754   5.048   6.075
 4382POPC   D2A55708  36.925   4.970   6.504
 4382POPC   C3A55709  36.696   5.105   6.858
 4382POPC   C4A55710  36.762   4.938   7.255
 4382POPC   C1B55711  37.247   5.187   6.144
 4382POPC   C2B55712  37.304   5.323   6.552
 4382POPC   C3B55713  37.209   5.166   6.960
 4382POPC   C4B55714  37.348   5.359   7.320
 4383POPC   NC355715  29.144   1.595   5.108
 4383POPC   PO455716  29.454   1.183   5.489
 4383POPC   GL155717  29.277   1.335   5.884
 4383POPC   GL255718  28.959   1.210   5.893
 4383POPC   C1A55719  29.134   1.408   6.334
 4383POPC   D2A55720  29.314   1.106   6.615
 4383POPC   C3A55721  29.411   1.127   7.047
 4383POPC   C4A55722  29.619   1.490   7.213
 4383POPC   C1B55723  28.967   0.924   6.262
 4383POPC   C2B55724  28.822   1.083   6.648
 4383POPC   C3B55725  28.833   1.207   7.062
 4383POPC   C4B55726  29.066   1.081   7.445
 4384POPC   NC355727  11.528  42.278   5.558
 4384POPC   PO455728  10.883  42.419   5.400
 4384POPC   GL155729  11.081  42.337   5.807
 4384POPC   GL255730  11.209  42.676   5.700
 4384POPC   C1A55731  11.342  42.259   6.215
 4384POPC   D2A55732  11.270  42.196   6.670
 4384POPC   C3A55733  11.336  42.246   7.114
 4384POPC   C4A55734  11.217  41.882   7.408
 4384POPC   C1B55735  11.202  42.734   6.120
 4384POPC   C2B55736  11.213  42.683   6.540
 4384POPC   C3B55737  10.965  42.605   6.919
 4384POPC   C4B55738  11.089  42.634   7.343
 4385POPC   NC355739  33.409  33.834   5.602
 4385POPC   PO455740  32.701  34.034   5.444
 4385POPC   GL155741  32.937  33.977   5.800
 4385POPC   GL255742  33.024  33.672   5.874
 4385POPC   C1A55743  32.832  34.032   6.236
 4385POPC   D2A55744  32.713  34.129   6.655
 4385POPC   C3A55745  32.776  33.793   6.938
 4385POPC   C4A55746  32.756  33.892   7.362
 4385POPC   C1B55747  33.305  33.813   6.258
 4385POPC   C2B55748  33.303  33.793   6.716
 4385POPC   C3B55749  33.503  33.935   7.092
 4385POPC   C4B55750  33.251  33.770   7.407
 4386POPC   NC355751  34.788  19.051   5.450
 4386POPC   PO455752  34.132  19.391   5.464
 4386POPC   GL155753  34.405  19.155   5.760
 4386POPC   GL255754  34.389  18.814   5.831
 4386POPC   C1A55755  34.651  19.163   6.135
 4386POPC   D2A55756  34.571  19.084   6.580
 4386POPC   C3A55757  34.857  19.189   6.928
 4386POPC   C4A55758  34.599  19.372   7.246
 4386POPC   C1B55759  34.494  18.671   6.231
 4386POPC   C2B55760  34.794  18.625   6.549
 4386POPC   C3B55761  34.678  18.697   6.948
 4386POPC   C4B55762  34.716  18.872   7.364
 4387POPC   NC355763  41.812  11.261   5.301
 4387POPC   PO455764  41.268  11.619   5.282
 4387POPC   GL155765  41.351  11.545   5.768
 4387POPC   GL255766  41.693  11.404   5.771
 4387POPC   C1A55767  41.510  11.451   6.245
 4387POPC   D2A55768  41.622  11.427   6.721
 4387POPC   C3A55769  41.357  11.342   7.083
 4387POPC   C4A55770  41.387  11.466   7.525
 4387POPC   C1B55771  41.816  11.087   6.070
 4387POPC   C2B55772  41.580  10.978   6.449
 4387POPC   C3B55773  41.642  10.931   6.887
 4387POPC   C4B55774  41.844  11.089   7.266
 4388POPC   NC355775   5.779  44.128   5.304
 4388POPC   PO455776   5.464  43.598   5.345
 4388POPC   GL155777   5.691  43.623   5.781
 4388POPC   GL255778   6.080  43.656   5.749
 4388POPC   C1A55779   5.675  43.874   6.209
 4388POPC   D2A55780   5.534  44.040   6.624
 4388POPC   C3A55781   5.678  43.941   7.051
 4388POPC   C4A55782   5.653  43.736   7.482
 4388POPC   C1B55783   6.194  43.903   6.113
 4388POPC   C2B55784   6.065  44.099   6.506
 4388POPC   C3B55785   6.188  44.008   6.939
 4388POPC   C4B55786   6.094  43.962   7.384
 4389POPC   NC355787  44.200  27.835   5.338
 4389POPC   PO455788  43.692  27.439   5.193
 4389POPC   GL155789  43.960  27.395   5.583
 4389POPC   GL255790  43.654  27.348   5.784
 4389POPC   C1A55791  44.062  27.547   6.038
 4389POPC   D2A55792  43.959  27.455   6.496
 4389POPC   C3A55793  44.113  27.598   6.931
 4389POPC   C4A55794  43.969  27.584   7.353
 4389POPC   C1B55795  43.545  27.645   6.114
 4389POPC   C2B55796  43.626  27.828   6.515
 4389POPC   C3B55797  43.618  27.632   6.925
 4389POPC   C4B55798  43.558  27.909   7.234
 4390POPC   NC355799  21.924   8.594   5.402
 4390POPC   PO455800  22.153   7.951   5.234
 4390POPC   GL155801  22.045   8.089   5.659
 4390POPC   GL255802  22.413   8.084   5.745
 4390POPC   C1A55803  21.878   8.162   6.107
 4390POPC   D2A55804  21.821   8.098   6.576
 4390POPC   C3A55805  21.930   8.408   6.919
 4390POPC   C4A55806  22.053   8.309   7.369
 4390POPC   C1B55807  22.278   7.824   6.090
 4390POPC   C2B55808  22.298   7.814   6.521
 4390POPC   C3B55809  22.200   7.966   6.919
 4390POPC   C4B55810  22.489   8.114   7.223
 4391POPC   NC355811  16.726   2.322   5.423
 4391POPC   PO455812  16.932   1.686   5.428
 4391POPC   GL155813  16.646   1.883   5.704
 4391POPC   GL255814  16.908   2.020   5.837
 4391POPC   C1A55815  16.529   2.099   6.132
 4391POPC   D2A55816  16.784   2.062   6.513
 4391POPC   C3A55817  16.648   2.011   6.944
 4391POPC   C4A55818  16.656   2.150   7.375
 4391POPC   C1B55819  17.147   2.185   6.146
 4391POPC   C2B55820  17.287   2.263   6.559
 4391POPC   C3B55821  17.127   2.184   6.936
 4391POPC   C4B55822  17.121   1.927   7.284
 4392POPC   NC355823   3.200  40.647   5.339
 4392POPC   PO455824   2.840  41.166   5.215
 4392POPC   GL155825   2.828  41.056   5.666
 4392POPC   GL255826   2.873  40.704   5.725
 4392POPC   C1A55827   2.738  41.058   6.136
 4392POPC   D2A55828   2.483  40.884   6.503
 4392POPC   C3A55829   2.628  40.709   6.880
 4392POPC   C4A55830   2.577  40.872   7.267
 4392POPC   C1B55831   2.985  40.600   6.158
 4392POPC   C2B55832   2.991  40.499   6.604
 4392POPC   C3B55833   3.132  40.715   7.009
 4392POPC   C4B55834   3.124  40.526   7.443
 4393POPC   NC355835  16.132  37.418   5.357
 4393POPC   PO455836  15.973  36.686   5.247
 4393POPC   GL155837  15.775  36.867   5.637
 4393POPC   GL255838  15.993  37.111   5.767
 4393POPC   C1A55839  15.788  36.809   6.119
 4393POPC   D2A55840  16.027  36.915   6.498
 4393POPC   C3A55841  15.877  36.834   6.916
 4393POPC   C4A55842  16.006  36.893   7.354
 4393POPC   C1B55843  15.890  37.317   6.189
 4393POPC   C2B55844  15.743  37.332   6.623
 4393POPC   C3B55845  15.892  37.310   7.049
 4393POPC   C4B55846  15.544  37.109   7.245
 4394POPC   NC355847  19.434  32.400   5.461
 4394POPC   PO455848  18.782  32.489   5.569
 4394POPC   GL155849  18.922  32.131   5.821
 4394POPC   GL255850  19.289  32.070   5.803
 4394POPC   C1A55851  18.938  32.092   6.271
 4394POPC   D2A55852  18.963  32.321   6.657
 4394POPC   C3A55853  18.822  32.104   6.978
 4394POPC   C4A55854  18.965  31.996   7.312
 4394POPC   C1B55855  19.515  32.321   6.111
 4394POPC   C2B55856  19.412  32.155   6.481
 4394POPC   C3B55857  19.389  32.118   6.910
 4394POPC   C4B55858  19.423  32.242   7.313
 4395POPC   NC355859   9.043  10.987   5.462
 4395POPC   PO455860   8.651  11.509   5.387
 4395POPC   GL155861   8.802  11.345   5.780
 4395POPC   GL255862   9.165  11.265   5.897
 4395POPC   C1A55863   8.760  11.072   6.130
 4395POPC   D2A55864   8.934  11.282   6.473
 4395POPC   C3A55865   8.733  11.230   6.850
 4395POPC   C4A55866   8.863  11.396   7.233
 4395POPC   C1B55867   9.289  10.964   6.242
 4395POPC   C2B55868   9.342  11.022   6.700
 4395POPC   C3B55869   9.207  11.008   7.145
 4395POPC   C4B55870   9.268  10.686   7.486
 4396POPC   NC355871   6.281  33.028   5.149
 4396POPC   PO455872   6.672  33.330   5.527
 4396POPC   GL155873   6.736  33.301   5.924
 4396POPC   GL255874   7.066  33.438   5.942
 4396POPC   C1A55875   6.688  32.982   6.203
 4396POPC   D2A55876   6.429  32.858   6.514
 4396POPC   C3A55877   6.556  32.976   6.879
 4396POPC   C4A55878   6.467  32.848   7.289
 4396POPC   C1B55879   7.085  33.270   6.343
 4396POPC   C2B55880   6.984  33.224   6.759
 4396POPC   C3B55881   6.948  33.147   7.193
 4396POPC   C4B55882   7.016  32.825   7.486
 4397POPC   NC355883  34.811  20.827   5.357
 4397POPC   PO455884  34.568  20.246   5.487
 4397POPC   GL155885  34.512  20.649   5.747
 4397POPC   GL255886  34.811  20.803   5.865
 4397POPC   C1A55887  34.316  20.816   6.106
 4397POPC   D2A55888  34.443  20.578   6.466
 4397POPC   C3A55889  34.606  20.759   6.858
 4397POPC   C4A55890  34.389  20.800   7.232
 4397POPC   C1B55891  34.840  20.424   6.121
 4397POPC   C2B55892  34.821  20.193   6.543
 4397POPC   C3B55893  34.746  20.289   6.975
 4397POPC   C4B55894  34.855  20.596   7.285
 4398POPC   NC355895  43.625  30.104   5.420
 4398POPC   PO455896  44.248  29.901   5.344
 4398POPC   GL155897  44.023  29.910   5.740
 4398POPC   GL255898  43.769  29.697   5.707
 4398POPC   C1A55899  44.110  30.067   6.182
 4398POPC   D2A55900  43.808  30.081   6.456
 4398POPC   C3A55901  43.856  30.032   6.834
 4398POPC   C4A55902  43.706  30.020   7.198
 4398POPC   C1B55903  43.805  29.650   6.149
 4398POPC   C2B55904  43.863  29.573   6.597
 4398POPC   C3B55905  43.684  29.546   7.016
 4398POPC   C4B55906  43.869  29.587   7.439
 4399POPC   NC355907   7.578  13.232   5.506
 4399POPC   PO455908   7.379  12.778   5.049
 4399POPC   GL155909   7.259  12.846   5.634
 4399POPC   GL255910   7.226  13.167   5.842
 4399POPC   C1A55911   7.353  12.815   6.163
 4399POPC   D2A55912   7.558  12.748   6.627
 4399POPC   C3A55913   7.412  12.848   7.057
 4399POPC   C4A55914   6.971  12.686   7.217
 4399POPC   C1B55915   7.590  13.252   6.147
 4399POPC   C2B55916   7.463  13.263   6.567
 4399POPC   C3B55917   7.655  13.355   6.935
 4399POPC   C4B55918   7.570  13.271   7.315
 4400POPC   NC355919  15.804  20.588   5.382
 4400POPC   PO455920  16.371  20.862   5.595
 4400POPC   GL155921  16.090  20.630   5.806
 4400POPC   GL255922  15.816  20.855   5.826
 4400POPC   C1A55923  16.033  20.583   6.227
 4400POPC   D2A55924  16.290  20.719   6.559
 4400POPC   C3A55925  16.107  20.492   6.878
 4400POPC   C4A55926  15.998  20.472   7.286
 4400POPC   C1B55927  15.647  20.947   6.228
 4400POPC   C2B55928  15.797  20.886   6.643
 4400POPC   C3B55929  15.665  20.783   7.052
 4400POPC   C4B55930  15.829  20.956   7.425
 4401POPC   NC355931  13.795   1.350   5.379
 4401POPC   PO455932  13.192   1.622   5.570
 4401POPC   GL155933  13.531   1.480   5.805
 4401POPC   GL255934  13.603   1.098   5.792
 4401POPC   C1A55935  13.728   1.396   6.181
 4401POPC   D2A55936  13.702   1.158   6.545
 4401POPC   C3A55937  13.931   1.280   6.925
 4401POPC   C4A55938  13.782   1.513   7.287
 4401POPC   C1B55939  13.371   0.777   6.032
 4401POPC   C2B55940  13.412   0.670   6.476
 4401POPC   C3B55941  13.403   0.885   6.867
 4401POPC   C4B55942  13.439   1.054   7.290
 4402POPC   NC355943  23.004   1.479   5.250
 4402POPC   PO455944  22.757   0.822   5.391
 4402POPC   GL155945  22.899   0.903   5.767
 4402POPC   GL255946  22.658   1.189   5.850
 4402POPC   C1A55947  22.900   0.883   6.211
 4402POPC   D2A55948  22.762   1.207   6.475
 4402POPC   C3A55949  22.975   1.176   6.859
 4402POPC   C4A55950  23.016   0.883   7.186
 4402POPC   C1B55951  22.392   1.429   6.151
 4402POPC   C2B55952  22.397   1.601   6.535
 4402POPC   C3B55953  22.457   1.498   6.958
 4402POPC   C4B55954  22.696   1.304   7.297
 4403POPC   NC355955  33.094  21.313   5.329
 4403POPC   PO455956  32.983  22.000   5.276
 4403POPC   GL155957  32.991  21.725   5.700
 4403POPC   GL255958  33.113  21.406   5.840
 4403POPC   C1A55959  32.883  21.734   6.168
 4403POPC   D2A55960  32.982  21.829   6.618
 4403POPC   C3A55961  32.898  21.564   6.958
 4403POPC   C4A55962  32.643  21.412   7.262
 4403POPC   C1B55963  33.405  21.627   6.145
 4403POPC   C2B55964  33.502  21.753   6.583
 4403POPC   C3B55965  33.408  21.596   7.024
 4403POPC   C4B55966  33.168  21.688   7.418
 4404POPC   NC355967  42.418  20.024   5.417
 4404POPC   PO455968  42.124  19.460   5.311
 4404POPC   GL155969  42.095  19.636   5.760
 4404POPC   GL255970  42.396  19.825   5.858
 4404POPC   C1A55971  42.105  19.721   6.245
 4404POPC   D2A55972  42.157  19.495   6.639
 4404POPC   C3A55973  42.198  19.742   7.001
 4404POPC   C4A55974  42.527  19.742   7.282
 4404POPC   C1B55975  42.550  19.979   6.239
 4404POPC   C2B55976  42.570  19.888   6.693
 4404POPC   C3B55977  42.496  20.186   7.043
 4404POPC   C4B55978  42.706  20.185   7.457
 4405POPC   NC355979   8.922  35.132   5.261
 4405POPC   PO455980   9.372  35.594   5.523
 4405POPC   GL155981   9.163  35.275   5.763
 4405POPC   GL255982   8.847  35.297   5.875
 4405POPC   C1A55983   9.192  35.396   6.202
 4405POPC   D2A55984   9.219  35.475   6.584
 4405POPC   C3A55985   9.005  35.262   6.848
 4405POPC   C4A55986   9.160  35.309   7.252
 4405POPC   C1B55987   8.695  35.471   6.308
 4405POPC   C2B55988   8.533  35.520   6.740
 4405POPC   C3B55989   8.683  35.487   7.171
 4405POPC   C4B55990   8.755  35.619   7.635
 4406POPC   NC355991  32.365  30.733   5.363
 4406POPC   PO455992  31.904  30.355   5.497
 4406POPC   GL155993  32.137  30.622   5.822
 4406POPC   GL255994  32.093  30.960   5.738
 4406POPC   C1A55995  32.350  30.803   6.227
 4406POPC   D2A55996  32.542  30.765   6.671
 4406POPC   C3A55997  32.312  30.852   7.081
 4406POPC   C4A55998  32.146  30.696   7.507
 4406POPC   C1B55999  31.875  30.974   6.138
 4406POPC   C2B56000  32.003  30.951   6.598
 4406POPC   C3B56001  31.751  31.007   6.982
 4406POPC   C4B56002  31.807  31.078   7.413
 4407POPC   NC356003  25.881  36.105   5.384
 4407POPC   PO456004  26.556  35.842   5.403
 4407POPC   GL156005  26.269  36.091   5.738
 4407POPC   GL256006  25.899  35.938   5.853
 4407POPC   C1A56007  26.123  36.301   6.153
 4407POPC   D2A56008  26.262  36.132   6.570
 4407POPC   C3A56009  26.317  36.319   6.982
 4407POPC   C4A56010  26.361  36.075   7.358
 4407POPC   C1B56011  26.183  35.787   6.181
 4407POPC   C2B56012  26.138  35.627   6.611
 4407POPC   C3B56013  26.026  35.826   7.028
 4407POPC   C4B56014  25.882  35.855   7.490
 4408POPC   NC356015  30.916   5.597   5.313
 4408POPC   PO456016  30.577   6.121   5.532
 4408POPC   GL156017  30.946   6.037   5.754
 4408POPC   GL256018  31.039   5.669   5.796
 4408POPC   C1A56019  30.892   6.010   6.190
 4408POPC   D2A56020  30.842   6.261   6.552
 4408POPC   C3A56021  30.588   6.037   6.839
 4408POPC   C4A56022  30.559   6.011   7.270
 4408POPC   C1B56023  31.026   5.507   6.233
 4408POPC   C2B56024  31.089   5.781   6.606
 4408POPC   C3B56025  30.991   5.776   7.005
 4408POPC   C4B56026  30.712   5.505   7.191
 4409POPC   NC356027   5.182   9.924   5.362
 4409POPC   PO456028   5.064  10.557   5.453
 4409POPC   GL156029   5.127  10.710   5.911
 4409POPC   GL256030   4.806  10.771   6.121
 4409POPC   C1A56031   5.257  10.522   6.326
 4409POPC   D2A56032   5.009  10.384   6.681
 4409POPC   C3A56033   5.213  10.331   7.088
 4409POPC   C4A56034   5.204  10.119   7.496
 4409POPC   C1B56035   5.078  10.999   6.394
 4409POPC   C2B56036   5.125  10.899   6.809
 4409POPC   C3B56037   4.840  10.701   7.061
 4409POPC   C4B56038   4.888  10.797   7.439
 4410POPC   NC356039  13.232   0.524   5.365
 4410POPC   PO456040  13.821   0.869   5.376
 4410POPC   GL156041  13.779   0.583   5.732
 4410POPC   GL256042  14.084   0.749   5.831
 4410POPC   C1A56043  13.672   0.332   6.136
 4410POPC   D2A56044  13.831   0.166   6.549
 4410POPC   C3A56045  13.635   0.349   6.922
 4410POPC   C4A56046  13.366   0.532   7.223
 4410POPC   C1B56047  13.860   0.808   6.199
 4410POPC   C2B56048  13.932   0.687   6.619
 4410POPC   C3B56049  13.911   0.762   7.043
 4410POPC   C4B56050  13.881   0.486   7.401
 4411POPC   NC356051   4.059  13.127   5.462
 4411POPC   PO456052   4.359  12.541   5.585
 4411POPC   GL156053   4.376  12.963   5.818
 4411POPC   GL256054   4.007  13.055   5.964
 4411POPC   C1A56055   4.537  13.140   6.211
 4411POPC   D2A56056   4.338  13.100   6.642
 4411POPC   C3A56057   4.584  13.196   7.011
 4411POPC   C4A56058   4.713  12.992   7.412
 4411POPC   C1B56059   4.186  12.754   6.243
 4411POPC   C2B56060   4.578  12.662   6.458
 4411POPC   C3B56061   4.624  12.693   6.883
 4411POPC   C4B56062   4.237  12.821   7.101
 4412POPC   NC356063   6.037  24.354   5.455
 4412POPC   PO456064   5.423  24.280   5.145
 4412POPC   GL156065   5.597  24.568   5.584
 4412POPC   GL256066   5.935  24.777   5.717
 4412POPC   C1A56067   5.767  24.408   6.046
 4412POPC   D2A56068   5.656  24.141   6.422
 4412POPC   C3A56069   5.708  24.265   6.878
 4412POPC   C4A56070   5.662  24.691   7.129
 4412POPC   C1B56071   6.204  24.677   6.122
 4412POPC   C2B56072   6.096  24.433   6.507
 4412POPC   C3B56073   6.128  24.529   6.947
 4412POPC   C4B56074   6.125  24.824   7.264
 4413POPC   NC356075   7.845  26.722   5.286
 4413POPC   PO456076   7.205  26.499   5.163
 4413POPC   GL156077   7.264  26.591   5.641
 4413POPC   GL256078   7.629  26.719   5.762
 4413POPC   C1A56079   7.211  26.885   6.016
 4413POPC   D2A56080   7.515  26.975   6.346
 4413POPC   C3A56081   7.424  26.916   6.788
 4413POPC   C4A56082   7.468  27.159   7.146
 4413POPC   C1B56083   7.792  26.550   6.168
 4413POPC   C2B56084   7.656  26.491   6.604
 4413POPC   C3B56085   7.779  26.605   7.013
 4413POPC   C4B56086   7.863  26.371   7.391
 4414POPC   NC356087  11.215  30.195   5.410
 4414POPC   PO456088  11.409  29.551   5.320
 4414POPC   GL156089  11.338  29.628   5.805
 4414POPC   GL256090  11.340  30.007   5.861
 4414POPC   C1A56091  11.243  29.730   6.273
 4414POPC   D2A56092  11.534  29.806   6.628
 4414POPC   C3A56093  11.294  29.712   6.972
 4414POPC   C4A56094  10.842  29.741   7.096
 4414POPC   C1B56095  11.586  30.118   6.215
 4414POPC   C2B56096  11.563  30.358   6.592
 4414POPC   C3B56097  11.444  30.225   6.980
 4414POPC   C4B56098  11.554  29.955   7.319
 4415POPC   NC356099  12.324  32.564   5.478
 4415POPC   PO456100  11.852  32.044   5.400
 4415POPC   GL156101  12.045  32.251   5.782
 4415POPC   GL256102  11.973  32.608   5.874
 4415POPC   C1A56103  12.289  32.300   6.193
 4415POPC   D2A56104  12.421  32.156   6.627
 4415POPC   C3A56105  12.082  31.935   6.865
 4415POPC   C4A56106  11.864  32.002   7.257
 4415POPC   C1B56107  11.661  32.633   6.236
 4415POPC   C2B56108  11.651  32.565   6.707
 4415POPC   C3B56109  11.951  32.468   7.057
 4415POPC   C4B56110  11.915  32.570   7.503
 4416POPC   NC356111  41.193  12.013   5.073
 4416POPC   PO456112  40.717  11.963   5.481
 4416POPC   GL156113  40.816  12.124   5.834
 4416POPC   GL256114  40.926  11.794   5.933
 4416POPC   C1A56115  40.907  12.269   6.258
 4416POPC   D2A56116  40.696  12.305   6.675
 4416POPC   C3A56117  40.881  12.272   7.083
 4416POPC   C4A56118  40.770  11.963   7.408
 4416POPC   C1B56119  41.164  11.824   6.289
 4416POPC   C2B56120  41.149  11.978   6.704
 4416POPC   C3B56121  41.221  11.864   7.138
 4416POPC   C4B56122  41.262  11.958   7.570
 4417POPC   NC356123  38.587  41.790   5.349
 4417POPC   PO456124  38.446  41.173   5.436
 4417POPC   GL156125  38.335  41.449   5.759
 4417POPC   GL256126  38.665  41.566   5.801
 4417POPC   C1A56127  38.306  41.620   6.189
 4417POPC   D2A56128  38.508  41.612   6.623
 4417POPC   C3A56129  38.257  41.587   7.023
 4417POPC   C4A56130  38.066  41.254   7.316
 4417POPC   C1B56131  38.813  41.717   6.186
 4417POPC   C2B56132  39.012  41.466   6.508
 4417POPC   C3B56133  38.918  41.470   6.935
 4417POPC   C4B56134  38.845  41.496   7.359
 4418POPC   NC356135  39.606   1.803   5.681
 4418POPC   PO456136  40.193   1.930   5.418
 4418POPC   GL156137  40.254   1.872   5.842
 4418POPC   GL256138  40.051   1.583   5.809
 4418POPC   C1A56139  40.179   2.130   6.220
 4418POPC   D2A56140  39.798   2.135   6.482
 4418POPC   C3A56141  39.889   2.275   6.877
 4418POPC   C4A56142  39.953   2.153   7.272
 4418POPC   C1B56143  39.937   1.684   6.224
 4418POPC   C2B56144  39.811   1.602   6.596
 4418POPC   C3B56145  39.679   1.816   6.914
 4418POPC   C4B56146  39.726   1.724   7.309
 4419POPC   NC356147   2.645  31.102   5.297
 4419POPC   PO456148   2.729  30.398   5.394
 4419POPC   GL156149   2.946  30.597   5.783
 4419POPC   GL256150   2.688  30.828   5.834
 4419POPC   C1A56151   2.966  30.735   6.271
 4419POPC   D2A56152   2.705  30.694   6.681
 4419POPC   C3A56153   2.913  30.921   7.040
 4419POPC   C4A56154   3.068  30.713   7.415
 4419POPC   C1B56155   2.495  30.561   6.193
 4419POPC   C2B56156   2.530  30.228   6.537
 4419POPC   C3B56157   2.450  30.298   6.983
 4419POPC   C4B56158   2.532  30.649   7.221
 4420POPC   NC356159   7.318  23.536   5.331
 4420POPC   PO456160   7.649  24.127   5.383
 4420POPC   GL156161   7.600  24.016   5.807
 4420POPC   GL256162   7.316  23.763   5.801
 4420POPC   C1A56163   7.586  23.829   6.238
 4420POPC   D2A56164   7.554  23.474   6.550
 4420POPC   C3A56165   7.482  23.668   6.952
 4420POPC   C4A56166   7.145  23.984   7.094
 4420POPC   C1B56167   7.203  23.439   6.144
 4420POPC   C2B56168   6.884  23.338   6.467
 4420POPC   C3B56169   7.047  23.370   6.872
 4420POPC   C4B56170   7.100  23.522   7.258
 4421POPC   NC356171  11.419  41.168   5.500
 4421POPC   PO456172  11.300  41.863   5.579
 4421POPC   GL156173  11.031  41.713   5.893
 4421POPC   GL256174  10.883  41.415   5.657
 4421POPC   C1A56175  11.012  41.830   6.358
 4421POPC   D2A56176  11.041  41.761   6.830
 4421POPC   C3A56177  11.461  41.757   6.965
 4421POPC   C4A56178  11.654  41.498   7.252
 4421POPC   C1B56179  10.777  41.348   6.109
 4421POPC   C2B56180  11.070  41.297   6.419
 4421POPC   C3B56181  11.087  41.238   6.836
 4421POPC   C4B56182  11.149  41.390   7.239
 4422POPC   NC356183  10.994  24.933   5.588
 4422POPC   PO456184  11.512  25.455   5.505
 4422POPC   GL156185  11.291  25.395   5.863
 4422POPC   GL256186  11.404  25.061   5.895
 4422POPC   C1A56187  11.291  25.346   6.319
 4422POPC   D2A56188  11.184  25.154   6.720
 4422POPC   C3A56189  11.310  25.415   7.021
 4422POPC   C4A56190  11.180  25.490   7.432
 4422POPC   C1B56191  11.690  25.025   6.260
 4422POPC   C2B56192  11.690  25.223   6.670
 4422POPC   C3B56193  11.661  25.042   7.070
 4422POPC   C4B56194  11.321  24.992   7.305
 4423POPC   NC356195   4.311  32.740   5.653
 4423POPC   PO456196   4.683  33.196   5.355
 4423POPC   GL156197   4.434  33.295   5.809
 4423POPC   GL256198   4.096  33.159   5.878
 4423POPC   C1A56199   4.388  33.135   6.297
 4423POPC   D2A56200   4.267  33.247   6.715
 4423POPC   C3A56201   4.410  32.977   7.062
 4423POPC   C4A56202   4.587  33.099   7.454
 4423POPC   C1B56203   3.934  32.847   6.214
 4423POPC   C2B56204   4.029  32.761   6.668
 4423POPC   C3B56205   4.069  32.611   7.109
 4423POPC   C4B56206   4.091  32.915   7.498
 4424POPC   NC356207  24.059  29.366   5.461
 4424POPC   PO456208  23.501  28.983   5.117
 4424POPC   GL156209  23.675  29.043   5.591
 4424POPC   GL256210  24.018  28.994   5.795
 4424POPC   C1A56211  23.600  28.878   6.035
 4424POPC   D2A56212  23.492  29.091   6.427
 4424POPC   C3A56213  23.689  29.032   6.837
 4424POPC   C4A56214  23.585  29.276   7.211
 4424POPC   C1B56215  23.863  29.320   6.105
 4424POPC   C2B56216  23.872  29.425   6.556
 4424POPC   C3B56217  24.043  29.386   6.983
 4424POPC   C4B56218  24.138  28.954   7.175
 4425POPC   NC356219  21.680  22.621   5.370
 4425POPC   PO456220  22.257  22.805   5.611
 4425POPC   GL156221  22.232  23.080   5.930
 4425POPC   GL256222  21.917  23.288   5.864
 4425POPC   C1A56223  22.245  22.810   6.282
 4425POPC   D2A56224  21.988  22.666   6.579
 4425POPC   C3A56225  22.243  22.632   6.891
 4425POPC   C4A56226  22.382  22.800   7.237
 4425POPC   C1B56227  21.930  23.220   6.329
 4425POPC   C2B56228  22.236  23.167   6.652
 4425POPC   C3B56229  22.152  23.335   7.017
 4425POPC   C4B56230  22.129  23.209   7.391
 4426POPC   NC356231  36.363  19.381   5.532
 4426POPC   PO456232  36.998  19.138   5.344
 4426POPC   GL156233  36.865  18.968   5.782
 4426POPC   GL256234  36.585  18.867   5.885
 4426POPC   C1A56235  36.989  19.028   6.210
 4426POPC   D2A56236  37.057  19.343   6.522
 4426POPC   C3A56237  37.036  19.172   6.913
 4426POPC   C4A56238  37.299  18.999   7.209
 4426POPC   C1B56239  36.574  18.719   6.298
 4426POPC   C2B56240  36.635  18.883   6.741
 4426POPC   C3B56241  36.742  18.907   7.223
 4426POPC   C4B56242  36.606  18.955   7.719
 4427POPC   NC356243  27.858  42.130   5.465
 4427POPC   PO456244  27.588  41.567   5.453
 4427POPC   GL156245  27.414  41.600   5.818
 4427POPC   GL256246  27.422  41.989   5.873
 4427POPC   C1A56247  27.299  41.316   6.149
 4427POPC   D2A56248  27.438  41.220   6.528
 4427POPC   C3A56249  27.423  41.572   6.773
 4427POPC   C4A56250  27.443  41.569   7.222
 4427POPC   C1B56251  27.605  41.772   6.256
 4427POPC   C2B56252  27.902  41.905   6.562
 4427POPC   C3B56253  27.788  41.857   6.971
 4427POPC   C4B56254  27.405  42.055   7.076
 4428POPC   NC356255  35.949   0.798   5.362
 4428POPC   PO456256  36.533   0.353   5.318
 4428POPC   GL156257  36.206   0.415   5.693
 4428POPC   GL256258  36.173   0.757   5.841
 4428POPC   C1A56259  36.038   0.349   6.142
 4428POPC   D2A56260  35.899   0.494   6.580
 4428POPC   C3A56261  35.899   0.191   6.931
 4428POPC   C4A56262  35.929   0.145   7.378
 4428POPC   C1B56263  36.344   0.726   6.296
 4428POPC   C2B56264  36.358   0.649   6.776
 4428POPC   C3B56265  36.008   0.737   7.115
 4428POPC   C4B56266  36.173   0.819   7.550
 4429POPC   NC356267  21.957  39.178   5.477
 4429POPC   PO456268  22.593  38.862   5.480
 4429POPC   GL156269  22.352  39.013   5.832
 4429POPC   GL256270  22.233  39.354   5.902
 4429POPC   C1A56271  22.165  38.897   6.245
 4429POPC   D2A56272  22.069  38.946   6.701
 4429POPC   C3A56273  22.310  39.274   6.914
 4429POPC   C4A56274  22.623  39.364   7.227
 4429POPC   C1B56275  21.808  39.267   6.121
 4429POPC   C2B56276  21.658  39.192   6.542
 4429POPC   C3B56277  21.804  39.341   6.975
 4429POPC   C4B56278  22.098  39.364   7.380
 4430POPC   NC356279  26.393  37.854   5.454
 4430POPC   PO456280  25.773  37.789   5.570
 4430POPC   GL156281  26.029  37.912   5.928
 4430POPC   GL256282  26.353  37.740   5.962
 4430POPC   C1A56283  25.956  37.825   6.383
 4430POPC   D2A56284  25.690  37.547   6.619
 4430POPC   C3A56285  25.798  37.796   6.940
 4430POPC   C4A56286  26.207  37.846   7.136
 4430POPC   C1B56287  26.041  37.420   6.112
 4430POPC   C2B56288  26.069  37.175   6.505
 4430POPC   C3B56289  26.103  37.350   6.931
 4430POPC   C4B56290  25.802  37.399   7.245
 4431POPC   NC356291  15.206  10.080   5.201
 4431POPC   PO456292  14.905  10.713   5.337
 4431POPC   GL156293  15.031  10.496   5.709
 4431POPC   GL256294  14.770  10.318   5.879
 4431POPC   C1A56295  15.346  10.579   6.039
 4431POPC   D2A56296  15.510  10.761   6.431
 4431POPC   C3A56297  15.364  10.617   6.846
 4431POPC   C4A56298  15.334  10.747   7.308
 4431POPC   C1B56299  15.026  10.241   6.248
 4431POPC   C2B56300  15.053  10.191   6.681
 4431POPC   C3B56301  14.750  10.224   7.002
 4431POPC   C4B56302  14.768  10.447   7.389
 4432POPC   NC356303  36.307  23.199   5.214
 4432POPC   PO456304  36.837  23.337   5.665
 4432POPC   GL156305  37.022  23.055   5.920
 4432POPC   GL256306  36.824  22.776   5.788
 4432POPC   C1A56307  37.073  23.005   6.344
 4432POPC   D2A56308  36.782  23.179   6.625
 4432POPC   C3A56309  36.818  22.960   6.976
 4432POPC   C4A56310  36.975  23.135   7.312
 4432POPC   C1B56311  37.144  22.583   6.057
 4432POPC   C2B56312  37.224  22.520   6.511
 4432POPC   C3B56313  37.016  22.464   6.930
 4432POPC   C4B56314  36.923  22.505   7.392
 4433POPC   NC356315  22.590  23.096   5.523
 4433POPC   PO456316  22.874  22.444   5.385
 4433POPC   GL156317  22.808  22.701   5.738
 4433POPC   GL256318  23.129  22.799   5.879
 4433POPC   C1A56319  22.739  22.928   6.156
 4433POPC   D2A56320  22.982  23.010   6.527
 4433POPC   C3A56321  22.739  22.926   6.898
 4433POPC   C4A56322  22.623  23.248   7.194
 4433POPC   C1B56323  23.208  22.604   6.301
 4433POPC   C2B56324  23.151  22.591   6.794
 4433POPC   C3B56325  23.124  22.723   7.239
 4433POPC   C4B56326  23.243  22.832   7.704
 4434POPC   NC356327  26.160   5.582   5.529
 4434POPC   PO456328  25.766   6.151   5.393
 4434POPC   GL156329  25.991   6.019   5.759
 4434POPC   GL256330  26.351   6.047   5.750
 4434POPC   C1A56331  25.853   5.792   6.132
 4434POPC   D2A56332  25.801   6.014   6.497
 4434POPC   C3A56333  25.651   5.874   6.872
 4434POPC   C4A56334  25.763   5.619   7.201
 4434POPC   C1B56335  26.363   5.811   6.151
 4434POPC   C2B56336  26.396   5.618   6.554
 4434POPC   C3B56337  26.171   5.709   6.929
 4434POPC   C4B56338  26.349   5.575   7.315
 4435POPC   NC356339  42.651  40.197   5.497
 4435POPC   PO456340  42.459  39.539   5.432
 4435POPC   GL156341  42.349  39.853   5.735
 4435POPC   GL256342  42.017  39.977   5.654
 4435POPC   C1A56343  42.419  39.972   6.168
 4435POPC   D2A56344  42.584  40.187   6.546
 4435POPC   C3A56345  42.451  39.963   6.896
 4435POPC   C4A56346  42.336  40.021   7.311
 4435POPC   C1B56347  41.983  40.222   6.079
 4435POPC   C2B56348  42.056  40.102   6.529
 4435POPC   C3B56349  41.979  40.157   6.975
 4435POPC   C4B56350  42.086  40.457   7.320
 4436POPC   NC356351  25.828  20.864   5.236
 4436POPC   PO456352  25.726  21.508   5.454
 4436POPC   GL156353  25.844  21.648   5.857
 4436POPC   GL256354  26.099  21.385   5.929
 4436POPC   C1A56355  25.924  21.696   6.300
 4436POPC   D2A56356  26.057  21.387   6.629
 4436POPC   C3A56357  25.812  21.359   7.016
 4436POPC   C4A56358  25.826  21.604   7.370
 4436POPC   C1B56359  26.457  21.522   6.174
 4436POPC   C2B56360  26.583  21.530   6.623
 4436POPC   C3B56361  26.449  21.225   6.953
 4436POPC   C4B56362  26.239  21.276   7.342
 4437POPC   NC356363  28.908  32.467   5.463
 4437POPC   PO456364  29.259  31.864   5.230
 4437POPC   GL156365  29.119  32.025   5.672
 4437POPC   GL256366  29.355  32.306   5.740
 4437POPC   C1A56367  28.944  32.225   6.085
 4437POPC   D2A56368  28.914  32.143   6.526
 4437POPC   C3A56369  28.717  32.285   6.907
 4437POPC   C4A56370  28.909  32.224   7.290
 4437POPC   C1B56371  29.383  32.445   6.170
 4437POPC   C2B56372  29.242  32.645   6.545
 4437POPC   C3B56373  29.209  32.437   6.910
 4437POPC   C4B56374  29.439  32.502   7.265
 4438POPC   NC356375  10.762   3.233   5.501
 4438POPC   PO456376  10.750   3.872   5.342
 4438POPC   GL156377  10.527   3.666   5.685
 4438POPC   GL256378  10.836   3.656   5.805
 4438POPC   C1A56379  10.293   3.457   6.055
 4438POPC   D2A56380  10.175   3.280   6.484
 4438POPC   C3A56381  10.388   3.457   6.826
 4438POPC   C4A56382  10.540   3.360   7.203
 4438POPC   C1B56383  10.827   3.370   6.136
 4438POPC   C2B56384  10.750   3.595   6.484
 4438POPC   C3B56385  10.979   3.786   6.790
 4438POPC   C4B56386  10.980   3.612   7.183
 4439POPC   NC356387   8.695  26.356   5.665
 4439POPC   PO456388   8.926  26.713   5.126
 4439POPC   GL156389   8.932  26.828   5.594
 4439POPC   GL256390   9.142  26.581   5.797
 4439POPC   C1A56391   8.865  26.932   6.061
 4439POPC   D2A56392   8.585  26.932   6.436
 4439POPC   C3A56393   8.701  27.146   6.827
 4439POPC   C4A56394   8.593  27.065   7.251
 4439POPC   C1B56395   9.203  26.571   6.266
 4439POPC   C2B56396   9.059  26.812   6.620
 4439POPC   C3B56397   9.068  26.835   7.055
 4439POPC   C4B56398   9.295  26.515   7.320
 4440POPC   NC356399  23.027  31.324   5.223
 4440POPC   PO456400  22.740  31.852   5.529
 4440POPC   GL156401  22.827  31.459   5.737
 4440POPC   GL256402  23.142  31.402   5.845
 4440POPC   C1A56403  22.757  31.207   6.116
 4440POPC   D2A56404  22.720  31.328   6.531
 4440POPC   C3A56405  22.896  31.165   6.921
 4440POPC   C4A56406  22.783  31.288   7.359
 4440POPC   C1B56407  23.191  31.511   6.298
 4440POPC   C2B56408  23.317  31.508   6.727
 4440POPC   C3B56409  23.230  31.490   7.177
 4440POPC   C4B56410  23.203  31.391   7.641
 4441POPC   NC356411  40.262  22.376   5.107
 4441POPC   PO456412  39.828  21.991   5.440
 4441POPC   GL156413  39.941  21.934   5.855
 4441POPC   GL256414  40.237  21.728   5.779
 4441POPC   C1A56415  40.037  22.155   6.259
 4441POPC   D2A56416  39.885  22.250   6.641
 4441POPC   C3A56417  40.153  22.371   6.922
 4441POPC   C4A56418  40.020  22.150   7.279
 4441POPC   C1B56419  40.169  21.666   6.211
 4441POPC   C2B56420  40.005  21.568   6.565
 4441POPC   C3B56421  39.953  21.809   6.919
 4441POPC   C4B56422  40.138  21.643   7.271
 4442POPC   NC356423  33.527   4.870   5.494
 4442POPC   PO456424  34.040   5.198   5.469
 4442POPC   GL156425  33.906   5.297   5.851
 4442POPC   GL256426  33.543   5.260   5.875
 4442POPC   C1A56427  34.105   5.291   6.271
 4442POPC   D2A56428  33.984   5.044   6.640
 4442POPC   C3A56429  34.081   5.332   6.928
 4442POPC   C4A56430  34.227   5.284   7.302
 4442POPC   C1B56431  33.665   5.022   6.237
 4442POPC   C2B56432  33.460   4.953   6.640
 4442POPC   C3B56433  33.638   5.095   7.020
 4442POPC   C4B56434  33.703   4.726   7.167
 4443POPC   NC356435  35.616   2.203   5.102
 4443POPC   PO456436  35.151   1.798   5.484
 4443POPC   GL156437  35.298   1.961   5.891
 4443POPC   GL256438  35.586   2.194   5.805
 4443POPC   C1A56439  35.158   2.223   6.257
 4443POPC   D2A56440  35.296   2.468   6.614
 4443POPC   C3A56441  35.339   2.164   6.921
 4443POPC   C4A56442  35.144   1.784   7.104
 4443POPC   C1B56443  35.672   2.050   6.214
 4443POPC   C2B56444  35.468   1.825   6.535
 4443POPC   C3B56445  35.609   1.740   6.947
 4443POPC   C4B56446  35.698   1.993   7.255
 4444POPC   NC356447   4.017  12.259   5.686
 4444POPC   PO456448   4.316  11.759   5.361
 4444POPC   GL156449   4.354  11.869   5.807
 4444POPC   GL256450   4.589  12.154   5.871
 4444POPC   C1A56451   4.430  11.760   6.247
 4444POPC   D2A56452   4.182  11.860   6.600
 4444POPC   C3A56453   4.284  11.753   7.007
 4444POPC   C4A56454   4.216  11.988   7.372
 4444POPC   C1B56455   4.306  12.252   6.240
 4444POPC   C2B56456   4.128  12.382   6.609
 4444POPC   C3B56457   4.317  12.295   6.956
 4444POPC   C4B56458   4.514  12.419   7.315
 4445POPC   NC356459  38.122  29.754   5.670
 4445POPC   PO456460  37.721  30.168   5.323
 4445POPC   GL156461  37.661  29.951   5.757
 4445POPC   GL256462  37.502  29.615   5.743
 4445POPC   C1A56463  37.741  29.989   6.213
 4445POPC   D2A56464  37.616  30.100   6.658
 4445POPC   C3A56465  37.790  29.871   7.025
 4445POPC   C4A56466  38.127  29.991   7.341
 4445POPC   C1B56467  37.401  29.594   6.213
 4445POPC   C2B56468  37.400  29.631   6.686
 4445POPC   C3B56469  37.230  29.899   7.035
 4445POPC   C4B56470  37.190  29.770   7.483
 4446POPC   NC356471  12.150  25.602   5.576
 4446POPC   PO456472  12.294  26.235   5.508
 4446POPC   GL156473  11.965  26.215   5.859
 4446POPC   GL256474  11.899  25.860   5.941
 4446POPC   C1A56475  11.875  26.186   6.314
 4446POPC   D2A56476  12.096  26.078   6.664
 4446POPC   C3A56477  11.913  25.988   7.030
 4446POPC   C4A56478  11.935  26.389   7.206
 4446POPC   C1B56479  12.315  25.938   6.173
 4446POPC   C2B56480  12.514  25.815   6.556
 4446POPC   C3B56481  12.402  25.798   6.973
 4446POPC   C4B56482  12.371  26.110   7.239
 4447POPC   NC356483  39.750  16.129   5.580
 4447POPC   PO456484  39.203  15.895   5.201
 4447POPC   GL156485  39.176  15.931   5.698
 4447POPC   GL256486  39.442  15.874   5.898
 4447POPC   C1A56487  39.009  15.755   6.139
 4447POPC   D2A56488  39.019  15.814   6.573
 4447POPC   C3A56489  39.332  15.857   6.899
 4447POPC   C4A56490  39.002  15.927   7.229
 4447POPC   C1B56491  39.438  16.014   6.318
 4447POPC   C2B56492  39.285  16.296   6.647
 4447POPC   C3B56493  39.300  16.335   7.129
 4447POPC   C4B56494  39.549  16.200   7.503
 4448POPC   NC356495  19.770  22.274   5.304
 4448POPC   PO456496  19.417  21.803   5.590
 4448POPC   GL156497  19.776  22.071   5.784
 4448POPC   GL256498  19.976  22.375   5.743
 4448POPC   C1A56499  19.782  22.039   6.223
 4448POPC   D2A56500  19.459  21.853   6.452
 4448POPC   C3A56501  19.448  21.983   6.858
 4448POPC   C4A56502  19.734  22.096   7.171
 4448POPC   C1B56503  20.113  22.426   6.122
 4448POPC   C2B56504  20.200  22.236   6.484
 4448POPC   C3B56505  20.111  22.285   6.902
 4448POPC   C4B56506  20.246  21.961   7.177
 4449POPC   NC356507   3.262  13.005   5.564
 4449POPC   PO456508   3.725  12.559   5.465
 4449POPC   GL156509   3.617  12.629   5.883
 4449POPC   GL256510   3.260  12.671   5.996
 4449POPC   C1A56511   3.709  12.536   6.322
 4449POPC   D2A56512   3.867  12.833   6.650
 4449POPC   C3A56513   3.616  12.841   7.013
 4449POPC   C4A56514   3.491  12.575   7.344
 4449POPC   C1B56515   3.543  13.021   6.199
 4449POPC   C2B56516   3.644  13.294   6.551
 4449POPC   C3B56517   3.393  13.320   6.919
 4449POPC   C4B56518   3.206  13.076   7.255
 4450POPC   NC356519  21.437  16.156   5.513
 4450POPC   PO456520  21.267  15.586   5.453
 4450POPC   GL156521  21.542  15.718   5.765
 4450POPC   GL256522  21.216  15.876   5.918
 4450POPC   C1A56523  21.653  15.862   6.184
 4450POPC   D2A56524  21.333  15.982   6.476
 4450POPC   C3A56525  21.457  15.924   6.891
 4450POPC   C4A56526  21.481  16.165   7.243
 4450POPC   C1B56527  20.941  15.724   6.277
 4450POPC   C2B56528  20.890  15.846   6.731
 4450POPC   C3B56529  20.982  15.900   7.164
 4450POPC   C4B56530  20.901  15.747   7.602
 4451POPC   NC356531  24.404  37.682   5.483
 4451POPC   PO456532  24.637  37.080   5.653
 4451POPC   GL156533  24.591  37.485   5.923
 4451POPC   GL256534  24.389  37.834   5.961
 4451POPC   C1A56535  24.497  37.505   6.347
 4451POPC   D2A56536  24.514  37.255   6.711
 4451POPC   C3A56537  24.383  37.446   7.072
 4451POPC   C4A56538  24.766  37.480   7.273
 4451POPC   C1B56539  24.622  38.014   6.304
 4451POPC   C2B56540  24.581  37.839   6.745
 4451POPC   C3B56541  24.535  37.936   7.182
 4451POPC   C4B56542  24.236  37.834   7.494
 4452POPC   NC356543  11.800  37.098   5.475
 4452POPC   PO456544  12.438  36.865   5.386
 4452POPC   GL156545  12.241  37.019   5.752
 4452POPC   GL256546  12.008  36.741   5.834
 4452POPC   C1A56547  12.327  36.907   6.186
 4452POPC   D2A56548  12.244  36.669   6.538
 4452POPC   C3A56549  12.354  36.896   6.874
 4452POPC   C4A56550  12.236  36.981   7.284
 4452POPC   C1B56551  11.808  36.718   6.264
 4452POPC   C2B56552  11.780  36.812   6.731
 4452POPC   C3B56553  11.838  36.678   7.153
 4452POPC   C4B56554  11.877  36.804   7.583
 4453POPC   NC356555  39.724  30.076   5.551
 4453POPC   PO456556  40.258  29.660   5.401
 4453POPC   GL156557  40.082  29.793   5.782
 4453POPC   GL256558  39.924  29.537   5.875
 4453POPC   C1A56559  39.891  29.939   6.176
 4453POPC   D2A56560  40.123  29.998   6.511
 4453POPC   C3A56561  40.007  29.850   6.867
 4453POPC   C4A56562  39.799  30.053   7.149
 4453POPC   C1B56563  40.208  29.552   6.269
 4453POPC   C2B56564  40.313  29.452   6.721
 4453POPC   C3B56565  40.295  29.554   7.182
 4453POPC   C4B56566  40.084  29.441   7.603
 4454POPC   NC356567  34.957  37.617   5.466
 4454POPC   PO456568  34.362  37.811   5.237
 4454POPC   GL156569  34.371  37.780   5.703
 4454POPC   GL256570  34.675  37.850   5.883
 4454POPC   C1A56571  34.287  37.549   6.115
 4454POPC   D2A56572  34.428  37.378   6.518
 4454POPC   C3A56573  34.396  37.619   6.908
 4454POPC   C4A56574  34.650  37.536   7.257
 4454POPC   C1B56575  34.828  38.155   6.180
 4454POPC   C2B56576  34.995  38.154   6.594
 4454POPC   C3B56577  34.816  38.070   7.005
 4454POPC   C4B56578  34.835  37.994   7.461
 4455POPC   NC356579  28.561   4.567   5.598
 4455POPC   PO456580  28.608   3.951   5.649
 4455POPC   GL156581  28.677   4.069   6.011
 4455POPC   GL256582  28.437   4.311   6.032
 4455POPC   C1A56583  28.673   4.096   6.431
 4455POPC   D2A56584  28.336   4.323   6.605
 4455POPC   C3A56585  28.452   4.378   7.018
 4455POPC   C4A56586  28.631   4.253   7.410
 4455POPC   C1B56587  28.059   4.490   6.205
 4455POPC   C2B56588  27.861   4.612   6.596
 4455POPC   C3B56589  28.032   4.699   7.039
 4455POPC   C4B56590  28.296   4.682   7.423
 4456POPC   NC356591  36.029  14.953   5.162
 4456POPC   PO456592  36.356  15.447   5.366
 4456POPC   GL156593  36.015  15.393   5.693
 4456POPC   GL256594  35.894  15.048   5.661
 4456POPC   C1A56595  35.931  15.485   6.129
 4456POPC   D2A56596  36.160  15.298   6.475
 4456POPC   C3A56597  36.321  15.395   6.907
 4456POPC   C4A56598  36.490  15.029   7.116
 4456POPC   C1B56599  35.924  14.959   6.088
 4456POPC   C2B56600  35.785  14.907   6.507
 4456POPC   C3B56601  36.039  14.945   6.854
 4456POPC   C4B56602  36.006  15.025   7.272
 4457POPC   NC356603  19.838   1.032   5.014
 4457POPC   PO456604  20.393   1.444   5.330
 4457POPC   GL156605  20.171   1.404   5.783
 4457POPC   GL256606  19.851   1.283   5.651
 4457POPC   C1A56607  20.029   1.243   6.260
 4457POPC   D2A56608  19.975   1.356   6.740
 4457POPC   C3A56609  19.744   1.045   7.017
 4457POPC   C4A56610  19.304   0.923   7.097
 4457POPC   C1B56611  19.677   1.530   5.990
 4457POPC   C2B56612  19.582   1.497   6.408
 4457POPC   C3B56613  19.526   1.683   6.773
 4457POPC   C4B56614  19.699   1.609   7.159
 4458POPC   NC356615  35.831   9.734   5.565
 4458POPC   PO456616  36.403   9.938   5.408
 4458POPC   GL156617  36.286   9.747   5.821
 4458POPC   GL256618  36.122  10.036   5.873
 4458POPC   C1A56619  35.987   9.588   6.209
 4458POPC   D2A56620  35.771   9.744   6.634
 4458POPC   C3A56621  35.946   9.556   7.056
 4458POPC   C4A56622  35.871   9.443   7.534
 4458POPC   C1B56623  36.283   9.982   6.289
 4458POPC   C2B56624  36.281   9.744   6.685
 4458POPC   C3B56625  36.286   9.943   7.113
 4458POPC   C4B56626  36.568   9.942   7.479
 4459POPC   NC356627  13.537   9.046   5.434
 4459POPC   PO456628  13.797   8.399   5.394
 4459POPC   GL156629  13.701   8.669   5.759
 4459POPC   GL256630  13.901   8.982   5.830
 4459POPC   C1A56631  13.461   8.844   6.138
 4459POPC   D2A56632  13.369   9.058   6.559
 4459POPC   C3A56633  13.492   8.904   6.994
 4459POPC   C4A56634  13.631   9.072   7.388
 4459POPC   C1B56635  13.952   8.717   6.213
 4459POPC   C2B56636  13.848   8.762   6.668
 4459POPC   C3B56637  14.003   8.845   7.109
 4459POPC   C4B56638  13.947   8.681   7.566
 4460POPC   NC356639  22.182  18.676   5.464
 4460POPC   PO456640  22.102  19.329   5.299
 4460POPC   GL156641  21.984  19.166   5.712
 4460POPC   GL256642  22.219  18.940   5.896
 4460POPC   C1A56643  22.022  19.360   6.128
 4460POPC   D2A56644  22.187  19.170   6.494
 4460POPC   C3A56645  22.135  19.357   6.888
 4460POPC   C4A56646  21.918  19.157   7.212
 4460POPC   C1B56647  22.508  18.767   6.241
 4460POPC   C2B56648  22.582  18.892   6.682
 4460POPC   C3B56649  22.402  18.838   7.093
 4460POPC   C4B56650  22.540  18.741   7.536
 4461POPC   NC356651  12.733  25.015   5.386
 4461POPC   PO456652  13.017  25.573   5.309
 4461POPC   GL156653  12.912  25.371   5.707
 4461POPC   GL256654  13.081  25.064   5.756
 4461POPC   C1A56655  12.699  25.146   6.082
 4461POPC   D2A56656  12.495  25.314   6.422
 4461POPC   C3A56657  12.659  25.370   6.808
 4461POPC   C4A56658  12.476  25.371   7.206
 4461POPC   C1B56659  13.177  25.346   6.134
 4461POPC   C2B56660  13.081  25.161   6.522
 4461POPC   C3B56661  12.980  24.958   6.888
 4461POPC   C4B56662  12.976  25.245   7.206
 4462POPC   NC356663  44.390   4.534   5.062
 4462POPC   PO456664  44.790   4.187   5.531
 4462POPC   GL156665  44.600   4.441   5.812
 4462POPC   GL256666  44.699   4.744   5.876
 4462POPC   C1A56667  44.434   4.272   6.157
 4462POPC   D2A56668  44.643   4.096   6.518
 4462POPC   C3A56669  44.540   4.352   6.861
 4462POPC   C4A56670  44.537   4.321   7.267
 4462POPC   C1B56671  44.727   4.923   6.307
 4462POPC   C2B56672  44.670   4.881   6.779
 4462POPC   C3B56673  44.846   4.717   7.176
 4462POPC   C4B56674  44.923   4.897   7.610
 4463POPC   NC356675  29.555  24.392   5.382
 4463POPC   PO456676  29.353  24.991   5.623
 4463POPC   GL156677  29.343  24.576   5.813
 4463POPC   GL256678  28.992  24.472   5.815
 4463POPC   C1A56679  29.281  24.286   6.170
 4463POPC   D2A56680  29.048  24.370   6.538
 4463POPC   C3A56681  29.345  24.497   6.840
 4463POPC   C4A56682  29.347  24.590   7.279
 4463POPC   C1B56683  29.032  24.758   6.206
 4463POPC   C2B56684  29.043  24.862   6.658
 4463POPC   C3B56685  28.877  24.622   7.025
 4463POPC   C4B56686  28.879  24.653   7.504
 4464POPC   NC356687  33.079  27.933   5.223
 4464POPC   PO456688  33.070  27.223   5.359
 4464POPC   GL156689  33.302  27.410   5.712
 4464POPC   GL256690  33.324  27.763   5.786
 4464POPC   C1A56691  33.260  27.306   6.148
 4464POPC   D2A56692  32.977  27.381   6.461
 4464POPC   C3A56693  33.121  27.415   6.863
 4464POPC   C4A56694  33.119  27.656   7.207
 4464POPC   C1B56695  33.287  27.837   6.270
 4464POPC   C2B56696  33.376  27.911   6.724
 4464POPC   C3B56697  33.398  28.078   7.162
 4464POPC   C4B56698  33.155  28.009   7.590
 4465POPC   NC356699   7.642   5.807   5.371
 4465POPC   PO456700   7.148   6.004   5.599
 4465POPC   GL156701   7.443   5.877   5.872
 4465POPC   GL256702   7.460   5.578   5.810
 4465POPC   C1A56703   7.630   5.925   6.273
 4465POPC   D2A56704   7.552   6.098   6.694
 4465POPC   C3A56705   7.554   5.889   7.091
 4465POPC   C4A56706   7.214   5.847   7.404
 4465POPC   C1B56707   7.365   5.486   6.215
 4465POPC   C2B56708   7.367   5.616   6.644
 4465POPC   C3B56709   7.277   5.469   7.061
 4465POPC   C4B56710   7.562   5.464   7.394
 4466POPC   NC356711   6.978   8.355   5.372
 4466POPC   PO456712   6.682   7.786   5.587
 4466POPC   GL156713   6.545   7.956   5.916
 4466POPC   GL256714   6.784   8.225   5.883
 4466POPC   C1A56715   6.718   7.945   6.331
 4466POPC   D2A56716   6.582   7.989   6.725
 4466POPC   C3A56717   6.708   8.235   7.042
 4466POPC   C4A56718   6.706   8.214   7.474
 4466POPC   C1B56719   6.507   8.383   6.201
 4466POPC   C2B56720   6.485   8.517   6.595
 4466POPC   C3B56721   6.232   8.443   6.920
 4466POPC   C4B56722   6.296   8.448   7.313
 4467POPC   NC356723   9.860  15.806   5.131
 4467POPC   PO456724   9.554  16.189   5.628
 4467POPC   GL156725   9.858  15.884   5.745
 4467POPC   GL256726   9.958  16.135   5.963
 4467POPC   C1A56727   9.936  15.681   6.173
 4467POPC   D2A56728   9.643  15.704   6.520
 4467POPC   C3A56729   9.774  15.957   6.883
 4467POPC   C4A56730   9.865  15.848   7.310
 4467POPC   C1B56731   9.675  16.297   6.260
 4467POPC   C2B56732   9.778  16.426   6.635
 4467POPC   C3B56733   9.668  16.466   7.013
 4467POPC   C4B56734   9.809  16.358   7.395
 4468POPC   NC356735  23.565   1.972   5.182
 4468POPC   PO456736  22.967   1.888   5.478
 4468POPC   GL156737  22.827   2.037   5.840
 4468POPC   GL256738  22.607   1.751   5.847
 4468POPC   C1A56739  23.002   2.165   6.232
 4468POPC   D2A56740  22.898   2.041   6.646
 4468POPC   C3A56741  23.212   2.076   6.939
 4468POPC   C4A56742  23.011   2.108   7.319
 4468POPC   C1B56743  22.866   1.655   6.215
 4468POPC   C2B56744  23.101   1.588   6.608
 4468POPC   C3B56745  22.959   1.661   7.052
 4468POPC   C4B56746  23.070   1.657   7.532
 4469POPC   NC356747   6.342  12.548   5.401
 4469POPC   PO456748   6.811  12.112   5.278
 4469POPC   GL156749   6.749  12.149   5.754
 4469POPC   GL256750   6.574  12.411   5.992
 4469POPC   C1A56751   6.791  12.022   6.188
 4469POPC   D2A56752   6.730  11.688   6.442
 4469POPC   C3A56753   6.815  11.690   6.862
 4469POPC   C4A56754   6.892  11.987   7.153
 4469POPC   C1B56755   6.647  12.559   6.418
 4469POPC   C2B56756   6.517  12.331   6.784
 4469POPC   C3B56757   6.554  12.366   7.221
 4469POPC   C4B56758   6.438  12.444   7.632
 4470POPC   NC356759  24.765  12.401   5.240
 4470POPC   PO456760  25.267  11.948   5.412
 4470POPC   GL156761  25.138  12.005   5.824
 4470POPC   GL256762  25.017  11.705   5.926
 4470POPC   C1A56763  25.187  12.225   6.197
 4470POPC   D2A56764  25.392  12.318   6.571
 4470POPC   C3A56765  25.303  12.355   6.973
 4470POPC   C4A56766  25.395  12.120   7.354
 4470POPC   C1B56767  24.861  11.854   6.291
 4470POPC   C2B56768  24.943  12.059   6.648
 4470POPC   C3B56769  25.056  11.899   7.028
 4470POPC   C4B56770  24.884  12.219   7.240
 4471POPC   NC356771  16.963  25.127   5.473
 4471POPC   PO456772  16.398  24.925   5.619
 4471POPC   GL156773  16.668  25.143   5.907
 4471POPC   GL256774  16.698  25.463   5.739
 4471POPC   C1A56775  16.633  25.353   6.317
 4471POPC   D2A56776  16.341  25.320   6.687
 4471POPC   C3A56777  16.517  25.242   7.107
 4471POPC   C4A56778  16.968  25.128   7.200
 4471POPC   C1B56779  16.867  25.717   6.016
 4471POPC   C2B56780  16.851  25.823   6.439
 4471POPC   C3B56781  16.796  25.569   6.779
 4471POPC   C4B56782  16.890  25.626   7.174
 4472POPC   NC356783   7.290  37.138   5.434
 4472POPC   PO456784   7.860  36.705   5.368
 4472POPC   GL156785   7.723  36.948   5.733
 4472POPC   GL256786   7.367  36.872   5.851
 4472POPC   C1A56787   7.681  37.131   6.151
 4472POPC   D2A56788   7.472  37.298   6.488
 4472POPC   C3A56789   7.320  36.995   6.754
 4472POPC   C4A56790   7.663  36.963   6.997
 4472POPC   C1B56791   7.558  36.590   6.140
 4472POPC   C2B56792   7.702  36.697   6.533
 4472POPC   C3B56793   7.495  36.508   6.856
 4472POPC   C4B56794   7.646  36.483   7.213
 4473POPC   NC356795  41.216  32.153   5.445
 4473POPC   PO456796  41.642  32.682   5.325
 4473POPC   GL156797  41.606  32.335   5.766
 4473POPC   GL256798  41.606  31.955   5.765
 4473POPC   C1A56799  41.700  32.357   6.246
 4473POPC   D2A56800  41.826  32.522   6.690
 4473POPC   C3A56801  41.602  32.376   7.093
 4473POPC   C4A56802  41.449  32.503   7.544
 4473POPC   C1B56803  41.644  31.843   6.231
 4473POPC   C2B56804  41.553  31.992   6.678
 4473POPC   C3B56805  41.792  31.903   7.073
 4473POPC   C4B56806  41.773  31.998   7.560
 4474POPC   NC356807  15.198  13.388   5.565
 4474POPC   PO456808  15.512  14.016   5.444
 4474POPC   GL156809  15.246  13.874   5.821
 4474POPC   GL256810  15.373  13.553   6.001
 4474POPC   C1A56811  14.978  13.770   6.213
 4474POPC   D2A56812  15.087  13.523   6.574
 4474POPC   C3A56813  15.129  13.661   7.005
 4474POPC   C4A56814  14.890  13.381   7.262
 4474POPC   C1B56815  15.494  13.785   6.344
 4474POPC   C2B56816  15.585  13.702   6.780
 4474POPC   C3B56817  15.567  13.457   7.185
 4474POPC   C4B56818  15.656  13.507   7.640
 4475POPC   NC356819  21.260  12.702   5.464
 4475POPC   PO456820  21.604  13.200   5.549
 4475POPC   GL156821  21.474  12.986   5.844
 4475POPC   GL256822  21.166  13.153   5.855
 4475POPC   C1A56823  21.591  12.813   6.236
 4475POPC   D2A56824  21.447  12.665   6.619
 4475POPC   C3A56825  21.609  12.957   6.898
 4475POPC   C4A56826  21.350  12.904   7.219
 4475POPC   C1B56827  21.105  12.750   6.128
 4475POPC   C2B56828  20.942  12.697   6.533
 4475POPC   C3B56829  21.010  12.560   6.960
 4475POPC   C4B56830  20.904  12.717   7.375
 4476POPC   NC356831  38.096  27.399   5.177
 4476POPC   PO456832  38.747  27.509   5.270
 4476POPC   GL156833  38.660  27.487   5.740
 4476POPC   GL256834  38.410  27.748   5.914
 4476POPC   C1A56835  38.635  27.357   6.177
 4476POPC   D2A56836  38.589  27.575   6.573
 4476POPC   C3A56837  38.587  27.346   6.946
 4476POPC   C4A56838  38.574  27.509   7.330
 4476POPC   C1B56839  38.057  27.848   6.213
 4476POPC   C2B56840  37.911  27.822   6.621
 4476POPC   C3B56841  38.116  27.798   6.998
 4476POPC   C4B56842  38.295  27.944   7.357
 4477POPC   NC356843  24.320   8.490   5.470
 4477POPC   PO456844  24.660   7.891   5.287
 4477POPC   GL156845  24.528   7.945   5.702
 4477POPC   GL256846  24.185   7.998   5.662
 4477POPC   C1A56847  24.574   8.180   6.089
 4477POPC   D2A56848  24.668   8.015   6.509
 4477POPC   C3A56849  24.643   8.286   6.855
 4477POPC   C4A56850  24.603   8.171   7.268
 4477POPC   C1B56851  24.151   7.890   6.114
 4477POPC   C2B56852  24.237   7.735   6.517
 4477POPC   C3B56853  24.294   7.914   6.909
 4477POPC   C4B56854  24.193   7.791   7.316
 4478POPC   NC356855  19.198  40.340   5.400
 4478POPC   PO456856  18.793  39.912   5.517
 4478POPC   GL156857  19.001  40.139   5.839
 4478POPC   GL256858  19.377  40.208   5.873
 4478POPC   C1A56859  19.074  39.997   6.247
 4478POPC   D2A56860  18.894  39.790   6.586
 4478POPC   C3A56861  18.985  40.067   6.883
 4478POPC   C4A56862  18.922  39.970   7.299
 4478POPC   C1B56863  19.578  39.895   6.186
 4478POPC   C2B56864  19.417  39.779   6.621
 4478POPC   C3B56865  19.382  39.845   7.096
 4478POPC   C4B56866  19.415  40.080   7.480
 4479POPC   NC356867  38.614  38.184   5.562
 4479POPC   PO456868  38.320  37.628   5.290
 4479POPC   GL156869  38.366  37.758   5.724
 4479POPC   GL256870  38.126  38.043   5.726
 4479POPC   C1A56871  38.676  37.716   6.106
 4479POPC   D2A56872  38.801  37.536   6.530
 4479POPC   C3A56873  38.511  37.668   6.904
 4479POPC   C4A56874  38.593  37.786   7.334
 4479POPC   C1B56875  38.196  37.911   6.187
 4479POPC   C2B56876  38.178  38.016   6.643
 4479POPC   C3B56877  38.274  38.117   7.085
 4479POPC   C4B56878  38.244  38.098   7.561
 4480POPC   NC356879  37.235  37.138   5.364
 4480POPC   PO456880  36.679  36.882   5.393
 4480POPC   GL156881  36.879  36.955   5.775
 4480POPC   GL256882  36.996  37.284   5.809
 4480POPC   C1A56883  36.841  37.022   6.220
 4480POPC   D2A56884  36.860  36.764   6.579
 4480POPC   C3A56885  37.037  36.742   6.960
 4480POPC   C4A56886  36.857  36.978   7.277
 4480POPC   C1B56887  37.226  37.349   6.149
 4480POPC   C2B56888  37.256  37.138   6.514
 4480POPC   C3B56889  37.136  37.238   6.892
 4480POPC   C4B56890  37.320  37.188   7.284
 4481POPC   NC356891  39.452  42.238   5.553
 4481POPC   PO456892  38.768  42.182   5.515
 4481POPC   GL156893  39.006  42.113   5.848
 4481POPC   GL256894  39.101  42.454   5.876
 4481POPC   C1A56895  39.120  42.099   6.281
 4481POPC   D2A56896  38.931  41.931   6.677
 4481POPC   C3A56897  39.114  42.130   7.019
 4481POPC   C4A56898  39.573  42.161   7.077
 4481POPC   C1B56899  39.369  42.539   6.227
 4481POPC   C2B56900  39.363  42.444   6.669
 4481POPC   C3B56901  39.275  42.614   7.085
 4481POPC   C4B56902  39.240  42.767   7.497
 4482POPC   NC356903  12.473   8.655   5.277
 4482POPC   PO456904  13.070   8.978   5.459
 4482POPC   GL156905  12.863   8.921   5.860
 4482POPC   GL256906  12.687   8.632   5.755
 4482POPC   C1A56907  12.972   8.680   6.235
 4482POPC   D2A56908  13.094   8.624   6.670
 4482POPC   C3A56909  12.991   8.973   6.944
 4482POPC   C4A56910  13.126   9.003   7.374
 4482POPC   C1B56911  12.471   8.684   6.139
 4482POPC   C2B56912  12.611   8.897   6.529
 4482POPC   C3B56913  12.495   8.903   6.941
 4482POPC   C4B56914  12.623   8.933   7.339
 4483POPC   NC356915  41.739  37.132   5.090
 4483POPC   PO456916  41.382  36.685   5.341
 4483POPC   GL156917  41.320  36.876   5.742
 4483POPC   GL256918  41.080  36.668   5.812
 4483POPC   C1A56919  41.399  36.949   6.204
 4483POPC   D2A56920  41.665  37.015   6.594
 4483POPC   C3A56921  41.611  36.796   6.991
 4483POPC   C4A56922  41.747  36.936   7.411
 4483POPC   C1B56923  41.012  36.608   6.237
 4483POPC   C2B56924  41.244  36.686   6.620
 4483POPC   C3B56925  41.153  36.549   7.022
 4483POPC   C4B56926  41.361  36.577   7.401
 4484POPC   NC356927  32.410   3.873   5.400
 4484POPC   PO456928  32.119   3.218   5.456
 4484POPC   GL156929  32.268   3.375   5.827
 4484POPC   GL256930  32.206   3.727   5.840
 4484POPC   C1A56931  32.278   3.464   6.273
 4484POPC   D2A56932  32.002   3.513   6.627
 4484POPC   C3A56933  32.207   3.300   6.905
 4484POPC   C4A56934  32.291   3.198   7.278
 4484POPC   C1B56935  31.893   3.801   6.167
 4484POPC   C2B56936  31.837   3.994   6.571
 4484POPC   C3B56937  31.949   3.973   7.005
 4484POPC   C4B56938  31.999   3.613   7.284
 4485POPC   NC356939  24.795  41.979   5.503
 4485POPC   PO456940  24.171  41.673   5.528
 4485POPC   GL156941  24.327  41.661   5.935
 4485POPC   GL256942  24.680  41.637   5.957
 4485POPC   C1A56943  24.338  41.533   6.385
 4485POPC   D2A56944  24.309  41.473   6.817
 4485POPC   C3A56945  24.436  41.768   7.135
 4485POPC   C4A56946  24.486  41.621   7.544
 4485POPC   C1B56947  24.691  41.211   6.204
 4485POPC   C2B56948  24.673  41.107   6.687
 4485POPC   C3B56949  24.655  41.297   7.149
 4485POPC   C4B56950  24.838  41.231   7.618
 4486POPC   NC356951   1.569   8.244   5.386
 4486POPC   PO456952   2.082   7.892   5.189
 4486POPC   GL156953   1.946   7.865   5.652
 4486POPC   GL256954   1.931   8.215   5.764
 4486POPC   C1A56955   2.080   7.834   6.123
 4486POPC   D2A56956   2.286   8.082   6.488
 4486POPC   C3A56957   2.103   8.402   6.737
 4486POPC   C4A56958   2.290   8.555   7.138
 4486POPC   C1B56959   1.761   8.240   6.184
 4486POPC   C2B56960   1.789   7.988   6.542
 4486POPC   C3B56961   1.941   7.915   6.928
 4486POPC   C4B56962   1.793   8.243   7.126
 4487POPC   NC356963   5.219  33.233   5.544
 4487POPC   PO456964   4.719  32.889   5.809
 4487POPC   GL156965   5.042  32.753   6.007
 4487POPC   GL256966   5.360  32.772   5.806
 4487POPC   C1A56967   4.997  32.869   6.436
 4487POPC   D2A56968   4.785  33.141   6.725
 4487POPC   C3A56969   4.928  32.949   7.103
 4487POPC   C4A56970   5.124  33.076   7.487
 4487POPC   C1B56971   5.486  32.852   6.245
 4487POPC   C2B56972   5.438  32.785   6.723
 4487POPC   C3B56973   5.438  33.107   7.079
 4487POPC   C4B56974   5.381  33.474   7.363
 4488POPC   NC356975   3.189  41.407   5.533
 4488POPC   PO456976   2.768  41.926   5.442
 4488POPC   GL156977   2.692  41.802   5.853
 4488POPC   GL256978   2.900  41.530   5.927
 4488POPC   C1A56979   2.508  41.655   6.239
 4488POPC   D2A56980   2.619  41.398   6.549
 4488POPC   C3A56981   2.676  41.654   6.879
 4488POPC   C4A56982   2.628  41.558   7.291
 4488POPC   C1B56983   3.074  41.421   6.331
 4488POPC   C2B56984   2.997  41.051   6.590
 4488POPC   C3B56985   2.869  41.171   6.975
 4488POPC   C4B56986   3.081  41.324   7.317
 4489POPC   NC356987  24.105  42.136   5.496
 4489POPC   PO456988  24.652  42.526   5.404
 4489POPC   GL156989  24.507  42.532   5.799
 4489POPC   GL256990  24.481  42.169   5.863
 4489POPC   C1A56991  24.718  42.497   6.204
 4489POPC   D2A56992  24.501  42.399   6.604
 4489POPC   C3A56993  24.723  42.512   6.941
 4489POPC   C4A56994  24.561  42.388   7.315
 4489POPC   C1B56995  24.497  42.015   6.279
 4489POPC   C2B56996  24.678  41.874   6.676
 4489POPC   C3B56997  24.880  42.016   7.066
 4489POPC   C4B56998  24.833  42.029   7.521
 4490POPC   NC356999   5.439   7.146   5.373
 4490POPC   PO457000   5.963   7.520   5.458
 4490POPC   GL157001   6.202   7.534   5.799
 4490POPC   GL257002   6.169   7.195   5.921
 4490POPC   C1A57003   6.022   7.641   6.183
 4490POPC   D2A57004   6.238   7.624   6.557
 4490POPC   C3A57005   6.096   7.402   6.921
 4490POPC   C4A57006   5.837   7.553   7.279
 4490POPC   C1B57007   6.108   7.155   6.350
 4490POPC   C2B57008   5.749   7.337   6.511
 4490POPC   C3B57009   5.582   7.407   6.869
 4490POPC   C4B57010   5.777   7.048   7.134
 4491POPC   NC357011  34.936  28.926   5.269
 4491POPC   PO457012  34.459  29.381   5.435
 4491POPC   GL157013  34.644  29.161   5.788
 4491POPC   GL257014  34.853  28.858   5.779
 4491POPC   C1A57015  34.493  29.194   6.214
 4491POPC   D2A57016  34.698  29.205   6.607
 4491POPC   C3A57017  34.455  29.168   6.935
 4491POPC   C4A57018  34.624  29.129   7.313
 4491POPC   C1B57019  34.743  28.775   6.217
 4491POPC   C2B57020  34.513  28.739   6.621
 4491POPC   C3B57021  34.710  28.724   6.993
 4491POPC   C4B57022  35.058  28.906   7.202
 4492POPC   NC357023   9.120  22.568   5.576
 4492POPC   PO457024   8.848  22.041   5.276
 4492POPC   GL157025   9.033  22.064   5.717
 4492POPC   GL257026   8.771  22.282   5.801
 4492POPC   C1A57027   9.065  22.166   6.210
 4492POPC   D2A57028   9.019  21.995   6.658
 4492POPC   C3A57029   9.204  22.245   7.010
 4492POPC   C4A57030   9.312  22.270   7.459
 4492POPC   C1B57031   8.617  21.921   6.067
 4492POPC   C2B57032   8.459  21.913   6.523
 4492POPC   C3B57033   8.589  21.910   6.967
 4492POPC   C4B57034   8.646  22.100   7.368
 4493POPC   NC357035  27.284  34.918   5.545
 4493POPC   PO457036  27.814  34.339   5.553
 4493POPC   GL157037  27.702  34.713   5.766
 4493POPC   GL257038  27.393  34.753   5.994
 4493POPC   C1A57039  27.836  34.906   6.160
 4493POPC   D2A57040  27.615  34.928   6.551
 4493POPC   C3A57041  27.700  34.692   6.915
 4493POPC   C4A57042  27.676  34.880   7.325
 4493POPC   C1B57043  27.541  34.462   6.282
 4493POPC   C2B57044  27.435  34.199   6.633
 4493POPC   C3B57045  27.302  34.136   7.038
 4493POPC   C4B57046  27.357  34.470   7.338
 4494POPC   NC357047  22.721  17.559   5.353
 4494POPC   PO457048  23.341  17.439   5.247
 4494POPC   GL157049  23.120  17.537   5.690
 4494POPC   GL257050  22.880  17.312   5.776
 4494POPC   C1A57051  22.860  17.704   6.106
 4494POPC   D2A57052  22.825  17.886   6.525
 4494POPC   C3A57053  23.021  17.641   6.860
 4494POPC   C4A57054  22.906  17.620   7.290
 4494POPC   C1B57055  23.122  17.279   6.179
 4494POPC   C2B57056  22.887  17.185   6.564
 4494POPC   C3B57057  22.867  17.149   7.010
 4494POPC   C4B57058  23.277  17.206   7.176
 4495POPC   NC357059  32.028  38.426   5.349
 4495POPC   PO457060  32.508  38.832   5.556
 4495POPC   GL157061  32.126  38.663   5.829
 4495POPC   GL257062  31.985  38.317   5.850
 4495POPC   C1A57063  32.075  38.609   6.272
 4495POPC   D2A57064  32.432  38.517   6.547
 4495POPC   C3A57065  32.311  38.563   6.958
 4495POPC   C4A57066  32.100  38.273   7.193
 4495POPC   C1B57067  31.956  38.106   6.247
 4495POPC   C2B57068  32.064  38.157   6.686
 4495POPC   C3B57069  32.443  38.039   6.909
 4495POPC   C4B57070  32.401  37.875   7.361
 4496POPC   NC357071  19.314  16.440   5.481
 4496POPC   PO457072  18.701  16.708   5.308
 4496POPC   GL157073  18.835  16.547   5.737
 4496POPC   GL257074  19.101  16.761   5.831
 4496POPC   C1A57075  18.886  16.526   6.226
 4496POPC   D2A57076  18.777  16.831   6.602
 4496POPC   C3A57077  18.982  16.708   6.937
 4496POPC   C4A57078  18.854  16.550   7.292
 4496POPC   C1B57079  18.997  17.035   6.157
 4496POPC   C2B57080  19.054  17.285   6.516
 4496POPC   C3B57081  19.266  17.179   6.886
 4496POPC   C4B57082  19.178  16.994   7.303
 4497POPC   NC357083   2.330   6.570   5.378
 4497POPC   PO457084   1.823   7.050   5.308
 4497POPC   GL157085   1.872   6.886   5.729
 4497POPC   GL257086   1.985   6.537   5.766
 4497POPC   C1A57087   2.064   6.887   6.132
 4497POPC   D2A57088   2.018   6.702   6.518
 4497POPC   C3A57089   1.891   6.922   6.847
 4497POPC   C4A57090   2.055   6.765   7.222
 4497POPC   C1B57091   1.829   6.398   6.154
 4497POPC   C2B57092   1.796   6.225   6.554
 4497POPC   C3B57093   1.939   6.355   6.958
 4497POPC   C4B57094   2.053   6.265   7.397
 4498POPC   NC357095   9.345   9.174   5.626
 4498POPC   PO457096   8.780   8.856   5.500
 4498POPC   GL157097   8.982   8.842   5.865
 4498POPC   GL257098   8.903   9.198   5.900
 4498POPC   C1A57099   8.982   8.897   6.303
 4498POPC   D2A57100   8.874   9.208   6.574
 4498POPC   C3A57101   9.074   9.067   6.926
 4498POPC   C4A57102   9.001   8.689   7.158
 4498POPC   C1B57103   8.543   9.164   6.165
 4498POPC   C2B57104   8.392   8.984   6.556
 4498POPC   C3B57105   8.447   9.160   6.964
 4498POPC   C4B57106   8.731   9.191   7.265
 4499POPC   NC357107  39.521  22.342   5.511
 4499POPC   PO457108  39.090  21.796   5.295
 4499POPC   GL157109  39.138  22.020   5.671
 4499POPC   GL257110  39.433  21.891   5.763
 4499POPC   C1A57111  39.083  21.925   6.123
 4499POPC   D2A57112  38.969  22.158   6.467
 4499POPC   C3A57113  39.030  22.079   6.906
 4499POPC   C4A57114  38.974  22.180   7.348
 4499POPC   C1B57115  39.549  22.097   6.164
 4499POPC   C2B57116  39.559  21.856   6.548
 4499POPC   C3B57117  39.430  21.768   6.946
 4499POPC   C4B57118  39.544  22.175   7.077
 4500POPC   NC357119   9.533  35.998   5.661
 4500POPC   PO457120  10.084  36.296   5.526
 4500POPC   GL157121  10.098  35.949   5.785
 4500POPC   GL257122   9.878  35.687   5.831
 4500POPC   C1A57123  10.035  35.996   6.216
 4500POPC   D2A57124  10.079  36.275   6.569
 4500POPC   C3A57125   9.875  36.145   6.936
 4500POPC   C4A57126   9.458  36.130   7.094
 4500POPC   C1B57127   9.614  35.690   6.221
 4500POPC   C2B57128   9.538  35.863   6.633
 4500POPC   C3B57129   9.507  35.632   7.015
 4500POPC   C4B57130   9.617  35.739   7.438
 4501POPC   NC357131  26.354  31.930   5.491
 4501POPC   PO457132  25.849  32.432   5.372
 4501POPC   GL157133  26.026  32.250   5.736
 4501POPC   GL257134  25.856  31.955   5.738
 4501POPC   C1A57135  26.170  32.100   6.173
 4501POPC   D2A57136  25.971  32.199   6.591
 4501POPC   C3A57137  26.122  32.255   7.030
 4501POPC   C4A57138  26.159  32.169   7.515
 4501POPC   C1B57139  25.659  32.142   6.165
 4501POPC   C2B57140  25.483  32.034   6.590
 4501POPC   C3B57141  25.699  31.948   6.972
 4501POPC   C4B57142  25.680  32.115   7.368
 4502POPC   NC357143  37.284  29.048   5.689
 4502POPC   PO457144  37.784  29.340   5.369
 4502POPC   GL157145  37.855  29.197   5.810
 4502POPC   GL257146  37.744  28.858   5.950
 4502POPC   C1A57147  37.838  29.302   6.272
 4502POPC   D2A57148  37.758  29.093   6.684
 4502POPC   C3A57149  37.856  29.309   7.068
 4502POPC   C4A57150  37.459  29.463   7.184
 4502POPC   C1B57151  37.465  28.681   6.300
 4502POPC   C2B57152  37.322  28.611   6.737
 4502POPC   C3B57153  37.621  28.593   7.093
 4502POPC   C4B57154  37.771  28.795   7.449
 4503POPC   NC357155  10.551  42.742   5.476
 4503POPC   PO457156  10.149  42.157   5.621
 4503POPC   GL157157  10.517  42.371   5.853
 4503POPC   GL257158  10.732  42.695   5.943
 4503POPC   C1A57159  10.348  42.556   6.252
 4503POPC   D2A57160  10.191  42.716   6.655
 4503POPC   C3A57161  10.409  42.455   6.994
 4503POPC   C4A57162  10.320  42.265   7.421
 4503POPC   C1B57163  10.844  42.385   6.283
 4503POPC   C2B57164  10.758  42.177   6.681
 4503POPC   C3B57165  10.822  42.138   7.124
 4503POPC   C4B57166  10.829  42.207   7.560
 4504POPC   NC357167   8.801  27.181   5.146
 4504POPC   PO457168   9.238  27.662   5.100
 4504POPC   GL157169   9.141  27.608   5.586
 4504POPC   GL257170   8.834  27.431   5.743
 4504POPC   C1A57171   9.237  27.503   6.062
 4504POPC   D2A57172   9.020  27.286   6.420
 4504POPC   C3A57173   9.190  27.329   6.865
 4504POPC   C4A57174   9.179  27.732   7.096
 4504POPC   C1B57175   8.757  27.736   6.111
 4504POPC   C2B57176   8.720  28.025   6.483
 4504POPC   C3B57177   8.777  27.982   6.920
 4504POPC   C4B57178   8.718  27.574   7.186
 4505POPC   NC357179  32.679   6.971   5.403
 4505POPC   PO457180  32.009   6.627   5.371
 4505POPC   GL157181  32.038   6.605   5.796
 4505POPC   GL257182  32.402   6.566   5.786
 4505POPC   C1A57183  32.103   6.478   6.215
 4505POPC   D2A57184  32.277   6.606   6.570
 4505POPC   C3A57185  32.130   6.598   6.961
 4505POPC   C4A57186  32.194   7.010   7.118
 4505POPC   C1B57187  32.597   6.496   6.174
 4505POPC   C2B57188  32.756   6.759   6.485
 4505POPC   C3B57189  32.616   6.826   6.878
 4505POPC   C4B57190  32.603   6.660   7.251
 4506POPC   NC357191   7.197  24.200   5.359
 4506POPC   PO457192   7.395  24.821   5.456
 4506POPC   GL157193   7.492  24.549   5.799
 4506POPC   GL257194   7.174  24.476   5.788
 4506POPC   C1A57195   7.657  24.369   6.217
 4506POPC   D2A57196   7.843  24.208   6.611
 4506POPC   C3A57197   7.595  24.203   6.988
 4506POPC   C4A57198   7.599  24.373   7.404
 4506POPC   C1B57199   7.194  24.177   6.086
 4506POPC   C2B57200   7.245  24.143   6.517
 4506POPC   C3B57201   6.969  24.363   6.814
 4506POPC   C4B57202   7.100  24.463   7.250
 4507POPC   NC357203  18.224  11.367   5.509
 4507POPC   PO457204  18.784  10.975   5.617
 4507POPC   GL157205  18.407  11.069   5.885
 4507POPC   GL257206  18.006  11.144   5.913
 4507POPC   C1A57207  18.387  11.157   6.301
 4507POPC   D2A57208  18.553  11.246   6.686
 4507POPC   C3A57209  18.306  11.147   7.050
 4507POPC   C4A57210  18.567  11.404   7.316
 4507POPC   C1B57211  18.008  11.475   6.209
 4507POPC   C2B57212  17.985  11.318   6.642
 4507POPC   C3B57213  17.957  11.518   7.021
 4507POPC   C4B57214  18.239  11.801   7.175
 4508POPC   NC357215  34.867  12.785   5.486
 4508POPC   PO457216  35.493  12.925   5.425
 4508POPC   GL157217  35.251  13.155   5.778
 4508POPC   GL257218  35.185  12.840   5.903
 4508POPC   C1A57219  35.069  13.179   6.250
 4508POPC   D2A57220  35.272  13.112   6.660
 4508POPC   C3A57221  35.081  13.016   7.077
 4508POPC   C4A57222  35.386  12.998   7.415
 4508POPC   C1B57223  35.325  12.667   6.315
 4508POPC   C2B57224  35.643  12.580   6.658
 4508POPC   C3B57225  35.653  12.637   7.103
 4508POPC   C4B57226  35.246  12.540   7.253
 4509POPC   NC357227   8.441  20.783   5.467
 4509POPC   PO457228   7.932  20.356   5.411
 4509POPC   GL157229   8.140  20.526   5.811
 4509POPC   GL257230   8.478  20.369   5.785
 4509POPC   C1A57231   8.287  20.563   6.263
 4509POPC   D2A57232   8.084  20.353   6.593
 4509POPC   C3A57233   7.968  20.533   6.987
 4509POPC   C4A57234   8.098  20.499   7.425
 4509POPC   C1B57235   8.793  20.564   6.059
 4509POPC   C2B57236   8.782  20.653   6.478
 4509POPC   C3B57237   8.465  20.654   6.810
 4509POPC   C4B57238   8.576  20.585   7.241
 4510POPC   NC357239  16.449  41.491   5.406
 4510POPC   PO457240  15.827  41.581   5.298
 4510POPC   GL157241  15.931  41.542   5.713
 4510POPC   GL257242  15.912  41.182   5.742
 4510POPC   C1A57243  15.829  41.788   6.099
 4510POPC   D2A57244  15.850  41.918   6.531
 4510POPC   C3A57245  15.933  41.581   6.797
 4510POPC   C4A57246  15.925  41.550   7.231
 4510POPC   C1B57247  16.075  41.326   6.149
 4510POPC   C2B57248  16.332  41.404   6.529
 4510POPC   C3B57249  16.404  41.546   6.985
 4510POPC   C4B57250  16.425  41.338   7.404
 4511POPC   NC357251  14.517  43.260   5.341
 4511POPC   PO457252  14.812  42.684   5.352
 4511POPC   GL157253  14.517  42.884   5.721
 4511POPC   GL257254  14.232  43.171   5.754
 4511POPC   C1A57255  14.457  42.896   6.191
 4511POPC   D2A57256  14.704  42.725   6.532
 4511POPC   C3A57257  14.668  42.896   6.911
 4511POPC   C4A57258  14.416  42.982   7.235
 4511POPC   C1B57259  14.292  43.370   6.171
 4511POPC   C2B57260  14.291  43.201   6.615
 4511POPC   C3B57261  14.157  43.359   7.023
 4511POPC   C4B57262  14.246  43.659   7.365
 4512POPC   NC357263  21.662  29.307   5.406
 4512POPC   PO457264  21.029  29.015   5.553
 4512POPC   GL157265  21.230  29.040   5.905
 4512POPC   GL257266  21.562  28.906   5.809
 4512POPC   C1A57267  21.127  29.088   6.330
 4512POPC   D2A57268  21.286  28.866   6.679
 4512POPC   C3A57269  21.196  29.125   7.013
 4512POPC   C4A57270  21.360  29.132   7.409
 4512POPC   C1B57271  21.631  28.985   6.267
 4512POPC   C2B57272  21.677  29.294   6.619
 4512POPC   C3B57273  21.678  29.335   7.073
 4512POPC   C4B57274  21.889  29.108   7.407
 4513POPC   NC357275  40.776  19.809   5.439
 4513POPC   PO457276  40.249  19.505   5.611
 4513POPC   GL157277  40.562  19.763   5.885
 4513POPC   GL257278  40.684  20.098   5.862
 4513POPC   C1A57279  40.854  19.753   6.211
 4513POPC   D2A57280  41.175  19.782   6.532
 4513POPC   C3A57281  40.952  19.901   6.895
 4513POPC   C4A57282  41.016  19.565   7.157
 4513POPC   C1B57283  40.601  20.200   6.294
 4513POPC   C2B57284  40.508  19.907   6.605
 4513POPC   C3B57285  40.392  19.903   7.024
 4513POPC   C4B57286  40.439  20.068   7.431
 4514POPC   NC357287  44.195  14.638   5.635
 4514POPC   PO457288  44.810  14.882   5.450
 4514POPC   GL157289  44.851  14.688   5.849
 4514POPC   GL257290  44.918  14.328   5.836
 4514POPC   C1A57291  44.567  14.536   6.178
 4514POPC   D2A57292  44.254  14.476   6.509
 4514POPC   C3A57293  44.373  14.605   6.928
 4514POPC   C4A57294  44.334  14.293   7.243
 4514POPC   C1B57295  44.921  14.155   6.218
 4514POPC   C2B57296  44.731  14.308   6.612
 4514POPC   C3B57297  44.661  14.074   6.952
 4514POPC   C4B57298  44.973  14.008   7.254
 4515POPC   NC357299  15.742  38.508   5.501
 4515POPC   PO457300  16.330  38.143   5.600
 4515POPC   GL157301  16.147  38.463   5.820
 4515POPC   GL257302  15.858  38.320   5.962
 4515POPC   C1A57303  16.199  38.571   6.244
 4515POPC   D2A57304  15.965  38.566   6.598
 4515POPC   C3A57305  16.047  38.449   7.032
 4515POPC   C4A57306  15.832  38.651   7.404
 4515POPC   C1B57307  15.684  38.164   6.335
 4515POPC   C2B57308  15.697  38.178   6.786
 4515POPC   C3B57309  15.642  38.217   7.218
 4515POPC   C4B57310  15.889  38.192   7.595
 4516POPC   NC357311  43.298  24.773   5.133
 4516POPC   PO457312  43.089  25.339   5.300
 4516POPC   GL157313  43.323  25.103   5.637
 4516POPC   GL257314  43.047  25.200   5.800
 4516POPC   C1A57315  43.395  25.183   6.144
 4516POPC   D2A57316  43.377  25.424   6.543
 4516POPC   C3A57317  43.341  25.178   6.950
 4516POPC   C4A57318  43.554  25.262   7.335
 4516POPC   C1B57319  42.855  25.195   6.204
 4516POPC   C2B57320  42.949  25.143   6.619
 4516POPC   C3B57321  42.801  25.189   7.026
 4516POPC   C4B57322  43.019  25.277   7.439
 4517POPC   NC357323  11.802   7.968   5.316
 4517POPC   PO457324  12.260   8.372   5.569
 4517POPC   GL157325  11.868   8.323   5.796
 4517POPC   GL257326  11.597   8.579   5.854
 4517POPC   C1A57327  11.912   8.124   6.215
 4517POPC   D2A57328  12.173   8.111   6.568
 4517POPC   C3A57329  11.991   8.024   6.947
 4517POPC   C4A57330  12.249   8.036   7.272
 4517POPC   C1B57331  11.400   8.638   6.228
 4517POPC   C2B57332  11.609   8.428   6.529
 4517POPC   C3B57333  11.756   8.530   6.910
 4517POPC   C4B57334  11.851   8.396   7.300
 4518POPC   NC357335  17.624  12.071   5.129
 4518POPC   PO457336  17.569  12.301   5.713
 4518POPC   GL157337  17.207  12.116   5.876
 4518POPC   GL257338  16.997  12.424   5.856
 4518POPC   C1A57339  17.304  12.013   6.312
 4518POPC   D2A57340  17.614  12.214   6.614
 4518POPC   C3A57341  17.674  11.931   6.947
 4518POPC   C4A57342  17.611  11.765   7.311
 4518POPC   C1B57343  16.920  12.338   6.280
 4518POPC   C2B57344  17.106  12.289   6.718
 4518POPC   C3B57345  17.390  12.307   7.094
 4518POPC   C4B57346  17.501  12.308   7.539
 4519POPC   NC357347  40.974   9.810   5.448
 4519POPC   PO457348  40.602   9.526   5.920
 4519POPC   GL157349  41.018   9.739   5.975
 4519POPC   GL257350  41.000  10.076   5.918
 4519POPC   C1A57351  41.188   9.837   6.391
 4519POPC   D2A57352  40.889   9.640   6.672
 4519POPC   C3A57353  40.760   9.517   7.094
 4519POPC   C4A57354  40.454   9.162   7.224
 4519POPC   C1B57355  40.718  10.029   6.306
 4519POPC   C2B57356  40.593  10.061   6.725
 4519POPC   C3B57357  40.576  10.007   7.147
 4519POPC   C4B57358  40.790   9.906   7.484
 4520POPC   NC357359   5.560  42.511   5.422
 4520POPC   PO457360   6.066  42.137   5.608
 4520POPC   GL157361   5.855  42.320   5.903
 4520POPC   GL257362   5.920  42.646   5.851
 4520POPC   C1A57363   5.896  42.188   6.319
 4520POPC   D2A57364   5.632  42.125   6.639
 4520POPC   C3A57365   5.892  42.095   6.986
 4520POPC   C4A57366   5.795  42.127   7.422
 4520POPC   C1B57367   5.776  42.684   6.301
 4520POPC   C2B57368   5.899  42.559   6.725
 4520POPC   C3B57369   6.012  42.549   7.161
 4520POPC   C4B57370   6.035  42.834   7.479
 4521POPC   NC357371   8.977  19.372   5.196
 4521POPC   PO457372   8.863  19.975   5.410
 4521POPC   GL157373   8.852  19.750   5.786
 4521POPC   GL257374   8.909  20.086   5.930
 4521POPC   C1A57375   8.702  19.715   6.212
 4521POPC   D2A57376   8.854  19.548   6.584
 4521POPC   C3A57377   8.791  19.745   6.978
 4521POPC   C4A57378   8.995  19.695   7.384
 4521POPC   C1B57379   9.212  19.821   6.156
 4521POPC   C2B57380   9.305  19.895   6.565
 4521POPC   C3B57381   9.314  19.687   6.913
 4521POPC   C4B57382   9.491  19.836   7.277
 4522POPC   NC357383  35.425  11.752   5.360
 4522POPC   PO457384  35.496  11.135   5.283
 4522POPC   GL157385  35.301  11.234   5.709
 4522POPC   GL257386  35.306  11.595   5.818
 4522POPC   C1A57387  35.220  11.051   6.146
 4522POPC   D2A57388  35.482  11.044   6.553
 4522POPC   C3A57389  35.337  11.178   6.953
 4522POPC   C4A57390  35.099  10.918   7.241
 4522POPC   C1B57391  35.377  11.739   6.234
 4522POPC   C2B57392  35.528  11.561   6.620
 4522POPC   C3B57393  35.674  11.594   7.040
 4522POPC   C4B57394  35.729  11.572   7.509
 4523POPC   NC357395  35.943  26.287   5.366
 4523POPC   PO457396  36.407  25.843   5.429
 4523POPC   GL157397  36.147  25.980   5.770
 4523POPC   GL257398  35.788  25.953   5.781
 4523POPC   C1A57399  36.114  26.104   6.193
 4523POPC   D2A57400  36.091  25.896   6.576
 4523POPC   C3A57401  36.343  26.007   6.910
 4523POPC   C4A57402  36.250  25.922   7.338
 4523POPC   C1B57403  35.615  26.188   6.139
 4523POPC   C2B57404  35.738  26.256   6.581
 4523POPC   C3B57405  35.881  26.182   7.025
 4523POPC   C4B57406  36.115  26.420   7.398
 4524POPC   NC357407  20.371  27.883   5.440
 4524POPC   PO457408  20.893  27.453   5.565
 4524POPC   GL157409  20.695  27.659   5.876
 4524POPC   GL257410  20.353  27.542   5.854
 4524POPC   C1A57411  20.624  27.444   6.283
 4524POPC   D2A57412  20.459  27.344   6.688
 4524POPC   C3A57413  20.741  27.386   7.065
 4524POPC   C4A57414  20.863  27.805   7.153
 4524POPC   C1B57415  20.313  27.837   6.177
 4524POPC   C2B57416  20.464  27.874   6.610
 4524POPC   C3B57417  20.355  27.714   7.024
 4524POPC   C4B57418  20.238  27.822   7.423
 4525POPC   NC357419  41.748   3.093   5.473
 4525POPC   PO457420  41.552   2.515   5.256
 4525POPC   GL157421  41.543   2.604   5.701
 4525POPC   GL257422  41.197   2.536   5.749
 4525POPC   C1A57423  41.641   2.820   6.117
 4525POPC   D2A57424  41.764   2.681   6.548
 4525POPC   C3A57425  41.658   2.842   6.962
 4525POPC   C4A57426  41.767   3.009   7.380
 4525POPC   C1B57427  41.314   2.412   6.179
 4525POPC   C2B57428  41.243   2.548   6.613
 4525POPC   C3B57429  41.196   2.626   7.050
 4525POPC   C4B57430  41.245   2.963   7.347
 4526POPC   NC357431  35.364   4.916   5.592
 4526POPC   PO457432  34.992   5.504   5.480
 4526POPC   GL157433  35.116   5.332   5.873
 4526POPC   GL257434  35.186   5.018   6.064
 4526POPC   C1A57435  35.446   5.483   6.133
 4526POPC   D2A57436  35.427   5.593   6.549
 4526POPC   C3A57437  35.284   5.202   6.718
 4526POPC   C4A57438  35.271   5.177   7.149
 4526POPC   C1B57439  35.600   4.939   6.301
 4526POPC   C2B57440  35.673   4.701   6.713
 4526POPC   C3B57441  35.550   4.747   7.164
 4526POPC   C4B57442  35.152   4.764   7.452
 4527POPC   NC357443   1.644  13.033   5.082
 4527POPC   PO457444   2.024  12.503   5.318
 4527POPC   GL157445   1.998  12.852   5.625
 4527POPC   GL257446   1.737  12.736   5.835
 4527POPC   C1A57447   2.159  12.989   6.057
 4527POPC   D2A57448   2.048  12.912   6.504
 4527POPC   C3A57449   2.307  12.891   6.825
 4527POPC   C4A57450   2.129  13.050   7.159
 4527POPC   C1B57451   1.656  12.980   6.193
 4527POPC   C2B57452   1.633  13.211   6.584
 4527POPC   C3B57453   1.629  13.006   6.944
 4527POPC   C4B57454   1.875  12.652   7.016
 4528POPC   NC357455  30.537  37.987   5.051
 4528POPC   PO457456  30.992  37.785   5.526
 4528POPC   GL157457  30.703  37.663   5.883
 4528POPC   GL257458  30.600  37.325   5.834
 4528POPC   C1A57459  30.494  37.712   6.290
 4528POPC   D2A57460  30.598  37.504   6.692
 4528POPC   C3A57461  30.580  37.664   7.091
 4528POPC   C4A57462  30.548  37.891   7.440
 4528POPC   C1B57463  30.825  37.337   6.258
 4528POPC   C2B57464  31.098  37.449   6.656
 4528POPC   C3B57465  31.023  37.437   7.125
 4528POPC   C4B57466  31.145  37.537   7.637
 4529POPC   NC357467   4.114  30.684   5.243
 4529POPC   PO457468   4.664  30.572   5.681
 4529POPC   GL157469   4.277  30.783   5.832
 4529POPC   GL257470   3.943  30.668   5.716
 4529POPC   C1A57471   4.295  30.869   6.278
 4529POPC   D2A57472   4.222  30.861   6.712
 4529POPC   C3A57473   4.373  30.659   7.066
 4529POPC   C4A57474   4.430  30.909   7.423
 4529POPC   C1B57475   3.917  30.448   6.096
 4529POPC   C2B57476   4.072  30.414   6.497
 4529POPC   C3B57477   3.923  30.425   6.901
 4529POPC   C4B57478   3.769  30.140   7.202
 4530POPC   NC357479  43.649  26.364   5.558
 4530POPC   PO457480  43.962  25.811   5.426
 4530POPC   GL157481  43.857  25.982   5.821
 4530POPC   GL257482  43.782  25.658   5.964
 4530POPC   C1A57483  43.987  26.029   6.248
 4530POPC   D2A57484  43.835  25.722   6.552
 4530POPC   C3A57485  43.866  26.021   6.863
 4530POPC   C4A57486  44.005  26.179   7.231
 4530POPC   C1B57487  43.480  25.934   6.215
 4530POPC   C2B57488  43.366  25.936   6.657
 4530POPC   C3B57489  43.535  25.671   6.995
 4530POPC   C4B57490  43.664  25.776   7.415
 4531POPC   NC357491  35.976   7.280   5.452
 4531POPC   PO457492  36.336   7.701   5.208
 4531POPC   GL157493  36.381   7.523   5.698
 4531POPC   GL257494  36.060   7.469   5.904
 4531POPC   C1A57495  36.473   7.328   6.170
 4531POPC   D2A57496  36.634   7.171   6.591
 4531POPC   C3A57497  36.385   7.299   6.962
 4531POPC   C4A57498  36.348   7.157   7.385
 4531POPC   C1B57499  36.086   7.667   6.299
 4531POPC   C2B57500  35.894   7.570   6.688
 4531POPC   C3B57501  36.059   7.711   7.063
 4531POPC   C4B57502  36.058   7.564   7.470
 4532POPC   NC357503   6.923   5.263   5.551
 4532POPC   PO457504   6.605   4.695   5.366
 4532POPC   GL157505   6.526   4.891   5.795
 4532POPC   GL257506   6.852   4.999   5.990
 4532POPC   C1A57507   6.413   5.176   6.174
 4532POPC   D2A57508   6.615   5.093   6.589
 4532POPC   C3A57509   6.441   5.257   6.969
 4532POPC   C4A57510   6.376   4.880   7.132
 4532POPC   C1B57511   6.867   5.386   6.276
 4532POPC   C2B57512   6.882   5.486   6.728
 4532POPC   C3B57513   6.922   5.112   7.033
 4532POPC   C4B57514   6.939   5.099   7.477
 4533POPC   NC357515  13.794  42.436   5.359
 4533POPC   PO457516  13.097  42.368   5.369
 4533POPC   GL157517  13.400  42.434   5.783
 4533POPC   GL257518  13.659  42.215   5.818
 4533POPC   C1A57519  13.423  42.589   6.219
 4533POPC   D2A57520  13.282  42.335   6.568
 4533POPC   C3A57521  13.382  42.412   6.976
 4533POPC   C4A57522  13.471  42.066   7.240
 4533POPC   C1B57523  13.889  42.388   6.189
 4533POPC   C2B57524  13.790  42.481   6.644
 4533POPC   C3B57525  13.873  42.339   7.090
 4533POPC   C4B57526  13.878  42.218   7.560
 4534POPC   NC357527  38.950  29.994   5.501
 4534POPC   PO457528  39.544  29.647   5.550
 4534POPC   GL157529  39.472  29.799   5.935
 4534POPC   GL257530  39.235  30.056   5.922
 4534POPC   C1A57531  39.435  29.773   6.383
 4534POPC   D2A57532  39.183  29.994   6.680
 4534POPC   C3A57533  38.970  29.759   6.991
 4534POPC   C4A57534  39.255  29.647   7.301
 4534POPC   C1B57535  39.450  30.285   6.257
 4534POPC   C2B57536  39.354  30.484   6.659
 4534POPC   C3B57537  39.373  30.314   7.062
 4534POPC   C4B57538  39.049  30.185   7.312
 4535POPC   NC357539  22.439   0.445   5.358
 4535POPC   PO457540  21.901   0.840   5.477
 4535POPC   GL157541  21.997   0.543   5.785
 4535POPC   GL257542  22.226   0.232   5.773
 4535POPC   C1A57543  22.053   0.463   6.202
 4535POPC   D2A57544  21.899   0.470   6.574
 4535POPC   C3A57545  22.137   0.634   6.865
 4535POPC   C4A57546  22.110   0.528   7.257
 4535POPC   C1B57547  22.344   0.042   6.172
 4535POPC   C2B57548  22.387   0.230   6.610
 4535POPC   C3B57549  22.287   0.085   7.053
 4535POPC   C4B57550  22.238   0.109   7.550
 4536POPC   NC357551  16.249  27.362   5.465
 4536POPC   PO457552  15.559  27.566   5.439
 4536POPC   GL157553  15.777  27.747   5.839
 4536POPC   GL257554  16.138  27.820   5.821
 4536POPC   C1A57555  15.973  27.532   6.227
 4536POPC   D2A57556  15.856  27.218   6.562
 4536POPC   C3A57557  15.797  27.462   6.935
 4536POPC   C4A57558  15.836  27.431   7.368
 4536POPC   C1B57559  16.422  27.923   6.180
 4536POPC   C2B57560  16.514  27.904   6.633
 4536POPC   C3B57561  16.492  27.934   7.100
 4536POPC   C4B57562  16.171  27.791   7.384
 4537POPC   NC357563  30.520  23.814   5.148
 4537POPC   PO457564  31.061  23.418   5.350
 4537POPC   GL157565  30.830  23.521   5.723
 4537POPC   GL257566  30.616  23.795   5.693
 4537POPC   C1A57567  30.741  23.450   6.181
 4537POPC   D2A57568  30.404  23.473   6.505
 4537POPC   C3A57569  30.622  23.548   6.883
 4537POPC   C4A57570  30.953  23.306   7.106
 4537POPC   C1B57571  30.900  23.927   6.042
 4537POPC   C2B57572  30.830  23.874   6.492
 4537POPC   C3B57573  30.928  23.969   6.913
 4537POPC   C4B57574  31.172  23.754   7.216
 4538POPC   NC357575  21.084  11.074   5.340
 4538POPC   PO457576  20.977  11.629   5.704
 4538POPC   GL157577  20.659  11.378   5.856
 4538POPC   GL257578  20.589  11.065   5.697
 4538POPC   C1A57579  20.435  11.461   6.228
 4538POPC   D2A57580  20.574  11.292   6.593
 4538POPC   C3A57581  20.411  11.498   6.928
 4538POPC   C4A57582  20.544  11.556   7.352
 4538POPC   C1B57583  20.540  10.967   6.147
 4538POPC   C2B57584  20.270  10.884   6.500
 4538POPC   C3B57585  20.245  11.014   6.916
 4538POPC   C4B57586  20.570  11.077   7.188
 4539POPC   NC357587  44.385  32.508   5.136
 4539POPC   PO457588  43.881  32.427   5.544
 4539POPC   GL157589  43.720  32.276   5.906
 4539POPC   GL257590  43.734  31.916   5.880
 4539POPC   C1A57591  43.601  32.421   6.280
 4539POPC   D2A57592  43.771  32.593   6.622
 4539POPC   C3A57593  43.676  32.470   7.009
 4539POPC   C4A57594  43.622  32.689   7.433
 4539POPC   C1B57595  43.944  32.004   6.286
 4539POPC   C2B57596  44.049  32.116   6.708
 4539POPC   C3B57597  43.902  32.018   7.104
 4539POPC   C4B57598  43.948  32.218   7.491
 4540POPC   NC357599  22.683  26.316   5.457
 4540POPC   PO457600  23.056  25.726   5.597
 4540POPC   GL157601  22.980  26.035   5.797
 4540POPC   GL257602  23.338  26.206   5.762
 4540POPC   C1A57603  22.845  25.884   6.236
 4540POPC   D2A57604  23.044  25.888   6.666
 4540POPC   C3A57605  22.854  25.885   7.084
 4540POPC   C4A57606  22.926  26.182   7.469
 4540POPC   C1B57607  23.129  26.298   6.181
 4540POPC   C2B57608  22.834  26.356   6.491
 4540POPC   C3B57609  22.876  26.358   6.895
 4540POPC   C4B57610  22.660  26.533   7.168
 4541POPC   NC357611  22.778   6.730   5.172
 4541POPC   PO457612  22.865   6.078   5.249
 4541POPC   GL157613  23.023   6.309   5.654
 4541POPC   GL257614  23.012   6.673   5.642
 4541POPC   C1A57615  22.839   6.337   6.120
 4541POPC   D2A57616  22.673   6.490   6.538
 4541POPC   C3A57617  22.860   6.332   6.926
 4541POPC   C4A57618  23.106   6.355   7.290
 4541POPC   C1B57619  23.114   6.776   6.076
 4541POPC   C2B57620  23.152   6.772   6.520
 4541POPC   C3B57621  22.899   6.840   6.899
 4541POPC   C4B57622  22.749   6.756   7.309
 4542POPC   NC357623  30.906  14.725   5.391
 4542POPC   PO457624  30.319  14.483   5.268
 4542POPC   GL157625  30.565  14.475   5.695
 4542POPC   GL257626  30.853  14.273   5.765
 4542POPC   C1A57627  30.485  14.355   6.133
 4542POPC   D2A57628  30.656  14.462   6.539
 4542POPC   C3A57629  30.483  14.325   6.893
 4542POPC   C4A57630  30.490  14.370   7.301
 4542POPC   C1B57631  30.981  14.247   6.226
 4542POPC   C2B57632  31.154  14.456   6.623
 4542POPC   C3B57633  30.971  14.403   7.054
 4542POPC   C4B57634  30.854  14.700   7.431
 4543POPC   NC357635  25.812  43.169   5.354
 4543POPC   PO457636  26.358  42.965   5.709
 4543POPC   GL157637  26.280  43.306   5.962
 4543POPC   GL257638  25.942  43.294   5.835
 4543POPC   C1A57639  26.141  43.238   6.378
 4543POPC   D2A57640  26.034  42.800   6.612
 4543POPC   C3A57641  26.087  42.868   7.061
 4543POPC   C4A57642  26.032  43.300   6.985
 4543POPC   C1B57643  25.739  43.061   6.141
 4543POPC   C2B57644  25.668  43.146   6.571
 4543POPC   C3B57645  25.599  42.969   6.937
 4543POPC   C4B57646  25.714  43.087   7.358
 4544POPC   NC357647  28.654  31.697   5.414
 4544POPC   PO457648  28.020  31.469   5.560
 4544POPC   GL157649  28.196  31.573   5.939
 4544POPC   GL257650  28.512  31.426   5.932
 4544POPC   C1A57651  28.206  31.349   6.339
 4544POPC   D2A57652  28.185  31.569   6.692
 4544POPC   C3A57653  28.302  31.436   7.081
 4544POPC   C4A57654  28.211  31.645   7.453
 4544POPC   C1B57655  28.742  31.298   6.287
 4544POPC   C2B57656  28.654  31.282   6.704
 4544POPC   C3B57657  28.828  31.367   7.086
 4544POPC   C4B57658  28.672  31.420   7.500
 4545POPC   NC357659  36.595  13.638   5.411
 4545POPC   PO457660  35.941  13.703   5.324
 4545POPC   GL157661  36.067  13.755   5.763
 4545POPC   GL257662  36.404  13.847   5.868
 4545POPC   C1A57663  35.997  13.791   6.228
 4545POPC   D2A57664  36.116  13.676   6.647
 4545POPC   C3A57665  36.025  13.897   7.030
 4545POPC   C4A57666  36.242  14.057   7.390
 4545POPC   C1B57667  36.424  13.508   6.209
 4545POPC   C2B57668  36.462  13.297   6.637
 4545POPC   C3B57669  36.280  13.180   7.041
 4545POPC   C4B57670  35.876  13.075   7.228
 4546POPC   NC357671  31.893  10.871   5.607
 4546POPC   PO457672  32.289  10.482   5.182
 4546POPC   GL157673  32.461  10.625   5.683
 4546POPC   GL257674  32.552  10.335   5.865
 4546POPC   C1A57675  32.316  10.678   6.168
 4546POPC   D2A57676  32.142  10.935   6.547
 4546POPC   C3A57677  32.174  10.822   7.019
 4546POPC   C4A57678  31.958  10.952   7.408
 4546POPC   C1B57679  32.556  10.227   6.276
 4546POPC   C2B57680  32.394  10.449   6.624
 4546POPC   C3B57681  32.238  10.317   6.987
 4546POPC   C4B57682  32.465  10.173   7.284
 4547POPC   NC357683  29.702  44.209   5.210
 4547POPC   PO457684  30.140  44.726   5.410
 4547POPC   GL157685  29.774  44.550   5.654
 4547POPC   GL257686  29.761  44.208   5.726
 4547POPC   C1A57687  29.671  44.568   6.118
 4547POPC   D2A57688  29.857  44.840   6.439
 4547POPC   C3A57689  29.853  44.732   6.881
 4547POPC   C4A57690  30.012  44.434   7.185
 4547POPC   C1B57691  29.981  44.151   6.137
 4547POPC   C2B57692  29.946  44.320   6.563
 4547POPC   C3B57693  30.303  44.461   6.783
 4547POPC   C4B57694  30.513  44.381   7.155
 4548POPC   NC357695   5.838  20.167   5.162
 4548POPC   PO457696   5.608  19.631   5.368
 4548POPC   GL157697   5.769  19.872   5.717
 4548POPC   GL257698   5.440  19.983   5.769
 4548POPC   C1A57699   6.047  19.848   6.111
 4548POPC   D2A57700   6.137  19.604   6.507
 4548POPC   C3A57701   5.997  19.777   6.914
 4548POPC   C4A57702   6.179  19.790   7.297
 4548POPC   C1B57703   5.544  19.896   6.183
 4548POPC   C2B57704   5.613  19.770   6.578
 4548POPC   C3B57705   5.534  20.049   6.869
 4548POPC   C4B57706   5.669  20.067   7.251
 4549POPC   NC357707  23.782  18.706   5.511
 4549POPC   PO457708  23.449  19.307   5.451
 4549POPC   GL157709  23.713  19.138   5.800
 4549POPC   GL257710  23.596  18.805   5.985
 4549POPC   C1A57711  23.972  19.082   6.180
 4549POPC   D2A57712  23.852  18.837   6.544
 4549POPC   C3A57713  23.763  19.071   6.939
 4549POPC   C4A57714  23.746  19.199   7.404
 4549POPC   C1B57715  23.458  19.176   6.250
 4549POPC   C2B57716  23.301  19.368   6.636
 4549POPC   C3B57717  23.317  19.321   7.067
 4549POPC   C4B57718  23.381  18.879   7.245
 4550POPC   NC357719  28.048  39.933   5.205
 4550POPC   PO457720  28.406  39.337   5.453
 4550POPC   GL157721  28.460  39.138   5.834
 4550POPC   GL257722  28.614  38.804   5.785
 4550POPC   C1A57723  28.578  39.346   6.247
 4550POPC   D2A57724  28.764  39.490   6.622
 4550POPC   C3A57725  28.653  39.479   7.029
 4550POPC   C4A57726  28.318  39.303   7.207
 4550POPC   C1B57727  28.483  38.867   6.267
 4550POPC   C2B57728  28.516  38.922   6.743
 4550POPC   C3B57729  28.364  38.781   7.182
 4550POPC   C4B57730  28.476  38.959   7.609
 4551POPC   NC357731  26.843   2.937   5.402
 4551POPC   PO457732  27.069   2.325   5.597
 4551POPC   GL157733  26.914   2.641   5.793
 4551POPC   GL257734  26.624   2.579   5.914
 4551POPC   C1A57735  26.844   2.990   6.104
 4551POPC   D2A57736  26.625   2.894   6.498
 4551POPC   C3A57737  26.839   2.928   6.858
 4551POPC   C4A57738  26.797   2.967   7.276
 4551POPC   C1B57739  26.901   2.496   6.290
 4551POPC   C2B57740  26.792   2.393   6.734
 4551POPC   C3B57741  27.012   2.517   7.120
 4551POPC   C4B57742  27.179   2.680   7.527
 4552POPC   NC357743   8.236  17.096   5.514
 4552POPC   PO457744   8.606  16.477   5.505
 4552POPC   GL157745   8.249  16.603   5.749
 4552POPC   GL257746   7.961  16.419   5.643
 4552POPC   C1A57747   8.209  16.843   6.131
 4552POPC   D2A57748   8.414  16.798   6.506
 4552POPC   C3A57749   8.224  16.994   6.851
 4552POPC   C4A57750   8.318  16.898   7.288
 4552POPC   C1B57751   7.897  16.432   6.112
 4552POPC   C2B57752   7.930  16.630   6.533
 4552POPC   C3B57753   8.039  16.535   6.936
 4552POPC   C4B57754   7.896  16.613   7.349
 4553POPC   NC357755  36.774  33.775   5.280
 4553POPC   PO457756  37.442  33.583   5.363
 4553POPC   GL157757  37.131  33.737   5.731
 4553POPC   GL257758  36.746  33.884   5.784
 4553POPC   C1A57759  37.028  33.743   6.195
 4553POPC   D2A57760  36.805  33.882   6.592
 4553POPC   C3A57761  36.937  33.737   7.013
 4553POPC   C4A57762  36.989  33.996   7.407
 4553POPC   C1B57763  36.511  33.657   6.155
 4553POPC   C2B57764  36.438  33.509   6.603
 4553POPC   C3B57765  36.432  33.491   7.061
 4553POPC   C4B57766  36.643  33.620   7.425
 4554POPC   NC357767  39.067  30.982   5.603
 4554POPC   PO457768  39.321  30.346   5.475
 4554POPC   GL157769  39.253  30.580   5.866
 4554POPC   GL257770  39.505  30.832   5.865
 4554POPC   C1A57771  39.079  30.728   6.286
 4554POPC   D2A57772  39.149  30.952   6.706
 4554POPC   C3A57773  39.074  30.727   7.114
 4554POPC   C4A57774  38.984  30.852   7.552
 4554POPC   C1B57775  39.599  30.791   6.293
 4554POPC   C2B57776  39.695  30.876   6.701
 4554POPC   C3B57777  39.677  30.725   7.103
 4554POPC   C4B57778  39.490  30.667   7.506
 4555POPC   NC357779  35.244  21.708   5.165
 4555POPC   PO457780  35.140  21.096   5.545
 4555POPC   GL157781  35.500  21.239   5.809
 4555POPC   GL257782  35.727  21.500   5.646
 4555POPC   C1A57783  35.483  21.159   6.277
 4555POPC   D2A57784  35.110  21.178   6.581
 4555POPC   C3A57785  35.248  21.332   6.989
 4555POPC   C4A57786  35.614  21.165   7.230
 4555POPC   C1B57787  35.668  21.626   6.113
 4555POPC   C2B57788  35.384  21.633   6.488
 4555POPC   C3B57789  35.325  21.877   6.875
 4555POPC   C4B57790  35.471  21.707   7.266
 4556POPC   NC357791  10.910  25.046   4.938
 4556POPC   PO457792  10.641  25.285   5.459
 4556POPC   GL157793  10.306  25.267   5.798
 4556POPC   GL257794  10.499  25.523   5.917
 4556POPC   C1A57795  10.404  25.139   6.229
 4556POPC   D2A57796  10.744  25.072   6.485
 4556POPC   C3A57797  10.582  25.033   6.862
 4556POPC   C4A57798  10.850  25.220   7.141
 4556POPC   C1B57799  10.377  25.670   6.273
 4556POPC   C2B57800  10.483  25.495   6.646
 4556POPC   C3B57801  10.359  25.681   6.985
 4556POPC   C4B57802  10.268  25.668   7.382
 4557POPC   NC357803  18.664  39.470   5.493
 4557POPC   PO457804  19.369  39.140   5.450
 4557POPC   GL157805  19.087  39.325   5.755
 4557POPC   GL257806  18.768  39.125   5.867
 4557POPC   C1A57807  18.970  39.503   6.148
 4557POPC   D2A57808  19.052  39.287   6.515
 4557POPC   C3A57809  19.129  39.448   6.893
 4557POPC   C4A57810  19.029  39.499   7.287
 4557POPC   C1B57811  19.130  38.954   6.117
 4557POPC   C2B57812  19.228  38.796   6.532
 4557POPC   C3B57813  18.998  38.938   6.885
 4557POPC   C4B57814  19.231  39.042   7.224
 4558POPC   NC357815   7.267  26.064   5.276
 4558POPC   PO457816   7.924  26.299   5.491
 4558POPC   GL157817   7.594  26.208   5.811
 4558POPC   GL257818   7.289  26.014   5.794
 4558POPC   C1A57819   7.368  26.275   6.219
 4558POPC   D2A57820   7.319  26.045   6.607
 4558POPC   C3A57821   7.415  26.206   7.033
 4558POPC   C4A57822   7.355  26.440   7.414
 4558POPC   C1B57823   7.512  25.767   6.111
 4558POPC   C2B57824   7.541  25.591   6.529
 4558POPC   C3B57825   7.442  25.689   6.951
 4558POPC   C4B57826   7.762  25.621   7.254
 4559POPC   NC357827   0.691   5.154   5.408
 4559POPC   PO457828   1.236   4.821   5.273
 4559POPC   GL157829   1.214   4.948   5.735
 4559POPC   GL257830   1.423   5.264   5.805
 4559POPC   C1A57831   1.270   4.914   6.215
 4559POPC   D2A57832   1.444   5.210   6.556
 4559POPC   C3A57833   1.471   5.020   6.958
 4559POPC   C4A57834   1.214   4.737   7.161
 4559POPC   C1B57835   1.060   5.361   6.100
 4559POPC   C2B57836   0.943   5.181   6.524
 4559POPC   C3B57837   1.065   5.306   6.966
 4559POPC   C4B57838   1.054   5.560   7.359
 4560POPC   NC357839   4.211  14.016   5.457
 4560POPC   PO457840   4.460  13.402   5.417
 4560POPC   GL157841   4.231  13.499   5.834
 4560POPC   GL257842   4.193  13.848   5.947
 4560POPC   C1A57843   4.173  13.485   6.319
 4560POPC   D2A57844   4.436  13.620   6.708
 4560POPC   C3A57845   4.217  13.580   7.083
 4560POPC   C4A57846   3.938  13.240   6.996
 4560POPC   C1B57847   4.572  13.808   6.244
 4560POPC   C2B57848   4.703  14.048   6.649
 4560POPC   C3B57849   4.575  13.948   7.123
 4560POPC   C4B57850   4.503  13.934   7.611
 4561POPC   NC357851  29.801  35.397   5.429
 4561POPC   PO457852  30.517  35.498   5.577
 4561POPC   GL157853  30.138  35.408   5.809
 4561POPC   GL257854  30.147  35.105   5.953
 4561POPC   C1A57855  29.832  35.440   6.179
 4561POPC   D2A57856  29.652  35.254   6.579
 4561POPC   C3A57857  29.849  35.357   6.986
 4561POPC   C4A57858  29.914  35.562   7.406
 4561POPC   C1B57859  30.100  35.057   6.402
 4561POPC   C2B57860  30.250  35.090   6.822
 4561POPC   C3B57861  30.245  35.203   7.263
 4561POPC   C4B57862  29.954  35.102   7.648
 4562POPC   NC357863  28.282  42.692   5.584
 4562POPC   PO457864  28.504  42.033   5.441
 4562POPC   GL157865  28.517  42.255   5.797
 4562POPC   GL257866  28.163  42.273   5.889
 4562POPC   C1A57867  28.568  42.207   6.239
 4562POPC   D2A57868  28.307  42.203   6.607
 4562POPC   C3A57869  28.481  42.332   6.977
 4562POPC   C4A57870  28.647  42.626   7.250
 4562POPC   C1B57871  28.174  42.578   6.245
 4562POPC   C2B57872  28.232  42.751   6.664
 4562POPC   C3B57873  28.125  42.689   7.089
 4562POPC   C4B57874  28.189  42.570   7.511
 4563POPC   NC357875   8.764   1.695   5.593
 4563POPC   PO457876   9.187   2.003   5.101
 4563POPC   GL157877   9.263   1.831   5.628
 4563POPC   GL257878   9.169   2.050   5.931
 4563POPC   C1A57879   9.313   1.596   6.104
 4563POPC   D2A57880   9.378   1.657   6.615
 4563POPC   C3A57881   9.043   1.817   6.968
 4563POPC   C4A57882   9.009   1.773   7.452
 4563POPC   C1B57883   8.857   2.299   6.209
 4563POPC   C2B57884   8.758   2.209   6.636
 4563POPC   C3B57885   8.806   2.416   7.006
 4563POPC   C4B57886   8.888   2.257   7.381
 4564POPC   NC357887  42.997  33.058   5.317
 4564POPC   PO457888  43.583  33.307   5.507
 4564POPC   GL157889  43.243  33.052   5.768
 4564POPC   GL257890  42.916  33.220   5.812
 4564POPC   C1A57891  43.291  32.848   6.190
 4564POPC   D2A57892  43.143  32.856   6.638
 4564POPC   C3A57893  43.245  32.755   7.096
 4564POPC   C4A57894  43.196  32.974   7.515
 4564POPC   C1B57895  42.837  33.083   6.229
 4564POPC   C2B57896  42.689  33.092   6.636
 4564POPC   C3B57897  42.827  33.028   7.030
 4564POPC   C4B57898  42.717  33.120   7.432
 4565POPC   NC357899  18.548  33.880   5.531
 4565POPC   PO457900  18.221  33.286   5.343
 4565POPC   GL157901  18.186  33.582   5.793
 4565POPC   GL257902  18.175  33.947   5.871
 4565POPC   C1A57903  18.326  33.660   6.255
 4565POPC   D2A57904  18.361  33.340   6.587
 4565POPC   C3A57905  18.629  33.466   6.904
 4565POPC   C4A57906  18.573  33.786   7.156
 4565POPC   C1B57907  18.028  34.136   6.227
 4565POPC   C2B57908  18.110  33.951   6.639
 4565POPC   C3B57909  18.091  33.945   7.087
 4565POPC   C4B57910  18.060  34.246   7.450
 4566POPC   NC357911  25.120  31.240   5.162
 4566POPC   PO457912  25.501  31.729   5.390
 4566POPC   GL157913  25.366  31.841   5.818
 4566POPC   GL257914  25.075  31.678   5.806
 4566POPC   C1A57915  25.277  31.708   6.265
 4566POPC   D2A57916  25.169  31.492   6.655
 4566POPC   C3A57917  25.235  31.751   7.015
 4566POPC   C4A57918  25.534  31.562   7.305
 4566POPC   C1B57919  24.960  31.330   6.128
 4566POPC   C2B57920  24.856  31.120   6.521
 4566POPC   C3B57921  25.032  31.065   6.921
 4566POPC   C4B57922  25.042  31.351   7.251
 4567POPC   NC357923  28.610  21.405   5.544
 4567POPC   PO457924  27.950  21.095   5.494
 4567POPC   GL157925  28.189  21.286   5.809
 4567POPC   GL257926  28.346  20.979   5.868
 4567POPC   C1A57927  28.488  21.337   6.182
 4567POPC   D2A57928  28.374  21.381   6.602
 4567POPC   C3A57929  28.650  21.504   6.914
 4567POPC   C4A57930  28.523  21.646   7.300
 4567POPC   C1B57931  28.077  21.020   6.275
 4567POPC   C2B57932  28.131  20.944   6.758
 4567POPC   C3B57933  28.194  21.292   7.087
 4567POPC   C4B57934  27.835  21.544   7.226
 4568POPC   NC357935  11.423  38.008   5.302
 4568POPC   PO457936  11.590  38.711   5.159
 4568POPC   GL157937  11.369  38.690   5.602
 4568POPC   GL257938  11.272  38.367   5.720
 4568POPC   C1A57939  11.458  38.764   6.075
 4568POPC   D2A57940  11.430  38.601   6.502
 4568POPC   C3A57941  11.453  38.768   6.909
 4568POPC   C4A57942  11.626  38.578   7.306
 4568POPC   C1B57943  11.364  38.175   6.114
 4568POPC   C2B57944  11.232  38.144   6.548
 4568POPC   C3B57945  11.334  38.276   6.985
 4568POPC   C4B57946  11.451  38.083   7.383
 4569POPC   NC357947  21.037  25.535   5.340
 4569POPC   PO457948  20.553  25.878   5.456
 4569POPC   GL157949  20.611  26.067   5.856
 4569POPC   GL257950  20.927  25.913   5.877
 4569POPC   C1A57951  20.795  26.175   6.295
 4569POPC   D2A57952  20.892  26.431   6.664
 4569POPC   C3A57953  20.752  26.199   7.032
 4569POPC   C4A57954  20.395  26.344   7.272
 4569POPC   C1B57955  20.600  25.709   6.207
 4569POPC   C2B57956  20.356  25.646   6.623
 4569POPC   C3B57957  20.389  25.599   7.099
 4569POPC   C4B57958  20.481  25.878   7.468
 4570POPC   NC357959  25.258   0.246   5.325
 4570POPC   PO457960  25.158   0.717   5.765
 4570POPC   GL157961  25.398   0.308   5.824
 4570POPC   GL257962  25.113   0.047   5.769
 4570POPC   C1A57963  25.496   0.274   6.267
 4570POPC   D2A57964  25.206   0.570   6.497
 4570POPC   C3A57965  25.336   0.575   6.874
 4570POPC   C4A57966  25.531   0.375   7.173
 4570POPC   C1B57967  25.004   0.245   6.160
 4570POPC   C2B57968  25.087   0.065   6.570
 4570POPC   C3B57969  25.137   0.057   6.993
 4570POPC   C4B57970  25.033   0.334   7.305
 4571POPC   NC357971  17.799  25.265   5.498
 4571POPC   PO457972  17.125  25.559   5.355
 4571POPC   GL157973  17.262  25.441   5.760
 4571POPC   GL257974  17.382  25.111   5.767
 4571POPC   C1A57975  17.162  25.338   6.193
 4571POPC   D2A57976  17.277  25.566   6.558
 4571POPC   C3A57977  17.329  25.419   6.963
 4571POPC   C4A57978  17.698  25.305   7.157
 4571POPC   C1B57979  17.377  24.874   6.156
 4571POPC   C2B57980  17.510  25.000   6.560
 4571POPC   C3B57981  17.447  24.865   6.983
 4571POPC   C4B57982  17.445  24.902   7.442
 4572POPC   NC357983  25.438   4.893   5.467
 4572POPC   PO457984  25.060   5.467   5.343
 4572POPC   GL157985  25.141   5.320   5.789
 4572POPC   GL257986  25.153   4.963   5.893
 4572POPC   C1A57987  25.246   5.333   6.251
 4572POPC   D2A57988  25.186   5.152   6.674
 4572POPC   C3A57989  25.399   5.322   7.021
 4572POPC   C4A57990  25.573   5.224   7.452
 4572POPC   C1B57991  25.453   4.853   6.233
 4572POPC   C2B57992  25.562   4.805   6.680
 4572POPC   C3B57993  25.436   4.829   7.122
 4572POPC   C4B57994  25.141   4.573   7.387
 4573POPC   NC357995   3.077   4.102   5.497
 4573POPC   PO457996   2.526   4.527   5.454
 4573POPC   GL157997   2.765   4.386   5.793
 4573POPC   GL257998   3.035   4.602   5.888
 4573POPC   C1A57999   2.607   4.137   6.156
 4573POPC   D2A58000   2.472   4.305   6.544
 4573POPC   C3A58001   2.669   4.225   6.908
 4573POPC   C4A58002   2.560   4.382   7.345
 4573POPC   C1B58003   3.122   4.206   6.132
 4573POPC   C2B58004   2.985   4.031   6.513
 4573POPC   C3B58005   3.175   4.197   6.867
 4573POPC   C4B58006   3.029   4.213   7.265
 4574POPC   NC358007  37.142  19.526   5.099
 4574POPC   PO458008  36.576  19.805   5.369
 4574POPC   GL158009  36.739  19.757   5.760
 4574POPC   GL258010  36.848  19.461   5.724
 4574POPC   C1A58011  36.966  19.696   6.165
 4574POPC   D2A58012  36.863  19.890   6.556
 4574POPC   C3A58013  36.896  19.676   6.908
 4574POPC   C4A58014  36.937  19.822   7.283
 4574POPC   C1B58015  36.598  19.358   6.122
 4574POPC   C2B58016  36.571  19.462   6.554
 4574POPC   C3B58017  36.533  19.328   6.991
 4574POPC   C4B58018  36.735  19.368   7.414
 4575POPC   NC358019   8.232  29.357   5.445
 4575POPC   PO458020   7.877  28.734   5.314
 4575POPC   GL158021   8.075  28.921   5.691
 4575POPC   GL258022   7.791  28.964   5.883
 4575POPC   C1A58023   8.192  28.808   6.167
 4575POPC   D2A58024   8.036  28.760   6.624
 4575POPC   C3A58025   8.307  28.879   6.989
 4575POPC   C4A58026   8.325  29.340   7.117
 4575POPC   C1B58027   7.758  29.140   6.305
 4575POPC   C2B58028   7.854  29.471   6.619
 4575POPC   C3B58029   7.830  29.308   7.038
 4575POPC   C4B58030   7.884  28.924   7.297
 4576POPC   NC358031  20.688  36.234   5.240
 4576POPC   PO458032  20.049  36.074   5.351
 4576POPC   GL158033  20.424  36.158   5.692
 4576POPC   GL258034  20.768  36.361   5.746
 4576POPC   C1A58035  20.576  35.934   6.103
 4576POPC   D2A58036  20.363  35.810   6.528
 4576POPC   C3A58037  20.681  35.854   6.859
 4576POPC   C4A58038  20.745  35.954   7.283
 4576POPC   C1B58039  20.527  36.452   6.131
 4576POPC   C2B58040  20.619  36.267   6.545
 4576POPC   C3B58041  20.681  36.380   6.977
 4576POPC   C4B58042  20.948  36.406   7.399
 4577POPC   NC358043  42.388  41.909   5.545
 4577POPC   PO458044  41.989  41.342   5.438
 4577POPC   GL158045  41.850  41.493   5.834
 4577POPC   GL258046  42.024  41.814   5.881
 4577POPC   C1A58047  42.038  41.420   6.233
 4577POPC   D2A58048  42.416  41.440   6.492
 4577POPC   C3A58049  42.328  41.464   6.913
 4577POPC   C4A58050  42.630  41.488   7.200
 4577POPC   C1B58051  42.309  41.883   6.233
 4577POPC   C2B58052  42.388  41.927   6.676
 4577POPC   C3B58053  42.462  41.955   7.110
 4577POPC   C4B58054  42.175  41.981   7.468
 4578POPC   NC358055  32.281  24.213   5.479
 4578POPC   PO458056  32.081  24.848   5.335
 4578POPC   GL158057  32.161  24.657   5.778
 4578POPC   GL258058  31.971  24.373   5.840
 4578POPC   C1A58059  32.422  24.557   6.196
 4578POPC   D2A58060  32.396  24.347   6.628
 4578POPC   C3A58061  32.303  24.634   7.014
 4578POPC   C4A58062  32.592  24.842   7.283
 4578POPC   C1B58063  31.926  24.492   6.271
 4578POPC   C2B58064  31.920  24.533   6.687
 4578POPC   C3B58065  31.994  24.223   7.005
 4578POPC   C4B58066  32.137  24.090   7.416
 4579POPC   NC358067   8.737   7.590   5.462
 4579POPC   PO458068   8.850   6.976   5.277
 4579POPC   GL158069   9.029   7.191   5.690
 4579POPC   GL258070   9.054   7.554   5.860
 4579POPC   C1A58071   9.167   7.152   6.153
 4579POPC   D2A58072   9.406   7.104   6.550
 4579POPC   C3A58073   9.195   7.315   6.899
 4579POPC   C4A58074   8.814   7.223   7.080
 4579POPC   C1B58075   8.816   7.702   6.228
 4579POPC   C2B58076   8.774   7.596   6.699
 4579POPC   C3B58077   8.822   7.782   7.126
 4579POPC   C4B58078   9.117   7.716   7.473
 4580POPC   NC358079  34.892   5.955   5.472
 4580POPC   PO458080  34.315   5.690   5.453
 4580POPC   GL158081  34.555   5.705   5.829
 4580POPC   GL258082  34.612   6.073   5.881
 4580POPC   C1A58083  34.382   5.777   6.247
 4580POPC   D2A58084  34.433   5.993   6.605
 4580POPC   C3A58085  34.323   5.786   6.990
 4580POPC   C4A58086  34.636   5.565   7.240
 4580POPC   C1B58087  34.804   6.285   6.242
 4580POPC   C2B58088  34.770   6.373   6.678
 4580POPC   C3B58089  34.760   6.060   7.002
 4580POPC   C4B58090  34.519   6.067   7.394
 4581POPC   NC358091  16.965  34.189   5.397
 4581POPC   PO458092  16.683  33.520   5.419
 4581POPC   GL158093  16.687  33.860   5.701
 4581POPC   GL258094  16.931  33.668   5.863
 4581POPC   C1A58095  16.697  34.033   6.129
 4581POPC   D2A58096  16.903  33.934   6.520
 4581POPC   C3A58097  16.656  33.992   6.907
 4581POPC   C4A58098  16.747  33.789   7.297
 4581POPC   C1B58099  17.174  33.436   6.167
 4581POPC   C2B58100  17.311  33.457   6.585
 4581POPC   C3B58101  17.133  33.423   6.987
 4581POPC   C4B58102  16.986  33.329   7.390
 4582POPC   NC358103  39.479   3.448   5.708
 4582POPC   PO458104  39.940   3.410   5.192
 4582POPC   GL158105  40.037   3.512   5.689
 4582POPC   GL258106  39.955   3.231   5.898
 4582POPC   C1A58107  40.093   3.626   6.188
 4582POPC   D2A58108  39.968   3.721   6.665
 4582POPC   C3A58109  40.202   3.663   7.094
 4582POPC   C4A58110  40.119   3.395   7.483
 4582POPC   C1B58111  39.780   3.223   6.338
 4582POPC   C2B58112  39.762   3.262   6.799
 4582POPC   C3B58113  39.724   3.500   7.185
 4582POPC   C4B58114  39.623   3.551   7.618
 4583POPC   NC358115  35.184  43.336   5.436
 4583POPC   PO458116  35.434  42.751   5.525
 4583POPC   GL158117  35.312  42.877   5.910
 4583POPC   GL258118  35.371  43.238   5.903
 4583POPC   C1A58119  35.474  42.950   6.315
 4583POPC   D2A58120  35.412  43.226   6.637
 4583POPC   C3A58121  35.306  42.924   6.925
 4583POPC   C4A58122  35.581  42.770   7.229
 4583POPC   C1B58123  35.061  43.290   6.234
 4583POPC   C2B58124  34.875  43.247   6.667
 4583POPC   C3B58125  35.113  43.360   7.067
 4583POPC   C4B58126  35.585  43.331   7.130
 4584POPC   NC358127  20.795   4.010   5.394
 4584POPC   PO458128  20.702   4.700   5.577
 4584POPC   GL158129  20.712   4.528   5.951
 4584POPC   GL258130  20.759   4.176   5.882
 4584POPC   C1A58131  20.449   4.351   6.277
 4584POPC   D2A58132  20.526   4.180   6.690
 4584POPC   C3A58133  20.491   4.469   7.046
 4584POPC   C4A58134  20.705   4.491   7.432
 4584POPC   C1B58135  20.962   4.215   6.299
 4584POPC   C2B58136  21.042   4.070   6.727
 4584POPC   C3B58137  20.791   4.050   7.115
 4584POPC   C4B58138  20.820   3.993   7.548
 4585POPC   NC358139  12.689  40.999   5.529
 4585POPC   PO458140  13.145  40.614   5.172
 4585POPC   GL158141  13.063  40.649   5.653
 4585POPC   GL258142  13.111  40.983   5.810
 4585POPC   C1A58143  12.890  40.534   6.125
 4585POPC   D2A58144  12.757  40.696   6.569
 4585POPC   C3A58145  12.780  40.864   7.015
 4585POPC   C4A58146  12.661  40.572   7.316
 4585POPC   C1B58147  13.008  41.011   6.236
 4585POPC   C2B58148  12.945  41.189   6.638
 4585POPC   C3B58149  13.225  41.117   6.985
 4585POPC   C4B58150  13.139  41.055   7.409
 4586POPC   NC358151  37.737  33.936   5.070
 4586POPC   PO458152  37.707  34.473   5.482
 4586POPC   GL158153  37.834  34.535   5.885
 4586POPC   GL258154  37.778  34.899   5.877
 4586POPC   C1A58155  37.763  34.332   6.285
 4586POPC   D2A58156  37.788  34.046   6.626
 4586POPC   C3A58157  37.814  34.316   6.921
 4586POPC   C4A58158  37.635  34.344   7.288
 4586POPC   C1B58159  37.452  34.749   6.175
 4586POPC   C2B58160  37.609  34.751   6.594
 4586POPC   C3B58161  37.461  34.731   6.998
 4586POPC   C4B58162  37.456  34.841   7.435
 4587POPC   NC358163  31.841   3.589   5.516
 4587POPC   PO458164  31.183   3.483   5.369
 4587POPC   GL158165  31.366   3.446   5.770
 4587POPC   GL258166  31.434   3.813   5.793
 4587POPC   C1A58167  31.212   3.270   6.165
 4587POPC   D2A58168  31.053   3.114   6.567
 4587POPC   C3A58169  31.214   3.284   6.938
 4587POPC   C4A58170  31.295   3.133   7.361
 4587POPC   C1B58171  31.355   3.736   6.223
 4587POPC   C2B58172  31.478   3.619   6.633
 4587POPC   C3B58173  31.536   3.680   7.074
 4587POPC   C4B58174  31.552   3.589   7.512
 4588POPC   NC358175  19.218  38.683   5.424
 4588POPC   PO458176  18.744  38.247   5.132
 4588POPC   GL158177  18.831  38.352   5.564
 4588POPC   GL258178  18.731  38.675   5.613
 4588POPC   C1A58179  19.055  38.242   5.949
 4588POPC   D2A58180  19.043  38.336   6.389
 4588POPC   C3A58181  19.308  38.334   6.787
 4588POPC   C4A58182  19.249  38.062   7.162
 4588POPC   C1B58183  18.738  38.624   6.047
 4588POPC   C2B58184  18.724  38.746   6.475
 4588POPC   C3B58185  18.825  38.455   6.839
 4588POPC   C4B58186  19.061  38.557   7.221
 4589POPC   NC358187  24.684  25.528   5.396
 4589POPC   PO458188  25.394  25.386   5.502
 4589POPC   GL158189  25.357  25.366   5.909
 4589POPC   GL258190  25.079  25.644   5.880
 4589POPC   C1A58191  25.337  25.104   6.307
 4589POPC   D2A58192  25.218  25.246   6.743
 4589POPC   C3A58193  25.284  24.975   7.120
 4589POPC   C4A58194  25.545  24.991   7.510
 4589POPC   C1B58195  25.122  25.551   6.321
 4589POPC   C2B58196  25.068  25.757   6.680
 4589POPC   C3B58197  25.092  25.640   7.059
 4589POPC   C4B58198  25.349  25.442   7.326
 4590POPC   NC358199   2.799  19.392   5.438
 4590POPC   PO458200   2.426  18.782   5.317
 4590POPC   GL158201   2.599  18.875   5.707
 4590POPC   GL258202   2.446  19.202   5.763
 4590POPC   C1A58203   2.735  18.944   6.148
 4590POPC   D2A58204   2.905  18.723   6.505
 4590POPC   C3A58205   2.705  18.856   6.876
 4590POPC   C4A58206   2.950  18.884   7.223
 4590POPC   C1B58207   2.631  19.448   6.107
 4590POPC   C2B58208   2.593  19.328   6.540
 4590POPC   C3B58209   2.711  19.365   6.969
 4590POPC   C4B58210   2.490  19.125   7.284
 4591POPC   NC358211  18.863  17.840   5.412
 4591POPC   PO458212  19.250  18.339   5.547
 4591POPC   GL158213  19.191  18.025   5.852
 4591POPC   GL258214  18.859  18.142   5.854
 4591POPC   C1A58215  19.325  18.053   6.300
 4591POPC   D2A58216  19.524  18.408   6.537
 4591POPC   C3A58217  19.371  18.452   6.965
 4591POPC   C4A58218  19.250  18.077   7.252
 4591POPC   C1B58219  18.947  18.384   6.218
 4591POPC   C2B58220  19.024  18.279   6.648
 4591POPC   C3B58221  18.847  18.344   7.044
 4591POPC   C4B58222  18.920  18.655   7.366
 4592POPC   NC358223  30.339  42.518   5.344
 4592POPC   PO458224  30.856  42.090   5.449
 4592POPC   GL158225  30.879  42.275   5.830
 4592POPC   GL258226  30.661  42.538   5.755
 4592POPC   C1A58227  31.000  42.366   6.249
 4592POPC   D2A58228  30.859  42.638   6.581
 4592POPC   C3A58229  30.999  42.554   6.974
 4592POPC   C4A58230  31.115  42.122   6.988
 4592POPC   C1B58231  30.510  42.460   6.174
 4592POPC   C2B58232  30.355  42.521   6.557
 4592POPC   C3B58233  30.489  42.450   6.963
 4592POPC   C4B58234  30.267  42.439   7.321
 4593POPC   NC358235   4.696   5.112   5.429
 4593POPC   PO458236   4.037   5.189   5.496
 4593POPC   GL158237   4.362   5.186   5.805
 4593POPC   GL258238   4.426   4.797   5.765
 4593POPC   C1A58239   4.483   5.375   6.222
 4593POPC   D2A58240   4.350   5.223   6.669
 4593POPC   C3A58241   4.514   5.373   7.103
 4593POPC   C4A58242   4.523   5.559   7.590
 4593POPC   C1B58243   4.342   4.892   6.227
 4593POPC   C2B58244   4.332   4.698   6.636
 4593POPC   C3B58245   4.399   4.740   7.075
 4593POPC   C4B58246   4.208   4.681   7.527
 4594POPC   NC358247  37.261  23.246   5.511
 4594POPC   PO458248  37.492  22.608   5.487
 4594POPC   GL158249  37.662  22.759   5.844
 4594POPC   GL258250  37.640  23.119   5.819
 4594POPC   C1A58251  37.568  22.817   6.241
 4594POPC   D2A58252  37.558  23.032   6.582
 4594POPC   C3A58253  37.425  22.781   6.912
 4594POPC   C4A58254  37.404  22.635   7.316
 4594POPC   C1B58255  37.858  23.263   6.171
 4594POPC   C2B58256  38.053  23.163   6.552
 4594POPC   C3B58257  37.853  23.266   6.928
 4594POPC   C4B58258  37.709  23.079   7.304
 4595POPC   NC358259  10.186  43.441   5.377
 4595POPC   PO458260  10.794  43.153   5.454
 4595POPC   GL158261  10.480  43.126   5.811
 4595POPC   GL258262  10.651  43.351   6.019
 4595POPC   C1A58263  10.314  43.075   6.267
 4595POPC   D2A58264  10.490  43.188   6.702
 4595POPC   C3A58265  10.325  42.959   7.086
 4595POPC   C4A58266  10.174  42.962   7.517
 4595POPC   C1B58267  10.863  43.067   6.325
 4595POPC   C2B58268  11.024  43.104   6.759
 4595POPC   C3B58269  10.776  43.134   7.148
 4595POPC   C4B58270  10.526  43.326   7.478
 4596POPC   NC358271  23.047  33.043   5.403
 4596POPC   PO458272  22.543  33.342   5.632
 4596POPC   GL158273  22.770  33.096   5.855
 4596POPC   GL258274  23.124  33.099   5.927
 4596POPC   C1A58275  22.682  33.042   6.261
 4596POPC   D2A58276  22.742  32.863   6.644
 4596POPC   C3A58277  22.960  33.064   6.945
 4596POPC   C4A58278  22.804  33.065   7.333
 4596POPC   C1B58279  23.170  32.855   6.329
 4596POPC   C2B58280  23.193  32.587   6.725
 4596POPC   C3B58281  23.391  32.708   7.115
 4596POPC   C4B58282  23.370  33.067   7.348
 4597POPC   NC358283  21.819  26.780   5.141
 4597POPC   PO458284  22.454  26.722   5.408
 4597POPC   GL158285  22.308  26.918   5.832
 4597POPC   GL258286  21.928  26.919   5.864
 4597POPC   C1A58287  22.189  27.132   6.250
 4597POPC   D2A58288  22.060  26.972   6.654
 4597POPC   C3A58289  22.359  26.897   6.985
 4597POPC   C4A58290  22.352  26.821   7.436
 4597POPC   C1B58291  22.023  26.629   6.254
 4597POPC   C2B58292  22.202  26.457   6.673
 4597POPC   C3B58293  22.092  26.496   7.141
 4597POPC   C4B58294  21.992  26.507   7.586
 4598POPC   NC358295  27.603  36.534   5.146
 4598POPC   PO458296  27.795  36.006   5.613
 4598POPC   GL158297  27.588  36.153   5.921
 4598POPC   GL258298  27.339  36.343   5.767
 4598POPC   C1A58299  27.619  36.277   6.322
 4598POPC   D2A58300  27.564  36.524   6.656
 4598POPC   C3A58301  27.712  36.318   6.979
 4598POPC   C4A58302  27.595  36.403   7.372
 4598POPC   C1B58303  27.140  36.116   6.160
 4598POPC   C2B58304  27.190  36.173   6.596
 4598POPC   C3B58305  27.279  36.003   6.998
 4598POPC   C4B58306  27.460  35.624   7.165
 4599POPC   NC358307  36.796  27.283   5.636
 4599POPC   PO458308  37.036  27.946   5.606
 4599POPC   GL158309  37.214  27.643   5.880
 4599POPC   GL258310  37.319  27.274   5.777
 4599POPC   C1A58311  37.118  27.736   6.307
 4599POPC   D2A58312  36.847  27.785   6.683
 4599POPC   C3A58313  37.043  27.902   7.079
 4599POPC   C4A58314  37.316  27.739   7.374
 4599POPC   C1B58315  37.271  27.227   6.229
 4599POPC   C2B58316  37.195  27.384   6.684
 4599POPC   C3B58317  37.172  27.312   7.120
 4599POPC   C4B58318  36.781  27.248   7.326
 4600POPC   NC358319  22.837  41.781   5.371
 4600POPC   PO458320  22.612  41.208   5.550
 4600POPC   GL158321  22.899  41.353   5.866
 4600POPC   GL258322  23.016  41.705   5.835
 4600POPC   C1A58323  23.011  41.331   6.307
 4600POPC   D2A58324  22.692  41.334   6.623
 4600POPC   C3A58325  22.832  41.468   7.012
 4600POPC   C4A58326  23.168  41.217   7.191
 4600POPC   C1B58327  22.771  41.764   6.179
 4600POPC   C2B58328  22.919  41.801   6.579
 4600POPC   C3B58329  22.947  41.979   6.962
 4600POPC   C4B58330  22.677  41.881   7.297
 4601POPC   NC358331  39.523   5.018   5.104
 4601POPC   PO458332  39.100   5.247   5.568
 4601POPC   GL158333  39.123   5.217   5.970
 4601POPC   GL258334  38.873   5.431   5.984
 4601POPC   C1A58335  39.369   5.205   6.336
 4601POPC   D2A58336  39.219   5.022   6.707
 4601POPC   C3A58337  39.342   5.211   7.089
 4601POPC   C4A58338  39.318   4.838   7.352
 4601POPC   C1B58339  38.842   5.248   6.398
 4601POPC   C2B58340  38.745   5.178   6.843
 4601POPC   C3B58341  38.876   5.027   7.188
 4601POPC   C4B58342  38.978   5.289   7.458
 4602POPC   NC358343  43.639  28.798   5.517
 4602POPC   PO458344  44.075  28.330   5.325
 4602POPC   GL158345  43.827  28.374   5.725
 4602POPC   GL258346  43.972  28.656   5.917
 4602POPC   C1A58347  43.718  28.236   6.161
 4602POPC   D2A58348  43.975  28.216   6.535
 4602POPC   C3A58349  43.941  28.076   6.927
 4602POPC   C4A58350  44.075  28.381   7.201
 4602POPC   C1B58351  43.862  28.718   6.349
 4602POPC   C2B58352  43.614  28.766   6.729
 4602POPC   C3B58353  43.571  28.423   7.041
 4602POPC   C4B58354  43.687  28.333   7.492
 4603POPC   NC358355   1.736  25.249   5.576
 4603POPC   PO458356   1.162  25.361   5.453
 4603POPC   GL158357   1.176  25.484   5.892
 4603POPC   GL258358   0.961  25.775   5.890
 4603POPC   C1A58359   1.280  25.291   6.327
 4603POPC   D2A58360   1.234  25.131   6.787
 4603POPC   C3A58361   1.514  25.242   7.135
 4603POPC   C4A58362   1.598  25.051   7.558
 4603POPC   C1B58363   1.073  25.783   6.327
 4603POPC   C2B58364   0.880  25.462   6.596
 4603POPC   C3B58365   0.741  25.251   6.944
 4603POPC   C4B58366   1.040  25.453   7.141
 4604POPC   NC358367  23.727  25.257   5.283
 4604POPC   PO458368  24.430  25.162   5.244
 4604POPC   GL158369  24.517  25.140   5.705
 4604POPC   GL258370  24.775  24.870   5.703
 4604POPC   C1A58371  24.422  25.297   6.159
 4604POPC   D2A58372  24.161  25.320   6.552
 4604POPC   C3A58373  24.339  25.192   6.946
 4604POPC   C4A58374  24.345  25.182   7.378
 4604POPC   C1B58375  24.905  25.149   6.027
 4604POPC   C2B58376  24.820  25.072   6.444
 4604POPC   C3B58377  24.800  24.985   6.876
 4604POPC   C4B58378  24.834  25.222   7.223
 4605POPC   NC358379  21.734  32.628   5.309
 4605POPC   PO458380  22.238  33.146   5.204
 4605POPC   GL158381  22.086  33.075   5.670
 4605POPC   GL258382  21.764  33.240   5.799
 4605POPC   C1A58383  22.172  33.118   6.149
 4605POPC   D2A58384  22.077  33.170   6.617
 4605POPC   C3A58385  22.329  33.046   7.002
 4605POPC   C4A58386  22.322  33.224   7.442
 4605POPC   C1B58387  21.747  32.847   6.046
 4605POPC   C2B58388  21.762  32.720   6.491
 4605POPC   C3B58389  21.748  32.852   6.918
 4605POPC   C4B58390  21.952  32.878   7.327
 4606POPC   NC358391  16.761  19.017   5.404
 4606POPC   PO458392  16.270  19.434   5.485
 4606POPC   GL158393  16.523  19.242   5.810
 4606POPC   GL258394  16.504  18.905   5.870
 4606POPC   C1A58395  16.875  19.138   6.143
 4606POPC   D2A58396  16.988  18.961   6.566
 4606POPC   C3A58397  16.716  18.882   6.932
 4606POPC   C4A58398  16.788  19.027   7.381
 4606POPC   C1B58399  16.273  19.089   6.241
 4606POPC   C2B58400  16.176  18.949   6.687
 4606POPC   C3B58401  16.259  19.024   7.123
 4606POPC   C4B58402  16.316  18.888   7.550
 4607POPC   NC358403   2.573  26.656   5.260
 4607POPC   PO458404   2.965  27.044   5.602
 4607POPC   GL158405   2.893  26.856   5.936
 4607POPC   GL258406   2.729  26.570   5.842
 4607POPC   C1A58407   2.928  26.999   6.330
 4607POPC   D2A58408   2.588  27.175   6.570
 4607POPC   C3A58409   2.490  26.910   6.915
 4607POPC   C4A58410   2.778  26.949   7.240
 4607POPC   C1B58411   2.789  26.504   6.303
 4607POPC   C2B58412   3.050  26.630   6.671
 4607POPC   C3B58413   2.997  26.536   7.091
 4607POPC   C4B58414   2.581  26.459   7.306
 4608POPC   NC358415  40.979  24.652   5.432
 4608POPC   PO458416  40.520  24.125   5.552
 4608POPC   GL158417  40.795  24.365   5.810
 4608POPC   GL258418  40.661  24.715   5.859
 4608POPC   C1A58419  40.995  24.450   6.182
 4608POPC   D2A58420  41.215  24.447   6.528
 4608POPC   C3A58421  41.033  24.531   6.935
 4608POPC   C4A58422  41.102  24.498   7.369
 4608POPC   C1B58423  40.474  24.488   6.212
 4608POPC   C2B58424  40.640  24.435   6.608
 4608POPC   C3B58425  40.573  24.298   6.994
 4608POPC   C4B58426  40.588  24.634   7.222
 4609POPC   NC358427  28.210  19.738   5.163
 4609POPC   PO458428  27.544  19.861   5.371
 4609POPC   GL158429  27.529  19.589   5.701
 4609POPC   GL258430  27.903  19.476   5.745
 4609POPC   C1A58431  27.329  19.687   6.120
 4609POPC   D2A58432  27.431  19.532   6.487
 4609POPC   C3A58433  27.386  19.696   6.895
 4609POPC   C4A58434  27.551  19.900   7.246
 4609POPC   C1B58435  27.828  19.640   6.167
 4609POPC   C2B58436  27.879  19.780   6.603
 4609POPC   C3B58437  27.892  19.620   6.998
 4609POPC   C4B58438  27.606  19.391   7.250
 4610POPC   NC358439  37.998  24.193   5.293
 4610POPC   PO458440  37.556  23.605   5.420
 4610POPC   GL158441  37.619  23.886   5.746
 4610POPC   GL258442  37.867  24.120   5.775
 4610POPC   C1A58443  37.653  23.842   6.178
 4610POPC   D2A58444  37.706  23.590   6.540
 4610POPC   C3A58445  37.555  23.731   6.932
 4610POPC   C4A58446  37.819  23.640   7.275
 4610POPC   C1B58447  38.036  24.195   6.185
 4610POPC   C2B58448  38.026  24.012   6.597
 4610POPC   C3B58449  37.921  24.095   7.018
 4610POPC   C4B58450  37.980  24.074   7.488
 4611POPC   NC358451   3.425   3.403   5.512
 4611POPC   PO458452   3.740   4.013   5.446
 4611POPC   GL158453   3.764   3.751   5.775
 4611POPC   GL258454   3.404   3.826   5.821
 4611POPC   C1A58455   3.926   3.452   6.087
 4611POPC   D2A58456   3.790   3.286   6.481
 4611POPC   C3A58457   3.718   3.512   6.874
 4611POPC   C4A58458   3.529   3.349   7.274
 4611POPC   C1B58459   3.258   3.645   6.208
 4611POPC   C2B58460   3.230   3.573   6.660
 4611POPC   C3B58461   3.295   3.750   7.066
 4611POPC   C4B58462   3.186   3.771   7.497
 4612POPC   NC358463  21.119  39.723   5.450
 4612POPC   PO458464  21.548  40.194   5.345
 4612POPC   GL158465  21.437  39.979   5.766
 4612POPC   GL258466  21.250  40.232   5.952
 4612POPC   C1A58467  21.457  39.831   6.212
 4612POPC   D2A58468  21.343  40.105   6.547
 4612POPC   C3A58469  21.418  39.949   6.960
 4612POPC   C4A58470  21.230  39.969   7.362
 4612POPC   C1B58471  21.674  40.288   6.140
 4612POPC   C2B58472  21.870  40.185   6.530
 4612POPC   C3B58473  21.799  40.355   6.943
 4612POPC   C4B58474  21.729  40.151   7.354
 4613POPC   NC358475  26.565   1.319   5.418
 4613POPC   PO458476  27.123   0.928   5.463
 4613POPC   GL158477  26.941   1.184   5.776
 4613POPC   GL258478  26.600   1.023   5.843
 4613POPC   C1A58479  26.880   1.321   6.193
 4613POPC   D2A58480  26.737   1.160   6.588
 4613POPC   C3A58481  26.789   1.458   6.910
 4613POPC   C4A58482  26.891   1.360   7.311
 4613POPC   C1B58483  26.460   0.840   6.262
 4613POPC   C2B58484  26.402   0.802   6.735
 4613POPC   C3B58485  26.632   0.932   7.102
 4613POPC   C4B58486  26.651   0.643   7.425
 4614POPC   NC358487  39.689  19.619   5.527
 4614POPC   PO458488  40.197  19.798   5.090
 4614POPC   GL158489  40.176  19.996   5.623
 4614POPC   GL258490  39.838  20.067   5.766
 4614POPC   C1A58491  40.169  19.838   6.153
 4614POPC   D2A58492  40.255  19.475   6.477
 4614POPC   C3A58493  40.082  19.500   6.909
 4614POPC   C4A58494  40.083  19.630   7.354
 4614POPC   C1B58495  39.676  19.899   6.168
 4614POPC   C2B58496  39.821  19.769   6.566
 4614POPC   C3B58497  39.830  19.943   6.964
 4614POPC   C4B58498  39.967  20.126   7.321
 4615POPC   NC358499  24.561  32.494   5.355
 4615POPC   PO458500  24.506  31.830   5.395
 4615POPC   GL158501  24.424  32.124   5.695
 4615POPC   GL258502  24.787  32.105   5.764
 4615POPC   C1A58503  24.506  32.420   6.034
 4615POPC   D2A58504  24.684  32.319   6.404
 4615POPC   C3A58505  24.472  32.364   6.790
 4615POPC   C4A58506  24.681  32.446   7.154
 4615POPC   C1B58507  24.795  31.863   6.170
 4615POPC   C2B58508  24.936  31.931   6.591
 4615POPC   C3B58509  24.750  31.954   6.984
 4615POPC   C4B58510  24.830  31.796   7.388
 4616POPC   NC358511  11.360  33.816   5.216
 4616POPC   PO458512  11.932  33.563   5.338
 4616POPC   GL158513  11.673  33.626   5.749
 4616POPC   GL258514  11.337  33.763   5.713
 4616POPC   C1A58515  11.581  34.037   6.028
 4616POPC   D2A58516  11.454  34.203   6.424
 4616POPC   C3A58517  11.275  33.963   6.758
 4616POPC   C4A58518  11.411  33.939   7.179
 4616POPC   C1B58519  11.210  33.690   6.167
 4616POPC   C2B58520  11.202  33.467   6.571
 4616POPC   C3B58521  11.117  33.549   7.034
 4616POPC   C4B58522  10.877  33.879   7.231
 4617POPC   NC358523  23.056  12.257   5.634
 4617POPC   PO458524  22.667  11.643   5.497
 4617POPC   GL158525  22.795  11.893   5.874
 4617POPC   GL258526  22.755  12.261   6.034
 4617POPC   C1A58527  22.892  11.874   6.314
 4617POPC   D2A58528  22.744  11.787   6.720
 4617POPC   C3A58529  23.054  11.946   6.954
 4617POPC   C4A58530  23.007  12.356   7.154
 4617POPC   C1B58531  22.413  12.451   6.247
 4617POPC   C2B58532  22.453  12.603   6.652
 4617POPC   C3B58533  22.485  12.364   7.053
 4617POPC   C4B58534  22.608  11.965   7.216
 4618POPC   NC358535  20.616  41.206   5.211
 4618POPC   PO458536  20.382  41.811   5.346
 4618POPC   GL158537  20.621  41.693   5.725
 4618POPC   GL258538  20.733  41.991   5.924
 4618POPC   C1A58539  20.754  41.448   6.112
 4618POPC   D2A58540  20.523  41.373   6.493
 4618POPC   C3A58541  20.695  41.407   6.910
 4618POPC   C4A58542  20.394  41.456   7.200
 4618POPC   C1B58543  20.539  41.898   6.318
 4618POPC   C2B58544  20.520  41.873   6.778
 4618POPC   C3B58545  20.541  41.942   7.204
 4618POPC   C4B58546  20.552  41.734   7.609
 4619POPC   NC358547  25.465  24.914   5.508
 4619POPC   PO458548  24.940  24.504   5.377
 4619POPC   GL158549  25.186  24.526   5.759
 4619POPC   GL258550  25.005  24.278   5.922
 4619POPC   C1A58551  25.413  24.587   6.197
 4619POPC   D2A58552  25.307  24.729   6.646
 4619POPC   C3A58553  25.543  24.539   6.991
 4619POPC   C4A58554  25.388  24.277   7.344
 4619POPC   C1B58555  24.905  24.642   6.171
 4619POPC   C2B58556  24.776  24.574   6.587
 4619POPC   C3B58557  24.977  24.502   7.016
 4619POPC   C4B58558  24.875  24.223   7.379
 4620POPC   NC358559  44.720  13.805   5.454
 4620POPC   PO458560  44.770  13.114   5.459
 4620POPC   GL158561  44.700  13.467   5.828
 4620POPC   GL258562  44.521  13.876   5.896
 4620POPC   C1A58563  44.828  13.642   6.201
 4620POPC   D2A58564  44.907  13.821   6.598
 4620POPC   C3A58565  44.825  13.576   6.942
 4620POPC   C4A58566  44.990  13.501   7.318
 4620POPC   C1B58567  44.438  13.956   6.351
 4620POPC   C2B58568  44.352  13.664   6.687
 4620POPC   C3B58569  44.348  13.520   7.083
 4620POPC   C4B58570  44.524  13.803   7.380
 4621POPC   NC358571  29.290  21.078   5.505
 4621POPC   PO458572  29.019  21.695   5.475
 4621POPC   GL158573  29.088  21.443   5.816
 4621POPC   GL258574  29.439  21.468   5.827
 4621POPC   C1A58575  29.023  21.425   6.264
 4621POPC   D2A58576  29.129  21.561   6.690
 4621POPC   C3A58577  29.084  21.223   7.004
 4621POPC   C4A58578  28.870  21.235   7.418
 4621POPC   C1B58579  29.529  21.612   6.240
 4621POPC   C2B58580  29.649  21.438   6.642
 4621POPC   C3B58581  29.518  21.561   7.053
 4621POPC   C4B58582  29.374  21.369   7.438
 4622POPC   NC358583  44.253  17.012   5.485
 4622POPC   PO458584  43.815  16.538   5.302
 4622POPC   GL158585  43.888  16.761   5.723
 4622POPC   GL258586  43.642  16.962   5.908
 4622POPC   C1A58587  44.103  16.911   6.118
 4622POPC   D2A58588  43.811  17.023   6.421
 4622POPC   C3A58589  43.905  16.990   6.846
 4622POPC   C4A58590  44.052  16.866   7.248
 4622POPC   C1B58591  43.681  16.584   6.187
 4622POPC   C2B58592  43.865  16.516   6.619
 4622POPC   C3B58593  43.692  16.545   7.043
 4622POPC   C4B58594  43.411  16.403   7.350
 4623POPC   NC358595   5.538  14.675   5.483
 4623POPC   PO458596   6.189  14.997   5.562
 4623POPC   GL158597   5.752  15.071   5.733
 4623POPC   GL258598   5.552  15.392   5.780
 4623POPC   C1A58599   5.677  15.040   6.151
 4623POPC   D2A58600   5.925  15.066   6.519
 4623POPC   C3A58601   5.712  14.893   6.862
 4623POPC   C4A58602   5.739  14.952   7.303
 4623POPC   C1B58603   5.672  15.558   6.202
 4623POPC   C2B58604   5.842  15.590   6.636
 4623POPC   C3B58605   5.795  15.382   7.031
 4623POPC   C4B58606   5.620  15.403   7.481
 4624POPC   NC358607  35.544  19.182   5.122
 4624POPC   PO458608  35.183  18.847   5.605
 4624POPC   GL158609  35.269  18.958   5.988
 4624POPC   GL258610  34.965  18.775   6.071
 4624POPC   C1A58611  35.561  19.012   6.353
 4624POPC   D2A58612  35.662  19.371   6.601
 4624POPC   C3A58613  35.471  19.207   6.948
 4624POPC   C4A58614  35.653  18.830   7.076
 4624POPC   C1B58615  35.061  19.065   6.431
 4624POPC   C2B58616  35.247  18.816   6.720
 4624POPC   C3B58617  35.144  18.767   7.104
 4624POPC   C4B58618  35.255  19.050   7.391
 4625POPC   NC358619  27.302  40.256   5.506
 4625POPC   PO458620  27.978  40.234   5.566
 4625POPC   GL158621  27.581  40.101   5.897
 4625POPC   GL258622  27.211  39.911   5.854
 4625POPC   C1A58623  27.477  39.847   6.283
 4625POPC   D2A58624  27.452  39.839   6.732
 4625POPC   C3A58625  27.820  39.936   6.931
 4625POPC   C4A58626  27.894  40.199   7.293
 4625POPC   C1B58627  27.157  40.259   6.154
 4625POPC   C2B58628  27.310  40.309   6.568
 4625POPC   C3B58629  27.456  40.308   6.999
 4625POPC   C4B58630  27.349  40.320   7.413
 4626POPC   NC358631  34.726  17.344   4.974
 4626POPC   PO458632  34.584  17.783   5.457
 4626POPC   GL158633  34.580  17.564   5.833
 4626POPC   GL258634  34.281  17.748   5.901
 4626POPC   C1A58635  34.707  17.252   6.165
 4626POPC   D2A58636  34.798  17.078   6.594
 4626POPC   C3A58637  34.534  17.221   6.952
 4626POPC   C4A58638  34.421  17.532   7.257
 4626POPC   C1B58639  34.466  17.702   6.318
 4626POPC   C2B58640  34.409  17.788   6.740
 4626POPC   C3B58641  34.766  17.760   6.955
 4626POPC   C4B58642  34.896  17.869   7.326
 4627POPC   NC358643  27.903  10.578   5.327
 4627POPC   PO458644  27.221  10.544   5.345
 4627POPC   GL158645  27.475  10.405   5.747
 4627POPC   GL258646  27.808  10.199   5.771
 4627POPC   C1A58647  27.484  10.489   6.202
 4627POPC   D2A58648  27.515  10.690   6.594
 4627POPC   C3A58649  27.428  10.513   6.948
 4627POPC   C4A58650  27.445  10.846   7.203
 4627POPC   C1B58651  27.954  10.264   6.210
 4627POPC   C2B58652  27.748  10.239   6.622
 4627POPC   C3B58653  27.906  10.342   7.035
 4627POPC   C4B58654  27.922  10.122   7.417
 4628POPC   NC358655  25.747   7.386   5.451
 4628POPC   PO458656  26.260   7.855   5.450
 4628POPC   GL158657  26.080   7.615   5.838
 4628POPC   GL258658  25.971   7.239   5.891
 4628POPC   C1A58659  25.812   7.600   6.225
 4628POPC   D2A58660  25.871   7.303   6.558
 4628POPC   C3A58661  25.828   7.298   7.009
 4628POPC   C4A58662  25.899   7.681   7.237
 4628POPC   C1B58663  26.303   7.297   6.198
 4628POPC   C2B58664  26.441   7.505   6.542
 4628POPC   C3B58665  26.300   7.517   6.937
 4628POPC   C4B58666  26.299   7.241   7.246
 4629POPC   NC358667  44.433  29.535   5.571
 4629POPC   PO458668  44.686  29.002   5.326
 4629POPC   GL158669  44.754  29.142   5.790
 4629POPC   GL258670  44.468  29.182   5.946
 4629POPC   C1A58671  44.815  29.155   6.292
 4629POPC   D2A58672  44.705  29.472   6.650
 4629POPC   C3A58673  44.540  29.238   7.012
 4629POPC   C4A58674  44.826  28.969   7.251
 4629POPC   C1B58675  44.359  28.831   6.242
 4629POPC   C2B58676  44.310  28.617   6.641
 4629POPC   C3B58677  44.382  28.746   7.053
 4629POPC   C4B58678  44.368  28.937   7.443
 4630POPC   NC358679  22.957  30.387   5.566
 4630POPC   PO458680  22.761  30.929   5.184
 4630POPC   GL158681  22.865  30.917   5.685
 4630POPC   GL258682  22.778  30.691   6.014
 4630POPC   C1A58683  23.202  30.922   6.035
 4630POPC   D2A58684  23.242  31.038   6.495
 4630POPC   C3A58685  23.236  30.768   6.877
 4630POPC   C4A58686  23.249  30.968   7.299
 4630POPC   C1B58687  22.763  30.809   6.467
 4630POPC   C2B58688  22.431  30.939   6.756
 4630POPC   C3B58689  22.448  30.953   7.166
 4630POPC   C4B58690  22.826  30.677   7.222
 4631POPC   NC358691  15.562   7.718   5.278
 4631POPC   PO458692  15.127   7.152   5.267
 4631POPC   GL158693  15.146   7.311   5.711
 4631POPC   GL258694  15.460   7.515   5.766
 4631POPC   C1A58695  15.129   7.464   6.163
 4631POPC   D2A58696  15.304   7.621   6.565
 4631POPC   C3A58697  15.157   7.380   6.912
 4631POPC   C4A58698  15.092   7.386   7.355
 4631POPC   C1B58699  15.535   7.790   6.125
 4631POPC   C2B58700  15.626   8.016   6.510
 4631POPC   C3B58701  15.599   7.861   6.944
 4631POPC   C4B58702  15.406   7.814   7.344
 4632POPC   NC358703   5.630  41.031   5.658
 4632POPC   PO458704   6.016  41.416   5.299
 4632POPC   GL158705   5.903  41.605   5.705
 4632POPC   GL258706   5.984  41.313   5.888
 4632POPC   C1A58707   5.775  41.695   6.157
 4632POPC   D2A58708   5.927  41.695   6.588
 4632POPC   C3A58709   5.705  41.626   6.957
 4632POPC   C4A58710   5.927  41.673   7.279
 4632POPC   C1B58711   5.997  41.177   6.305
 4632POPC   C2B58712   5.808  41.183   6.700
 4632POPC   C3B58713   5.955  41.188   7.123
 4632POPC   C4B58714   5.691  41.278   7.467
 4633POPC   NC358715  13.029  11.073   5.293
 4633POPC   PO458716  12.398  11.307   5.430
 4633POPC   GL158717  12.768  11.164   5.723
 4633POPC   GL258718  13.004  11.434   5.747
 4633POPC   C1A58719  13.017  11.117   6.146
 4633POPC   D2A58720  12.882  11.271   6.571
 4633POPC   C3A58721  13.037  11.316   7.003
 4633POPC   C4A58722  12.960  11.492   7.434
 4633POPC   C1B58723  13.076  11.612   6.220
 4633POPC   C2B58724  13.259  11.619   6.659
 4633POPC   C3B58725  13.202  11.805   7.118
 4633POPC   C4B58726  13.416  11.687   7.590
 4634POPC   NC358727  11.641  13.280   5.479
 4634POPC   PO458728  11.208  13.837   5.432
 4634POPC   GL158729  11.275  13.604   5.808
 4634POPC   GL258730  11.008  13.843   5.912
 4634POPC   C1A58731  11.363  13.355   6.219
 4634POPC   D2A58732  11.232  13.507   6.650
 4634POPC   C3A58733  11.474  13.511   7.026
 4634POPC   C4A58734  11.463  13.139   7.262
 4634POPC   C1B58735  11.280  13.860   6.263
 4634POPC   C2B58736  11.521  13.921   6.652
 4634POPC   C3B58737  11.264  13.994   6.976
 4634POPC   C4B58738  11.209  14.062   7.377
 4635POPC   NC358739  31.285  38.799   5.578
 4635POPC   PO458740  31.677  39.240   5.178
 4635POPC   GL158741  31.660  39.277   5.662
 4635POPC   GL258742  31.714  38.956   5.845
 4635POPC   C1A58743  31.376  39.305   6.055
 4635POPC   D2A58744  31.123  39.341   6.456
 4635POPC   C3A58745  31.242  39.544   6.846
 4635POPC   C4A58746  31.135  39.395   7.255
 4635POPC   C1B58747  31.875  39.236   6.193
 4635POPC   C2B58748  31.696  39.414   6.583
 4635POPC   C3B58749  31.598  39.224   6.989
 4635POPC   C4B58750  31.800  39.199   7.372
 4636POPC   NC358751  17.089   7.128   5.358
 4636POPC   PO458752  17.593   7.563   5.580
 4636POPC   GL158753  17.362   7.268   5.833
 4636POPC   GL258754  17.542   6.950   5.957
 4636POPC   C1A58755  17.415   7.360   6.272
 4636POPC   D2A58756  17.487   7.702   6.562
 4636POPC   C3A58757  17.399   7.595   6.974
 4636POPC   C4A58758  17.642   7.331   7.175
 4636POPC   C1B58759  17.533   6.848   6.377
 4636POPC   C2B58760  17.478   7.118   6.734
 4636POPC   C3B58761  17.182   7.101   7.079
 4636POPC   C4B58762  17.286   7.072   7.503
 4637POPC   NC358763   3.605  19.994   5.434
 4637POPC   PO458764   3.262  19.418   5.437
 4637POPC   GL158765   3.589  19.562   5.748
 4637POPC   GL258766   3.937  19.417   5.751
 4637POPC   C1A58767   3.681  19.877   6.084
 4637POPC   D2A58768   3.571  20.188   6.374
 4637POPC   C3A58769   3.689  20.082   6.822
 4637POPC   C4A58770   3.667  19.969   7.263
 4637POPC   C1B58771   3.771  19.370   6.197
 4637POPC   C2B58772   3.818  19.568   6.607
 4637POPC   C3B58773   3.554  19.487   6.980
 4637POPC   C4B58774   3.630  19.453   7.420
 4638POPC   NC358775  41.931  42.700   5.449
 4638POPC   PO458776  42.582  42.886   5.147
 4638POPC   GL158777  42.496  43.058   5.549
 4638POPC   GL258778  42.421  42.744   5.669
 4638POPC   C1A58779  42.632  43.131   5.998
 4638POPC   D2A58780  42.749  43.407   6.376
 4638POPC   C3A58781  42.538  43.288   6.761
 4638POPC   C4A58782  42.705  43.092   7.117
 4638POPC   C1B58783  42.216  42.795   6.061
 4638POPC   C2B58784  42.235  42.917   6.486
 4638POPC   C3B58785  42.218  42.886   6.922
 4638POPC   C4B58786  42.222  42.955   7.338
 4639POPC   NC358787  21.501  44.039   5.202
 4639POPC   PO458788  20.940  43.683   5.154
 4639POPC   GL158789  21.250  43.747   5.578
 4639POPC   GL258790  21.480  44.068   5.699
 4639POPC   C1A58791  21.373  43.736   6.065
 4639POPC   D2A58792  21.526  43.564   6.495
 4639POPC   C3A58793  21.403  43.783   6.911
 4639POPC   C4A58794  21.601  43.881   7.317
 4639POPC   C1B58795  21.620  44.196   6.117
 4639POPC   C2B58796  21.409  44.130   6.539
 4639POPC   C3B58797  21.210  44.293   6.942
 4639POPC   C4B58798  21.150  44.111   7.353
 4640POPC   NC358799  26.989  27.926   5.370
 4640POPC   PO458800  26.531  27.360   5.407
 4640POPC   GL158801  26.623  27.700   5.665
 4640POPC   GL258802  26.922  27.505   5.806
 4640POPC   C1A58803  26.813  27.933   6.027
 4640POPC   D2A58804  26.993  27.683   6.372
 4640POPC   C3A58805  26.842  27.666   6.792
 4640POPC   C4A58806  26.761  27.691   7.221
 4640POPC   C1B58807  26.586  27.496   6.146
 4640POPC   C2B58808  26.412  27.493   6.574
 4640POPC   C3B58809  26.505  27.297   6.985
 4640POPC   C4B58810  26.762  27.196   7.351
 4641POPC   NC358811  23.479   0.060   5.346
 4641POPC   PO458812  23.751   0.721   5.362
 4641POPC   GL158813  23.574   0.465   5.675
 4641POPC   GL258814  23.387   0.727   5.844
 4641POPC   C1A58815  23.649   0.351   6.101
 4641POPC   D2A58816  23.871   0.224   6.464
 4641POPC   C3A58817  23.713   0.364   6.855
 4641POPC   C4A58818  23.810   0.337   7.281
 4641POPC   C1B58819  23.712   0.859   6.139
 4641POPC   C2B58820  23.839   0.804   6.594
 4641POPC   C3B58821  23.887   0.805   7.061
 4641POPC   C4B58822  23.485   0.723   7.301
 4642POPC   NC358823  36.743  17.922   5.421
 4642POPC   PO458824  37.159  18.509   5.480
 4642POPC   GL158825  36.920  18.463   5.825
 4642POPC   GL258826  36.578  18.346   5.818
 4642POPC   C1A58827  37.049  18.500   6.233
 4642POPC   D2A58828  36.852  18.415   6.593
 4642POPC   C3A58829  37.055  18.621   6.930
 4642POPC   C4A58830  37.069  18.555   7.375
 4642POPC   C1B58831  36.774  18.061   6.152
 4642POPC   C2B58832  37.090  17.950   6.486
 4642POPC   C3B58833  37.080  18.107   6.912
 4642POPC   C4B58834  36.667  18.285   7.063
 4643POPC   NC358835  16.569   1.336   5.461
 4643POPC   PO458836  17.085   0.869   5.548
 4643POPC   GL158837  16.915   1.078   5.938
 4643POPC   GL258838  16.878   1.455   5.898
 4643POPC   C1A58839  16.837   1.162   6.397
 4643POPC   D2A58840  16.591   0.992   6.748
 4643POPC   C3A58841  16.778   1.047   7.147
 4643POPC   C4A58842  17.038   1.283   7.470
 4643POPC   C1B58843  16.609   1.600   6.270
 4643POPC   C2B58844  16.576   1.534   6.729
 4643POPC   C3B58845  16.819   1.557   7.118
 4643POPC   C4B58846  16.761   1.703   7.580
 4644POPC   NC358847   0.769  21.334   5.432
 4644POPC   PO458848   1.190  21.865   5.466
 4644POPC   GL158849   1.072  21.571   5.787
 4644POPC   GL258850   1.158  21.231   5.775
 4644POPC   C1A58851   0.993  21.454   6.215
 4644POPC   D2A58852   1.190  21.317   6.596
 4644POPC   C3A58853   1.271  21.551   6.973
 4644POPC   C4A58854   1.052  21.418   7.319
 4644POPC   C1B58855   1.396  21.104   6.169
 4644POPC   C2B58856   1.485  20.904   6.625
 4644POPC   C3B58857   1.375  21.071   7.063
 4644POPC   C4B58858   1.556  21.335   7.454
 4645POPC   NC358859  41.780  26.562   5.328
 4645POPC   PO458860  41.537  25.944   5.317
 4645POPC   GL158861  41.595  26.025   5.757
 4645POPC   GL258862  41.511  25.689   5.860
 4645POPC   C1A58863  41.756  26.164   6.180
 4645POPC   D2A58864  41.649  26.118   6.632
 4645POPC   C3A58865  41.760  26.367   6.993
 4645POPC   C4A58866  41.456  26.425   7.320
 4645POPC   C1B58867  41.367  25.853   6.258
 4645POPC   C2B58868  41.442  25.663   6.682
 4645POPC   C3B58869  41.574  25.831   7.102
 4645POPC   C4B58870  41.655  25.726   7.563
 4646POPC   NC358871  23.260  40.163   5.566
 4646POPC   PO458872  23.129  39.531   5.554
 4646POPC   GL158873  22.880  39.866   5.778
 4646POPC   GL258874  22.732  40.192   5.609
 4646POPC   C1A58875  23.075  39.966   6.175
 4646POPC   D2A58876  23.257  39.798   6.535
 4646POPC   C3A58877  23.208  40.100   6.807
 4646POPC   C4A58878  23.126  40.189   7.219
 4646POPC   C1B58879  22.723  40.335   6.060
 4646POPC   C2B58880  22.919  40.389   6.472
 4646POPC   C3B58881  22.818  40.451   6.863
 4646POPC   C4B58882  22.678  40.438   7.241
 4647POPC   NC358883  43.010  21.154   5.371
 4647POPC   PO458884  43.291  21.726   5.630
 4647POPC   GL158885  43.136  21.332   5.879
 4647POPC   GL258886  42.828  21.067   5.857
 4647POPC   C1A58887  43.064  21.380   6.326
 4647POPC   D2A58888  42.979  21.671   6.686
 4647POPC   C3A58889  43.218  21.613   7.034
 4647POPC   C4A58890  43.199  21.276   7.207
 4647POPC   C1B58891  42.710  20.972   6.302
 4647POPC   C2B58892  42.838  21.138   6.708
 4647POPC   C3B58893  42.734  21.138   7.120
 4647POPC   C4B58894  42.902  21.110   7.580
 4648POPC   NC358895  23.063  24.915   5.328
 4648POPC   PO458896  22.852  24.313   5.175
 4648POPC   GL158897  22.862  24.444   5.612
 4648POPC   GL258898  23.218  24.479   5.735
 4648POPC   C1A58899  22.673  24.438   6.042
 4648POPC   D2A58900  22.807  24.460   6.486
 4648POPC   C3A58901  22.648  24.472   6.911
 4648POPC   C4A58902  22.703  24.544   7.383
 4648POPC   C1B58903  23.228  24.301   6.171
 4648POPC   C2B58904  23.319  24.395   6.611
 4648POPC   C3B58905  23.148  24.509   6.997
 4648POPC   C4B58906  23.192  24.654   7.406
 4649POPC   NC358907  27.174  42.578   5.034
 4649POPC   PO458908  27.838  42.610   5.383
 4649POPC   GL158909  27.675  42.468   5.790
 4649POPC   GL258910  27.354  42.538   5.925
 4649POPC   C1A58911  27.727  42.287   6.194
 4649POPC   D2A58912  27.526  42.254   6.581
 4649POPC   C3A58913  27.857  42.339   6.854
 4649POPC   C4A58914  27.836  42.281   7.281
 4649POPC   C1B58915  27.220  42.821   6.263
 4649POPC   C2B58916  27.199  42.801   6.716
 4649POPC   C3B58917  27.420  42.553   7.011
 4649POPC   C4B58918  27.315  42.496   7.446
 4650POPC   NC358919   0.182   0.362   4.958
 4650POPC   PO458920   0.716   0.281   5.427
 4650POPC   GL158921   0.506   0.503   5.781
 4650POPC   GL258922   0.211   0.313   5.848
 4650POPC   C1A58923   0.461   0.610   6.232
 4650POPC   D2A58924   0.259   0.463   6.631
 4650POPC   C3A58925   0.505   0.639   7.012
 4650POPC   C4A58926   0.788   0.576   7.387
 4650POPC   C1B58927   0.074   0.045   6.256
 4650POPC   C2B58928  44.998   0.018   6.727
 4650POPC   C3B58929   0.176   0.251   7.102
 4650POPC   C4B58930   0.425   0.270   7.513
 4651POPC   NC358931  15.445  12.425   5.456
 4651POPC   PO458932  16.121  12.770   5.269
 4651POPC   GL158933  15.962  12.976   5.632
 4651POPC   GL258934  15.869  12.654   5.720
 4651POPC   C1A58935  15.975  13.009   6.097
 4651POPC   D2A58936  15.862  12.837   6.489
 4651POPC   C3A58937  15.958  12.961   6.897
 4651POPC   C4A58938  16.088  12.721   7.223
 4651POPC   C1B58939  15.709  12.504   6.105
 4651POPC   C2B58940  15.482  12.509   6.498
 4651POPC   C3B58941  15.636  12.432   6.914
 4651POPC   C4B58942  15.284  12.428   7.167
 4652POPC   NC358943  11.495   6.426   5.271
 4652POPC   PO458944  11.187   5.907   5.514
 4652POPC   GL158945  11.268   6.032   5.901
 4652POPC   GL258946  11.575   6.225   5.758
 4652POPC   C1A58947  11.317   5.814   6.331
 4652POPC   D2A58948  11.449   5.842   6.790
 4652POPC   C3A58949  11.229   5.675   7.161
 4652POPC   C4A58950  11.096   5.495   7.581
 4652POPC   C1B58951  11.540   6.311   6.215
 4652POPC   C2B58952  11.145   6.288   6.461
 4652POPC   C3B58953  11.139   6.263   6.871
 4652POPC   C4B58954  11.368   6.206   7.225
 4653POPC   NC358955  36.919  28.385   5.526
 4653POPC   PO458956  37.579  28.649   5.512
 4653POPC   GL158957  37.185  28.603   5.879
 4653POPC   GL258958  37.098  28.227   6.017
 4653POPC   C1A58959  36.924  28.625   6.260
 4653POPC   D2A58960  36.969  28.260   6.519
 4653POPC   C3A58961  36.848  28.347   6.886
 4653POPC   C4A58962  37.140  28.448   7.197
 4653POPC   C1B58963  36.639  28.093   6.170
 4653POPC   C2B58964  36.412  28.057   6.591
 4653POPC   C3B58965  36.524  27.964   7.058
 4653POPC   C4B58966  36.650  28.344   7.342
 4654POPC   NC358967  15.121  29.471   5.387
 4654POPC   PO458968  15.274  30.077   5.425
 4654POPC   GL158969  15.219  29.828   5.780
 4654POPC   GL258970  14.895  29.670   5.818
 4654POPC   C1A58971  15.370  29.860   6.201
 4654POPC   D2A58972  15.406  30.080   6.574
 4654POPC   C3A58973  15.331  29.883   6.958
 4654POPC   C4A58974  15.158  30.002   7.360
 4654POPC   C1B58975  14.875  29.930   6.169
 4654POPC   C2B58976  14.939  29.793   6.589
 4654POPC   C3B58977  14.928  29.577   7.007
 4654POPC   C4B58978  14.824  29.641   7.434
 4655POPC   NC358979  22.518  28.803   5.522
 4655POPC   PO458980  23.173  28.413   5.465
 4655POPC   GL158981  22.947  28.327   5.823
 4655POPC   GL258982  22.776  28.625   5.909
 4655POPC   C1A58983  22.916  28.279   6.271
 4655POPC   D2A58984  22.861  28.500   6.639
 4655POPC   C3A58985  23.054  28.469   7.005
 4655POPC   C4A58986  22.930  28.371   7.395
 4655POPC   C1B58987  22.610  28.795   6.294
 4655POPC   C2B58988  22.499  28.847   6.750
 4655POPC   C3B58989  22.694  28.803   7.187
 4655POPC   C4B58990  22.800  28.799   7.677
 4656POPC   NC358991  22.853   8.805   5.465
 4656POPC   PO458992  23.384   9.209   5.238
 4656POPC   GL158993  23.293   9.080   5.679
 4656POPC   GL258994  23.304   8.729   5.732
 4656POPC   C1A58995  23.232   9.200   6.126
 4656POPC   D2A58996  23.157   9.276   6.576
 4656POPC   C3A58997  22.852   9.032   6.804
 4656POPC   C4A58998  22.971   8.954   7.237
 4656POPC   C1B58999  23.051   8.728   6.100
 4656POPC   C2B59000  23.212   8.749   6.498
 4656POPC   C3B59001  23.172   8.622   6.902
 4656POPC   C4B59002  23.321   8.588   7.298
 4657POPC   NC359003   6.415  17.780   5.457
 4657POPC   PO459004   7.046  17.391   5.434
 4657POPC   GL159005   6.831  17.655   5.725
 4657POPC   GL259006   6.576  17.439   5.812
 4657POPC   C1A59007   6.705  17.823   6.128
 4657POPC   D2A59008   6.690  17.626   6.517
 4657POPC   C3A59009   6.647  17.813   6.899
 4657POPC   C4A59010   6.304  17.673   7.117
 4657POPC   C1B59011   6.798  17.266   6.135
 4657POPC   C2B59012   6.894  17.156   6.542
 4657POPC   C3B59013   6.608  17.264   6.898
 4657POPC   C4B59014   6.586  17.239   7.342
 4658POPC   NC359015  21.314  37.504   5.321
 4658POPC   PO459016  21.285  38.089   5.451
 4658POPC   GL159017  21.576  37.752   5.738
 4658POPC   GL259018  21.811  37.903   6.008
 4658POPC   C1A59019  21.770  37.395   6.045
 4658POPC   D2A59020  21.769  37.229   6.494
 4658POPC   C3A59021  21.671  37.446   6.902
 4658POPC   C4A59022  21.384  37.557   7.222
 4658POPC   C1B59023  21.429  37.696   6.250
 4658POPC   C2B59024  21.219  37.504   6.620
 4658POPC   C3B59025  21.018  37.764   6.947
 4658POPC   C4B59026  21.009  37.881   7.386
 4659POPC   NC359027  31.049  31.740   5.220
 4659POPC   PO459028  30.767  31.255   5.556
 4659POPC   GL159029  30.791  31.456   5.923
 4659POPC   GL259030  30.855  31.765   5.756
 4659POPC   C1A59031  30.933  31.343   6.356
 4659POPC   D2A59032  30.677  31.259   6.737
 4659POPC   C3A59033  30.786  31.148   7.162
 4659POPC   C4A59034  30.877  30.926   7.559
 4659POPC   C1B59035  30.788  31.841   6.225
 4659POPC   C2B59036  30.878  31.737   6.661
 4659POPC   C3B59037  30.697  31.666   7.060
 4659POPC   C4B59038  30.724  31.901   7.451
 4660POPC   NC359039  22.504  34.468   5.438
 4660POPC   PO459040  21.982  34.779   5.288
 4660POPC   GL159041  22.165  34.761   5.704
 4660POPC   GL259042  22.025  34.416   5.844
 4660POPC   C1A59043  22.311  34.713   6.136
 4660POPC   D2A59044  22.091  34.646   6.506
 4660POPC   C3A59045  22.321  34.537   6.869
 4660POPC   C4A59046  22.147  34.643   7.259
 4660POPC   C1B59047  21.770  34.325   6.246
 4660POPC   C2B59048  21.731  34.331   6.722
 4660POPC   C3B59049  21.973  34.180   7.079
 4660POPC   C4B59050  22.385  34.182   7.236
 4661POPC   NC359051  26.869  37.157   5.419
 4661POPC   PO459052  26.377  36.628   5.362
 4661POPC   GL159053  26.651  36.761   5.751
 4661POPC   GL259054  27.014  36.769   5.750
 4661POPC   C1A59055  26.781  36.852   6.216
 4661POPC   D2A59056  26.604  37.004   6.625
 4661POPC   C3A59057  26.735  36.785   6.983
 4661POPC   C4A59058  26.906  36.873   7.407
 4661POPC   C1B59059  27.179  37.104   6.038
 4661POPC   C2B59060  27.011  37.281   6.412
 4661POPC   C3B59061  27.097  37.170   6.832
 4661POPC   C4B59062  27.032  37.314   7.209
 4662POPC   NC359063  16.412  21.227   5.317
 4662POPC   PO459064  16.913  21.677   5.457
 4662POPC   GL159065  16.717  21.652   5.885
 4662POPC   GL259066  16.568  21.314   5.935
 4662POPC   C1A59067  16.738  21.753   6.326
 4662POPC   D2A59068  17.049  21.537   6.595
 4662POPC   C3A59069  16.826  21.303   6.882
 4662POPC   C4A59070  16.512  21.605   7.022
 4662POPC   C1B59071  16.555  21.302   6.423
 4662POPC   C2B59072  16.239  21.218   6.731
 4662POPC   C3B59073  16.181  20.984   7.070
 4662POPC   C4B59074  16.544  21.159   7.289
 4663POPC   NC359075   0.087  40.515   5.564
 4663POPC   PO459076   0.486  40.019   5.141
 4663POPC   GL159077   0.430  40.102   5.662
 4663POPC   GL259078   0.390  39.787   5.902
 4663POPC   C1A59079   0.559  40.189   6.128
 4663POPC   D2A59080   0.623  40.008   6.573
 4663POPC   C3A59081   0.559  40.191   6.979
 4663POPC   C4A59082   0.516  40.189   7.441
 4663POPC   C1B59083   0.203  39.790   6.344
 4663POPC   C2B59084   0.287  39.656   6.794
 4663POPC   C3B59085   0.395  39.736   7.230
 4663POPC   C4B59086   0.217  39.837   7.637
 4664POPC   NC359087  21.255  20.352   5.556
 4664POPC   PO459088  21.340  19.681   5.403
 4664POPC   GL159089  21.429  19.912   5.801
 4664POPC   GL259090  21.131  20.078   5.986
 4664POPC   C1A59091  21.523  19.915   6.249
 4664POPC   D2A59092  21.382  19.751   6.615
 4664POPC   C3A59093  21.286  19.987   6.947
 4664POPC   C4A59094  21.366  19.952   7.332
 4664POPC   C1B59095  21.059  19.663   6.229
 4664POPC   C2B59096  20.998  19.411   6.634
 4664POPC   C3B59097  21.135  19.487   7.082
 4664POPC   C4B59098  21.017  19.635   7.522
 4665POPC   NC359099  42.752   5.108   5.390
 4665POPC   PO459100  42.288   4.654   5.175
 4665POPC   GL159101  42.456   4.749   5.624
 4665POPC   GL259102  42.316   5.087   5.699
 4665POPC   C1A59103  42.509   4.821   6.104
 4665POPC   D2A59104  42.481   4.798   6.593
 4665POPC   C3A59105  42.116   4.935   6.848
 4665POPC   C4A59106  41.922   5.204   7.161
 4665POPC   C1B59107  42.332   5.332   6.079
 4665POPC   C2B59108  42.543   5.288   6.482
 4665POPC   C3B59109  42.456   5.361   6.888
 4665POPC   C4B59110  42.437   5.120   7.215
 4666POPC   NC359111  32.083  14.193   5.345
 4666POPC   PO459112  32.538  14.677   5.339
 4666POPC   GL159113  32.471  14.541   5.750
 4666POPC   GL259114  32.303  14.222   5.827
 4666POPC   C1A59115  32.349  14.652   6.173
 4666POPC   D2A59116  32.036  14.641   6.510
 4666POPC   C3A59117  32.161  14.588   6.911
 4666POPC   C4A59118  32.094  14.436   7.320
 4666POPC   C1B59119  31.994  14.259   6.174
 4666POPC   C2B59120  32.113  14.133   6.626
 4666POPC   C3B59121  32.002  14.016   7.054
 4666POPC   C4B59122  32.111  13.963   7.523
 4667POPC   NC359123  26.004  13.281   5.413
 4667POPC   PO459124  25.898  12.726   5.361
 4667POPC   GL159125  25.935  12.626   5.796
 4667POPC   GL259126  26.063  12.960   5.855
 4667POPC   C1A59127  26.177  12.591   6.211
 4667POPC   D2A59128  26.138  12.776   6.618
 4667POPC   C3A59129  26.241  12.535   6.962
 4667POPC   C4A59130  26.077  12.743   7.336
 4667POPC   C1B59131  26.222  13.137   6.247
 4667POPC   C2B59132  26.210  13.290   6.678
 4667POPC   C3B59133  26.027  13.175   7.060
 4667POPC   C4B59134  26.059  13.333   7.488
 4668POPC   NC359135  41.567  14.370   5.389
 4668POPC   PO459136  41.414  14.951   5.472
 4668POPC   GL159137  41.350  14.607   5.807
 4668POPC   GL259138  41.166  14.296   5.744
 4668POPC   C1A59139  41.607  14.509   6.174
 4668POPC   D2A59140  41.624  14.738   6.531
 4668POPC   C3A59141  41.605  14.525   6.891
 4668POPC   C4A59142  41.537  14.671   7.250
 4668POPC   C1B59143  41.144  14.302   6.214
 4668POPC   C2B59144  41.187  14.518   6.604
 4668POPC   C3B59145  41.056  14.586   7.047
 4668POPC   C4B59146  41.162  14.377   7.439
 4669POPC   NC359147   6.363  20.986   5.155
 4669POPC   PO459148   6.708  21.523   5.323
 4669POPC   GL159149   6.865  21.348   5.796
 4669POPC   GL259150   6.850  21.017   5.875
 4669POPC   C1A59151   6.758  21.343   6.283
 4669POPC   D2A59152   6.624  21.216   6.728
 4669POPC   C3A59153   6.509  21.500   7.099
 4669POPC   C4A59154   6.258  21.474   7.489
 4669POPC   C1B59155   7.146  20.983   6.226
 4669POPC   C2B59156   7.133  21.175   6.643
 4669POPC   C3B59157   7.006  21.382   7.033
 4669POPC   C4B59158   7.134  21.237   7.418
 4670POPC   NC359159  41.990   8.924   5.399
 4670POPC   PO459160  41.473   9.223   5.534
 4670POPC   GL159161  41.553   8.854   5.852
 4670POPC   GL259162  41.911   8.656   5.852
 4670POPC   C1A59163  41.515   8.885   6.313
 4670POPC   D2A59164  41.807   9.169   6.548
 4670POPC   C3A59165  41.675   9.280   6.938
 4670POPC   C4A59166  41.472   9.225   7.326
 4670POPC   C1B59167  42.010   8.783   6.262
 4670POPC   C2B59168  42.054   8.722   6.683
 4670POPC   C3B59169  41.776   8.804   6.990
 4670POPC   C4B59170  41.478   8.727   7.285
 4671POPC   NC359171  20.833  24.099   5.638
 4671POPC   PO459172  21.382  23.781   5.372
 4671POPC   GL159173  21.188  23.745   5.781
 4671POPC   GL259174  20.994  23.446   5.725
 4671POPC   C1A59175  21.222  23.946   6.207
 4671POPC   D2A59176  21.471  23.841   6.558
 4671POPC   C3A59177  21.416  23.987   6.947
 4671POPC   C4A59178  21.375  23.581   7.121
 4671POPC   C1B59179  20.979  23.468   6.195
 4671POPC   C2B59180  21.085  23.367   6.640
 4671POPC   C3B59181  20.788  23.353   6.993
 4671POPC   C4B59182  20.931  23.511   7.362
 4672POPC   NC359183   2.601   1.604   5.208
 4672POPC   PO459184   2.805   2.250   5.415
 4672POPC   GL159185   2.814   2.170   5.863
 4672POPC   GL259186   2.562   2.387   5.930
 4672POPC   C1A59187   2.854   1.922   6.276
 4672POPC   D2A59188   2.841   1.647   6.645
 4672POPC   C3A59189   2.899   1.745   7.078
 4672POPC   C4A59190   2.995   1.438   7.426
 4672POPC   C1B59191   2.603   2.358   6.356
 4672POPC   C2B59192   2.644   2.233   6.753
 4672POPC   C3B59193   2.739   2.218   7.146
 4672POPC   C4B59194   3.007   2.420   7.400
 4673POPC   NC359195  39.626  18.892   5.024
 4673POPC   PO459196  39.403  18.397   5.420
 4673POPC   GL159197  39.514  18.224   5.825
 4673POPC   GL259198  39.182  18.143   5.852
 4673POPC   C1A59199  39.417  18.378   6.248
 4673POPC   D2A59200  39.151  18.340   6.607
 4673POPC   C3A59201  39.367  18.346   7.003
 4673POPC   C4A59202  39.327  18.477   7.414
 4673POPC   C1B59203  38.886  17.889   6.098
 4673POPC   C2B59204  38.833  17.949   6.514
 4673POPC   C3B59205  39.042  17.908   6.913
 4673POPC   C4B59206  38.964  18.074   7.327
 4674POPC   NC359207  38.243   1.375   5.136
 4674POPC   PO459208  38.617   0.936   5.507
 4674POPC   GL159209  38.372   1.208   5.771
 4674POPC   GL259210  38.303   1.566   5.751
 4674POPC   C1A59211  38.480   1.309   6.194
 4674POPC   D2A59212  38.684   1.032   6.480
 4674POPC   C3A59213  38.504   1.093   6.890
 4674POPC   C4A59214  38.240   1.059   7.209
 4674POPC   C1B59215  38.129   1.666   6.200
 4674POPC   C2B59216  38.219   1.495   6.645
 4674POPC   C3B59217  38.033   1.522   7.073
 4674POPC   C4B59218  37.989   1.389   7.520
 4675POPC   NC359219  44.273  41.001   5.415
 4675POPC   PO459220  44.739  40.497   5.155
 4675POPC   GL159221  44.691  40.810   5.595
 4675POPC   GL259222  44.933  41.100   5.570
 4675POPC   C1A59223  44.532  40.780   6.084
 4675POPC   D2A59224  44.658  40.513   6.474
 4675POPC   C3A59225  44.518  40.519   6.928
 4675POPC   C4A59226  44.589  40.279   7.324
 4675POPC   C1B59227  44.961  41.025   6.011
 4675POPC   C2B59228  44.975  40.953   6.480
 4675POPC   C3B59229   0.004  41.003   6.950
 4675POPC   C4B59230  44.871  40.707   7.277
 4676POPC   NC359231  36.014  44.808   5.482
 4676POPC   PO459232  36.482  44.358   5.404
 4676POPC   GL159233  36.331  44.536   5.824
 4676POPC   GL259234  36.415  44.908   5.776
 4676POPC   C1A59235  36.076  44.392   6.262
 4676POPC   D2A59236  35.985  44.284   6.743
 4676POPC   C3A59237  36.062  44.549   7.152
 4676POPC   C4A59238  36.201  44.442   7.555
 4676POPC   C1B59239  36.225  44.872   6.197
 4676POPC   C2B59240  36.198  44.755   6.650
 4676POPC   C3B59241  36.511  44.698   6.997
 4676POPC   C4B59242  36.354  44.892   7.376
 4677POPC   NC359243   1.780   5.554   5.506
 4677POPC   PO459244   2.179   6.136   5.500
 4677POPC   GL159245   2.108   6.029   5.923
 4677POPC   GL259246   1.989   5.682   5.950
 4677POPC   C1A59247   2.250   5.911   6.338
 4677POPC   D2A59248   2.050   5.818   6.712
 4677POPC   C3A59249   2.277   5.960   7.030
 4677POPC   C4A59250   2.021   5.732   7.272
 4677POPC   C1B59251   1.630   5.567   6.193
 4677POPC   C2B59252   1.531   5.713   6.607
 4677POPC   C3B59253   1.642   5.512   6.969
 4677POPC   C4B59254   1.563   5.556   7.397
 4678POPC   NC359255   4.663  33.925   5.391
 4678POPC   PO459256   5.297  33.689   5.473
 4678POPC   GL159257   5.041  33.858   5.793
 4678POPC   GL259258   5.227  34.113   5.917
 4678POPC   C1A59259   4.974  33.780   6.252
 4678POPC   D2A59260   5.180  33.479   6.570
 4678POPC   C3A59261   5.047  33.488   6.999
 4678POPC   C4A59262   4.869  33.852   7.205
 4678POPC   C1B59263   5.389  34.074   6.324
 4678POPC   C2B59264   5.150  33.988   6.715
 4678POPC   C3B59265   5.342  33.910   7.095
 4678POPC   C4B59266   5.680  33.959   7.323
 4679POPC   NC359267   9.979  13.317   5.428
 4679POPC   PO459268   9.652  12.732   5.193
 4679POPC   GL159269   9.701  12.916   5.606
 4679POPC   GL259270   9.499  12.692   5.777
 4679POPC   C1A59271   9.823  13.059   6.048
 4679POPC   D2A59272   9.625  12.994   6.453
 4679POPC   C3A59273   9.717  13.047   6.873
 4679POPC   C4A59274   9.793  12.779   7.250
 4679POPC   C1B59275   9.264  12.728   6.151
 4679POPC   C2B59276   9.331  12.594   6.561
 4679POPC   C3B59277   9.318  12.734   6.965
 4679POPC   C4B59278   9.349  12.500   7.323
 4680POPC   NC359279  36.599  24.753   5.435
 4680POPC   PO459280  36.034  24.357   5.456
 4680POPC   GL159281  36.280  24.505   5.783
 4680POPC   GL259282  36.035  24.634   5.946
 4680POPC   C1A59283  36.410  24.534   6.244
 4680POPC   D2A59284  36.124  24.461   6.611
 4680POPC   C3A59285  36.306  24.416   7.026
 4680POPC   C4A59286  36.412  24.427   7.478
 4680POPC   C1B59287  35.671  24.686   6.185
 4680POPC   C2B59288  35.644  24.650   6.644
 4680POPC   C3B59289  35.964  24.798   6.966
 4680POPC   C4B59290  36.018  24.761   7.432
 4681POPC   NC359291   4.664  10.714   5.638
 4681POPC   PO459292   4.131  10.289   5.611
 4681POPC   GL159293   4.282  10.533   5.922
 4681POPC   GL259294   4.026  10.768   5.840
 4681POPC   C1A59295   4.456  10.438   6.317
 4681POPC   D2A59296   4.233  10.564   6.665
 4681POPC   C3A59297   4.376  10.446   7.022
 4681POPC   C4A59298   4.054  10.379   7.288
 4681POPC   C1B59299   3.894  10.647   6.253
 4681POPC   C2B59300   3.886  10.929   6.625
 4681POPC   C3B59301   3.929  10.827   7.078
 4681POPC   C4B59302   3.831  10.810   7.536
 4682POPC   NC359303  11.260  43.213   5.366
 4682POPC   PO459304  11.705  42.754   5.582
 4682POPC   GL159305  11.480  43.086   5.865
 4682POPC   GL259306  11.117  43.171   5.865
 4682POPC   C1A59307  11.407  43.143   6.321
 4682POPC   D2A59308  11.608  43.014   6.664
 4682POPC   C3A59309  11.440  42.812   6.999
 4682POPC   C4A59310  11.257  43.118   7.234
 4682POPC   C1B59311  11.100  43.519   6.185
 4682POPC   C2B59312  11.258  43.550   6.621
 4682POPC   C3B59313  11.020  43.562   7.016
 4682POPC   C4B59314  11.018  43.522   7.478
 4683POPC   NC359315  31.104  21.418   5.246
 4683POPC   PO459316  30.434  21.097   5.367
 4683POPC   GL159317  30.714  21.190   5.710
 4683POPC   GL259318  30.709  21.535   5.860
 4683POPC   C1A59319  30.847  21.135   6.144
 4683POPC   D2A59320  30.769  21.406   6.484
 4683POPC   C3A59321  30.754  21.160   6.823
 4683POPC   C4A59322  30.750  21.231   7.249
 4683POPC   C1B59323  30.394  21.394   6.134
 4683POPC   C2B59324  30.263  21.525   6.552
 4683POPC   C3B59325  30.489  21.587   6.924
 4683POPC   C4B59326  30.332  21.512   7.338
 4684POPC   NC359327  11.869  27.559   5.483
 4684POPC   PO459328  12.499  27.625   5.084
 4684POPC   GL159329  12.371  27.635   5.586
 4684POPC   GL259330  12.392  27.366   5.802
 4684POPC   C1A59331  12.193  27.769   6.052
 4684POPC   D2A59332  11.958  27.654   6.455
 4684POPC   C3A59333  12.020  27.854   6.872
 4684POPC   C4A59334  11.993  27.667   7.302
 4684POPC   C1B59335  12.158  27.228   6.189
 4684POPC   C2B59336  12.098  27.188   6.655
 4684POPC   C3B59337  12.324  27.446   6.969
 4684POPC   C4B59338  12.496  27.451   7.364
 4685POPC   NC359339  26.242  21.604   5.498
 4685POPC   PO459340  26.020  22.305   5.499
 4685POPC   GL159341  25.999  22.146   5.882
 4685POPC   GL259342  26.286  21.934   5.892
 4685POPC   C1A59343  26.024  22.370   6.261
 4685POPC   D2A59344  26.265  22.459   6.567
 4685POPC   C3A59345  26.062  22.404   6.957
 4685POPC   C4A59346  25.858  22.042   7.124
 4685POPC   C1B59347  26.380  21.998   6.332
 4685POPC   C2B59348  26.136  21.951   6.689
 4685POPC   C3B59349  26.220  21.693   7.022
 4685POPC   C4B59350  26.351  21.761   7.431
 4686POPC   NC359351  25.753  44.733   5.535
 4686POPC   PO459352  26.296  44.382   5.340
 4686POPC   GL159353  26.157  44.461   5.769
 4686POPC   GL259354  25.834  44.312   5.856
 4686POPC   C1A59355  26.238  44.844   6.030
 4686POPC   D2A59356  26.122  44.970   6.448
 4686POPC   C3A59357  26.337  44.970   6.841
 4686POPC   C4A59358  26.092  44.929   7.223
 4686POPC   C1B59359  25.923  44.510   6.276
 4686POPC   C2B59360  25.986  44.570   6.740
 4686POPC   C3B59361  25.989  44.431   7.148
 4686POPC   C4B59362  25.735  44.383   7.521
 4687POPC   NC359363  19.468  34.696   5.348
 4687POPC   PO459364  20.131  34.506   5.366
 4687POPC   GL159365  19.832  34.675   5.711
 4687POPC   GL259366  20.048  34.842   5.870
 4687POPC   C1A59367  19.720  34.581   6.178
 4687POPC   D2A59368  19.542  34.425   6.585
 4687POPC   C3A59369  19.649  34.610   6.951
 4687POPC   C4A59370  19.773  34.324   7.220
 4687POPC   C1B59371  20.210  34.727   6.250
 4687POPC   C2B59372  20.034  34.654   6.629
 4687POPC   C3B59373  20.182  34.586   7.050
 4687POPC   C4B59374  19.941  34.794   7.347
 4688POPC   NC359375   6.672  17.140   5.386
 4688POPC   PO459376   6.332  16.584   5.451
 4688POPC   GL159377   6.672  16.625   5.744
 4688POPC   GL259378   6.538  16.919   5.851
 4688POPC   C1A59379   6.678  16.540   6.195
 4688POPC   D2A59380   6.544  16.808   6.530
 4688POPC   C3A59381   6.713  16.756   6.935
 4688POPC   C4A59382   6.665  16.397   7.187
 4688POPC   C1B59383   6.286  17.124   6.154
 4688POPC   C2B59384   6.191  17.194   6.583
 4688POPC   C3B59385   6.177  16.855   6.897
 4688POPC   C4B59386   6.362  16.804   7.317
 4689POPC   NC359387  25.904  31.568   5.261
 4689POPC   PO459388  26.333  31.222   5.612
 4689POPC   GL159389  26.114  31.479   5.842
 4689POPC   GL259390  25.749  31.429   5.734
 4689POPC   C1A59391  26.119  31.343   6.308
 4689POPC   D2A59392  26.359  31.456   6.700
 4689POPC   C3A59393  26.303  31.282   7.137
 4689POPC   C4A59394  25.926  31.193   7.389
 4689POPC   C1B59395  25.756  31.651   6.138
 4689POPC   C2B59396  25.676  31.510   6.565
 4689POPC   C3B59397  25.891  31.481   6.942
 4689POPC   C4B59398  26.193  31.770   7.177
 4690POPC   NC359399  32.097  21.382   5.360
 4690POPC   PO459400  32.678  21.089   5.292
 4690POPC   GL159401  32.454  21.223   5.724
 4690POPC   GL259402  32.139  21.119   5.905
 4690POPC   C1A59403  32.361  21.542   6.111
 4690POPC   D2A59404  32.448  21.755   6.549
 4690POPC   C3A59405  32.265  21.632   6.986
 4690POPC   C4A59406  32.269  21.683   7.475
 4690POPC   C1B59407  32.129  21.146   6.384
 4690POPC   C2B59408  32.030  21.183   6.846
 4690POPC   C3B59409  32.152  21.196   7.298
 4690POPC   C4B59410  32.084  21.102   7.759
 4691POPC   NC359411  33.056   7.255   5.045
 4691POPC   PO459412  32.753   7.355   5.656
 4691POPC   GL159413  33.051   7.305   6.005
 4691POPC   GL259414  33.285   7.556   6.140
 4691POPC   C1A59415  32.937   7.268   6.421
 4691POPC   D2A59416  33.075   7.571   6.673
 4691POPC   C3A59417  33.175   7.395   7.025
 4691POPC   C4A59418  33.330   7.530   7.367
 4691POPC   C1B59419  32.901   7.764   6.221
 4691POPC   C2B59420  32.587   7.682   6.512
 4691POPC   C3B59421  32.677   7.826   6.913
 4691POPC   C4B59422  32.838   7.679   7.281
 4692POPC   NC359423  20.418   9.539   5.557
 4692POPC   PO459424  20.956   9.899   5.357
 4692POPC   GL159425  20.722  10.041   5.746
 4692POPC   GL259426  20.723   9.744   5.925
 4692POPC   C1A59427  20.705  10.139   6.214
 4692POPC   D2A59428  20.725   9.874   6.558
 4692POPC   C3A59429  20.586  10.034   6.938
 4692POPC   C4A59430  20.389   9.664   7.125
 4692POPC   C1B59431  20.434   9.604   6.228
 4692POPC   C2B59432  20.225   9.527   6.603
 4692POPC   C3B59433  20.263   9.205   6.913
 4692POPC   C4B59434  20.362   9.188   7.346
 4693POPC   NC359435  16.685  34.881   5.507
 4693POPC   PO459436  16.443  34.250   5.393
 4693POPC   GL159437  16.679  34.420   5.781
 4693POPC   GL259438  16.923  34.694   5.902
 4693POPC   C1A59439  16.554  34.519   6.217
 4693POPC   D2A59440  16.384  34.331   6.592
 4693POPC   C3A59441  16.498  34.497   7.000
 4693POPC   C4A59442  16.489  34.240   7.373
 4693POPC   C1B59443  16.775  34.973   6.212
 4693POPC   C2B59444  16.736  34.838   6.646
 4693POPC   C3B59445  16.892  34.830   7.077
 4693POPC   C4B59446  16.887  34.530   7.402
 4694POPC   NC359447  11.350  15.057   5.320
 4694POPC   PO459448  11.052  15.663   5.431
 4694POPC   GL159449  11.020  15.421   5.843
 4694POPC   GL259450  10.952  15.053   5.792
 4694POPC   C1A59451  11.242  15.217   6.224
 4694POPC   D2A59452  11.243  14.950   6.618
 4694POPC   C3A59453  11.469  15.040   7.017
 4694POPC   C4A59454  11.566  15.367   7.316
 4694POPC   C1B59455  10.750  15.052   6.237
 4694POPC   C2B59456  10.724  15.015   6.684
 4694POPC   C3B59457  10.928  15.036   7.032
 4694POPC   C4B59458  10.882  14.849   7.371
 4695POPC   NC359459  44.431  34.113   5.326
 4695POPC   PO459460  44.583  33.446   5.511
 4695POPC   GL159461  44.732  33.603   5.888
 4695POPC   GL259462  44.752  33.923   5.874
 4695POPC   C1A59463  44.607  33.631   6.332
 4695POPC   D2A59464  44.760  33.458   6.703
 4695POPC   C3A59465  44.499  33.598   7.071
 4695POPC   C4A59466  44.321  33.885   7.369
 4695POPC   C1B59467  44.902  34.047   6.293
 4695POPC   C2B59468  44.855  33.951   6.750
 4695POPC   C3B59469  44.849  34.079   7.173
 4695POPC   C4B59470  44.659  34.228   7.563
 4696POPC   NC359471  21.804  23.545   5.368
 4696POPC   PO459472  22.358  23.917   5.373
 4696POPC   GL159473  22.143  23.747   5.767
 4696POPC   GL259474  21.770  23.870   5.766
 4696POPC   C1A59475  22.321  23.580   6.204
 4696POPC   D2A59476  22.610  23.550   6.591
 4696POPC   C3A59477  22.497  23.718   6.999
 4696POPC   C4A59478  22.278  23.670   7.395
 4696POPC   C1B59479  21.838  23.740   6.207
 4696POPC   C2B59480  22.027  23.679   6.644
 4696POPC   C3B59481  21.883  23.778   7.085
 4696POPC   C4B59482  21.780  23.632   7.539
 4697POPC   NC359483  12.270   7.088   5.243
 4697POPC   PO459484  11.869   6.640   5.407
 4697POPC   GL159485  12.010   6.837   5.787
 4697POPC   GL259486  12.369   6.935   5.725
 4697POPC   C1A59487  11.935   6.704   6.243
 4697POPC   D2A59488  11.860   6.837   6.676
 4697POPC   C3A59489  11.774   6.612   7.082
 4697POPC   C4A59490  12.024   6.680   7.490
 4697POPC   C1B59491  12.396   6.924   6.172
 4697POPC   C2B59492  12.361   6.773   6.599
 4697POPC   C3B59493  12.266   6.784   7.033
 4697POPC   C4B59494  12.373   7.065   7.341
 4698POPC   NC359495  19.488  27.860   5.498
 4698POPC   PO459496  20.112  27.417   5.406
 4698POPC   GL159497  19.865  27.585   5.700
 4698POPC   GL259498  19.571  27.398   5.730
 4698POPC   C1A59499  19.841  27.664   6.120
 4698POPC   D2A59500  19.927  27.369   6.436
 4698POPC   C3A59501  19.925  27.555   6.802
 4698POPC   C4A59502  19.881  27.525   7.214
 4698POPC   C1B59503  19.394  27.432   6.158
 4698POPC   C2B59504  19.442  27.514   6.589
 4698POPC   C3B59505  19.422  27.619   7.034
 4698POPC   C4B59506  19.479  27.405   7.479
 4699POPC   NC359507  36.105  27.968   5.405
 4699POPC   PO459508  36.327  27.317   5.504
 4699POPC   GL159509  36.124  27.562   5.862
 4699POPC   GL259510  36.143  27.924   5.892
 4699POPC   C1A59511  36.210  27.657   6.322
 4699POPC   D2A59512  36.017  27.460   6.687
 4699POPC   C3A59513  36.340  27.361   7.006
 4699POPC   C4A59514  36.369  27.536   7.417
 4699POPC   C1B59515  36.052  28.154   6.205
 4699POPC   C2B59516  35.853  28.102   6.555
 4699POPC   C3B59517  35.975  27.957   6.901
 4699POPC   C4B59518  35.935  27.650   7.167
 4700POPC   NC359519  14.250  34.500   5.479
 4700POPC   PO459520  14.646  34.918   5.230
 4700POPC   GL159521  14.577  34.808   5.720
 4700POPC   GL259522  14.596  34.420   5.830
 4700POPC   C1A59523  14.395  34.775   6.170
 4700POPC   D2A59524  14.253  34.561   6.578
 4700POPC   C3A59525  14.187  34.790   6.982
 4700POPC   C4A59526  14.095  34.647   7.411
 4700POPC   C1B59527  14.598  34.263   6.255
 4700POPC   C2B59528  14.768  34.493   6.584
 4700POPC   C3B59529  14.730  34.753   6.916
 4700POPC   C4B59530  14.566  34.562   7.246
 4701POPC   NC359531  23.092  21.995   5.362
 4701POPC   PO459532  22.413  21.875   5.422
 4701POPC   GL159533  22.773  22.061   5.749
 4701POPC   GL259534  23.110  22.283   5.799
 4701POPC   C1A59535  23.017  21.941   6.143
 4701POPC   D2A59536  23.079  22.159   6.526
 4701POPC   C3A59537  22.988  21.973   6.909
 4701POPC   C4A59538  22.923  21.942   7.298
 4701POPC   C1B59539  22.766  22.391   6.129
 4701POPC   C2B59540  22.680  22.553   6.524
 4701POPC   C3B59541  22.691  22.383   6.915
 4701POPC   C4B59542  22.716  22.410   7.320
 4702POPC   NC359543  18.951  21.728   5.613
 4702POPC   PO459544  19.289  22.195   5.149
 4702POPC   GL159545  19.144  22.222   5.630
 4702POPC   GL259546  19.420  22.415   5.664
 4702POPC   C1A59547  19.166  22.128   6.118
 4702POPC   D2A59548  19.024  22.133   6.572
 4702POPC   C3A59549  18.942  21.942   6.982
 4702POPC   C4A59550  18.882  22.010   7.436
 4702POPC   C1B59551  19.556  22.456   6.062
 4702POPC   C2B59552  19.491  22.384   6.495
 4702POPC   C3B59553  19.439  22.516   6.910
 4702POPC   C4B59554  19.262  22.271   7.243
 4703POPC   NC359555  30.142  19.331   5.738
 4703POPC   PO459556  30.046  18.695   5.637
 4703POPC   GL159557  29.741  18.841   5.910
 4703POPC   GL259558  30.038  18.937   6.100
 4703POPC   C1A59559  29.605  18.962   6.343
 4703POPC   D2A59560  29.897  18.815   6.678
 4703POPC   C3A59561  29.745  18.895   7.083
 4703POPC   C4A59562  29.558  19.288   7.192
 4703POPC   C1B59563  30.032  19.265   6.424
 4703POPC   C2B59564  30.052  19.274   6.902
 4703POPC   C3B59565  30.265  18.957   7.155
 4703POPC   C4B59566  30.107  18.753   7.570
 4704POPC   NC359567  37.368   5.733   5.494
 4704POPC   PO459568  37.946   6.116   5.444
 4704POPC   GL159569  37.891   5.952   5.855
 4704POPC   GL259570  37.571   5.780   5.945
 4704POPC   C1A59571  37.829   6.012   6.302
 4704POPC   D2A59572  37.593   5.750   6.520
 4704POPC   C3A59573  37.689   5.934   6.899
 4704POPC   C4A59574  37.840   5.837   7.296
 4704POPC   C1B59575  37.348   6.146   6.146
 4704POPC   C2B59576  37.270   6.387   6.518
 4704POPC   C3B59577  37.286   6.246   6.916
 4704POPC   C4B59578  37.568   6.332   7.215
 4705POPC   NC359579  12.154  42.775   5.485
 4705POPC   PO459580  12.218  42.065   5.379
 4705POPC   GL159581  12.224  42.337   5.788
 4705POPC   GL259582  12.092  42.681   5.973
 4705POPC   C1A59583  12.410  42.314   6.210
 4705POPC   D2A59584  12.319  42.460   6.637
 4705POPC   C3A59585  12.139  42.148   6.904
 4705POPC   C4A59586  12.174  42.210   7.320
 4705POPC   C1B59587  11.702  42.681   6.240
 4705POPC   C2B59588  11.712  42.508   6.647
 4705POPC   C3B59589  11.923  42.590   7.021
 4705POPC   C4B59590  11.727  42.516   7.406
 4706POPC   NC359591  27.824  18.562   5.428
 4706POPC   PO459592  27.355  18.104   5.325
 4706POPC   GL159593  27.353  18.310   5.770
 4706POPC   GL259594  27.027  18.203   5.912
 4706POPC   C1A59595  27.588  18.395   6.203
 4706POPC   D2A59596  27.792  18.186   6.606
 4706POPC   C3A59597  27.928  18.327   7.000
 4706POPC   C4A59598  27.729  18.232   7.408
 4706POPC   C1B59599  27.115  18.253   6.355
 4706POPC   C2B59600  27.370  18.437   6.687
 4706POPC   C3B59601  27.282  18.239   7.085
 4706POPC   C4B59602  27.188  17.969   7.435
 4707POPC   NC359603  10.421  36.210   5.217
 4707POPC   PO459604  10.579  36.882   5.501
 4707POPC   GL159605  10.525  36.457   5.725
 4707POPC   GL259606  10.583  36.080   5.685
 4707POPC   C1A59607  10.451  36.301   6.161
 4707POPC   D2A59608  10.576  36.373   6.603
 4707POPC   C3A59609  10.316  36.490   6.989
 4707POPC   C4A59610  10.480  36.295   7.373
 4707POPC   C1B59611  10.505  35.795   6.070
 4707POPC   C2B59612  10.547  35.856   6.515
 4707POPC   C3B59613  10.388  35.982   6.912
 4707POPC   C4B59614  10.505  35.749   7.253
 4708POPC   NC359615  28.878  39.485   5.537
 4708POPC   PO459616  29.284  38.934   5.367
 4708POPC   GL159617  29.277  39.203   5.723
 4708POPC   GL259618  28.979  39.137   5.916
 4708POPC   C1A59619  29.384  39.375   6.126
 4708POPC   D2A59620  29.241  39.428   6.523
 4708POPC   C3A59621  29.366  39.387   6.966
 4708POPC   C4A59622  29.152  39.484   7.368
 4708POPC   C1B59623  28.966  39.011   6.352
 4708POPC   C2B59624  29.006  39.056   6.790
 4708POPC   C3B59625  28.826  39.007   7.174
 4708POPC   C4B59626  28.832  38.632   7.426
 4709POPC   NC359627  30.662  10.973   5.322
 4709POPC   PO459628  30.927  11.625   5.389
 4709POPC   GL159629  30.824  11.351   5.711
 4709POPC   GL259630  31.012  11.058   5.681
 4709POPC   C1A59631  30.611  11.424   6.099
 4709POPC   D2A59632  30.431  11.258   6.454
 4709POPC   C3A59633  30.551  11.487   6.835
 4709POPC   C4A59634  30.705  11.462   7.238
 4709POPC   C1B59635  30.734  10.937   6.014
 4709POPC   C2B59636  30.816  10.862   6.449
 4709POPC   C3B59637  30.747  10.985   6.870
 4709POPC   C4B59638  31.003  10.965   7.254
 4710POPC   NC359639  30.305  17.316   5.438
 4710POPC   PO459640  29.597  17.531   5.411
 4710POPC   GL159641  29.754  17.661   5.833
 4710POPC   GL259642  30.135  17.752   5.816
 4710POPC   C1A59643  29.738  17.516   6.299
 4710POPC   D2A59644  29.886  17.285   6.672
 4710POPC   C3A59645  29.610  17.238   6.997
 4710POPC   C4A59646  29.701  17.466   7.356
 4710POPC   C1B59647  29.960  17.960   6.222
 4710POPC   C2B59648  30.013  17.830   6.642
 4710POPC   C3B59649  30.045  17.728   7.054
 4710POPC   C4B59650  30.300  17.392   7.219
 4711POPC   NC359651  31.438  11.500   5.368
 4711POPC   PO459652  31.422  10.803   5.511
 4711POPC   GL159653  31.518  11.179   5.781
 4711POPC   GL259654  31.304  11.468   5.842
 4711POPC   C1A59655  31.601  11.282   6.218
 4711POPC   D2A59656  31.399  11.105   6.584
 4711POPC   C3A59657  31.580  11.160   7.010
 4711POPC   C4A59658  31.708  11.478   7.299
 4711POPC   C1B59659  31.099  11.256   6.155
 4711POPC   C2B59660  30.941  11.386   6.523
 4711POPC   C3B59661  31.093  11.355   6.922
 4711POPC   C4B59662  31.191  11.442   7.333
 4712POPC   NC359663  25.563  20.249   5.397
 4712POPC   PO459664  26.168  20.555   5.190
 4712POPC   GL159665  26.087  20.408   5.634
 4712POPC   GL259666  26.183  20.046   5.657
 4712POPC   C1A59667  26.021  20.577   6.080
 4712POPC   D2A59668  25.800  20.607   6.478
 4712POPC   C3A59669  26.081  20.728   6.815
 4712POPC   C4A59670  25.952  20.897   7.186
 4712POPC   C1B59671  26.298  20.164   6.085
 4712POPC   C2B59672  26.235  20.331   6.495
 4712POPC   C3B59673  26.267  20.247   6.921
 4712POPC   C4B59674  25.982  20.400   7.220
 4713POPC   NC359675  29.724   0.074   5.535
 4713POPC   PO459676  30.161   0.631   5.391
 4713POPC   GL159677  29.937   0.684   5.782
 4713POPC   GL259678  29.628   0.548   5.781
 4713POPC   C1A59679  29.973   0.709   6.225
 4713POPC   D2A59680  30.265   0.738   6.591
 4713POPC   C3A59681  30.211   0.440   6.883
 4713POPC   C4A59682  30.135   0.351   7.306
 4713POPC   C1B59683  29.726   0.271   6.145
 4713POPC   C2B59684  29.759   0.326   6.579
 4713POPC   C3B59685  29.732   0.264   6.992
 4713POPC   C4B59686  29.802   0.688   7.118
 4714POPC   NC359687  25.012  36.888   5.472
 4714POPC   PO459688  25.585  36.892   5.170
 4714POPC   GL159689  25.513  36.860   5.647
 4714POPC   GL259690  25.317  37.152   5.815
 4714POPC   C1A59691  25.327  36.708   6.067
 4714POPC   D2A59692  25.053  36.823   6.416
 4714POPC   C3A59693  25.276  36.755   6.788
 4714POPC   C4A59694  25.323  36.865   7.220
 4714POPC   C1B59695  25.417  37.188   6.282
 4714POPC   C2B59696  25.244  37.254   6.686
 4714POPC   C3B59697  24.923  37.090   6.975
 4714POPC   C4B59698  24.886  37.011   7.429
 4715POPC   NC359699  34.225  12.497   5.542
 4715POPC   PO459700  34.538  13.079   5.345
 4715POPC   GL159701  34.604  13.118   5.794
 4715POPC   GL259702  34.505  12.768   5.877
 4715POPC   C1A59703  34.539  13.124   6.237
 4715POPC   D2A59704  34.367  12.809   6.493
 4715POPC   C3A59705  34.503  12.952   6.876
 4715POPC   C4A59706  34.573  13.003   7.286
 4715POPC   C1B59707  34.810  12.684   6.212
 4715POPC   C2B59708  34.919  12.720   6.660
 4715POPC   C3B59709  34.774  12.546   7.076
 4715POPC   C4B59710  34.830  12.607   7.527
 4716POPC   NC359711  29.351   5.328   5.365
 4716POPC   PO459712  28.949   4.809   5.481
 4716POPC   GL159713  29.111   4.929   5.815
 4716POPC   GL259714  29.023   5.274   5.777
 4716POPC   C1A59715  28.967   5.009   6.212
 4716POPC   D2A59716  28.798   5.041   6.558
 4716POPC   C3A59717  29.009   5.001   6.896
 4716POPC   C4A59718  28.837   5.260   7.214
 4716POPC   C1B59719  29.390   5.245   6.082
 4716POPC   C2B59720  29.341   5.253   6.497
 4716POPC   C3B59721  29.462   5.265   6.884
 4716POPC   C4B59722  29.327   5.137   7.265
 4717POPC   NC359723  44.351  30.278   5.612
 4717POPC   PO459724  44.761  30.674   5.251
 4717POPC   GL159725  44.728  30.665   5.746
 4717POPC   GL259726  44.776  30.345   5.904
 4717POPC   C1A59727  44.904  30.856   6.170
 4717POPC   D2A59728  44.918  30.927   6.647
 4717POPC   C3A59729  44.809  30.893   7.080
 4717POPC   C4A59730  44.453  30.691   7.215
 4717POPC   C1B59731  44.498  30.559   6.236
 4717POPC   C2B59732  44.541  30.548   6.689
 4717POPC   C3B59733  44.264  30.309   6.940
 4717POPC   C4B59734  44.047  30.376   7.305
 4718POPC   NC359735  26.685  36.284   5.344
 4718POPC   PO459736  27.355  36.079   5.308
 4718POPC   GL159737  26.985  35.971   5.659
 4718POPC   GL259738  26.835  36.278   5.806
 4718POPC   C1A59739  26.674  35.876   6.055
 4718POPC   D2A59740  26.732  35.925   6.513
 4718POPC   C3A59741  26.554  35.810   6.924
 4718POPC   C4A59742  26.834  35.874   7.277
 4718POPC   C1B59743  26.620  36.376   6.154
 4718POPC   C2B59744  26.661  36.450   6.568
 4718POPC   C3B59745  26.821  36.269   6.926
 4718POPC   C4B59746  26.761  36.403   7.320
 4719POPC   NC359747   3.259   8.128   5.321
 4719POPC   PO459748   3.767   8.514   5.443
 4719POPC   GL159749   3.548   8.212   5.764
 4719POPC   GL259750   3.385   7.914   5.788
 4719POPC   C1A59751   3.691   8.071   6.195
 4719POPC   D2A59752   3.910   8.184   6.598
 4719POPC   C3A59753   3.679   8.182   7.027
 4719POPC   C4A59754   3.679   8.299   7.516
 4719POPC   C1B59755   3.339   7.676   6.175
 4719POPC   C2B59756   3.413   7.855   6.582
 4719POPC   C3B59757   3.223   7.967   6.965
 4719POPC   C4B59758   3.396   7.905   7.400
 4720POPC   NC359759  43.361  19.483   5.637
 4720POPC   PO459760  42.767  19.725   5.416
 4720POPC   GL159761  42.901  19.919   5.816
 4720POPC   GL259762  43.266  20.018   5.859
 4720POPC   C1A59763  43.016  19.820   6.243
 4720POPC   D2A59764  43.212  19.858   6.595
 4720POPC   C3A59765  42.999  19.669   6.903
 4720POPC   C4A59766  43.027  19.833   7.297
 4720POPC   C1B59767  43.341  20.286   6.247
 4720POPC   C2B59768  43.421  20.321   6.712
 4720POPC   C3B59769  43.477  19.990   7.019
 4720POPC   C4B59770  43.489  19.945   7.449
 4721POPC   NC359771  27.903  27.499   5.416
 4721POPC   PO459772  27.287  27.581   5.351
 4721POPC   GL159773  27.363  27.836   5.723
 4721POPC   GL259774  27.705  27.710   5.844
 4721POPC   C1A59775  27.333  27.982   6.151
 4721POPC   D2A59776  27.456  27.763   6.547
 4721POPC   C3A59777  27.854  27.655   6.708
 4721POPC   C4A59778  27.886  27.550   7.166
 4721POPC   C1B59779  27.388  27.458   6.076
 4721POPC   C2B59780  27.345  27.288   6.479
 4721POPC   C3B59781  27.286  27.448   6.910
 4721POPC   C4B59782  27.349  27.154   7.207
 4722POPC   NC359783  15.778   2.638   5.392
 4722POPC   PO459784  15.993   3.310   5.335
 4722POPC   GL159785  16.055   2.939   5.704
 4722POPC   GL259786  15.759   2.732   5.881
 4722POPC   C1A59787  16.207   2.719   6.127
 4722POPC   D2A59788  16.375   2.782   6.570
 4722POPC   C3A59789  16.117   3.046   6.869
 4722POPC   C4A59790  15.795   2.904   7.178
 4722POPC   C1B59791  15.736   2.551   6.297
 4722POPC   C2B59792  15.877   2.607   6.719
 4722POPC   C3B59793  15.777   2.398   7.096
 4722POPC   C4B59794  15.696   2.502   7.546
 4723POPC   NC359795   9.366   4.878   5.080
 4723POPC   PO459796   9.019   5.408   5.262
 4723POPC   GL159797   8.910   5.261   5.684
 4723POPC   GL259798   9.079   5.449   5.865
 4723POPC   C1A59799   8.764   5.208   6.160
 4723POPC   D2A59800   8.661   5.060   6.585
 4723POPC   C3A59801   8.782   5.129   7.018
 4723POPC   C4A59802   8.735   4.820   7.338
 4723POPC   C1B59803   9.277   5.194   6.216
 4723POPC   C2B59804   9.427   5.042   6.626
 4723POPC   C3B59805   9.251   4.962   7.052
 4723POPC   C4B59806   9.276   5.060   7.474
 4724POPC   NC359807  17.641   2.771   5.388
 4724POPC   PO459808  16.979   2.698   5.410
 4724POPC   GL159809  17.321   2.564   5.750
 4724POPC   GL259810  17.460   2.898   5.862
 4724POPC   C1A59811  17.556   2.485   6.157
 4724POPC   D2A59812  17.537   2.732   6.531
 4724POPC   C3A59813  17.282   2.693   6.898
 4724POPC   C4A59814  17.495   2.731   7.280
 4724POPC   C1B59815  17.381   3.147   6.249
 4724POPC   C2B59816  17.625   3.258   6.637
 4724POPC   C3B59817  17.776   3.103   7.035
 4724POPC   C4B59818  17.782   3.104   7.484
 4725POPC   NC359819  27.430  35.715   5.692
 4725POPC   PO459820  27.674  35.132   5.351
 4725POPC   GL159821  27.631  35.222   5.791
 4725POPC   GL259822  27.885  35.454   5.745
 4725POPC   C1A59823  27.488  35.312   6.231
 4725POPC   D2A59824  27.559  35.465   6.672
 4725POPC   C3A59825  27.399  35.143   6.975
 4725POPC   C4A59826  27.210  35.104   7.349
 4725POPC   C1B59827  27.957  35.534   6.171
 4725POPC   C2B59828  28.011  35.269   6.515
 4725POPC   C3B59829  27.903  35.193   6.945
 4725POPC   C4B59830  27.956  35.490   7.228
 4726POPC   NC359831  29.989   3.474   5.303
 4726POPC   PO459832  29.605   3.877   5.669
 4726POPC   GL159833  29.755   3.553   5.894
 4726POPC   GL259834  30.069   3.413   5.821
 4726POPC   C1A59835  29.794   3.672   6.299
 4726POPC   D2A59836  29.983   3.653   6.639
 4726POPC   C3A59837  29.729   3.687   6.979
 4726POPC   C4A59838  29.831   3.552   7.348
 4726POPC   C1B59839  30.206   3.364   6.245
 4726POPC   C2B59840  30.071   3.168   6.661
 4726POPC   C3B59841  30.208   3.389   7.025
 4726POPC   C4B59842  30.443   3.285   7.390
 4727POPC   NC359843  17.043  11.758   5.477
 4727POPC   PO459844  16.512  11.278   5.394
 4727POPC   GL159845  16.712  11.465   5.795
 4727POPC   GL259846  17.064  11.459   5.928
 4727POPC   C1A59847  16.651  11.370   6.247
 4727POPC   D2A59848  16.390  11.191   6.544
 4727POPC   C3A59849  16.541  11.048   6.946
 4727POPC   C4A59850  16.342  11.262   7.268
 4727POPC   C1B59851  17.121  11.506   6.411
 4727POPC   C2B59852  16.943  11.357   6.813
 4727POPC   C3B59853  16.765  11.538   7.171
 4727POPC   C4B59854  16.970  11.556   7.581
 4728POPC   NC359855  29.025   7.684   5.485
 4728POPC   PO459856  29.364   7.093   5.249
 4728POPC   GL159857  29.349   7.337   5.685
 4728POPC   GL259858  29.556   7.591   5.814
 4728POPC   C1A59859  29.117   7.511   6.111
 4728POPC   D2A59860  29.177   7.316   6.532
 4728POPC   C3A59861  28.834   7.320   6.837
 4728POPC   C4A59862  28.939   7.376   7.257
 4728POPC   C1B59863  29.595   7.575   6.249
 4728POPC   C2B59864  29.362   7.802   6.558
 4728POPC   C3B59865  29.200   7.682   6.928
 4728POPC   C4B59866  29.425   7.559   7.264
 4729POPC   NC359867  21.030  14.426   5.338
 4729POPC   PO459868  21.430  13.922   5.262
 4729POPC   GL159869  21.423  14.319   5.618
 4729POPC   GL259870  21.663  14.608   5.644
 4729POPC   C1A59871  21.412  14.403   6.078
 4729POPC   D2A59872  21.184  14.603   6.396
 4729POPC   C3A59873  21.270  14.479   6.824
 4729POPC   C4A59874  21.409  14.628   7.222
 4729POPC   C1B59875  21.832  14.731   6.078
 4729POPC   C2B59876  21.692  14.572   6.492
 4729POPC   C3B59877  21.791  14.494   6.892
 4729POPC   C4B59878  21.914  14.556   7.309
 4730POPC   NC359879  34.636  11.814   5.425
 4730POPC   PO459880  34.500  11.110   5.374
 4730POPC   GL159881  34.501  11.400   5.682
 4730POPC   GL259882  34.826  11.436   5.711
 4730POPC   C1A59883  34.383  11.497   6.082
 4730POPC   D2A59884  34.543  11.438   6.481
 4730POPC   C3A59885  34.333  11.321   6.842
 4730POPC   C4A59886  34.491  11.231   7.213
 4730POPC   C1B59887  34.928  11.503   6.134
 4730POPC   C2B59888  35.054  11.358   6.515
 4730POPC   C3B59889  34.852  11.257   6.858
 4730POPC   C4B59890  34.952  11.475   7.194
 4731POPC   NC359891  19.260  19.500   5.485
 4731POPC   PO459892  18.980  20.077   5.467
 4731POPC   GL159893  19.193  19.943   5.835
 4731POPC   GL259894  19.001  19.657   5.881
 4731POPC   C1A59895  19.109  19.967   6.284
 4731POPC   D2A59896  18.707  19.926   6.469
 4731POPC   C3A59897  18.757  19.787   6.881
 4731POPC   C4A59898  18.814  20.034   7.284
 4731POPC   C1B59899  19.100  19.461   6.259
 4731POPC   C2B59900  19.391  19.396   6.572
 4731POPC   C3B59901  19.421  19.366   6.984
 4731POPC   C4B59902  19.116  19.605   7.178
 4732POPC   NC359903   9.838  30.773   5.117
 4732POPC   PO459904   9.350  30.951   5.576
 4732POPC   GL159905   9.712  30.829   5.838
 4732POPC   GL259906   9.633  30.527   5.961
 4732POPC   C1A59907   9.903  30.801   6.279
 4732POPC   D2A59908   9.826  30.612   6.678
 4732POPC   C3A59909   9.880  30.860   7.042
 4732POPC   C4A59910  10.120  30.905   7.438
 4732POPC   C1B59911   9.625  30.283   6.309
 4732POPC   C2B59912   9.393  30.317   6.656
 4732POPC   C3B59913   9.496  30.308   7.054
 4732POPC   C4B59914   9.508  30.638   7.336
 4733POPC   NC359915  13.181   7.222   5.122
 4733POPC   PO459916  12.586   7.335   5.460
 4733POPC   GL159917  12.711   7.499   5.772
 4733POPC   GL259918  12.982   7.690   5.600
 4733POPC   C1A59919  12.638   7.394   6.192
 4733POPC   D2A59920  12.753   7.107   6.500
 4733POPC   C3A59921  12.613   7.171   6.901
 4733POPC   C4A59922  12.868   7.345   7.242
 4733POPC   C1B59923  12.959   7.799   6.065
 4733POPC   C2B59924  13.057   7.628   6.469
 4733POPC   C3B59925  12.945   7.713   6.898
 4733POPC   C4B59926  12.796   7.894   7.311
 4734POPC   NC359927  14.053  38.019   5.354
 4734POPC   PO459928  14.715  37.710   5.447
 4734POPC   GL159929  14.390  37.791   5.695
 4734POPC   GL259930  14.662  37.924   5.926
 4734POPC   C1A59931  14.218  37.762   6.120
 4734POPC   D2A59932  14.498  37.952   6.433
 4734POPC   C3A59933  14.418  37.842   6.850
 4734POPC   C4A59934  14.196  37.525   7.032
 4734POPC   C1B59935  14.669  37.533   6.141
 4734POPC   C2B59936  14.592  37.420   6.566
 4734POPC   C3B59937  14.752  37.486   6.992
 4734POPC   C4B59938  14.774  37.847   7.257
 4735POPC   NC359939  27.471   3.732   5.407
 4735POPC   PO459940  27.997   3.339   5.503
 4735POPC   GL159941  27.623   3.351   5.760
 4735POPC   GL259942  27.699   3.653   5.864
 4735POPC   C1A59943  27.370   3.297   6.136
 4735POPC   D2A59944  27.149   3.140   6.491
 4735POPC   C3A59945  27.345   3.358   6.820
 4735POPC   C4A59946  27.703   3.260   7.081
 4735POPC   C1B59947  27.863   3.471   6.265
 4735POPC   C2B59948  27.827   3.579   6.698
 4735POPC   C3B59949  27.776   3.774   7.107
 4735POPC   C4B59950  27.832   3.885   7.556
 4736POPC   NC359951   4.750  11.587   5.406
 4736POPC   PO459952   5.109  12.135   5.337
 4736POPC   GL159953   5.101  11.850   5.709
 4736POPC   GL259954   4.827  11.677   5.892
 4736POPC   C1A59955   5.390  11.776   6.054
 4736POPC   D2A59956   5.384  12.047   6.415
 4736POPC   C3A59957   5.131  11.852   6.706
 4736POPC   C4A59958   5.196  11.885   7.118
 4736POPC   C1B59959   4.908  11.931   6.231
 4736POPC   C2B59960   4.687  12.148   6.561
 4736POPC   C3B59961   4.787  12.156   6.968
 4736POPC   C4B59962   4.706  11.880   7.268
 4737POPC   NC359963  28.804  25.548   5.347
 4737POPC   PO459964  28.433  24.931   5.490
 4737POPC   GL159965  28.297  25.240   5.835
 4737POPC   GL259966  28.041  25.525   5.754
 4737POPC   C1A59967  28.433  25.200   6.250
 4737POPC   D2A59968  28.301  25.103   6.644
 4737POPC   C3A59969  28.605  25.069   6.957
 4737POPC   C4A59970  28.455  24.813   7.294
 4737POPC   C1B59971  28.213  25.671   6.171
 4737POPC   C2B59972  28.406  25.604   6.591
 4737POPC   C3B59973  28.281  25.617   7.029
 4737POPC   C4B59974  28.310  25.292   7.345
 4738POPC   NC359975  30.485  16.404   5.592
 4738POPC   PO459976  30.667  17.033   5.269
 4738POPC   GL159977  30.812  16.794   5.713
 4738POPC   GL259978  30.935  16.411   5.821
 4738POPC   C1A59979  30.881  16.726   6.202
 4738POPC   D2A59980  30.629  16.709   6.603
 4738POPC   C3A59981  30.875  16.716   6.984
 4738POPC   C4A59982  30.858  16.620   7.434
 4738POPC   C1B59983  30.608  16.292   6.223
 4738POPC   C2B59984  30.396  16.245   6.654
 4738POPC   C3B59985  30.482  16.419   7.102
 4738POPC   C4B59986  30.405  16.425   7.589
 4739POPC   NC359987  16.493  24.461   5.594
 4739POPC   PO459988  17.137  24.711   5.572
 4739POPC   GL159989  16.838  24.626   5.927
 4739POPC   GL259990  16.767  24.238   5.950
 4739POPC   C1A59991  16.604  24.728   6.312
 4739POPC   D2A59992  16.423  24.533   6.719
 4739POPC   C3A59993  16.625  24.725   7.063
 4739POPC   C4A59994  17.055  24.641   7.233
 4739POPC   C1B59995  16.551  24.215   6.303
 4739POPC   C2B59996  16.796  24.175   6.662
 4739POPC   C3B59997  16.709  24.232   7.078
 4739POPC   C4B59998  16.677  23.984   7.413
 4740POPC   NC359999  40.552   8.426   5.373
 4740POPC   PO460000  40.974   7.997   5.384
 4740POPC   GL160001  40.687   8.059   5.730
 4740POPC   GL260002  40.884   8.385   5.790
 4740POPC   C1A60003  40.610   8.199   6.182
 4740POPC   D2A60004  40.606   8.439   6.568
 4740POPC   C3A60005  40.612   8.252   6.990
 4740POPC   C4A60006  40.367   8.274   7.386
 4740POPC   C1B60007  41.149   8.436   6.185
 4740POPC   C2B60008  41.104   8.364   6.651
 4740POPC   C3B60009  41.077   8.473   7.098
 4740POPC   C4B60010  40.884   8.234   7.483
 4741POPC   NC360011   9.974   0.936   5.446
 4741POPC   PO460012   9.494   1.450   5.351
 4741POPC   GL160013   9.719   1.345   5.766
 4741POPC   GL260014   9.721   0.988   5.870
 4741POPC   C1A60015   9.758   1.293   6.248
 4741POPC   D2A60016   9.643   1.032   6.587
 4741POPC   C3A60017   9.693   1.295   6.950
 4741POPC   C4A60018   9.381   1.503   7.194
 4741POPC   C1B60019   9.994   0.778   6.175
 4741POPC   C2B60020   9.990   0.656   6.598
 4741POPC   C3B60021   9.966   0.841   7.013
 4741POPC   C4B60022   9.909   1.059   7.417
 4742POPC   NC360023  36.862   8.595   5.364
 4742POPC   PO460024  37.068   9.249   5.241
 4742POPC   GL160025  36.914   9.065   5.619
 4742POPC   GL260026  36.940   9.336   5.878
 4742POPC   C1A60027  36.775   8.883   6.021
 4742POPC   D2A60028  36.701   9.088   6.410
 4742POPC   C3A60029  36.691   8.944   6.849
 4742POPC   C4A60030  36.892   8.653   7.142
 4742POPC   C1B60031  37.201   9.095   6.217
 4742POPC   C2B60032  37.180   8.977   6.680
 4742POPC   C3B60033  37.080   9.225   7.086
 4742POPC   C4B60034  37.392   9.375   7.422
 4743POPC   NC360035  10.722   5.877   5.588
 4743POPC   PO460036  10.272   6.306   5.454
 4743POPC   GL160037  10.452   6.260   5.873
 4743POPC   GL260038  10.815   6.306   5.917
 4743POPC   C1A60039  10.383   6.207   6.318
 4743POPC   D2A60040  10.623   6.287   6.693
 4743POPC   C3A60041  10.362   6.149   7.043
 4743POPC   C4A60042  10.187   5.918   7.386
 4743POPC   C1B60043  10.827   5.956   6.237
 4743POPC   C2B60044  10.918   5.839   6.678
 4743POPC   C3B60045  10.797   5.919   7.099
 4743POPC   C4B60046  10.633   5.689   7.448
 4744POPC   NC360047  20.761  29.514   5.170
 4744POPC   PO460048  20.951  30.166   5.422
 4744POPC   GL160049  20.800  29.947   5.797
 4744POPC   GL260050  20.456  30.013   5.820
 4744POPC   C1A60051  20.755  29.802   6.253
 4744POPC   D2A60052  20.885  29.959   6.661
 4744POPC   C3A60053  20.770  29.803   7.068
 4744POPC   C4A60054  20.691  29.911   7.498
 4744POPC   C1B60055  20.364  29.582   6.018
 4744POPC   C2B60056  20.242  29.556   6.456
 4744POPC   C3B60057  20.339  29.601   6.880
 4744POPC   C4B60058  20.246  29.796   7.258
 4745POPC   NC360059  12.001   3.883   5.437
 4745POPC   PO460060  12.099   3.253   5.406
 4745POPC   GL160061  11.977   3.497   5.783
 4745POPC   GL260062  11.667   3.730   5.822
 4745POPC   C1A60063  12.157   3.628   6.197
 4745POPC   D2A60064  11.949   3.665   6.633
 4745POPC   C3A60065  12.214   3.604   7.000
 4745POPC   C4A60066  12.258   3.723   7.468
 4745POPC   C1B60067  11.681   3.496   6.220
 4745POPC   C2B60068  11.688   3.220   6.558
 4745POPC   C3B60069  11.743   3.141   6.980
 4745POPC   C4B60070  11.831   3.472   7.299
 4746POPC   NC360071  19.772  10.553   5.125
 4746POPC   PO460072  19.120  10.509   5.370
 4746POPC   GL160073  19.023  10.526   5.815
 4746POPC   GL260074  19.286  10.266   5.858
 4746POPC   C1A60075  18.949  10.311   6.237
 4746POPC   D2A60076  19.308  10.151   6.507
 4746POPC   C3A60077  19.116  10.268   6.905
 4746POPC   C4A60078  18.906  10.512   7.204
 4746POPC   C1B60079  19.399  10.551   6.181
 4746POPC   C2B60080  19.325  10.662   6.565
 4746POPC   C3B60081  19.273  10.755   6.946
 4746POPC   C4B60082  19.331  10.783   7.340
 4747POPC   NC360083  33.418  10.574   5.348
 4747POPC   PO460084  34.092  10.226   5.439
 4747POPC   GL160085  33.848  10.302   5.796
 4747POPC   GL260086  33.508  10.143   5.740
 4747POPC   C1A60087  33.938  10.446   6.244
 4747POPC   D2A60088  33.904  10.243   6.647
 4747POPC   C3A60089  33.805  10.474   7.022
 4747POPC   C4A60090  34.092  10.489   7.374
 4747POPC   C1B60091  33.451  10.493   6.059
 4747POPC   C2B60092  33.431  10.410   6.503
 4747POPC   C3B60093  33.390  10.182   6.887
 4747POPC   C4B60094  33.286  10.294   7.284
 4748POPC   NC360095  33.492  26.286   5.517
 4748POPC   PO460096  33.820  25.709   5.542
 4748POPC   GL160097  33.616  25.872   5.871
 4748POPC   GL260098  33.933  25.821   6.052
 4748POPC   C1A60099  33.604  26.151   6.228
 4748POPC   D2A60100  33.853  26.005   6.603
 4748POPC   C3A60101  33.698  26.114   7.013
 4748POPC   C4A60102  33.896  26.195   7.373
 4748POPC   C1B60103  34.108  26.216   6.198
 4748POPC   C2B60104  34.280  26.304   6.624
 4748POPC   C3B60105  34.236  26.072   6.990
 4748POPC   C4B60106  34.063  25.689   7.157
 4749POPC   NC360107   3.760  38.119   5.466
 4749POPC   PO460108   3.436  37.502   5.380
 4749POPC   GL160109   3.310  37.730   5.769
 4749POPC   GL260110   3.212  38.103   5.731
 4749POPC   C1A60111   3.519  37.636   6.172
 4749POPC   D2A60112   3.760  37.647   6.527
 4749POPC   C3A60113   3.600  37.518   6.904
 4749POPC   C4A60114   3.751  37.479   7.331
 4749POPC   C1B60115   3.358  38.113   6.169
 4749POPC   C2B60116   3.275  37.860   6.586
 4749POPC   C3B60117   3.389  37.954   7.019
 4749POPC   C4B60118   3.723  38.001   7.347
 4750POPC   NC360119  11.398  36.194   5.431
 4750POPC   PO460120  10.835  36.451   5.267
 4750POPC   GL160121  11.036  36.451   5.720
 4750POPC   GL260122  11.074  36.093   5.822
 4750POPC   C1A60123  11.236  36.462   6.161
 4750POPC   D2A60124  11.442  36.467   6.578
 4750POPC   C3A60125  11.598  36.206   6.929
 4750POPC   C4A60126  11.348  36.095   7.251
 4750POPC   C1B60127  10.964  36.023   6.250
 4750POPC   C2B60128  11.029  36.132   6.685
 4750POPC   C3B60129  10.865  36.071   7.079
 4750POPC   C4B60130  10.915  35.925   7.515
 4751POPC   NC360131  22.836  18.384   5.493
 4751POPC   PO460132  22.431  17.890   5.224
 4751POPC   GL160133  22.730  17.941   5.687
 4751POPC   GL260134  23.084  18.034   5.801
 4751POPC   C1A60135  22.725  18.216   6.130
 4751POPC   D2A60136  22.475  18.303   6.500
 4751POPC   C3A60137  22.643  18.417   6.904
 4751POPC   C4A60138  23.001  18.531   7.157
 4751POPC   C1B60139  23.204  18.125   6.247
 4751POPC   C2B60140  23.238  18.184   6.708
 4751POPC   C3B60141  23.190  18.048   7.147
 4751POPC   C4B60142  23.141  17.986   7.583
 4752POPC   NC360143  29.400  10.768   5.431
 4752POPC   PO460144  28.942  10.276   5.535
 4752POPC   GL160145  29.197  10.549   5.863
 4752POPC   GL260146  29.383  10.331   6.165
 4752POPC   C1A60147  29.382  10.818   6.169
 4752POPC   D2A60148  29.139  10.753   6.546
 4752POPC   C3A60149  29.342  10.708   6.929
 4752POPC   C4A60150  29.208  10.669   7.332
 4752POPC   C1B60151  28.944  10.211   6.282
 4752POPC   C2B60152  28.777  10.172   6.687
 4752POPC   C3B60153  29.069  10.256   7.001
 4752POPC   C4B60154  29.493  10.243   7.127
 4753POPC   NC360155  10.243  31.597   5.353
 4753POPC   PO460156  10.941  31.587   5.334
 4753POPC   GL160157  10.718  31.621   5.751
 4753POPC   GL260158  10.640  31.985   5.821
 4753POPC   C1A60159  10.706  31.403   6.179
 4753POPC   D2A60160  10.762  31.241   6.627
 4753POPC   C3A60161  10.675  31.534   6.974
 4753POPC   C4A60162  10.447  31.560   7.363
 4753POPC   C1B60163  10.350  31.793   6.130
 4753POPC   C2B60164  10.352  31.577   6.532
 4753POPC   C3B60165  10.216  31.726   6.925
 4753POPC   C4B60166  10.017  31.811   7.314
 4754POPC   NC360167   8.404  27.803   5.549
 4754POPC   PO460168   8.500  27.117   5.498
 4754POPC   GL160169   8.302  27.409   5.866
 4754POPC   GL260170   7.943  27.547   5.806
 4754POPC   C1A60171   8.187  27.779   6.183
 4754POPC   D2A60172   8.201  28.033   6.556
 4754POPC   C3A60173   8.329  27.762   6.864
 4754POPC   C4A60174   8.224  27.603   7.252
 4754POPC   C1B60175   7.717  27.444   6.226
 4754POPC   C2B60176   7.760  27.350   6.703
 4754POPC   C3B60177   7.972  27.172   7.077
 4754POPC   C4B60178   8.109  27.190   7.522
 4755POPC   NC360179  24.288  42.836   5.409
 4755POPC   PO460180  24.657  43.413   5.260
 4755POPC   GL160181  24.718  43.100   5.643
 4755POPC   GL260182  24.411  43.066   5.843
 4755POPC   C1A60183  24.799  43.116   6.143
 4755POPC   D2A60184  24.607  42.904   6.503
 4755POPC   C3A60185  24.633  43.058   6.913
 4755POPC   C4A60186  24.652  42.872   7.289
 4755POPC   C1B60187  24.167  43.136   6.238
 4755POPC   C2B60188  24.188  43.265   6.691
 4755POPC   C3B60189  24.144  43.125   7.129
 4755POPC   C4B60190  23.979  43.189   7.550
 4756POPC   NC360191   7.940  14.792   5.541
 4756POPC   PO460192   8.114  15.403   5.287
 4756POPC   GL160193   8.145  15.268   5.734
 4756POPC   GL260194   7.879  15.417   5.957
 4756POPC   C1A60195   8.210  15.054   6.134
 4756POPC   D2A60196   8.015  15.189   6.543
 4756POPC   C3A60197   8.141  15.223   6.998
 4756POPC   C4A60198   8.368  15.057   7.408
 4756POPC   C1B60199   8.251  15.557   6.247
 4756POPC   C2B60200   8.510  15.472   6.663
 4756POPC   C3B60201   8.569  15.456   7.157
 4756POPC   C4B60202   8.469  15.509   7.648
 4757POPC   NC360203   7.034   5.869   5.178
 4757POPC   PO460204   6.379   5.853   5.409
 4757POPC   GL160205   6.602   5.715   5.784
 4757POPC   GL260206   6.945   5.644   5.862
 4757POPC   C1A60207   6.522   5.777   6.214
 4757POPC   D2A60208   6.357   5.584   6.581
 4757POPC   C3A60209   6.523   5.769   6.961
 4757POPC   C4A60210   6.802   5.572   7.275
 4757POPC   C1B60211   7.033   5.862   6.221
 4757POPC   C2B60212   6.888   6.010   6.567
 4757POPC   C3B60213   7.025   5.956   6.948
 4757POPC   C4B60214   6.756   6.111   7.270
 4758POPC   NC360215   9.683  17.998   5.149
 4758POPC   PO460216   9.989  18.572   5.361
 4758POPC   GL160217   9.851  18.312   5.735
 4758POPC   GL260218   9.892  18.597   5.931
 4758POPC   C1A60219   9.603  18.276   6.178
 4758POPC   D2A60220   9.700  18.614   6.485
 4758POPC   C3A60221   9.778  18.522   6.945
 4758POPC   C4A60222   9.815  18.117   7.138
 4758POPC   C1B60223  10.101  18.318   6.239
 4758POPC   C2B60224  10.129  18.312   6.647
 4758POPC   C3B60225  10.295  18.156   6.993
 4758POPC   C4B60226  10.249  18.301   7.409
 4759POPC   NC360227  43.030  29.587   5.600
 4759POPC   PO460228  43.188  30.229   5.496
 4759POPC   GL160229  43.346  29.960   5.856
 4759POPC   GL260230  43.327  29.593   6.002
 4759POPC   C1A60231  43.348  30.072   6.292
 4759POPC   D2A60232  43.392  29.844   6.667
 4759POPC   C3A60233  43.338  30.198   6.916
 4759POPC   C4A60234  43.198  30.230   7.348
 4759POPC   C1B60235  42.946  29.819   6.192
 4759POPC   C2B60236  42.885  29.938   6.620
 4759POPC   C3B60237  42.984  29.861   7.080
 4759POPC   C4B60238  42.760  29.976   7.501
 4760POPC   NC360239  27.778   2.265   5.351
 4760POPC   PO460240  27.662   1.591   5.267
 4760POPC   GL160241  27.541   1.738   5.710
 4760POPC   GL260242  27.520   2.098   5.763
 4760POPC   C1A60243  27.687   1.831   6.156
 4760POPC   D2A60244  27.761   2.096   6.523
 4760POPC   C3A60245  27.585   1.869   6.864
 4760POPC   C4A60246  27.644   1.795   7.316
 4760POPC   C1B60247  27.410   2.277   6.148
 4760POPC   C2B60248  27.258   2.218   6.551
 4760POPC   C3B60249  27.452   2.356   6.891
 4760POPC   C4B60250  27.420   2.269   7.301
 4761POPC   NC360251   0.612  15.658   5.084
 4761POPC   PO460252   0.421  16.263   5.329
 4761POPC   GL160253   0.363  16.155   5.774
 4761POPC   GL260254   0.479  15.812   5.786
 4761POPC   C1A60255   0.381  16.297   6.203
 4761POPC   D2A60256   0.441  16.131   6.618
 4761POPC   C3A60257   0.230  16.287   6.998
 4761POPC   C4A60258   0.451  16.279   7.414
 4761POPC   C1B60259   0.237  15.807   6.180
 4761POPC   C2B60260   0.279  15.638   6.579
 4761POPC   C3B60261   0.300  15.779   7.003
 4761POPC   C4B60262   0.037  15.902   7.324
 4762POPC   NC360263   7.048  38.686   5.234
 4762POPC   PO460264   6.515  38.382   5.454
 4762POPC   GL160265   6.748  38.322   5.836
 4762POPC   GL260266   6.467  38.496   5.990
 4762POPC   C1A60267   6.925  38.524   6.241
 4762POPC   D2A60268   6.673  38.832   6.469
 4762POPC   C3A60269   6.606  38.789   6.906
 4762POPC   C4A60270   6.731  38.487   7.220
 4762POPC   C1B60271   6.552  38.188   6.319
 4762POPC   C2B60272   6.620  38.243   6.748
 4762POPC   C3B60273   6.485  38.026   7.097
 4762POPC   C4B60274   6.586  38.108   7.550
 4763POPC   NC360275   7.253  18.325   5.504
 4763POPC   PO460276   7.945  18.515   5.404
 4763POPC   GL160277   7.598  18.640   5.732
 4763POPC   GL260278   7.535  18.333   5.926
 4763POPC   C1A60279   7.502  18.760   6.184
 4763POPC   D2A60280   7.457  18.475   6.548
 4763POPC   C3A60281   7.353  18.578   6.941
 4763POPC   C4A60282   7.486  18.389   7.276
 4763POPC   C1B60283   7.442  18.045   6.276
 4763POPC   C2B60284   7.043  18.053   6.543
 4763POPC   C3B60285   7.020  18.169   6.979
 4763POPC   C4B60286   7.198  17.964   7.344
 4764POPC   NC360287  27.111   6.809   5.286
 4764POPC   PO460288  26.649   6.344   5.310
 4764POPC   GL160289  26.776   6.329   5.731
 4764POPC   GL260290  27.059   6.459   5.677
 4764POPC   C1A60291  26.688   6.371   6.183
 4764POPC   D2A60292  26.433   6.582   6.490
 4764POPC   C3A60293  26.609   6.639   6.886
 4764POPC   C4A60294  26.795   6.361   7.158
 4764POPC   C1B60295  27.117   6.688   6.064
 4764POPC   C2B60296  27.106   6.523   6.484
 4764POPC   C3B60297  27.216   6.397   6.896
 4764POPC   C4B60298  27.156   6.752   7.164
 4765POPC   NC360299   7.322  30.773   5.229
 4765POPC   PO460300   7.687  30.457   5.622
 4765POPC   GL160301   7.599  30.829   5.858
 4765POPC   GL260302   7.289  30.871   5.734
 4765POPC   C1A60303   7.623  30.804   6.292
 4765POPC   D2A60304   7.563  30.388   6.506
 4765POPC   C3A60305   7.641  30.348   6.968
 4765POPC   C4A60306   7.638  30.648   7.301
 4765POPC   C1B60307   7.224  30.555   6.088
 4765POPC   C2B60308   7.148  30.696   6.488
 4765POPC   C3B60309   7.329  30.801   6.862
 4765POPC   C4B60310   7.070  30.828   7.204
 4766POPC   NC360311  17.267  12.540   5.443
 4766POPC   PO460312  16.768  12.108   5.334
 4766POPC   GL160313  16.696  12.005   5.764
 4766POPC   GL260314  16.514  12.271   5.865
 4766POPC   C1A60315  16.801  11.858   6.182
 4766POPC   D2A60316  16.724  11.778   6.635
 4766POPC   C3A60317  16.773  12.038   7.018
 4766POPC   C4A60318  17.137  11.890   7.234
 4766POPC   C1B60319  16.393  12.183   6.275
 4766POPC   C2B60320  16.369  12.133   6.708
 4766POPC   C3B60321  16.285  12.262   7.105
 4766POPC   C4B60322  16.535  12.501   7.362
 4767POPC   NC360323  22.395  29.569   5.441
 4767POPC   PO460324  22.034  28.937   5.467
 4767POPC   GL160325  22.118  29.116   5.863
 4767POPC   GL260326  22.480  29.129   5.905
 4767POPC   C1A60327  22.150  29.019   6.310
 4767POPC   D2A60328  21.953  28.857   6.682
 4767POPC   C3A60329  22.121  29.185   6.903
 4767POPC   C4A60330  22.370  29.245   7.216
 4767POPC   C1B60331  22.366  29.498   6.104
 4767POPC   C2B60332  22.149  29.515   6.489
 4767POPC   C3B60333  22.402  29.629   6.858
 4767POPC   C4B60334  22.616  29.689   7.268
 4768POPC   NC360335  23.131  32.098   5.448
 4768POPC   PO460336  22.848  32.649   5.597
 4768POPC   GL160337  22.881  32.257   5.883
 4768POPC   GL260338  23.095  31.921   5.915
 4768POPC   C1A60339  22.982  32.244   6.342
 4768POPC   D2A60340  22.680  32.347   6.665
 4768POPC   C3A60341  22.776  32.539   7.057
 4768POPC   C4A60342  22.725  32.294   7.436
 4768POPC   C1B60343  22.794  31.782   6.193
 4768POPC   C2B60344  22.906  31.806   6.629
 4768POPC   C3B60345  22.890  32.004   7.009
 4768POPC   C4B60346  23.198  32.246   7.192
 4769POPC   NC360347  22.818  14.173   5.449
 4769POPC   PO460348  22.823  14.831   5.601
 4769POPC   GL160349  22.898  14.511   5.889
 4769POPC   GL260350  22.632  14.239   5.913
 4769POPC   C1A60351  22.992  14.554   6.343
 4769POPC   D2A60352  23.203  14.267   6.631
 4769POPC   C3A60353  23.145  14.365   7.041
 4769POPC   C4A60354  22.774  14.551   7.174
 4769POPC   C1B60355  22.932  14.078   6.198
 4769POPC   C2B60356  22.746  13.981   6.596
 4769POPC   C3B60357  22.552  14.065   6.970
 4769POPC   C4B60358  22.786  14.042   7.304
 4770POPC   NC360359   7.027  21.755   5.566
 4770POPC   PO460360   7.305  21.130   5.318
 4770POPC   GL160361   7.368  21.161   5.779
 4770POPC   GL260362   7.429  21.517   5.819
 4770POPC   C1A60363   7.609  21.192   6.208
 4770POPC   D2A60364   7.582  21.449   6.611
 4770POPC   C3A60365   7.511  21.325   7.054
 4770POPC   C4A60366   7.649  21.380   7.493
 4770POPC   C1B60367   7.217  21.542   6.198
 4770POPC   C2B60368   7.068  21.672   6.589
 4770POPC   C3B60369   7.300  21.778   6.929
 4770POPC   C4B60370   7.279  21.727   7.374
 4771POPC   NC360371  31.458  37.987   5.494
 4771POPC   PO460372  31.626  37.311   5.491
 4771POPC   GL160373  31.438  37.563   5.771
 4771POPC   GL260374  31.136  37.394   5.856
 4771POPC   C1A60375  31.600  37.764   6.118
 4771POPC   D2A60376  31.565  37.480   6.458
 4771POPC   C3A60377  31.617  37.582   6.851
 4771POPC   C4A60378  31.477  37.580   7.268
 4771POPC   C1B60379  31.107  37.741   6.197
 4771POPC   C2B60380  31.333  37.925   6.541
 4771POPC   C3B60381  31.196  37.888   6.937
 4771POPC   C4B60382  31.030  37.905   7.322
 4772POPC   NC360383   4.146  33.280   5.375
 4772POPC   PO460384   4.214  33.982   5.324
 4772POPC   GL160385   4.317  34.069   5.764
 4772POPC   GL260386   4.534  33.811   5.882
 4772POPC   C1A60387   4.291  34.116   6.221
 4772POPC   D2A60388   4.035  33.831   6.504
 4772POPC   C3A60389   4.193  33.805   6.912
 4772POPC   C4A60390   4.454  34.105   7.125
 4772POPC   C1B60391   4.484  33.641   6.306
 4772POPC   C2B60392   4.667  33.677   6.720
 4772POPC   C3B60393   4.537  33.472   7.104
 4772POPC   C4B60394   4.088  33.347   7.196
 4773POPC   NC360395  14.615  11.826   5.496
 4773POPC   PO460396  14.092  12.240   5.363
 4773POPC   GL160397  14.190  12.194   5.767
 4773POPC   GL260398  14.017  12.502   5.856
 4773POPC   C1A60399  14.350  11.905   6.108
 4773POPC   D2A60400  14.338  11.598   6.440
 4773POPC   C3A60401  14.535  11.725   6.825
 4773POPC   C4A60402  14.472  11.892   7.215
 4773POPC   C1B60403  13.965  12.231   6.220
 4773POPC   C2B60404  14.148  12.070   6.602
 4773POPC   C3B60405  14.055  12.133   7.036
 4773POPC   C4B60406  14.281  12.314   7.424
 4774POPC   NC360407  25.716  42.128   5.383
 4774POPC   PO460408  26.344  42.130   5.582
 4774POPC   GL160409  26.088  42.393   5.794
 4774POPC   GL260410  25.814  42.167   5.900
 4774POPC   C1A60411  26.180  42.462   6.219
 4774POPC   D2A60412  25.994  42.296   6.574
 4774POPC   C3A60413  26.224  42.372   6.944
 4774POPC   C4A60414  26.136  42.441   7.371
 4774POPC   C1B60415  25.622  42.058   6.322
 4774POPC   C2B60416  25.594  42.008   6.783
 4774POPC   C3B60417  25.884  42.017   7.141
 4774POPC   C4B60418  25.817  42.065   7.595
 4775POPC   NC360419  22.153  11.855   5.479
 4775POPC   PO460420  22.596  12.332   5.563
 4775POPC   GL160421  22.299  12.070   5.896
 4775POPC   GL260422  22.327  11.657   5.915
 4775POPC   C1A60423  22.045  12.073   6.275
 4775POPC   D2A60424  22.189  12.165   6.684
 4775POPC   C3A60425  21.973  12.236   7.062
 4775POPC   C4A60426  22.161  12.367   7.469
 4775POPC   C1B60427  22.037  11.530   6.248
 4775POPC   C2B60428  22.065  11.682   6.627
 4775POPC   C3B60429  22.228  11.704   7.011
 4775POPC   C4B60430  22.071  11.857   7.401
 4776POPC   NC360431   1.621  28.548   5.327
 4776POPC   PO460432   0.940  28.420   5.237
 4776POPC   GL160433   1.105  28.277   5.665
 4776POPC   GL260434   1.475  28.308   5.783
 4776POPC   C1A60435   1.061  28.269   6.133
 4776POPC   D2A60436   1.102  28.508   6.546
 4776POPC   C3A60437   1.165  28.313   6.980
 4776POPC   C4A60438   1.022  28.220   7.415
 4776POPC   C1B60439   1.540  28.445   6.227
 4776POPC   C2B60440   1.685  28.677   6.587
 4776POPC   C3B60441   1.609  28.614   7.042
 4776POPC   C4B60442   1.649  28.186   7.198
 4777POPC   NC360443  12.192  12.300   5.293
 4777POPC   PO460444  11.969  12.934   5.412
 4777POPC   GL160445  12.194  12.870   5.756
 4777POPC   GL260446  12.146  13.214   5.816
 4777POPC   C1A60447  12.228  12.860   6.191
 4777POPC   D2A60448  12.028  12.833   6.593
 4777POPC   C3A60449  12.121  12.680   6.981
 4777POPC   C4A60450  12.336  12.928   7.270
 4777POPC   C1B60451  11.895  13.246   6.225
 4777POPC   C2B60452  11.750  13.297   6.639
 4777POPC   C3B60453  11.921  13.195   7.056
 4777POPC   C4B60454  11.848  13.349   7.509
 4778POPC   NC360455  13.099  44.916   5.481
 4778POPC   PO460456  12.666  44.395   5.618
 4778POPC   GL160457  12.963  44.532   5.915
 4778POPC   GL260458  13.022  44.880   5.977
 4778POPC   C1A60459  12.726  44.502   6.316
 4778POPC   D2A60460  12.448  44.385   6.658
 4778POPC   C3A60461  12.463  44.581   7.061
 4778POPC   C4A60462  12.511  44.428   7.451
 4778POPC   C1B60463  13.110  44.812   6.411
 4778POPC   C2B60464  12.881  44.731   6.793
 4778POPC   C3B60465  12.969  44.635   7.219
 4778POPC   C4B60466  13.214  44.858   7.559
 4779POPC   NC360467   1.606   2.117   5.296
 4779POPC   PO460468   0.966   2.022   5.395
 4779POPC   GL160469   1.271   2.080   5.729
 4779POPC   GL260470   1.457   1.803   5.700
 4779POPC   C1A60471   1.147   2.048   6.186
 4779POPC   D2A60472   0.912   2.049   6.584
 4779POPC   C3A60473   0.936   1.864   6.988
 4779POPC   C4A60474   1.233   2.101   7.225
 4779POPC   C1B60475   1.478   1.673   6.135
 4779POPC   C2B60476   1.410   1.801   6.580
 4779POPC   C3B60477   1.413   1.658   7.012
 4779POPC   C4B60478   1.704   1.452   7.291
 4780POPC   NC360479   4.874  36.957   5.182
 4780POPC   PO460480   4.241  36.931   5.219
 4780POPC   GL160481   4.205  36.965   5.692
 4780POPC   GL260482   4.242  37.339   5.740
 4780POPC   C1A60483   4.162  36.799   6.151
 4780POPC   D2A60484   3.927  36.750   6.563
 4780POPC   C3A60485   4.133  36.834   6.989
 4780POPC   C4A60486   4.327  36.760   7.399
 4780POPC   C1B60487   3.941  37.286   6.091
 4780POPC   C2B60488   4.065  37.234   6.516
 4780POPC   C3B60489   4.079  37.353   6.935
 4780POPC   C4B60490   4.192  37.233   7.372
 4781POPC   NC360491   7.247  11.629   5.374
 4781POPC   PO460492   7.757  11.121   5.534
 4781POPC   GL160493   7.623  11.315   5.879
 4781POPC   GL260494   7.376  11.575   5.913
 4781POPC   C1A60495   7.486  11.156   6.271
 4781POPC   D2A60496   7.631  11.013   6.674
 4781POPC   C3A60497   7.445  11.222   7.029
 4781POPC   C4A60498   7.190  11.509   7.233
 4781POPC   C1B60499   7.684  11.634   6.276
 4781POPC   C2B60500   7.704  11.539   6.732
 4781POPC   C3B60501   7.748  11.638   7.194
 4781POPC   C4B60502   7.565  11.554   7.610
 4782POPC   NC360503  25.754  22.684   5.434
 4782POPC   PO460504  25.703  23.263   5.576
 4782POPC   GL160505  25.923  23.042   5.894
 4782POPC   GL260506  26.007  22.684   5.872
 4782POPC   C1A60507  25.912  23.008   6.324
 4782POPC   D2A60508  25.855  22.754   6.638
 4782POPC   C3A60509  26.024  22.925   7.008
 4782POPC   C4A60510  25.961  22.933   7.423
 4782POPC   C1B60511  26.346  22.809   6.172
 4782POPC   C2B60512  26.375  22.937   6.621
 4782POPC   C3B60513  26.500  22.696   7.016
 4782POPC   C4B60514  26.420  22.735   7.477
 4783POPC   NC360515  25.473  38.943   5.445
 4783POPC   PO460516  25.127  38.357   5.432
 4783POPC   GL160517  25.337  38.377   5.818
 4783POPC   GL260518  25.694  38.287   5.749
 4783POPC   C1A60519  25.366  38.608   6.221
 4783POPC   D2A60520  25.173  38.760   6.610
 4783POPC   C3A60521  25.354  38.540   6.950
 4783POPC   C4A60522  25.608  38.544   7.314
 4783POPC   C1B60523  25.633  38.159   6.183
 4783POPC   C2B60524  25.708  38.382   6.580
 4783POPC   C3B60525  25.915  38.305   6.977
 4783POPC   C4B60526  25.817  38.062   7.373
 4784POPC   NC360527  12.851  21.245   5.407
 4784POPC   PO460528  12.745  21.907   5.229
 4784POPC   GL160529  12.803  21.746   5.752
 4784POPC   GL260530  12.830  21.379   5.892
 4784POPC   C1A60531  13.042  21.728   6.176
 4784POPC   D2A60532  13.254  21.670   6.598
 4784POPC   C3A60533  13.006  21.406   6.911
 4784POPC   C4A60534  12.783  21.556   7.257
 4784POPC   C1B60535  12.634  21.151   6.249
 4784POPC   C2B60536  12.525  21.195   6.684
 4784POPC   C3B60537  12.564  21.126   7.092
 4784POPC   C4B60538  12.869  21.035   7.327
 4785POPC   NC360539  35.832  35.848   5.169
 4785POPC   PO460540  36.186  36.383   5.254
 4785POPC   GL160541  36.122  36.290   5.707
 4785POPC   GL260542  36.276  35.951   5.665
 4785POPC   C1A60543  35.934  36.344   6.155
 4785POPC   D2A60544  35.727  36.125   6.495
 4785POPC   C3A60545  35.927  36.292   6.869
 4785POPC   C4A60546  35.950  36.122   7.277
 4785POPC   C1B60547  36.366  36.050   6.107
 4785POPC   C2B60548  36.256  36.029   6.555
 4785POPC   C3B60549  36.395  36.094   7.003
 4785POPC   C4B60550  36.435  36.262   7.471
 4786POPC   NC360551   9.247  38.577   5.103
 4786POPC   PO460552   9.253  38.263   5.703
 4786POPC   GL160553   9.019  38.543   5.934
 4786POPC   GL260554   8.755  38.329   5.958
 4786POPC   C1A60555   8.922  38.895   6.176
 4786POPC   D2A60556   9.194  39.082   6.473
 4786POPC   C3A60557   9.051  38.963   6.888
 4786POPC   C4A60558   9.141  38.609   7.156
 4786POPC   C1B60559   8.660  38.466   6.347
 4786POPC   C2B60560   8.819  38.511   6.746
 4786POPC   C3B60561   8.837  38.219   7.089
 4786POPC   C4B60562   8.823  38.293   7.518
 4787POPC   NC360563  16.271  39.289   5.424
 4787POPC   PO460564  15.662  38.976   5.392
 4787POPC   GL160565  15.930  38.959   5.738
 4787POPC   GL260566  15.826  39.306   5.823
 4787POPC   C1A60567  16.139  39.049   6.135
 4787POPC   D2A60568  15.969  39.137   6.550
 4787POPC   C3A60569  15.914  38.940   6.944
 4787POPC   C4A60570  15.774  39.141   7.304
 4787POPC   C1B60571  15.988  39.526   6.201
 4787POPC   C2B60572  16.040  39.651   6.644
 4787POPC   C3B60573  15.984  39.549   7.060
 4787POPC   C4B60574  15.634  39.612   7.353
 4788POPC   NC360575  38.364  18.396   5.364
 4788POPC   PO460576  38.732  17.837   5.428
 4788POPC   GL160577  38.695  18.229   5.753
 4788POPC   GL260578  38.408  18.400   5.862
 4788POPC   C1A60579  38.825  18.391   6.172
 4788POPC   D2A60580  38.581  18.392   6.544
 4788POPC   C3A60581  38.740  18.329   6.930
 4788POPC   C4A60582  38.540  18.516   7.248
 4788POPC   C1B60583  38.173  18.512   6.229
 4788POPC   C2B60584  38.023  18.368   6.617
 4788POPC   C3B60585  38.067  18.574   7.001
 4788POPC   C4B60586  38.076  18.424   7.405
 4789POPC   NC360587  22.275  31.930   5.482
 4789POPC   PO460588  21.910  31.317   5.373
 4789POPC   GL160589  21.995  31.238   5.752
 4789POPC   GL260590  22.334  31.328   5.718
 4789POPC   C1A60591  21.905  31.212   6.168
 4789POPC   D2A60592  22.177  31.300   6.528
 4789POPC   C3A60593  22.039  31.542   6.830
 4789POPC   C4A60594  21.813  31.396   7.166
 4789POPC   C1B60595  22.349  31.542   6.116
 4789POPC   C2B60596  22.417  31.749   6.535
 4789POPC   C3B60597  22.558  31.587   6.951
 4789POPC   C4B60598  22.300  31.469   7.277
 4790POPC   NC360599  18.853  36.247   5.229
 4790POPC   PO460600  18.285  35.858   5.414
 4790POPC   GL160601  18.384  35.922   5.817
 4790POPC   GL260602  18.112  35.694   5.905
 4790POPC   C1A60603  18.320  36.296   6.084
 4790POPC   D2A60604  18.208  36.343   6.520
 4790POPC   C3A60605  18.414  36.161   6.883
 4790POPC   C4A60606  18.323  36.206   7.324
 4790POPC   C1B60607  17.858  36.041   6.092
 4790POPC   C2B60608  17.718  36.066   6.503
 4790POPC   C3B60609  17.912  36.091   6.872
 4790POPC   C4B60610  17.874  35.840   7.205
 4791POPC   NC360611  17.023  28.357   5.307
 4791POPC   PO460612  16.507  27.785   5.473
 4791POPC   GL160613  16.784  28.053   5.827
 4791POPC   GL260614  16.690  28.430   5.933
 4791POPC   C1A60615  16.917  28.078   6.233
 4791POPC   D2A60616  16.727  28.399   6.471
 4791POPC   C3A60617  16.804  28.259   6.860
 4791POPC   C4A60618  17.157  28.336   7.095
 4791POPC   C1B60619  16.410  28.731   6.231
 4791POPC   C2B60620  16.314  28.850   6.661
 4791POPC   C3B60621  16.364  28.642   7.062
 4791POPC   C4B60622  16.706  28.448   7.320
 4792POPC   NC360623   2.840  14.719   5.561
 4792POPC   PO460624   2.667  15.155   5.126
 4792POPC   GL160625   2.684  15.214   5.621
 4792POPC   GL260626   3.033  15.178   5.784
 4792POPC   C1A60627   2.603  15.139   6.100
 4792POPC   D2A60628   2.584  15.327   6.536
 4792POPC   C3A60629   2.650  15.154   6.967
 4792POPC   C4A60630   2.772  15.305   7.400
 4792POPC   C1B60631   3.106  15.026   6.237
 4792POPC   C2B60632   3.100  15.179   6.666
 4792POPC   C3B60633   3.133  15.061   7.105
 4792POPC   C4B60634   3.077  14.904   7.536
 4793POPC   NC360635   8.380  32.594   5.518
 4793POPC   PO460636   8.087  31.978   5.503
 4793POPC   GL160637   8.059  32.338   5.843
 4793POPC   GL260638   8.401  32.497   6.001
 4793POPC   C1A60639   8.045  32.357   6.320
 4793POPC   D2A60640   8.087  32.612   6.696
 4793POPC   C3A60641   7.882  32.371   7.002
 4793POPC   C4A60642   7.921  31.920   7.160
 4793POPC   C1B60643   8.525  32.555   6.431
 4793POPC   C2B60644   8.433  32.255   6.780
 4793POPC   C3B60645   8.345  32.229   7.240
 4793POPC   C4B60646   8.355  32.422   7.697
 4794POPC   NC360647  12.141  36.414   5.431
 4794POPC   PO460648  11.682  35.836   5.440
 4794POPC   GL160649  11.910  36.104   5.757
 4794POPC   GL260650  12.287  36.010   5.804
 4794POPC   C1A60651  12.081  36.309   6.147
 4794POPC   D2A60652  11.925  36.269   6.556
 4794POPC   C3A60653  12.144  36.310   6.963
 4794POPC   C4A60654  12.362  36.014   7.276
 4794POPC   C1B60655  12.209  35.817   6.263
 4794POPC   C2B60656  12.176  35.853   6.750
 4794POPC   C3B60657  11.903  35.841   7.144
 4794POPC   C4B60658  12.085  35.669   7.536
 4795POPC   NC360659  38.916  35.439   5.375
 4795POPC   PO460660  39.436  35.053   5.357
 4795POPC   GL160661  39.397  35.345   5.735
 4795POPC   GL260662  39.085  35.467   5.847
 4795POPC   C1A60663  39.458  35.344   6.219
 4795POPC   D2A60664  39.452  35.114   6.627
 4795POPC   C3A60665  39.252  35.200   7.015
 4795POPC   C4A60666  39.363  35.500   7.350
 4795POPC   C1B60667  39.022  35.634   6.221
 4795POPC   C2B60668  39.039  35.446   6.592
 4795POPC   C3B60669  38.992  35.627   6.998
 4795POPC   C4B60670  39.036  35.920   7.321
 4796POPC   NC360671  25.240  27.239   5.427
 4796POPC   PO460672  25.683  27.781   5.355
 4796POPC   GL160673  25.490  27.571   5.743
 4796POPC   GL260674  25.113  27.594   5.842
 4796POPC   C1A60675  25.541  27.402   6.181
 4796POPC   D2A60676  25.364  27.341   6.635
 4796POPC   C3A60677  25.570  27.609   6.961
 4796POPC   C4A60678  25.510  28.035   7.070
 4796POPC   C1B60679  24.882  27.586   6.271
 4796POPC   C2B60680  24.858  27.461   6.728
 4796POPC   C3B60681  25.103  27.496   7.129
 4796POPC   C4B60682  24.896  27.575   7.528
 4797POPC   NC360683  36.008   7.995   5.115
 4797POPC   PO460684  36.437   8.386   5.438
 4797POPC   GL160685  36.156   8.258   5.751
 4797POPC   GL260686  36.054   7.943   5.709
 4797POPC   C1A60687  36.239   8.176   6.209
 4797POPC   D2A60688  36.272   8.437   6.611
 4797POPC   C3A60689  36.152   8.242   7.001
 4797POPC   C4A60690  36.066   8.100   7.422
 4797POPC   C1B60691  35.766   8.047   6.091
 4797POPC   C2B60692  35.815   8.212   6.530
 4797POPC   C3B60693  35.669   8.077   6.951
 4797POPC   C4B60694  35.637   7.846   7.347
 4798POPC   NC360695  42.552  14.538   5.416
 4798POPC   PO460696  41.978  14.192   5.300
 4798POPC   GL160697  42.212  14.221   5.688
 4798POPC   GL260698  41.890  14.203   5.821
 4798POPC   C1A60699  42.347  14.471   6.099
 4798POPC   D2A60700  42.485  14.611   6.534
 4798POPC   C3A60701  42.569  14.427   6.926
 4798POPC   C4A60702  42.494  14.199   7.294
 4798POPC   C1B60703  41.983  14.143   6.256
 4798POPC   C2B60704  42.032  14.410   6.639
 4798POPC   C3B60705  42.068  14.446   7.108
 4798POPC   C4B60706  41.988  14.033   7.308
 4799POPC   NC360707  39.808  44.590   5.117
 4799POPC   PO460708  39.227  44.571   5.435
 4799POPC   GL160709  39.370  44.761   5.833
 4799POPC   GL260710  39.053  44.944   5.792
 4799POPC   C1A60711  39.450  44.668   6.304
 4799POPC   D2A60712  39.154  44.548   6.647
 4799POPC   C3A60713  39.244  44.585   7.095
 4799POPC   C4A60714  39.048  44.618   7.509
 4799POPC   C1B60715  38.853   0.151   6.109
 4799POPC   C2B60716  39.064   0.026   6.455
 4799POPC   C3B60717  39.184   0.042   6.858
 4799POPC   C4B60718  39.031   0.047   7.250
 4800POPC   NC360719   3.197  14.469   5.146
 4800POPC   PO460720   3.804  14.248   5.424
 4800POPC   GL160721   3.737  14.193   5.857
 4800POPC   GL260722   3.486  14.469   5.909
 4800POPC   C1A60723   3.791  14.271   6.285
 4800POPC   D2A60724   3.679  14.451   6.660
 4800POPC   C3A60725   3.895  14.364   7.040
 4800POPC   C4A60726   3.905  14.612   7.398
 4800POPC   C1B60727   3.269  14.513   6.334
 4800POPC   C2B60728   3.256  14.687   6.765
 4800POPC   C3B60729   3.325  14.593   7.211
 4800POPC   C4B60730   3.064  14.383   7.554
 4801POPC   NC360731   5.128  15.587   5.409
 4801POPC   PO460732   5.018  14.929   5.237
 4801POPC   GL160733   5.061  15.171   5.696
 4801POPC   GL260734   4.793  15.435   5.759
 4801POPC   C1A60735   5.203  15.330   6.148
 4801POPC   D2A60736   5.442  15.258   6.552
 4801POPC   C3A60737   5.239  15.133   6.915
 4801POPC   C4A60738   5.176  15.219   7.325
 4801POPC   C1B60739   4.820  15.664   6.154
 4801POPC   C2B60740   4.886  15.465   6.588
 4801POPC   C3B60741   4.893  15.536   7.034
 4801POPC   C4B60742   4.881  15.558   7.538
 4802POPC   NC360743   8.839  42.157   5.251
 4802POPC   PO460744   9.234  42.558   5.566
 4802POPC   GL160745   9.015  42.341   5.888
 4802POPC   GL260746   9.190  42.040   5.982
 4802POPC   C1A60747   9.104  42.415   6.326
 4802POPC   D2A60748   9.288  42.291   6.710
 4802POPC   C3A60749   9.089  42.554   7.000
 4802POPC   C4A60750   8.861  42.533   7.356
 4802POPC   C1B60751   8.863  41.962   6.311
 4802POPC   C2B60752   8.802  41.930   6.754
 4802POPC   C3B60753   8.995  42.081   7.108
 4802POPC   C4B60754   8.901  42.055   7.528
 4803POPC   NC360755  13.342  40.255   5.388
 4803POPC   PO460756  13.934  40.041   5.391
 4803POPC   GL160757  13.650  39.989   5.788
 4803POPC   GL260758  13.394  39.750   5.897
 4803POPC   C1A60759  13.542  40.147   6.181
 4803POPC   D2A60760  13.431  39.972   6.578
 4803POPC   C3A60761  13.511  40.213   6.900
 4803POPC   C4A60762  13.571  40.234   7.303
 4803POPC   C1B60763  13.687  39.649   6.237
 4803POPC   C2B60764  13.861  39.715   6.654
 4803POPC   C3B60765  13.738  39.764   7.080
 4803POPC   C4B60766  13.747  39.781   7.530
 4804POPC   NC360767  25.223   8.439   5.055
 4804POPC   PO460768  24.772   8.590   5.575
 4804POPC   GL160769  24.982   8.251   5.774
 4804POPC   GL260770  25.337   8.264   5.727
 4804POPC   C1A60771  25.060   8.042   6.175
 4804POPC   D2A60772  25.118   8.236   6.597
 4804POPC   C3A60773  25.003   7.918   6.900
 4804POPC   C4A60774  24.957   7.804   7.304
 4804POPC   C1B60775  25.525   8.225   6.158
 4804POPC   C2B60776  25.597   8.040   6.560
 4804POPC   C3B60777  25.685   8.110   7.008
 4804POPC   C4B60778  25.449   7.958   7.369
 4805POPC   NC360779  21.417   9.420   5.155
 4805POPC   PO460780  21.795   9.871   5.427
 4805POPC   GL160781  21.576   9.847   5.848
 4805POPC   GL260782  21.219   9.874   5.822
 4805POPC   C1A60783  21.529   9.591   6.273
 4805POPC   D2A60784  21.591   9.284   6.593
 4805POPC   C3A60785  21.652   9.485   6.987
 4805POPC   C4A60786  21.367   9.778   7.185
 4805POPC   C1B60787  21.163   9.933   6.260
 4805POPC   C2B60788  21.206   9.726   6.676
 4805POPC   C3B60789  20.907   9.616   6.991
 4805POPC   C4B60790  20.817   9.822   7.358
 4806POPC   NC360791   6.544  29.498   5.585
 4806POPC   PO460792   6.780  28.921   5.746
 4806POPC   GL160793   6.455  29.138   5.954
 4806POPC   GL260794   6.237  29.445   5.995
 4806POPC   C1A60795   6.623  29.337   6.297
 4806POPC   D2A60796   6.872  29.228   6.590
 4806POPC   C3A60797   6.680  29.401   6.895
 4806POPC   C4A60798   6.834  29.118   7.147
 4806POPC   C1B60799   6.125  29.173   6.343
 4806POPC   C2B60800   6.241  28.784   6.541
 4806POPC   C3B60801   6.430  28.873   6.932
 4806POPC   C4B60802   6.281  29.242   7.153
 4807POPC   NC360803  32.501  26.287   5.644
 4807POPC   PO460804  31.782  26.316   5.537
 4807POPC   GL160805  32.021  26.128   5.909
 4807POPC   GL260806  32.216  25.826   5.907
 4807POPC   C1A60807  32.280  26.189   6.297
 4807POPC   D2A60808  32.592  26.225   6.610
 4807POPC   C3A60809  32.399  26.204   7.001
 4807POPC   C4A60810  32.344  26.492   7.358
 4807POPC   C1B60811  32.002  25.755   6.315
 4807POPC   C2B60812  32.045  25.928   6.748
 4807POPC   C3B60813  32.016  25.921   7.203
 4807POPC   C4B60814  32.176  25.614   7.512
 4808POPC   NC360815  30.871  33.269   5.433
 4808POPC   PO460816  30.172  33.144   5.275
 4808POPC   GL160817  30.517  33.050   5.676
 4808POPC   GL260818  30.681  32.769   5.854
 4808POPC   C1A60819  30.779  33.217   6.095
 4808POPC   D2A60820  30.674  33.379   6.538
 4808POPC   C3A60821  30.488  33.098   6.885
 4808POPC   C4A60822  30.554  32.936   7.326
 4808POPC   C1B60823  30.967  32.720   6.204
 4808POPC   C2B60824  30.786  32.763   6.606
 4808POPC   C3B60825  30.943  32.890   6.986
 4808POPC   C4B60826  31.299  32.687   7.192
 4809POPC   NC360827  44.468  19.303   5.429
 4809POPC   PO460828  44.870  18.848   5.624
 4809POPC   GL160829  44.666  19.124   5.880
 4809POPC   GL260830  44.425  19.369   5.931
 4809POPC   C1A60831  44.622  19.031   6.279
 4809POPC   D2A60832  44.782  19.039   6.680
 4809POPC   C3A60833  44.619  18.876   7.063
 4809POPC   C4A60834  44.246  18.793   7.318
 4809POPC   C1B60835  44.314  19.424   6.333
 4809POPC   C2B60836  44.259  19.135   6.619
 4809POPC   C3B60837  44.305  19.371   6.914
 4809POPC   C4B60838  44.576  19.370   7.189
 4810POPC   NC360839  30.978  35.614   5.574
 4810POPC   PO460840  31.159  34.998   5.560
 4810POPC   GL160841  30.939  35.144   5.925
 4810POPC   GL260842  30.742  35.429   6.012
 4810POPC   C1A60843  30.997  35.200   6.385
 4810POPC   D2A60844  30.655  35.343   6.645
 4810POPC   C3A60845  30.785  35.237   7.038
 4810POPC   C4A60846  30.721  35.158   7.447
 4810POPC   C1B60847  30.363  35.476   6.251
 4810POPC   C2B60848  30.128  35.566   6.613
 4810POPC   C3B60849  30.252  35.686   7.035
 4810POPC   C4B60850  30.592  35.634   7.311
 4811POPC   NC360851  10.033  14.986   5.578
 4811POPC   PO460852   9.685  15.388   5.279
 4811POPC   GL160853   9.601  15.273   5.699
 4811POPC   GL260854   9.462  14.929   5.772
 4811POPC   C1A60855   9.573  15.299   6.149
 4811POPC   D2A60856   9.698  15.156   6.580
 4811POPC   C3A60857   9.886  15.439   6.895
 4811POPC   C4A60858  10.059  15.363   7.287
 4811POPC   C1B60859   9.484  14.773   6.244
 4811POPC   C2B60860   9.475  14.714   6.727
 4811POPC   C3B60861   9.640  14.943   7.086
 4811POPC   C4B60862   9.654  15.135   7.501
 4812POPC   NC360863  11.626   7.143   5.438
 4812POPC   PO460864  11.146   6.685   5.121
 4812POPC   GL160865  11.169   6.575   5.616
 4812POPC   GL260866  11.494   6.734   5.729
 4812POPC   C1A60867  11.183   6.638   6.090
 4812POPC   D2A60868  11.367   6.753   6.487
 4812POPC   C3A60869  11.075   6.786   6.819
 4812POPC   C4A60870  11.256   6.726   7.206
 4812POPC   C1B60871  11.569   7.028   6.098
 4812POPC   C2B60872  11.580   7.229   6.514
 4812POPC   C3B60873  11.505   7.089   6.940
 4812POPC   C4B60874  11.662   7.016   7.365
 4813POPC   NC360875  14.830  32.104   5.125
 4813POPC   PO460876  14.223  32.236   5.399
 4813POPC   GL160877  14.422  32.119   5.777
 4813POPC   GL260878  14.738  32.277   5.794
 4813POPC   C1A60879  14.439  32.165   6.223
 4813POPC   D2A60880  14.672  32.176   6.594
 4813POPC   C3A60881  14.532  32.078   6.945
 4813POPC   C4A60882  14.317  32.292   7.283
 4813POPC   C1B60883  14.746  32.556   6.157
 4813POPC   C2B60884  14.937  32.594   6.553
 4813POPC   C3B60885  14.793  32.531   6.970
 4813POPC   C4B60886  14.651  32.674   7.360
 4814POPC   NC360887   1.981   3.115   4.978
 4814POPC   PO460888   1.839   2.508   5.375
 4814POPC   GL160889   2.027   2.760   5.740
 4814POPC   GL260890   1.766   2.604   5.916
 4814POPC   C1A60891   2.053   2.930   6.194
 4814POPC   D2A60892   1.850   2.727   6.562
 4814POPC   C3A60893   2.045   2.772   6.994
 4814POPC   C4A60894   2.266   2.699   7.391
 4814POPC   C1B60895   2.123   2.441   6.189
 4814POPC   C2B60896   2.146   2.286   6.628
 4814POPC   C3B60897   2.222   2.242   7.094
 4814POPC   C4B60898   2.044   2.260   7.528
 4815POPC   NC360899  11.446  10.246   5.282
 4815POPC   PO460900  10.995  10.702   5.143
 4815POPC   GL160901  11.432  10.676   5.541
 4815POPC   GL260902  11.431  10.893   5.856
 4815POPC   C1A60903  11.477  10.432   6.021
 4815POPC   D2A60904  11.249  10.556   6.443
 4815POPC   C3A60905  11.155  10.384   6.895
 4815POPC   C4A60906  11.254  10.289   7.351
 4815POPC   C1B60907  11.653  10.854   6.290
 4815POPC   C2B60908  11.705  10.562   6.675
 4815POPC   C3B60909  11.574  10.608   7.115
 4815POPC   C4B60910  11.241  10.783   7.394
 4816POPC   NC360911  22.048  36.920   5.101
 4816POPC   PO460912  22.441  37.285   5.594
 4816POPC   GL160913  22.232  36.946   5.758
 4816POPC   GL260914  22.510  36.714   5.762
 4816POPC   C1A60915  21.977  36.900   6.139
 4816POPC   D2A60916  21.824  36.701   6.528
 4816POPC   C3A60917  21.879  36.939   6.927
 4816POPC   C4A60918  21.877  36.716   7.328
 4816POPC   C1B60919  22.526  36.950   6.178
 4816POPC   C2B60920  22.290  36.933   6.571
 4816POPC   C3B60921  22.463  36.990   6.983
 4816POPC   C4B60922  22.634  37.110   7.398
 4817POPC   NC360923   4.510  38.318   4.984
 4817POPC   PO460924   4.105  38.639   5.286
 4817POPC   GL160925   4.203  38.659   5.752
 4817POPC   GL260926   4.563  38.676   5.826
 4817POPC   C1A60927   4.286  38.401   6.150
 4817POPC   D2A60928   4.176  38.330   6.580
 4817POPC   C3A60929   4.427  38.192   6.907
 4817POPC   C4A60930   4.280  38.241   7.280
 4817POPC   C1B60931   4.631  38.762   6.287
 4817POPC   C2B60932   4.583  38.643   6.752
 4817POPC   C3B60933   4.680  38.576   7.233
 4817POPC   C4B60934   4.993  38.645   7.637
 4818POPC   NC360935  19.859   9.594   4.854
 4818POPC   PO460936  19.455   9.414   5.407
 4818POPC   GL160937  19.755   9.573   5.740
 4818POPC   GL260938  19.986   9.834   5.641
 4818POPC   C1A60939  19.901   9.711   6.162
 4818POPC   D2A60940  19.749   9.855   6.559
 4818POPC   C3A60941  19.851   9.574   6.944
 4818POPC   C4A60942  19.991   9.609   7.431
 4818POPC   C1B60943  20.249  10.033   5.979
 4818POPC   C2B60944  20.231  10.029   6.448
 4818POPC   C3B60945  20.077  10.027   6.886
 4818POPC   C4B60946  20.204  10.114   7.287
 4819POPC   NC360947  43.847   6.834   5.475
 4819POPC   PO460948  43.692   6.152   5.551
 4819POPC   GL160949  43.726   6.494   5.866
 4819POPC   GL260950  43.716   6.875   5.959
 4819POPC   C1A60951  43.702   6.518   6.331
 4819POPC   D2A60952  43.712   6.816   6.671
 4819POPC   C3A60953  43.741   6.662   7.071
 4819POPC   C4A60954  44.125   6.558   7.229
 4819POPC   C1B60955  44.169   6.961   6.114
 4819POPC   C2B60956  44.433   7.008   6.498
 4819POPC   C3B60957  44.270   6.932   6.905
 4819POPC   C4B60958  43.960   7.123   7.170
 4820POPC   NC360959  18.220  14.668   5.369
 4820POPC   PO460960  18.666  14.351   4.969
 4820POPC   GL160961  18.617  14.421   5.507
 4820POPC   GL260962  18.381  14.288   5.680
 4820POPC   C1A60963  18.635  14.559   6.015
 4820POPC   D2A60964  18.356  14.681   6.447
 4820POPC   C3A60965  18.512  14.541   6.910
 4820POPC   C4A60966  18.502  14.552   7.377
 4820POPC   C1B60967  18.240  14.227   6.127
 4820POPC   C2B60968  17.961  14.356   6.477
 4820POPC   C3B60969  17.987  14.560   6.864
 4820POPC   C4B60970  18.141  14.291   7.176
 4821POPC   NC360971   8.951  10.052   5.354
 4821POPC   PO460972   9.396   9.576   5.335
 4821POPC   GL160973   9.136   9.627   5.722
 4821POPC   GL260974   8.794   9.719   5.755
 4821POPC   C1A60975   9.131   9.550   6.190
 4821POPC   D2A60976   8.878   9.723   6.501
 4821POPC   C3A60977   8.855   9.562   6.937
 4821POPC   C4A60978   9.163   9.450   7.265
 4821POPC   C1B60979   8.765  10.081   6.049
 4821POPC   C2B60980   8.829  10.227   6.474
 4821POPC   C3B60981   9.029  10.091   6.870
 4821POPC   C4B60982   8.970   9.917   7.282
 4822POPC   NC360983  26.210  26.998   5.439
 4822POPC   PO460984  25.954  26.358   5.514
 4822POPC   GL160985  25.950  26.714   5.780
 4822POPC   GL260986  26.266  26.639   5.925
 4822POPC   C1A60987  25.899  26.946   6.177
 4822POPC   D2A60988  26.078  26.842   6.588
 4822POPC   C3A60989  26.009  27.026   7.009
 4822POPC   C4A60990  25.831  26.872   7.445
 4822POPC   C1B60991  25.910  26.434   6.219
 4822POPC   C2B60992  25.816  26.414   6.678
 4822POPC   C3B60993  26.070  26.529   7.026
 4822POPC   C4B60994  26.225  26.518   7.466
 4823POPC   NC360995  24.072  34.683   5.557
 4823POPC   PO460996  24.700  34.326   5.517
 4823POPC   GL160997  24.555  34.626   5.816
 4823POPC   GL260998  24.650  34.972   5.691
 4823POPC   C1A60999  24.519  34.515   6.263
 4823POPC   D2A61000  24.783  34.345   6.626
 4823POPC   C3A61001  24.612  34.406   7.044
 4823POPC   C4A61002  24.278  34.582   7.260
 4823POPC   C1B61003  24.782  34.956   6.150
 4823POPC   C2B61004  24.658  34.876   6.588
 4823POPC   C3B61005  24.523  34.964   7.007
 4823POPC   C4B61006  24.730  34.813   7.363
 4824POPC   NC361007  28.632   5.167   5.412
 4824POPC   PO461008  28.086   5.504   5.297
 4824POPC   GL161009  28.281   5.326   5.754
 4824POPC   GL261010  28.564   5.040   5.881
 4824POPC   C1A61011  28.213   5.201   6.204
 4824POPC   D2A61012  28.421   5.365   6.556
 4824POPC   C3A61013  28.389   5.368   6.962
 4824POPC   C4A61014  28.183   5.155   7.272
 4824POPC   C1B61015  28.491   4.777   6.237
 4824POPC   C2B61016  28.322   4.845   6.628
 4824POPC   C3B61017  28.526   4.880   6.998
 4824POPC   C4B61018  28.778   4.752   7.319
 4825POPC   NC361019  13.866  41.223   5.585
 4825POPC   PO461020  13.598  41.529   5.152
 4825POPC   GL161021  13.468  41.545   5.653
 4825POPC   GL261022  13.754  41.704   5.878
 4825POPC   C1A61023  13.444  41.357   6.115
 4825POPC   D2A61024  13.454  41.072   6.514
 4825POPC   C3A61025  13.739  41.217   6.864
 4825POPC   C4A61026  13.898  41.282   7.287
 4825POPC   C1B61027  13.569  41.948   6.260
 4825POPC   C2B61028  13.629  41.991   6.719
 4825POPC   C3B61029  13.772  41.717   7.041
 4825POPC   C4B61030  13.412  41.517   7.262
 4826POPC   NC361031  11.146  21.865   5.340
 4826POPC   PO461032  11.628  21.486   5.547
 4826POPC   GL161033  11.329  21.650   5.846
 4826POPC   GL261034  11.138  21.372   5.945
 4826POPC   C1A61035  11.396  21.596   6.306
 4826POPC   D2A61036  11.299  21.496   6.727
 4826POPC   C3A61037  11.041  21.728   7.004
 4826POPC   C4A61038  11.431  21.756   7.191
 4826POPC   C1B61039  11.001  21.265   6.370
 4826POPC   C2B61040  11.164  21.014   6.699
 4826POPC   C3B61041  11.366  21.137   7.125
 4826POPC   C4B61042  11.220  20.991   7.544
 4827POPC   NC361043   8.724  21.379   5.355
 4827POPC   PO461044   9.280  21.428   5.120
 4827POPC   GL161045   9.183  21.544   5.625
 4827POPC   GL261046   9.014  21.286   5.808
 4827POPC   C1A61047   9.055  21.648   6.141
 4827POPC   D2A61048   8.793  21.524   6.541
 4827POPC   C3A61049   8.923  21.500   6.986
 4827POPC   C4A61050   9.076  21.826   7.256
 4827POPC   C1B61051   8.822  21.146   6.190
 4827POPC   C2B61052   8.520  21.087   6.531
 4827POPC   C3B61053   8.468  21.276   6.936
 4827POPC   C4B61054   8.693  21.110   7.299
 4828POPC   NC361055  42.093  44.717   5.442
 4828POPC   PO461056  42.647  44.261   5.361
 4828POPC   GL161057  42.512  44.320   5.816
 4828POPC   GL261058  42.331  44.660   5.891
 4828POPC   C1A61059  42.658  44.459   6.232
 4828POPC   D2A61060  42.513  44.325   6.614
 4828POPC   C3A61061  42.307  44.609   6.867
 4828POPC   C4A61062  42.454  44.605   7.247
 4828POPC   C1B61063  42.493   0.053   6.129
 4828POPC   C2B61064  42.467   0.303   6.524
 4828POPC   C3B61065  42.481   0.083   6.898
 4828POPC   C4B61066  42.225   0.048   7.247
 4829POPC   NC361067  25.748   9.141   5.447
 4829POPC   PO461068  26.316   8.689   5.390
 4829POPC   GL161069  26.090   8.846   5.766
 4829POPC   GL261070  25.858   9.099   5.941
 4829POPC   C1A61071  26.284   8.904   6.161
 4829POPC   D2A61072  26.456   8.992   6.534
 4829POPC   C3A61073  26.167   9.018   6.847
 4829POPC   C4A61074  26.305   8.997   7.273
 4829POPC   C1B61075  25.860   9.054   6.404
 4829POPC   C2B61076  25.699   8.786   6.728
 4829POPC   C3B61077  25.724   8.996   7.119
 4829POPC   C4B61078  25.980   9.374   7.170
 4830POPC   NC361079   8.991  37.682   5.431
 4830POPC   PO461080   8.489  38.182   5.501
 4830POPC   GL161081   8.657  37.856   5.806
 4830POPC   GL261082   8.819  37.528   5.880
 4830POPC   C1A61083   8.934  37.904   6.186
 4830POPC   D2A61084   8.895  38.018   6.607
 4830POPC   C3A61085   8.973  37.746   6.957
 4830POPC   C4A61086   8.608  37.761   7.178
 4830POPC   C1B61087   9.010  37.386   6.221
 4830POPC   C2B61088   8.940  37.355   6.628
 4830POPC   C3B61089   9.180  37.264   6.970
 4830POPC   C4B61090   9.325  37.511   7.288
 4831POPC   NC361091  32.147  34.154   5.452
 4831POPC   PO461092  32.064  34.863   5.520
 4831POPC   GL161093  32.108  34.539   5.824
 4831POPC   GL261094  32.458  34.370   5.797
 4831POPC   C1A61095  32.133  34.513   6.279
 4831POPC   D2A61096  32.195  34.202   6.589
 4831POPC   C3A61097  32.083  34.250   7.005
 4831POPC   C4A61098  32.246  34.447   7.387
 4831POPC   C1B61099  32.530  34.761   6.049
 4831POPC   C2B61100  32.431  34.884   6.493
 4831POPC   C3B61101  32.339  34.676   6.873
 4831POPC   C4B61102  32.516  34.876   7.230
 4832POPC   NC361103  24.139  22.385   5.307
 4832POPC   PO461104  23.506  22.197   5.389
 4832POPC   GL161105  23.524  21.961   5.787
 4832POPC   GL261106  23.891  21.996   5.788
 4832POPC   C1A61107  23.549  22.004   6.258
 4832POPC   D2A61108  23.559  22.317   6.590
 4832POPC   C3A61109  23.426  22.201   7.024
 4832POPC   C4A61110  23.415  21.993   7.437
 4832POPC   C1B61111  24.014  22.256   6.086
 4832POPC   C2B61112  24.112  22.189   6.498
 4832POPC   C3B61113  23.939  22.108   6.857
 4832POPC   C4B61114  23.888  22.158   7.258
 4833POPC   NC361115  14.810   2.892   5.395
 4833POPC   PO461116  15.381   2.818   5.167
 4833POPC   GL161117  15.285   2.672   5.667
 4833POPC   GL261118  15.195   2.336   5.879
 4833POPC   C1A61119  15.260   2.714   6.183
 4833POPC   D2A61120  14.990   2.539   6.543
 4833POPC   C3A61121  14.886   2.729   6.976
 4833POPC   C4A61122  14.757   2.893   7.394
 4833POPC   C1B61123  15.375   2.167   6.276
 4833POPC   C2B61124  15.423   2.320   6.702
 4833POPC   C3B61125  15.398   2.757   6.839
 4833POPC   C4B61126  15.268   2.966   7.241
 4834POPC   NC361127  21.984   5.269   5.323
 4834POPC   PO461128  22.005   4.555   5.332
 4834POPC   GL161129  22.175   4.922   5.690
 4834POPC   GL261130  21.950   5.213   5.812
 4834POPC   C1A61131  22.347   5.144   6.124
 4834POPC   D2A61132  22.495   5.282   6.557
 4834POPC   C3A61133  22.341   5.009   6.919
 4834POPC   C4A61134  22.073   4.933   7.326
 4834POPC   C1B61135  21.844   4.979   6.156
 4834POPC   C2B61136  21.990   5.147   6.535
 4834POPC   C3B61137  21.842   5.128   6.920
 4834POPC   C4B61138  21.889   5.380   7.264
 4835POPC   NC361139   3.275   2.273   5.524
 4835POPC   PO461140   3.700   1.776   5.427
 4835POPC   GL161141   3.627   2.000   5.836
 4835POPC   GL261142   3.969   2.080   5.870
 4835POPC   C1A61143   3.376   2.029   6.266
 4835POPC   D2A61144   3.129   2.216   6.619
 4835POPC   C3A61145   3.264   2.156   7.064
 4835POPC   C4A61146   3.375   1.771   7.291
 4835POPC   C1B61147   3.894   2.035   6.317
 4835POPC   C2B61148   3.693   2.129   6.702
 4835POPC   C3B61149   3.769   2.067   7.158
 4835POPC   C4B61150   3.801   2.119   7.601
 4836POPC   NC361151  13.142  12.582   5.434
 4836POPC   PO461152  12.509  12.599   5.436
 4836POPC   GL161153  12.807  12.890   5.700
 4836POPC   GL261154  13.126  12.740   5.913
 4836POPC   C1A61155  12.752  13.030   6.132
 4836POPC   D2A61156  12.597  12.877   6.532
 4836POPC   C3A61157  12.694  13.048   6.904
 4836POPC   C4A61158  12.828  12.814   7.233
 4836POPC   C1B61159  13.281  13.062   6.199
 4836POPC   C2B61160  13.081  13.175   6.588
 4836POPC   C3B61161  13.213  13.077   7.008
 4836POPC   C4B61162  13.186  13.033   7.490
 4837POPC   NC361163  11.914  39.603   5.261
 4837POPC   PO461164  11.563  40.087   5.205
 4837POPC   GL161165  11.928  39.992   5.593
 4837POPC   GL261166  12.262  39.798   5.641
 4837POPC   C1A61167  12.080  40.011   6.069
 4837POPC   D2A61168  12.038  40.142   6.510
 4837POPC   C3A61169  12.054  39.921   6.887
 4837POPC   C4A61170  11.818  39.903   7.234
 4837POPC   C1B61171  12.353  39.544   6.044
 4837POPC   C2B61172  12.197  39.551   6.487
 4837POPC   C3B61173  12.392  39.529   6.900
 4837POPC   C4B61174  12.270  39.648   7.293
 4838POPC   NC361175  32.952  42.686   5.254
 4838POPC   PO461176  33.002  43.325   5.403
 4838POPC   GL161177  33.045  42.936   5.739
 4838POPC   GL261178  33.406  42.924   5.897
 4838POPC   C1A61179  33.034  42.767   6.192
 4838POPC   D2A61180  32.919  42.907   6.585
 4838POPC   C3A61181  33.230  42.916   6.906
 4838POPC   C4A61182  33.039  42.877   7.291
 4838POPC   C1B61183  33.227  43.235   6.195
 4838POPC   C2B61184  33.206  43.374   6.639
 4838POPC   C3B61185  33.305  43.464   7.087
 4838POPC   C4B61186  33.290  43.518   7.558
 4839POPC   NC361187   8.411   3.449   5.014
 4839POPC   PO461188   8.038   3.970   5.194
 4839POPC   GL161189   8.019   3.687   5.603
 4839POPC   GL261190   8.083   3.869   5.930
 4839POPC   C1A61191   8.120   3.361   5.980
 4839POPC   D2A61192   8.221   3.448   6.416
 4839POPC   C3A61193   8.268   3.242   6.805
 4839POPC   C4A61194   8.210   3.436   7.260
 4839POPC   C1B61195   8.437   3.886   6.219
 4839POPC   C2B61196   8.468   4.034   6.628
 4839POPC   C3B61197   8.396   3.839   7.004
 4839POPC   C4B61198   8.023   3.939   7.279
 4840POPC   NC361199   4.953  38.853   5.555
 4840POPC   PO461200   5.445  39.153   5.218
 4840POPC   GL161201   5.221  39.245   5.719
 4840POPC   GL261202   5.062  39.607   5.843
 4840POPC   C1A61203   4.978  39.177   6.137
 4840POPC   D2A61204   5.182  39.214   6.550
 4840POPC   C3A61205   5.025  38.923   6.850
 4840POPC   C4A61206   4.937  38.996   7.261
 4840POPC   C1B61207   4.757  39.635   6.232
 4840POPC   C2B61208   4.787  39.511   6.699
 4840POPC   C3B61209   4.805  39.484   7.168
 4840POPC   C4B61210   4.556  39.527   7.578
 4841POPC   NC361211  31.532  20.635   5.431
 4841POPC   PO461212  31.687  20.007   5.413
 4841POPC   GL161213  31.649  20.309   5.807
 4841POPC   GL261214  31.331  20.526   5.883
 4841POPC   C1A61215  31.642  20.470   6.263
 4841POPC   D2A61216  31.504  20.385   6.665
 4841POPC   C3A61217  31.568  20.651   7.018
 4841POPC   C4A61218  31.759  20.687   7.406
 4841POPC   C1B61219  31.323  20.887   6.191
 4841POPC   C2B61220  31.153  20.859   6.621
 4841POPC   C3B61221  31.184  20.991   7.056
 4841POPC   C4B61222  31.190  20.792   7.458
 4842POPC   NC361223  28.173  30.017   5.333
 4842POPC   PO461224  28.611  29.509   5.472
 4842POPC   GL161225  28.341  29.744   5.806
 4842POPC   GL261226  28.218  30.076   5.823
 4842POPC   C1A61227  28.215  29.833   6.261
 4842POPC   D2A61228  28.233  30.161   6.579
 4842POPC   C3A61229  28.323  29.977   7.005
 4842POPC   C4A61230  28.455  29.757   7.396
 4842POPC   C1B61231  27.823  30.110   6.060
 4842POPC   C2B61232  27.744  30.307   6.466
 4842POPC   C3B61233  27.831  30.162   6.891
 4842POPC   C4B61234  28.062  30.377   7.214
 4843POPC   NC361235   6.772  32.128   5.349
 4843POPC   PO461236   6.336  32.617   5.336
 4843POPC   GL161237   6.511  32.448   5.719
 4843POPC   GL261238   6.427  32.103   5.819
 4843POPC   C1A61239   6.518  32.494   6.164
 4843POPC   D2A61240   6.295  32.361   6.529
 4843POPC   C3A61241   6.449  32.453   6.912
 4843POPC   C4A61242   6.536  32.186   7.243
 4843POPC   C1B61243   6.609  32.013   6.292
 4843POPC   C2B61244   6.836  32.179   6.694
 4843POPC   C3B61245   7.038  31.934   7.060
 4843POPC   C4B61246   7.173  31.877   7.542
 4844POPC   NC361247  43.604  22.035   5.486
 4844POPC   PO461248  44.058  22.582   5.418
 4844POPC   GL161249  44.004  22.246   5.751
 4844POPC   GL261250  43.741  22.074   5.965
 4844POPC   C1A61251  44.152  22.230   6.185
 4844POPC   D2A61252  43.953  22.023   6.543
 4844POPC   C3A61253  43.842  22.280   6.888
 4844POPC   C4A61254  44.005  22.519   7.243
 4844POPC   C1B61255  43.535  21.807   6.258
 4844POPC   C2B61256  43.542  21.650   6.646
 4844POPC   C3B61257  43.831  21.730   6.971
 4844POPC   C4B61258  43.759  22.013   7.317
 4845POPC   NC361259  30.909   3.135   5.497
 4845POPC   PO461260  30.528   2.612   5.688
 4845POPC   GL161261  30.571   2.921   5.937
 4845POPC   GL261262  30.938   2.909   5.947
 4845POPC   C1A61263  30.377   2.882   6.352
 4845POPC   D2A61264  30.202   2.694   6.750
 4845POPC   C3A61265  30.406   2.903   7.066
 4845POPC   C4A61266  30.833   3.013   7.143
 4845POPC   C1B61267  30.850   2.678   6.311
 4845POPC   C2B61268  30.740   2.720   6.733
 4845POPC   C3B61269  30.977   2.534   7.102
 4845POPC   C4B61270  31.109   2.507   7.528
 4846POPC   NC361271  11.641  29.215   5.563
 4846POPC   PO461272  12.246  28.856   5.533
 4846POPC   GL161273  12.093  29.125   5.843
 4846POPC   GL261274  11.932  29.424   5.912
 4846POPC   C1A61275  12.079  29.062   6.260
 4846POPC   D2A61276  11.853  28.910   6.594
 4846POPC   C3A61277  12.166  29.002   6.883
 4846POPC   C4A61278  12.235  29.105   7.284
 4846POPC   C1B61279  11.633  29.439   6.235
 4846POPC   C2B61280  11.474  29.290   6.638
 4846POPC   C3B61281  11.628  29.316   7.051
 4846POPC   C4B61282  11.811  29.523   7.420
 4847POPC   NC361283  43.208  27.502   5.130
 4847POPC   PO461284  42.791  27.912   5.560
 4847POPC   GL161285  43.005  27.693   5.857
 4847POPC   GL261286  43.117  27.373   5.774
 4847POPC   C1A61287  43.055  27.584   6.277
 4847POPC   D2A61288  43.181  27.665   6.685
 4847POPC   C3A61289  43.060  27.567   7.093
 4847POPC   C4A61290  42.679  27.388   7.105
 4847POPC   C1B61291  43.331  27.166   6.144
 4847POPC   C2B61292  43.485  27.260   6.562
 4847POPC   C3B61293  43.367  27.159   7.021
 4847POPC   C4B61294  43.482  27.421   7.397
 4848POPC   NC361295  26.263  32.683   5.287
 4848POPC   PO461296  26.105  33.329   5.490
 4848POPC   GL161297  25.995  33.121   5.866
 4848POPC   GL261298  25.887  32.808   5.748
 4848POPC   C1A61299  25.985  33.076   6.322
 4848POPC   D2A61300  25.841  33.324   6.660
 4848POPC   C3A61301  26.057  33.257   7.034
 4848POPC   C4A61302  25.809  33.113   7.350
 4848POPC   C1B61303  26.025  32.594   6.115
 4848POPC   C2B61304  26.240  32.646   6.516
 4848POPC   C3B61305  26.076  32.767   6.911
 4848POPC   C4B61306  26.000  32.647   7.329
 4849POPC   NC361307  20.138  14.026   5.130
 4849POPC   PO461308  19.584  14.364   5.365
 4849POPC   GL161309  19.657  14.183   5.770
 4849POPC   GL261310  19.857  14.478   5.799
 4849POPC   C1A61311  19.817  14.162   6.221
 4849POPC   D2A61312  19.634  14.302   6.604
 4849POPC   C3A61313  19.762  14.161   7.003
 4849POPC   C4A61314  19.716  14.275   7.479
 4849POPC   C1B61315  19.715  14.685   6.164
 4849POPC   C2B61316  19.907  14.741   6.582
 4849POPC   C3B61317  19.954  14.636   7.016
 4849POPC   C4B61318  19.949  14.721   7.438
 4850POPC   NC361319  22.626   7.887   5.276
 4850POPC   PO461320  23.105   8.379   5.420
 4850POPC   GL161321  22.864   8.370   5.776
 4850POPC   GL261322  22.967   8.049   5.847
 4850POPC   C1A61323  22.671   8.317   6.202
 4850POPC   D2A61324  22.839   8.314   6.653
 4850POPC   C3A61325  22.652   8.582   7.016
 4850POPC   C4A61326  22.735   8.572   7.476
 4850POPC   C1B61327  23.173   8.240   6.210
 4850POPC   C2B61328  23.356   8.245   6.580
 4850POPC   C3B61329  23.264   8.110   6.937
 4850POPC   C4B61330  22.978   8.224   7.202
 4851POPC   NC361331   3.044   7.300   5.590
 4851POPC   PO461332   2.922   6.732   5.196
 4851POPC   GL161333   2.788   6.599   5.642
 4851POPC   GL261334   2.472   6.753   5.838
 4851POPC   C1A61335   2.881   6.566   6.097
 4851POPC   D2A61336   2.980   6.825   6.460
 4851POPC   C3A61337   2.792   6.592   6.768
 4851POPC   C4A61338   2.941   6.440   7.137
 4851POPC   C1B61339   2.358   6.436   6.186
 4851POPC   C2B61340   2.343   6.333   6.652
 4851POPC   C3B61341   2.443   6.434   7.125
 4851POPC   C4B61342   2.513   6.292   7.596
 4852POPC   NC361343  40.721  14.365   5.112
 4852POPC   PO461344  40.404  14.800   5.593
 4852POPC   GL161345  40.754  14.584   5.904
 4852POPC   GL261346  40.721  14.179   5.988
 4852POPC   C1A61347  40.738  14.567   6.316
 4852POPC   D2A61348  40.746  14.741   6.654
 4852POPC   C3A61349  40.529  14.627   7.010
 4852POPC   C4A61350  40.670  14.816   7.379
 4852POPC   C1B61351  40.696  14.061   6.411
 4852POPC   C2B61352  40.829  14.215   6.765
 4852POPC   C3B61353  40.789  14.143   7.167
 4852POPC   C4B61354  40.372  14.185   7.267
 4853POPC   NC361355   7.579  22.441   5.276
 4853POPC   PO461356   7.440  21.767   5.385
 4853POPC   GL161357   7.486  22.069   5.659
 4853POPC   GL261358   7.225  22.262   5.740
 4853POPC   C1A61359   7.569  22.130   6.091
 4853POPC   D2A61360   7.518  21.960   6.492
 4853POPC   C3A61361   7.638  22.195   6.855
 4853POPC   C4A61362   7.383  22.188   7.211
 4853POPC   C1B61363   7.222  22.506   6.101
 4853POPC   C2B61364   7.427  22.505   6.477
 4853POPC   C3B61365   7.311  22.611   6.860
 4853POPC   C4B61366   7.040  22.538   7.182
 4854POPC   NC361367  31.315  23.958   5.467
 4854POPC   PO461368  31.794  23.461   5.309
 4854POPC   GL161369  31.823  23.542   5.771
 4854POPC   GL261370  31.766  23.898   5.795
 4854POPC   C1A61371  31.602  23.659   6.213
 4854POPC   D2A61372  31.280  23.566   6.571
 4854POPC   C3A61373  31.504  23.455   6.970
 4854POPC   C4A61374  31.549  23.427   7.425
 4854POPC   C1B61375  31.544  24.191   6.075
 4854POPC   C2B61376  31.313  24.092   6.435
 4854POPC   C3B61377  31.446  23.983   6.832
 4854POPC   C4B61378  31.363  24.217   7.201
 4855POPC   NC361379  24.202  36.360   5.519
 4855POPC   PO461380  24.516  35.954   5.095
 4855POPC   GL161381  24.566  36.100   5.721
 4855POPC   GL261382  24.265  36.188   5.973
 4855POPC   C1A61383  24.720  36.231   6.171
 4855POPC   D2A61384  24.489  36.176   6.561
 4855POPC   C3A61385  24.615  36.115   6.946
 4855POPC   C4A61386  24.645  36.475   7.210
 4855POPC   C1B61387  24.346  35.850   6.217
 4855POPC   C2B61388  24.270  35.711   6.617
 4855POPC   C3B61389  24.133  35.908   6.980
 4855POPC   C4B61390  24.266  36.077   7.353
 4856POPC   NC361391  37.474  17.298   5.146
 4856POPC   PO461392  38.003  17.180   5.620
 4856POPC   GL161393  37.954  17.605   5.766
 4856POPC   GL261394  37.642  17.756   5.671
 4856POPC   C1A61395  38.002  17.759   6.182
 4856POPC   D2A61396  37.817  17.868   6.583
 4856POPC   C3A61397  37.844  17.478   6.788
 4856POPC   C4A61398  37.656  17.277   7.131
 4856POPC   C1B61399  37.480  17.735   6.118
 4856POPC   C2B61400  37.414  17.549   6.524
 4856POPC   C3B61401  37.387  17.696   6.947
 4856POPC   C4B61402  37.267  17.538   7.337
 4857POPC   NC361403  38.559   3.007   5.469
 4857POPC   PO461404  38.066   2.523   5.391
 4857POPC   GL161405  38.230   2.596   5.802
 4857POPC   GL261406  38.184   2.944   5.811
 4857POPC   C1A61407  38.313   2.689   6.257
 4857POPC   D2A61408  38.164   2.675   6.686
 4857POPC   C3A61409  38.496   2.767   7.013
 4857POPC   C4A61410  38.455   2.630   7.478
 4857POPC   C1B61411  38.446   3.178   6.124
 4857POPC   C2B61412  38.488   3.076   6.560
 4857POPC   C3B61413  38.478   3.265   6.964
 4857POPC   C4B61414  38.516   3.125   7.404
 4858POPC   NC361415  25.963  31.011   5.444
 4858POPC   PO461416  26.409  30.618   5.398
 4858POPC   GL161417  26.191  30.712   5.838
 4858POPC   GL261418  25.961  31.004   5.940
 4858POPC   C1A61419  26.172  30.761   6.321
 4858POPC   D2A61420  25.973  31.003   6.671
 4858POPC   C3A61421  26.068  30.811   7.063
 4858POPC   C4A61422  26.136  30.716   7.489
 4858POPC   C1B61423  25.674  30.726   6.125
 4858POPC   C2B61424  25.695  30.534   6.511
 4858POPC   C3B61425  25.761  30.412   6.927
 4858POPC   C4B61426  25.644  30.636   7.295
 4859POPC   NC361427  11.539  28.494   5.353
 4859POPC   PO461428  11.066  28.017   5.250
 4859POPC   GL161429  11.103  28.238   5.676
 4859POPC   GL261430  10.927  28.581   5.725
 4859POPC   C1A61431  11.183  28.283   6.143
 4859POPC   D2A61432  11.458  28.281   6.557
 4859POPC   C3A61433  11.424  28.247   7.024
 4859POPC   C4A61434  11.815  28.257   7.313
 4859POPC   C1B61435  10.897  28.719   6.170
 4859POPC   C2B61436  10.985  28.462   6.575
 4859POPC   C3B61437  10.956  28.571   7.035
 4859POPC   C4B61438  10.967  28.517   7.493
 4860POPC   NC361439  34.316  16.738   5.212
 4860POPC   PO461440  34.933  17.041   5.250
 4860POPC   GL161441  34.865  16.942   5.701
 4860POPC   GL261442  34.498  16.995   5.759
 4860POPC   C1A61443  34.847  16.754   6.146
 4860POPC   D2A61444  34.905  16.572   6.580
 4860POPC   C3A61445  34.760  16.736   7.001
 4860POPC   C4A61446  34.823  16.874   7.454
 4860POPC   C1B61447  34.330  16.797   6.154
 4860POPC   C2B61448  34.368  16.494   6.516
 4860POPC   C3B61449  34.259  16.545   6.950
 4860POPC   C4B61450  34.334  16.850   7.293
 4861POPC   NC361451  32.489   3.032   5.210
 4861POPC   PO461452  33.109   3.004   5.513
 4861POPC   GL161453  33.096   2.821   5.889
 4861POPC   GL261454  32.881   2.555   5.924
 4861POPC   C1A61455  32.947   2.947   6.298
 4861POPC   D2A61456  33.061   3.158   6.682
 4861POPC   C3A61457  32.961   2.968   7.108
 4861POPC   C4A61458  33.084   2.847   7.518
 4861POPC   C1B61459  33.178   2.494   6.295
 4861POPC   C2B61460  33.119   2.662   6.724
 4861POPC   C3B61461  33.187   2.491   7.171
 4861POPC   C4B61462  32.947   2.293   7.523
 4862POPC   NC361463  10.706  35.252   5.251
 4862POPC   PO461464  10.220  35.680   5.193
 4862POPC   GL161465  10.400  35.547   5.604
 4862POPC   GL261466  10.755  35.575   5.679
 4862POPC   C1A61467  10.505  35.266   5.989
 4862POPC   D2A61468  10.572  35.338   6.427
 4862POPC   C3A61469  10.244  35.258   6.737
 4862POPC   C4A61470  10.348  35.257   7.179
 4862POPC   C1B61471  10.951  35.516   6.092
 4862POPC   C2B61472  11.091  35.572   6.508
 4862POPC   C3B61473  10.899  35.581   6.912
 4862POPC   C4B61474  10.844  35.306   7.271
 4863POPC   NC361475  30.353  44.302   5.450
 4863POPC   PO461476  30.718  43.852   5.193
 4863POPC   GL161477  30.565  43.817   5.621
 4863POPC   GL261478  30.840  43.671   5.813
 4863POPC   C1A61479  30.489  43.963   6.059
 4863POPC   D2A61480  30.406  44.035   6.507
 4863POPC   C3A61481  30.677  43.943   6.899
 4863POPC   C4A61482  30.581  43.921   7.363
 4863POPC   C1B61483  31.053  43.647   6.239
 4863POPC   C2B61484  30.964  43.453   6.647
 4863POPC   C3B61485  31.084  43.432   7.067
 4863POPC   C4B61486  31.065  43.766   7.366
 4864POPC   NC361487   8.266   2.558   5.508
 4864POPC   PO461488   8.553   3.135   5.346
 4864POPC   GL161489   8.416   3.005   5.797
 4864POPC   GL261490   8.051   2.860   5.900
 4864POPC   C1A61491   8.358   2.969   6.270
 4864POPC   D2A61492   8.535   2.645   6.494
 4864POPC   C3A61493   8.413   2.703   6.892
 4864POPC   C4A61494   8.312   2.945   7.217
 4864POPC   C1B61495   7.924   2.645   6.322
 4864POPC   C2B61496   7.922   2.640   6.791
 4864POPC   C3B61497   7.910   2.628   7.268
 4864POPC   C4B61498   7.659   2.639   7.652
 4865POPC   NC361499  22.328   1.037   5.429
 4865POPC   PO461500  22.324   1.565   5.032
 4865POPC   GL161501  22.182   1.465   5.624
 4865POPC   GL261502  22.118   1.117   5.856
 4865POPC   C1A61503  21.880   1.483   6.076
 4865POPC   D2A61504  21.692   1.484   6.513
 4865POPC   C3A61505  21.835   1.301   6.898
 4865POPC   C4A61506  22.136   1.083   7.135
 4865POPC   C1B61507  22.300   0.927   6.202
 4865POPC   C2B61508  22.265   1.094   6.608
 4865POPC   C3B61509  22.547   0.944   6.886
 4865POPC   C4B61510  22.530   0.828   7.289
 4866POPC   NC361511  36.139   2.605   5.372
 4866POPC   PO461512  35.963   3.169   5.587
 4866POPC   GL161513  35.868   2.883   5.889
 4866POPC   GL261514  35.970   2.536   5.860
 4866POPC   C1A61515  35.825   2.948   6.309
 4866POPC   D2A61516  35.896   3.090   6.688
 4866POPC   C3A61517  35.778   2.830   7.000
 4866POPC   C4A61518  35.956   2.809   7.421
 4866POPC   C1B61519  36.257   2.680   6.203
 4866POPC   C2B61520  36.281   2.562   6.631
 4866POPC   C3B61521  36.284   2.677   7.034
 4866POPC   C4B61522  36.375   2.457   7.383
 4867POPC   NC361523  11.720  37.758   5.718
 4867POPC   PO461524  11.361  37.277   5.471
 4867POPC   GL161525  11.284  37.436   5.839
 4867POPC   GL261526  11.217  37.800   5.764
 4867POPC   C1A61527  11.473  37.428   6.238
 4867POPC   D2A61528  11.579  37.788   6.461
 4867POPC   C3A61529  11.450  37.799   6.880
 4867POPC   C4A61530  11.422  37.553   7.211
 4867POPC   C1B61531  11.087  37.753   6.198
 4867POPC   C2B61532  11.017  37.673   6.619
 4867POPC   C3B61533  10.911  37.987   6.916
 4867POPC   C4B61534  11.019  37.853   7.312
 4868POPC   NC361535  12.215  30.225   5.389
 4868POPC   PO461536  12.079  29.521   5.406
 4868POPC   GL161537  12.145  29.862   5.784
 4868POPC   GL261538  11.979  30.181   5.872
 4868POPC   C1A61539  12.018  29.801   6.266
 4868POPC   D2A61540  11.979  29.430   6.597
 4868POPC   C3A61541  12.107  29.523   6.984
 4868POPC   C4A61542  12.035  29.943   7.133
 4868POPC   C1B61543  12.340  30.265   6.173
 4868POPC   C2B61544  12.531  30.175   6.594
 4868POPC   C3B61545  12.431  30.332   7.032
 4868POPC   C4B61546  12.421  30.102   7.430
 4869POPC   NC361547   1.976  39.677   5.325
 4869POPC   PO461548   1.809  40.199   5.516
 4869POPC   GL161549   1.833  39.963   5.872
 4869POPC   GL261550   2.161  39.784   5.878
 4869POPC   C1A61551   2.050  40.169   6.224
 4869POPC   D2A61552   2.176  40.411   6.596
 4869POPC   C3A61553   1.821  40.403   6.864
 4869POPC   C4A61554   1.743  40.216   7.251
 4869POPC   C1B61555   1.938  39.661   6.265
 4869POPC   C2B61556   2.004  39.685   6.710
 4869POPC   C3B61557   2.109  39.967   7.002
 4869POPC   C4B61558   2.188  40.004   7.432
 4870POPC   NC361559  40.128  28.400   5.555
 4870POPC   PO461560  39.537  28.139   5.517
 4870POPC   GL161561  39.722  28.235   5.892
 4870POPC   GL261562  39.690  28.598   5.883
 4870POPC   C1A61563  39.870  28.332   6.307
 4870POPC   D2A61564  40.145  28.373   6.708
 4870POPC   C3A61565  40.023  28.188   7.123
 4870POPC   C4A61566  39.785  28.000   7.459
 4870POPC   C1B61567  39.736  28.816   6.301
 4870POPC   C2B61568  39.710  28.652   6.695
 4870POPC   C3B61569  39.833  28.657   7.097
 4870POPC   C4B61570  39.587  28.674   7.416
 4871POPC   NC361571  23.901   1.150   5.545
 4871POPC   PO461572  23.442   1.482   5.081
 4871POPC   GL161573  23.392   1.514   5.589
 4871POPC   GL261574  23.338   1.175   5.601
 4871POPC   C1A61575  23.613   1.459   6.048
 4871POPC   D2A61576  23.906   1.269   6.363
 4871POPC   C3A61577  23.874   1.370   6.801
 4871POPC   C4A61578  23.787   1.272   7.239
 4871POPC   C1B61579  23.164   1.261   6.019
 4871POPC   C2B61580  23.364   1.156   6.435
 4871POPC   C3B61581  23.464   1.057   6.874
 4871POPC   C4B61582  23.306   1.332   7.212
 4872POPC   NC361583   4.801  42.500   5.429
 4872POPC   PO461584   5.316  42.129   5.333
 4872POPC   GL161585   5.208  42.316   5.751
 4872POPC   GL261586   5.405  42.601   5.904
 4872POPC   C1A61587   5.078  42.062   6.122
 4872POPC   D2A61588   5.142  41.961   6.577
 4872POPC   C3A61589   4.998  42.302   6.867
 4872POPC   C4A61590   4.904  42.408   7.285
 4872POPC   C1B61591   5.337  42.446   6.337
 4872POPC   C2B61592   5.403  42.664   6.727
 4872POPC   C3B61593   5.464  42.419   7.096
 4872POPC   C4B61594   5.381  42.017   7.065
 4873POPC   NC361595  41.023  28.655   5.350
 4873POPC   PO461596  40.535  28.187   5.477
 4873POPC   GL161597  40.565  28.502   5.821
 4873POPC   GL261598  40.756  28.794   5.761
 4873POPC   C1A61599  40.617  28.611   6.266
 4873POPC   D2A61600  40.615  28.754   6.692
 4873POPC   C3A61601  40.810  28.497   7.034
 4873POPC   C4A61602  40.553  28.104   7.159
 4873POPC   C1B61603  41.093  28.624   6.051
 4873POPC   C2B61604  41.170  28.409   6.481
 4873POPC   C3B61605  41.036  28.085   6.816
 4873POPC   C4B61606  41.044  28.056   7.273
 4874POPC   NC361607  37.262  30.134   5.510
 4874POPC   PO461608  37.012  29.467   5.408
 4874POPC   GL161609  36.987  29.725   5.799
 4874POPC   GL261610  37.170  29.991   5.987
 4874POPC   C1A61611  36.690  29.807   6.136
 4874POPC   D2A61612  36.944  29.811   6.520
 4874POPC   C3A61613  36.714  29.832   6.890
 4874POPC   C4A61614  36.758  29.980   7.287
 4874POPC   C1B61615  36.890  30.259   6.242
 4874POPC   C2B61616  36.685  30.268   6.606
 4874POPC   C3B61617  36.831  30.386   6.973
 4874POPC   C4B61618  36.606  30.472   7.309
 4875POPC   NC361619   8.400  38.886   5.214
 4875POPC   PO461620   8.008  39.408   5.391
 4875POPC   GL161621   8.248  39.194   5.738
 4875POPC   GL261622   8.358  39.489   5.910
 4875POPC   C1A61623   8.420  39.050   6.156
 4875POPC   D2A61624   8.181  39.050   6.556
 4875POPC   C3A61625   8.345  39.072   6.937
 4875POPC   C4A61626   8.160  39.042   7.321
 4875POPC   C1B61627   8.111  39.460   6.259
 4875POPC   C2B61628   8.285  39.550   6.667
 4875POPC   C3B61629   8.250  39.535   7.099
 4875POPC   C4B61630   7.862  39.416   7.141
 4876POPC   NC361631  11.173  27.658   5.529
 4876POPC   PO461632  11.748  28.096   5.548
 4876POPC   GL161633  11.422  27.881   5.913
 4876POPC   GL261634  11.251  27.497   5.991
 4876POPC   C1A61635  11.269  27.803   6.370
 4876POPC   D2A61636  11.384  27.406   6.602
 4876POPC   C3A61637  11.592  27.583   6.935
 4876POPC   C4A61638  11.535  27.843   7.311
 4876POPC   C1B61639  10.931  27.390   6.343
 4876POPC   C2B61640  10.895  27.437   6.801
 4876POPC   C3B61641  11.110  27.568   7.187
 4876POPC   C4B61642  11.089  27.272   7.538
 4877POPC   NC361643   0.662  31.546   5.601
 4877POPC   PO461644   1.225  31.351   5.128
 4877POPC   GL161645   1.212  31.299   5.634
 4877POPC   GL261646   0.939  31.153   5.782
 4877POPC   C1A61647   1.368  31.425   6.063
 4877POPC   D2A61648   1.462  31.745   6.404
 4877POPC   C3A61649   1.527  31.592   6.834
 4877POPC   C4A61650   1.350  31.553   7.206
 4877POPC   C1B61651   1.024  31.084   6.211
 4877POPC   C2B61652   1.189  31.299   6.584
 4877POPC   C3B61653   1.011  31.142   6.994
 4877POPC   C4B61654   0.925  31.306   7.404
 4878POPC   NC361655   4.144   5.946   5.439
 4878POPC   PO461656   4.682   5.600   5.514
 4878POPC   GL161657   4.557   5.957   5.821
 4878POPC   GL261658   4.216   5.996   5.927
 4878POPC   C1A61659   4.564   6.012   6.287
 4878POPC   D2A61660   4.458   5.726   6.594
 4878POPC   C3A61661   4.648   5.819   6.934
 4878POPC   C4A61662   4.301   5.983   7.166
 4878POPC   C1B61663   4.053   5.832   6.273
 4878POPC   C2B61664   3.889   5.775   6.662
 4878POPC   C3B61665   4.031   5.527   6.947
 4878POPC   C4B61666   4.096   5.558   7.338
 4879POPC   NC361667  22.709  39.335   5.461
 4879POPC   PO461668  23.405  39.033   5.490
 4879POPC   GL161669  23.011  39.074   5.809
 4879POPC   GL261670  22.787  39.365   5.950
 4879POPC   C1A61671  22.741  38.899   6.166
 4879POPC   D2A61672  22.619  38.943   6.614
 4879POPC   C3A61673  22.957  38.867   6.906
 4879POPC   C4A61674  23.128  39.183   7.177
 4879POPC   C1B61675  23.138  39.371   6.236
 4879POPC   C2B61676  23.222  39.311   6.688
 4879POPC   C3B61677  23.025  39.639   6.988
 4879POPC   C4B61678  22.698  39.902   7.193
 4880POPC   NC361679   9.046   5.877   5.387
 4880POPC   PO461680   8.421   5.727   5.633
 4880POPC   GL161681   8.786   5.871   5.937
 4880POPC   GL261682   9.150   5.952   5.868
 4880POPC   C1A61683   9.066   5.692   6.306
 4880POPC   D2A61684   9.051   5.418   6.670
 4880POPC   C3A61685   8.751   5.638   6.963
 4880POPC   C4A61686   8.870   5.997   7.212
 4880POPC   C1B61687   9.332   6.135   6.238
 4880POPC   C2B61688   9.440   5.976   6.658
 4880POPC   C3B61689   9.360   5.952   7.115
 4880POPC   C4B61690   9.242   6.287   7.447
 4881POPC   NC361691  42.474  24.212   5.628
 4881POPC   PO461692  42.178  23.646   5.396
 4881POPC   GL161693  42.457  23.534   5.773
 4881POPC   GL261694  42.669  23.811   5.896
 4881POPC   C1A61695  42.383  23.592   6.241
 4881POPC   D2A61696  42.294  23.842   6.609
 4881POPC   C3A61697  42.430  23.622   6.956
 4881POPC   C4A61698  42.082  23.438   7.032
 4881POPC   C1B61699  42.637  24.076   6.304
 4881POPC   C2B61700  42.635  24.176   6.776
 4881POPC   C3B61701  42.336  24.079   7.120
 4881POPC   C4B61702  42.366  23.757   7.457
 4882POPC   NC361703   8.190  18.069   5.740
 4882POPC   PO461704   8.094  17.517   5.329
 4882POPC   GL161705   8.052  17.563   5.843
 4882POPC   GL261706   8.386  17.621   6.104
 4882POPC   C1A61707   7.948  17.723   6.297
 4882POPC   D2A61708   8.242  17.668   6.675
 4882POPC   C3A61709   8.090  17.628   7.114
 4882POPC   C4A61710   7.897  17.200   7.206
 4882POPC   C1B61711   8.587  17.255   6.266
 4882POPC   C2B61712   8.677  17.212   6.694
 4882POPC   C3B61713   8.505  17.344   7.089
 4882POPC   C4B61714   8.567  17.690   7.360
 4883POPC   NC361715  44.935   5.371   5.350
 4883POPC   PO461716  44.654   4.777   5.350
 4883POPC   GL161717  44.531   5.166   5.633
 4883POPC   GL261718  44.819   5.243   5.821
 4883POPC   C1A61719  44.418   5.296   6.114
 4883POPC   D2A61720  44.264   5.132   6.540
 4883POPC   C3A61721  44.371   5.263   6.962
 4883POPC   C4A61722  44.710   5.187   7.235
 4883POPC   C1B61723   0.071   5.292   6.160
 4883POPC   C2B61724  44.988   5.293   6.573
 4883POPC   C3B61725   0.103   5.115   6.914
 4883POPC   C4B61726   0.192   5.390   7.247
 4884POPC   NC361727  12.609  23.437   5.272
 4884POPC   PO461728  12.900  22.885   5.369
 4884POPC   GL161729  12.961  22.880   5.790
 4884POPC   GL261730  12.943  23.245   5.834
 4884POPC   C1A61731  12.736  22.740   6.169
 4884POPC   D2A61732  12.784  22.600   6.593
 4884POPC   C3A61733  12.668  22.886   6.932
 4884POPC   C4A61734  12.361  22.785   7.267
 4884POPC   C1B61735  13.109  23.099   6.256
 4884POPC   C2B61736  13.251  23.160   6.692
 4884POPC   C3B61737  13.144  23.035   7.122
 4884POPC   C4B61738  13.182  23.091   7.585
 4885POPC   NC361739  28.147   8.272   5.479
 4885POPC   PO461740  28.602   7.827   5.330
 4885POPC   GL161741  28.444   7.931   5.739
 4885POPC   GL261742  28.738   7.834   5.880
 4885POPC   C1A61743  28.299   8.173   6.135
 4885POPC   D2A61744  28.244   8.045   6.583
 4885POPC   C3A61745  28.162   8.281   6.976
 4885POPC   C4A61746  28.037   7.939   7.227
 4885POPC   C1B61747  28.671   7.836   6.280
 4885POPC   C2B61748  28.699   7.792   6.683
 4885POPC   C3B61749  28.581   7.976   7.030
 4885POPC   C4B61750  28.897   7.881   7.304
 4886POPC   NC361751  31.787   8.086   5.431
 4886POPC   PO461752  31.168   8.384   5.424
 4886POPC   GL161753  31.382   8.171   5.782
 4886POPC   GL261754  31.514   7.828   5.792
 4886POPC   C1A61755  31.515   8.225   6.219
 4886POPC   D2A61756  31.392   8.323   6.651
 4886POPC   C3A61757  31.196   8.035   6.937
 4886POPC   C4A61758  31.277   8.164   7.357
 4886POPC   C1B61759  31.667   7.723   6.194
 4886POPC   C2B61760  31.764   7.919   6.579
 4886POPC   C3B61761  31.714   8.022   6.989
 4886POPC   C4B61762  31.618   7.802   7.384
 4887POPC   NC361763  43.503  12.507   5.390
 4887POPC   PO461764  42.981  12.661   5.670
 4887POPC   GL161765  43.145  12.930   5.926
 4887POPC   GL261766  42.832  13.056   6.023
 4887POPC   C1A61767  43.177  12.788   6.350
 4887POPC   D2A61768  43.022  12.626   6.746
 4887POPC   C3A61769  43.169  12.806   7.139
 4887POPC   C4A61770  43.387  12.772   7.534
 4887POPC   C1B61771  43.090  13.301   6.278
 4887POPC   C2B61772  43.163  13.190   6.681
 4887POPC   C3B61773  43.423  13.242   6.977
 4887POPC   C4B61774  43.391  13.267   7.435
 4888POPC   NC361775   5.681   6.387   5.606
 4888POPC   PO461776   6.085   6.788   5.215
 4888POPC   GL161777   5.864   6.873   5.665
 4888POPC   GL261778   5.607   7.071   5.887
 4888POPC   C1A61779   5.864   6.737   6.155
 4888POPC   D2A61780   5.740   6.810   6.612
 4888POPC   C3A61781   5.750   6.402   6.870
 4888POPC   C4A61782   5.758   6.408   7.272
 4888POPC   C1B61783   5.358   6.812   6.236
 4888POPC   C2B61784   5.350   6.474   6.573
 4888POPC   C3B61785   5.365   6.702   7.022
 4888POPC   C4B61786   5.478   6.806   7.460
 4889POPC   NC361787  16.950   6.189   5.423
 4889POPC   PO461788  16.684   6.855   5.403
 4889POPC   GL161789  16.903   6.835   5.792
 4889POPC   GL261790  16.566   6.690   5.871
 4889POPC   C1A61791  16.885   6.825   6.262
 4889POPC   D2A61792  16.583   6.746   6.608
 4889POPC   C3A61793  16.712   6.735   7.041
 4889POPC   C4A61794  16.422   6.413   7.157
 4889POPC   C1B61795  16.659   6.358   6.109
 4889POPC   C2B61796  16.863   6.324   6.488
 4889POPC   C3B61797  16.908   6.272   6.925
 4889POPC   C4B61798  16.869   6.333   7.377
 4890POPC   NC361799   2.229  20.124   5.405
 4890POPC   PO461800   1.948  19.577   5.144
 4890POPC   GL161801   1.926  19.775   5.623
 4890POPC   GL261802   1.566  19.937   5.750
 4890POPC   C1A61803   2.151  19.852   6.041
 4890POPC   D2A61804   2.306  19.792   6.508
 4890POPC   C3A61805   2.159  20.042   6.886
 4890POPC   C4A61806   2.314  20.116   7.326
 4890POPC   C1B61807   1.672  19.626   6.048
 4890POPC   C2B61808   1.806  19.730   6.431
 4890POPC   C3B61809   1.742  19.710   6.877
 4890POPC   C4B61810   1.862  19.886   7.281
 4891POPC   NC361811   1.592  12.395   5.480
 4891POPC   PO461812   1.087  11.993   5.207
 4891POPC   GL161813   1.127  12.013   5.683
 4891POPC   GL261814   1.203  12.357   5.805
 4891POPC   C1A61815   1.226  11.983   6.164
 4891POPC   D2A61816   1.335  12.120   6.603
 4891POPC   C3A61817   1.078  11.893   6.889
 4891POPC   C4A61818   1.175  11.777   7.305
 4891POPC   C1B61819   1.457  12.468   6.178
 4891POPC   C2B61820   1.634  12.579   6.568
 4891POPC   C3B61821   1.390  12.542   6.928
 4891POPC   C4B61822   1.318  12.232   7.183
 4892POPC   NC361823  15.515  30.485   5.403
 4892POPC   PO461824  16.133  30.502   5.711
 4892POPC   GL161825  15.765  30.624   5.875
 4892POPC   GL261826  15.821  30.987   5.904
 4892POPC   C1A61827  15.782  30.646   6.314
 4892POPC   D2A61828  15.968  30.797   6.686
 4892POPC   C3A61829  16.097  30.533   6.969
 4892POPC   C4A61830  15.896  30.462   7.356
 4892POPC   C1B61831  16.182  30.970   6.237
 4892POPC   C2B61832  16.466  30.951   6.617
 4892POPC   C3B61833  16.325  30.978   7.060
 4892POPC   C4B61834  16.015  30.972   7.397
 4893POPC   NC361835  15.664   1.817   5.647
 4893POPC   PO461836  16.122   1.453   5.322
 4893POPC   GL161837  15.897   1.353   5.745
 4893POPC   GL261838  15.569   1.164   5.813
 4893POPC   C1A61839  16.033   1.177   6.175
 4893POPC   D2A61840  16.113   0.878   6.543
 4893POPC   C3A61841  15.903   1.000   6.925
 4893POPC   C4A61842  16.244   1.217   7.079
 4893POPC   C1B61843  15.560   1.387   6.195
 4893POPC   C2B61844  15.705   1.325   6.584
 4893POPC   C3B61845  15.614   1.432   6.989
 4893POPC   C4B61846  15.871   1.503   7.297
 4894POPC   NC361847   9.554   1.714   4.980
 4894POPC   PO461848   9.948   2.094   5.370
 4894POPC   GL161849   9.827   1.854   5.716
 4894POPC   GL261850   9.833   2.127   5.894
 4894POPC   C1A61851  10.028   1.705   6.118
 4894POPC   D2A61852   9.922   1.657   6.583
 4894POPC   C3A61853   9.714   1.939   6.909
 4894POPC   C4A61854   9.771   1.810   7.352
 4894POPC   C1B61855   9.623   1.994   6.264
 4894POPC   C2B61856   9.282   2.160   6.479
 4894POPC   C3B61857   9.271   2.264   6.900
 4894POPC   C4B61858   9.369   2.107   7.301
 4895POPC   NC361859  10.762  29.053   5.501
 4895POPC   PO461860  10.216  29.465   5.552
 4895POPC   GL161861  10.429  29.206   5.836
 4895POPC   GL261862  10.768  29.333   5.920
 4895POPC   C1A61863  10.430  29.024   6.222
 4895POPC   D2A61864  10.248  29.149   6.617
 4895POPC   C3A61865  10.542  29.150   6.994
 4895POPC   C4A61866  10.743  28.962   7.372
 4895POPC   C1B61867  10.491  29.548   6.217
 4895POPC   C2B61868  10.479  29.629   6.654
 4895POPC   C3B61869  10.184  29.516   6.971
 4895POPC   C4B61870  10.409  29.496   7.345
 4896POPC   NC361871  25.617  28.911   5.428
 4896POPC   PO461872  25.227  29.509   5.458
 4896POPC   GL161873  25.344  29.402   5.859
 4896POPC   GL261874  25.329  29.043   5.843
 4896POPC   C1A61875  25.394  29.349   6.298
 4896POPC   D2A61876  25.631  29.539   6.643
 4896POPC   C3A61877  25.502  29.277   6.945
 4896POPC   C4A61878  25.028  29.299   7.047
 4896POPC   C1B61879  25.367  28.851   6.245
 4896POPC   C2B61880  25.218  28.970   6.667
 4896POPC   C3B61881  25.266  28.859   7.132
 4896POPC   C4B61882  25.186  28.823   7.604
 4897POPC   NC361883   6.831  20.110   5.272
 4897POPC   PO461884   6.172  20.037   5.456
 4897POPC   GL161885   6.404  19.756   5.759
 4897POPC   GL261886   6.749  19.785   5.702
 4897POPC   C1A61887   6.561  19.767   6.210
 4897POPC   D2A61888   6.458  19.962   6.629
 4897POPC   C3A61889   6.515  19.656   6.918
 4897POPC   C4A61890   6.900  19.590   7.080
 4897POPC   C1B61891   6.935  20.078   6.036
 4897POPC   C2B61892   6.874  20.229   6.471
 4897POPC   C3B61893   6.897  20.071   6.882
 4897POPC   C4B61894   6.594  20.075   7.201
 4898POPC   NC361895   3.023  16.477   5.260
 4898POPC   PO461896   2.718  17.108   5.427
 4898POPC   GL161897   2.716  16.769   5.717
 4898POPC   GL261898   3.049  16.755   5.695
 4898POPC   C1A61899   2.669  16.625   6.171
 4898POPC   D2A61900   2.901  16.771   6.573
 4898POPC   C3A61901   2.935  16.559   6.958
 4898POPC   C4A61902   2.609  16.713   7.230
 4898POPC   C1B61903   3.127  16.850   6.101
 4898POPC   C2B61904   3.213  17.155   6.412
 4898POPC   C3B61905   3.150  17.260   6.863
 4898POPC   C4B61906   3.037  16.979   7.223
 4899POPC   NC361907   8.894  14.528   5.414
 4899POPC   PO461908   8.598  13.918   5.266
 4899POPC   GL161909   8.766  14.051   5.699
 4899POPC   GL261910   8.654  14.359   5.826
 4899POPC   C1A61911   9.000  14.123   6.123
 4899POPC   D2A61912   9.182  14.391   6.456
 4899POPC   C3A61913   9.062  14.409   6.910
 4899POPC   C4A61914   8.983  14.111   7.240
 4899POPC   C1B61915   8.715  14.582   6.205
 4899POPC   C2B61916   8.663  14.391   6.592
 4899POPC   C3B61917   8.556  14.342   7.016
 4899POPC   C4B61918   8.716  14.688   7.234
 4900POPC   NC361919  18.722   7.548   5.499
 4900POPC   PO461920  19.282   7.347   5.246
 4900POPC   GL161921  19.247   7.459   5.679
 4900POPC   GL261922  19.244   7.798   5.678
 4900POPC   C1A61923  19.033   7.439   6.085
 4900POPC   D2A61924  18.799   7.353   6.456
 4900POPC   C3A61925  19.019   7.285   6.829
 4900POPC   C4A61926  18.942   7.410   7.232
 4900POPC   C1B61927  19.276   7.887   6.126
 4900POPC   C2B61928  19.097   7.758   6.503
 4900POPC   C3B61929  19.032   7.805   6.924
 4900POPC   C4B61930  19.320   7.766   7.253
 4901POPC   NC361931  32.907   4.735   5.300
 4901POPC   PO461932  33.277   5.249   5.452
 4901POPC   GL161933  33.079   4.972   5.745
 4901POPC   GL261934  32.740   4.841   5.806
 4901POPC   C1A61935  33.175   4.974   6.170
 4901POPC   D2A61936  33.200   5.348   6.442
 4901POPC   C3A61937  33.168   5.301   6.900
 4901POPC   C4A61938  33.187   4.898   7.111
 4901POPC   C1B61939  32.688   4.993   6.235
 4901POPC   C2B61940  32.904   4.916   6.636
 4901POPC   C3B61941  32.693   4.870   7.027
 4901POPC   C4B61942  32.472   5.213   7.178
 4902POPC   NC361943  31.496  32.747   5.445
 4902POPC   PO461944  31.333  33.392   5.368
 4902POPC   GL161945  31.533  33.213   5.715
 4902POPC   GL261946  31.867  33.285   5.676
 4902POPC   C1A61947  31.348  33.064   6.105
 4902POPC   D2A61948  31.151  33.120   6.504
 4902POPC   C3A61949  31.387  33.087   6.871
 4902POPC   C4A61950  31.256  33.191   7.259
 4902POPC   C1B61951  31.849  32.955   6.042
 4902POPC   C2B61952  31.723  32.942   6.483
 4902POPC   C3B61953  31.764  32.771   6.907
 4902POPC   C4B61954  31.709  32.975   7.315
 4903POPC   NC361955  29.517  12.195   5.568
 4903POPC   PO461956  28.858  12.135   5.337
 4903POPC   GL161957  28.791  11.927   5.740
 4903POPC   GL261958  29.151  12.001   5.869
 4903POPC   C1A61959  28.757  11.960   6.193
 4903POPC   D2A61960  29.047  12.014   6.542
 4903POPC   C3A61961  28.870  12.070   6.929
 4903POPC   C4A61962  29.117  11.980   7.293
 4903POPC   C1B61963  29.478  12.128   6.219
 4903POPC   C2B61964  29.639  12.165   6.666
 4903POPC   C3B61965  29.678  12.435   7.023
 4903POPC   C4B61966  29.487  12.341   7.435
 4904POPC   NC361967   6.125  31.523   5.340
 4904POPC   PO461968   5.442  31.252   5.467
 4904POPC   GL161969   5.732  31.492   5.779
 4904POPC   GL261970   6.086  31.404   5.828
 4904POPC   C1A61971   5.851  31.676   6.204
 4904POPC   D2A61972   6.023  31.803   6.610
 4904POPC   C3A61973   5.736  31.748   6.977
 4904POPC   C4A61974   5.786  31.742   7.438
 4904POPC   C1B61975   5.991  31.198   6.211
 4904POPC   C2B61976   5.886  31.196   6.626
 4904POPC   C3B61977   6.121  31.140   7.006
 4904POPC   C4B61978   6.075  31.341   7.372
 4905POPC   NC361979   2.658  35.136   5.494
 4905POPC   PO461980   2.942  35.778   5.612
 4905POPC   GL161981   2.681  35.518   5.840
 4905POPC   GL261982   2.863  35.220   5.940
 4905POPC   C1A61983   2.580  35.554   6.251
 4905POPC   D2A61984   2.896  35.462   6.546
 4905POPC   C3A61985   2.839  35.520   6.976
 4905POPC   C4A61986   2.571  35.416   7.292
 4905POPC   C1B61987   2.556  35.049   6.218
 4905POPC   C2B61988   2.451  35.180   6.640
 4905POPC   C3B61989   2.710  35.013   6.974
 4905POPC   C4B61990   2.971  35.102   7.307
 4906POPC   NC361991  23.637  13.969   5.467
 4906POPC   PO461992  24.015  13.319   5.391
 4906POPC   GL161993  23.867  13.566   5.775
 4906POPC   GL261994  23.500  13.617   5.833
 4906POPC   C1A61995  23.880  13.650   6.213
 4906POPC   D2A61996  23.655  13.520   6.555
 4906POPC   C3A61997  23.787  13.549   6.977
 4906POPC   C4A61998  23.530  13.350   7.332
 4906POPC   C1B61999  23.476  13.962   6.150
 4906POPC   C2B62000  23.665  14.049   6.556
 4906POPC   C3B62001  23.534  14.015   6.988
 4906POPC   C4B62002  23.635  13.841   7.402
 4907POPC   NC362003  20.286  20.120   5.475
 4907POPC   PO462004  19.680  19.704   5.443
 4907POPC   GL162005  19.696  19.796   5.807
 4907POPC   GL262006  20.037  19.799   5.812
 4907POPC   C1A62007  19.549  19.717   6.186
 4907POPC   D2A62008  19.595  19.952   6.558
 4907POPC   C3A62009  19.749  19.795   6.936
 4907POPC   C4A62010  19.574  19.773   7.296
 4907POPC   C1B62011  20.006  19.984   6.211
 4907POPC   C2B62012  20.103  19.767   6.573
 4907POPC   C3B62013  20.258  19.673   6.980
 4907POPC   C4B62014  20.057  19.743   7.394
 4908POPC   NC362015  37.528  44.109   5.353
 4908POPC   PO462016  37.912  43.578   5.331
 4908POPC   GL162017  37.551  43.702   5.656
 4908POPC   GL262018  37.761  43.904   5.804
 4908POPC   C1A62019  37.517  43.614   6.140
 4908POPC   D2A62020  37.854  43.755   6.479
 4908POPC   C3A62021  37.739  43.865   6.870
 4908POPC   C4A62022  37.529  43.611   7.133
 4908POPC   C1B62023  37.591  44.103   6.199
 4908POPC   C2B62024  37.565  44.300   6.554
 4908POPC   C3B62025  37.408  44.235   6.928
 4908POPC   C4B62026  37.670  44.354   7.244
 4909POPC   NC362027  11.412   9.336   5.437
 4909POPC   PO462028  11.335   8.735   5.455
 4909POPC   GL162029  11.149   8.884   5.795
 4909POPC   GL262030  11.455   9.071   5.859
 4909POPC   C1A62031  11.077   9.042   6.199
 4909POPC   D2A62032  11.233   9.111   6.596
 4909POPC   C3A62033  11.259   8.726   6.819
 4909POPC   C4A62034  11.035   8.648   7.191
 4909POPC   C1B62035  11.677   9.078   6.201
 4909POPC   C2B62036  11.697   8.925   6.574
 4909POPC   C3B62037  11.653   9.091   6.960
 4909POPC   C4B62038  11.516   8.814   7.270
 4910POPC   NC362039  21.656  20.299   5.129
 4910POPC   PO462040  21.025  20.662   5.306
 4910POPC   GL162041  21.221  20.776   5.801
 4910POPC   GL262042  21.456  21.013   5.874
 4910POPC   C1A62043  21.453  20.555   6.169
 4910POPC   D2A62044  21.438  20.307   6.578
 4910POPC   C3A62045  21.591  20.426   6.994
 4910POPC   C4A62046  21.498  20.759   7.246
 4910POPC   C1B62047  21.354  21.026   6.343
 4910POPC   C2B62048  21.222  20.795   6.737
 4910POPC   C3B62049  21.073  20.477   7.033
 4910POPC   C4B62050  21.165  20.402   7.473
 4911POPC   NC362051   3.161  36.651   5.355
 4911POPC   PO462052   2.734  37.123   5.326
 4911POPC   GL162053   2.748  37.152   5.764
 4911POPC   GL262054   2.420  37.111   5.859
 4911POPC   C1A62055   2.831  36.986   6.176
 4911POPC   D2A62056   3.100  36.878   6.513
 4911POPC   C3A62057   2.873  36.833   6.884
 4911POPC   C4A62058   2.931  36.935   7.276
 4911POPC   C1B62059   2.373  36.771   6.085
 4911POPC   C2B62060   2.510  36.730   6.501
 4911POPC   C3B62061   2.372  36.785   6.896
 4911POPC   C4B62062   2.470  36.748   7.350
 4912POPC   NC362063  27.460  30.482   5.404
 4912POPC   PO462064  27.214  31.211   5.384
 4912POPC   GL162065  27.180  30.939   5.796
 4912POPC   GL262066  27.271  30.590   5.896
 4912POPC   C1A62067  27.438  30.948   6.235
 4912POPC   D2A62068  27.477  30.792   6.674
 4912POPC   C3A62069  27.543  31.045   7.048
 4912POPC   C4A62070  27.356  31.016   7.490
 4912POPC   C1B62071  27.267  30.441   6.327
 4912POPC   C2B62072  27.333  30.317   6.783
 4912POPC   C3B62073  27.548  30.498   7.137
 4912POPC   C4B62074  27.775  30.756   7.416
 4913POPC   NC362075   1.266  20.326   5.500
 4913POPC   PO462076   0.934  20.898   5.450
 4913POPC   GL162077   1.163  20.716   5.821
 4913POPC   GL262078   1.518  20.548   5.876
 4913POPC   C1A62079   1.199  20.655   6.260
 4913POPC   D2A62080   1.224  20.368   6.571
 4913POPC   C3A62081   1.154  20.591   6.969
 4913POPC   C4A62082   1.291  20.683   7.383
 4913POPC   C1B62083   1.585  20.195   6.186
 4913POPC   C2B62084   1.713  20.182   6.608
 4913POPC   C3B62085   1.478  20.148   6.967
 4913POPC   C4B62086   1.638  20.360   7.255
 4914POPC   NC362087   6.685  13.621   5.173
 4914POPC   PO462088   6.126  13.645   5.505
 4914POPC   GL162089   6.477  13.675   5.853
 4914POPC   GL262090   6.843  13.681   5.787
 4914POPC   C1A62091   6.621  13.510   6.264
 4914POPC   D2A62092   6.950  13.433   6.565
 4914POPC   C3A62093   6.741  13.532   6.946
 4914POPC   C4A62094   6.599  13.606   7.323
 4914POPC   C1B62095   6.886  13.936   6.181
 4914POPC   C2B62096   6.772  13.915   6.629
 4914POPC   C3B62097   6.923  13.995   7.095
 4914POPC   C4B62098   6.867  13.941   7.588
 4915POPC   NC362099   4.445  20.277   5.408
 4915POPC   PO462100   4.236  20.980   5.478
 4915POPC   GL162101   4.233  20.733   5.838
 4915POPC   GL262102   4.567  20.569   5.821
 4915POPC   C1A62103   4.096  20.335   6.039
 4915POPC   D2A62104   4.096  20.142   6.449
 4915POPC   C3A62105   4.132  20.383   6.838
 4915POPC   C4A62106   4.108  20.223   7.257
 4915POPC   C1B62107   4.827  20.486   6.193
 4915POPC   C2B62108   4.719  20.583   6.612
 4915POPC   C3B62109   4.474  20.768   6.918
 4915POPC   C4B62110   4.495  20.552   7.279
 4916POPC   NC362111  23.957  31.697   5.390
 4916POPC   PO462112  23.474  31.296   5.140
 4916POPC   GL162113  23.589  31.388   5.612
 4916POPC   GL262114  23.885  31.431   5.805
 4916POPC   C1A62115  23.567  31.247   6.110
 4916POPC   D2A62116  23.745  31.186   6.519
 4916POPC   C3A62117  23.570  31.141   6.944
 4916POPC   C4A62118  23.670  31.250   7.376
 4916POPC   C1B62119  24.001  31.531   6.224
 4916POPC   C2B62120  23.862  31.664   6.632
 4916POPC   C3B62121  23.935  31.517   7.039
 4916POPC   C4B62122  23.952  31.770   7.416
 4917POPC   NC362123  38.811  33.802   5.181
 4917POPC   PO462124  38.185  34.039   5.106
 4917POPC   GL162125  38.307  34.051   5.624
 4917POPC   GL262126  38.310  33.763   5.833
 4917POPC   C1A62127  38.299  34.233   6.090
 4917POPC   D2A62128  38.201  34.327   6.558
 4917POPC   C3A62129  38.282  34.014   6.899
 4917POPC   C4A62130  38.463  33.921   7.355
 4917POPC   C1B62131  38.490  33.546   6.199
 4917POPC   C2B62132  38.675  33.709   6.577
 4917POPC   C3B62133  38.591  33.586   6.964
 4917POPC   C4B62134  38.236  33.476   7.191
 4918POPC   NC362135  44.766  23.835   5.312
 4918POPC   PO462136  44.365  23.441   5.581
 4918POPC   GL162137  44.458  23.725   5.796
 4918POPC   GL262138  44.802  23.730   5.833
 4918POPC   C1A62139  44.395  23.836   6.212
 4918POPC   D2A62140  44.516  23.868   6.630
 4918POPC   C3A62141  44.703  23.496   6.857
 4918POPC   C4A62142  44.925  23.429   7.301
 4918POPC   C1B62143  44.889  23.961   6.253
 4918POPC   C2B62144  44.963  24.085   6.714
 4918POPC   C3B62145  44.809  23.919   7.132
 4918POPC   C4B62146  44.986  23.973   7.567
 4919POPC   NC362147  33.257  30.290   5.063
 4919POPC   PO462148  32.789  30.697   5.179
 4919POPC   GL162149  32.962  30.768   5.613
 4919POPC   GL262150  32.663  30.756   5.819
 4919POPC   C1A62151  33.162  30.841   6.051
 4919POPC   D2A62152  33.040  30.902   6.529
 4919POPC   C3A62153  33.053  30.769   6.995
 4919POPC   C4A62154  32.805  30.896   7.368
 4919POPC   C1B62155  32.787  30.513   6.236
 4919POPC   C2B62156  32.893  30.382   6.691
 4919POPC   C3B62157  32.699  30.422   7.133
 4919POPC   C4B62158  32.642  30.471   7.597
 4920POPC   NC362159   0.056  40.677   4.884
 4920POPC   PO462160   0.401  40.938   5.390
 4920POPC   GL162161   0.421  40.979   5.794
 4920POPC   GL262162   0.700  41.174   5.809
 4920POPC   C1A62163   0.353  40.708   6.153
 4920POPC   D2A62164   0.533  40.519   6.502
 4920POPC   C3A62165   0.400  40.714   6.826
 4920POPC   C4A62166   0.345  40.602   7.200
 4920POPC   C1B62167   0.762  40.994   6.218
 4920POPC   C2B62168   0.848  40.901   6.617
 4920POPC   C3B62169   0.884  40.591   6.903
 4920POPC   C4B62170   0.836  40.792   7.273
 4921POPC   NC362171  29.165  37.349   5.500
 4921POPC   PO462172  29.570  36.897   5.500
 4921POPC   GL162173  29.275  37.027   5.854
 4921POPC   GL262174  28.898  36.989   5.762
 4921POPC   C1A62175  29.142  36.969   6.260
 4921POPC   D2A62176  29.484  36.761   6.444
 4921POPC   C3A62177  29.455  36.812   6.875
 4921POPC   C4A62178  29.419  37.089   7.224
 4921POPC   C1B62179  28.613  36.819   6.095
 4921POPC   C2B62180  28.578  36.611   6.521
 4921POPC   C3B62181  28.773  36.780   6.918
 4921POPC   C4B62182  29.089  36.685   7.232
 4922POPC   NC362183   1.586  44.503   5.048
 4922POPC   PO462184   1.133  44.586   5.381
 4922POPC   GL162185   1.115  44.748   5.802
 4922POPC   GL262186   1.474  44.836   5.767
 4922POPC   C1A62187   0.944  44.672   6.266
 4922POPC   D2A62188   0.968  44.416   6.688
 4922POPC   C3A62189   0.909  44.620   7.095
 4922POPC   C4A62190   1.187  44.842   7.440
 4922POPC   C1B62191   1.456  44.563   6.156
 4922POPC   C2B62192   1.500  44.477   6.623
 4922POPC   C3B62193   1.407  44.581   7.044
 4922POPC   C4B62194   1.427  44.382   7.427
 4923POPC   NC362195   0.588  28.170   5.462
 4923POPC   PO462196   0.016  28.546   5.597
 4923POPC   GL162197   0.419  28.485   5.837
 4923POPC   GL262198   0.200  28.388   6.057
 4923POPC   C1A62199   0.616  28.478   6.292
 4923POPC   D2A62200   0.386  28.228   6.615
 4923POPC   C3A62201   0.372  28.489   6.976
 4923POPC   C4A62202   0.609  28.546   7.351
 4923POPC   C1B62203  44.973  28.059   6.224
 4923POPC   C2B62204   0.008  27.838   6.582
 4923POPC   C3B62205   0.027  28.068   6.954
 4923POPC   C4B62206   0.337  28.084   7.287
 4924POPC   NC362207  19.221  33.780   5.373
 4924POPC   PO462208  18.787  34.239   5.363
 4924POPC   GL162209  18.992  33.982   5.759
 4924POPC   GL262210  19.118  33.628   5.828
 4924POPC   C1A62211  18.934  33.913   6.201
 4924POPC   D2A62212  18.729  33.846   6.581
 4924POPC   C3A62213  19.014  33.895   6.912
 4924POPC   C4A62214  18.982  34.030   7.330
 4924POPC   C1B62215  19.350  33.541   6.180
 4924POPC   C2B62216  19.287  33.321   6.573
 4924POPC   C3B62217  19.302  33.466   6.990
 4924POPC   C4B62218  18.990  33.518   7.277
 4925POPC   NC362219   7.935   7.084   5.524
 4925POPC   PO462220   8.280   7.694   5.442
 4925POPC   GL162221   8.311   7.556   5.848
 4925POPC   GL262222   7.964   7.532   5.902
 4925POPC   C1A62223   8.333   7.477   6.294
 4925POPC   D2A62224   8.272   7.678   6.687
 4925POPC   C3A62225   8.383   7.508   7.056
 4925POPC   C4A62226   8.317   7.087   7.159
 4925POPC   C1B62227   7.890   7.175   6.195
 4925POPC   C2B62228   7.961   6.953   6.579
 4925POPC   C3B62229   7.843   7.038   7.009
 4925POPC   C4B62230   7.669   7.312   7.287
 4926POPC   NC362231  10.024  41.746   5.410
 4926POPC   PO462232   9.453  41.334   5.560
 4926POPC   GL162233   9.637  41.582   5.897
 4926POPC   GL262234   9.981  41.690   5.908
 4926POPC   C1A62235   9.710  41.563   6.324
 4926POPC   D2A62236   9.922  41.759   6.643
 4926POPC   C3A62237   9.767  41.580   7.005
 4926POPC   C4A62238   9.739  41.543   7.448
 4926POPC   C1B62239   9.962  41.212   6.033
 4926POPC   C2B62240   9.974  41.141   6.486
 4926POPC   C3B62241  10.199  41.346   6.790
 4926POPC   C4B62242  10.188  41.382   7.211
 4927POPC   NC362243  20.982  36.808   5.253
 4927POPC   PO462244  21.625  37.168   5.260
 4927POPC   GL162245  21.279  37.079   5.593
 4927POPC   GL262246  21.196  36.721   5.712
 4927POPC   C1A62247  21.251  37.181   6.040
 4927POPC   D2A62248  21.367  36.902   6.377
 4927POPC   C3A62249  21.382  37.036   6.793
 4927POPC   C4A62250  21.453  37.050   7.246
 4927POPC   C1B62251  20.971  36.704   6.103
 4927POPC   C2B62252  20.934  36.674   6.560
 4927POPC   C3B62253  21.061  36.717   7.000
 4927POPC   C4B62254  21.414  36.533   7.216
 4928POPC   NC362255   6.892  10.125   5.442
 4928POPC   PO462256   6.775   9.465   5.415
 4928POPC   GL162257   6.835   9.616   5.831
 4928POPC   GL262258   6.581   9.876   5.876
 4928POPC   C1A62259   6.801   9.618   6.290
 4928POPC   D2A62260   6.943   9.915   6.562
 4928POPC   C3A62261   6.753   9.835   6.949
 4928POPC   C4A62262   7.002   9.556   7.162
 4928POPC   C1B62263   6.325   9.575   6.140
 4928POPC   C2B62264   6.266   9.574   6.621
 4928POPC   C3B62265   6.251   9.442   7.083
 4928POPC   C4B62266   6.060   9.641   7.422
 4929POPC   NC362267  35.810  24.794   5.516
 4929POPC   PO462268  35.258  24.327   5.329
 4929POPC   GL162269  35.407  24.472   5.761
 4929POPC   GL262270  35.700  24.270   5.869
 4929POPC   C1A62271  35.170  24.585   6.163
 4929POPC   D2A62272  35.102  24.357   6.571
 4929POPC   C3A62273  35.287  24.443   7.001
 4929POPC   C4A62274  35.197  24.575   7.436
 4929POPC   C1B62275  35.521  24.216   6.288
 4929POPC   C2B62276  35.556  24.109   6.708
 4929POPC   C3B62277  35.800  24.282   7.018
 4929POPC   C4B62278  35.664  24.397   7.409
 4930POPC   NC362279   4.674  27.428   5.350
 4930POPC   PO462280   4.014  27.442   5.277
 4930POPC   GL162281   4.278  27.412   5.703
 4930POPC   GL262282   4.266  27.748   5.800
 4930POPC   C1A62283   4.409  27.450   6.190
 4930POPC   D2A62284   4.493  27.288   6.601
 4930POPC   C3A62285   4.362  27.527   6.945
 4930POPC   C4A62286   4.281  27.444   7.353
 4930POPC   C1B62287   3.986  27.757   6.171
 4930POPC   C2B62288   4.154  27.812   6.579
 4930POPC   C3B62289   3.975  27.858   6.981
 4930POPC   C4B62290   3.846  27.703   7.375
 4931POPC   NC362291  43.147  10.172   5.381
 4931POPC   PO462292  43.045   9.531   5.482
 4931POPC   GL162293  42.960   9.861   5.743
 4931POPC   GL262294  43.256   9.823   5.921
 4931POPC   C1A62295  42.827   9.935   6.144
 4931POPC   D2A62296  43.007   9.607   6.425
 4931POPC   C3A62297  42.927   9.587   6.868
 4931POPC   C4A62298  42.876   9.903   7.193
 4931POPC   C1B62299  43.535   9.714   6.278
 4931POPC   C2B62300  43.472   9.597   6.697
 4931POPC   C3B62301  43.384   9.750   7.094
 4931POPC   C4B62302  43.609   9.616   7.440
 4932POPC   NC362303  25.885   3.228   5.407
 4932POPC   PO462304  26.288   3.694   5.549
 4932POPC   GL162305  25.921   3.576   5.786
 4932POPC   GL262306  25.770   3.861   5.911
 4932POPC   C1A62307  25.886   3.348   6.163
 4932POPC   D2A62308  26.109   3.481   6.559
 4932POPC   C3A62309  25.870   3.582   6.914
 4932POPC   C4A62310  26.018   3.449   7.316
 4932POPC   C1B62311  26.125   3.871   6.205
 4932POPC   C2B62312  26.364   3.929   6.622
 4932POPC   C3B62313  26.348   3.740   7.054
 4932POPC   C4B62314  26.318   3.802   7.548
 4933POPC   NC362315   3.553  29.369   5.289
 4933POPC   PO462316   3.586  30.000   5.365
 4933POPC   GL162317   3.524  29.834   5.741
 4933POPC   GL262318   3.739  29.525   5.758
 4933POPC   C1A62319   3.503  30.101   6.134
 4933POPC   D2A62320   3.701  30.044   6.563
 4933POPC   C3A62321   3.394  30.148   6.876
 4933POPC   C4A62322   3.280  30.148   7.314
 4933POPC   C1B62323   3.634  29.613   6.187
 4933POPC   C2B62324   3.817  29.539   6.568
 4933POPC   C3B62325   3.584  29.660   6.935
 4933POPC   C4B62326   3.184  29.699   7.118
 4934POPC   NC362327  25.627  12.357   5.350
 4934POPC   PO462328  26.034  11.807   5.418
 4934POPC   GL162329  25.943  12.098   5.768
 4934POPC   GL262330  25.614  12.181   5.826
 4934POPC   C1A62331  26.078  12.063   6.213
 4934POPC   D2A62332  26.339  12.073   6.586
 4934POPC   C3A62333  26.363  12.024   6.990
 4934POPC   C4A62334  26.103  11.962   7.288
 4934POPC   C1B62335  25.706  12.402   6.201
 4934POPC   C2B62336  25.892  12.312   6.646
 4934POPC   C3B62337  25.800  12.352   7.127
 4934POPC   C4B62338  25.944  12.314   7.599
 4935POPC   NC362339   1.109   4.439   5.519
 4935POPC   PO462340   1.070   3.792   5.502
 4935POPC   GL162341   1.190   4.041   5.869
 4935POPC   GL262342   0.915   4.237   5.963
 4935POPC   C1A62343   1.353   4.382   6.180
 4935POPC   D2A62344   1.583   4.286   6.517
 4935POPC   C3A62345   1.526   4.464   6.884
 4935POPC   C4A62346   1.530   4.322   7.278
 4935POPC   C1B62347   0.884   4.596   6.223
 4935POPC   C2B62348   1.082   4.626   6.634
 4935POPC   C3B62349   0.965   4.346   6.972
 4935POPC   C4B62350   1.033   4.292   7.385
 4936POPC   NC362351   7.488   6.715   5.443
 4936POPC   PO462352   6.954   6.379   5.175
 4936POPC   GL162353   7.077   6.524   5.661
 4936POPC   GL262354   7.422   6.380   5.824
 4936POPC   C1A62355   7.201   6.754   6.075
 4936POPC   D2A62356   7.560   6.691   6.382
 4936POPC   C3A62357   7.664   6.579   6.819
 4936POPC   C4A62358   7.713   6.614   7.261
 4936POPC   C1B62359   7.278   6.291   6.277
 4936POPC   C2B62360   7.180   6.449   6.722
 4936POPC   C3B62361   7.277   6.346   7.188
 4936POPC   C4B62362   7.261   6.264   7.664
 4937POPC   NC362363  44.305   4.142   5.532
 4937POPC   PO462364  43.957   4.648   5.224
 4937POPC   GL162365  43.869   4.375   5.671
 4937POPC   GL262366  43.745   4.601   5.923
 4937POPC   C1A62367  43.884   4.131   6.122
 4937POPC   D2A62368  44.128   4.183   6.550
 4937POPC   C3A62369  44.060   4.215   6.989
 4937POPC   C4A62370  43.683   4.165   7.270
 4937POPC   C1B62371  43.851   4.574   6.355
 4937POPC   C2B62372  43.685   4.421   6.747
 4937POPC   C3B62373  43.761   4.658   7.144
 4937POPC   C4B62374  43.576   4.985   7.411
 4938POPC   NC362375   4.568  28.845   5.675
 4938POPC   PO462376   4.118  29.297   5.358
 4938POPC   GL162377   4.142  29.153   5.783
 4938POPC   GL262378   4.038  28.802   5.844
 4938POPC   C1A62379   4.288  29.063   6.226
 4938POPC   D2A62380   4.515  28.977   6.611
 4938POPC   C3A62381   4.292  29.292   6.824
 4938POPC   C4A62382   4.258  29.336   7.237
 4938POPC   C1B62383   3.953  28.669   6.239
 4938POPC   C2B62384   4.013  28.852   6.636
 4938POPC   C3B62385   4.160  28.840   7.065
 4938POPC   C4B62386   3.986  28.965   7.459
 4939POPC   NC362387  11.029  19.307   5.560
 4939POPC   PO462388  11.613  19.600   5.406
 4939POPC   GL162389  11.512  19.315   5.789
 4939POPC   GL262390  11.327  18.968   5.785
 4939POPC   C1A62391  11.418  19.195   6.233
 4939POPC   D2A62392  11.494  19.030   6.634
 4939POPC   C3A62393  11.334  19.254   6.946
 4939POPC   C4A62394  11.479  19.255   7.324
 4939POPC   C1B62395  11.025  18.861   6.146
 4939POPC   C2B62396  11.066  18.679   6.546
 4939POPC   C3B62397  11.119  18.781   6.974
 4939POPC   C4B62398  11.032  18.896   7.384
 4940POPC   NC362399   7.089   7.616   5.461
 4940POPC   PO462400   7.487   8.178   5.319
 4940POPC   GL162401   7.474   8.269   5.728
 4940POPC   GL262402   7.220   8.498   5.793
 4940POPC   C1A62403   7.652   8.188   6.116
 4940POPC   D2A62404   7.670   8.412   6.504
 4940POPC   C3A62405   7.524   8.261   6.907
 4940POPC   C4A62406   7.680   8.199   7.314
 4940POPC   C1B62407   7.186   8.359   6.203
 4940POPC   C2B62408   6.978   8.375   6.575
 4940POPC   C3B62409   7.113   8.541   6.944
 4940POPC   C4B62410   7.175   8.273   7.296
 4941POPC   NC362411  27.120  10.955   5.560
 4941POPC   PO462412  27.550  11.445   5.586
 4941POPC   GL162413  27.351  11.284   5.871
 4941POPC   GL262414  27.053  11.442   5.833
 4941POPC   C1A62415  27.460  11.026   6.180
 4941POPC   D2A62416  27.824  11.022   6.404
 4941POPC   C3A62417  27.806  11.030   6.872
 4941POPC   C4A62418  28.039  11.189   7.238
 4941POPC   C1B62419  27.236  11.564   6.256
 4941POPC   C2B62420  27.428  11.332   6.598
 4941POPC   C3B62421  27.272  11.288   7.009
 4941POPC   C4B62422  27.401  11.291   7.453
 4942POPC   NC362423  30.720  22.272   5.391
 4942POPC   PO462424  31.050  21.750   5.567
 4942POPC   GL162425  30.884  22.114   5.843
 4942POPC   GL262426  30.504  22.220   5.845
 4942POPC   C1A62427  30.855  22.262   6.263
 4942POPC   D2A62428  30.888  21.907   6.565
 4942POPC   C3A62429  30.907  22.007   6.994
 4942POPC   C4A62430  30.750  22.385   7.219
 4942POPC   C1B62431  30.508  21.900   6.163
 4942POPC   C2B62432  30.363  22.021   6.547
 4942POPC   C3B62433  30.392  22.256   6.884
 4942POPC   C4B62434  30.446  21.997   7.215
 4943POPC   NC362435  35.544  23.252   5.515
 4943POPC   PO462436  35.060  22.780   5.336
 4943POPC   GL162437  35.320  22.843   5.728
 4943POPC   GL262438  35.108  23.096   5.831
 4943POPC   C1A62439  35.573  23.006   6.143
 4943POPC   D2A62440  35.766  22.952   6.596
 4943POPC   C3A62441  35.510  22.785   6.935
 4943POPC   C4A62442  35.317  22.887   7.304
 4943POPC   C1B62443  35.105  22.802   6.193
 4943POPC   C2B62444  35.214  22.954   6.566
 4943POPC   C3B62445  34.974  22.921   6.930
 4943POPC   C4B62446  34.871  23.207   7.246
 4944POPC   NC362447   6.601   9.039   5.394
 4944POPC   PO462448   6.508   8.358   5.416
 4944POPC   GL162449   6.749   8.694   5.708
 4944POPC   GL262450   6.521   8.720   5.833
 4944POPC   C1A62451   6.651   9.152   6.019
 4944POPC   D2A62452   6.438   9.130   6.432
 4944POPC   C3A62453   6.667   9.306   6.816
 4944POPC   C4A62454   6.686   9.194   7.260
 4944POPC   C1B62455   6.856   8.740   6.203
 4944POPC   C2B62456   6.843   8.874   6.624
 4944POPC   C3B62457   6.663   8.750   7.028
 4944POPC   C4B62458   6.924   8.706   7.389
 4945POPC   NC362459  11.339  10.976   4.961
 4945POPC   PO462460  11.362  11.567   5.329
 4945POPC   GL162461  11.313  11.365   5.708
 4945POPC   GL262462  10.978  11.445   5.789
 4945POPC   C1A62463  11.520  11.326   6.110
 4945POPC   D2A62464  11.540  11.400   6.545
 4945POPC   C3A62465  11.590  11.070   6.868
 4945POPC   C4A62466  11.545  11.171   7.313
 4945POPC   C1B62467  11.122  11.616   6.197
 4945POPC   C2B62468  11.048  11.705   6.623
 4945POPC   C3B62469  11.104  11.649   7.053
 4945POPC   C4B62470  11.038  11.221   7.219
 4946POPC   NC362471  26.513  33.632   5.473
 4946POPC   PO462472  27.011  33.009   5.335
 4946POPC   GL162473  26.793  32.927   5.726
 4946POPC   GL262474  26.533  33.204   5.784
 4946POPC   C1A62475  26.774  32.966   6.181
 4946POPC   D2A62476  26.962  33.053   6.580
 4946POPC   C3A62477  26.759  32.793   6.879
 4946POPC   C4A62478  26.915  32.791   7.266
 4946POPC   C1B62479  26.435  33.346   6.223
 4946POPC   C2B62480  26.430  33.131   6.646
 4946POPC   C3B62481  26.588  33.265   7.067
 4946POPC   C4B62482  26.571  33.580   7.423
 4947POPC   NC362483  35.609  36.175   5.577
 4947POPC   PO462484  34.938  36.405   5.442
 4947POPC   GL162485  35.141  36.251   5.789
 4947POPC   GL262486  35.057  35.920   5.912
 4947POPC   C1A62487  35.321  36.272   6.198
 4947POPC   D2A62488  35.167  36.253   6.595
 4947POPC   C3A62489  35.423  36.280   6.925
 4947POPC   C4A62490  35.434  36.079   7.264
 4947POPC   C1B62491  35.287  35.778   6.328
 4947POPC   C2B62492  35.390  35.807   6.786
 4947POPC   C3B62493  35.712  35.692   7.115
 4947POPC   C4B62494  35.672  35.754   7.586
 4948POPC   NC362495   9.645  12.327   5.399
 4948POPC   PO462496  10.041  11.849   5.453
 4948POPC   GL162497   9.659  11.932   5.746
 4948POPC   GL262498   9.415  11.663   5.683
 4948POPC   C1A62499   9.579  12.262   6.084
 4948POPC   D2A62500   9.837  12.549   6.349
 4948POPC   C3A62501   9.788  12.527   6.807
 4948POPC   C4A62502   9.791  12.282   7.211
 4948POPC   C1B62503   9.351  11.694   6.142
 4948POPC   C2B62504   9.147  11.734   6.557
 4948POPC   C3B62505   9.247  11.601   6.963
 4948POPC   C4B62506   9.594  11.801   7.218
 4949POPC   NC362507  21.743  41.950   5.526
 4949POPC   PO462508  22.343  41.673   5.382
 4949POPC   GL162509  22.419  41.649   5.833
 4949POPC   GL262510  22.055  41.673   5.953
 4949POPC   C1A62511  22.397  41.339   6.205
 4949POPC   D2A62512  22.101  41.210   6.549
 4949POPC   C3A62513  22.313  41.205   6.941
 4949POPC   C4A62514  22.339  41.504   7.267
 4949POPC   C1B62515  22.286  41.834   6.322
 4949POPC   C2B62516  22.334  41.696   6.750
 4949POPC   C3B62517  21.944  41.596   6.950
 4949POPC   C4B62518  21.828  41.691   7.370
 4950POPC   NC362519  34.265  13.464   5.338
 4950POPC   PO462520  34.161  14.123   5.417
 4950POPC   GL162521  34.350  13.820   5.781
 4950POPC   GL262522  34.189  13.485   5.830
 4950POPC   C1A62523  34.650  13.639   6.161
 4950POPC   D2A62524  34.741  13.485   6.633
 4950POPC   C3A62525  34.709  13.782   7.081
 4950POPC   C4A62526  34.788  13.853   7.588
 4950POPC   C1B62527  34.183  13.495   6.230
 4950POPC   C2B62528  34.194  13.279   6.597
 4950POPC   C3B62529  34.341  13.445   6.955
 4950POPC   C4B62530  34.184  13.336   7.304
 4951POPC   NC362531  11.379   4.729   5.430
 4951POPC   PO462532  11.595   4.081   5.391
 4951POPC   GL162533  11.355   4.258   5.737
 4951POPC   GL262534  11.550   4.544   5.881
 4951POPC   C1A62535  11.146   4.186   6.151
 4951POPC   D2A62536  10.787   4.247   6.427
 4951POPC   C3A62537  10.822   4.296   6.855
 4951POPC   C4A62538  11.110   4.137   7.160
 4951POPC   C1B62539  11.357   4.620   6.307
 4951POPC   C2B62540  11.299   4.334   6.672
 4951POPC   C3B62541  11.581   4.106   6.963
 4951POPC   C4B62542  11.685   4.223   7.394
 4952POPC   NC362543  15.917  37.991   5.469
 4952POPC   PO462544  15.667  37.403   5.446
 4952POPC   GL162545  15.932  37.608   5.781
 4952POPC   GL262546  15.720  37.779   5.936
 4952POPC   C1A62547  16.164  37.781   6.153
 4952POPC   D2A62548  15.967  37.785   6.555
 4952POPC   C3A62549  16.154  37.905   6.935
 4952POPC   C4A62550  16.101  37.809   7.357
 4952POPC   C1B62551  15.515  37.664   6.268
 4952POPC   C2B62552  15.422  37.778   6.652
 4952POPC   C3B62553  15.644  37.728   7.021
 4952POPC   C4B62554  15.618  37.768   7.454
 4953POPC   NC362555  36.475  32.820   5.287
 4953POPC   PO462556  35.927  33.186   5.425
 4953POPC   GL162557  36.065  33.148   5.858
 4953POPC   GL262558  36.344  32.987   5.778
 4953POPC   C1A62559  36.184  33.179   6.309
 4953POPC   D2A62560  35.960  33.276   6.716
 4953POPC   C3A62561  36.099  33.082   7.112
 4953POPC   C4A62562  36.495  33.001   7.330
 4953POPC   C1B62563  36.429  32.751   6.148
 4953POPC   C2B62564  36.555  32.808   6.595
 4953POPC   C3B62565  36.375  32.617   6.993
 4953POPC   C4B62566  36.388  32.512   7.462
 4954POPC   NC362567   7.886  11.654   5.541
 4954POPC   PO462568   8.219  10.991   5.286
 4954POPC   GL162569   8.240  11.305   5.691
 4954POPC   GL262570   8.357  11.617   5.817
 4954POPC   C1A62571   8.070  11.314   6.146
 4954POPC   D2A62572   8.172  11.370   6.589
 4954POPC   C3A62573   8.002  11.214   7.000
 4954POPC   C4A62574   8.054  11.306   7.441
 4954POPC   C1B62575   8.536  11.521   6.215
 4954POPC   C2B62576   8.584  11.688   6.622
 4954POPC   C3B62577   8.312  11.665   6.981
 4954POPC   C4B62578   8.445  11.641   7.373
 4955POPC   NC362579   7.796  32.414   5.305
 4955POPC   PO462580   7.236  32.004   5.334
 4955POPC   GL162581   7.257  32.189   5.763
 4955POPC   GL262582   6.949  32.102   5.906
 4955POPC   C1A62583   7.535  32.318   6.127
 4955POPC   D2A62584   7.601  32.459   6.561
 4955POPC   C3A62585   7.307  32.349   6.859
 4955POPC   C4A62586   7.468  32.181   7.229
 4955POPC   C1B62587   7.031  32.396   6.249
 4955POPC   C2B62588   6.912  32.685   6.576
 4955POPC   C3B62589   6.901  32.633   7.018
 4955POPC   C4B62590   7.005  32.346   7.355
 4956POPC   NC362591   5.519  43.188   5.536
 4956POPC   PO462592   6.075  42.922   5.444
 4956POPC   GL162593   6.019  43.148   5.813
 4956POPC   GL262594   5.703  43.091   5.992
 4956POPC   C1A62595   6.153  42.996   6.218
 4956POPC   D2A62596   6.267  42.925   6.626
 4956POPC   C3A62597   5.982  43.032   6.939
 4956POPC   C4A62598   5.618  42.884   7.157
 4956POPC   C1B62599   5.929  43.449   6.213
 4956POPC   C2B62600   5.875  43.638   6.639
 4956POPC   C3B62601   5.987  43.548   7.071
 4956POPC   C4B62602   5.847  43.284   7.362
 4957POPC   NC362603  39.454  27.686   5.451
 4957POPC   PO462604  40.094  27.554   5.232
 4957POPC   GL162605  40.027  27.808   5.597
 4957POPC   GL262606  39.963  27.494   5.765
 4957POPC   C1A62607  40.098  27.909   6.053
 4957POPC   D2A62608  39.979  27.888   6.507
 4957POPC   C3A62609  40.253  27.812   6.841
 4957POPC   C4A62610  40.196  27.722   7.262
 4957POPC   C1B62611  39.993  27.418   6.217
 4957POPC   C2B62612  40.021  27.382   6.672
 4957POPC   C3B62613  39.910  27.318   7.108
 4957POPC   C4B62614  39.846  27.108   7.526
 4958POPC   NC362615  38.782   5.171   5.244
 4958POPC   PO462616  38.272   4.732   5.345
 4958POPC   GL162617  38.374   5.074   5.639
 4958POPC   GL262618  38.686   5.010   5.740
 4958POPC   C1A62619  38.394   5.254   6.086
 4958POPC   D2A62620  38.359   5.087   6.521
 4958POPC   C3A62621  38.246   5.308   6.913
 4958POPC   C4A62622  38.518   5.417   7.276
 4958POPC   C1B62623  38.677   4.793   6.125
 4958POPC   C2B62624  38.773   4.759   6.562
 4958POPC   C3B62625  38.600   4.682   6.945
 4958POPC   C4B62626  38.374   4.942   7.245
 4959POPC   NC362627  33.500  20.390   5.373
 4959POPC   PO462628  32.866  20.440   5.606
 4959POPC   GL162629  33.240  20.675   5.730
 4959POPC   GL262630  33.435  20.424   5.917
 4959POPC   C1A62631  33.354  20.913   6.102
 4959POPC   D2A62632  33.411  20.688   6.523
 4959POPC   C3A62633  33.162  20.748   6.911
 4959POPC   C4A62634  32.870  20.967   7.178
 4959POPC   C1B62635  33.039  20.534   6.206
 4959POPC   C2B62636  32.812  20.515   6.574
 4959POPC   C3B62637  32.870  20.274   6.918
 4959POPC   C4B62638  32.656  20.505   7.201
 4960POPC   NC362639  25.144  34.353   5.380
 4960POPC   PO462640  25.577  34.802   5.447
 4960POPC   GL162641  25.406  34.555   5.772
 4960POPC   GL262642  25.072  34.683   5.768
 4960POPC   C1A62643  25.556  34.459   6.184
 4960POPC   D2A62644  25.681  34.691   6.540
 4960POPC   C3A62645  25.524  34.572   6.918
 4960POPC   C4A62646  25.470  34.766   7.304
 4960POPC   C1B62647  25.037  34.520   6.171
 4960POPC   C2B62648  25.157  34.716   6.537
 4960POPC   C3B62649  25.024  34.701   6.955
 4960POPC   C4B62650  25.109  34.377   7.246
 4961POPC   NC362651  17.866  31.337   5.462
 4961POPC   PO462652  17.329  31.869   5.454
 4961POPC   GL162653  17.511  31.611   5.777
 4961POPC   GL262654  17.262  31.386   5.985
 4961POPC   C1A62655  17.745  31.510   6.126
 4961POPC   D2A62656  17.633  31.529   6.536
 4961POPC   C3A62657  17.720  31.805   6.842
 4961POPC   C4A62658  17.698  31.896   7.262
 4961POPC   C1B62659  17.384  31.098   6.335
 4961POPC   C2B62660  17.455  31.145   6.794
 4961POPC   C3B62661  17.634  31.372   7.132
 4961POPC   C4B62662  17.395  31.552   7.477
 4962POPC   NC362663   9.515   9.175   5.124
 4962POPC   PO462664   9.712   8.627   5.338
 4962POPC   GL162665   9.709   8.799   5.750
 4962POPC   GL262666  10.059   8.770   5.835
 4962POPC   C1A62667   9.471   8.823   6.156
 4962POPC   D2A62668   9.401   9.172   6.466
 4962POPC   C3A62669   9.579   9.090   6.876
 4962POPC   C4A62670   9.601   8.888   7.275
 4962POPC   C1B62671   9.942   9.084   6.175
 4962POPC   C2B62672  10.043   9.040   6.624
 4962POPC   C3B62673  10.033   9.209   7.073
 4962POPC   C4B62674  10.034   9.071   7.514
 4963POPC   NC362675   4.220   8.374   5.446
 4963POPC   PO462676   4.248   7.705   5.299
 4963POPC   GL162677   4.134   7.951   5.720
 4963POPC   GL262678   4.009   8.329   5.884
 4963POPC   C1A62679   4.196   7.960   6.161
 4963POPC   D2A62680   4.488   8.089   6.438
 4963POPC   C3A62681   4.351   7.937   6.796
 4963POPC   C4A62682   4.564   7.887   7.168
 4963POPC   C1B62683   4.286   8.497   6.168
 4963POPC   C2B62684   4.292   8.556   6.607
 4963POPC   C3B62685   4.369   8.390   7.028
 4963POPC   C4B62686   4.110   8.093   7.269
 4964POPC   NC362687  25.545  26.584   5.473
 4964POPC   PO462688  24.917  26.902   5.365
 4964POPC   GL162689  25.195  26.886   5.809
 4964POPC   GL262690  25.457  26.638   5.960
 4964POPC   C1A62691  25.023  26.601   6.218
 4964POPC   D2A62692  25.195  26.572   6.660
 4964POPC   C3A62693  25.074  26.856   7.018
 4964POPC   C4A62694  24.827  26.758   7.409
 4964POPC   C1B62695  25.392  26.928   6.288
 4964POPC   C2B62696  25.593  26.889   6.638
 4964POPC   C3B62697  25.581  26.739   7.012
 4964POPC   C4B62698  25.487  27.139   7.178
 4965POPC   NC362699   2.230  30.372   5.390
 4965POPC   PO462700   1.554  30.542   5.448
 4965POPC   GL162701   1.825  30.756   5.767
 4965POPC   GL262702   2.172  30.908   5.668
 4965POPC   C1A62703   1.985  30.683   6.192
 4965POPC   D2A62704   2.085  30.452   6.565
 4965POPC   C3A62705   2.089  30.682   6.932
 4965POPC   C4A62706   1.752  30.697   7.223
 4965POPC   C1B62707   2.316  31.058   6.074
 4965POPC   C2B62708   2.317  31.000   6.514
 4965POPC   C3B62709   2.443  31.091   6.936
 4965POPC   C4B62710   2.187  31.034   7.294
 4966POPC   NC362711  36.833  25.625   5.399
 4966POPC   PO462712  36.907  25.007   5.202
 4966POPC   GL162713  36.866  25.142   5.665
 4966POPC   GL262714  37.063  25.426   5.833
 4966POPC   C1A62715  36.869  25.072   6.151
 4966POPC   D2A62716  37.151  25.184   6.520
 4966POPC   C3A62717  37.031  25.332   6.975
 4966POPC   C4A62718  36.777  25.184   7.342
 4966POPC   C1B62719  36.779  25.603   6.207
 4966POPC   C2B62720  36.613  25.646   6.662
 4966POPC   C3B62721  36.631  25.641   7.151
 4966POPC   C4B62722  36.527  25.546   7.620
 4967POPC   NC362723  21.228  18.404   5.336
 4967POPC   PO462724  21.642  17.915   5.350
 4967POPC   GL162725  21.312  18.061   5.709
 4967POPC   GL262726  21.270  18.416   5.830
 4967POPC   C1A62727  21.246  18.003   6.163
 4967POPC   D2A62728  21.505  18.072   6.531
 4967POPC   C3A62729  21.404  18.022   6.950
 4967POPC   C4A62730  21.031  17.880   7.109
 4967POPC   C1B62731  21.567  18.425   6.147
 4967POPC   C2B62732  21.636  18.563   6.564
 4967POPC   C3B62733  21.360  18.516   6.858
 4967POPC   C4B62734  21.475  18.479   7.260
 4968POPC   NC362735  21.998  40.147   5.234
 4968POPC   PO462736  22.257  39.537   5.416
 4968POPC   GL162737  22.263  39.953   5.700
 4968POPC   GL262738  21.931  40.143   5.730
 4968POPC   C1A62739  22.220  40.198   6.134
 4968POPC   D2A62740  22.407  40.359   6.499
 4968POPC   C3A62741  22.325  40.178   6.900
 4968POPC   C4A62742  22.179  40.348   7.292
 4968POPC   C1B62743  21.925  39.781   6.047
 4968POPC   C2B62744  21.847  39.667   6.508
 4968POPC   C3B62745  21.915  39.841   6.930
 4968POPC   C4B62746  22.196  39.838   7.262
 4969POPC   NC362747  30.272  14.107   5.522
 4969POPC   PO462748  29.871  13.600   5.405
 4969POPC   GL162749  30.128  13.663   5.775
 4969POPC   GL262750  29.968  13.945   5.892
 4969POPC   C1A62751  30.219  13.537   6.244
 4969POPC   D2A62752  29.952  13.259   6.530
 4969POPC   C3A62753  29.933  13.302   6.966
 4969POPC   C4A62754  30.281  13.352   7.210
 4969POPC   C1B62755  29.784  13.802   6.264
 4969POPC   C2B62756  29.919  13.761   6.703
 4969POPC   C3B62757  29.732  13.830   7.125
 4969POPC   C4B62758  29.512  13.654   7.506
 4970POPC   NC362759  39.354   0.018   5.386
 4970POPC   PO462760  39.367   0.635   5.457
 4970POPC   GL162761  39.324   0.388   5.801
 4970POPC   GL262762  39.628   0.238   5.739
 4970POPC   C1A62763  39.242   0.467   6.245
 4970POPC   D2A62764  38.859   0.544   6.503
 4970POPC   C3A62765  38.904   0.472   6.952
 4970POPC   C4A62766  39.326   0.490   7.119
 4970POPC   C1B62767  39.624   0.113   6.125
 4970POPC   C2B62768  39.561   0.141   6.525
 4970POPC   C3B62769  39.705   0.227   6.893
 4970POPC   C4B62770  39.559   0.022   7.221
 4971POPC   NC362771  37.991  23.526   5.569
 4971POPC   PO462772  38.450  23.981   5.416
 4971POPC   GL162773  38.498  23.687   5.740
 4971POPC   GL262774  38.229  23.783   5.956
 4971POPC   C1A62775  38.645  23.517   6.136
 4971POPC   D2A62776  38.472  23.485   6.586
 4971POPC   C3A62777  38.703  23.519   6.998
 4971POPC   C4A62778  38.631  23.560   7.459
 4971POPC   C1B62779  38.479  23.965   6.308
 4971POPC   C2B62780  38.540  23.982   6.759
 4971POPC   C3B62781  38.369  23.896   7.167
 4971POPC   C4B62782  38.510  24.090   7.539
 4972POPC   NC362783   1.403  38.200   5.435
 4972POPC   PO462784   0.978  38.704   5.268
 4972POPC   GL162785   1.033  38.547   5.727
 4972POPC   GL262786   1.311  38.391   5.910
 4972POPC   C1A62787   1.007  38.700   6.185
 4972POPC   D2A62788   1.230  38.615   6.582
 4972POPC   C3A62789   0.947  38.599   6.932
 4972POPC   C4A62790   0.794  38.860   7.290
 4972POPC   C1B62791   1.617  38.457   6.243
 4972POPC   C2B62792   1.829  38.365   6.636
 4972POPC   C3B62793   1.560  38.480   6.989
 4972POPC   C4B62794   1.258  38.551   7.316
 4973POPC   NC362795  21.418   3.186   5.364
 4973POPC   PO462796  21.214   3.843   5.510
 4973POPC   GL162797  21.213   3.701   5.913
 4973POPC   GL262798  21.440   3.449   5.796
 4973POPC   C1A62799  21.088   3.669   6.370
 4973POPC   D2A62800  21.019   3.515   6.780
 4973POPC   C3A62801  21.244   3.749   7.079
 4973POPC   C4A62802  21.597   3.698   7.296
 4973POPC   C1B62803  21.321   3.263   6.171
 4973POPC   C2B62804  21.499   3.355   6.539
 4973POPC   C3B62805  21.534   3.323   6.941
 4973POPC   C4B62806  21.203   3.231   7.197
 4974POPC   NC362807  17.527   4.533   5.017
 4974POPC   PO462808  17.374   4.182   5.572
 4974POPC   GL162809  17.448   4.335   5.940
 4974POPC   GL262810  17.239   4.632   5.909
 4974POPC   C1A62811  17.586   4.169   6.322
 4974POPC   D2A62812  17.835   4.250   6.671
 4974POPC   C3A62813  17.630   4.075   7.018
 4974POPC   C4A62814  17.539   4.355   7.304
 4974POPC   C1B62815  17.245   4.573   6.330
 4974POPC   C2B62816  17.325   4.372   6.715
 4974POPC   C3B62817  17.155   4.552   7.044
 4974POPC   C4B62818  17.051   4.389   7.458
 4975POPC   NC362819  43.544   9.183   5.219
 4975POPC   PO462820  44.086   8.768   5.449
 4975POPC   GL162821  43.978   9.102   5.780
 4975POPC   GL262822  43.907   8.800   5.946
 4975POPC   C1A62823  43.844   9.241   6.264
 4975POPC   D2A62824  43.973   9.386   6.716
 4975POPC   C3A62825  43.845   9.210   7.120
 4975POPC   C4A62826  43.691   8.822   7.275
 4975POPC   C1B62827  44.176   8.644   6.270
 4975POPC   C2B62828  44.042   8.765   6.689
 4975POPC   C3B62829  44.081   8.545   7.070
 4975POPC   C4B62830  44.109   8.406   7.502
 4976POPC   NC362831  18.186  18.006   5.639
 4976POPC   PO462832  18.575  17.447   5.477
 4976POPC   GL162833  18.297  17.538   5.840
 4976POPC   GL262834  18.555  17.752   5.926
 4976POPC   C1A62835  18.268  17.721   6.336
 4976POPC   D2A62836  18.272  17.797   6.823
 4976POPC   C3A62837  17.976  17.630   7.136
 4976POPC   C4A62838  17.848  17.521   7.578
 4976POPC   C1B62839  18.591  17.347   6.189
 4976POPC   C2B62840  18.381  17.236   6.561
 4976POPC   C3B62841  18.397  17.317   6.982
 4976POPC   C4B62842  18.791  17.199   7.074
 4977POPC   NC362843  34.761  24.119   5.352
 4977POPC   PO462844  34.534  24.753   5.334
 4977POPC   GL162845  34.631  24.499   5.673
 4977POPC   GL262846  34.343  24.524   5.844
 4977POPC   C1A62847  34.752  24.274   6.093
 4977POPC   D2A62848  34.681  24.079   6.504
 4977POPC   C3A62849  34.544  24.320   6.847
 4977POPC   C4A62850  34.739  24.370   7.243
 4977POPC   C1B62851  34.654  24.789   6.092
 4977POPC   C2B62852  34.702  24.684   6.513
 4977POPC   C3B62853  34.658  24.819   6.952
 4977POPC   C4B62854  34.323  24.726   7.248
 4978POPC   NC362855  27.547  37.250   5.398
 4978POPC   PO462856  27.842  37.893   5.370
 4978POPC   GL162857  27.607  37.726   5.739
 4978POPC   GL262858  27.722  38.057   5.865
 4978POPC   C1A62859  27.380  37.576   6.146
 4978POPC   D2A62860  27.514  37.337   6.526
 4978POPC   C3A62861  27.540  37.507   6.959
 4978POPC   C4A62862  27.352  37.670   7.333
 4978POPC   C1B62863  27.616  38.011   6.260
 4978POPC   C2B62864  27.392  37.871   6.608
 4978POPC   C3B62865  27.435  38.046   7.014
 4978POPC   C4B62866  27.607  38.129   7.385
 4979POPC   NC362867  43.868  19.546   5.287
 4979POPC   PO462868  44.156  18.952   5.326
 4979POPC   GL162869  44.048  19.131   5.687
 4979POPC   GL262870  43.699  19.096   5.799
 4979POPC   C1A62871  44.087  19.016   6.126
 4979POPC   D2A62872  43.776  19.165   6.422
 4979POPC   C3A62873  43.837  19.140   6.903
 4979POPC   C4A62874  44.018  19.246   7.308
 4979POPC   C1B62875  43.388  18.947   6.122
 4979POPC   C2B62876  43.417  18.837   6.562
 4979POPC   C3B62877  43.426  18.879   7.022
 4979POPC   C4B62878  43.722  18.741   7.376
 4980POPC   NC362879  29.883   6.857   5.110
 4980POPC   PO462880  29.654   6.390   5.512
 4980POPC   GL162881  29.860   6.482   5.837
 4980POPC   GL262882  30.099   6.717   5.788
 4980POPC   C1A62883  29.846   6.628   6.242
 4980POPC   D2A62884  30.145   6.666   6.544
 4980POPC   C3A62885  29.982   6.557   6.928
 4980POPC   C4A62886  29.675   6.727   7.198
 4980POPC   C1B62887  30.366   6.900   6.129
 4980POPC   C2B62888  30.398   7.131   6.550
 4980POPC   C3B62889  30.156   7.114   6.932
 4980POPC   C4B62890  30.161   6.854   7.292
 4981POPC   NC362891  28.893  24.920   5.568
 4981POPC   PO462892  29.265  25.466   5.346
 4981POPC   GL162893  29.124  25.446   5.762
 4981POPC   GL262894  28.784  25.348   5.808
 4981POPC   C1A62895  29.114  25.274   6.192
 4981POPC   D2A62896  28.862  25.327   6.554
 4981POPC   C3A62897  29.126  25.298   6.887
 4981POPC   C4A62898  29.060  25.042   7.239
 4981POPC   C1B62899  28.727  25.601   6.145
 4981POPC   C2B62900  28.854  25.842   6.534
 4981POPC   C3B62901  28.786  25.656   6.967
 4981POPC   C4B62902  28.799  25.523   7.408
 4982POPC   NC362903  24.266   7.610   5.320
 4982POPC   PO462904  24.391   7.006   5.499
 4982POPC   GL162905  24.509   7.401   5.743
 4982POPC   GL262906  24.182   7.490   5.818
 4982POPC   C1A62907  24.637   7.652   6.139
 4982POPC   D2A62908  24.711   7.506   6.604
 4982POPC   C3A62909  24.481   7.441   7.027
 4982POPC   C4A62910  24.567   7.522   7.495
 4982POPC   C1B62911  24.280   7.306   6.222
 4982POPC   C2B62912  24.075   7.168   6.600
 4982POPC   C3B62913  24.163   7.014   7.029
 4982POPC   C4B62914  24.114   7.277   7.409
 4983POPC   NC362915  11.260  11.965   5.097
 4983POPC   PO462916  11.818  12.099   5.496
 4983POPC   GL162917  11.390  12.148   5.640
 4983POPC   GL262918  11.387  11.854   5.831
 4983POPC   C1A62919  11.226  12.303   6.049
 4983POPC   D2A62920  11.353  12.367   6.473
 4983POPC   C3A62921  11.209  12.146   6.831
 4983POPC   C4A62922  11.252  12.138   7.259
 4983POPC   C1B62923  11.612  11.859   6.250
 4983POPC   C2B62924  11.633  11.876   6.718
 4983POPC   C3B62925  11.612  11.756   7.153
 4983POPC   C4B62926  11.652  12.010   7.519
 4984POPC   NC362927  20.346   5.778   5.415
 4984POPC   PO462928  19.667   5.775   5.276
 4984POPC   GL162929  19.740   5.854   5.766
 4984POPC   GL262930  20.113   5.880   5.854
 4984POPC   C1A62931  19.771   5.858   6.256
 4984POPC   D2A62932  19.611   6.041   6.667
 4984POPC   C3A62933  19.726   5.796   7.021
 4984POPC   C4A62934  19.944   5.486   7.271
 4984POPC   C1B62935  20.273   6.072   6.249
 4984POPC   C2B62936  20.149   6.089   6.710
 4984POPC   C3B62937  20.177   6.053   7.173
 4984POPC   C4B62938  20.190   5.811   7.566
 4985POPC   NC362939  23.678   4.642   5.497
 4985POPC   PO462940  23.908   4.055   5.364
 4985POPC   GL162941  23.893   4.257   5.739
 4985POPC   GL262942  23.507   4.209   5.710
 4985POPC   C1A62943  24.035   4.503   6.127
 4985POPC   D2A62944  24.140   4.673   6.561
 4985POPC   C3A62945  23.840   4.617   6.869
 4985POPC   C4A62946  23.918   4.243   7.093
 4985POPC   C1B62947  23.610   4.154   6.130
 4985POPC   C2B62948  23.565   4.367   6.484
 4985POPC   C3B62949  23.488   4.173   6.843
 4985POPC   C4B62950  23.428   4.299   7.242
 4986POPC   NC362951  43.975  21.142   5.635
 4986POPC   PO462952  44.001  21.796   5.403
 4986POPC   GL162953  44.095  21.717   5.816
 4986POPC   GL262954  43.752  21.561   5.862
 4986POPC   C1A62955  44.084  21.611   6.259
 4986POPC   D2A62956  43.923  21.311   6.578
 4986POPC   C3A62957  44.177  21.235   6.937
 4986POPC   C4A62958  44.087  21.365   7.326
 4986POPC   C1B62959  43.563  21.282   6.203
 4986POPC   C2B62960  43.425  21.140   6.632
 4986POPC   C3B62961  43.660  21.200   7.033
 4986POPC   C4B62962  43.608  21.522   7.368
 4987POPC   NC362963   0.683  42.267   5.484
 4987POPC   PO462964   0.055  42.722   5.464
 4987POPC   GL162965   0.256  42.411   5.798
 4987POPC   GL262966   0.587  42.352   5.956
 4987POPC   C1A62967   0.237  42.177   6.233
 4987POPC   D2A62968   0.450  42.378   6.571
 4987POPC   C3A62969   0.304  42.193   6.939
 4987POPC   C4A62970   0.226  42.390   7.317
 4987POPC   C1B62971   0.787  42.069   6.263
 4987POPC   C2B62972   0.770  42.020   6.726
 4987POPC   C3B62973   0.775  42.356   7.025
 4987POPC   C4B62974   0.725  42.494   7.452
 4988POPC   NC362975  17.950  13.015   5.076
 4988POPC   PO462976  18.404  12.804   5.488
 4988POPC   GL162977  18.441  12.725   5.885
 4988POPC   GL262978  18.598  13.037   5.970
 4988POPC   C1A62979  18.167  12.601   6.219
 4988POPC   D2A62980  17.949  12.673   6.627
 4988POPC   C3A62981  18.234  12.712   6.994
 4988POPC   C4A62982  18.176  12.656   7.444
 4988POPC   C1B62983  18.191  13.143   6.159
 4988POPC   C2B62984  18.132  13.308   6.562
 4988POPC   C3B62985  18.079  13.249   6.986
 4988POPC   C4B62986  18.313  13.144   7.342
 4989POPC   NC362987  32.581  17.194   4.977
 4989POPC   PO462988  32.315  16.743   5.352
 4989POPC   GL162989  32.237  16.902   5.779
 4989POPC   GL262990  32.501  16.712   5.855
 4989POPC   C1A62991  32.260  16.905   6.278
 4989POPC   D2A62992  32.600  16.862   6.619
 4989POPC   C3A62993  32.384  16.866   7.017
 4989POPC   C4A62994  31.924  16.748   7.024
 4989POPC   C1B62995  32.620  16.531   6.213
 4989POPC   C2B62996  32.445  16.293   6.535
 4989POPC   C3B62997  32.345  16.372   6.952
 4989POPC   C4B62998  32.477  16.318   7.349
 4990POPC   NC362999  30.095   4.977   5.455
 4990POPC   PO463000  30.714   5.149   5.356
 4990POPC   GL163001  30.622   4.992   5.810
 4990POPC   GL263002  30.351   4.734   5.839
 4990POPC   C1A63003  30.671   5.101   6.266
 4990POPC   D2A63004  30.770   5.332   6.664
 4990POPC   C3A63005  30.874   5.027   6.967
 4990POPC   C4A63006  30.820   4.996   7.394
 4990POPC   C1B63007  30.221   4.813   6.283
 4990POPC   C2B63008  30.354   4.977   6.714
 4990POPC   C3B63009  30.362   4.927   7.182
 4990POPC   C4B63010  30.364   4.813   7.655
 4991POPC   NC363011  27.298   2.050   5.316
 4991POPC   PO463012  26.740   1.746   5.426
 4991POPC   GL163013  27.023   1.846   5.771
 4991POPC   GL263014  26.802   2.093   5.967
 4991POPC   C1A63015  27.144   1.820   6.222
 4991POPC   D2A63016  26.874   1.865   6.595
 4991POPC   C3A63017  27.075   1.989   7.001
 4991POPC   C4A63018  27.147   1.822   7.418
 4991POPC   C1B63019  26.463   2.223   6.248
 4991POPC   C2B63020  26.369   2.023   6.620
 4991POPC   C3B63021  26.559   1.949   7.011
 4991POPC   C4B63022  26.540   2.326   7.217
 4992POPC   NC363023  18.996  14.688   5.374
 4992POPC   PO463024  18.848  13.996   5.488
 4992POPC   GL163025  19.149  14.301   5.705
 4992POPC   GL263026  19.352  14.641   5.728
 4992POPC   C1A63027  19.319  14.298   6.140
 4992POPC   D2A63028  19.101  14.228   6.530
 4992POPC   C3A63029  19.233  14.292   6.935
 4992POPC   C4A63030  18.974  14.445   7.242
 4992POPC   C1B63031  19.197  14.800   6.118
 4992POPC   C2B63032  19.338  14.689   6.503
 4992POPC   C3B63033  19.461  14.746   6.878
 4992POPC   C4B63034  19.359  14.856   7.270
 4993POPC   NC363035  24.581  39.392   5.482
 4993POPC   PO463036  24.295  38.780   5.341
 4993POPC   GL163037  24.342  38.946   5.820
 4993POPC   GL263038  24.398  39.311   5.956
 4993POPC   C1A63039  24.518  38.950   6.278
 4993POPC   D2A63040  24.378  39.190   6.635
 4993POPC   C3A63041  24.578  39.090   7.020
 4993POPC   C4A63042  24.394  39.095   7.423
 4993POPC   C1B63043  24.649  39.510   6.268
 4993POPC   C2B63044  24.598  39.643   6.694
 4993POPC   C3B63045  24.500  39.570   7.142
 4993POPC   C4B63046  24.311  39.831   7.448
 4994POPC   NC363047  24.483  27.130   5.434
 4994POPC   PO463048  24.185  26.541   5.433
 4994POPC   GL163049  24.348  26.788   5.821
 4994POPC   GL263050  24.688  26.895   5.834
 4994POPC   C1A63051  24.476  26.736   6.272
 4994POPC   D2A63052  24.380  26.450   6.607
 4994POPC   C3A63053  24.237  26.612   6.995
 4994POPC   C4A63054  24.338  26.888   7.310
 4994POPC   C1B63055  24.906  27.097   6.148
 4994POPC   C2B63056  24.863  26.966   6.549
 4994POPC   C3B63057  24.565  27.004   6.850
 4994POPC   C4B63058  24.723  27.190   7.193
 4995POPC   NC363059  10.256   9.255   5.570
 4995POPC   PO463060  10.647   8.770   5.382
 4995POPC   GL163061  10.592   8.884   5.808
 4995POPC   GL263062  10.699   9.211   5.875
 4995POPC   C1A63063  10.462   8.899   6.232
 4995POPC   D2A63064  10.726   8.928   6.575
 4995POPC   C3A63065  10.479   9.039   6.902
 4995POPC   C4A63066  10.495   9.005   7.324
 4995POPC   C1B63067  10.749   9.412   6.293
 4995POPC   C2B63068  10.835   9.397   6.741
 4995POPC   C3B63069  10.947   9.120   7.069
 4995POPC   C4B63070  10.939   9.123   7.549
 4996POPC   NC363071  36.676  21.575   5.488
 4996POPC   PO463072  37.245  21.641   5.546
 4996POPC   GL163073  37.007  21.217   5.709
 4996POPC   GL263074  36.633  21.106   5.818
 4996POPC   C1A63075  36.965  21.211   6.182
 4996POPC   D2A63076  37.045  21.498   6.525
 4996POPC   C3A63077  36.737  21.517   6.864
 4996POPC   C4A63078  36.864  21.542   7.279
 4996POPC   C1B63079  36.658  20.828   6.257
 4996POPC   C2B63080  36.807  20.913   6.714
 4996POPC   C3B63081  36.701  21.052   7.166
 4996POPC   C4B63082  36.851  21.150   7.611
 4997POPC   NC363083   2.552  15.598   5.182
 4997POPC   PO463084   2.526  16.343   5.312
 4997POPC   GL163085   2.540  16.109   5.719
 4997POPC   GL263086   2.603  15.729   5.712
 4997POPC   C1A63087   2.720  16.089   6.150
 4997POPC   D2A63088   2.947  16.245   6.511
 4997POPC   C3A63089   2.850  16.062   6.901
 4997POPC   C4A63090   2.647  16.208   7.279
 4997POPC   C1B63091   2.858  15.588   6.094
 4997POPC   C2B63092   2.977  15.686   6.534
 4997POPC   C3B63093   2.956  15.565   6.981
 4997POPC   C4B63094   2.923  15.793   7.369
 4998POPC   NC363095   6.432  44.371   5.506
 4998POPC   PO463096   6.610  43.762   5.400
 4998POPC   GL163097   6.627  43.775   5.834
 4998POPC   GL263098   6.721  44.099   5.826
 4998POPC   C1A63099   6.671  43.818   6.309
 4998POPC   D2A63100   6.969  43.574   6.556
 4998POPC   C3A63101   6.842  43.607   6.962
 4998POPC   C4A63102   6.919  43.740   7.395
 4998POPC   C1B63103   6.878  44.312   6.157
 4998POPC   C2B63104   6.706  44.347   6.527
 4998POPC   C3B63105   6.780  44.117   6.888
 4998POPC   C4B63106   6.576  44.112   7.268
 4999POPC   NC363107  41.015  17.222   5.585
 4999POPC   PO463108  40.561  17.697   5.425
 4999POPC   GL163109  40.622  17.454   5.820
 4999POPC   GL263110  40.951  17.642   5.878
 4999POPC   C1A63111  40.826  17.248   6.218
 4999POPC   D2A63112  41.049  17.227   6.610
 4999POPC   C3A63113  40.786  17.235   6.991
 4999POPC   C4A63114  40.608  17.504   7.316
 4999POPC   C1B63115  40.693  17.753   6.234
 4999POPC   C2B63116  40.651  17.586   6.635
 4999POPC   C3B63117  40.837  17.782   6.969
 4999POPC   C4B63118  40.839  17.952   7.370
 5000POPC   NC363119  13.682  39.631   5.454
 5000POPC   PO463120  14.026  39.018   5.623
 5000POPC   GL163121  13.809  39.286   5.849
 5000POPC   GL263122  13.492  39.276   5.733
 5000POPC   C1A63123  13.771  39.129   6.252
 5000POPC   D2A63124  13.580  39.255   6.608
 5000POPC   C3A63125  13.849  39.250   6.953
 5000POPC   C4A63126  13.763  39.288   7.366
 5000POPC   C1B63127  13.312  39.322   6.147
 5000POPC   C2B63128  13.179  39.544   6.495
 5000POPC   C3B63129  13.304  39.502   6.968
 5000POPC   C4B63130  13.278  39.771   7.350
 5001POPC   NC363131  26.229  19.486   5.533
 5001POPC   PO463132  25.661  19.701   5.310
 5001POPC   GL163133  25.736  19.800   5.745
 5001POPC   GL263134  25.692  20.145   5.884
 5001POPC   C1A63135  26.014  19.733   6.101
 5001POPC   D2A63136  26.212  19.828   6.470
 5001POPC   C3A63137  26.000  19.716   6.812
 5001POPC   C4A63138  26.012  19.899   7.205
 5001POPC   C1B63139  25.756  20.105   6.333
 5001POPC   C2B63140  25.774  20.176   6.770
 5001POPC   C3B63141  25.530  20.194   7.129
 5001POPC   C4B63142  25.635  20.117   7.494
 5002POPC   NC363143  41.366  38.574   5.409
 5002POPC   PO463144  40.808  38.237   5.225
 5002POPC   GL163145  40.939  38.398   5.676
 5002POPC   GL263146  41.000  38.761   5.746
 5002POPC   C1A63147  40.920  38.414   6.167
 5002POPC   D2A63148  40.572  38.452   6.503
 5002POPC   C3A63149  40.704  38.416   6.940
 5002POPC   C4A63150  41.002  38.582   7.207
 5002POPC   C1B63151  40.709  38.878   6.124
 5002POPC   C2B63152  40.855  38.889   6.573
 5002POPC   C3B63153  40.693  38.933   6.982
 5002POPC   C4B63154  40.604  38.792   7.421
 5003POPC   NC363155  41.988  39.357   5.421
 5003POPC   PO463156  42.421  38.865   5.462
 5003POPC   GL163157  42.401  39.209   5.830
 5003POPC   GL263158  42.102  39.438   5.904
 5003POPC   C1A63159  42.375  39.293   6.302
 5003POPC   D2A63160  42.038  39.175   6.607
 5003POPC   C3A63161  42.203  38.957   6.992
 5003POPC   C4A63162  42.384  39.092   7.398
 5003POPC   C1B63163  41.991  39.647   6.311
 5003POPC   C2B63164  42.021  39.660   6.787
 5003POPC   C3B63165  42.289  39.523   7.135
 5003POPC   C4B63166  42.332  39.603   7.583
 5004POPC   NC363167  41.146   6.915   5.514
 5004POPC   PO463168  40.727   6.453   5.492
 5004POPC   GL163169  40.800   6.650   5.860
 5004POPC   GL263170  40.823   7.037   5.897
 5004POPC   C1A63171  40.673   6.719   6.283
 5004POPC   D2A63172  40.739   6.998   6.609
 5004POPC   C3A63173  40.599   6.769   6.966
 5004POPC   C4A63174  40.664   6.371   7.173
 5004POPC   C1B63175  41.158   6.838   6.158
 5004POPC   C2B63176  41.159   6.663   6.531
 5004POPC   C3B63177  41.108   6.845   6.908
 5004POPC   C4B63178  41.072   6.948   7.294
 5005POPC   NC363179  15.261  23.360   5.536
 5005POPC   PO463180  15.424  22.708   5.412
 5005POPC   GL163181  15.157  22.860   5.733
 5005POPC   GL263182  15.465  23.002   5.879
 5005POPC   C1A63183  15.044  22.932   6.177
 5005POPC   D2A63184  15.203  22.951   6.621
 5005POPC   C3A63185  14.882  23.077   6.932
 5005POPC   C4A63186  14.938  22.972   7.358
 5005POPC   C1B63187  15.512  22.652   6.200
 5005POPC   C2B63188  15.555  22.516   6.667
 5005POPC   C3B63189  15.355  22.716   7.058
 5005POPC   C4B63190  15.391  23.145   7.199
 5006POPC   NC363191  28.283  25.981   5.260
 5006POPC   PO463192  28.351  25.422   5.341
 5006POPC   GL163193  28.480  25.788   5.709
 5006POPC   GL263194  28.377  26.190   5.704
 5006POPC   C1A63195  28.597  26.066   6.121
 5006POPC   D2A63196  28.367  26.101   6.502
 5006POPC   C3A63197  28.579  26.110   6.877
 5006POPC   C4A63198  28.548  25.992   7.283
 5006POPC   C1B63199  28.120  26.321   6.110
 5006POPC   C2B63200  27.922  26.336   6.558
 5006POPC   C3B63201  28.092  26.143   6.965
 5006POPC   C4B63202  28.048  26.070   7.422
 5007POPC   NC363203  21.098   8.040   5.506
 5007POPC   PO463204  21.283   7.490   5.214
 5007POPC   GL163205  21.365   7.588   5.671
 5007POPC   GL263206  21.601   7.823   5.812
 5007POPC   C1A63207  21.213   7.414   6.082
 5007POPC   D2A63208  21.308   7.297   6.527
 5007POPC   C3A63209  21.062   7.087   6.833
 5007POPC   C4A63210  21.199   7.289   7.183
 5007POPC   C1B63211  21.591   7.725   6.261
 5007POPC   C2B63212  21.385   7.795   6.678
 5007POPC   C3B63213  21.509   7.686   7.099
 5007POPC   C4B63214  21.889   7.795   7.315
 5008POPC   NC363215  14.888  21.002   5.444
 5008POPC   PO463216  15.350  20.569   5.394
 5008POPC   GL163217  15.392  20.568   5.824
 5008POPC   GL263218  15.055  20.666   5.820
 5008POPC   C1A63219  15.290  20.536   6.270
 5008POPC   D2A63220  14.942  20.445   6.529
 5008POPC   C3A63221  14.967  20.347   6.940
 5008POPC   C4A63222  15.252  20.498   7.205
 5008POPC   C1B63223  14.774  20.722   6.138
 5008POPC   C2B63224  14.606  20.853   6.489
 5008POPC   C3B63225  14.766  20.807   6.862
 5008POPC   C4B63226  14.817  20.752   7.256
 5009POPC   NC363227  11.381  31.562   5.439
 5009POPC   PO463228  11.057  31.018   5.702
 5009POPC   GL163229  11.182  31.379   5.896
 5009POPC   GL263230  11.543  31.317   5.900
 5009POPC   C1A63231  11.208  31.373   6.342
 5009POPC   D2A63232  11.306  31.126   6.697
 5009POPC   C3A63233  11.113  31.300   7.036
 5009POPC   C4A63234  10.882  31.301   7.408
 5009POPC   C1B63235  11.504  31.729   6.118
 5009POPC   C2B63236  11.387  31.812   6.564
 5009POPC   C3B63237  11.565  31.636   6.953
 5009POPC   C4B63238  11.579  31.242   7.196
 5010POPC   NC363239  22.618  25.623   5.465
 5010POPC   PO463240  22.525  24.903   5.395
 5010POPC   GL163241  22.791  25.174   5.683
 5010POPC   GL263242  22.944  24.901   5.839
 5010POPC   C1A63243  22.939  25.324   6.116
 5010POPC   D2A63244  23.126  25.394   6.528
 5010POPC   C3A63245  22.853  25.385   6.856
 5010POPC   C4A63246  22.697  25.420   7.256
 5010POPC   C1B63247  23.115  24.802   6.242
 5010POPC   C2B63248  23.042  24.895   6.679
 5010POPC   C3B63249  22.847  24.931   7.096
 5010POPC   C4B63250  22.988  25.098   7.519
 5011POPC   NC363251  36.599  35.595   5.415
 5011POPC   PO463252  36.802  34.895   5.422
 5011POPC   GL163253  36.943  35.122   5.786
 5011POPC   GL263254  36.898  35.487   5.815
 5011POPC   C1A63255  36.967  35.095   6.229
 5011POPC   D2A63256  36.841  35.386   6.510
 5011POPC   C3A63257  36.737  35.348   6.946
 5011POPC   C4A63258  37.025  35.269   7.263
 5011POPC   C1B63259  37.229  35.565   6.103
 5011POPC   C2B63260  37.227  35.703   6.533
 5011POPC   C3B63261  37.166  35.710   6.982
 5011POPC   C4B63262  37.281  35.702   7.425
 5012POPC   NC363263  19.947  24.051   5.649
 5012POPC   PO463264  20.074  24.773   5.388
 5012POPC   GL163265  19.868  24.601   5.734
 5012POPC   GL263266  19.511  24.533   5.742
 5012POPC   C1A63267  19.840  24.605   6.155
 5012POPC   D2A63268  19.892  24.302   6.444
 5012POPC   C3A63269  20.036  24.475   6.777
 5012POPC   C4A63270  20.032  24.574   7.164
 5012POPC   C1B63271  19.481  24.252   6.130
 5012POPC   C2B63272  19.473  24.017   6.551
 5012POPC   C3B63273  19.598  24.208   6.887
 5012POPC   C4B63274  19.689  24.220   7.263
 5013POPC   NC363275   0.041  40.115   5.173
 5013POPC   PO463276  44.654  40.308   5.615
 5013POPC   GL163277  44.684  40.272   5.987
 5013POPC   GL263278  44.945  40.029   5.958
 5013POPC   C1A63279  44.542  40.028   6.308
 5013POPC   D2A63280  44.795  39.897   6.648
 5013POPC   C3A63281  44.525  39.986   6.931
 5013POPC   C4A63282  44.362  39.730   7.223
 5013POPC   C1B63283   0.085  40.287   6.295
 5013POPC   C2B63284   0.106  40.313   6.726
 5013POPC   C3B63285   0.052  40.121   7.099
 5013POPC   C4B63286  44.894  39.737   7.179
 5014POPC   NC363287  21.459   0.703   5.579
 5014POPC   PO463288  21.371   0.066   5.367
 5014POPC   GL163289  21.250   0.304   5.829
 5014POPC   GL263290  21.195   0.711   5.995
 5014POPC   C1A63291  21.509   0.362   6.226
 5014POPC   D2A63292  21.522   0.143   6.630
 5014POPC   C3A63293  21.553   0.394   6.968
 5014POPC   C4A63294  21.444   0.456   7.388
 5014POPC   C1B63295  21.039   0.518   6.337
 5014POPC   C2B63296  21.082   0.426   6.769
 5014POPC   C3B63297  20.972   0.327   7.206
 5014POPC   C4B63298  20.995   0.567   7.640
 5015POPC   NC363299  31.482  40.517   5.410
 5015POPC   PO463300  31.807  40.318   5.976
 5015POPC   GL163301  31.629  40.725   5.850
 5015POPC   GL263302  31.787  41.061   5.776
 5015POPC   C1A63303  31.319  40.841   6.138
 5015POPC   D2A63304  31.224  40.638   6.515
 5015POPC   C3A63305  31.479  40.647   6.897
 5015POPC   C4A63306  31.352  40.726   7.336
 5015POPC   C1B63307  31.797  41.002   6.233
 5015POPC   C2B63308  31.654  41.090   6.638
 5015POPC   C3B63309  31.805  41.029   7.062
 5015POPC   C4B63310  31.705  41.065   7.500
 5016POPC   NC363311  33.375  32.194   5.316
 5016POPC   PO463312  33.972  31.833   5.407
 5016POPC   GL163313  33.691  32.062   5.716
 5016POPC   GL263314  33.609  32.399   5.772
 5016POPC   C1A63315  33.799  32.105   6.162
 5016POPC   D2A63316  34.054  32.092   6.518
 5016POPC   C3A63317  33.862  32.190   6.896
 5016POPC   C4A63318  33.894  32.137   7.321
 5016POPC   C1B63319  33.781  32.606   6.084
 5016POPC   C2B63320  33.868  32.583   6.486
 5016POPC   C3B63321  34.170  32.576   6.769
 5016POPC   C4B63322  34.030  32.632   7.178
 5017POPC   NC363323  13.863  12.653   5.367
 5017POPC   PO463324  13.306  13.024   5.528
 5017POPC   GL163325  13.643  12.882   5.798
 5017POPC   GL263326  13.962  13.036   5.770
 5017POPC   C1A63327  13.748  12.742   6.226
 5017POPC   D2A63328  13.526  12.846   6.618
 5017POPC   C3A63329  13.789  12.705   6.941
 5017POPC   C4A63330  13.831  12.499   7.330
 5017POPC   C1B63331  13.855  13.222   6.165
 5017POPC   C2B63332  13.958  13.131   6.579
 5017POPC   C3B63333  13.747  13.226   6.940
 5017POPC   C4B63334  13.649  13.051   7.303
 5018POPC   NC363335  12.472  13.133   5.377
 5018POPC   PO463336  11.969  13.643   5.465
 5018POPC   GL163337  11.816  13.612   5.855
 5018POPC   GL263338  12.187  13.704   5.961
 5018POPC   C1A63339  11.778  13.737   6.258
 5018POPC   D2A63340  12.123  13.722   6.532
 5018POPC   C3A63341  11.955  13.710   6.936
 5018POPC   C4A63342  12.125  13.754   7.343
 5018POPC   C1B63343  12.384  13.389   6.226
 5018POPC   C2B63344  12.276  13.259   6.657
 5018POPC   C3B63345  12.383  13.422   7.060
 5018POPC   C4B63346  12.347  13.354   7.528
 5019POPC   NC363347  41.771  34.049   5.579
 5019POPC   PO463348  41.277  33.599   5.435
 5019POPC   GL163349  41.487  33.704   5.812
 5019POPC   GL263350  41.873  33.609   5.836
 5019POPC   C1A63351  41.359  33.895   6.177
 5019POPC   D2A63352  41.191  33.773   6.544
 5019POPC   C3A63353  41.404  33.819   6.909
 5019POPC   C4A63354  41.231  33.924   7.261
 5019POPC   C1B63355  41.858  33.851   6.216
 5019POPC   C2B63356  41.905  33.912   6.657
 5019POPC   C3B63357  41.908  34.002   7.063
 5019POPC   C4B63358  41.720  33.756   7.387
 5020POPC   NC363359  33.663  28.445   4.817
 5020POPC   PO463360  33.448  28.145   5.445
 5020POPC   GL163361  33.704  28.466   5.702
 5020POPC   GL263362  34.009  28.363   5.831
 5020POPC   C1A63363  33.731  28.585   6.170
 5020POPC   D2A63364  33.618  28.320   6.509
 5020POPC   C3A63365  33.740  28.462   6.888
 5020POPC   C4A63366  33.812  28.552   7.273
 5020POPC   C1B63367  33.784  28.065   6.082
 5020POPC   C2B63368  33.859  27.873   6.474
 5020POPC   C3B63369  33.888  27.964   6.860
 5020POPC   C4B63370  33.907  28.047   7.237
 5021POPC   NC363371  26.981  21.571   5.271
 5021POPC   PO463372  26.461  21.175   5.469
 5021POPC   GL163373  26.766  21.333   5.775
 5021POPC   GL263374  27.006  21.601   5.789
 5021POPC   C1A63375  26.909  21.249   6.202
 5021POPC   D2A63376  27.100  21.360   6.577
 5021POPC   C3A63377  26.967  21.162   6.953
 5021POPC   C4A63378  26.959  21.074   7.410
 5021POPC   C1B63379  26.917  21.779   6.209
 5021POPC   C2B63380  26.923  21.924   6.628
 5021POPC   C3B63381  27.027  21.678   6.981
 5021POPC   C4B63382  26.747  21.504   7.270
 5022POPC   NC363383  35.407  31.249   5.433
 5022POPC   PO463384  36.047  31.580   5.303
 5022POPC   GL163385  36.243  31.495   5.716
 5022POPC   GL263386  36.187  31.834   5.853
 5022POPC   C1A63387  36.410  31.505   6.177
 5022POPC   D2A63388  36.438  31.833   6.519
 5022POPC   C3A63389  36.326  31.705   6.943
 5022POPC   C4A63390  36.463  31.409   7.240
 5022POPC   C1B63391  35.897  31.602   6.125
 5022POPC   C2B63392  35.965  31.539   6.566
 5022POPC   C3B63393  35.799  31.719   6.940
 5022POPC   C4B63394  35.920  31.475   7.271
 5023POPC   NC363395  35.022  25.799   5.488
 5023POPC   PO463396  35.496  26.253   5.468
 5023POPC   GL163397  35.219  26.145   5.785
 5023POPC   GL263398  35.317  25.801   5.944
 5023POPC   C1A63399  35.089  26.196   6.164
 5023POPC   D2A63400  35.262  26.042   6.499
 5023POPC   C3A63401  35.321  26.281   6.865
 5023POPC   C4A63402  35.514  26.453   7.251
 5023POPC   C1B63403  35.621  25.720   6.334
 5023POPC   C2B63404  35.583  25.772   6.780
 5023POPC   C3B63405  35.136  25.800   6.931
 5023POPC   C4B63406  35.292  25.960   7.268
 5024POPC   NC363407  22.418  19.665   5.257
 5024POPC   PO463408  22.103  20.299   5.211
 5024POPC   GL163409  21.991  20.035   5.628
 5024POPC   GL263410  22.115  19.675   5.678
 5024POPC   C1A63411  22.010  19.913   6.110
 5024POPC   D2A63412  21.926  19.727   6.521
 5024POPC   C3A63413  21.811  19.985   6.842
 5024POPC   C4A63414  21.860  19.896   7.256
 5024POPC   C1B63415  22.468  19.728   5.988
 5024POPC   C2B63416  22.415  19.652   6.449
 5024POPC   C3B63417  22.362  19.833   6.853
 5024POPC   C4B63418  22.336  19.712   7.264
 5025POPC   NC363419  16.192  43.244   5.403
 5025POPC   PO463420  15.598  43.277   5.413
 5025POPC   GL163421  15.808  43.136   5.800
 5025POPC   GL263422  16.049  42.862   5.797
 5025POPC   C1A63423  15.850  43.288   6.236
 5025POPC   D2A63424  15.737  43.617   6.524
 5025POPC   C3A63425  15.956  43.648   6.891
 5025POPC   C4A63426  16.073  43.342   7.164
 5025POPC   C1B63427  16.065  42.831   6.289
 5025POPC   C2B63428  16.095  43.030   6.728
 5025POPC   C3B63429  16.239  42.874   7.164
 5025POPC   C4B63430  16.053  42.539   7.459
 5026POPC   NC363431  21.214   7.076   5.397
 5026POPC   PO463432  21.458   6.490   5.308
 5026POPC   GL163433  21.536   6.441   5.748
 5026POPC   GL263434  21.452   6.784   5.851
 5026POPC   C1A63435  21.332   6.401   6.175
 5026POPC   D2A63436  21.234   6.731   6.490
 5026POPC   C3A63437  21.299   6.594   6.920
 5026POPC   C4A63438  21.254   6.802   7.288
 5026POPC   C1B63439  21.612   7.056   6.201
 5026POPC   C2B63440  21.778   7.079   6.598
 5026POPC   C3B63441  21.574   7.033   6.951
 5026POPC   C4B63442  21.761   6.967   7.346
 5027POPC   NC363443  39.347   2.603   5.609
 5027POPC   PO463444  39.013   3.114   5.402
 5027POPC   GL163445  39.146   3.017   5.857
 5027POPC   GL263446  38.810   2.856   5.946
 5027POPC   C1A63447  39.455   2.844   6.211
 5027POPC   D2A63448  39.550   2.618   6.618
 5027POPC   C3A63449  39.165   2.623   6.865
 5027POPC   C4A63450  38.927   2.636   7.258
 5027POPC   C1B63451  38.953   2.868   6.397
 5027POPC   C2B63452  39.289   3.075   6.661
 5027POPC   C3B63453  39.438   3.012   7.098
 5027POPC   C4B63454  39.337   3.147   7.506
 5028POPC   NC363455   5.023  18.656   5.166
 5028POPC   PO463456   5.535  18.996   5.376
 5028POPC   GL163457   5.118  18.916   5.618
 5028POPC   GL263458   5.291  19.071   5.842
 5028POPC   C1A63459   4.845  19.003   6.033
 5028POPC   D2A63460   5.042  18.934   6.453
 5028POPC   C3A63461   4.796  18.966   6.833
 5028POPC   C4A63462   4.901  18.955   7.243
 5028POPC   C1B63463   5.248  19.401   6.141
 5028POPC   C2B63464   5.317  19.346   6.571
 5028POPC   C3B63465   5.331  19.055   6.896
 5028POPC   C4B63466   5.331  19.215   7.285
 5029POPC   NC363467   5.681  11.243   5.526
 5029POPC   PO463468   6.003  11.831   5.410
 5029POPC   GL163469   6.069  11.627   5.783
 5029POPC   GL263470   6.186  11.298   5.753
 5029POPC   C1A63471   5.884  11.559   6.169
 5029POPC   D2A63472   5.657  11.630   6.545
 5029POPC   C3A63473   5.861  11.424   6.886
 5029POPC   C4A63474   6.037  11.547   7.235
 5029POPC   C1B63475   6.012  11.063   6.133
 5029POPC   C2B63476   6.109  11.075   6.566
 5029POPC   C3B63477   6.017  10.920   6.969
 5029POPC   C4B63478   5.633  11.024   7.180
 5030POPC   NC363479  32.869  39.613   5.533
 5030POPC   PO463480  32.713  40.316   5.551
 5030POPC   GL163481  33.081  40.255   5.753
 5030POPC   GL263482  32.920  39.975   5.907
 5030POPC   C1A63483  33.286  40.208   6.175
 5030POPC   D2A63484  33.084  39.986   6.526
 5030POPC   C3A63485  33.133  40.098   6.955
 5030POPC   C4A63486  33.041  39.940   7.372
 5030POPC   C1B63487  32.658  39.916   6.242
 5030POPC   C2B63488  32.570  39.878   6.656
 5030POPC   C3B63489  32.794  39.704   6.973
 5030POPC   C4B63490  32.612  39.657   7.383
 5031POPC   NC363491  44.562  30.271   5.117
 5031POPC   PO463492  44.838  29.759   5.535
 5031POPC   GL163493  44.813  29.821   5.959
 5031POPC   GL263494  44.498  29.895   5.914
 5031POPC   C1A63495  44.674  30.075   6.346
 5031POPC   D2A63496  44.827  30.103   6.753
 5031POPC   C3A63497  44.648  30.028   7.117
 5031POPC   C4A63498  44.796  29.628   7.197
 5031POPC   C1B63499  44.387  29.647   6.264
 5031POPC   C2B63500  44.318  29.844   6.668
 5031POPC   C3B63501  44.205  29.756   7.091
 5031POPC   C4B63502  44.229  29.935   7.512
 5032POPC   NC363503   6.641  18.722   5.569
 5032POPC   PO463504   6.576  19.387   5.429
 5032POPC   GL163505   6.728  19.224   5.843
 5032POPC   GL263506   6.840  18.865   6.015
 5032POPC   C1A63507   6.682  19.277   6.287
 5032POPC   D2A63508   6.840  19.103   6.643
 5032POPC   C3A63509   6.627  19.152   6.983
 5032POPC   C4A63510   6.779  19.160   7.347
 5032POPC   C1B63511   6.423  18.831   6.198
 5032POPC   C2B63512   6.279  18.968   6.580
 5032POPC   C3B63513   6.321  18.745   6.950
 5032POPC   C4B63514   6.449  18.798   7.349
 5033POPC   NC363515   3.200  31.907   5.504
 5033POPC   PO463516   2.532  32.159   5.405
 5033POPC   GL163517   2.784  32.146   5.764
 5033POPC   GL263518   2.785  31.815   5.824
 5033POPC   C1A63519   2.945  32.246   6.165
 5033POPC   D2A63520   2.696  32.445   6.474
 5033POPC   C3A63521   2.724  32.343   6.890
 5033POPC   C4A63522   2.837  32.454   7.297
 5033POPC   C1B63523   2.930  31.733   6.243
 5033POPC   C2B63524   2.885  31.919   6.653
 5033POPC   C3B63525   2.731  31.887   7.093
 5033POPC   C4B63526   2.878  31.963   7.477
 5034POPC   NC363527  13.524  29.358   5.520
 5034POPC   PO463528  13.629  30.077   5.407
 5034POPC   GL163529  13.582  29.836   5.750
 5034POPC   GL263530  13.930  29.705   5.776
 5034POPC   C1A63531  13.360  29.784   6.142
 5034POPC   D2A63532  13.397  30.027   6.533
 5034POPC   C3A63533  13.458  29.864   6.935
 5034POPC   C4A63534  13.744  29.915   7.256
 5034POPC   C1B63535  13.861  29.845   6.200
 5034POPC   C2B63536  13.940  30.162   6.510
 5034POPC   C3B63537  13.909  30.296   6.936
 5034POPC   C4B63538  14.149  30.207   7.306
 5035POPC   NC363539  29.943  20.928   5.339
 5035POPC   PO463540  30.219  20.304   5.313
 5035POPC   GL163541  29.993  20.530   5.670
 5035POPC   GL263542  30.237  20.783   5.752
 5035POPC   C1A63543  29.847  20.604   6.114
 5035POPC   D2A63544  29.971  20.575   6.545
 5035POPC   C3A63545  29.717  20.541   6.951
 5035POPC   C4A63546  29.897  20.556   7.384
 5035POPC   C1B63547  30.353  20.875   6.183
 5035POPC   C2B63548  30.498  20.740   6.596
 5035POPC   C3B63549  30.237  20.718   6.973
 5035POPC   C4B63550  30.316  20.971   7.319
 5036POPC   NC363551  18.283  34.747   5.110
 5036POPC   PO463552  18.133  34.165   5.433
 5036POPC   GL163553  18.190  34.567   5.677
 5036POPC   GL263554  18.414  34.438   5.907
 5036POPC   C1A63555  18.061  34.778   6.082
 5036POPC   D2A63556  18.307  34.718   6.458
 5036POPC   C3A63557  18.228  34.751   6.902
 5036POPC   C4A63558  18.353  34.701   7.345
 5036POPC   C1B63559  18.526  34.215   6.276
 5036POPC   C2B63560  18.515  34.303   6.713
 5036POPC   C3B63561  18.484  34.264   7.153
 5036POPC   C4B63562  18.536  34.225   7.612
 5037POPC   NC363563  35.209  16.561   5.366
 5037POPC   PO463564  35.351  17.192   5.553
 5037POPC   GL163565  35.371  16.819   5.793
 5037POPC   GL263566  35.630  16.570   5.788
 5037POPC   C1A63567  35.354  16.707   6.207
 5037POPC   D2A63568  35.300  16.891   6.569
 5037POPC   C3A63569  35.539  16.817   6.886
 5037POPC   C4A63570  35.213  16.952   7.146
 5037POPC   C1B63571  35.766  16.417   6.222
 5037POPC   C2B63572  35.929  16.460   6.647
 5037POPC   C3B63573  35.727  16.385   7.051
 5037POPC   C4B63574  35.536  16.631   7.394
 5038POPC   NC363575  43.842   0.805   5.517
 5038POPC   PO463576  43.631   1.427   5.656
 5038POPC   GL163577  43.936   1.163   5.852
 5038POPC   GL263578  44.138   1.388   6.020
 5038POPC   C1A63579  44.012   0.885   6.179
 5038POPC   D2A63580  44.059   1.130   6.551
 5038POPC   C3A63581  43.998   0.990   6.965
 5038POPC   C4A63582  43.874   1.248   7.292
 5038POPC   C1B63583  44.359   1.599   6.322
 5038POPC   C2B63584  44.209   1.596   6.735
 5038POPC   C3B63585  44.173   1.628   7.159
 5038POPC   C4B63586  44.008   1.739   7.567
 5039POPC   NC363587  33.286  32.862   5.402
 5039POPC   PO463588  32.620  33.070   5.323
 5039POPC   GL163589  32.762  32.942   5.724
 5039POPC   GL263590  33.024  33.172   5.746
 5039POPC   C1A63591  32.826  33.015   6.189
 5039POPC   D2A63592  32.941  32.789   6.554
 5039POPC   C3A63593  32.893  32.974   6.938
 5039POPC   C4A63594  33.205  32.895   7.254
 5039POPC   C1B63595  33.240  33.315   6.144
 5039POPC   C2B63596  33.282  33.291   6.583
 5039POPC   C3B63597  33.293  33.374   7.023
 5039POPC   C4B63598  32.931  33.388   7.240
 5040POPC   NC363599  41.754  23.819   5.320
 5040POPC   PO463600  41.245  23.437   5.558
 5040POPC   GL163601  41.419  23.827   5.809
 5040POPC   GL263602  41.761  24.050   5.774
 5040POPC   C1A63603  41.353  23.961   6.268
 5040POPC   D2A63604  41.317  23.995   6.746
 5040POPC   C3A63605  41.364  23.637   7.026
 5040POPC   C4A63606  41.703  23.574   7.332
 5040POPC   C1B63607  42.016  24.055   6.175
 5040POPC   C2B63608  41.812  24.070   6.588
 5040POPC   C3B63609  41.795  23.971   7.017
 5040POPC   C4B63610  41.925  24.041   7.432
 5041POPC   NC363611  37.780  44.780   5.512
 5041POPC   PO463612  37.981  44.249   5.371
 5041POPC   GL163613  37.907  44.382   5.806
 5041POPC   GL263614  37.559  44.412   5.829
 5041POPC   C1A63615  37.966  44.579   6.219
 5041POPC   D2A63616  37.823  44.814   6.611
 5041POPC   C3A63617  38.011  44.709   7.038
 5041POPC   C4A63618  38.063  44.554   7.486
 5041POPC   C1B63619  37.445  44.671   6.192
 5041POPC   C2B63620  37.232  44.691   6.598
 5041POPC   C3B63621  37.461  44.731   6.967
 5041POPC   C4B63622  37.607  44.878   7.356
 5042POPC   NC363623  14.634  21.773   5.414
 5042POPC   PO463624  14.230  21.177   5.347
 5042POPC   GL163625  14.533  21.304   5.656
 5042POPC   GL263626  14.399  21.573   5.824
 5042POPC   C1A63627  14.665  21.219   6.086
 5042POPC   D2A63628  14.870  21.366   6.455
 5042POPC   C3A63629  14.622  21.299   6.784
 5042POPC   C4A63630  14.539  21.169   7.165
 5042POPC   C1B63631  14.342  21.600   6.269
 5042POPC   C2B63632  14.481  21.775   6.642
 5042POPC   C3B63633  14.292  21.805   7.047
 5042POPC   C4B63634  14.174  21.611   7.439
 5043POPC   NC363635  32.859  31.142   5.243
 5043POPC   PO463636  33.259  31.664   5.439
 5043POPC   GL163637  33.185  31.315   5.765
 5043POPC   GL263638  32.825  31.259   5.820
 5043POPC   C1A63639  33.167  31.328   6.248
 5043POPC   D2A63640  33.032  31.679   6.553
 5043POPC   C3A63641  33.056  31.679   7.014
 5043POPC   C4A63642  33.134  31.257   7.173
 5043POPC   C1B63643  32.671  31.481   6.219
 5043POPC   C2B63644  32.518  31.474   6.669
 5043POPC   C3B63645  32.623  31.408   7.104
 5043POPC   C4B63646  32.498  31.676   7.436
 5044POPC   NC363647  10.402   4.942   5.436
 5044POPC   PO463648  10.804   5.440   5.672
 5044POPC   GL163649  10.645   5.100   5.891
 5044POPC   GL263650  10.273   5.165   5.869
 5044POPC   C1A63651  10.708   5.228   6.320
 5044POPC   D2A63652  10.944   5.320   6.684
 5044POPC   C3A63653  10.706   5.390   7.028
 5044POPC   C4A63654  10.721   5.191   7.411
 5044POPC   C1B63655  10.307   4.940   6.243
 5044POPC   C2B63656  10.401   5.085   6.689
 5044POPC   C3B63657  10.490   4.857   7.038
 5044POPC   C4B63658  10.100   4.762   7.160
 5045POPC   NC363659  25.016  16.435   4.999
 5045POPC   PO463660  25.110  16.910   5.389
 5045POPC   GL163661  25.200  16.752   5.806
 5045POPC   GL263662  25.559  16.689   5.838
 5045POPC   C1A63663  25.186  16.877   6.233
 5045POPC   D2A63664  25.205  17.046   6.635
 5045POPC   C3A63665  25.109  16.777   6.997
 5045POPC   C4A63666  24.989  16.356   7.146
 5045POPC   C1B63667  25.682  16.894   6.244
 5045POPC   C2B63668  25.563  16.678   6.644
 5045POPC   C3B63669  25.582  16.616   7.096
 5045POPC   C4B63670  25.534  16.955   7.386
 5046POPC   NC363671  38.316  31.384   5.341
 5046POPC   PO463672  38.033  31.878   5.695
 5046POPC   GL163673  38.295  31.547   5.835
 5046POPC   GL263674  38.663  31.487   5.782
 5046POPC   C1A63675  38.424  31.496   6.238
 5046POPC   D2A63676  38.510  31.717   6.564
 5046POPC   C3A63677  38.365  31.501   6.874
 5046POPC   C4A63678  38.169  31.694   7.213
 5046POPC   C1B63679  38.732  31.119   6.139
 5046POPC   C2B63680  38.532  31.035   6.541
 5046POPC   C3B63681  38.700  31.085   6.947
 5046POPC   C4B63682  38.623  31.334   7.287
 5047POPC   NC363683  33.862   5.626   5.428
 5047POPC   PO463684  33.496   6.152   5.394
 5047POPC   GL163685  33.749   6.042   5.776
 5047POPC   GL263686  34.030   5.799   5.876
 5047POPC   C1A63687  33.839   6.105   6.219
 5047POPC   D2A63688  33.947   5.856   6.567
 5047POPC   C3A63689  33.863   6.057   6.918
 5047POPC   C4A63690  34.005   6.042   7.302
 5047POPC   C1B63691  33.712   5.614   6.181
 5047POPC   C2B63692  33.673   5.428   6.589
 5047POPC   C3B63693  33.618   5.605   6.980
 5047POPC   C4B63694  33.773   5.531   7.377
 5048POPC   NC363695   6.312  14.504   5.456
 5048POPC   PO463696   6.792  14.062   5.187
 5048POPC   GL163697   6.685  14.141   5.639
 5048POPC   GL263698   6.914  14.361   5.891
 5048POPC   C1A63699   6.473  14.153   6.027
 5048POPC   D2A63700   6.599  14.347   6.431
 5048POPC   C3A63701   6.405  14.205   6.849
 5048POPC   C4A63702   6.536  14.229   7.300
 5048POPC   C1B63703   7.131  14.370   6.293
 5048POPC   C2B63704   7.044  14.338   6.708
 5048POPC   C3B63705   6.717  14.615   6.874
 5048POPC   C4B63706   6.697  14.973   7.131
 5049POPC   NC363707  17.052  20.542   5.332
 5049POPC   PO463708  17.660  20.903   5.375
 5049POPC   GL163709  17.393  20.786   5.665
 5049POPC   GL263710  17.421  20.439   5.727
 5049POPC   C1A63711  17.446  20.799   6.120
 5049POPC   D2A63712  17.660  20.719   6.513
 5049POPC   C3A63713  17.679  21.017   6.822
 5049POPC   C4A63714  17.655  20.944   7.196
 5049POPC   C1B63715  17.323  20.304   6.160
 5049POPC   C2B63716  17.215  20.494   6.576
 5049POPC   C3B63717  17.466  20.502   6.954
 5049POPC   C4B63718  17.354  20.586   7.389
 5050POPC   NC363719  19.526  30.879   5.561
 5050POPC   PO463720  19.983  30.417   5.317
 5050POPC   GL163721  20.171  30.471   5.760
 5050POPC   GL263722  19.859  30.648   5.879
 5050POPC   C1A63723  20.145  30.452   6.242
 5050POPC   D2A63724  20.006  30.695   6.600
 5050POPC   C3A63725  20.001  30.503   7.006
 5050POPC   C4A63726  20.071  30.719   7.381
 5050POPC   C1B63727  19.619  30.781   6.263
 5050POPC   C2B63728  19.507  30.823   6.708
 5050POPC   C3B63729  19.653  30.886   7.139
 5050POPC   C4B63730  19.669  30.960   7.618
 5051POPC   NC363731  40.353   9.234   5.652
 5051POPC   PO463732  39.743   9.531   5.407
 5051POPC   GL163733  39.864   9.429   5.816
 5051POPC   GL263734  40.116   9.692   5.845
 5051POPC   C1A63735  39.890   9.546   6.277
 5051POPC   D2A63736  39.973   9.774   6.670
 5051POPC   C3A63737  40.266   9.580   6.949
 5051POPC   C4A63738  39.975   9.450   7.277
 5051POPC   C1B63739  40.171   9.990   6.216
 5051POPC   C2B63740  40.247  10.350   6.496
 5051POPC   C3B63741  40.217  10.338   6.957
 5051POPC   C4B63742  40.063   9.973   7.168
 5052POPC   NC363743  25.651  29.756   5.527
 5052POPC   PO463744  26.345  29.758   5.410
 5052POPC   GL163745  26.085  29.703   5.816
 5052POPC   GL263746  25.868  30.045   5.894
 5052POPC   C1A63747  25.835  29.648   6.190
 5052POPC   D2A63748  25.805  30.005   6.475
 5052POPC   C3A63749  25.926  29.925   6.904
 5052POPC   C4A63750  26.168  29.731   7.244
 5052POPC   C1B63751  26.198  30.252   6.162
 5052POPC   C2B63752  26.393  30.354   6.576
 5052POPC   C3B63753  26.414  30.171   6.983
 5052POPC   C4B63754  26.087  30.239   7.287
 5053POPC   NC363755  43.969  10.257   5.502
 5053POPC   PO463756  43.894   9.546   5.472
 5053POPC   GL163757  43.946   9.626   5.901
 5053POPC   GL263758  43.747   9.913   5.826
 5053POPC   C1A63759  44.126   9.693   6.329
 5053POPC   D2A63760  44.287   9.816   6.778
 5053POPC   C3A63761  44.079   9.671   7.188
 5053POPC   C4A63762  44.055   9.700   7.668
 5053POPC   C1B63763  43.828  10.150   6.183
 5053POPC   C2B63764  43.808  10.006   6.600
 5053POPC   C3B63765  43.903  10.117   6.983
 5053POPC   C4B63766  43.682  10.120   7.336
 5054POPC   NC363767  24.847  24.051   5.484
 5054POPC   PO463768  25.434  23.754   5.604
 5054POPC   GL163769  25.048  23.749   5.864
 5054POPC   GL263770  25.100  23.442   6.074
 5054POPC   C1A63771  25.055  23.895   6.295
 5054POPC   D2A63772  25.379  23.702   6.562
 5054POPC   C3A63773  25.286  23.560   6.944
 5054POPC   C4A63774  25.166  23.845   7.214
 5054POPC   C1B63775  25.550  23.354   6.242
 5054POPC   C2B63776  25.716  23.293   6.724
 5054POPC   C3B63777  25.613  23.278   7.203
 5054POPC   C4B63778  25.461  23.579   7.538
 5055POPC   NC363779  32.130  39.412   5.216
 5055POPC   PO463780  32.778  39.315   5.197
 5055POPC   GL163781  32.444  39.368   5.614
 5055POPC   GL263782  32.218  39.172   5.810
 5055POPC   C1A63783  32.535  39.447   6.098
 5055POPC   D2A63784  32.662  39.373   6.560
 5055POPC   C3A63785  32.361  39.433   6.918
 5055POPC   C4A63786  32.304  39.256   7.338
 5055POPC   C1B63787  32.433  38.964   6.193
 5055POPC   C2B63788  32.283  39.007   6.610
 5055POPC   C3B63789  32.063  38.997   6.984
 5055POPC   C4B63790  32.029  38.747   7.364
 5056POPC   NC363791  35.308  40.499   5.253
 5056POPC   PO463792  35.400  41.127   5.397
 5056POPC   GL163793  35.289  40.798   5.697
 5056POPC   GL263794  35.011  41.021   5.725
 5056POPC   C1A63795  35.244  40.576   6.138
 5056POPC   D2A63796  35.337  40.710   6.588
 5056POPC   C3A63797  35.512  40.673   7.017
 5056POPC   C4A63798  35.172  40.547   7.284
 5056POPC   C1B63799  35.178  41.081   6.141
 5056POPC   C2B63800  35.005  41.103   6.562
 5056POPC   C3B63801  35.218  41.070   6.964
 5056POPC   C4B63802  35.063  41.051   7.356
 5057POPC   NC363803  23.722  30.923   5.210
 5057POPC   PO463804  23.503  30.377   5.564
 5057POPC   GL163805  23.723  30.613   5.860
 5057POPC   GL263806  23.769  30.924   5.740
 5057POPC   C1A63807  23.633  30.738   6.276
 5057POPC   D2A63808  23.742  30.691   6.689
 5057POPC   C3A63809  23.705  30.372   6.979
 5057POPC   C4A63810  23.743  30.725   7.251
 5057POPC   C1B63811  24.031  31.008   6.097
 5057POPC   C2B63812  24.178  30.900   6.493
 5057POPC   C3B63813  24.051  31.037   6.894
 5057POPC   C4B63814  24.156  31.047   7.281
 5058POPC   NC363815  44.286  26.165   5.394
 5058POPC   PO463816  44.947  25.982   5.449
 5058POPC   GL163817  44.724  25.839   5.828
 5058POPC   GL263818  44.347  25.864   5.832
 5058POPC   C1A63819  44.637  25.948   6.262
 5058POPC   D2A63820  44.632  26.253   6.590
 5058POPC   C3A63821  44.894  26.210   6.954
 5058POPC   C4A63822  44.731  26.274   7.362
 5058POPC   C1B63823  44.247  25.599   6.221
 5058POPC   C2B63824  44.331  25.762   6.650
 5058POPC   C3B63825  44.429  26.006   7.006
 5058POPC   C4B63826  44.504  25.846   7.422
 5059POPC   NC363827  11.317  44.455   5.335
 5059POPC   PO463828  11.301   0.112   5.145
 5059POPC   GL163829  11.272  44.909   5.596
 5059POPC   GL263830  11.167  44.584   5.802
 5059POPC   C1A63831  11.350  44.996   6.048
 5059POPC   D2A63832  11.165  44.911   6.464
 5059POPC   C3A63833  11.420  44.799   6.839
 5059POPC   C4A63834  11.336  44.984   7.264
 5059POPC   C1B63835  11.335  44.489   6.231
 5059POPC   C2B63836  11.106  44.417   6.636
 5059POPC   C3B63837  11.136  44.451   7.076
 5059POPC   C4B63838  11.515  44.501   7.273
 5060POPC   NC363839   0.679  33.274   5.097
 5060POPC   PO463840   0.767  32.695   5.436
 5060POPC   GL163841   0.754  32.904   5.807
 5060POPC   GL263842   0.494  33.081   5.775
 5060POPC   C1A63843   0.731  33.009   6.257
 5060POPC   D2A63844   0.826  33.099   6.696
 5060POPC   C3A63845   0.583  32.934   7.004
 5060POPC   C4A63846   0.457  33.293   7.231
 5060POPC   C1B63847   0.268  32.843   6.133
 5060POPC   C2B63848   0.256  32.752   6.608
 5060POPC   C3B63849   0.073  32.970   6.996
 5060POPC   C4B63850  44.947  33.377   7.181
 5061POPC   NC363851  30.129   2.014   5.263
 5061POPC   PO463852  29.491   2.180   5.543
 5061POPC   GL163853  29.746   2.034   5.891
 5061POPC   GL263854  30.037   1.878   5.795
 5061POPC   C1A63855  29.851   2.076   6.348
 5061POPC   D2A63856  30.190   2.203   6.638
 5061POPC   C3A63857  30.019   2.142   7.041
 5061POPC   C4A63858  29.610   1.967   7.022
 5061POPC   C1B63859  29.999   1.630   6.190
 5061POPC   C2B63860  29.927   1.514   6.635
 5061POPC   C3B63861  30.119   1.623   7.036
 5061POPC   C4B63862  30.405   1.627   7.411
 5062POPC   NC363863  14.628  28.197   5.336
 5062POPC   PO463864  14.164  28.476   5.079
 5062POPC   GL163865  14.265  28.355   5.649
 5062POPC   GL263866  14.612  28.424   5.791
 5062POPC   C1A63867  14.281  28.581   6.142
 5062POPC   D2A63868  14.363  28.400   6.596
 5062POPC   C3A63869  14.338  28.620   7.046
 5062POPC   C4A63870  14.410  28.527   7.523
 5062POPC   C1B63871  14.544  28.134   6.147
 5062POPC   C2B63872  14.771  28.062   6.535
 5062POPC   C3B63873  14.735  27.952   6.955
 5062POPC   C4B63874  14.566  28.086   7.346
 5063POPC   NC363875  27.667   5.295   5.308
 5063POPC   PO463876  28.200   4.859   5.552
 5063POPC   GL163877  27.813   5.091   5.810
 5063POPC   GL263878  27.459   5.286   5.769
 5063POPC   C1A63879  27.515   5.004   6.180
 5063POPC   D2A63880  27.346   4.942   6.599
 5063POPC   C3A63881  27.638   4.995   6.932
 5063POPC   C4A63882  27.656   5.105   7.364
 5063POPC   C1B63883  27.295   5.527   6.142
 5063POPC   C2B63884  27.432   5.473   6.548
 5063POPC   C3B63885  27.340   5.401   6.961
 5063POPC   C4B63886  27.436   5.610   7.308
 5064POPC   NC363887  15.912  40.270   5.438
 5064POPC   PO463888  16.310  39.744   5.499
 5064POPC   GL163889  16.067  39.900   5.850
 5064POPC   GL263890  15.768  40.109   5.903
 5064POPC   C1A63891  16.101  40.011   6.277
 5064POPC   D2A63892  15.928  40.158   6.646
 5064POPC   C3A63893  16.243  40.140   6.949
 5064POPC   C4A63894  16.267  39.923   7.316
 5064POPC   C1B63895  15.492  40.222   6.237
 5064POPC   C2B63896  15.365  40.108   6.641
 5064POPC   C3B63897  15.581  39.818   6.863
 5064POPC   C4B63898  15.788  40.050   7.160
 5065POPC   NC363899  34.969  17.436   5.505
 5065POPC   PO463900  35.530  17.926   5.424
 5065POPC   GL163901  35.247  17.792   5.743
 5065POPC   GL263902  35.431  17.544   5.907
 5065POPC   C1A63903  34.997  17.684   6.127
 5065POPC   D2A63904  35.202  17.361   6.417
 5065POPC   C3A63905  35.129  17.396   6.897
 5065POPC   C4A63906  35.381  17.532   7.300
 5065POPC   C1B63907  35.633  17.189   6.129
 5065POPC   C2B63908  35.746  17.152   6.537
 5065POPC   C3B63909  35.633  17.329   6.896
 5065POPC   C4B63910  35.671  17.109   7.286
 5066POPC   NC363911   9.057   2.863   5.380
 5066POPC   PO463912   8.854   2.198   5.530
 5066POPC   GL163913   9.114   2.498   5.720
 5066POPC   GL263914   8.816   2.672   5.809
 5066POPC   C1A63915   9.257   2.600   6.139
 5066POPC   D2A63916   9.068   2.636   6.566
 5066POPC   C3A63917   9.333   2.790   6.885
 5066POPC   C4A63918   9.233   2.620   7.269
 5066POPC   C1B63919   8.856   2.920   6.177
 5066POPC   C2B63920   8.773   3.072   6.617
 5066POPC   C3B63921   8.864   2.933   7.047
 5066POPC   C4B63922   8.751   2.742   7.423
 5067POPC   NC363923  44.384  12.351   5.454
 5067POPC   PO463924  44.014  11.821   5.230
 5067POPC   GL163925  43.854  12.077   5.653
 5067POPC   GL263926  44.139  12.216   5.872
 5067POPC   C1A63927  43.666  12.202   6.076
 5067POPC   D2A63928  43.860  12.312   6.516
 5067POPC   C3A63929  43.762  12.091   6.917
 5067POPC   C4A63930  44.070  12.147   7.247
 5067POPC   C1B63931  44.090  11.944   6.237
 5067POPC   C2B63932  44.179  11.893   6.663
 5067POPC   C3B63933  44.136  11.687   7.046
 5067POPC   C4B63934  43.837  11.530   7.314
 5068POPC   NC363935   3.943  42.019   5.508
 5068POPC   PO463936   3.529  42.536   5.223
 5068POPC   GL163937   3.485  42.261   5.674
 5068POPC   GL263938   3.282  41.923   5.714
 5068POPC   C1A63939   3.485  42.276   6.184
 5068POPC   D2A63940   3.791  42.108   6.525
 5068POPC   C3A63941   3.631  42.012   6.949
 5068POPC   C4A63942   3.388  42.330   7.152
 5068POPC   C1B63943   3.127  41.910   6.165
 5068POPC   C2B63944   3.080  42.049   6.605
 5068POPC   C3B63945   2.966  42.057   7.063
 5068POPC   C4B63946   3.079  42.189   7.513
 5069POPC   NC363947   6.719   6.172   5.552
 5069POPC   PO463948   6.628   6.822   5.443
 5069POPC   GL163949   6.587   6.566   5.825
 5069POPC   GL263950   6.281   6.664   5.868
 5069POPC   C1A63951   6.791   6.439   6.236
 5069POPC   D2A63952   6.676   6.494   6.692
 5069POPC   C3A63953   6.846   6.625   7.107
 5069POPC   C4A63954   6.981   6.910   7.438
 5069POPC   C1B63955   6.356   6.700   6.298
 5069POPC   C2B63956   6.184   6.562   6.685
 5069POPC   C3B63957   6.224   6.669   7.127
 5069POPC   C4B63958   6.475   6.838   7.484
 5070POPC   NC363959  20.955  33.902   5.545
 5070POPC   PO463960  21.631  33.846   5.375
 5070POPC   GL163961  21.504  33.723   5.779
 5070POPC   GL263962  21.500  34.073   5.850
 5070POPC   C1A63963  21.543  33.718   6.249
 5070POPC   D2A63964  21.790  33.825   6.634
 5070POPC   C3A63965  21.671  33.746   7.046
 5070POPC   C4A63966  21.321  33.637   7.295
 5070POPC   C1B63967  21.157  34.047   6.157
 5070POPC   C2B63968  21.307  34.089   6.565
 5070POPC   C3B63969  21.171  33.936   6.916
 5070POPC   C4B63970  21.000  34.066   7.303
 5071POPC   NC363971  37.672  21.672   5.384
 5071POPC   PO463972  37.752  21.023   5.291
 5071POPC   GL163973  37.846  21.256   5.647
 5071POPC   GL263974  37.522  21.252   5.747
 5071POPC   C1A63975  37.934  21.409   6.060
 5071POPC   D2A63976  37.870  21.265   6.507
 5071POPC   C3A63977  37.654  21.517   6.815
 5071POPC   C4A63978  37.899  21.492   7.190
 5071POPC   C1B63979  37.456  21.300   6.197
 5071POPC   C2B63980  37.362  21.096   6.599
 5071POPC   C3B63981  37.173  21.261   6.974
 5071POPC   C4B63982  37.306  21.253   7.403
 5072POPC   NC363983  35.257  14.229   5.565
 5072POPC   PO463984  35.718  14.677   5.367
 5072POPC   GL163985  35.725  14.494   5.771
 5072POPC   GL263986  35.691  14.112   5.796
 5072POPC   C1A63987  35.631  14.507   6.227
 5072POPC   D2A63988  35.315  14.329   6.530
 5072POPC   C3A63989  35.379  14.381   6.968
 5072POPC   C4A63990  35.357  14.543   7.400
 5072POPC   C1B63991  35.543  14.007   6.207
 5072POPC   C2B63992  35.672  13.963   6.641
 5072POPC   C3B63993  35.522  13.910   7.054
 5072POPC   C4B63994  35.201  14.005   7.324
 5073POPC   NC363995  32.477  15.139   5.385
 5073POPC   PO463996  33.198  15.195   5.303
 5073POPC   GL163997  33.257  15.218   5.737
 5073POPC   GL263998  33.259  14.855   5.789
 5073POPC   C1A63999  33.128  15.220   6.179
 5073POPC   D2A64000  32.868  15.210   6.554
 5073POPC   C3A64001  32.854  15.440   6.912
 5073POPC   C4A64002  33.009  15.420   7.329
 5073POPC   C1B64003  33.428  14.793   6.203
 5073POPC   C2B64004  33.337  14.975   6.594
 5073POPC   C3B64005  33.098  14.909   6.961
 5073POPC   C4B64006  33.267  14.894   7.352
 5074POPC   NC364007  40.353  38.168   5.153
 5074POPC   PO464008  39.997  38.647   5.375
 5074POPC   GL164009  39.943  38.535   5.793
 5074POPC   GL264010  39.747  38.270   5.775
 5074POPC   C1A64011  40.165  38.405   6.177
 5074POPC   D2A64012  40.026  38.473   6.595
 5074POPC   C3A64013  40.204  38.415   7.011
 5074POPC   C4A64014  40.174  38.521   7.448
 5074POPC   C1B64015  39.659  38.314   6.198
 5074POPC   C2B64016  39.684  38.066   6.559
 5074POPC   C3B64017  39.733  38.227   6.938
 5074POPC   C4B64018  39.826  38.129   7.344
 5075POPC   NC364019  16.354  30.229   5.424
 5075POPC   PO464020  16.333  29.540   5.370
 5075POPC   GL164021  16.560  29.689   5.756
 5075POPC   GL264022  16.580  30.067   5.863
 5075POPC   C1A64023  16.847  29.669   6.126
 5075POPC   D2A64024  16.922  29.429   6.507
 5075POPC   C3A64025  16.834  29.660   6.875
 5075POPC   C4A64026  16.875  29.959   7.200
 5075POPC   C1B64027  16.930  30.213   6.158
 5075POPC   C2B64028  17.082  30.122   6.596
 5075POPC   C3B64029  17.120  30.365   6.976
 5075POPC   C4B64030  16.938  30.407   7.406
 5076POPC   NC364031  20.961  44.849   5.429
 5076POPC   PO464032  20.458  44.421   5.352
 5076POPC   GL164033  20.693  44.496   5.699
 5076POPC   GL264034  20.534  44.783   5.812
 5076POPC   C1A64035  20.721  44.417   6.148
 5076POPC   D2A64036  20.838  44.582   6.556
 5076POPC   C3A64037  20.522  44.540   6.850
 5076POPC   C4A64038  20.711  44.286   7.140
 5076POPC   C1B64039  20.944  44.872   6.061
 5076POPC   C2B64040  21.069   0.014   6.455
 5076POPC   C3B64041  20.732   0.058   6.793
 5076POPC   C4B64042  20.672  44.884   7.190
 5077POPC   NC364043  43.968   5.120   5.316
 5077POPC   PO464044  43.462   5.008   5.682
 5077POPC   GL164045  43.905   5.070   5.822
 5077POPC   GL264046  44.176   4.798   5.670
 5077POPC   C1A64047  43.846   5.091   6.270
 5077POPC   D2A64048  43.683   4.928   6.674
 5077POPC   C3A64049  43.855   5.145   6.996
 5077POPC   C4A64050  44.040   5.307   7.350
 5077POPC   C1B64051  44.251   4.789   6.096
 5077POPC   C2B64052  44.344   4.635   6.479
 5077POPC   C3B64053  44.154   4.708   6.832
 5077POPC   C4B64054  44.307   4.828   7.215
 5078POPC   NC364055  31.502  18.626   5.441
 5078POPC   PO464056  31.848  18.077   5.205
 5078POPC   GL164057  31.607  18.157   5.619
 5078POPC   GL264058  31.218  18.090   5.688
 5078POPC   C1A64059  31.503  18.276   6.077
 5078POPC   D2A64060  31.631  18.436   6.504
 5078POPC   C3A64061  31.344  18.530   6.855
 5078POPC   C4A64062  31.556  18.501   7.256
 5078POPC   C1B64063  30.999  18.109   6.117
 5078POPC   C2B64064  31.010  18.132   6.580
 5078POPC   C3B64065  31.149  17.990   6.999
 5078POPC   C4B64066  31.169  18.183   7.364
 5079POPC   NC364067   1.990  17.839   5.161
 5079POPC   PO464068   1.964  17.168   5.376
 5079POPC   GL164069   2.084  17.347   5.761
 5079POPC   GL264070   2.371  17.141   5.857
 5079POPC   C1A64071   1.858  17.651   6.062
 5079POPC   D2A64072   1.738  17.739   6.515
 5079POPC   C3A64073   1.859  17.394   6.829
 5079POPC   C4A64074   1.802  17.435   7.280
 5079POPC   C1B64075   2.245  17.367   6.265
 5079POPC   C2B64076   2.250  17.666   6.636
 5079POPC   C3B64077   2.268  17.572   7.098
 5079POPC   C4B64078   2.215  17.397   7.554
 5080POPC   NC364079   7.305  30.141   5.499
 5080POPC   PO464080   7.649  29.607   5.212
 5080POPC   GL164081   7.441  29.693   5.698
 5080POPC   GL264082   7.611  29.976   5.861
 5080POPC   C1A64083   7.494  29.603   6.212
 5080POPC   D2A64084   7.499  29.871   6.584
 5080POPC   C3A64085   7.555  29.743   6.987
 5080POPC   C4A64086   7.471  29.945   7.364
 5080POPC   C1B64087   7.261  30.050   6.157
 5080POPC   C2B64088   7.082  30.185   6.566
 5080POPC   C3B64089   7.178  30.163   7.000
 5080POPC   C4B64090   7.138  30.378   7.390
 5081POPC   NC364091  40.865  11.522   5.488
 5081POPC   PO464092  40.835  10.851   5.377
 5081POPC   GL164093  40.865  11.081   5.757
 5081POPC   GL264094  40.528  11.180   5.737
 5081POPC   C1A64095  41.013  11.319   6.143
 5081POPC   D2A64096  41.139  11.383   6.584
 5081POPC   C3A64097  40.883  11.564   6.887
 5081POPC   C4A64098  40.892  11.484   7.301
 5081POPC   C1B64099  40.597  11.018   6.189
 5081POPC   C2B64100  40.678  11.158   6.626
 5081POPC   C3B64101  40.483  11.270   7.047
 5081POPC   C4B64102  40.373  11.659   7.269
 5082POPC   NC364103  23.273   0.726   5.333
 5082POPC   PO464104  23.010   0.079   5.254
 5082POPC   GL164105  23.054   0.359   5.623
 5082POPC   GL264106  22.738   0.411   5.757
 5082POPC   C1A64107  23.123   0.398   6.102
 5082POPC   D2A64108  23.344   0.639   6.428
 5082POPC   C3A64109  23.240   0.573   6.854
 5082POPC   C4A64110  23.129   0.301   7.195
 5082POPC   C1B64111  22.596   0.480   6.160
 5082POPC   C2B64112  22.830   0.492   6.545
 5082POPC   C3B64113  22.704   0.460   6.961
 5082POPC   C4B64114  22.615   0.357   7.367
 5083POPC   NC364115   6.267  26.066   5.293
 5083POPC   PO464116   5.619  26.092   5.417
 5083POPC   GL164117   5.666  25.956   5.872
 5083POPC   GL264118   6.015  26.071   5.811
 5083POPC   C1A64119   5.649  25.922   6.369
 5083POPC   D2A64120   5.367  26.018   6.719
 5083POPC   C3A64121   5.618  26.108   7.061
 5083POPC   C4A64122   5.966  26.211   7.240
 5083POPC   C1B64123   6.085  26.125   6.263
 5083POPC   C2B64124   6.038  26.001   6.729
 5083POPC   C3B64125   6.069  25.728   7.106
 5083POPC   C4B64126   5.978  25.781   7.581
 5084POPC   NC364127  20.449  17.780   5.398
 5084POPC   PO464128  20.946  17.281   5.520
 5084POPC   GL164129  20.796  17.679   5.751
 5084POPC   GL264130  20.454  17.561   5.880
 5084POPC   C1A64131  20.744  17.833   6.189
 5084POPC   D2A64132  20.533  17.544   6.483
 5084POPC   C3A64133  20.566  17.618   6.936
 5084POPC   C4A64134  20.613  17.509   7.353
 5084POPC   C1B64135  20.362  17.179   6.149
 5084POPC   C2B64136  20.251  17.092   6.598
 5084POPC   C3B64137  20.311  17.162   7.023
 5084POPC   C4B64138  20.304  17.122   7.447
 5085POPC   NC364139   6.860  22.651   5.415
 5085POPC   PO464140   6.967  23.336   5.535
 5085POPC   GL164141   6.808  23.219   5.891
 5085POPC   GL264142   6.562  22.981   5.813
 5085POPC   C1A64143   6.920  22.910   6.172
 5085POPC   D2A64144   6.905  22.634   6.507
 5085POPC   C3A64145   6.888  22.896   6.848
 5085POPC   C4A64146   6.700  22.917   7.234
 5085POPC   C1B64147   6.408  23.183   6.219
 5085POPC   C2B64148   6.435  23.072   6.681
 5085POPC   C3B64149   6.324  23.205   7.113
 5085POPC   C4B64150   6.384  23.115   7.598
 5086POPC   NC364151  38.787  42.636   5.476
 5086POPC   PO464152  38.272  42.143   5.262
 5086POPC   GL164153  38.338  42.351   5.720
 5086POPC   GL264154  38.433  42.024   5.896
 5086POPC   C1A64155  38.655  42.421   6.108
 5086POPC   D2A64156  38.835  42.401   6.550
 5086POPC   C3A64157  38.611  42.310   6.931
 5086POPC   C4A64158  38.343  42.516   7.226
 5086POPC   C1B64159  38.435  42.071   6.384
 5086POPC   C2B64160  38.151  42.241   6.693
 5086POPC   C3B64161  38.069  42.097   7.078
 5086POPC   C4B64162  38.388  41.983   7.319
 5087POPC   NC364163  19.602  18.003   5.504
 5087POPC   PO464164  20.179  18.122   5.250
 5087POPC   GL164165  19.982  18.288   5.730
 5087POPC   GL264166  19.731  18.050   5.969
 5087POPC   C1A64167  19.932  18.450   6.202
 5087POPC   D2A64168  20.152  18.504   6.629
 5087POPC   C3A64169  19.898  18.516   7.026
 5087POPC   C4A64170  19.607  18.418   7.399
 5087POPC   C1B64171  19.899  17.926   6.331
 5087POPC   C2B64172  19.881  18.080   6.711
 5087POPC   C3B64173  20.081  18.051   7.070
 5087POPC   C4B64174  19.837  17.982   7.415
 5088POPC   NC364175  34.452  41.026   5.342
 5088POPC   PO464176  34.896  40.543   5.463
 5088POPC   GL164177  34.582  40.776   5.788
 5088POPC   GL264178  34.273  41.053   5.813
 5088POPC   C1A64179  34.761  40.783   6.205
 5088POPC   D2A64180  34.835  40.568   6.572
 5088POPC   C3A64181  34.815  40.765   6.946
 5088POPC   C4A64182  34.603  40.516   7.207
 5088POPC   C1B64183  34.269  40.904   6.216
 5088POPC   C2B64184  34.456  41.002   6.594
 5088POPC   C3B64185  34.315  40.910   6.986
 5088POPC   C4B64186  34.556  41.025   7.329
 5089POPC   NC364187  30.002   5.315   5.021
 5089POPC   PO464188  29.634   4.976   5.394
 5089POPC   GL164189  29.743   5.199   5.747
 5089POPC   GL264190  29.712   4.871   5.935
 5089POPC   C1A64191  29.914   5.241   6.191
 5089POPC   D2A64192  29.824   5.035   6.586
 5089POPC   C3A64193  29.976   5.242   6.971
 5089POPC   C4A64194  29.953   5.109   7.405
 5089POPC   C1B64195  29.412   4.753   6.260
 5089POPC   C2B64196  29.410   4.723   6.712
 5089POPC   C3B64197  29.690   4.822   7.081
 5089POPC   C4B64198  29.589   4.801   7.578
 5090POPC   NC364199  32.489  12.713   5.496
 5090POPC   PO464200  33.010  13.113   5.504
 5090POPC   GL164201  33.104  12.935   5.889
 5090POPC   GL264202  33.074  12.574   5.878
 5090POPC   C1A64203  32.887  12.955   6.284
 5090POPC   D2A64204  32.875  12.802   6.699
 5090POPC   C3A64205  33.059  13.048   7.012
 5090POPC   C4A64206  33.243  13.012   7.428
 5090POPC   C1B64207  32.856  12.425   6.264
 5090POPC   C2B64208  32.679  12.338   6.686
 5090POPC   C3B64209  32.892  12.404   7.090
 5090POPC   C4B64210  32.686  12.420   7.496
 5091POPC   NC364211  37.966  22.625   5.456
 5091POPC   PO464212  37.624  22.071   5.176
 5091POPC   GL164213  37.624  22.113   5.676
 5091POPC   GL264214  37.606  21.776   5.884
 5091POPC   C1A64215  37.856  22.214   6.102
 5091POPC   D2A64216  38.114  21.991   6.477
 5091POPC   C3A64217  37.987  22.030   6.939
 5091POPC   C4A64218  37.842  22.360   7.274
 5091POPC   C1B64219  37.656  21.774   6.339
 5091POPC   C2B64220  37.629  22.170   6.566
 5091POPC   C3B64221  37.491  22.242   6.938
 5091POPC   C4B64222  37.590  21.885   7.229
 5092POPC   NC364223  39.743  14.120   5.219
 5092POPC   PO464224  40.329  13.901   5.470
 5092POPC   GL164225  40.105  13.693   5.781
 5092POPC   GL264226  39.998  13.345   5.731
 5092POPC   C1A64227  39.801  13.719   6.113
 5092POPC   D2A64228  39.723  13.844   6.543
 5092POPC   C3A64229  39.966  13.642   6.876
 5092POPC   C4A64230  40.144  13.721   7.290
 5092POPC   C1B64231  40.148  13.329   6.153
 5092POPC   C2B64232  40.470  13.279   6.447
 5092POPC   C3B64233  40.407  13.356   6.855
 5092POPC   C4B64234  40.122  13.225   7.156
 5093POPC   NC364235   4.056  17.747   5.431
 5093POPC   PO464236   4.505  17.281   5.105
 5093POPC   GL164237   4.525  17.469   5.623
 5093POPC   GL264238   4.353  17.695   5.849
 5093POPC   C1A64239   4.384  17.258   6.107
 5093POPC   D2A64240   4.129  17.344   6.474
 5093POPC   C3A64241   4.234  17.280   6.904
 5093POPC   C4A64242   4.467  17.356   7.277
 5093POPC   C1B64243   4.003  17.748   6.130
 5093POPC   C2B64244   3.848  17.765   6.556
 5093POPC   C3B64245   4.088  17.765   6.932
 5093POPC   C4B64246   3.980  17.565   7.281
 5094POPC   NC364247  33.687  31.465   5.367
 5094POPC   PO464248  34.211  31.088   5.502
 5094POPC   GL164249  34.006  31.455   5.789
 5094POPC   GL264250  33.625  31.583   5.841
 5094POPC   C1A64251  33.925  31.598   6.238
 5094POPC   D2A64252  33.694  31.514   6.623
 5094POPC   C3A64253  34.039  31.517   6.914
 5094POPC   C4A64254  34.248  31.208   7.165
 5094POPC   C1B64255  33.416  31.776   6.212
 5094POPC   C2B64256  33.460  31.981   6.648
 5094POPC   C3B64257  33.565  31.794   7.081
 5094POPC   C4B64258  33.660  31.355   7.194
 5095POPC   NC364259  25.076  44.062   5.470
 5095POPC   PO464260  25.513  43.604   5.453
 5095POPC   GL164261  25.295  43.735   5.819
 5095POPC   GL264262  25.382  44.073   5.863
 5095POPC   C1A64263  25.116  43.874   6.233
 5095POPC   D2A64264  24.973  43.860   6.644
 5095POPC   C3A64265  25.262  43.956   6.912
 5095POPC   C4A64266  25.271  43.774   7.279
 5095POPC   C1B64267  25.457  44.295   6.235
 5095POPC   C2B64268  25.633  44.204   6.640
 5095POPC   C3B64269  25.492  44.420   7.007
 5095POPC   C4B64270  25.277  44.268   7.353
 5096POPC   NC364271  33.275  42.147   5.482
 5096POPC   PO464272  32.635  42.395   5.391
 5096POPC   GL164273  32.834  42.440   5.815
 5096POPC   GL264274  33.197  42.401   5.905
 5096POPC   C1A64275  32.725  42.366   6.266
 5096POPC   D2A64276  33.035  42.387   6.597
 5096POPC   C3A64277  32.821  42.547   6.952
 5096POPC   C4A64278  32.679  42.233   7.205
 5096POPC   C1B64279  33.035  41.988   6.136
 5096POPC   C2B64280  32.791  41.921   6.545
 5096POPC   C3B64281  33.002  41.921   6.931
 5096POPC   C4B64282  33.192  42.252   7.192
 5097POPC   NC364283  39.630  31.774   5.365
 5097POPC   PO464284  39.468  31.124   5.438
 5097POPC   GL164285  39.363  31.339   5.832
 5097POPC   GL264286  39.202  31.651   5.797
 5097POPC   C1A64287  39.263  31.207   6.247
 5097POPC   D2A64288  39.488  31.336   6.610
 5097POPC   C3A64289  39.358  31.494   6.990
 5097POPC   C4A64290  39.143  31.227   7.232
 5097POPC   C1B64291  38.938  31.591   6.180
 5097POPC   C2B64292  38.908  31.393   6.568
 5097POPC   C3B64293  38.865  31.610   6.915
 5097POPC   C4B64294  38.956  31.728   7.288
 5098POPC   NC364295  23.255  44.060   5.685
 5098POPC   PO464296  22.569  43.833   5.570
 5098POPC   GL164297  22.818  43.941   5.902
 5098POPC   GL264298  23.043  43.643   5.958
 5098POPC   C1A64299  22.912  44.049   6.326
 5098POPC   D2A64300  22.765  44.330   6.649
 5098POPC   C3A64301  22.677  44.139   7.045
 5098POPC   C4A64302  23.062  44.039   7.270
 5098POPC   C1B64303  22.658  43.584   6.228
 5098POPC   C2B64304  22.636  43.722   6.654
 5098POPC   C3B64305  22.904  43.656   6.985
 5098POPC   C4B64306  23.091  43.347   7.261
 5099POPC   NC364307  38.669  36.388   5.569
 5099POPC   PO464308  39.108  35.840   5.498
 5099POPC   GL164309  39.240  35.976   5.896
 5099POPC   GL264310  39.525  35.800   5.960
 5099POPC   C1A64311  39.063  36.163   6.231
 5099POPC   D2A64312  39.026  35.973   6.631
 5099POPC   C3A64313  38.810  36.191   6.950
 5099POPC   C4A64314  39.117  36.409   7.197
 5099POPC   C1B64315  39.462  35.844   6.382
 5099POPC   C2B64316  39.453  35.674   6.780
 5099POPC   C3B64317  39.519  35.921   7.116
 5099POPC   C4B64318  39.517  35.930   7.560
 5100POPC   NC364319   5.933  22.673   5.040
 5100POPC   PO464320   5.844  21.992   5.317
 5100POPC   GL164321   5.814  22.123   5.755
 5100POPC   GL264322   5.509  22.225   5.852
 5100POPC   C1A64323   5.890  22.276   6.206
 5100POPC   D2A64324   6.046  22.123   6.608
 5100POPC   C3A64325   6.056  22.438   6.956
 5100POPC   C4A64326   6.193  22.726   7.284
 5100POPC   C1B64327   5.388  22.118   6.246
 5100POPC   C2B64328   5.535  22.234   6.645
 5100POPC   C3B64329   5.710  22.034   7.001
 5100POPC   C4B64330   5.729  22.295   7.332
 5101POPC   NC364331  17.424  22.574   5.520
 5101POPC   PO464332  17.133  23.147   5.394
 5101POPC   GL164333  17.171  23.003   5.822
 5101POPC   GL264334  17.078  22.664   5.890
 5101POPC   C1A64335  17.436  22.979   6.205
 5101POPC   D2A64336  17.726  23.077   6.551
 5101POPC   C3A64337  17.513  23.169   6.896
 5101POPC   C4A64338  17.598  23.141   7.293
 5101POPC   C1B64339  17.283  22.494   6.276
 5101POPC   C2B64340  17.439  22.660   6.667
 5101POPC   C3B64341  17.594  22.690   7.077
 5101POPC   C4B64342  17.723  22.649   7.482
 5102POPC   NC364343  15.586  14.480   5.408
 5102POPC   PO464344  16.201  14.250   5.394
 5102POPC   GL164345  16.014  14.431   5.737
 5102POPC   GL264346  16.258  14.721   5.775
 5102POPC   C1A64347  15.738  14.371   6.114
 5102POPC   D2A64348  15.666  14.209   6.559
 5102POPC   C3A64349  15.754  14.474   6.915
 5102POPC   C4A64350  15.626  14.518   7.336
 5102POPC   C1B64351  16.275  14.479   6.179
 5102POPC   C2B64352  16.198  14.335   6.600
 5102POPC   C3B64353  16.271  14.386   7.047
 5102POPC   C4B64354  16.088  14.769   7.217
 5103POPC   NC364355  14.065   0.166   5.518
 5103POPC   PO464356  14.336  44.503   5.397
 5103POPC   GL164357  14.283  44.505   5.799
 5103POPC   GL264358  14.350  44.856   5.843
 5103POPC   C1A64359  14.425  44.447   6.212
 5103POPC   D2A64360  14.476  44.190   6.558
 5103POPC   C3A64361  14.297  44.344   6.920
 5103POPC   C4A64362  14.358  44.518   7.289
 5103POPC   C1B64363  14.557  44.956   6.232
 5103POPC   C2B64364  14.544  44.762   6.659
 5103POPC   C3B64365  14.531  44.943   7.072
 5103POPC   C4B64366  14.620  44.905   7.531
 5104POPC   NC364367   6.457  11.864   5.417
 5104POPC   PO464368   6.857  11.315   5.348
 5104POPC   GL164369   6.740  11.303   5.777
 5104POPC   GL264370   6.602  11.636   5.859
 5104POPC   C1A64371   6.979  11.321   6.177
 5104POPC   D2A64372   7.183  11.428   6.593
 5104POPC   C3A64373   6.951  11.202   6.916
 5104POPC   C4A64374   6.779  11.209   7.305
 5104POPC   C1B64375   6.438  11.353   6.183
 5104POPC   C2B64376   6.595  11.220   6.558
 5104POPC   C3B64377   6.425  11.338   6.941
 5104POPC   C4B64378   6.524  11.637   7.283
 5105POPC   NC364379  32.581  43.523   5.417
 5105POPC   PO464380  32.075  43.226   5.422
 5105POPC   GL164381  32.198  42.996   5.772
 5105POPC   GL264382  32.497  42.808   5.679
 5105POPC   C1A64383  32.155  43.114   6.253
 5105POPC   D2A64384  31.968  43.193   6.668
 5105POPC   C3A64385  31.966  43.063   7.126
 5105POPC   C4A64386  31.982  43.384   7.462
 5105POPC   C1B64387  32.540  42.815   6.110
 5105POPC   C2B64388  32.408  42.740   6.518
 5105POPC   C3B64389  32.439  42.955   6.893
 5105POPC   C4B64390  32.439  43.160   7.287
 5106POPC   NC364391  23.529  23.317   5.560
 5106POPC   PO464392  23.715  23.854   5.287
 5106POPC   GL164393  23.820  23.849   5.746
 5106POPC   GL264394  23.551  24.086   5.823
 5106POPC   C1A64395  23.862  23.578   6.136
 5106POPC   D2A64396  23.867  23.344   6.531
 5106POPC   C3A64397  23.910  23.534   6.956
 5106POPC   C4A64398  23.515  23.508   7.152
 5106POPC   C1B64399  23.403  23.809   6.109
 5106POPC   C2B64400  23.345  23.884   6.528
 5106POPC   C3B64401  23.372  23.965   6.962
 5106POPC   C4B64402  23.461  24.234   7.291
 5107POPC   NC364403  38.233   8.064   5.448
 5107POPC   PO464404  38.832   8.320   5.526
 5107POPC   GL164405  38.591   8.121   5.854
 5107POPC   GL264406  38.288   8.318   5.879
 5107POPC   C1A64407  38.506   8.211   6.309
 5107POPC   D2A64408  38.202   7.999   6.542
 5107POPC   C3A64409  38.444   7.961   6.874
 5107POPC   C4A64410  38.406   7.886   7.300
 5107POPC   C1B64411  38.024   8.392   6.219
 5107POPC   C2B64412  37.795   8.356   6.582
 5107POPC   C3B64413  37.991   8.262   6.980
 5107POPC   C4B64414  38.401   8.408   7.116
 5108POPC   NC364415   3.958  11.415   5.394
 5108POPC   PO464416   4.645  11.121   5.402
 5108POPC   GL164417   4.399  11.357   5.722
 5108POPC   GL264418   4.415  11.079   5.892
 5108POPC   C1A64419   4.104  11.397   6.124
 5108POPC   D2A64420   4.264  11.343   6.567
 5108POPC   C3A64421   4.021  11.321   6.944
 5108POPC   C4A64422   4.219  11.310   7.356
 5108POPC   C1B64423   4.331  10.930   6.271
 5108POPC   C2B64424   4.607  10.902   6.609
 5108POPC   C3B64425   4.424  10.991   6.987
 5108POPC   C4B64426   4.364  10.816   7.391
 5109POPC   NC364427  32.726   9.452   5.513
 5109POPC   PO464428  33.109  10.049   5.383
 5109POPC   GL164429  33.075   9.807   5.758
 5109POPC   GL264430  32.744   9.845   5.909
 5109POPC   C1A64431  33.199   9.721   6.176
 5109POPC   D2A64432  32.986   9.757   6.574
 5109POPC   C3A64433  33.270   9.681   6.915
 5109POPC   C4A64434  33.370   9.800   7.310
 5109POPC   C1B64435  32.753   9.445   6.170
 5109POPC   C2B64436  32.631   9.371   6.589
 5109POPC   C3B64437  32.857   9.396   6.951
 5109POPC   C4B64438  32.896   9.601   7.335
 5110POPC   NC364439  31.908  41.487   5.480
 5110POPC   PO464440  32.488  41.231   5.432
 5110POPC   GL164441  32.295  41.473   5.825
 5110POPC   GL264442  32.329  41.841   5.809
 5110POPC   C1A64443  32.186  41.319   6.267
 5110POPC   D2A64444  32.213  41.080   6.681
 5110POPC   C3A64445  32.256  41.323   7.077
 5110POPC   C4A64446  32.020  41.712   7.163
 5110POPC   C1B64447  32.154  41.822   6.241
 5110POPC   C2B64448  32.224  41.724   6.674
 5110POPC   C3B64449  32.510  41.784   7.012
 5110POPC   C4B64450  32.432  41.859   7.460
 5111POPC   NC364451  26.220  18.483   5.126
 5111POPC   PO464452  25.723  18.142   5.471
 5111POPC   GL164453  25.829  18.211   5.937
 5111POPC   GL264454  26.173  18.288   6.028
 5111POPC   C1A64455  25.821  18.549   6.314
 5111POPC   D2A64456  25.806  18.750   6.759
 5111POPC   C3A64457  25.815  18.477   7.166
 5111POPC   C4A64458  26.159  18.480   7.478
 5111POPC   C1B64459  26.136  18.148   6.380
 5111POPC   C2B64460  25.965  18.240   6.738
 5111POPC   C3B64461  26.216  18.187   7.064
 5111POPC   C4B64462  26.119  17.965   7.429
 5112POPC   NC364463  40.514  27.685   5.382
 5112POPC   PO464464  41.135  27.565   5.176
 5112POPC   GL164465  40.917  27.466   5.650
 5112POPC   GL264466  40.554  27.485   5.872
 5112POPC   C1A64467  41.019  27.369   6.104
 5112POPC   D2A64468  40.765  27.373   6.477
 5112POPC   C3A64469  40.918  27.244   6.856
 5112POPC   C4A64470  40.886  27.591   7.103
 5112POPC   C1B64471  40.441  27.115   6.176
 5112POPC   C2B64472  40.422  27.041   6.660
 5112POPC   C3B64473  40.429  27.336   7.015
 5112POPC   C4B64474  40.387  27.310   7.481
 5113POPC   NC364475  11.566  14.157   5.369
 5113POPC   PO464476  11.076  14.672   5.296
 5113POPC   GL164477  11.102  14.320   5.656
 5113POPC   GL264478  11.416  14.141   5.845
 5113POPC   C1A64479  11.042  14.353   6.112
 5113POPC   D2A64480  11.068  14.220   6.545
 5113POPC   C3A64481  11.010  14.539   6.851
 5113POPC   C4A64482  11.249  14.564   7.209
 5113POPC   C1B64483  11.579  14.280   6.260
 5113POPC   C2B64484  11.514  14.431   6.698
 5113POPC   C3B64485  11.664  14.309   7.092
 5113POPC   C4B64486  11.742  14.680   7.332
 5114POPC   NC364487  33.194  11.235   5.364
 5114POPC   PO464488  32.510  11.363   5.404
 5114POPC   GL164489  32.848  11.264   5.771
 5114POPC   GL264490  33.212  11.413   5.842
 5114POPC   C1A64491  32.924  11.364   6.241
 5114POPC   D2A64492  33.043  11.570   6.617
 5114POPC   C3A64493  33.303  11.331   6.825
 5114POPC   C4A64494  33.052  11.093   7.086
 5114POPC   C1B64495  33.312  11.024   6.126
 5114POPC   C2B64496  33.548  10.920   6.549
 5114POPC   C3B64497  33.574  10.944   7.022
 5114POPC   C4B64498  33.450  11.282   7.329
 5115POPC   NC364499  36.386  23.419   5.699
 5115POPC   PO464500  35.987  22.919   5.418
 5115POPC   GL164501  35.979  23.130   5.827
 5115POPC   GL264502  36.287  22.935   5.872
 5115POPC   C1A64503  36.104  23.216   6.293
 5115POPC   D2A64504  36.308  22.966   6.654
 5115POPC   C3A64505  36.158  23.022   7.063
 5115POPC   C4A64506  35.741  23.192   7.137
 5115POPC   C1B64507  36.574  22.927   6.208
 5115POPC   C2B64508  36.713  22.655   6.533
 5115POPC   C3B64509  36.501  22.547   6.911
 5115POPC   C4B64510  36.492  22.728   7.309
 5116POPC   NC364511   1.074  27.705   5.378
 5116POPC   PO464512   0.503  27.619   5.645
 5116POPC   GL164513   0.964  27.497   5.825
 5116POPC   GL264514   1.223  27.793   5.871
 5116POPC   C1A64515   1.270  27.383   6.174
 5116POPC   D2A64516   1.318  27.610   6.591
 5116POPC   C3A64517   1.159  27.390   6.954
 5116POPC   C4A64518   1.015  27.404   7.377
 5116POPC   C1B64519   0.947  27.777   6.251
 5116POPC   C2B64520   0.846  27.992   6.637
 5116POPC   C3B64521   0.907  27.853   7.066
 5116POPC   C4B64522   1.301  27.808   7.225
 5117POPC   NC364523   8.709  38.593   5.537
 5117POPC   PO464524   8.046  38.721   5.447
 5117POPC   GL164525   8.258  38.664   5.839
 5117POPC   GL264526   8.255  38.317   5.931
 5117POPC   C1A64527   8.165  38.615   6.305
 5117POPC   D2A64528   7.961  38.497   6.677
 5117POPC   C3A64529   8.212  38.604   7.035
 5117POPC   C4A64530   8.627  38.699   7.185
 5117POPC   C1B64531   8.288  38.105   6.357
 5117POPC   C2B64532   8.410  38.180   6.799
 5117POPC   C3B64533   8.366  38.190   7.278
 5117POPC   C4B64534   8.055  38.148   7.591
 5118POPC   NC364535   5.930  34.912   5.422
 5118POPC   PO464536   5.568  34.431   5.731
 5118POPC   GL164537   5.942  34.340   5.886
 5118POPC   GL264538   6.076  34.664   5.842
 5118POPC   C1A64539   6.012  34.150   6.272
 5118POPC   D2A64540   6.167  34.345   6.614
 5118POPC   C3A64541   5.870  34.336   6.929
 5118POPC   C4A64542   6.054  34.307   7.287
 5118POPC   C1B64543   5.882  34.841   6.197
 5118POPC   C2B64544   5.994  34.845   6.620
 5118POPC   C3B64545   6.110  34.788   7.029
 5118POPC   C4B64546   5.776  34.725   7.318
 5119POPC   NC364547  39.570  38.803   5.329
 5119POPC   PO464548  39.055  38.337   5.508
 5119POPC   GL164549  39.254  38.423   5.874
 5119POPC   GL264550  39.422  38.726   5.801
 5119POPC   C1A64551  39.157  38.599   6.274
 5119POPC   D2A64552  39.080  38.936   6.595
 5119POPC   C3A64553  38.904  38.801   6.980
 5119POPC   C4A64554  39.056  38.572   7.321
 5119POPC   C1B64555  39.647  38.823   6.151
 5119POPC   C2B64556  39.564  38.671   6.563
 5119POPC   C3B64557  39.395  38.592   6.936
 5119POPC   C4B64558  39.677  38.620   7.277
 5120POPC   NC364559   2.115  18.446   5.507
 5120POPC   PO464560   1.613  18.108   5.194
 5120POPC   GL164561   1.801  18.063   5.671
 5120POPC   GL264562   2.158  18.065   5.866
 5120POPC   C1A64563   1.758  18.160   6.154
 5120POPC   D2A64564   2.034  18.183   6.554
 5120POPC   C3A64565   1.913  17.975   6.966
 5120POPC   C4A64566   2.118  17.955   7.386
 5120POPC   C1B64567   2.234  18.449   6.145
 5120POPC   C2B64568   2.337  18.694   6.533
 5120POPC   C3B64569   2.308  18.476   6.951
 5120POPC   C4B64570   2.145  18.456   7.387
 5121POPC   NC364571   7.690   8.603   5.349
 5121POPC   PO464572   7.073   8.867   5.373
 5121POPC   GL164573   7.439   8.925   5.669
 5121POPC   GL264574   7.154   9.023   5.867
 5121POPC   C1A64575   7.559   8.754   6.097
 5121POPC   D2A64576   7.336   8.801   6.515
 5121POPC   C3A64577   7.567   8.798   6.912
 5121POPC   C4A64578   7.476   8.673   7.317
 5121POPC   C1B64579   7.106   9.206   6.264
 5121POPC   C2B64580   7.171   9.334   6.678
 5121POPC   C3B64581   7.123   9.056   7.019
 5121POPC   C4B64582   7.194   9.167   7.420
 5122POPC   NC364583  30.318  24.213   5.604
 5122POPC   PO464584  29.966  24.753   5.320
 5122POPC   GL164585  29.894  24.529   5.762
 5122POPC   GL264586  29.814  24.133   5.748
 5122POPC   C1A64587  29.693  24.603   6.200
 5122POPC   D2A64588  29.856  24.772   6.607
 5122POPC   C3A64589  29.806  24.607   7.024
 5122POPC   C4A64590  30.035  24.810   7.341
 5122POPC   C1B64591  29.931  24.148   6.183
 5122POPC   C2B64592  29.785  24.248   6.593
 5122POPC   C3B64593  29.947  24.106   6.971
 5122POPC   C4B64594  29.991  24.229   7.361
 5123POPC   NC364595  29.424  18.731   5.467
 5123POPC   PO464596  28.876  19.155   5.319
 5123POPC   GL164597  28.971  19.025   5.749
 5123POPC   GL264598  28.930  19.314   5.992
 5123POPC   C1A64599  29.108  18.820   6.147
 5123POPC   D2A64600  28.946  18.944   6.539
 5123POPC   C3A64601  29.230  19.035   6.883
 5123POPC   C4A64602  29.276  18.852   7.314
 5123POPC   C1B64603  28.661  19.370   6.382
 5123POPC   C2B64604  28.727  19.305   6.842
 5123POPC   C3B64605  28.956  19.271   7.261
 5123POPC   C4B64606  29.247  19.311   7.599
 5124POPC   NC364607  44.922   1.404   5.475
 5124POPC   PO464608  44.252   1.140   5.405
 5124POPC   GL164609  44.495   1.113   5.793
 5124POPC   GL264610  44.841   1.009   5.843
 5124POPC   C1A64611  44.481   1.076   6.246
 5124POPC   D2A64612  44.567   1.223   6.627
 5124POPC   C3A64613  44.514   0.934   6.931
 5124POPC   C4A64614  44.426   1.203   7.215
 5124POPC   C1B64615  44.857   1.391   6.160
 5124POPC   C2B64616   0.034   1.407   6.592
 5124POPC   C3B64617  44.879   1.365   7.029
 5124POPC   C4B64618   0.064   1.543   7.374
 5125POPC   NC364619  38.394  26.451   5.294
 5125POPC   PO464620  37.964  26.960   5.180
 5125POPC   GL164621  38.233  26.915   5.623
 5125POPC   GL264622  38.587  26.780   5.647
 5125POPC   C1A64623  38.284  26.905   6.120
 5125POPC   D2A64624  38.447  27.007   6.547
 5125POPC   C3A64625  38.299  26.902   6.967
 5125POPC   C4A64626  38.416  27.020   7.393
 5125POPC   C1B64627  38.562  26.499   6.015
 5125POPC   C2B64628  38.436  26.501   6.436
 5125POPC   C3B64629  38.421  26.358   6.860
 5125POPC   C4B64630  38.528  26.530   7.268
 5126POPC   NC364631  10.083   8.355   5.406
 5126POPC   PO464632  10.714   7.960   5.338
 5126POPC   GL164633  10.613   8.076   5.763
 5126POPC   GL264634  10.445   8.392   5.807
 5126POPC   C1A64635  10.787   8.038   6.180
 5126POPC   D2A64636  10.593   7.958   6.591
 5126POPC   C3A64637  10.696   7.755   6.984
 5126POPC   C4A64638  10.450   8.063   7.199
 5126POPC   C1B64639  10.391   8.377   6.270
 5126POPC   C2B64640  10.339   8.577   6.681
 5126POPC   C3B64641  10.542   8.550   7.091
 5126POPC   C4B64642  10.361   8.459   7.512
 5127POPC   NC364643  24.888   1.094   5.692
 5127POPC   PO464644  25.363   1.434   5.347
 5127POPC   GL164645  25.361   1.361   5.859
 5127POPC   GL264646  25.454   1.026   6.036
 5127POPC   C1A64647  25.423   1.397   6.365
 5127POPC   D2A64648  25.371   1.085   6.723
 5127POPC   C3A64649  25.261   1.319   7.087
 5127POPC   C4A64650  25.362   1.570   7.447
 5127POPC   C1B64651  25.048   1.044   6.323
 5127POPC   C2B64652  24.840   0.930   6.719
 5127POPC   C3B64653  25.012   0.851   7.135
 5127POPC   C4B64654  25.489   0.900   7.258
 5128POPC   NC364655  16.393   8.236   5.485
 5128POPC   PO464656  15.643   8.454   5.516
 5128POPC   GL164657  15.818   8.216   5.817
 5128POPC   GL264658  15.827   7.887   5.699
 5128POPC   C1A64659  15.925   8.393   6.222
 5128POPC   D2A64660  15.696   8.514   6.591
 5128POPC   C3A64661  15.814   8.400   6.987
 5128POPC   C4A64662  16.099   8.306   7.334
 5128POPC   C1B64663  16.034   7.872   6.115
 5128POPC   C2B64664  16.152   8.038   6.512
 5128POPC   C3B64665  16.094   7.983   6.935
 5128POPC   C4B64666  15.945   7.810   7.364
 5129POPC   NC364667  11.710   0.326   5.198
 5129POPC   PO464668  11.155   0.691   5.432
 5129POPC   GL164669  11.159   0.388   5.736
 5129POPC   GL264670  11.541   0.358   5.691
 5129POPC   C1A64671  10.992   0.353   6.172
 5129POPC   D2A64672  11.052   0.738   6.434
 5129POPC   C3A64673  11.225   0.708   6.844
 5129POPC   C4A64674  11.097   0.448   7.192
 5129POPC   C1B64675  11.477   0.506   6.109
 5129POPC   C2B64676  11.420   0.351   6.493
 5129POPC   C3B64677  11.501   0.286   6.888
 5129POPC   C4B64678  11.674   0.420   7.217
 5130POPC   NC364679  10.274  23.379   5.465
 5130POPC   PO464680  10.286  24.032   5.486
 5130POPC   GL164681  10.417  23.784   5.875
 5130POPC   GL264682  10.464  23.434   5.947
 5130POPC   C1A64683  10.678  23.766   6.269
 5130POPC   D2A64684  10.761  23.480   6.608
 5130POPC   C3A64685  10.660  23.772   6.914
 5130POPC   C4A64686  10.830  23.789   7.291
 5130POPC   C1B64687  10.053  23.428   6.181
 5130POPC   C2B64688   9.913  23.322   6.617
 5130POPC   C3B64689  10.255  23.442   6.874
 5130POPC   C4B64690  10.514  23.380   7.212
 5131POPC   NC364691  21.229   2.425   5.245
 5131POPC   PO464692  21.714   2.795   5.419
 5131POPC   GL164693  21.611   2.940   5.817
 5131POPC   GL264694  21.243   2.953   5.784
 5131POPC   C1A64695  21.517   2.801   6.248
 5131POPC   D2A64696  21.260   2.910   6.621
 5131POPC   C3A64697  21.454   2.802   6.973
 5131POPC   C4A64698  21.626   2.987   7.317
 5131POPC   C1B64699  21.019   2.804   6.162
 5131POPC   C2B64700  21.131   2.444   6.454
 5131POPC   C3B64701  21.112   2.405   6.904
 5131POPC   C4B64702  20.995   2.757   7.191
 5132POPC   NC364703  13.462  25.695   5.300
 5132POPC   PO464704  13.894  25.163   5.362
 5132POPC   GL164705  13.788  25.471   5.663
 5132POPC   GL264706  13.497  25.312   5.687
 5132POPC   C1A64707  13.659  25.563   6.120
 5132POPC   D2A64708  13.488  25.668   6.560
 5132POPC   C3A64709  13.424  25.380   6.901
 5132POPC   C4A64710  13.852  25.202   7.054
 5132POPC   C1B64711  13.541  25.011   6.071
 5132POPC   C2B64712  13.606  25.063   6.529
 5132POPC   C3B64713  13.498  24.867   6.947
 5132POPC   C4B64714  13.437  25.061   7.312
 5133POPC   NC364715  35.168  31.043   4.984
 5133POPC   PO464716  35.155  31.632   5.325
 5133POPC   GL164717  35.303  31.721   5.731
 5133POPC   GL264718  35.638  31.868   5.731
 5133POPC   C1A64719  35.301  31.441   6.105
 5133POPC   D2A64720  35.285  31.185   6.522
 5133POPC   C3A64721  35.585  31.243   6.869
 5133POPC   C4A64722  35.424  31.360   7.269
 5133POPC   C1B64723  35.494  31.930   6.170
 5133POPC   C2B64724  35.468  31.669   6.523
 5133POPC   C3B64725  35.282  31.660   6.902
 5133POPC   C4B64726  35.258  31.896   7.249
 5134POPC   NC364727  42.743  16.704   5.624
 5134POPC   PO464728  42.227  16.924   5.265
 5134POPC   GL164729  42.171  16.815   5.683
 5134POPC   GL264730  42.418  17.023   5.855
 5134POPC   C1A64731  42.123  16.715   6.141
 5134POPC   D2A64732  42.338  16.721   6.560
 5134POPC   C3A64733  42.086  16.647   6.927
 5134POPC   C4A64734  42.149  16.367   7.269
 5134POPC   C1B64735  42.631  17.088   6.261
 5134POPC   C2B64736  42.749  17.057   6.704
 5134POPC   C3B64737  42.597  16.776   7.049
 5134POPC   C4B64738  42.481  16.823   7.482
 5135POPC   NC364739  38.151  28.761   5.602
 5135POPC   PO464740  38.424  29.466   5.436
 5135POPC   GL164741  38.356  29.333   5.850
 5135POPC   GL264742  38.590  29.139   5.996
 5135POPC   C1A64743  38.335  29.450   6.298
 5135POPC   D2A64744  38.261  29.248   6.704
 5135POPC   C3A64745  38.663  29.310   6.899
 5135POPC   C4A64746  38.831  29.349   7.308
 5135POPC   C1B64747  38.216  28.942   6.242
 5135POPC   C2B64748  38.092  28.721   6.635
 5135POPC   C3B64749  38.103  28.813   7.055
 5135POPC   C4B64750  38.433  29.006   7.238
 5136POPC   NC364751   9.106  20.366   5.441
 5136POPC   PO464752   8.876  20.954   5.463
 5136POPC   GL164753   9.175  20.792   5.786
 5136POPC   GL264754   9.331  20.475   5.891
 5136POPC   C1A64755   9.215  20.840   6.240
 5136POPC   D2A64756   9.084  21.067   6.622
 5136POPC   C3A64757   8.936  20.834   6.944
 5136POPC   C4A64758   9.091  20.597   7.281
 5136POPC   C1B64759   9.234  20.333   6.292
 5136POPC   C2B64760   9.194  20.406   6.735
 5136POPC   C3B64761   9.125  20.135   7.088
 5136POPC   C4B64762   9.187  20.138   7.564
 5137POPC   NC364763  11.190  25.875   5.515
 5137POPC   PO464764  11.478  26.455   5.522
 5137POPC   GL164765  11.429  26.156   5.896
 5137POPC   GL264766  11.060  26.164   5.951
 5137POPC   C1A64767  11.381  26.010   6.352
 5137POPC   D2A64768  11.553  25.755   6.714
 5137POPC   C3A64769  11.423  25.886   7.159
 5137POPC   C4A64770  11.702  26.016   7.503
 5137POPC   C1B64771  10.945  25.751   6.182
 5137POPC   C2B64772  10.999  25.627   6.637
 5137POPC   C3B64773  10.870  25.730   7.065
 5137POPC   C4B64774  10.947  25.931   7.466
 5138POPC   NC364775  13.717  26.512   5.547
 5138POPC   PO464776  13.901  25.947   5.254
 5138POPC   GL164777  13.634  25.977   5.689
 5138POPC   GL264778  13.284  25.776   5.759
 5138POPC   C1A64779  13.767  26.098   6.125
 5138POPC   D2A64780  13.945  25.948   6.502
 5138POPC   C3A64781  13.723  26.001   6.880
 5138POPC   C4A64782  13.733  25.677   7.185
 5138POPC   C1B64783  13.272  25.906   6.168
 5138POPC   C2B64784  13.404  26.193   6.495
 5138POPC   C3B64785  13.239  26.195   6.903
 5138POPC   C4B64786  13.311  25.954   7.273
 5139POPC   NC364787  11.723   1.373   5.622
 5139POPC   PO464788  12.124   0.937   5.428
 5139POPC   GL164789  12.242   1.027   5.853
 5139POPC   GL264790  12.081   1.307   5.955
 5139POPC   C1A64791  12.143   0.974   6.300
 5139POPC   D2A64792  11.923   1.186   6.647
 5139POPC   C3A64793  12.203   1.245   6.969
 5139POPC   C4A64794  12.549   0.992   7.130
 5139POPC   C1B64795  11.784   1.498   6.254
 5139POPC   C2B64796  11.596   1.614   6.646
 5139POPC   C3B64797  11.781   1.554   7.039
 5139POPC   C4B64798  11.870   1.644   7.438
 5140POPC   NC364799  44.247  11.409   5.182
 5140POPC   PO464800  43.765  11.569   5.684
 5140POPC   GL164801  44.045  11.296   5.892
 5140POPC   GL264802  43.849  11.064   6.057
 5140POPC   C1A64803  44.071  11.433   6.328
 5140POPC   D2A64804  43.797  11.528   6.675
 5140POPC   C3A64805  43.928  11.209   6.932
 5140POPC   C4A64806  43.979  11.028   7.318
 5140POPC   C1B64807  43.535  11.083   6.364
 5140POPC   C2B64808  43.517  10.947   6.773
 5140POPC   C3B64809  43.437  11.232   7.098
 5140POPC   C4B64810  43.491  11.191   7.501
 5141POPC   NC364811  12.364   0.581   5.612
 5141POPC   PO464812  12.836   0.241   5.285
 5141POPC   GL164813  12.907   0.406   5.758
 5141POPC   GL264814  12.675   0.279   5.975
 5141POPC   C1A64815  12.858   0.741   6.145
 5141POPC   D2A64816  12.800   0.935   6.588
 5141POPC   C3A64817  12.878   0.634   6.953
 5141POPC   C4A64818  12.600   0.484   7.318
 5141POPC   C1B64819  13.102   0.307   6.241
 5141POPC   C2B64820  13.187   0.236   6.706
 5141POPC   C3B64821  13.041   0.146   7.144
 5141POPC   C4B64822  13.022   0.339   7.572
 5142POPC   NC364823   1.684  33.245   5.362
 5142POPC   PO464824   2.316  32.857   5.392
 5142POPC   GL164825   2.146  33.168   5.737
 5142POPC   GL264826   1.785  33.283   5.856
 5142POPC   C1A64827   2.176  33.191   6.214
 5142POPC   D2A64828   2.157  33.296   6.675
 5142POPC   C3A64829   2.045  32.922   6.901
 5142POPC   C4A64830   2.063  32.814   7.290
 5142POPC   C1B64831   1.611  33.314   6.272
 5142POPC   C2B64832   1.650  33.184   6.709
 5142POPC   C3B64833   1.801  33.322   7.129
 5142POPC   C4B64834   1.662  33.213   7.595
 5143POPC   NC364835   0.021  27.844   5.315
 5143POPC   PO464836  44.514  27.432   5.300
 5143POPC   GL164837  44.466  27.615   5.710
 5143POPC   GL264838  44.788  27.646   5.723
 5143POPC   C1A64839  44.507  27.821   6.121
 5143POPC   D2A64840  44.343  27.822   6.534
 5143POPC   C3A64841  44.612  27.718   6.889
 5143POPC   C4A64842  44.498  27.497   7.264
 5143POPC   C1B64843  44.758  27.392   6.097
 5143POPC   C2B64844  44.822  27.355   6.512
 5143POPC   C3B64845  44.831  27.248   6.942
 5143POPC   C4B64846   0.026  27.587   7.204
 5144POPC   NC364847  14.090  20.736   5.363
 5144POPC   PO464848  14.694  20.568   5.449
 5144POPC   GL164849  14.514  20.474   5.802
 5144POPC   GL264850  14.771  20.243   5.947
 5144POPC   C1A64851  14.255  20.721   6.107
 5144POPC   D2A64852  14.121  20.623   6.518
 5144POPC   C3A64853  14.267  20.811   6.894
 5144POPC   C4A64854  14.275  20.770   7.313
 5144POPC   C1B64855  14.502  20.318   6.310
 5144POPC   C2B64856  14.484  20.370   6.747
 5144POPC   C3B64857  14.475  20.347   7.141
 5144POPC   C4B64858  14.792  20.277   7.437
 5145POPC   NC364859  12.809  40.318   5.259
 5145POPC   PO464860  13.210  39.801   5.426
 5145POPC   GL164861  12.953  40.022   5.688
 5145POPC   GL264862  13.168  40.206   5.857
 5145POPC   C1A64863  12.609  40.023   5.984
 5145POPC   D2A64864  12.514  40.259   6.354
 5145POPC   C3A64865  12.510  40.070   6.759
 5145POPC   C4A64866  12.517  40.089   7.201
 5145POPC   C1B64867  13.052  40.030   6.235
 5145POPC   C2B64868  12.978  40.198   6.628
 5145POPC   C3B64869  13.025  40.135   7.074
 5145POPC   C4B64870  12.936  40.169   7.520
 5146POPC   NC364871  26.601   9.086   5.286
 5146POPC   PO464872  27.092   8.726   5.501
 5146POPC   GL164873  26.947   8.933   5.825
 5146POPC   GL264874  26.607   8.961   5.783
 5146POPC   C1A64875  26.971   8.887   6.249
 5146POPC   D2A64876  26.965   9.162   6.581
 5146POPC   C3A64877  26.918   8.862   6.853
 5146POPC   C4A64878  26.854   8.718   7.241
 5146POPC   C1B64879  26.658   9.278   6.131
 5146POPC   C2B64880  26.551   9.482   6.557
 5146POPC   C3B64881  26.608   9.283   6.968
 5146POPC   C4B64882  26.986   9.238   7.210
 5147POPC   NC364883  20.504  39.020   5.228
 5147POPC   PO464884  20.824  39.430   5.678
 5147POPC   GL164885  20.524  39.215   5.876
 5147POPC   GL264886  20.514  38.887   5.819
 5147POPC   C1A64887  20.419  39.308   6.286
 5147POPC   D2A64888  20.380  39.562   6.646
 5147POPC   C3A64889  20.514  39.352   6.970
 5147POPC   C4A64890  20.528  39.464   7.328
 5147POPC   C1B64891  20.822  38.965   6.216
 5147POPC   C2B64892  20.808  39.170   6.617
 5147POPC   C3B64893  20.968  39.135   7.062
 5147POPC   C4B64894  20.903  39.211   7.527
 5148POPC   NC364895  43.757  20.526   5.151
 5148POPC   PO464896  44.075  20.657   5.661
 5148POPC   GL164897  43.711  20.623   5.936
 5148POPC   GL264898  43.868  20.340   6.070
 5148POPC   C1A64899  43.661  20.724   6.393
 5148POPC   D2A64900  44.029  20.800   6.684
 5148POPC   C3A64901  43.980  20.766   7.123
 5148POPC   C4A64902  43.731  20.430   7.304
 5148POPC   C1B64903  43.849  20.236   6.466
 5148POPC   C2B64904  43.960  20.139   6.848
 5148POPC   C3B64905  44.247  20.318   7.128
 5148POPC   C4B64906  44.293  20.254   7.577
 5149POPC   NC364907  40.704  33.489   5.375
 5149POPC   PO464908  40.972  32.966   5.119
 5149POPC   GL164909  40.901  33.053   5.628
 5149POPC   GL264910  40.594  32.882   5.823
 5149POPC   C1A64911  40.996  32.977   6.112
 5149POPC   D2A64912  40.770  32.790   6.496
 5149POPC   C3A64913  40.937  32.860   6.918
 5149POPC   C4A64914  41.050  32.889   7.360
 5149POPC   C1B64915  40.541  33.184   6.220
 5149POPC   C2B64916  40.498  33.204   6.688
 5149POPC   C3B64917  40.460  33.330   7.120
 5149POPC   C4B64918  40.642  33.132   7.488
 5150POPC   NC364919  16.867  10.206   5.375
 5150POPC   PO464920  16.830   9.479   5.274
 5150POPC   GL164921  16.591   9.719   5.595
 5150POPC   GL264922  16.779   9.952   5.814
 5150POPC   C1A64923  16.378   9.712   6.016
 5150POPC   D2A64924  16.503   9.706   6.473
 5150POPC   C3A64925  16.356   9.687   6.944
 5150POPC   C4A64926  16.364   9.820   7.419
 5150POPC   C1B64927  16.856   9.543   6.074
 5150POPC   C2B64928  16.866   9.356   6.480
 5150POPC   C3B64929  16.839   9.497   6.912
 5150POPC   C4B64930  16.916   9.663   7.333
 5151POPC   NC364931  44.526  42.874   5.507
 5151POPC   PO464932   0.022  43.400   5.322
 5151POPC   GL164933  44.882  43.162   5.739
 5151POPC   GL264934  44.561  43.297   5.799
 5151POPC   C1A64935  44.586  42.918   6.134
 5151POPC   D2A64936  44.332  43.011   6.524
 5151POPC   C3A64937  44.510  43.012   6.963
 5151POPC   C4A64938  44.567  43.022   7.406
 5151POPC   C1B64939  44.582  43.399   6.251
 5151POPC   C2B64940  44.668  43.410   6.694
 5151POPC   C3B64941  44.543  43.526   7.118
 5151POPC   C4B64942  44.349  43.484   7.507
 5152POPC   NC364943  20.614  40.623   5.332
 5152POPC   PO464944  20.408  41.183   5.615
 5152POPC   GL164945  20.607  40.811   5.824
 5152POPC   GL264946  20.873  40.529   5.758
 5152POPC   C1A64947  20.860  40.865   6.188
 5152POPC   D2A64948  20.920  41.040   6.588
 5152POPC   C3A64949  20.512  40.955   6.795
 5152POPC   C4A64950  20.579  40.981   7.214
 5152POPC   C1B64951  20.740  40.369   6.170
 5152POPC   C2B64952  20.486  40.493   6.536
 5152POPC   C3B64953  20.590  40.503   6.999
 5152POPC   C4B64954  20.875  40.568   7.370
 5153POPC   NC364955  17.088  31.478   5.510
 5153POPC   PO464956  16.458  31.378   5.444
 5153POPC   GL164957  16.544  31.689   5.782
 5153POPC   GL264958  16.742  31.448   5.893
 5153POPC   C1A64959  16.739  31.818   6.231
 5153POPC   D2A64960  16.657  31.657   6.663
 5153POPC   C3A64961  16.773  31.878   7.043
 5153POPC   C4A64962  16.825  31.604   7.403
 5153POPC   C1B64963  16.814  31.298   6.295
 5153POPC   C2B64964  17.119  31.477   6.544
 5153POPC   C3B64965  17.178  31.557   6.966
 5153POPC   C4B64966  17.125  31.212   7.221
 5154POPC   NC364967  42.763  39.189   5.457
 5154POPC   PO464968  43.436  39.347   5.525
 5154POPC   GL164969  43.229  39.574   5.882
 5154POPC   GL264970  42.847  39.623   5.787
 5154POPC   C1A64971  43.243  39.471   6.357
 5154POPC   D2A64972  43.054  39.267   6.745
 5154POPC   C3A64973  43.126  39.120   7.192
 5154POPC   C4A64974  42.980  38.870   7.562
 5154POPC   C1B64975  42.895  39.805   6.198
 5154POPC   C2B64976  42.884  39.760   6.625
 5154POPC   C3B64977  42.825  39.614   7.046
 5154POPC   C4B64978  43.200  39.620   7.276
 5155POPC   NC364979  41.443   1.562   5.337
 5155POPC   PO464980  41.906   0.994   5.559
 5155POPC   GL164981  41.654   1.020   5.907
 5155POPC   GL264982  41.448   1.226   5.751
 5155POPC   C1A64983  41.738   1.117   6.329
 5155POPC   D2A64984  41.803   1.045   6.731
 5155POPC   C3A64985  41.657   1.248   7.072
 5155POPC   C4A64986  41.553   1.048   7.447
 5155POPC   C1B64987  41.401   1.474   6.148
 5155POPC   C2B64988  41.563   1.556   6.575
 5155POPC   C3B64989  41.384   1.655   7.020
 5155POPC   C4B64990  41.505   1.535   7.515
 5156POPC   NC364991  39.816   7.749   5.377
 5156POPC   PO464992  40.290   8.081   5.249
 5156POPC   GL164993  40.122   8.152   5.702
 5156POPC   GL264994  39.768   8.046   5.830
 5156POPC   C1A64995  40.102   8.084   6.181
 5156POPC   D2A64996  40.117   8.276   6.593
 5156POPC   C3A64997  40.113   8.082   6.979
 5156POPC   C4A64998  39.874   8.343   7.219
 5156POPC   C1B64999  39.584   7.943   6.278
 5156POPC   C2B65000  39.459   7.823   6.728
 5156POPC   C3B65001  39.622   7.877   7.149
 5156POPC   C4B65002  39.563   8.123   7.542
 5157POPC   NC365003   6.277   7.167   5.418
 5157POPC   PO465004   6.823   7.456   5.120
 5157POPC   GL165005   6.693   7.308   5.652
 5157POPC   GL265006   6.654   7.057   5.883
 5157POPC   C1A65007   6.566   7.459   6.163
 5157POPC   D2A65008   6.710   7.456   6.653
 5157POPC   C3A65009   6.526   7.631   7.084
 5157POPC   C4A65010   6.449   7.767   7.522
 5157POPC   C1B65011   6.795   6.978   6.301
 5157POPC   C2B65012   6.920   6.981   6.736
 5157POPC   C3B65013   6.664   7.134   7.100
 5157POPC   C4B65014   6.760   7.373   7.500
 5158POPC   NC365015   5.322  21.991   5.440
 5158POPC   PO465016   5.307  22.589   5.553
 5158POPC   GL165017   5.005  22.241   5.766
 5158POPC   GL265018   5.060  21.834   5.830
 5158POPC   C1A65019   4.873  22.139   6.198
 5158POPC   D2A65020   5.008  22.170   6.611
 5158POPC   C3A65021   5.205  21.874   6.842
 5158POPC   C4A65022   5.241  22.168   7.156
 5158POPC   C1B65023   4.680  21.685   6.074
 5158POPC   C2B65024   4.767  21.699   6.551
 5158POPC   C3B65025   4.729  21.844   7.015
 5158POPC   C4B65026   4.972  21.819   7.411
 5159POPC   NC365027   4.727  37.183   5.674
 5159POPC   PO465028   5.227  36.730   5.372
 5159POPC   GL165029   5.163  36.948   5.762
 5159POPC   GL265030   5.065  36.674   5.946
 5159POPC   C1A65031   5.117  37.099   6.218
 5159POPC   D2A65032   5.050  36.880   6.620
 5159POPC   C3A65033   5.066  37.114   7.012
 5159POPC   C4A65034   5.202  36.863   7.356
 5159POPC   C1B65035   4.702  36.757   6.234
 5159POPC   C2B65036   4.537  36.818   6.662
 5159POPC   C3B65037   4.729  36.709   7.099
 5159POPC   C4B65038   4.793  36.704   7.603
 5160POPC   NC365039   5.092  31.143   5.190
 5160POPC   PO465040   4.766  31.554   5.525
 5160POPC   GL165041   4.862  31.410   5.910
 5160POPC   GL265042   5.216  31.422   5.909
 5160POPC   C1A65043   4.948  31.481   6.348
 5160POPC   D2A65044   5.192  31.493   6.721
 5160POPC   C3A65045   4.913  31.465   7.052
 5160POPC   C4A65046   4.973  31.226   7.389
 5160POPC   C1B65047   5.474  31.279   6.251
 5160POPC   C2B65048   5.403  30.973   6.582
 5160POPC   C3B65049   5.304  31.038   7.019
 5160POPC   C4B65050   5.438  31.388   7.281
 5161POPC   NC365051   9.068  28.683   5.648
 5161POPC   PO465052   8.691  29.235   5.390
 5161POPC   GL165053   8.912  29.192   5.817
 5161POPC   GL265054   8.812  28.905   6.047
 5161POPC   C1A65055   9.163  29.353   6.194
 5161POPC   D2A65056   9.254  29.420   6.653
 5161POPC   C3A65057   9.047  29.116   6.917
 5161POPC   C4A65058   8.753  29.074   7.235
 5161POPC   C1B65059   9.222  28.829   6.273
 5161POPC   C2B65060   9.428  28.927   6.627
 5161POPC   C3B65061   9.426  28.770   7.035
 5161POPC   C4B65062   9.205  28.884   7.375
 5162POPC   NC365063  32.479  10.907   5.260
 5162POPC   PO465064  31.869  11.291   5.385
 5162POPC   GL165065  32.031  11.459   5.795
 5162POPC   GL265066  32.395  11.528   5.867
 5162POPC   C1A65067  32.077  11.443   6.272
 5162POPC   D2A65068  32.142  11.610   6.685
 5162POPC   C3A65069  32.117  11.338   7.018
 5162POPC   C4A65070  32.208  11.548   7.383
 5162POPC   C1B65071  32.475  11.165   6.135
 5162POPC   C2B65072  32.546  11.283   6.577
 5162POPC   C3B65073  32.633  11.398   6.997
 5162POPC   C4B65074  32.591  11.024   7.276
 5163POPC   NC365075  44.756   6.869   5.223
 5163POPC   PO465076  44.163   6.497   5.382
 5163POPC   GL165077  44.571   6.534   5.673
 5163POPC   GL265078  44.891   6.327   5.812
 5163POPC   C1A65079  44.592   6.640   6.127
 5163POPC   D2A65080  44.558   6.511   6.562
 5163POPC   C3A65081  44.760   6.711   6.885
 5163POPC   C4A65082  44.582   6.740   7.278
 5163POPC   C1B65083  44.827   6.187   6.255
 5163POPC   C2B65084  44.684   6.035   6.673
 5163POPC   C3B65085  44.618   6.219   7.081
 5163POPC   C4B65086  44.829   6.337   7.461
 5164POPC   NC365087  17.203   3.761   5.418
 5164POPC   PO465088  17.770   3.302   5.505
 5164POPC   GL165089  17.522   3.457   5.832
 5164POPC   GL265090  17.187   3.331   5.714
 5164POPC   C1A65091  17.578   3.637   6.273
 5164POPC   D2A65092  17.853   3.746   6.642
 5164POPC   C3A65093  17.796   3.600   7.065
 5164POPC   C4A65094  17.694   3.629   7.513
 5164POPC   C1B65095  17.093   3.632   6.055
 5164POPC   C2B65096  17.111   3.566   6.489
 5164POPC   C3B65097  17.320   3.583   6.895
 5164POPC   C4B65098  17.366   3.324   7.258
 5165POPC   NC365099  39.047  27.199   5.413
 5165POPC   PO465100  39.031  27.892   5.501
 5165POPC   GL165101  39.145  27.638   5.884
 5165POPC   GL265102  39.448  27.400   5.885
 5165POPC   C1A65103  39.084  27.585   6.356
 5165POPC   D2A65104  39.130  27.858   6.754
 5165POPC   C3A65105  38.980  27.680   7.037
 5165POPC   C4A65106  39.113  27.327   7.033
 5165POPC   C1B65107  39.602  27.736   6.132
 5165POPC   C2B65108  39.555  27.642   6.571
 5165POPC   C3B65109  39.649  27.764   6.989
 5165POPC   C4B65110  39.528  27.531   7.354
 5166POPC   NC365111   2.455  39.228   5.388
 5166POPC   PO465112   2.948  38.836   5.284
 5166POPC   GL165113   2.979  39.025   5.753
 5166POPC   GL265114   2.712  39.287   5.821
 5166POPC   C1A65115   2.923  39.059   6.234
 5166POPC   D2A65116   2.547  39.119   6.546
 5166POPC   C3A65117   2.644  39.111   7.003
 5166POPC   C4A65118   2.967  39.373   7.142
 5166POPC   C1B65119   2.730  39.531   6.200
 5166POPC   C2B65120   2.907  39.469   6.602
 5166POPC   C3B65121   2.546  39.570   6.811
 5166POPC   C4B65122   2.392  39.562   7.194
 5167POPC   NC365123  34.275  15.869   5.477
 5167POPC   PO465124  34.849  16.253   5.342
 5167POPC   GL165125  34.715  16.148   5.756
 5167POPC   GL265126  34.869  15.877   5.895
 5167POPC   C1A65127  34.716  16.238   6.215
 5167POPC   D2A65128  34.944  16.072   6.577
 5167POPC   C3A65129  34.731  16.218   6.925
 5167POPC   C4A65130  34.582  15.956   7.203
 5167POPC   C1B65131  34.694  15.728   6.280
 5167POPC   C2B65132  34.434  15.924   6.600
 5167POPC   C3B65133  34.253  15.690   6.919
 5167POPC   C4B65134  34.237  15.631   7.351
 5168POPC   NC365135   4.479  25.666   5.401
 5168POPC   PO465136   3.893  25.457   5.295
 5168POPC   GL165137   4.147  25.474   5.730
 5168POPC   GL265138   4.453  25.273   5.729
 5168POPC   C1A65139   4.394  25.525   6.161
 5168POPC   D2A65140   4.482  25.514   6.623
 5168POPC   C3A65141   4.155  25.257   6.837
 5168POPC   C4A65142   3.997  24.945   7.127
 5168POPC   C1B65143   4.689  25.107   6.111
 5168POPC   C2B65144   4.541  24.948   6.541
 5168POPC   C3B65145   4.527  24.944   7.001
 5168POPC   C4B65146   4.529  25.382   7.146
 5169POPC   NC365147  37.944   3.711   5.423
 5169POPC   PO465148  37.482   3.333   5.328
 5169POPC   GL165149  37.503   3.474   5.772
 5169POPC   GL265150  37.627   3.779   5.830
 5169POPC   C1A65151  37.570   3.395   6.249
 5169POPC   D2A65152  37.727   3.647   6.619
 5169POPC   C3A65153  37.836   3.536   7.035
 5169POPC   C4A65154  37.696   3.494   7.448
 5169POPC   C1B65155  37.590   3.940   6.221
 5169POPC   C2B65156  37.325   4.010   6.586
 5169POPC   C3B65157  37.453   3.881   7.006
 5169POPC   C4B65158  37.599   3.990   7.414
 5170POPC   NC365159  22.576   5.737   5.136
 5170POPC   PO465160  23.273   5.711   5.336
 5170POPC   GL165161  23.039   5.796   5.721
 5170POPC   GL265162  22.729   5.652   5.660
 5170POPC   C1A65163  23.097   5.882   6.182
 5170POPC   D2A65164  22.960   5.656   6.563
 5170POPC   C3A65165  23.068   5.839   6.926
 5170POPC   C4A65166  23.213   5.853   7.346
 5170POPC   C1B65167  22.667   5.619   6.117
 5170POPC   C2B65168  22.554   5.954   6.435
 5170POPC   C3B65169  22.468   6.013   6.883
 5170POPC   C4B65170  22.692   5.831   7.257
 5171POPC   NC365171  14.567  31.740   5.452
 5171POPC   PO465172  14.175  31.225   5.381
 5171POPC   GL165173  14.367  31.346   5.710
 5171POPC   GL265174  14.145  31.642   5.734
 5171POPC   C1A65175  14.462  31.180   6.088
 5171POPC   D2A65176  14.307  31.227   6.485
 5171POPC   C3A65177  14.513  31.120   6.858
 5171POPC   C4A65178  14.502  31.310   7.262
 5171POPC   C1B65179  14.354  31.680   6.128
 5171POPC   C2B65180  14.431  31.725   6.543
 5171POPC   C3B65181  14.266  31.604   6.917
 5171POPC   C4B65182  14.350  31.785   7.294
 5172POPC   NC365183  13.480   2.979   5.351
 5172POPC   PO465184  13.757   2.427   5.390
 5172POPC   GL165185  13.656   2.617   5.755
 5172POPC   GL265186  13.946   2.743   5.891
 5172POPC   C1A65187  13.582   2.509   6.202
 5172POPC   D2A65188  13.525   2.682   6.633
 5172POPC   C3A65189  13.639   2.421   6.968
 5172POPC   C4A65190  13.499   2.576   7.341
 5172POPC   C1B65191  14.092   2.510   6.271
 5172POPC   C2B65192  14.059   2.575   6.736
 5172POPC   C3B65193  13.917   2.829   7.114
 5172POPC   C4B65194  14.205   3.017   7.422
 5173POPC   NC365195  17.948  28.986   5.279
 5173POPC   PO465196  17.262  29.210   5.437
 5173POPC   GL165197  17.371  29.223   5.861
 5173POPC   GL265198  17.685  29.160   5.794
 5173POPC   C1A65199  17.356  28.992   6.267
 5173POPC   D2A65200  17.365  29.195   6.646
 5173POPC   C3A65201  17.107  29.214   6.989
 5173POPC   C4A65202  17.440  29.117   7.261
 5173POPC   C1B65203  17.797  29.224   6.248
 5173POPC   C2B65204  17.862  29.105   6.680
 5173POPC   C3B65205  17.869  28.863   7.079
 5173POPC   C4B65206  17.814  28.930   7.565
 5174POPC   NC365207  28.208   7.513   5.450
 5174POPC   PO465208  28.857   7.236   5.574
 5174POPC   GL165209  28.515   7.391   5.832
 5174POPC   GL265210  28.256   7.157   5.914
 5174POPC   C1A65211  28.232   7.621   6.126
 5174POPC   D2A65212  28.059   7.417   6.516
 5174POPC   C3A65213  28.241   7.592   6.866
 5174POPC   C4A65214  28.470   7.508   7.198
 5174POPC   C1B65215  28.528   7.240   6.319
 5174POPC   C2B65216  28.428   7.030   6.695
 5174POPC   C3B65217  28.245   7.079   7.054
 5174POPC   C4B65218  28.373   7.078   7.503
 5175POPC   NC365219  24.697  38.545   5.346
 5175POPC   PO465220  24.162  38.161   5.604
 5175POPC   GL165221  24.403  38.370   5.935
 5175POPC   GL265222  24.766  38.424   5.854
 5175POPC   C1A65223  24.340  38.478   6.371
 5175POPC   D2A65224  24.582  38.666   6.734
 5175POPC   C3A65225  24.416  38.610   7.175
 5175POPC   C4A65226  24.453  38.306   7.547
 5175POPC   C1B65227  24.841  38.515   6.292
 5175POPC   C2B65228  24.913  38.245   6.669
 5175POPC   C3B65229  24.879  38.308   7.089
 5175POPC   C4B65230  24.924  38.726   7.162
 5176POPC   NC365231   3.779  20.970   5.567
 5176POPC   PO465232   3.303  20.414   5.510
 5176POPC   GL165233   3.543  20.601   5.850
 5176POPC   GL265234   3.393  20.910   5.937
 5176POPC   C1A65235   3.780  20.699   6.243
 5176POPC   D2A65236   3.667  20.584   6.659
 5176POPC   C3A65237   3.795  20.779   6.988
 5176POPC   C4A65238   3.713  20.555   7.332
 5176POPC   C1B65239   3.267  20.658   6.311
 5176POPC   C2B65240   3.120  20.749   6.731
 5176POPC   C3B65241   3.279  20.785   7.161
 5176POPC   C4B65242   3.285  20.816   7.622
 5177POPC   NC365243  18.115  24.959   5.009
 5177POPC   PO465244  18.237  25.128   5.646
 5177POPC   GL165245  18.145  25.289   6.024
 5177POPC   GL265246  17.832  25.125   6.006
 5177POPC   C1A65247  18.499  25.403   6.311
 5177POPC   D2A65248  18.702  25.348   6.706
 5177POPC   C3A65249  18.324  25.307   6.914
 5177POPC   C4A65250  18.180  25.279   7.316
 5177POPC   C1B65251  17.683  25.443   6.255
 5177POPC   C2B65252  17.865  25.394   6.661
 5177POPC   C3B65253  17.960  24.965   6.830
 5177POPC   C4B65254  17.895  24.836   7.241
 5178POPC   NC365255   0.656  12.066   5.361
 5178POPC   PO465256   0.304  12.602   5.331
 5178POPC   GL165257   0.372  12.323   5.745
 5178POPC   GL265258   0.166  11.991   5.748
 5178POPC   C1A65259   0.442  12.232   6.221
 5178POPC   D2A65260   0.418  12.398   6.677
 5178POPC   C3A65261   0.468  12.077   7.014
 5178POPC   C4A65262   0.666  11.681   7.153
 5178POPC   C1B65263   0.003  11.922   6.174
 5178POPC   C2B65264   0.183  11.921   6.593
 5178POPC   C3B65265   0.017  11.825   7.004
 5178POPC   C4B65266   0.223  11.770   7.385
 5179POPC   NC365267  13.929  36.049   5.469
 5179POPC   PO465268  13.324  36.404   5.442
 5179POPC   GL165269  13.501  36.177   5.765
 5179POPC   GL265270  13.502  36.470   5.954
 5179POPC   C1A65271  13.608  36.008   6.177
 5179POPC   D2A65272  13.548  36.167   6.590
 5179POPC   C3A65273  13.605  35.852   6.899
 5179POPC   C4A65274  13.393  35.751   7.269
 5179POPC   C1B65275  13.849  36.495   6.278
 5179POPC   C2B65276  14.129  36.429   6.654
 5179POPC   C3B65277  14.017  36.361   7.090
 5179POPC   C4B65278  13.599  36.282   7.261
 5180POPC   NC365279  24.665  21.750   5.379
 5180POPC   PO465280  24.807  21.124   5.547
 5180POPC   GL165281  24.642  21.444   5.844
 5180POPC   GL265282  24.319  21.591   5.777
 5180POPC   C1A65283  24.426  21.356   6.246
 5180POPC   D2A65284  24.581  21.425   6.641
 5180POPC   C3A65285  24.444  21.271   6.995
 5180POPC   C4A65286  24.465  21.205   7.383
 5180POPC   C1B65287  24.261  21.822   6.145
 5180POPC   C2B65288  24.085  21.674   6.522
 5180POPC   C3B65289  24.162  21.671   6.936
 5180POPC   C4B65290  24.179  21.697   7.356
 5181POPC   NC365291  13.394  19.523   5.260
 5181POPC   PO465292  13.662  20.161   5.464
 5181POPC   GL165293  13.693  19.974   5.877
 5181POPC   GL265294  13.478  19.697   5.866
 5181POPC   C1A65295  13.599  19.922   6.330
 5181POPC   D2A65296  13.710  19.809   6.747
 5181POPC   C3A65297  13.561  20.008   7.104
 5181POPC   C4A65298  13.448  19.870   7.538
 5181POPC   C1B65299  13.895  19.564   6.104
 5181POPC   C2B65300  14.128  19.603   6.479
 5181POPC   C3B65301  14.039  19.447   6.880
 5181POPC   C4B65302  13.861  19.608   7.267
 5182POPC   NC365303  22.516  15.060   5.326
 5182POPC   PO465304  21.865  14.822   5.209
 5182POPC   GL165305  22.022  15.011   5.656
 5182POPC   GL265306  22.369  15.138   5.804
 5182POPC   C1A65307  21.898  15.255   6.056
 5182POPC   D2A65308  21.989  15.440   6.487
 5182POPC   C3A65309  21.755  15.448   6.875
 5182POPC   C4A65310  21.991  15.359   7.250
 5182POPC   C1B65311  22.374  15.157   6.259
 5182POPC   C2B65312  22.121  14.881   6.524
 5182POPC   C3B65313  22.033  14.951   6.951
 5182POPC   C4B65314  22.321  14.928   7.288
 5183POPC   NC365315  22.432  16.060   5.486
 5183POPC   PO465316  21.958  15.625   5.470
 5183POPC   GL165317  22.158  15.649   5.832
 5183POPC   GL265318  22.072  15.982   5.873
 5183POPC   C1A65319  22.354  15.677   6.215
 5183POPC   D2A65320  22.368  15.904   6.576
 5183POPC   C3A65321  22.210  15.729   6.951
 5183POPC   C4A65322  21.879  15.864   7.225
 5183POPC   C1B65323  22.366  16.202   6.137
 5183POPC   C2B65324  22.237  16.412   6.498
 5183POPC   C3B65325  22.183  16.254   6.915
 5183POPC   C4B65326  22.417  16.166   7.267
 5184POPC   NC365327  16.282  32.488   5.651
 5184POPC   PO465328  15.861  32.960   5.319
 5184POPC   GL165329  15.910  32.864   5.772
 5184POPC   GL265330  15.554  32.753   5.801
 5184POPC   C1A65331  16.150  33.045   6.177
 5184POPC   D2A65332  16.349  33.147   6.605
 5184POPC   C3A65333  16.148  33.013   6.986
 5184POPC   C4A65334  16.064  33.252   7.348
 5184POPC   C1B65335  15.631  33.068   6.155
 5184POPC   C2B65336  15.789  33.032   6.596
 5184POPC   C3B65337  15.617  32.990   7.019
 5184POPC   C4B65338  15.822  32.784   7.342
 5185POPC   NC365339  21.898  33.461   5.339
 5185POPC   PO465340  22.211  34.113   5.435
 5185POPC   GL165341  21.994  33.895   5.744
 5185POPC   GL265342  22.146  33.583   5.822
 5185POPC   C1A65343  22.034  33.904   6.189
 5185POPC   D2A65344  22.208  34.125   6.556
 5185POPC   C3A65345  22.299  33.821   6.868
 5185POPC   C4A65346  22.157  33.710   7.284
 5185POPC   C1B65347  22.429  33.561   6.230
 5185POPC   C2B65348  22.561  33.376   6.639
 5185POPC   C3B65349  22.607  33.452   7.066
 5185POPC   C4B65350  22.702  33.788   7.235
 5186POPC   NC365351  19.562  12.186   5.577
 5186POPC   PO465352  20.120  11.889   5.513
 5186POPC   GL165353  19.911  11.998   5.900
 5186POPC   GL265354  19.753  12.336   6.004
 5186POPC   C1A65355  19.976  11.776   6.275
 5186POPC   D2A65356  19.826  11.793   6.705
 5186POPC   C3A65357  20.065  11.838   7.080
 5186POPC   C4A65358  19.885  11.939   7.460
 5186POPC   C1B65359  19.710  12.217   6.426
 5186POPC   C2B65360  19.460  12.147   6.803
 5186POPC   C3B65361  19.528  12.222   7.247
 5186POPC   C4B65362  19.440  12.238   7.765
 5187POPC   NC365363  35.793  18.315   5.353
 5187POPC   PO465364  36.456  18.281   5.297
 5187POPC   GL165365  36.176  18.047   5.646
 5187POPC   GL265366  35.822  18.092   5.823
 5187POPC   C1A65367  36.249  17.978   6.096
 5187POPC   D2A65368  36.369  18.232   6.450
 5187POPC   C3A65369  36.189  18.050   6.798
 5187POPC   C4A65370  36.324  17.857   7.177
 5187POPC   C1B65371  35.876  18.338   6.206
 5187POPC   C2B65372  35.799  18.485   6.643
 5187POPC   C3B65373  35.949  18.392   7.083
 5187POPC   C4B65374  35.949  18.624   7.447
 5188POPC   NC365375  13.908  14.238   5.314
 5188POPC   PO465376  13.259  14.302   5.198
 5188POPC   GL165377  13.518  14.295   5.666
 5188POPC   GL265378  13.816  14.516   5.734
 5188POPC   C1A65379  13.487  14.435   6.143
 5188POPC   D2A65380  13.544  14.598   6.587
 5188POPC   C3A65381  13.403  14.379   6.960
 5188POPC   C4A65382  13.563  14.007   7.176
 5188POPC   C1B65383  13.959  14.700   6.134
 5188POPC   C2B65384  14.063  14.612   6.560
 5188POPC   C3B65385  13.903  14.395   6.928
 5188POPC   C4B65386  13.769  14.485   7.347
 5189POPC   NC365387  33.477  17.278   5.276
 5189POPC   PO465388  33.594  17.911   5.408
 5189POPC   GL165389  33.734  17.730   5.833
 5189POPC   GL265390  33.582  17.392   5.816
 5189POPC   C1A65391  33.947  17.608   6.254
 5189POPC   D2A65392  34.041  17.448   6.678
 5189POPC   C3A65393  33.861  17.683   7.042
 5189POPC   C4A65394  33.488  17.986   7.133
 5189POPC   C1B65395  33.501  17.364   6.258
 5189POPC   C2B65396  33.602  17.161   6.664
 5189POPC   C3B65397  33.505  17.232   7.093
 5189POPC   C4B65398  33.527  17.090   7.537
 5190POPC   NC365399  17.472  25.931   5.181
 5190POPC   PO465400  17.960  26.411   5.107
 5190POPC   GL165401  17.739  26.220   5.564
 5190POPC   GL265402  17.498  25.917   5.676
 5190POPC   C1A65403  17.675  26.220   6.070
 5190POPC   D2A65404  17.743  26.344   6.539
 5190POPC   C3A65405  17.704  26.153   6.989
 5190POPC   C4A65406  17.658  26.270   7.470
 5190POPC   C1B65407  17.352  25.831   6.096
 5190POPC   C2B65408  17.301  26.080   6.467
 5190POPC   C3B65409  17.174  25.970   6.872
 5190POPC   C4B65410  17.332  25.880   7.275
 5191POPC   NC365411   7.837   9.873   5.425
 5191POPC   PO465412   8.491  10.064   5.363
 5191POPC   GL165413   8.299   9.877   5.769
 5191POPC   GL265414   8.050   9.596   5.811
 5191POPC   C1A65415   8.428   9.677   6.171
 5191POPC   D2A65416   8.416   9.531   6.598
 5191POPC   C3A65417   8.527   9.928   6.804
 5191POPC   C4A65418   8.498  10.105   7.175
 5191POPC   C1B65419   7.893   9.793   6.200
 5191POPC   C2B65420   8.058   9.906   6.603
 5191POPC   C3B65421   8.090   9.763   7.022
 5191POPC   C4B65422   7.748   9.969   7.184
 5192POPC   NC365423   0.043   4.653   5.090
 5192POPC   PO465424   0.557   4.649   5.562
 5192POPC   GL165425   0.427   4.332   5.881
 5192POPC   GL265426   0.086   4.165   5.935
 5192POPC   C1A65427   0.415   4.408   6.278
 5192POPC   D2A65428   0.640   4.305   6.586
 5192POPC   C3A65429   0.442   4.459   6.918
 5192POPC   C4A65430   0.507   4.368   7.318
 5192POPC   C1B65431  44.914   4.443   6.249
 5192POPC   C2B65432  44.993   4.487   6.688
 5192POPC   C3B65433   0.018   4.245   7.103
 5192POPC   C4B65434  44.970   4.377   7.564
 5193POPC   NC365435  22.694   3.859   5.614
 5193POPC   PO465436  22.602   3.187   5.421
 5193POPC   GL165437  22.862   3.418   5.794
 5193POPC   GL265438  23.170   3.693   5.740
 5193POPC   C1A65439  22.870   3.537   6.270
 5193POPC   D2A65440  23.029   3.401   6.709
 5193POPC   C3A65441  22.889   3.537   7.121
 5193POPC   C4A65442  22.789   3.573   7.549
 5193POPC   C1B65443  23.135   3.970   6.124
 5193POPC   C2B65444  23.113   3.909   6.606
 5193POPC   C3B65445  23.015   4.035   7.066
 5193POPC   C4B65446  22.917   4.061   7.555
 5194POPC   NC365447  13.798  18.798   5.544
 5194POPC   PO465448  13.870  19.404   5.253
 5194POPC   GL165449  13.610  19.256   5.640
 5194POPC   GL265450  13.227  19.242   5.713
 5194POPC   C1A65451  13.577  19.176   6.090
 5194POPC   D2A65452  13.609  19.362   6.504
 5194POPC   C3A65453  13.737  19.038   6.794
 5194POPC   C4A65454  13.776  19.021   7.236
 5194POPC   C1B65455  13.098  19.008   6.133
 5194POPC   C2B65456  13.223  19.003   6.583
 5194POPC   C3B65457  13.277  18.938   7.055
 5194POPC   C4B65458  13.291  18.533   7.271
 5195POPC   NC365459  15.179  37.560   5.444
 5195POPC   PO465460  15.511  38.120   5.654
 5195POPC   GL165461  15.197  37.909   5.890
 5195POPC   GL265462  15.137  37.550   5.954
 5195POPC   C1A65463  15.025  37.932   6.301
 5195POPC   D2A65464  14.925  37.903   6.747
 5195POPC   C3A65465  15.217  37.987   7.096
 5195POPC   C4A65466  15.173  37.934   7.584
 5195POPC   C1B65467  15.085  37.445   6.440
 5195POPC   C2B65468  15.260  37.328   6.846
 5195POPC   C3B65469  15.210  37.490   7.262
 5195POPC   C4B65470  14.930  37.482   7.588
 5196POPC   NC365471  13.976  22.437   5.769
 5196POPC   PO465472  14.517  22.291   5.365
 5196POPC   GL165473  14.397  22.100   5.775
 5196POPC   GL265474  14.119  21.978   5.952
 5196POPC   C1A65475  14.645  22.009   6.163
 5196POPC   D2A65476  14.649  22.271   6.525
 5196POPC   C3A65477  14.705  22.116   6.943
 5196POPC   C4A65478  14.453  22.278   7.243
 5196POPC   C1B65479  14.176  22.110   6.366
 5196POPC   C2B65480  14.200  22.273   6.779
 5196POPC   C3B65481  14.000  22.472   7.146
 5196POPC   C4B65482  13.965  22.066   7.358
 5197POPC   NC365483  25.911  34.460   5.399
 5197POPC   PO465484  26.500  34.845   5.461
 5197POPC   GL165485  26.261  34.555   5.760
 5197POPC   GL265486  25.913  34.667   5.852
 5197POPC   C1A65487  26.159  34.341   6.167
 5197POPC   D2A65488  25.915  34.229   6.526
 5197POPC   C3A65489  26.097  34.289   6.939
 5197POPC   C4A65490  25.924  34.525   7.263
 5197POPC   C1B65491  26.017  34.873   6.208
 5197POPC   C2B65492  26.138  35.092   6.555
 5197POPC   C3B65493  25.977  34.901   6.910
 5197POPC   C4B65494  26.081  35.031   7.300
 5198POPC   NC365495   5.595  40.356   5.208
 5198POPC   PO465496   5.676  39.748   5.405
 5198POPC   GL165497   5.827  40.092   5.707
 5198POPC   GL265498   6.101  39.900   5.843
 5198POPC   C1A65499   5.843  40.207   6.203
 5198POPC   D2A65500   6.085  40.314   6.590
 5198POPC   C3A65501   5.977  40.289   7.050
 5198POPC   C4A65502   6.124  39.997   7.394
 5198POPC   C1B65503   5.702  39.729   6.064
 5198POPC   C2B65504   5.526  39.865   6.459
 5198POPC   C3B65505   5.660  39.935   6.891
 5198POPC   C4B65506   5.651  39.793   7.323
 5199POPC   NC365507  27.356   9.126   5.550
 5199POPC   PO465508  27.843   8.650   5.470
 5199POPC   GL165509  27.797   8.914   5.860
 5199POPC   GL265510  27.465   9.067   6.034
 5199POPC   C1A65511  27.812   8.786   6.289
 5199POPC   D2A65512  27.497   8.835   6.567
 5199POPC   C3A65513  27.653   8.760   6.961
 5199POPC   C4A65514  27.339   8.890   7.175
 5199POPC   C1B65515  27.760   9.298   6.296
 5199POPC   C2B65516  28.005   9.235   6.678
 5199POPC   C3B65517  27.932   9.174   7.133
 5199POPC   C4B65518  27.978   9.192   7.595
 5200POPC   NC365519   1.723  13.648   5.576
 5200POPC   PO465520   1.067  13.511   5.497
 5200POPC   GL165521   0.959  13.542   5.875
 5200POPC   GL265522   1.301  13.686   5.940
 5200POPC   C1A65523   0.884  13.642   6.280
 5200POPC   D2A65524   1.227  13.712   6.517
 5200POPC   C3A65525   1.241  13.429   6.814
 5200POPC   C4A65526   1.006  13.397   7.186
 5200POPC   C1B65527   1.625  13.838   6.232
 5200POPC   C2B65528   1.727  13.725   6.679
 5200POPC   C3B65529   1.753  13.936   7.108
 5200POPC   C4B65530   1.635  13.850   7.536
 5201POPC   NC365531  30.055  41.281   5.484
 5201POPC   PO465532  29.967  41.828   5.643
 5201POPC   GL165533  29.862  41.554   5.939
 5201POPC   GL265534  29.633  41.338   5.773
 5201POPC   C1A65535  30.097  41.473   6.321
 5201POPC   D2A65536  30.372  41.712   6.614
 5201POPC   C3A65537  30.315  41.531   7.027
 5201POPC   C4A65538  29.971  41.436   7.277
 5201POPC   C1B65539  29.649  41.189   6.225
 5201POPC   C2B65540  29.726  41.306   6.662
 5201POPC   C3B65541  29.517  41.299   7.042
 5201POPC   C4B65542  29.483  41.396   7.499
 5202POPC   NC365543  28.059  44.526   5.683
 5202POPC   PO465544  28.575  44.731   5.148
 5202POPC   GL165545  28.535  44.737   5.654
 5202POPC   GL265546  28.792  44.510   5.842
 5202POPC   C1A65547  28.533  44.888   6.099
 5202POPC   D2A65548  28.263  44.886   6.488
 5202POPC   C3A65549  28.458  44.829   6.895
 5202POPC   C4A65550  28.464  44.759   7.328
 5202POPC   C1B65551  28.625  44.383   6.270
 5202POPC   C2B65552  28.425  44.311   6.685
 5202POPC   C3B65553  28.212  44.365   7.087
 5202POPC   C4B65554  28.422  44.270   7.465
 5203POPC   NC365555   5.712  29.009   5.323
 5203POPC   PO465556   6.083  29.571   5.523
 5203POPC   GL165557   5.817  29.311   5.737
 5203POPC   GL265558   5.984  28.992   5.761
 5203POPC   C1A65559   5.678  29.333   6.160
 5203POPC   D2A65560   5.738  29.479   6.587
 5203POPC   C3A65561   5.561  29.271   6.965
 5203POPC   C4A65562   5.799  29.223   7.355
 5203POPC   C1B65563   5.837  28.822   6.141
 5203POPC   C2B65564   5.691  28.949   6.560
 5203POPC   C3B65565   5.909  28.868   6.970
 5203POPC   C4B65566   6.112  28.839   7.393
 5204POPC   NC365567   2.525   7.954   5.289
 5204POPC   PO465568   2.917   8.435   5.278
 5204POPC   GL165569   2.756   8.427   5.709
 5204POPC   GL265570   3.040   8.301   5.817
 5204POPC   C1A65571   2.698   8.344   6.203
 5204POPC   D2A65572   2.839   8.086   6.592
 5204POPC   C3A65573   2.615   8.073   7.000
 5204POPC   C4A65574   2.731   8.150   7.452
 5204POPC   C1B65575   3.195   8.182   6.210
 5204POPC   C2B65576   3.290   8.358   6.606
 5204POPC   C3B65577   3.030   8.441   6.956
 5204POPC   C4B65578   3.199   8.364   7.325
 5205POPC   NC365579  10.708   6.809   5.224
 5205POPC   PO465580  11.148   7.096   5.594
 5205POPC   GL165581  10.796   6.840   5.848
 5205POPC   GL265582  10.457   6.767   5.719
 5205POPC   C1A65583  10.726   6.666   6.304
 5205POPC   D2A65584  10.587   6.908   6.664
 5205POPC   C3A65585  10.485   6.680   7.014
 5205POPC   C4A65586  10.792   6.444   7.169
 5205POPC   C1B65587  10.253   6.671   6.137
 5205POPC   C2B65588  10.181   6.617   6.580
 5205POPC   C3B65589  10.011   6.498   6.990
 5205POPC   C4B65590  10.146   6.451   7.422
 5206POPC   NC365591  18.542   0.439   5.510
 5206POPC   PO465592  17.951   0.495   5.217
 5206POPC   GL165593  18.064   0.631   5.666
 5206POPC   GL265594  17.972   0.940   5.883
 5206POPC   C1A65595  18.158   0.488   6.099
 5206POPC   D2A65596  18.399   0.536   6.505
 5206POPC   C3A65597  18.242   0.386   6.924
 5206POPC   C4A65598  18.342   0.262   7.367
 5206POPC   C1B65599  18.161   0.955   6.327
 5206POPC   C2B65600  18.183   0.916   6.791
 5206POPC   C3B65601  18.327   0.792   7.213
 5206POPC   C4B65602  18.134   0.703   7.604
 5207POPC   NC365603  40.365  35.995   5.383
 5207POPC   PO465604  39.821  36.417   5.509
 5207POPC   GL165605  39.889  36.196   5.877
 5207POPC   GL265606  40.042  35.899   5.777
 5207POPC   C1A65607  40.072  36.110   6.281
 5207POPC   D2A65608  39.889  35.958   6.668
 5207POPC   C3A65609  39.857  36.286   6.942
 5207POPC   C4A65610  39.592  36.396   7.285
 5207POPC   C1B65611  40.391  35.758   6.092
 5207POPC   C2B65612  40.325  35.719   6.567
 5207POPC   C3B65613  40.270  35.947   7.014
 5207POPC   C4B65614  39.982  36.000   7.372
 5208POPC   NC365615  13.098  18.108   5.485
 5208POPC   PO465616  13.295  18.743   5.532
 5208POPC   GL165617  13.082  18.472   5.880
 5208POPC   GL265618  12.849  18.161   5.929
 5208POPC   C1A65619  12.967  18.513   6.323
 5208POPC   D2A65620  13.032  18.569   6.784
 5208POPC   C3A65621  12.805  18.415   7.133
 5208POPC   C4A65622  13.041  18.068   7.314
 5208POPC   C1B65623  12.580  18.174   6.289
 5208POPC   C2B65624  12.522  18.241   6.714
 5208POPC   C3B65625  12.520  17.986   7.031
 5208POPC   C4B65626  12.685  17.705   7.288
 5209POPC   NC365627   8.249   0.079   5.287
 5209POPC   PO465628   8.063   0.640   5.145
 5209POPC   GL165629   8.027   0.676   5.614
 5209POPC   GL265630   8.014   0.346   5.742
 5209POPC   C1A65631   8.171   0.734   6.050
 5209POPC   D2A65632   8.347   0.523   6.407
 5209POPC   C3A65633   8.270   0.649   6.844
 5209POPC   C4A65634   8.115   0.573   7.260
 5209POPC   C1B65635   7.842   0.206   6.152
 5209POPC   C2B65636   7.966   0.233   6.597
 5209POPC   C3B65637   7.847   0.164   7.009
 5209POPC   C4B65638   7.568  44.967   7.261
 5210POPC   NC365639  13.836  23.940   5.635
 5210POPC   PO465640  14.192  23.535   5.224
 5210POPC   GL165641  14.345  23.573   5.729
 5210POPC   GL265642  14.260  23.902   5.907
 5210POPC   C1A65643  14.598  23.633   6.163
 5210POPC   D2A65644  14.561  23.546   6.639
 5210POPC   C3A65645  14.353  23.757   6.981
 5210POPC   C4A65646  14.548  23.667   7.388
 5210POPC   C1B65647  13.977  24.083   6.248
 5210POPC   C2B65648  13.936  24.006   6.693
 5210POPC   C3B65649  13.956  24.080   7.127
 5210POPC   C4B65650  14.102  23.901   7.476
 5211POPC   NC365651   8.545  15.245   5.411
 5211POPC   PO465652   9.104  14.935   5.318
 5211POPC   GL165653   8.977  15.174   5.701
 5211POPC   GL265654   8.662  15.027   5.860
 5211POPC   C1A65655   9.044  15.440   6.079
 5211POPC   D2A65656   9.203  15.362   6.491
 5211POPC   C3A65657   9.003  15.396   6.867
 5211POPC   C4A65658   9.316  15.346   7.183
 5211POPC   C1B65659   8.713  15.105   6.309
 5211POPC   C2B65660   8.980  14.876   6.598
 5211POPC   C3B65661   9.113  14.912   7.018
 5211POPC   C4B65662   9.212  14.871   7.437
 5212POPC   NC365663  27.218  12.546   5.374
 5212POPC   PO465664  26.911  11.973   5.436
 5212POPC   GL165665  26.819  11.896   5.838
 5212POPC   GL265666  26.436  11.957   5.845
 5212POPC   C1A65667  27.120  12.058   6.165
 5212POPC   D2A65668  27.216  12.290   6.575
 5212POPC   C3A65669  26.910  12.318   6.954
 5212POPC   C4A65670  26.830  12.610   7.324
 5212POPC   C1B65671  26.626  12.172   6.204
 5212POPC   C2B65672  26.834  11.936   6.576
 5212POPC   C3B65673  26.837  11.799   7.010
 5212POPC   C4B65674  26.628  11.916   7.430
 5213POPC   NC365675  32.872  31.797   5.672
 5213POPC   PO465676  32.964  32.432   5.395
 5213POPC   GL165677  33.114  32.291   5.760
 5213POPC   GL265678  33.143  32.633   5.855
 5213POPC   C1A65679  33.308  32.284   6.169
 5213POPC   D2A65680  33.029  32.191   6.455
 5213POPC   C3A65681  33.066  32.363   6.833
 5213POPC   C4A65682  33.194  32.178   7.183
 5213POPC   C1B65683  32.797  32.513   6.123
 5213POPC   C2B65684  32.570  32.443   6.494
 5213POPC   C3B65685  32.593  32.527   6.890
 5213POPC   C4B65686  32.814  32.577   7.260
 5214POPC   NC365687   2.453  13.866   5.436
 5214POPC   PO465688   2.896  13.301   5.515
 5214POPC   GL165689   2.655  13.522   5.786
 5214POPC   GL265690   2.897  13.804   5.701
 5214POPC   C1A65691   2.497  13.498   6.231
 5214POPC   D2A65692   2.536  13.800   6.596
 5214POPC   C3A65693   2.570  13.603   6.989
 5214POPC   C4A65694   2.958  13.508   7.142
 5214POPC   C1B65695   2.810  13.891   6.127
 5214POPC   C2B65696   2.890  14.169   6.475
 5214POPC   C3B65697   2.957  13.970   6.887
 5214POPC   C4B65698   2.765  14.025   7.299
 5215POPC   NC365699   4.669  16.445   5.451
 5215POPC   PO465700   4.374  17.004   5.536
 5215POPC   GL165701   4.411  16.674   5.827
 5215POPC   GL265702   4.059  16.558   5.848
 5215POPC   C1A65703   4.621  16.680   6.227
 5215POPC   D2A65704   4.478  16.971   6.559
 5215POPC   C3A65705   4.428  16.825   7.000
 5215POPC   C4A65706   4.503  16.813   7.447
 5215POPC   C1B65707   4.112  16.791   6.248
 5215POPC   C2B65708   3.991  16.872   6.684
 5215POPC   C3B65709   3.958  16.638   7.071
 5215POPC   C4B65710   3.901  16.625   7.529
 5216POPC   NC365711  20.502  27.169   5.534
 5216POPC   PO465712  20.493  26.558   5.369
 5216POPC   GL165713  20.432  26.706   5.823
 5216POPC   GL265714  20.668  27.018   5.975
 5216POPC   C1A65715  20.479  26.624   6.283
 5216POPC   D2A65716  20.715  26.930   6.494
 5216POPC   C3A65717  20.644  26.903   6.909
 5216POPC   C4A65718  20.767  26.675   7.233
 5216POPC   C1B65719  20.263  27.081   6.160
 5216POPC   C2B65720  20.180  26.932   6.560
 5216POPC   C3B65721  20.120  27.068   6.950
 5216POPC   C4B65722  20.282  26.843   7.272
 5217POPC   NC365723  41.701  24.758   5.458
 5217POPC   PO465724  41.236  24.255   5.430
 5217POPC   GL165725  41.331  24.342   5.824
 5217POPC   GL265726  41.326  24.679   5.830
 5217POPC   C1A65727  41.617  24.378   6.175
 5217POPC   D2A65728  41.722  24.572   6.574
 5217POPC   C3A65729  41.527  24.421   6.934
 5217POPC   C4A65730  41.632  24.456   7.327
 5217POPC   C1B65731  41.472  24.854   6.238
 5217POPC   C2B65732  41.344  24.920   6.692
 5217POPC   C3B65733  41.409  24.878   7.155
 5217POPC   C4B65734  41.756  24.899   7.506
 5218POPC   NC365735  21.305  21.868   5.334
 5218POPC   PO465736  21.166  22.596   5.345
 5218POPC   GL165737  21.315  22.287   5.658
 5218POPC   GL265738  21.075  21.997   5.771
 5218POPC   C1A65739  21.559  22.307   6.028
 5218POPC   D2A65740  21.589  22.368   6.467
 5218POPC   C3A65741  21.596  22.262   6.899
 5218POPC   C4A65742  21.552  22.363   7.350
 5218POPC   C1B65743  21.070  22.199   6.169
 5218POPC   C2B65744  21.154  22.064   6.601
 5218POPC   C3B65745  21.114  22.207   7.066
 5218POPC   C4B65746  21.098  22.236   7.521
 5219POPC   NC365747  37.573   0.567   5.542
 5219POPC   PO465748  37.981   0.999   5.259
 5219POPC   GL165749  37.999   0.786   5.729
 5219POPC   GL265750  37.675   0.901   5.922
 5219POPC   C1A65751  37.932   0.569   6.196
 5219POPC   D2A65752  37.743   0.585   6.626
 5219POPC   C3A65753  37.914   0.298   6.936
 5219POPC   C4A65754  37.726   0.363   7.327
 5219POPC   C1B65755  37.429   0.572   6.199
 5219POPC   C2B65756  37.382   0.212   6.493
 5219POPC   C3B65757  37.401   0.222   6.929
 5219POPC   C4B65758  37.236   0.280   7.313
 5220POPC   NC365759  31.197  31.274   5.719
 5220POPC   PO465760  31.528  31.689   5.312
 5220POPC   GL165761  31.561  31.658   5.783
 5220POPC   GL265762  31.263  31.672   6.057
 5220POPC   C1A65763  31.698  31.487   6.211
 5220POPC   D2A65764  31.448  31.595   6.588
 5220POPC   C3A65765  31.197  31.322   6.889
 5220POPC   C4A65766  31.301  31.106   7.315
 5220POPC   C1B65767  31.595  32.000   6.170
 5220POPC   C2B65768  31.763  32.174   6.527
 5220POPC   C3B65769  31.775  31.896   6.881
 5220POPC   C4B65770  31.629  31.509   7.096
 5221POPC   NC365771  37.812   2.990   5.336
 5221POPC   PO465772  37.341   2.477   5.438
 5221POPC   GL165773  37.674   2.693   5.743
 5221POPC   GL265774  37.671   3.009   5.885
 5221POPC   C1A65775  37.826   2.594   6.149
 5221POPC   D2A65776  37.637   2.788   6.488
 5221POPC   C3A65777  37.686   2.755   6.885
 5221POPC   C4A65778  37.600   2.999   7.266
 5221POPC   C1B65779  37.972   3.088   6.260
 5221POPC   C2B65780  37.973   3.172   6.702
 5221POPC   C3B65781  38.070   3.023   7.112
 5221POPC   C4B65782  38.045   2.576   7.198
 5222POPC   NC365783  38.021  16.702   5.554
 5222POPC   PO465784  38.600  16.501   5.289
 5222POPC   GL165785  38.529  16.689   5.683
 5222POPC   GL265786  38.518  17.064   5.607
 5222POPC   C1A65787  38.389  16.551   6.105
 5222POPC   D2A65788  38.328  16.748   6.501
 5222POPC   C3A65789  38.477  16.551   6.854
 5222POPC   C4A65790  38.283  16.542   7.254
 5222POPC   C1B65791  38.611  17.034   6.071
 5222POPC   C2B65792  38.750  17.041   6.484
 5222POPC   C3B65793  38.643  17.031   6.899
 5222POPC   C4B65794  38.612  16.939   7.300
 5223POPC   NC365795  34.483  42.075   5.531
 5223POPC   PO465796  34.632  41.444   5.277
 5223POPC   GL165797  34.650  41.391   5.712
 5223POPC   GL265798  34.373  41.609   5.813
 5223POPC   C1A65799  34.706  41.285   6.151
 5223POPC   D2A65800  34.644  41.482   6.565
 5223POPC   C3A65801  34.772  41.320   6.978
 5223POPC   C4A65802  34.964  41.545   7.354
 5223POPC   C1B65803  34.223  41.405   6.196
 5223POPC   C2B65804  34.133  41.507   6.593
 5223POPC   C3B65805  34.270  41.416   6.981
 5223POPC   C4B65806  34.461  41.547   7.367
 5224POPC   NC365807  18.656   6.776   5.565
 5224POPC   PO465808  18.182   6.403   5.364
 5224POPC   GL165809  18.232   6.504   5.782
 5224POPC   GL265810  18.124   6.821   5.774
 5224POPC   C1A65811  18.332   6.396   6.219
 5224POPC   D2A65812  18.198   6.542   6.635
 5224POPC   C3A65813  18.461   6.592   7.008
 5224POPC   C4A65814  18.385   6.494   7.462
 5224POPC   C1B65815  18.017   6.821   6.190
 5224POPC   C2B65816  17.976   7.004   6.592
 5224POPC   C3B65817  18.056   6.932   7.006
 5224POPC   C4B65818  17.736   6.853   7.280
 5225POPC   NC365819  31.200   8.686   5.067
 5225POPC   PO465820  31.476   9.117   5.521
 5225POPC   GL165821  31.442   9.031   5.928
 5225POPC   GL265822  31.520   8.661   5.888
 5225POPC   C1A65823  31.513   9.233   6.341
 5225POPC   D2A65824  31.209   9.445   6.592
 5225POPC   C3A65825  31.148   9.298   6.978
 5225POPC   C4A65826  31.440   9.155   7.291
 5225POPC   C1B65827  31.351   8.724   6.320
 5225POPC   C2B65828  31.374   8.852   6.771
 5225POPC   C3B65829  31.470   8.642   7.169
 5225POPC   C4B65830  31.668   8.759   7.579
 5226POPC   NC365831   3.883   7.416   5.345
 5226POPC   PO465832   3.251   7.660   5.371
 5226POPC   GL165833   3.525   7.419   5.723
 5226POPC   GL265834   3.793   7.612   5.892
 5226POPC   C1A65835   3.606   7.201   6.151
 5226POPC   D2A65836   3.706   7.174   6.630
 5226POPC   C3A65837   3.433   7.453   6.921
 5226POPC   C4A65838   3.080   7.566   7.221
 5226POPC   C1B65839   3.846   7.613   6.360
 5226POPC   C2B65840   3.871   7.712   6.800
 5226POPC   C3B65841   3.813   7.682   7.243
 5226POPC   C4B65842   3.797   7.510   7.673
 5227POPC   NC365843  35.441   1.446   5.360
 5227POPC   PO465844  35.505   0.855   5.217
 5227POPC   GL165845  35.395   0.961   5.636
 5227POPC   GL265846  35.653   1.129   5.783
 5227POPC   C1A65847  35.293   0.958   6.105
 5227POPC   D2A65848  35.085   1.196   6.463
 5227POPC   C3A65849  35.286   1.332   6.845
 5227POPC   C4A65850  35.258   1.163   7.258
 5227POPC   C1B65851  35.638   1.351   6.192
 5227POPC   C2B65852  35.785   1.424   6.617
 5227POPC   C3B65853  35.759   1.256   7.044
 5227POPC   C4B65854  35.722   1.032   7.443
 5228POPC   NC365855  37.357  29.222   5.197
 5228POPC   PO465856  36.872  28.870   5.518
 5228POPC   GL165857  36.773  29.008   5.895
 5228POPC   GL265858  36.634  29.340   5.823
 5228POPC   C1A65859  36.569  29.013   6.314
 5228POPC   D2A65860  36.580  28.751   6.676
 5228POPC   C3A65861  36.898  28.875   6.978
 5228POPC   C4A65862  37.289  28.973   7.201
 5228POPC   C1B65863  36.932  29.374   6.191
 5228POPC   C2B65864  36.999  29.258   6.608
 5228POPC   C3B65865  36.990  29.404   7.009
 5228POPC   C4B65866  36.674  29.469   7.262
 5229POPC   NC365867   7.982  40.959   5.535
 5229POPC   PO465868   8.669  40.829   5.637
 5229POPC   GL165869   8.287  40.741   5.899
 5229POPC   GL265870   8.069  40.441   5.799
 5229POPC   C1A65871   8.140  40.961   6.293
 5229POPC   D2A65872   7.883  41.001   6.681
 5229POPC   C3A65873   8.134  40.858   7.041
 5229POPC   C4A65874   8.599  40.921   7.077
 5229POPC   C1B65875   8.001  40.461   6.257
 5229POPC   C2B65876   7.986  40.471   6.708
 5229POPC   C3B65877   7.896  40.422   7.144
 5229POPC   C4B65878   7.881  40.683   7.498
 5230POPC   NC365879   7.530  17.364   5.479
 5230POPC   PO465880   7.604  18.010   5.544
 5230POPC   GL165881   7.508  17.685   5.897
 5230POPC   GL265882   7.241  17.401   5.903
 5230POPC   C1A65883   7.619  17.350   6.229
 5230POPC   D2A65884   7.857  17.314   6.632
 5230POPC   C3A65885   7.634  17.559   6.930
 5230POPC   C4A65886   7.453  17.442   7.295
 5230POPC   C1B65887   7.156  17.614   6.274
 5230POPC   C2B65888   7.190  17.527   6.699
 5230POPC   C3B65889   7.114  17.198   7.010
 5230POPC   C4B65890   6.953  17.545   7.231
 5231POPC   NC365891  15.444  32.273   5.473
 5231POPC   PO465892  15.007  31.836   5.451
 5231POPC   GL165893  15.149  32.004   5.821
 5231POPC   GL265894  15.266  32.333   5.936
 5231POPC   C1A65895  14.956  32.049   6.204
 5231POPC   D2A65896  15.062  31.842   6.570
 5231POPC   C3A65897  15.080  32.081   6.963
 5231POPC   C4A65898  14.846  32.185   7.364
 5231POPC   C1B65899  15.559  32.466   6.272
 5231POPC   C2B65900  15.488  32.586   6.705
 5231POPC   C3B65901  15.465  32.445   7.134
 5231POPC   C4B65902  15.284  32.422   7.551
 5232POPC   NC365903  24.233  40.266   5.466
 5232POPC   PO465904  24.650  39.828   5.353
 5232POPC   GL165905  24.586  39.875   5.832
 5232POPC   GL265906  24.619  40.235   5.845
 5232POPC   C1A65907  24.779  40.019   6.271
 5232POPC   D2A65908  24.721  40.303   6.637
 5232POPC   C3A65909  24.663  40.039   6.996
 5232POPC   C4A65910  24.839  39.876   7.385
 5232POPC   C1B65911  24.337  40.274   6.211
 5232POPC   C2B65912  24.279  40.049   6.619
 5232POPC   C3B65913  24.187  40.276   6.995
 5232POPC   C4B65914  24.012  40.240   7.396
 5233POPC   NC365915   8.718   1.934   5.146
 5233POPC   PO465916   8.177   2.217   5.220
 5233POPC   GL165917   8.269   2.077   5.706
 5233POPC   GL265918   8.558   2.047   5.900
 5233POPC   C1A65919   8.172   1.774   6.085
 5233POPC   D2A65920   8.011   1.833   6.524
 5233POPC   C3A65921   8.030   1.661   6.962
 5233POPC   C4A65922   8.048   1.888   7.371
 5233POPC   C1B65923   8.293   2.288   6.186
 5233POPC   C2B65924   8.221   2.271   6.626
 5233POPC   C3B65925   8.367   2.124   7.013
 5233POPC   C4B65926   8.376   2.421   7.324
 5234POPC   NC365927  24.535  20.027   5.342
 5234POPC   PO465928  24.790  19.368   5.473
 5234POPC   GL165929  24.526  19.491   5.830
 5234POPC   GL265930  24.344  19.810   5.763
 5234POPC   C1A65931  24.394  19.587   6.275
 5234POPC   D2A65932  24.332  19.684   6.721
 5234POPC   C3A65933  24.480  19.479   7.059
 5234POPC   C4A65934  24.617  19.714   7.396
 5234POPC   C1B65935  24.313  20.129   6.089
 5234POPC   C2B65936  24.199  20.211   6.522
 5234POPC   C3B65937  24.339  20.163   6.917
 5234POPC   C4B65938  24.180  19.915   7.245
 5235POPC   NC365939  37.919   5.632   5.395
 5235POPC   PO465940  38.551   5.587   5.297
 5235POPC   GL165941  38.380   5.749   5.716
 5235POPC   GL265942  38.636   5.901   5.904
 5235POPC   C1A65943  38.234   5.739   6.188
 5235POPC   D2A65944  38.087   5.716   6.649
 5235POPC   C3A65945  38.301   5.828   7.066
 5235POPC   C4A65946  38.304   5.800   7.530
 5235POPC   C1B65947  38.720   5.753   6.304
 5235POPC   C2B65948  38.598   5.629   6.681
 5235POPC   C3B65949  38.869   5.662   7.027
 5235POPC   C4B65950  38.791   5.921   7.396
 5236POPC   NC365951  30.685   4.670   5.417
 5236POPC   PO465952  30.437   4.057   5.446
 5236POPC   GL165953  30.567   4.243   5.802
 5236POPC   GL265954  30.900   4.207   5.738
 5236POPC   C1A65955  30.593   4.449   6.199
 5236POPC   D2A65956  30.761   4.686   6.565
 5236POPC   C3A65957  30.567   4.536   6.957
 5236POPC   C4A65958  30.727   4.509   7.417
 5236POPC   C1B65959  31.036   4.185   6.154
 5236POPC   C2B65960  30.835   4.176   6.573
 5236POPC   C3B65961  31.026   4.358   6.943
 5236POPC   C4B65962  31.071   4.126   7.316
 5237POPC   NC365963  11.230  19.691   5.150
 5237POPC   PO465964  11.156  20.221   5.387
 5237POPC   GL165965  11.183  20.042   5.823
 5237POPC   GL265966  11.317  20.314   5.926
 5237POPC   C1A65967  11.255  19.700   6.159
 5237POPC   D2A65968  11.456  19.613   6.581
 5237POPC   C3A65969  11.288  19.759   7.013
 5237POPC   C4A65970  11.175  19.651   7.418
 5237POPC   C1B65971  11.522  20.139   6.272
 5237POPC   C2B65972  11.415  20.128   6.697
 5237POPC   C3B65973  11.677  20.122   7.081
 5237POPC   C4B65974  11.631  20.200   7.538
 5238POPC   NC365975   8.157  37.132   5.383
 5238POPC   PO465976   8.559  36.624   5.314
 5238POPC   GL165977   8.250  36.685   5.694
 5238POPC   GL265978   8.348  36.984   5.814
 5238POPC   C1A65979   8.040  36.768   6.125
 5238POPC   D2A65980   8.091  37.087   6.466
 5238POPC   C3A65981   8.180  36.884   6.846
 5238POPC   C4A65982   8.069  36.732   7.225
 5238POPC   C1B65983   8.538  37.129   6.174
 5238POPC   C2B65984   8.634  36.945   6.556
 5238POPC   C3B65985   8.699  37.015   6.963
 5238POPC   C4B65986   8.455  37.027   7.313
 5239POPC   NC365987   1.540  10.811   5.270
 5239POPC   PO465988   2.134  10.455   5.407
 5239POPC   GL165989   1.924  10.535   5.778
 5239POPC   GL265990   1.591  10.473   5.826
 5239POPC   C1A65991   2.049  10.503   6.192
 5239POPC   D2A65992   2.035  10.636   6.608
 5239POPC   C3A65993   2.259  10.468   6.952
 5239POPC   C4A65994   2.195  10.236   7.325
 5239POPC   C1B65995   1.605  10.763   6.177
 5239POPC   C2B65996   1.623  10.950   6.585
 5239POPC   C3B65997   1.611  10.683   6.950
 5239POPC   C4B65998   1.830  10.618   7.345
 5240POPC   NC365999   5.401   4.852   5.488
 5240POPC   PO466000   5.015   5.253   5.130
 5240POPC   GL166001   5.106   5.249   5.672
 5240POPC   GL266002   4.852   5.052   5.917
 5240POPC   C1A66003   5.210   5.264   6.172
 5240POPC   D2A66004   4.897   5.157   6.540
 5240POPC   C3A66005   5.031   5.190   7.003
 5240POPC   C4A66006   4.977   5.396   7.419
 5240POPC   C1B66007   5.081   4.769   6.234
 5240POPC   C2B66008   5.164   4.723   6.698
 5240POPC   C3B66009   4.910   4.692   7.082
 5240POPC   C4B66010   5.038   4.891   7.472
 5241POPC   NC366011  42.781  22.403   5.481
 5241POPC   PO466012  43.443  22.536   5.350
 5241POPC   GL166013  43.444  22.452   5.801
 5241POPC   GL266014  43.136  22.239   5.818
 5241POPC   C1A66015  43.356  22.294   6.251
 5241POPC   D2A66016  43.133  22.133   6.561
 5241POPC   C3A66017  43.354  22.091   6.938
 5241POPC   C4A66018  43.262  22.009   7.374
 5241POPC   C1B66019  42.867  22.463   6.182
 5241POPC   C2B66020  42.853  22.551   6.648
 5241POPC   C3B66021  42.823  22.216   6.976
 5241POPC   C4B66022  42.770  21.820   7.173
 5242POPC   NC366023  41.107  15.185   5.245
 5242POPC   PO466024  41.680  15.547   5.238
 5242POPC   GL166025  41.617  15.416   5.686
 5242POPC   GL266026  41.283  15.365   5.729
 5242POPC   C1A66027  41.523  15.407   6.176
 5242POPC   D2A66028  41.658  15.245   6.567
 5242POPC   C3A66029  41.675  15.460   6.948
 5242POPC   C4A66030  41.611  15.209   7.309
 5242POPC   C1B66031  41.199  15.032   6.074
 5242POPC   C2B66032  41.176  15.028   6.510
 5242POPC   C3B66033  41.343  14.989   6.907
 5242POPC   C4B66034  41.145  15.012   7.323
 5243POPC   NC366035  41.674  40.295   5.355
 5243POPC   PO466036  41.561  39.624   5.385
 5243POPC   GL166037  41.347  39.877   5.716
 5243POPC   GL266038  41.552  40.108   5.826
 5243POPC   C1A66039  41.240  39.799   6.151
 5243POPC   D2A66040  41.510  39.849   6.509
 5243POPC   C3A66041  41.284  39.788   6.880
 5243POPC   C4A66042  41.397  39.861   7.290
 5243POPC   C1B66043  41.461  40.284   6.217
 5243POPC   C2B66044  41.629  40.372   6.619
 5243POPC   C3B66045  41.516  40.331   7.039
 5243POPC   C4B66046  41.640  40.260   7.451
 5244POPC   NC366047  35.072  26.582   5.464
 5244POPC   PO466048  35.498  27.204   5.586
 5244POPC   GL166049  35.226  26.930   5.820
 5244POPC   GL266050  35.401  26.610   5.913
 5244POPC   C1A66051  35.240  27.030   6.236
 5244POPC   D2A66052  35.584  27.220   6.444
 5244POPC   C3A66053  35.477  27.214   6.848
 5244POPC   C4A66054  35.397  26.941   7.163
 5244POPC   C1B66055  35.359  26.564   6.382
 5244POPC   C2B66056  35.200  26.766   6.731
 5244POPC   C3B66057  35.038  26.598   7.135
 5244POPC   C4B66058  35.178  26.715   7.574
 5245POPC   NC366059   0.559   6.773   5.212
 5245POPC   PO466060   0.537   6.231   5.634
 5245POPC   GL166061   0.405   6.542   5.847
 5245POPC   GL266062   0.164   6.703   5.618
 5245POPC   C1A66063   0.321   6.423   6.278
 5245POPC   D2A66064   0.075   6.386   6.649
 5245POPC   C3A66065   0.243   6.526   7.038
 5245POPC   C4A66066   0.536   6.834   7.189
 5245POPC   C1B66067   0.059   6.834   6.059
 5245POPC   C2B66068   0.202   6.886   6.496
 5245POPC   C3B66069   0.187   7.055   6.887
 5245POPC   C4B66070   0.028   6.954   7.269
 5246POPC   NC366071  39.068   0.973   5.533
 5246POPC   PO466072  39.470   1.493   5.362
 5246POPC   GL166073  39.285   1.361   5.776
 5246POPC   GL266074  38.885   1.367   5.821
 5246POPC   C1A66075  39.369   1.182   6.195
 5246POPC   D2A66076  39.598   1.077   6.583
 5246POPC   C3A66077  39.344   1.070   6.964
 5246POPC   C4A66078  39.381   1.353   7.326
 5246POPC   C1B66079  38.950   1.474   6.284
 5246POPC   C2B66080  38.840   1.435   6.729
 5246POPC   C3B66081  38.913   1.253   7.150
 5246POPC   C4B66082  38.794   0.862   7.299
 5247POPC   NC366083  23.793  41.487   5.362
 5247POPC   PO466084  23.310  41.873   5.285
 5247POPC   GL166085  23.504  41.816   5.722
 5247POPC   GL266086  23.824  41.873   5.845
 5247POPC   C1A66087  23.415  41.774   6.189
 5247POPC   D2A66088  23.450  41.958   6.618
 5247POPC   C3A66089  23.360  41.648   6.949
 5247POPC   C4A66090  23.564  41.530   7.332
 5247POPC   C1B66091  23.990  41.906   6.253
 5247POPC   C2B66092  24.143  41.951   6.684
 5247POPC   C3B66093  23.905  41.750   7.001
 5247POPC   C4B66094  24.059  41.450   7.278
 5248POPC   NC366095  11.565  15.803   5.430
 5248POPC   PO466096  11.225  16.353   5.259
 5248POPC   GL166097  11.447  16.264   5.671
 5248POPC   GL266098  11.242  15.998   5.798
 5248POPC   C1A66099  11.605  16.160   6.112
 5248POPC   D2A66100  11.241  16.123   6.382
 5248POPC   C3A66101  11.201  16.147   6.829
 5248POPC   C4A66102  11.426  16.272   7.191
 5248POPC   C1B66103  11.375  15.699   6.127
 5248POPC   C2B66104  11.194  15.633   6.559
 5248POPC   C3B66105  11.154  15.496   6.994
 5248POPC   C4B66106  11.172  15.816   7.325
 5249POPC   NC366107  14.758  41.301   5.658
 5249POPC   PO466108  14.458  40.871   5.199
 5249POPC   GL166109  14.416  40.726   5.710
 5249POPC   GL266110  14.766  40.724   5.852
 5249POPC   C1A66111  14.261  40.890   6.196
 5249POPC   D2A66112  14.334  41.080   6.630
 5249POPC   C3A66113  14.129  40.887   7.009
 5249POPC   C4A66114  13.974  40.587   7.355
 5249POPC   C1B66115  14.632  40.574   6.291
 5249POPC   C2B66116  14.498  40.574   6.741
 5249POPC   C3B66117  14.467  40.534   7.197
 5249POPC   C4B66118  14.680  40.697   7.608
 5250POPC   NC366119  21.858  13.584   5.501
 5250POPC   PO466120  22.414  13.933   5.439
 5250POPC   GL166121  22.241  13.895   5.835
 5250POPC   GL266122  22.273  13.552   5.822
 5250POPC   C1A66123  22.092  13.814   6.280
 5250POPC   D2A66124  22.306  13.632   6.652
 5250POPC   C3A66125  22.293  13.639   7.113
 5250POPC   C4A66126  22.324  13.879   7.450
 5250POPC   C1B66127  21.985  13.348   6.130
 5250POPC   C2B66128  21.828  13.428   6.527
 5250POPC   C3B66129  21.841  13.565   6.898
 5250POPC   C4B66130  21.977  13.236   7.184
 5251POPC   NC366131  24.990  39.737   5.076
 5251POPC   PO466132  25.516  40.076   5.324
 5251POPC   GL166133  25.239  40.064   5.693
 5251POPC   GL266134  25.049  39.747   5.663
 5251POPC   C1A66135  25.278  40.148   6.140
 5251POPC   D2A66136  25.223  40.417   6.491
 5251POPC   C3A66137  25.162  40.129   6.839
 5251POPC   C4A66138  25.316  40.056   7.235
 5251POPC   C1B66139  25.140  39.641   6.103
 5251POPC   C2B66140  25.089  39.708   6.538
 5251POPC   C3B66141  25.030  39.634   6.970
 5251POPC   C4B66142  25.217  39.527   7.354
 5252POPC   NC366143   0.741  10.841   5.427
 5252POPC   PO466144   1.327  10.390   5.356
 5252POPC   GL166145   1.116  10.585   5.698
 5252POPC   GL266146   0.823  10.441   5.756
 5252POPC   C1A66147   1.121  10.502   6.167
 5252POPC   D2A66148   1.254  10.602   6.577
 5252POPC   C3A66149   1.155  10.418   6.978
 5252POPC   C4A66150   1.365  10.381   7.392
 5252POPC   C1B66151   0.732  10.828   6.072
 5252POPC   C2B66152   0.971  11.025   6.446
 5252POPC   C3B66153   0.967  10.898   6.900
 5252POPC   C4B66154   1.053  10.788   7.336
 5253POPC   NC366155  12.800   1.422   5.451
 5253POPC   PO466156  12.821   0.749   5.397
 5253POPC   GL166157  12.744   0.995   5.733
 5253POPC   GL266158  13.070   1.140   5.785
 5253POPC   C1A66159  12.639   1.221   6.128
 5253POPC   D2A66160  12.410   1.357   6.499
 5253POPC   C3A66161  12.671   1.418   6.848
 5253POPC   C4A66162  12.999   1.202   7.073
 5253POPC   C1B66163  13.210   1.277   6.175
 5253POPC   C2B66164  13.172   1.311   6.594
 5253POPC   C3B66165  13.433   1.400   6.923
 5253POPC   C4B66166  13.293   1.550   7.336
 5254POPC   NC366167   0.891  13.097   5.605
 5254POPC   PO466168   1.417  12.843   5.438
 5254POPC   GL166169   1.374  13.166   5.784
 5254POPC   GL266170   1.223  12.873   5.937
 5254POPC   C1A66171   1.234  13.262   6.240
 5254POPC   D2A66172   1.229  12.885   6.510
 5254POPC   C3A66173   1.102  12.959   6.932
 5254POPC   C4A66174   1.209  12.986   7.380
 5254POPC   C1B66175   0.910  12.628   6.137
 5254POPC   C2B66176   0.896  12.328   6.459
 5254POPC   C3B66177   0.888  12.371   6.891
 5254POPC   C4B66178   0.938  12.593   7.226
 5255POPC   NC366179  34.539   6.891   5.449
 5255POPC   PO466180  34.931   6.409   5.548
 5255POPC   GL166181  34.724   6.664   5.878
 5255POPC   GL266182  34.371   6.583   5.831
 5255POPC   C1A66183  34.522   6.771   6.289
 5255POPC   D2A66184  34.282   6.844   6.667
 5255POPC   C3A66185  34.552   6.847   7.017
 5255POPC   C4A66186  34.725   6.530   7.219
 5255POPC   C1B66187  34.292   6.315   6.184
 5255POPC   C2B66188  34.100   6.371   6.573
 5255POPC   C3B66189  34.306   6.345   6.952
 5255POPC   C4B66190  34.220   6.502   7.313
 5256POPC   NC366191   4.578  17.735   5.093
 5256POPC   PO466192   5.173  17.545   5.282
 5256POPC   GL166193   5.047  17.481   5.725
 5256POPC   GL266194   4.907  17.785   5.809
 5256POPC   C1A66195   5.221  17.504   6.172
 5256POPC   D2A66196   5.050  17.522   6.594
 5256POPC   C3A66197   5.286  17.318   6.910
 5256POPC   C4A66198   5.271  17.560   7.247
 5256POPC   C1B66199   4.724  17.601   6.206
 5256POPC   C2B66200   4.549  17.585   6.650
 5256POPC   C3B66201   4.789  17.677   7.049
 5256POPC   C4B66202   4.832  17.651   7.509
 5257POPC   NC366203  19.826  42.817   5.252
 5257POPC   PO466204  20.006  43.383   5.501
 5257POPC   GL166205  20.037  43.085   5.876
 5257POPC   GL266206  19.975  42.726   5.839
 5257POPC   C1A66207  19.912  43.070   6.341
 5257POPC   D2A66208  19.591  43.046   6.687
 5257POPC   C3A66209  19.816  43.081   7.067
 5257POPC   C4A66210  20.058  43.446   7.242
 5257POPC   C1B66211  19.940  42.570   6.283
 5257POPC   C2B66212  19.897  42.630   6.750
 5257POPC   C3B66213  20.089  42.639   7.150
 5257POPC   C4B66214  20.120  42.647   7.621
 5258POPC   NC366215  13.791  10.959   5.332
 5258POPC   PO466216  13.365  10.351   5.399
 5258POPC   GL166217  13.693  10.424   5.753
 5258POPC   GL266218  13.863  10.744   5.787
 5258POPC   C1A66219  13.680  10.186   6.147
 5258POPC   D2A66220  13.737  10.228   6.591
 5258POPC   C3A66221  13.536  10.615   6.731
 5258POPC   C4A66222  13.410  10.702   7.158
 5258POPC   C1B66223  13.922  10.626   6.216
 5258POPC   C2B66224  14.053  10.644   6.621
 5258POPC   C3B66225  13.940  10.597   7.050
 5258POPC   C4B66226  13.845  10.910   7.363
 5259POPC   NC366227   6.659  16.218   5.420
 5259POPC   PO466228   6.522  15.617   5.623
 5259POPC   GL166229   6.665  15.987   5.865
 5259POPC   GL266230   6.356  16.242   5.865
 5259POPC   C1A66231   6.917  16.087   6.235
 5259POPC   D2A66232   6.801  16.246   6.638
 5259POPC   C3A66233   6.699  15.955   6.941
 5259POPC   C4A66234   6.859  15.899   7.330
 5259POPC   C1B66235   6.409  16.095   6.286
 5259POPC   C2B66236   6.358  15.789   6.576
 5259POPC   C3B66237   6.200  15.863   6.961
 5259POPC   C4B66238   6.373  16.009   7.360
 5260POPC   NC366239  17.225  14.765   5.384
 5260POPC   PO466240  17.910  14.986   5.526
 5260POPC   GL166241  17.611  15.107   5.853
 5260POPC   GL266242  17.488  15.438   5.898
 5260POPC   C1A66243  17.686  15.097   6.301
 5260POPC   D2A66244  17.961  15.022   6.651
 5260POPC   C3A66245  17.758  15.093   7.026
 5260POPC   C4A66246  17.361  15.153   7.194
 5260POPC   C1B66247  17.276  15.396   6.305
 5260POPC   C2B66248  17.471  15.360   6.702
 5260POPC   C3B66249  17.550  15.593   7.056
 5260POPC   C4B66250  17.173  15.718   7.329
 5261POPC   NC366251  22.635  13.432   5.394
 5261POPC   PO466252  23.166  13.859   5.459
 5261POPC   GL166253  22.789  13.750   5.767
 5261POPC   GL266254  22.822  13.364   5.865
 5261POPC   C1A66255  22.587  13.703   6.183
 5261POPC   D2A66256  22.762  13.477   6.513
 5261POPC   C3A66257  22.773  13.582   6.934
 5261POPC   C4A66258  22.976  13.248   7.120
 5261POPC   C1B66259  23.099  13.601   6.147
 5261POPC   C2B66260  23.205  13.758   6.543
 5261POPC   C3B66261  23.286  13.582   6.919
 5261POPC   C4B66262  23.151  13.691   7.323
 5262POPC   NC366263  23.271  42.293   5.082
 5262POPC   PO466264  23.896  42.559   5.391
 5262POPC   GL166265  23.701  42.379   5.754
 5262POPC   GL266266  24.014  42.341   5.958
 5262POPC   C1A66267  23.576  42.264   6.181
 5262POPC   D2A66268  23.888  42.342   6.486
 5262POPC   C3A66269  23.754  42.296   6.879
 5262POPC   C4A66270  23.544  42.067   7.198
 5262POPC   C1B66271  24.232  42.627   6.219
 5262POPC   C2B66272  24.126  42.774   6.624
 5262POPC   C3B66273  24.201  42.586   7.003
 5262POPC   C4B66274  24.129  42.171   7.174
 5263POPC   NC366275  34.113  24.488   5.380
 5263POPC   PO466276  33.508  24.172   5.276
 5263POPC   GL166277  33.721  24.482   5.669
 5263POPC   GL266278  33.937  24.212   5.793
 5263POPC   C1A66279  33.776  24.593   6.153
 5263POPC   D2A66280  34.010  24.558   6.588
 5263POPC   C3A66281  33.808  24.693   6.991
 5263POPC   C4A66282  33.836  24.804   7.418
 5263POPC   C1B66283  34.155  24.244   6.209
 5263POPC   C2B66284  34.174  24.033   6.619
 5263POPC   C3B66285  33.965  24.198   6.980
 5263POPC   C4B66286  33.987  24.328   7.417
 5264POPC   NC366287   8.549   6.674   5.108
 5264POPC   PO466288   7.939   6.594   5.435
 5264POPC   GL166289   8.088   6.698   5.821
 5264POPC   GL266290   7.760   6.766   5.928
 5264POPC   C1A66291   8.301   6.825   6.197
 5264POPC   D2A66292   8.387   6.586   6.559
 5264POPC   C3A66293   8.162   6.643   6.933
 5264POPC   C4A66294   8.265   6.610   7.341
 5264POPC   C1B66295   7.955   6.423   6.229
 5264POPC   C2B66296   8.046   6.223   6.641
 5264POPC   C3B66297   7.962   6.194   7.092
 5264POPC   C4B66298   7.965   6.264   7.546
 5265POPC   NC366299  27.386  22.639   5.408
 5265POPC   PO466300  27.799  23.120   5.429
 5265POPC   GL166301  27.704  22.877   5.826
 5265POPC   GL266302  28.038  22.899   5.890
 5265POPC   C1A66303  27.745  22.976   6.319
 5265POPC   D2A66304  27.472  23.233   6.608
 5265POPC   C3A66305  27.440  23.077   7.024
 5265POPC   C4A66306  27.375  22.821   7.381
 5265POPC   C1B66307  28.081  23.309   6.135
 5265POPC   C2B66308  27.977  23.423   6.592
 5265POPC   C3B66309  28.036  23.233   7.042
 5265POPC   C4B66310  27.914  22.849   7.192
 5266POPC   NC366311   7.724  38.531   5.710
 5266POPC   PO466312   7.177  38.232   5.371
 5266POPC   GL166313   7.272  38.354   5.871
 5266POPC   GL266314   7.415  38.716   6.057
 5266POPC   C1A66315   7.391  38.322   6.347
 5266POPC   D2A66316   7.172  38.258   6.722
 5266POPC   C3A66317   7.460  38.131   7.034
 5266POPC   C4A66318   7.876  38.237   7.111
 5266POPC   C1B66319   7.189  38.958   6.363
 5266POPC   C2B66320   7.117  38.765   6.775
 5266POPC   C3B66321   7.257  38.591   7.176
 5266POPC   C4B66322   7.346  38.762   7.605
 5267POPC   NC366323  14.306   0.927   5.369
 5267POPC   PO466324  14.532   0.228   5.487
 5267POPC   GL166325  14.425   0.375   5.852
 5267POPC   GL266326  14.602   0.649   5.772
 5267POPC   C1A66327  14.225   0.415   6.239
 5267POPC   D2A66328  14.390   0.269   6.624
 5267POPC   C3A66329  14.144   0.283   6.989
 5267POPC   C4A66330  14.372   0.364   7.372
 5267POPC   C1B66331  14.556   0.858   6.118
 5267POPC   C2B66332  14.441   0.794   6.530
 5267POPC   C3B66333  14.475   0.673   6.951
 5267POPC   C4B66334  14.352   0.877   7.303
 5268POPC   NC366335  13.810  43.854   5.147
 5268POPC   PO466336  13.324  43.590   5.558
 5268POPC   GL166337  13.611  43.843   5.810
 5268POPC   GL266338  13.914  43.985   5.668
 5268POPC   C1A66339  13.603  43.991   6.249
 5268POPC   D2A66340  13.812  44.118   6.625
 5268POPC   C3A66341  13.471  44.133   6.930
 5268POPC   C4A66342  13.383  43.854   7.248
 5268POPC   C1B66343  14.045  43.825   6.087
 5268POPC   C2B66344  13.961  43.623   6.494
 5268POPC   C3B66345  13.792  43.699   6.914
 5268POPC   C4B66346  13.916  44.038   7.174
 5269POPC   NC366347  41.959  38.595   5.437
 5269POPC   PO466348  41.412  38.199   5.670
 5269POPC   GL166349  41.637  38.432   5.923
 5269POPC   GL266350  41.530  38.732   5.863
 5269POPC   C1A66351  41.448  38.483   6.342
 5269POPC   D2A66352  41.168  38.477   6.721
 5269POPC   C3A66353  41.310  38.195   7.096
 5269POPC   C4A66354  41.434  38.039   7.534
 5269POPC   C1B66355  41.767  38.876   6.218
 5269POPC   C2B66356  41.836  38.704   6.647
 5269POPC   C3B66357  41.696  38.763   7.075
 5269POPC   C4B66358  41.961  38.788   7.437
 5270POPC   NC366359  29.861  13.134   5.559
 5270POPC   PO466360  30.359  12.772   5.277
 5270POPC   GL166361  30.268  12.711   5.843
 5270POPC   GL266362  29.939  12.477   5.954
 5270POPC   C1A66363  30.066  12.838   6.272
 5270POPC   D2A66364  29.709  12.674   6.516
 5270POPC   C3A66365  29.547  12.910   6.898
 5270POPC   C4A66366  29.519  12.837   7.350
 5270POPC   C1B66367  30.296  12.374   6.224
 5270POPC   C2B66368  30.333  12.529   6.632
 5270POPC   C3B66369  30.048  12.783   6.871
 5270POPC   C4B66370  30.085  12.880   7.276
 5271POPC   NC366371  42.683   9.228   5.558
 5271POPC   PO466372  42.359   8.637   5.444
 5271POPC   GL166373  42.339   8.923   5.777
 5271POPC   GL266374  42.672   8.787   5.827
 5271POPC   C1A66375  42.199   9.219   6.130
 5271POPC   D2A66376  42.331   9.172   6.565
 5271POPC   C3A66377  42.404   9.029   6.964
 5271POPC   C4A66378  42.069   9.073   7.281
 5271POPC   C1B66379  42.509   8.818   6.231
 5271POPC   C2B66380  42.551   8.644   6.588
 5271POPC   C3B66381  42.443   8.498   6.945
 5271POPC   C4B66382  42.398   8.672   7.319
 5272POPC   NC366383  44.947  31.161   5.360
 5272POPC   PO466384  44.425  31.610   5.356
 5272POPC   GL166385  44.636  31.456   5.698
 5272POPC   GL266386  44.509  31.117   5.631
 5272POPC   C1A66387  44.716  31.613   6.130
 5272POPC   D2A66388  44.844  31.412   6.515
 5272POPC   C3A66389  44.809  31.675   6.890
 5272POPC   C4A66390  44.723  31.684   7.345
 5272POPC   C1B66391  44.508  31.144   6.086
 5272POPC   C2B66392  44.424  31.059   6.519
 5272POPC   C3B66393  44.495  31.252   6.911
 5272POPC   C4B66394  44.463  31.193   7.344
 5273POPC   NC366395  30.765  43.422   5.339
 5273POPC   PO466396  30.233  42.978   5.177
 5273POPC   GL166397  30.605  43.016   5.567
 5273POPC   GL266398  30.466  43.308   5.758
 5273POPC   C1A66399  30.676  42.953   6.068
 5273POPC   D2A66400  30.639  43.087   6.501
 5273POPC   C3A66401  30.587  42.946   6.912
 5273POPC   C4A66402  30.824  43.036   7.257
 5273POPC   C1B66403  30.571  43.468   6.189
 5273POPC   C2B66404  30.426  43.534   6.640
 5273POPC   C3B66405  30.583  43.473   7.078
 5273POPC   C4B66406  30.674  43.446   7.532
 5274POPC   NC366407  31.852  37.591   5.217
 5274POPC   PO466408  32.286  38.062   5.514
 5274POPC   GL166409  32.187  37.806   5.851
 5274POPC   GL266410  32.024  37.526   5.710
 5274POPC   C1A66411  32.458  37.496   6.083
 5274POPC   D2A66412  32.460  37.317   6.487
 5274POPC   C3A66413  32.600  37.531   6.856
 5274POPC   C4A66414  32.478  37.381   7.255
 5274POPC   C1B66415  31.964  37.423   6.134
 5274POPC   C2B66416  32.055  37.653   6.517
 5274POPC   C3B66417  32.109  37.663   6.961
 5274POPC   C4B66418  31.957  37.458   7.294
 5275POPC   NC366419   8.179  36.337   5.303
 5275POPC   PO466420   8.446  35.674   5.376
 5275POPC   GL166421   8.188  35.988   5.668
 5275POPC   GL266422   8.454  36.215   5.755
 5275POPC   C1A66423   8.033  36.248   6.045
 5275POPC   D2A66424   7.816  36.188   6.460
 5275POPC   C3A66425   8.004  36.363   6.833
 5275POPC   C4A66426   8.116  36.229   7.236
 5275POPC   C1B66427   8.541  36.065   6.187
 5275POPC   C2B66428   8.339  36.009   6.602
 5275POPC   C3B66429   8.515  35.967   7.017
 5275POPC   C4B66430   8.647  36.100   7.431
 5276POPC   NC366431   0.156  12.922   5.632
 5276POPC   PO466432  44.647  12.654   5.203
 5276POPC   GL166433  44.498  12.751   5.715
 5276POPC   GL266434  44.750  12.851   5.923
 5276POPC   C1A66435  44.336  12.636   6.148
 5276POPC   D2A66436  44.195  12.735   6.575
 5276POPC   C3A66437  44.513  12.593   6.884
 5276POPC   C4A66438  44.624  12.626   7.316
 5276POPC   C1B66439  44.523  13.135   6.153
 5276POPC   C2B66440  44.654  13.307   6.515
 5276POPC   C3B66441  44.564  13.116   6.836
 5276POPC   C4B66442  44.664  13.137   7.232
 5277POPC   NC366443  37.233  22.263   5.326
 5277POPC   PO466444  36.560  22.281   5.334
 5277POPC   GL166445  36.792  22.258   5.745
 5277POPC   GL266446  37.108  22.080   5.783
 5277POPC   C1A66447  36.793  22.248   6.207
 5277POPC   D2A66448  36.509  22.171   6.551
 5277POPC   C3A66449  36.696  22.044   6.938
 5277POPC   C4A66450  36.673  21.999   7.369
 5277POPC   C1B66451  37.308  22.113   6.165
 5277POPC   C2B66452  37.125  22.015   6.567
 5277POPC   C3B66453  37.176  21.803   6.937
 5277POPC   C4B66454  37.137  22.082   7.254
 5278POPC   NC366455  18.855  12.886   5.482
 5278POPC   PO466456  19.475  12.636   5.677
 5278POPC   GL166457  19.350  12.931   5.924
 5278POPC   GL266458  19.036  12.782   5.951
 5278POPC   C1A66459  19.279  12.878   6.386
 5278POPC   D2A66460  18.984  12.717   6.718
 5278POPC   C3A66461  19.221  12.625   7.068
 5278POPC   C4A66462  19.341  12.985   7.164
 5278POPC   C1B66463  18.744  12.638   6.273
 5278POPC   C2B66464  18.461  12.887   6.530
 5278POPC   C3B66465  18.593  13.041   6.906
 5278POPC   C4B66466  18.721  12.701   7.183
 5279POPC   NC366467  42.799  29.081   5.342
 5279POPC   PO466468  43.428  29.417   5.450
 5279POPC   GL166469  43.186  29.136   5.778
 5279POPC   GL266470  42.807  29.191   5.842
 5279POPC   C1A66471  43.098  29.059   6.228
 5279POPC   D2A66472  43.053  28.909   6.632
 5279POPC   C3A66473  42.692  28.968   6.894
 5279POPC   C4A66474  42.826  29.046   7.284
 5279POPC   C1B66475  42.729  29.384   6.257
 5279POPC   C2B66476  42.867  29.417   6.698
 5279POPC   C3B66477  42.654  29.493   7.111
 5279POPC   C4B66478  42.855  29.480   7.548
 5280POPC   NC366479  16.598   9.056   5.245
 5280POPC   PO466480  16.994   8.499   5.389
 5280POPC   GL166481  16.716   8.765   5.707
 5280POPC   GL266482  16.668   9.164   5.742
 5280POPC   C1A66483  16.834   8.901   6.159
 5280POPC   D2A66484  16.584   8.943   6.557
 5280POPC   C3A66485  16.799   8.986   6.951
 5280POPC   C4A66486  16.714   8.757   7.305
 5280POPC   C1B66487  16.435   9.227   6.152
 5280POPC   C2B66488  16.193   9.321   6.538
 5280POPC   C3B66489  16.309   9.173   6.942
 5280POPC   C4B66490  16.520   9.321   7.296
 5281POPC   NC366491  15.482  24.150   5.459
 5281POPC   PO466492  16.063  24.335   5.505
 5281POPC   GL166493  16.121  24.587   5.907
 5281POPC   GL266494  15.841  24.824   5.945
 5281POPC   C1A66495  16.105  24.626   6.341
 5281POPC   D2A66496  15.873  24.476   6.688
 5281POPC   C3A66497  16.055  24.431   7.089
 5281POPC   C4A66498  16.304  24.380   7.432
 5281POPC   C1B66499  15.596  24.666   6.296
 5281POPC   C2B66500  15.487  24.794   6.730
 5281POPC   C3B66501  15.618  24.752   7.158
 5281POPC   C4B66502  15.813  24.584   7.559
 5282POPC   NC366503  43.646  11.139   5.594
 5282POPC   PO466504  43.009  11.256   5.379
 5282POPC   GL166505  43.180  11.204   5.780
 5282POPC   GL266506  43.268  10.824   5.734
 5282POPC   C1A66507  43.110  11.360   6.222
 5282POPC   D2A66508  43.116  11.254   6.674
 5282POPC   C3A66509  43.128  11.633   6.947
 5282POPC   C4A66510  43.418  11.809   7.242
 5282POPC   C1B66511  43.111  10.859   6.134
 5282POPC   C2B66512  42.771  10.975   6.390
 5282POPC   C3B66513  42.656  11.047   6.822
 5282POPC   C4B66514  42.923  11.217   7.165
 5283POPC   NC366515  23.262  14.873   5.713
 5283POPC   PO466516  23.558  15.470   5.505
 5283POPC   GL166517  23.700  15.425   5.921
 5283POPC   GL266518  23.681  15.078   5.941
 5283POPC   C1A66519  23.821  15.574   6.301
 5283POPC   D2A66520  23.954  15.465   6.710
 5283POPC   C3A66521  23.598  15.254   6.893
 5283POPC   C4A66522  23.454  15.151   7.293
 5283POPC   C1B66523  23.965  15.073   6.286
 5283POPC   C2B66524  23.964  14.911   6.719
 5283POPC   C3B66525  24.025  15.081   7.136
 5283POPC   C4B66526  24.050  15.513   7.251
 5284POPC   NC366527  19.630  39.502   5.280
 5284POPC   PO466528  19.618  40.114   5.354
 5284POPC   GL166529  19.869  40.117   5.777
 5284POPC   GL266530  20.018  39.845   5.855
 5284POPC   C1A66531  20.113  40.259   6.148
 5284POPC   D2A66532  20.054  40.086   6.537
 5284POPC   C3A66533  20.112  40.316   6.895
 5284POPC   C4A66534  19.868  40.278   7.248
 5284POPC   C1B66535  20.036  39.651   6.235
 5284POPC   C2B66536  19.882  39.575   6.612
 5284POPC   C3B66537  19.847  39.850   6.937
 5284POPC   C4B66538  19.883  39.815   7.377
 5285POPC   NC366539  36.926  44.332   5.246
 5285POPC   PO466540  37.174  43.663   5.294
 5285POPC   GL166541  37.007  43.685   5.744
 5285POPC   GL266542  36.634  43.696   5.773
 5285POPC   C1A66543  37.035  43.809   6.206
 5285POPC   D2A66544  37.297  43.796   6.606
 5285POPC   C3A66545  37.071  43.874   7.015
 5285POPC   C4A66546  36.851  44.071   7.356
 5285POPC   C1B66547  36.526  43.683   6.214
 5285POPC   C2B66548  36.753  43.684   6.628
 5285POPC   C3B66549  36.586  43.699   7.058
 5285POPC   C4B66550  36.677  43.610   7.504
 5286POPC   NC366551  12.208   9.605   5.108
 5286POPC   PO466552  11.852   9.272   5.566
 5286POPC   GL166553  11.995   9.360   5.916
 5286POPC   GL266554  12.340   9.455   5.833
 5286POPC   C1A66555  11.891   9.538   6.286
 5286POPC   D2A66556  12.097   9.619   6.652
 5286POPC   C3A66557  11.963   9.831   6.979
 5286POPC   C4A66558  11.730   9.583   7.201
 5286POPC   C1B66559  12.343   9.765   6.158
 5286POPC   C2B66560  12.443   9.940   6.544
 5286POPC   C3B66561  12.482   9.831   6.954
 5286POPC   C4B66562  12.359   9.910   7.341
 5287POPC   NC366563   0.761   1.608   5.463
 5287POPC   PO466564   0.267   2.074   5.562
 5287POPC   GL166565   0.505   2.215   5.900
 5287POPC   GL266566   0.846   2.317   5.856
 5287POPC   C1A66567   0.631   1.905   6.197
 5287POPC   D2A66568   0.537   1.610   6.567
 5287POPC   C3A66569   0.250   1.787   6.871
 5287POPC   C4A66570   0.372   1.942   7.271
 5287POPC   C1B66571   0.775   2.450   6.267
 5287POPC   C2B66572   0.466   2.310   6.534
 5287POPC   C3B66573   0.558   2.220   6.908
 5287POPC   C4B66574   0.788   2.364   7.222
 5288POPC   NC366575  22.745  21.238   5.324
 5288POPC   PO466576  23.322  21.550   5.382
 5288POPC   GL166577  23.077  21.439   5.727
 5288POPC   GL266578  22.712  21.558   5.724
 5288POPC   C1A66579  23.176  21.465   6.157
 5288POPC   D2A66580  23.101  21.624   6.577
 5288POPC   C3A66581  23.221  21.535   7.056
 5288POPC   C4A66582  23.148  21.561   7.537
 5288POPC   C1B66583  22.705  21.253   6.037
 5288POPC   C2B66584  22.699  21.291   6.469
 5288POPC   C3B66585  22.745  21.404   6.904
 5288POPC   C4B66586  22.944  21.138   7.249
 5289POPC   NC366587  22.021  37.330   5.435
 5289POPC   PO466588  22.057  38.021   5.552
 5289POPC   GL166589  22.356  37.981   5.881
 5289POPC   GL266590  22.245  37.624   5.908
 5289POPC   C1A66591  22.303  37.901   6.322
 5289POPC   D2A66592  21.904  37.761   6.515
 5289POPC   C3A66593  21.927  37.886   6.960
 5289POPC   C4A66594  22.248  37.782   7.248
 5289POPC   C1B66595  22.236  37.380   6.310
 5289POPC   C2B66596  22.170  37.396   6.791
 5289POPC   C3B66597  22.152  37.279   7.240
 5289POPC   C4B66598  22.280  37.457   7.661
 5290POPC   NC366599   7.575  34.010   5.354
 5290POPC   PO466600   7.331  33.409   5.508
 5290POPC   GL166601   7.392  33.797   5.796
 5290POPC   GL266602   7.713  33.998   5.835
 5290POPC   C1A66603   7.334  33.842   6.264
 5290POPC   D2A66604   7.021  33.748   6.613
 5290POPC   C3A66605   7.111  33.634   7.022
 5290POPC   C4A66606   7.141  33.552   7.461
 5290POPC   C1B66607   7.921  34.072   6.207
 5290POPC   C2B66608   7.800  33.891   6.586
 5290POPC   C3B66609   7.461  33.957   6.830
 5290POPC   C4B66610   7.415  33.950   7.262
 5291POPC   NC366611   6.051   3.931   5.393
 5291POPC   PO466612   5.529   3.512   5.334
 5291POPC   GL166613   5.676   3.674   5.747
 5291POPC   GL266614   6.037   3.623   5.828
 5291POPC   C1A66615   5.677   3.638   6.219
 5291POPC   D2A66616   5.786   3.318   6.546
 5291POPC   C3A66617   5.681   3.382   6.981
 5291POPC   C4A66618   5.759   3.309   7.407
 5291POPC   C1B66619   6.199   3.504   6.254
 5291POPC   C2B66620   6.186   3.667   6.695
 5291POPC   C3B66621   6.117   3.638   7.161
 5291POPC   C4B66622   6.247   3.907   7.530
 5292POPC   NC366623  40.333  19.344   5.183
 5292POPC   PO466624  39.895  18.894   5.393
 5292POPC   GL166625  39.954  19.042   5.847
 5292POPC   GL266626  39.867  19.373   5.934
 5292POPC   C1A66627  40.021  19.037   6.313
 5292POPC   D2A66628  39.874  18.785   6.640
 5292POPC   C3A66629  40.073  18.986   6.916
 5292POPC   C4A66630  40.120  19.110   7.287
 5292POPC   C1B66631  39.630  19.369   6.302
 5292POPC   C2B66632  39.653  19.255   6.729
 5292POPC   C3B66633  39.679  19.329   7.181
 5292POPC   C4B66634  39.730  19.368   7.650
 5293POPC   NC366635   1.361  11.624   5.367
 5293POPC   PO466636   1.159  11.016   5.411
 5293POPC   GL166637   1.440  11.016   5.758
 5293POPC   GL266638   1.193  11.008   5.984
 5293POPC   C1A66639   1.573  11.291   6.158
 5293POPC   D2A66640   1.376  11.579   6.501
 5293POPC   C3A66641   1.444  11.509   6.956
 5293POPC   C4A66642   1.489  11.100   7.196
 5293POPC   C1B66643   1.032  11.441   6.060
 5293POPC   C2B66644   0.869  11.662   6.424
 5293POPC   C3B66645   0.923  11.415   6.787
 5293POPC   C4B66646   1.036  11.315   7.199
 5294POPC   NC366647  19.412  37.030   5.057
 5294POPC   PO466648  19.978  37.070   5.406
 5294POPC   GL166649  20.060  37.187   5.811
 5294POPC   GL266650  19.814  36.947   5.875
 5294POPC   C1A66651  19.933  37.225   6.272
 5294POPC   D2A66652  19.961  36.970   6.626
 5294POPC   C3A66653  19.619  37.022   6.877
 5294POPC   C4A66654  19.858  36.975   7.223
 5294POPC   C1B66655  19.896  36.671   6.206
 5294POPC   C2B66656  19.651  36.573   6.577
 5294POPC   C3B66657  19.809  36.529   6.956
 5294POPC   C4B66658  19.965  36.470   7.340
 5295POPC   NC366659   2.138   7.464   5.354
 5295POPC   PO466660   1.502   7.703   5.408
 5295POPC   GL166661   1.672   7.384   5.747
 5295POPC   GL266662   2.029   7.381   5.832
 5295POPC   C1A66663   1.762   7.286   6.241
 5295POPC   D2A66664   1.940   7.467   6.634
 5295POPC   C3A66665   1.856   7.383   7.096
 5295POPC   C4A66666   2.065   7.610   7.453
 5295POPC   C1B66667   2.280   7.359   6.192
 5295POPC   C2B66668   2.392   7.083   6.514
 5295POPC   C3B66669   2.421   6.917   6.904
 5295POPC   C4B66670   2.412   7.131   7.280
 5296POPC   NC366671   5.085  24.053   5.400
 5296POPC   PO466672   5.222  23.429   5.517
 5296POPC   GL166673   5.083  23.674   5.868
 5296POPC   GL266674   4.883  23.965   5.858
 5296POPC   C1A66675   5.013  23.690   6.307
 5296POPC   D2A66676   5.191  23.912   6.646
 5296POPC   C3A66677   5.145  23.679   7.016
 5296POPC   C4A66678   5.087  23.882   7.417
 5296POPC   C1B66679   4.666  24.054   6.246
 5296POPC   C2B66680   4.680  23.901   6.692
 5296POPC   C3B66681   4.673  23.824   7.140
 5296POPC   C4B66682   4.612  23.950   7.585
 5297POPC   NC366683   3.177   9.691   5.518
 5297POPC   PO466684   3.677  10.054   5.225
 5297POPC   GL166685   3.657   9.825   5.679
 5297POPC   GL266686   3.670   9.431   5.725
 5297POPC   C1A66687   3.433   9.701   6.122
 5297POPC   D2A66688   3.100   9.749   6.469
 5297POPC   C3A66689   3.292   9.810   6.891
 5297POPC   C4A66690   3.542   9.545   7.151
 5297POPC   C1B66691   3.838   9.389   6.168
 5297POPC   C2B66692   3.841   9.604   6.587
 5297POPC   C3B66693   4.010   9.477   6.999
 5297POPC   C4B66694   3.961   9.479   7.498
 5298POPC   NC366695  11.215  23.381   5.492
 5298POPC   PO466696  11.302  22.714   5.530
 5298POPC   GL166697  11.304  22.965   5.865
 5298POPC   GL266698  10.984  23.052   5.833
 5298POPC   C1A66699  11.429  22.985   6.297
 5298POPC   D2A66700  11.477  22.767   6.683
 5298POPC   C3A66701  11.475  23.065   6.995
 5298POPC   C4A66702  11.387  23.035   7.420
 5298POPC   C1B66703  10.834  23.017   6.251
 5298POPC   C2B66704  11.027  23.024   6.662
 5298POPC   C3B66705  10.986  23.201   7.072
 5298POPC   C4B66706  10.918  23.277   7.509
 5299POPC   NC366707  31.396  42.020   5.458
 5299POPC   PO466708  31.732  42.566   5.375
 5299POPC   GL166709  31.568  42.504   5.784
 5299POPC   GL266710  31.419  42.195   5.929
 5299POPC   C1A66711  31.473  42.586   6.229
 5299POPC   D2A66712  31.365  42.382   6.602
 5299POPC   C3A66713  31.545  42.488   6.960
 5299POPC   C4A66714  31.340  42.424   7.340
 5299POPC   C1B66715  31.657  42.056   6.310
 5299POPC   C2B66716  31.781  42.032   6.746
 5299POPC   C3B66717  31.600  42.012   7.161
 5299POPC   C4B66718  31.593  42.066   7.608
 5300POPC   NC366719  42.101  10.570   5.599
 5300POPC   PO466720  42.696  10.298   5.350
 5300POPC   GL166721  42.560  10.452   5.776
 5300POPC   GL266722  42.672  10.767   5.876
 5300POPC   C1A66723  42.362  10.488   6.205
 5300POPC   D2A66724  42.519  10.595   6.607
 5300POPC   C3A66725  42.345  10.385   6.912
 5300POPC   C4A66726  42.517  10.270   7.270
 5300POPC   C1B66727  42.325  10.983   6.124
 5300POPC   C2B66728  42.087  10.866   6.489
 5300POPC   C3B66729  42.160  10.865   6.910
 5300POPC   C4B66730  42.160  10.656   7.295
 5301POPC   NC366731  35.372  38.670   5.398
 5301POPC   PO466732  35.244  38.218   4.999
 5301POPC   GL166733  35.431  38.193   5.557
 5301POPC   GL266734  35.222  38.404   5.801
 5301POPC   C1A66735  35.499  38.144   6.104
 5301POPC   D2A66736  35.528  38.277   6.576
 5301POPC   C3A66737  35.294  38.275   7.004
 5301POPC   C4A66738  35.281  38.223   7.478
 5301POPC   C1B66739  35.152  38.569   6.240
 5301POPC   C2B66740  35.366  38.777   6.591
 5301POPC   C3B66741  35.308  38.792   7.022
 5301POPC   C4B66742  35.039  38.643   7.314
 5302POPC   NC366743  35.342  14.956   5.459
 5302POPC   PO466744  35.512  15.512   5.453
 5302POPC   GL166745  35.495  15.292   5.886
 5302POPC   GL266746  35.452  14.909   5.935
 5302POPC   C1A66747  35.379  15.212   6.342
 5302POPC   D2A66748  34.992  15.270   6.614
 5302POPC   C3A66749  35.102  15.170   7.035
 5302POPC   C4A66750  35.466  15.430   7.077
 5302POPC   C1B66751  35.165  14.752   6.236
 5302POPC   C2B66752  35.227  14.808   6.676
 5302POPC   C3B66753  35.546  14.862   6.989
 5302POPC   C4B66754  35.502  15.025   7.382
 5303POPC   NC366755   8.447  16.040   5.473
 5303POPC   PO466756   7.749  15.983   5.361
 5303POPC   GL166757   7.975  15.883   5.752
 5303POPC   GL266758   8.245  16.090   5.927
 5303POPC   C1A66759   7.868  15.926   6.209
 5303POPC   D2A66760   8.121  16.148   6.541
 5303POPC   C3A66761   8.257  15.872   6.880
 5303POPC   C4A66762   8.103  15.660   7.245
 5303POPC   C1B66763   8.456  16.381   6.200
 5303POPC   C2B66764   8.642  16.316   6.621
 5303POPC   C3B66765   8.486  16.305   7.054
 5303POPC   C4B66766   8.096  16.164   7.281
 5304POPC   NC366767  36.419  28.917   5.398
 5304POPC   PO466768  35.761  29.076   5.561
 5304POPC   GL166769  36.115  29.246   5.762
 5304POPC   GL266770  36.270  28.943   5.876
 5304POPC   C1A66771  36.249  29.390   6.177
 5304POPC   D2A66772  36.525  29.494   6.522
 5304POPC   C3A66773  36.481  29.223   6.863
 5304POPC   C4A66774  36.203  29.283   7.225
 5304POPC   C1B66775  36.003  28.927   6.205
 5304POPC   C2B66776  36.016  29.094   6.618
 5304POPC   C3B66777  36.057  28.876   6.988
 5304POPC   C4B66778  36.434  28.823   7.211
 5305POPC   NC366779  16.462  28.244   5.520
 5305POPC   PO466780  15.825  28.515   5.430
 5305POPC   GL166781  15.988  28.306   5.767
 5305POPC   GL266782  16.208  28.566   5.811
 5305POPC   C1A66783  15.997  28.209   6.213
 5305POPC   D2A66784  16.223  28.355   6.592
 5305POPC   C3A66785  16.075  28.221   7.002
 5305POPC   C4A66786  15.746  27.948   7.141
 5305POPC   C1B66787  15.885  28.695   6.082
 5305POPC   C2B66788  15.835  28.737   6.511
 5305POPC   C3B66789  15.829  28.738   6.951
 5305POPC   C4B66790  15.889  28.542   7.368
 5306POPC   NC366791  12.022   5.105   5.216
 5306POPC   PO466792  11.622   5.028   5.708
 5306POPC   GL166793  12.034   4.977   5.758
 5306POPC   GL266794  12.146   5.309   5.763
 5306POPC   C1A66795  12.178   4.932   6.179
 5306POPC   D2A66796  11.902   4.939   6.543
 5306POPC   C3A66797  12.051   5.004   6.952
 5306POPC   C4A66798  11.725   4.938   7.199
 5306POPC   C1B66799  12.168   5.447   6.228
 5306POPC   C2B66800  12.011   5.440   6.679
 5306POPC   C3B66801  11.805   5.455   7.098
 5306POPC   C4B66802  11.965   5.630   7.501
 5307POPC   NC366803  13.693  10.012   5.454
 5307POPC   PO466804  13.925   9.331   5.448
 5307POPC   GL166805  13.712   9.517   5.770
 5307POPC   GL266806  13.347   9.462   5.672
 5307POPC   C1A66807  13.893   9.728   6.145
 5307POPC   D2A66808  13.914   9.743   6.604
 5307POPC   C3A66809  13.868   9.916   7.002
 5307POPC   C4A66810  13.675   9.511   7.132
 5307POPC   C1B66811  13.316   9.482   6.121
 5307POPC   C2B66812  13.409   9.789   6.427
 5307POPC   C3B66813  13.390   9.840   6.855
 5307POPC   C4B66814  13.442  10.215   7.033
 5308POPC   NC366815  30.364  40.720   5.379
 5308POPC   PO466816  31.040  40.730   5.392
 5308POPC   GL166817  30.751  40.866   5.743
 5308POPC   GL266818  30.422  40.685   5.892
 5308POPC   C1A66819  30.801  40.867   6.203
 5308POPC   D2A66820  30.664  40.607   6.553
 5308POPC   C3A66821  30.906  40.698   6.901
 5308POPC   C4A66822  30.786  41.012   7.158
 5308POPC   C1B66823  30.199  40.488   6.283
 5308POPC   C2B66824  30.181  40.496   6.746
 5308POPC   C3B66825  30.431  40.639   7.090
 5308POPC   C4B66826  30.494  40.609   7.528
 5309POPC   NC366827   9.405  15.754   5.450
 5309POPC   PO466828   8.709  15.662   5.548
 5309POPC   GL166829   8.759  15.967   5.859
 5309POPC   GL266830   9.003  16.213   5.731
 5309POPC   C1A66831   8.636  15.907   6.268
 5309POPC   D2A66832   8.930  15.838   6.554
 5309POPC   C3A66833   8.768  15.870   6.929
 5309POPC   C4A66834   8.989  15.742   7.264
 5309POPC   C1B66835   8.982  16.305   6.197
 5309POPC   C2B66836   9.189  16.316   6.613
 5309POPC   C3B66837   9.002  16.304   7.019
 5309POPC   C4B66838   8.896  16.209   7.455
 5310POPC   NC366839  25.397   6.722   5.436
 5310POPC   PO466840  24.843   6.338   5.738
 5310POPC   GL166841  25.116   6.708   5.885
 5310POPC   GL266842  25.508   6.844   5.909
 5310POPC   C1A66843  25.231   6.777   6.313
 5310POPC   D2A66844  25.576   6.859   6.578
 5310POPC   C3A66845  25.430   6.717   6.940
 5310POPC   C4A66846  25.295   6.998   7.186
 5310POPC   C1B66847  25.700   6.523   6.205
 5310POPC   C2B66848  25.927   6.491   6.643
 5310POPC   C3B66849  25.778   6.359   7.063
 5310POPC   C4B66850  25.612   6.077   7.377
 5311POPC   NC366851  13.067  31.624   5.477
 5311POPC   PO466852  12.509  31.295   5.329
 5311POPC   GL166853  12.663  31.533   5.742
 5311POPC   GL266854  12.877  31.219   5.754
 5311POPC   C1A66855  12.948  31.512   6.150
 5311POPC   D2A66856  12.851  31.274   6.515
 5311POPC   C3A66857  12.969  31.420   6.931
 5311POPC   C4A66858  12.858  31.575   7.350
 5311POPC   C1B66859  13.071  30.996   6.096
 5311POPC   C2B66860  13.146  30.859   6.538
 5311POPC   C3B66861  13.219  30.929   6.960
 5311POPC   C4B66862  13.180  31.168   7.335
 5312POPC   NC366863   4.443  19.477   5.258
 5312POPC   PO466864   4.060  20.016   5.368
 5312POPC   GL166865   4.153  19.892   5.761
 5312POPC   GL266866   4.437  19.676   5.761
 5312POPC   C1A66867   4.147  19.714   6.170
 5312POPC   D2A66868   4.366  19.681   6.531
 5312POPC   C3A66869   4.164  19.854   6.872
 5312POPC   C4A66870   4.025  19.599   7.148
 5312POPC   C1B66871   4.539  20.033   6.080
 5312POPC   C2B66872   4.678  20.087   6.527
 5312POPC   C3B66873   4.578  20.123   6.987
 5312POPC   C4B66874   4.504  19.740   7.265
 5313POPC   NC366875  14.546  10.311   5.424
 5313POPC   PO466876  14.227  10.843   5.271
 5313POPC   GL166877  14.380  10.715   5.731
 5313POPC   GL266878  14.239  10.388   5.877
 5313POPC   C1A66879  14.486  10.666   6.203
 5313POPC   D2A66880  14.735  10.603   6.576
 5313POPC   C3A66881  14.460  10.639   6.923
 5313POPC   C4A66882  14.363  10.746   7.325
 5313POPC   C1B66883  14.185  10.187   6.302
 5313POPC   C2B66884  14.256  10.176   6.767
 5313POPC   C3B66885  14.289  10.249   7.233
 5313POPC   C4B66886  14.143  10.446   7.667
 5314POPC   NC366887   5.415  26.395   5.701
 5314POPC   PO466888   5.029  26.816   5.300
 5314POPC   GL166889   5.074  26.743   5.809
 5314POPC   GL266890   4.990  26.436   5.972
 5314POPC   C1A66891   5.266  26.882   6.193
 5314POPC   D2A66892   5.432  27.061   6.544
 5314POPC   C3A66893   5.267  27.045   6.953
 5314POPC   C4A66894   5.186  26.647   7.139
 5314POPC   C1B66895   4.780  26.731   6.249
 5314POPC   C2B66896   4.846  26.898   6.667
 5314POPC   C3B66897   4.699  26.767   7.080
 5314POPC   C4B66898   4.707  26.357   7.254
 5315POPC   NC366899   5.411   1.539   5.568
 5315POPC   PO466900   5.185   2.126   5.228
 5315POPC   GL166901   5.109   1.942   5.668
 5315POPC   GL266902   5.337   2.179   5.831
 5315POPC   C1A66903   4.937   1.958   6.115
 5315POPC   D2A66904   4.766   1.837   6.540
 5315POPC   C3A66905   4.847   2.061   6.941
 5315POPC   C4A66906   4.756   1.907   7.365
 5315POPC   C1B66907   5.204   2.390   6.218
 5315POPC   C2B66908   5.211   2.086   6.556
 5315POPC   C3B66909   5.373   1.992   6.954
 5315POPC   C4B66910   5.205   2.172   7.315
 5316POPC   NC366911  38.148  38.007   5.085
 5316POPC   PO466912  38.414  38.573   5.414
 5316POPC   GL166913  38.394  38.505   5.875
 5316POPC   GL266914  38.746  38.574   5.948
 5316POPC   C1A66915  38.337  38.391   6.306
 5316POPC   D2A66916  38.613  38.557   6.609
 5316POPC   C3A66917  38.425  38.611   7.009
 5316POPC   C4A66918  38.563  38.798   7.409
 5316POPC   C1B66919  38.792  38.220   6.192
 5316POPC   C2B66920  38.698  38.043   6.580
 5316POPC   C3B66921  38.776  38.199   6.997
 5316POPC   C4B66922  38.668  38.289   7.415
 5317POPC   NC366923  29.103  22.650   5.463
 5317POPC   PO466924  29.583  23.011   5.553
 5317POPC   GL166925  29.366  23.026   5.951
 5317POPC   GL266926  29.015  23.005   5.844
 5317POPC   C1A66927  29.437  23.245   6.369
 5317POPC   D2A66928  29.233  23.043   6.719
 5317POPC   C3A66929  29.328  23.087   7.157
 5317POPC   C4A66930  29.174  23.306   7.522
 5317POPC   C1B66931  28.919  22.810   6.239
 5317POPC   C2B66932  28.952  22.604   6.641
 5317POPC   C3B66933  28.945  22.765   7.047
 5317POPC   C4B66934  29.028  22.837   7.486
 5318POPC   NC366935  29.667   8.451   5.423
 5318POPC   PO466936  30.222   8.065   5.373
 5318POPC   GL166937  29.948   8.176   5.796
 5318POPC   GL266938  29.594   8.319   5.894
 5318POPC   C1A66939  30.020   8.444   6.204
 5318POPC   D2A66940  30.304   8.573   6.581
 5318POPC   C3A66941  30.155   8.409   7.002
 5318POPC   C4A66942  30.138   8.449   7.480
 5318POPC   C1B66943  29.658   8.081   6.233
 5318POPC   C2B66944  29.726   8.222   6.630
 5318POPC   C3B66945  29.591   8.050   6.987
 5318POPC   C4B66946  29.892   8.040   7.280
 5319POPC   NC366947   6.943   7.035   5.198
 5319POPC   PO466948   7.491   7.189   5.472
 5319POPC   GL166949   7.470   7.378   5.883
 5319POPC   GL266950   7.137   7.245   5.897
 5319POPC   C1A66951   7.632   7.599   6.315
 5319POPC   D2A66952   7.741   7.531   6.798
 5319POPC   C3A66953   7.457   7.758   7.142
 5319POPC   C4A66954   6.991   7.793   7.281
 5319POPC   C1B66955   7.266   7.210   6.330
 5319POPC   C2B66956   7.452   7.059   6.690
 5319POPC   C3B66957   7.331   6.912   7.065
 5319POPC   C4B66958   7.149   7.305   7.153
 5320POPC   NC366959  27.756  28.882   5.373
 5320POPC   PO466960  27.110  29.131   5.216
 5320POPC   GL166961  27.352  29.072   5.654
 5320POPC   GL266962  27.630  29.216   5.751
 5320POPC   C1A66963  27.305  29.285   6.116
 5320POPC   D2A66964  27.563  29.300   6.502
 5320POPC   C3A66965  27.396  29.382   6.893
 5320POPC   C4A66966  27.624  29.365   7.261
 5320POPC   C1B66967  27.752  28.978   6.136
 5320POPC   C2B66968  27.727  28.803   6.555
 5320POPC   C3B66969  27.733  28.940   6.952
 5320POPC   C4B66970  28.126  28.942   7.114
 5321POPC   NC366971  15.712  28.049   5.415
 5321POPC   PO466972  15.087  28.267   5.402
 5321POPC   GL166973  15.138  28.332   5.815
 5321POPC   GL266974  15.466  28.189   5.856
 5321POPC   C1A66975  14.987  28.413   6.237
 5321POPC   D2A66976  15.168  28.424   6.669
 5321POPC   C3A66977  14.947  28.410   7.065
 5321POPC   C4A66978  14.786  28.771   7.297
 5321POPC   C1B66979  15.509  28.388   6.265
 5321POPC   C2B66980  15.663  28.286   6.692
 5321POPC   C3B66981  15.474  28.375   7.094
 5321POPC   C4B66982  15.408  28.334   7.519
 5322POPC   NC366983   1.587  19.844   5.258
 5322POPC   PO466984   0.898  20.092   5.355
 5322POPC   GL166985   1.028  19.950   5.767
 5322POPC   GL266986   1.104  20.227   5.983
 5322POPC   C1A66987   1.196  19.763   6.168
 5322POPC   D2A66988   1.307  19.835   6.586
 5322POPC   C3A66989   1.263  19.540   6.934
 5322POPC   C4A66990   1.364  19.761   7.291
 5322POPC   C1B66991   0.743  20.010   6.165
 5322POPC   C2B66992   0.732  19.872   6.564
 5322POPC   C3B66993   0.920  19.915   6.966
 5322POPC   C4B66994   0.873  19.610   7.297
 5323POPC   NC366995   0.655   2.407   5.403
 5323POPC   PO466996  44.987   2.563   5.213
 5323POPC   GL166997   0.191   2.595   5.698
 5323POPC   GL266998   0.561   2.744   5.795
 5323POPC   C1A66999   0.260   2.629   6.190
 5323POPC   D2A67000   0.508   2.852   6.543
 5323POPC   C3A67001   0.471   2.731   6.995
 5323POPC   C4A67002   0.164   2.408   7.174
 5323POPC   C1B67003   0.866   2.935   6.132
 5323POPC   C2B67004   0.973   3.083   6.568
 5323POPC   C3B67005   0.777   3.247   6.967
 5323POPC   C4B67006   0.662   3.140   7.462
 5324POPC   NC367007  27.190  32.578   5.599
 5324POPC   PO467008  27.706  32.169   5.273
 5324POPC   GL167009  27.653  32.271   5.748
 5324POPC   GL267010  27.487  32.452   5.955
 5324POPC   C1A67011  27.663  32.056   6.185
 5324POPC   D2A67012  27.843  31.919   6.558
 5324POPC   C3A67013  27.665  32.138   6.866
 5324POPC   C4A67014  27.432  32.096   7.210
 5324POPC   C1B67015  27.877  32.524   6.109
 5324POPC   C2B67016  27.968  32.495   6.531
 5324POPC   C3B67017  28.065  32.476   6.941
 5324POPC   C4B67018  27.871  32.381   7.298
 5325POPC   NC367019  34.167  37.303   5.335
 5325POPC   PO467020  33.965  36.631   5.477
 5325POPC   GL167021  33.979  36.993   5.758
 5325POPC   GL267022  33.633  36.972   5.844
 5325POPC   C1A67023  33.985  37.128   6.208
 5325POPC   D2A67024  34.127  36.958   6.606
 5325POPC   C3A67025  34.142  37.173   6.982
 5325POPC   C4A67026  33.936  37.091   7.365
 5325POPC   C1B67027  33.464  37.094   6.244
 5325POPC   C2B67028  33.628  37.138   6.607
 5325POPC   C3B67029  33.660  36.944   6.957
 5325POPC   C4B67030  33.441  37.081   7.292
 5326POPC   NC367031  34.287  19.879   5.449
 5326POPC   PO467032  34.897  19.508   5.393
 5326POPC   GL167033  34.723  19.816   5.735
 5326POPC   GL267034  34.453  19.635   5.875
 5326POPC   C1A67035  34.529  20.030   6.154
 5326POPC   D2A67036  34.288  19.852   6.511
 5326POPC   C3A67037  34.315  20.017   6.936
 5326POPC   C4A67038  34.336  19.822   7.340
 5326POPC   C1B67039  34.833  19.626   6.182
 5326POPC   C2B67040  34.732  19.583   6.596
 5326POPC   C3B67041  34.784  19.774   6.981
 5326POPC   C4B67042  35.047  19.628   7.289
 5327POPC   NC367043  34.245  20.562   5.337
 5327POPC   PO467044  33.657  20.885   5.324
 5327POPC   GL167045  33.762  20.810   5.749
 5327POPC   GL267046  33.944  20.520   5.737
 5327POPC   C1A67047  33.807  20.676   6.192
 5327POPC   D2A67048  33.904  20.829   6.590
 5327POPC   C3A67049  33.676  20.643   6.961
 5327POPC   C4A67050  33.887  20.830   7.283
 5327POPC   C1B67051  34.084  20.260   6.069
 5327POPC   C2B67052  34.008  20.301   6.513
 5327POPC   C3B67053  34.155  20.490   6.889
 5327POPC   C4B67054  33.995  20.340   7.249
 5328POPC   NC367055   6.603  37.026   5.446
 5328POPC   PO467056   7.040  37.532   5.471
 5328POPC   GL167057   6.904  37.246   5.820
 5328POPC   GL267058   6.859  36.890   5.899
 5328POPC   C1A67059   6.610  37.196   6.202
 5328POPC   D2A67060   6.448  37.139   6.603
 5328POPC   C3A67061   6.718  37.024   6.949
 5328POPC   C4A67062   6.489  37.141   7.304
 5328POPC   C1B67063   6.648  36.667   6.249
 5328POPC   C2B67064   6.517  36.627   6.694
 5328POPC   C3B67065   6.527  36.615   7.178
 5328POPC   C4B67066   6.896  36.569   7.511
 5329POPC   NC367067  43.986  31.086   5.181
 5329POPC   PO467068  43.922  30.458   5.472
 5329POPC   GL167069  43.916  30.831   5.727
 5329POPC   GL267070  43.619  30.867   5.951
 5329POPC   C1A67071  44.056  30.938   6.172
 5329POPC   D2A67072  43.855  31.027   6.560
 5329POPC   C3A67073  44.095  30.922   6.927
 5329POPC   C4A67074  44.025  30.920   7.369
 5329POPC   C1B67075  43.822  30.488   6.116
 5329POPC   C2B67076  44.034  30.524   6.516
 5329POPC   C3B67077  43.760  30.538   6.864
 5329POPC   C4B67078  43.573  30.560   7.247
 5330POPC   NC367079  25.361  37.949   5.478
 5330POPC   PO467080  24.808  37.507   5.309
 5330POPC   GL167081  25.042  37.600   5.691
 5330POPC   GL267082  24.912  37.925   5.836
 5330POPC   C1A67083  25.246  37.629   6.103
 5330POPC   D2A67084  24.980  37.673   6.469
 5330POPC   C3A67085  25.064  37.678   6.906
 5330POPC   C4A67086  25.284  37.393   7.201
 5330POPC   C1B67087  25.132  38.108   6.217
 5330POPC   C2B67088  25.377  37.999   6.626
 5330POPC   C3B67089  25.366  38.043   7.104
 5330POPC   C4B67090  25.036  37.884   7.389
 5331POPC   NC367091  37.430  35.778   5.407
 5331POPC   PO467092  37.945  36.171   5.240
 5331POPC   GL167093  37.663  36.257   5.643
 5331POPC   GL267094  37.330  36.111   5.780
 5331POPC   C1A67095  37.661  36.407   6.111
 5331POPC   D2A67096  37.853  36.521   6.537
 5331POPC   C3A67097  37.866  36.299   6.922
 5331POPC   C4A67098  37.810  36.308   7.345
 5331POPC   C1B67099  37.251  36.133   6.225
 5331POPC   C2B67100  37.477  36.141   6.604
 5331POPC   C3B67101  37.372  36.337   6.952
 5331POPC   C4B67102  37.324  36.179   7.299
 5332POPC   NC367103   1.024  36.339   5.648
 5332POPC   PO467104   1.426  35.909   5.361
 5332POPC   GL167105   1.494  36.043   5.796
 5332POPC   GL267106   1.406  36.334   5.978
 5332POPC   C1A67107   1.354  35.899   6.231
 5332POPC   D2A67108   1.164  35.930   6.626
 5332POPC   C3A67109   1.447  36.046   6.925
 5332POPC   C4A67110   1.557  36.369   7.160
 5332POPC   C1B67111   1.090  36.360   6.327
 5332POPC   C2B67112   0.955  36.377   6.797
 5332POPC   C3B67113   1.042  36.185   7.194
 5332POPC   C4B67114   0.890  35.919   7.534
 5333POPC   NC367115  13.890  30.508   5.523
 5333POPC   PO467116  13.395  30.964   5.419
 5333POPC   GL167117  13.469  30.747   5.810
 5333POPC   GL267118  13.388  30.414   5.713
 5333POPC   C1A67119  13.804  30.723   6.156
 5333POPC   D2A67120  13.914  30.926   6.556
 5333POPC   C3A67121  13.788  30.798   6.957
 5333POPC   C4A67122  13.575  30.859   7.314
 5333POPC   C1B67123  13.558  30.284   6.125
 5333POPC   C2B67124  13.545  30.512   6.570
 5333POPC   C3B67125  13.407  30.428   7.019
 5333POPC   C4B67126  13.396  30.236   7.439
 5334POPC   NC367127  34.663   8.336   5.369
 5334POPC   PO467128  34.539   7.628   5.436
 5334POPC   GL167129  34.694   7.959   5.747
 5334POPC   GL267130  34.769   8.340   5.855
 5334POPC   C1A67131  34.626   7.995   6.191
 5334POPC   D2A67132  34.589   8.242   6.550
 5334POPC   C3A67133  34.522   7.988   6.857
 5334POPC   C4A67134  34.553   8.090   7.260
 5334POPC   C1B67135  34.943   8.446   6.254
 5334POPC   C2B67136  34.875   8.644   6.671
 5334POPC   C3B67137  34.638   8.527   7.017
 5334POPC   C4B67138  34.922   8.434   7.333
 5335POPC   NC367139  25.755  33.596   5.611
 5335POPC   PO467140  25.565  34.152   5.311
 5335POPC   GL167141  25.313  33.922   5.659
 5335POPC   GL267142  25.130  33.585   5.563
 5335POPC   C1A67143  25.172  34.040   6.095
 5335POPC   D2A67144  25.290  34.190   6.534
 5335POPC   C3A67145  25.147  33.946   6.897
 5335POPC   C4A67146  25.327  33.914   7.332
 5335POPC   C1B67147  25.119  33.518   5.982
 5335POPC   C2B67148  25.221  33.616   6.408
 5335POPC   C3B67149  25.320  33.433   6.794
 5335POPC   C4B67150  25.100  33.496   7.165
 5336POPC   NC367151  18.393  29.145   5.525
 5336POPC   PO467152  17.833  28.698   5.607
 5336POPC   GL167153  18.118  28.929   5.910
 5336POPC   GL267154  18.145  29.328   5.914
 5336POPC   C1A67155  18.284  29.049   6.310
 5336POPC   D2A67156  18.302  29.395   6.571
 5336POPC   C3A67157  18.276  29.205   6.967
 5336POPC   C4A67158  18.292  28.964   7.333
 5336POPC   C1B67159  18.568  29.412   6.096
 5336POPC   C2B67160  18.853  29.339   6.432
 5336POPC   C3B67161  18.748  29.460   6.850
 5336POPC   C4B67162  18.686  29.325   7.253
 5337POPC   NC367163  40.625  34.483   5.447
 5337POPC   PO467164  41.318  34.409   5.650
 5337POPC   GL167165  40.960  34.589   5.842
 5337POPC   GL267166  41.080  34.902   5.894
 5337POPC   C1A67167  40.731  34.468   6.224
 5337POPC   D2A67168  40.942  34.247   6.587
 5337POPC   C3A67169  40.825  34.354   7.012
 5337POPC   C4A67170  40.702  34.669   7.301
 5337POPC   C1B67171  41.159  34.721   6.310
 5337POPC   C2B67172  41.065  34.743   6.755
 5337POPC   C3B67173  41.145  34.891   7.175
 5337POPC   C4B67174  41.014  34.933   7.624
 5338POPC   NC367175   3.999  28.762   5.203
 5338POPC   PO467176   3.367  28.947   5.276
 5338POPC   GL167177   3.623  29.020   5.658
 5338POPC   GL267178   3.355  29.181   5.785
 5338POPC   C1A67179   3.766  29.138   6.125
 5338POPC   D2A67180   3.570  29.104   6.555
 5338POPC   C3A67181   3.790  29.188   6.956
 5338POPC   C4A67182   3.631  29.304   7.335
 5338POPC   C1B67183   3.239  29.263   6.195
 5338POPC   C2B67184   3.149  29.391   6.628
 5338POPC   C3B67185   3.257  29.204   7.025
 5338POPC   C4B67186   3.126  29.345   7.462
 5339POPC   NC367187  44.609  39.796   5.646
 5339POPC   PO467188  44.006  39.859   5.394
 5339POPC   GL167189  43.918  39.978   5.837
 5339POPC   GL267190  44.235  40.064   5.845
 5339POPC   C1A67191  43.988  39.987   6.291
 5339POPC   D2A67192  44.181  39.762   6.618
 5339POPC   C3A67193  43.995  39.932   6.938
 5339POPC   C4A67194  43.829  39.935   7.304
 5339POPC   C1B67195  44.167  40.420   6.063
 5339POPC   C2B67196  44.132  40.470   6.501
 5339POPC   C3B67197  43.996  40.443   6.919
 5339POPC   C4B67198  44.106  40.406   7.353
 5340POPC   NC367199  41.500   0.775   5.489
 5340POPC   PO467200  41.631   0.032   5.428
 5340POPC   GL167201  41.627   0.321   5.788
 5340POPC   GL267202  41.284   0.420   5.796
 5340POPC   C1A67203  41.587   0.586   6.179
 5340POPC   D2A67204  41.389   0.648   6.573
 5340POPC   C3A67205  41.599   0.647   6.958
 5340POPC   C4A67206  41.327   0.537   7.244
 5340POPC   C1B67207  41.238   0.150   6.159
 5340POPC   C2B67208  41.445   0.126   6.550
 5340POPC   C3B67209  41.427   0.108   6.988
 5340POPC   C4B67210  41.757   0.236   7.235
 5341POPC   NC367211  13.237  35.264   5.148
 5341POPC   PO467212  13.604  35.711   5.419
 5341POPC   GL167213  13.727  35.383   5.736
 5341POPC   GL267214  13.717  35.080   6.009
 5341POPC   C1A67215  13.873  35.567   6.109
 5341POPC   D2A67216  13.649  35.514   6.483
 5341POPC   C3A67217  13.885  35.281   6.757
 5341POPC   C4A67218  13.820  35.439   7.171
 5341POPC   C1B67219  13.371  34.925   6.265
 5341POPC   C2B67220  13.249  35.195   6.561
 5341POPC   C3B67221  13.423  35.216   6.947
 5341POPC   C4B67222  13.701  34.936   7.189
 5342POPC   NC367223  18.205  27.049   5.634
 5342POPC   PO467224  18.168  27.805   5.509
 5342POPC   GL167225  18.193  27.527   5.832
 5342POPC   GL267226  18.483  27.308   5.960
 5342POPC   C1A67227  18.131  27.600   6.236
 5342POPC   D2A67228  18.418  27.491   6.563
 5342POPC   C3A67229  18.259  27.656   6.922
 5342POPC   C4A67230  18.188  27.508   7.337
 5342POPC   C1B67231  18.204  27.105   6.290
 5342POPC   C2B67232  17.962  27.274   6.606
 5342POPC   C3B67233  17.928  27.218   6.991
 5342POPC   C4B67234  17.806  27.152   7.377
 5343POPC   NC367235  28.809  33.296   5.394
 5343POPC   PO467236  29.264  32.764   5.450
 5343POPC   GL167237  29.082  32.990   5.756
 5343POPC   GL267238  29.029  32.692   5.903
 5343POPC   C1A67239  29.204  33.072   6.200
 5343POPC   D2A67240  29.227  33.213   6.646
 5343POPC   C3A67241  29.361  32.940   6.984
 5343POPC   C4A67242  29.601  33.120   7.318
 5343POPC   C1B67243  28.838  32.699   6.261
 5343POPC   C2B67244  28.755  33.041   6.498
 5343POPC   C3B67245  28.824  33.019   6.933
 5343POPC   C4B67246  28.967  32.727   7.273
 5344POPC   NC367247   6.780  37.997   5.388
 5344POPC   PO467248   6.606  37.421   5.193
 5344POPC   GL167249   6.594  37.637   5.686
 5344POPC   GL267250   6.952  37.845   5.830
 5344POPC   C1A67251   6.610  37.697   6.160
 5344POPC   D2A67252   6.442  37.657   6.581
 5344POPC   C3A67253   6.624  37.532   6.950
 5344POPC   C4A67254   6.645  37.630   7.370
 5344POPC   C1B67255   7.015  38.016   6.197
 5344POPC   C2B67256   6.904  37.852   6.585
 5344POPC   C3B67257   6.963  37.911   7.035
 5344POPC   C4B67258   7.243  37.758   7.306
 5345POPC   NC367259  18.557  31.123   5.592
 5345POPC   PO467260  18.152  31.721   5.448
 5345POPC   GL167261  18.225  31.687   5.885
 5345POPC   GL267262  18.564  31.734   5.816
 5345POPC   C1A67263  18.183  31.657   6.357
 5345POPC   D2A67264  18.104  31.443   6.762
 5345POPC   C3A67265  18.099  31.585   7.174
 5345POPC   C4A67266  18.351  31.440   7.485
 5345POPC   C1B67267  18.696  31.634   6.201
 5345POPC   C2B67268  18.626  31.806   6.606
 5345POPC   C3B67269  18.586  31.632   7.019
 5345POPC   C4B67270  18.846  31.471   7.334
 5346POPC   NC367271  28.185  20.699   5.439
 5346POPC   PO467272  28.790  20.947   5.546
 5346POPC   GL167273  28.577  20.533   5.759
 5346POPC   GL267274  28.193  20.483   5.908
 5346POPC   C1A67275  28.617  20.326   6.179
 5346POPC   D2A67276  28.487  20.161   6.595
 5346POPC   C3A67277  28.300  20.433   6.926
 5346POPC   C4A67278  28.435  20.370   7.358
 5346POPC   C1B67279  28.225  20.554   6.386
 5346POPC   C2B67280  28.601  20.718   6.634
 5346POPC   C3B67281  28.589  20.900   7.060
 5346POPC   C4B67282  28.198  20.817   7.287
 5347POPC   NC367283  31.305  34.659   5.268
 5347POPC   PO467284  31.730  34.180   5.633
 5347POPC   GL167285  31.574  34.488   5.836
 5347POPC   GL267286  31.251  34.535   5.779
 5347POPC   C1A67287  31.636  34.626   6.231
 5347POPC   D2A67288  31.720  34.442   6.624
 5347POPC   C3A67289  31.817  34.665   6.984
 5347POPC   C4A67290  31.728  34.432   7.389
 5347POPC   C1B67291  31.150  34.751   6.180
 5347POPC   C2B67292  31.319  34.797   6.599
 5347POPC   C3B67293  31.306  34.577   6.982
 5347POPC   C4B67294  31.018  34.768   7.272
 5348POPC   NC367295   0.173  27.309   5.635
 5348POPC   PO467296   0.468  27.787   5.182
 5348POPC   GL167297   0.216  27.984   5.745
 5348POPC   GL267298   0.184  27.655   6.026
 5348POPC   C1A67299   0.493  28.000   6.168
 5348POPC   D2A67300   0.488  27.646   6.473
 5348POPC   C3A67301   0.436  27.757   6.899
 5348POPC   C4A67302   0.536  27.565   7.317
 5348POPC   C1B67303   0.267  27.241   6.230
 5348POPC   C2B67304   0.247  27.068   6.552
 5348POPC   C3B67305   0.326  27.266   6.907
 5348POPC   C4B67306   0.254  27.130   7.275
 5349POPC   NC367307  24.682  26.517   5.484
 5349POPC   PO467308  24.955  25.904   5.412
 5349POPC   GL167309  24.741  26.071   5.784
 5349POPC   GL267310  24.495  25.820   5.861
 5349POPC   C1A67311  24.652  26.248   6.199
 5349POPC   D2A67312  24.837  26.207   6.628
 5349POPC   C3A67313  24.734  26.474   6.981
 5349POPC   C4A67314  24.484  26.372   7.364
 5349POPC   C1B67315  24.668  25.740   6.272
 5349POPC   C2B67316  24.649  25.485   6.671
 5349POPC   C3B67317  24.561  25.635   7.088
 5349POPC   C4B67318  24.751  26.003   7.165
 5350POPC   NC367319  24.026  15.505   5.544
 5350POPC   PO467320  24.363  14.904   5.322
 5350POPC   GL167321  24.321  15.112   5.710
 5350POPC   GL267322  24.124  14.845   5.811
 5350POPC   C1A67323  24.463  15.340   6.101
 5350POPC   D2A67324  24.693  15.468   6.509
 5350POPC   C3A67325  24.448  15.417   6.891
 5350POPC   C4A67326  24.492  15.271   7.304
 5350POPC   C1B67327  24.429  14.831   6.132
 5350POPC   C2B67328  24.423  15.035   6.530
 5350POPC   C3B67329  24.463  14.889   6.941
 5350POPC   C4B67330  24.535  14.745   7.336
 5351POPC   NC367331  34.759  40.119   5.527
 5351POPC   PO467332  34.682  39.563   5.417
 5351POPC   GL167333  34.708  39.693   5.832
 5351POPC   GL267334  34.340  39.761   5.791
 5351POPC   C1A67335  34.885  39.825   6.253
 5351POPC   D2A67336  34.714  40.059   6.629
 5351POPC   C3A67337  34.902  40.131   7.056
 5351POPC   C4A67338  34.774  40.153   7.524
 5351POPC   C1B67339  34.364  39.965   6.193
 5351POPC   C2B67340  34.183  39.944   6.593
 5351POPC   C3B67341  34.324  40.162   6.959
 5351POPC   C4B67342  34.251  40.166   7.389
 5352POPC   NC367343  42.048  13.736   5.302
 5352POPC   PO467344  42.616  13.423   5.341
 5352POPC   GL167345  42.457  13.747   5.642
 5352POPC   GL267346  42.114  13.706   5.808
 5352POPC   C1A67347  42.496  13.984   6.051
 5352POPC   D2A67348  42.440  14.091   6.503
 5352POPC   C3A67349  42.631  13.910   6.873
 5352POPC   C4A67350  42.535  13.693   7.262
 5352POPC   C1B67351  42.242  13.568   6.224
 5352POPC   C2B67352  42.211  13.363   6.645
 5352POPC   C3B67353  42.099  13.562   7.048
 5352POPC   C4B67354  42.098  13.494   7.522
 5353POPC   NC367355  33.631  34.703   5.414
 5353POPC   PO467356  33.994  34.176   5.207
 5353POPC   GL167357  33.991  34.322   5.705
 5353POPC   GL267358  33.856  34.630   5.851
 5353POPC   C1A67359  33.756  34.223   6.137
 5353POPC   D2A67360  33.700  34.391   6.528
 5353POPC   C3A67361  33.968  34.356   6.869
 5353POPC   C4A67362  33.815  34.311   7.302
 5353POPC   C1B67363  33.571  34.740   6.167
 5353POPC   C2B67364  33.340  34.764   6.578
 5353POPC   C3B67365  33.485  34.554   6.978
 5353POPC   C4B67366  33.495  34.774   7.399
 5354POPC   NC367367  15.708   8.919   5.443
 5354POPC   PO467368  16.350   8.657   5.272
 5354POPC   GL167369  16.207   8.921   5.620
 5354POPC   GL267370  16.123   8.619   5.765
 5354POPC   C1A67371  15.977   9.031   6.040
 5354POPC   D2A67372  16.024   8.861   6.461
 5354POPC   C3A67373  15.874   8.916   6.876
 5354POPC   C4A67374  15.865   9.193   7.217
 5354POPC   C1B67375  16.374   8.681   6.138
 5354POPC   C2B67376  16.351   8.492   6.579
 5354POPC   C3B67377  16.301   8.646   6.999
 5354POPC   C4B67378  16.231   8.884   7.387
 5355POPC   NC367379  12.646  11.713   5.414
 5355POPC   PO467380  13.190  11.889   5.614
 5355POPC   GL167381  12.788  11.891   5.890
 5355POPC   GL267382  12.544  11.589   5.916
 5355POPC   C1A67383  12.857  12.072   6.306
 5355POPC   D2A67384  13.184  12.126   6.609
 5355POPC   C3A67385  13.029  12.444   6.874
 5355POPC   C4A67386  12.882  12.327   7.273
 5355POPC   C1B67387  12.568  11.665   6.374
 5355POPC   C2B67388  12.781  11.777   6.760
 5355POPC   C3B67389  12.679  11.880   7.195
 5355POPC   C4B67390  12.504  12.053   7.587
 5356POPC   NC367391   6.874  27.742   5.431
 5356POPC   PO467392   6.210  27.649   5.240
 5356POPC   GL167393   6.370  27.489   5.721
 5356POPC   GL267394   6.731  27.525   5.873
 5356POPC   C1A67395   6.367  27.419   6.206
 5356POPC   D2A67396   6.670  27.343   6.557
 5356POPC   C3A67397   6.461  27.385   6.941
 5356POPC   C4A67398   6.619  27.642   7.256
 5356POPC   C1B67399   6.691  27.820   6.262
 5356POPC   C2B67400   6.642  27.838   6.711
 5356POPC   C3B67401   6.948  27.907   7.012
 5356POPC   C4B67402   6.981  28.237   7.252
 5357POPC   NC367403   3.525  15.400   5.302
 5357POPC   PO467404   3.326  14.756   5.483
 5357POPC   GL167405   3.525  15.011   5.817
 5357POPC   GL267406   3.638  15.376   5.791
 5357POPC   C1A67407   3.621  14.874   6.229
 5357POPC   D2A67408   3.616  15.060   6.614
 5357POPC   C3A67409   3.709  14.881   6.987
 5357POPC   C4A67410   3.585  15.022   7.366
 5357POPC   C1B67411   3.375  15.441   6.148
 5357POPC   C2B67412   3.463  15.550   6.573
 5357POPC   C3B67413   3.488  15.406   7.001
 5357POPC   C4B67414   3.272  15.427   7.428
 5358POPC   NC367415  37.849  37.555   5.424
 5358POPC   PO467416  37.121  37.583   5.394
 5358POPC   GL167417  37.442  37.526   5.720
 5358POPC   GL267418  37.542  37.871   5.734
 5358POPC   C1A67419  37.665  37.592   6.155
 5358POPC   D2A67420  37.531  37.605   6.620
 5358POPC   C3A67421  37.886  37.666   6.942
 5358POPC   C4A67422  38.119  37.655   7.344
 5358POPC   C1B67423  37.738  38.108   6.060
 5358POPC   C2B67424  37.701  38.269   6.465
 5358POPC   C3B67425  37.758  38.187   6.880
 5358POPC   C4B67426  37.819  38.053   7.284
 5359POPC   NC367427  18.588  28.238   5.456
 5359POPC   PO467428  19.286  28.387   5.392
 5359POPC   GL167429  19.133  28.391   5.815
 5359POPC   GL267430  18.813  28.547   5.810
 5359POPC   C1A67431  19.180  28.475   6.256
 5359POPC   D2A67432  19.166  28.218   6.619
 5359POPC   C3A67433  19.161  28.489   6.963
 5359POPC   C4A67434  19.413  28.403   7.315
 5359POPC   C1B67435  18.721  28.279   6.169
 5359POPC   C2B67436  18.682  28.436   6.611
 5359POPC   C3B67437  18.711  28.250   7.000
 5359POPC   C4B67438  18.966  28.142   7.311
 5360POPC   NC367439  38.917   8.757   5.442
 5360POPC   PO467440  39.536   9.000   5.322
 5360POPC   GL167441  39.398   8.867   5.730
 5360POPC   GL267442  39.082   9.003   5.845
 5360POPC   C1A67443  39.422   8.931   6.179
 5360POPC   D2A67444  39.179   8.998   6.521
 5360POPC   C3A67445  39.221   8.669   6.765
 5360POPC   C4A67446  39.456   8.728   7.097
 5360POPC   C1B67447  38.787   9.092   6.186
 5360POPC   C2B67448  38.732   9.224   6.633
 5360POPC   C3B67449  39.025   9.160   6.988
 5360POPC   C4B67450  39.466   9.257   7.129
 5361POPC   NC367451   3.793   4.798   5.441
 5361POPC   PO467452   3.276   5.156   5.510
 5361POPC   GL167453   3.611   5.130   5.815
 5361POPC   GL267454   3.935   4.919   5.918
 5361POPC   C1A67455   3.477   5.084   6.213
 5361POPC   D2A67456   3.263   5.300   6.546
 5361POPC   C3A67457   3.424   5.137   6.910
 5361POPC   C4A67458   3.627   5.347   7.227
 5361POPC   C1B67459   3.965   5.299   6.169
 5361POPC   C2B67460   3.793   5.289   6.560
 5361POPC   C3B67461   3.908   4.989   6.850
 5361POPC   C4B67462   4.075   5.075   7.214
 5362POPC   NC367463  35.927  27.060   5.668
 5362POPC   PO467464  36.309  26.626   5.334
 5362POPC   GL167465  36.284  26.478   5.769
 5362POPC   GL267466  35.928  26.467   5.847
 5362POPC   C1A67467  36.383  26.546   6.217
 5362POPC   D2A67468  36.276  26.821   6.575
 5362POPC   C3A67469  36.250  26.689   6.994
 5362POPC   C4A67470  36.318  26.950   7.333
 5362POPC   C1B67471  35.859  26.646   6.259
 5362POPC   C2B67472  35.752  26.787   6.691
 5362POPC   C3B67473  35.909  27.059   7.026
 5362POPC   C4B67474  35.832  26.854   7.390
 5363POPC   NC367475  27.171  20.034   5.616
 5363POPC   PO467476  26.655  19.630   5.451
 5363POPC   GL167477  26.844  19.682   5.840
 5363POPC   GL267478  26.507  19.737   5.929
 5363POPC   C1A67479  26.854  19.704   6.304
 5363POPC   D2A67480  26.926  19.822   6.709
 5363POPC   C3A67481  26.931  19.477   6.994
 5363POPC   C4A67482  27.099  19.401   7.406
 5363POPC   C1B67483  26.438  19.426   6.210
 5363POPC   C2B67484  26.521  19.476   6.647
 5363POPC   C3B67485  26.482  19.762   6.982
 5363POPC   C4B67486  26.507  19.914   7.416
 5364POPC   NC367487  25.613  11.593   5.426
 5364POPC   PO467488  24.952  11.352   5.538
 5364POPC   GL167489  25.139  11.220   5.937
 5364POPC   GL267490  25.480  11.385   5.881
 5364POPC   C1A67491  25.183  11.429   6.330
 5364POPC   D2A67492  24.934  11.516   6.682
 5364POPC   C3A67493  25.049  11.139   6.884
 5364POPC   C4A67494  25.344  11.105   7.232
 5364POPC   C1B67495  25.509  11.782   6.123
 5364POPC   C2B67496  25.405  11.820   6.563
 5364POPC   C3B67497  25.402  11.536   6.909
 5364POPC   C4B67498  25.404  11.605   7.338
 5365POPC   NC367499   7.334  35.665   5.276
 5365POPC   PO467500   7.354  35.100   5.527
 5365POPC   GL167501   7.532  35.462   5.718
 5365POPC   GL267502   7.228  35.647   5.806
 5365POPC   C1A67503   7.689  35.452   6.143
 5365POPC   D2A67504   7.561  35.207   6.513
 5365POPC   C3A67505   7.663  35.385   6.905
 5365POPC   C4A67506   7.577  35.365   7.310
 5365POPC   C1B67507   7.160  35.355   6.181
 5365POPC   C2B67508   7.005  35.179   6.602
 5365POPC   C3B67509   7.135  35.338   7.013
 5365POPC   C4B67510   7.168  35.707   7.296
 5366POPC   NC367511  40.632   1.715   5.516
 5366POPC   PO467512  41.155   2.030   5.227
 5366POPC   GL167513  41.080   2.030   5.686
 5366POPC   GL267514  40.753   2.066   5.831
 5366POPC   C1A67515  41.125   1.919   6.135
 5366POPC   D2A67516  41.045   1.654   6.505
 5366POPC   C3A67517  40.946   1.895   6.880
 5366POPC   C4A67518  40.724   1.737   7.233
 5366POPC   C1B67519  40.629   1.876   6.209
 5366POPC   C2B67520  40.572   2.100   6.571
 5366POPC   C3B67521  40.399   2.072   6.991
 5366POPC   C4B67522  40.404   2.072   7.461
 5367POPC   NC367523   7.903   5.223   5.358
 5367POPC   PO467524   7.284   5.476   5.344
 5367POPC   GL167525   7.400   5.098   5.672
 5367POPC   GL267526   7.722   4.885   5.688
 5367POPC   C1A67527   7.353   4.980   6.138
 5367POPC   D2A67528   7.198   5.110   6.546
 5367POPC   C3A67529   7.418   5.008   6.883
 5367POPC   C4A67530   7.422   4.992   7.306
 5367POPC   C1B67531   7.769   5.224   6.012
 5367POPC   C2B67532   7.729   5.259   6.482
 5367POPC   C3B67533   7.770   5.366   6.929
 5367POPC   C4B67534   7.914   5.116   7.266
 5368POPC   NC367535  31.567  13.087   5.397
 5368POPC   PO467536  31.166  12.587   5.520
 5368POPC   GL167537  31.472  12.777   5.822
 5368POPC   GL267538  31.617  13.117   5.898
 5368POPC   C1A67539  31.561  12.713   6.231
 5368POPC   D2A67540  31.405  12.814   6.640
 5368POPC   C3A67541  31.506  12.704   7.055
 5368POPC   C4A67542  31.808  12.756   7.388
 5368POPC   C1B67543  31.315  13.164   6.220
 5368POPC   C2B67544  31.287  13.345   6.599
 5368POPC   C3B67545  31.418  13.207   6.974
 5368POPC   C4B67546  31.708  13.241   7.265
 5369POPC   NC367547  10.120  26.625   5.579
 5369POPC   PO467548  10.654  26.939   5.537
 5369POPC   GL167549  10.792  26.772   5.941
 5369POPC   GL267550  10.649  26.505   5.860
 5369POPC   C1A67551  10.819  26.624   6.370
 5369POPC   D2A67552  10.735  26.952   6.667
 5369POPC   C3A67553  10.762  26.883   7.113
 5369POPC   C4A67554  10.383  26.962   7.359
 5369POPC   C1B67555  10.348  26.591   6.200
 5369POPC   C2B67556  10.364  26.415   6.627
 5369POPC   C3B67557  10.358  26.551   7.061
 5369POPC   C4B67558  10.353  26.509   7.542
 5370POPC   NC367559  42.171  25.972   5.279
 5370POPC   PO467560  42.836  26.132   5.293
 5370POPC   GL167561  42.520  26.091   5.670
 5370POPC   GL267562  42.371  25.780   5.686
 5370POPC   C1A67563  42.290  26.102   6.087
 5370POPC   D2A67564  42.281  26.250   6.522
 5370POPC   C3A67565  42.125  26.037   6.853
 5370POPC   C4A67566  42.349  26.075   7.229
 5370POPC   C1B67567  42.024  25.681   5.972
 5370POPC   C2B67568  41.871  25.705   6.386
 5370POPC   C3B67569  41.944  25.545   6.790
 5370POPC   C4B67570  42.055  25.657   7.204
 5371POPC   NC367571  32.493   7.815   5.323
 5371POPC   PO467572  32.106   8.378   5.284
 5371POPC   GL167573  32.081   8.399   5.759
 5371POPC   GL267574  32.431   8.557   5.828
 5371POPC   C1A67575  32.050   8.119   6.157
 5371POPC   D2A67576  32.381   8.144   6.505
 5371POPC   C3A67577  32.304   8.161   6.935
 5371POPC   C4A67578  32.555   8.108   7.345
 5371POPC   C1B67579  32.257   8.580   6.254
 5371POPC   C2B67580  31.919   8.423   6.564
 5371POPC   C3B67581  31.957   8.515   6.999
 5371POPC   C4B67582  32.389   8.639   7.100
 5372POPC   NC367583  14.803  42.259   5.534
 5372POPC   PO467584  14.232  42.419   5.192
 5372POPC   GL167585  14.310  42.388   5.664
 5372POPC   GL267586  14.162  42.085   5.837
 5372POPC   C1A67587  14.479  42.394   6.115
 5372POPC   D2A67588  14.287  42.464   6.529
 5372POPC   C3A67589  14.482  42.397   6.968
 5372POPC   C4A67590  14.278  42.491   7.381
 5372POPC   C1B67591  14.207  41.994   6.299
 5372POPC   C2B67592  14.137  42.051   6.776
 5372POPC   C3B67593  14.190  41.968   7.233
 5372POPC   C4B67594  14.277  41.942   7.705
 5373POPC   NC367595   1.324  35.631   5.009
 5373POPC   PO467596   1.433  35.147   5.472
 5373POPC   GL167597   1.166  35.329   5.759
 5373POPC   GL267598   1.247  35.080   5.984
 5373POPC   C1A67599   1.044  35.496   6.180
 5373POPC   D2A67600   1.201  35.398   6.588
 5373POPC   C3A67601   1.211  35.575   7.008
 5373POPC   C4A67602   1.608  35.658   7.191
 5373POPC   C1B67603   0.939  34.964   6.287
 5373POPC   C2B67604   0.885  35.033   6.739
 5373POPC   C3B67605   0.912  35.077   7.185
 5373POPC   C4B67606   1.018  34.887   7.589
 5374POPC   NC367607   3.098  20.853   5.496
 5374POPC   PO467608   2.496  20.523   5.425
 5374POPC   GL167609   2.590  20.426   5.909
 5374POPC   GL267610   2.942  20.573   5.924
 5374POPC   C1A67611   2.716  20.401   6.387
 5374POPC   D2A67612   3.102  20.241   6.622
 5374POPC   C3A67613   3.014  20.344   7.044
 5374POPC   C4A67614   2.582  20.450   7.059
 5374POPC   C1B67615   2.778  20.879   6.258
 5374POPC   C2B67616   2.598  20.846   6.696
 5374POPC   C3B67617   2.775  20.918   7.126
 5374POPC   C4B67618   2.831  21.090   7.570
 5375POPC   NC367619   9.849   6.443   5.572
 5375POPC   PO467620   9.505   7.052   5.541
 5375POPC   GL167621   9.595   6.782   5.866
 5375POPC   GL267622   9.918   6.915   5.869
 5375POPC   C1A67623   9.742   6.522   6.226
 5375POPC   D2A67624   9.658   6.660   6.645
 5375POPC   C3A67625   9.518   6.416   6.988
 5375POPC   C4A67626   9.650   6.611   7.353
 5375POPC   C1B67627   9.889   7.016   6.333
 5375POPC   C2B67628  10.083   7.096   6.755
 5375POPC   C3B67629  10.083   6.942   7.187
 5375POPC   C4B67630   9.962   6.894   7.629
 5376POPC   NC367631  24.375  33.982   5.513
 5376POPC   PO467632  24.519  33.344   5.479
 5376POPC   GL167633  24.590  33.610   5.824
 5376POPC   GL267634  24.795  33.896   5.797
 5376POPC   C1A67635  24.562  33.522   6.261
 5376POPC   D2A67636  24.432  33.601   6.676
 5376POPC   C3A67637  24.605  33.911   6.913
 5376POPC   C4A67638  24.800  33.963   7.291
 5376POPC   C1B67639  24.663  34.021   6.227
 5376POPC   C2B67640  24.301  34.092   6.528
 5376POPC   C3B67641  24.131  34.176   6.948
 5376POPC   C4B67642  24.299  34.094   7.367
 5377POPC   NC367643  27.735  23.576   5.426
 5377POPC   PO467644  27.770  24.243   5.474
 5377POPC   GL167645  27.671  23.980   5.841
 5377POPC   GL267646  27.505  23.651   5.868
 5377POPC   C1A67647  27.801  23.834   6.261
 5377POPC   D2A67648  27.543  23.753   6.619
 5377POPC   C3A67649  27.661  23.565   6.996
 5377POPC   C4A67650  27.642  23.887   7.245
 5377POPC   C1B67651  27.239  23.799   6.193
 5377POPC   C2B67652  27.065  23.577   6.550
 5377POPC   C3B67653  27.160  23.643   6.967
 5377POPC   C4B67654  27.209  23.422   7.350
 5378POPC   NC367655  17.082   5.497   5.310
 5378POPC   PO467656  16.532   5.970   5.334
 5378POPC   GL167657  16.701   5.904   5.783
 5378POPC   GL267658  17.043   5.756   5.818
 5378POPC   C1A67659  16.788   5.869   6.255
 5378POPC   D2A67660  16.688   5.835   6.713
 5378POPC   C3A67661  16.598   5.930   7.158
 5378POPC   C4A67662  16.390   5.984   7.588
 5378POPC   C1B67663  17.173   5.525   6.240
 5378POPC   C2B67664  17.159   5.451   6.712
 5378POPC   C3B67665  17.084   5.707   7.108
 5378POPC   C4B67666  17.358   5.665   7.508
 5379POPC   NC367667  24.355  41.219   5.436
 5379POPC   PO467668  24.638  40.541   5.434
 5379POPC   GL167669  24.723  40.745   5.832
 5379POPC   GL267670  24.353  40.698   5.884
 5379POPC   C1A67671  24.663  40.696   6.298
 5379POPC   D2A67672  24.352  40.685   6.642
 5379POPC   C3A67673  24.571  40.680   7.014
 5379POPC   C4A67674  24.911  40.459   7.118
 5379POPC   C1B67675  24.210  40.980   6.221
 5379POPC   C2B67676  24.021  41.091   6.626
 5379POPC   C3B67677  24.178  41.015   7.044
 5379POPC   C4B67678  24.189  40.698   7.356
 5380POPC   NC367679  27.824  36.469   5.586
 5380POPC   PO467680  27.297  36.853   5.317
 5380POPC   GL167681  27.520  36.870   5.743
 5380POPC   GL267682  27.667  36.661   6.011
 5380POPC   C1A67683  27.690  37.141   6.077
 5380POPC   D2A67684  27.814  36.910   6.445
 5380POPC   C3A67685  27.694  36.994   6.874
 5380POPC   C4A67686  27.869  36.798   7.230
 5380POPC   C1B67687  27.256  36.623   6.208
 5380POPC   C2B67688  27.090  36.697   6.616
 5380POPC   C3B67689  27.216  36.594   7.046
 5380POPC   C4B67690  27.387  36.915   7.293
 5381POPC   NC367691  42.775  44.670   5.539
 5381POPC   PO467692  43.360  44.424   5.420
 5381POPC   GL167693  43.264  44.651   5.787
 5381POPC   GL267694  43.350   0.010   5.811
 5381POPC   C1A67695  43.141  44.681   6.203
 5381POPC   D2A67696  43.101  44.446   6.589
 5381POPC   C3A67697  42.841  44.604   6.895
 5381POPC   C4A67698  42.957  44.568   7.289
 5381POPC   C1B67699  43.510   0.059   6.225
 5381POPC   C2B67700  43.353  44.918   6.608
 5381POPC   C3B67701  43.356  44.717   6.988
 5381POPC   C4B67702  43.298  44.926   7.354
 5382POPC   NC367703  43.767  15.327   5.290
 5382POPC   PO467704  43.736  14.628   5.642
 5382POPC   GL167705  43.652  14.988   5.834
 5382POPC   GL267706  43.773  15.332   5.842
 5382POPC   C1A67707  43.596  15.059   6.263
 5382POPC   D2A67708  43.764  15.280   6.623
 5382POPC   C3A67709  43.591  15.125   7.030
 5382POPC   C4A67710  43.737  15.253   7.451
 5382POPC   C1B67711  44.087  15.146   6.173
 5382POPC   C2B67712  44.269  15.159   6.585
 5382POPC   C3B67713  44.123  15.193   7.009
 5382POPC   C4B67714  44.028  14.873   7.255
 5383POPC   NC367715   6.369  40.304   5.453
 5383POPC   PO467716   5.812  40.648   5.502
 5383POPC   GL167717   5.840  40.615   5.906
 5383POPC   GL267718   6.165  40.447   5.895
 5383POPC   C1A67719   5.705  40.768   6.313
 5383POPC   D2A67720   5.790  40.683   6.757
 5383POPC   C3A67721   5.585  40.856   7.097
 5383POPC   C4A67722   5.797  40.788   7.472
 5383POPC   C1B67723   6.223  40.705   6.256
 5383POPC   C2B67724   6.289  40.813   6.682
 5383POPC   C3B67725   6.201  40.736   7.134
 5383POPC   C4B67726   6.188  40.478   7.550
 5384POPC   NC367727  19.363  31.520   5.260
 5384POPC   PO467728  18.709  31.512   5.368
 5384POPC   GL167729  19.054  31.606   5.676
 5384POPC   GL267730  19.149  31.272   5.778
 5384POPC   C1A67731  19.215  31.689   6.115
 5384POPC   D2A67732  19.117  31.479   6.509
 5384POPC   C3A67733  19.104  31.683   6.911
 5384POPC   C4A67734  19.379  31.714   7.276
 5384POPC   C1B67735  19.415  31.227   6.137
 5384POPC   C2B67736  19.649  31.273   6.505
 5384POPC   C3B67737  19.449  31.306   6.900
 5384POPC   C4B67738  19.282  31.210   7.294
 5385POPC   NC367739  25.431  25.868   5.437
 5385POPC   PO467740  25.127  26.454   5.595
 5385POPC   GL167741  25.255  26.146   5.838
 5385POPC   GL267742  25.623  26.140   5.854
 5385POPC   C1A67743  25.141  26.063   6.239
 5385POPC   D2A67744  25.421  26.103   6.587
 5385POPC   C3A67745  25.223  26.166   6.995
 5385POPC   C4A67746  25.399  26.135   7.396
 5385POPC   C1B67747  25.557  25.779   6.151
 5385POPC   C2B67748  25.578  25.608   6.592
 5385POPC   C3B67749  25.601  25.777   7.051
 5385POPC   C4B67750  25.714  25.780   7.568
 5386POPC   NC367751  30.467   7.033   5.426
 5386POPC   PO467752  30.809   7.622   5.304
 5386POPC   GL167753  30.794   7.520   5.746
 5386POPC   GL267754  30.537   7.296   5.854
 5386POPC   C1A67755  30.648   7.712   6.142
 5386POPC   D2A67756  30.518   7.639   6.566
 5386POPC   C3A67757  30.774   7.700   6.941
 5386POPC   C4A67758  30.638   7.624   7.375
 5386POPC   C1B67759  30.794   7.218   6.210
 5386POPC   C2B67760  30.916   7.233   6.647
 5386POPC   C3B67761  30.742   7.188   7.057
 5386POPC   C4B67762  30.987   7.247   7.437
 5387POPC   NC367763  31.110  25.629   5.117
 5387POPC   PO467764  30.680  26.050   5.376
 5387POPC   GL167765  30.573  25.946   5.846
 5387POPC   GL267766  30.912  25.840   5.954
 5387POPC   C1A67767  30.585  25.884   6.327
 5387POPC   D2A67768  30.718  26.122   6.693
 5387POPC   C3A67769  30.576  26.050   7.112
 5387POPC   C4A67770  30.326  26.268   7.438
 5387POPC   C1B67771  31.063  26.195   6.195
 5387POPC   C2B67772  31.221  26.263   6.630
 5387POPC   C3B67773  31.116  26.254   7.138
 5387POPC   C4B67774  30.946  26.452   7.519
 5388POPC   NC367775  31.971   7.147   5.334
 5388POPC   PO467776  32.618   7.388   5.148
 5388POPC   GL167777  32.279   7.429   5.585
 5388POPC   GL267778  32.288   7.075   5.732
 5388POPC   C1A67779  32.087   7.432   6.053
 5388POPC   D2A67780  31.935   7.420   6.520
 5388POPC   C3A67781  32.161   7.649   6.854
 5388POPC   C4A67782  32.369   7.505   7.230
 5388POPC   C1B67783  32.323   6.955   6.165
 5388POPC   C2B67784  32.406   7.176   6.551
 5388POPC   C3B67785  32.675   7.320   6.872
 5388POPC   C4B67786  32.752   7.161   7.260
 5389POPC   NC367787  10.737  30.741   5.505
 5389POPC   PO467788  10.074  30.413   5.315
 5389POPC   GL167789  10.325  30.507   5.706
 5389POPC   GL267790  10.235  30.842   5.792
 5389POPC   C1A67791  10.559  30.542   6.153
 5389POPC   D2A67792  10.598  30.743   6.573
 5389POPC   C3A67793  10.331  30.637   6.926
 5389POPC   C4A67794  10.460  30.385   7.259
 5389POPC   C1B67795  10.359  31.020   6.211
 5389POPC   C2B67796  10.180  31.089   6.648
 5389POPC   C3B67797  10.375  31.132   7.059
 5389POPC   C4B67798  10.623  30.851   7.344
 5390POPC   NC367799  37.544  14.874   5.434
 5390POPC   PO467800  37.949  15.380   5.236
 5390POPC   GL167801  37.844  15.206   5.679
 5390POPC   GL267802  37.495  15.270   5.758
 5390POPC   C1A67803  37.734  15.026   6.114
 5390POPC   D2A67804  37.777  15.280   6.498
 5390POPC   C3A67805  37.804  15.137   6.909
 5390POPC   C4A67806  37.859  14.820   7.207
 5390POPC   C1B67807  37.428  15.484   6.163
 5390POPC   C2B67808  37.262  15.449   6.585
 5390POPC   C3B67809  37.244  15.604   7.006
 5390POPC   C4B67810  37.650  15.530   7.202
 5391POPC   NC367811  21.008  28.579   5.425
 5391POPC   PO467812  21.467  28.170   5.166
 5391POPC   GL167813  21.354  28.328   5.687
 5391POPC   GL267814  21.023  28.271   5.903
 5391POPC   C1A67815  21.368  28.529   6.151
 5391POPC   D2A67816  21.546  28.302   6.525
 5391POPC   C3A67817  21.479  28.416   6.960
 5391POPC   C4A67818  21.658  28.745   7.165
 5391POPC   C1B67819  20.979  28.081   6.329
 5391POPC   C2B67820  21.128  28.086   6.771
 5391POPC   C3B67821  21.010  28.281   7.177
 5391POPC   C4B67822  21.099  28.127   7.615
 5392POPC   NC367823  28.598  27.243   5.222
 5392POPC   PO467824  28.232  27.850   5.405
 5392POPC   GL167825  28.261  27.619   5.789
 5392POPC   GL267826  28.227  27.255   5.730
 5392POPC   C1A67827  28.267  27.736   6.249
 5392POPC   D2A67828  28.353  27.793   6.713
 5392POPC   C3A67829  28.593  27.551   7.046
 5392POPC   C4A67830  28.333  27.602   7.391
 5392POPC   C1B67831  27.968  27.320   6.121
 5392POPC   C2B67832  28.190  27.307   6.520
 5392POPC   C3B67833  28.215  27.238   6.938
 5392POPC   C4B67834  28.353  27.018   7.273
 5393POPC   NC367835  43.562  39.786   5.525
 5393POPC   PO467836  43.110  40.297   5.472
 5393POPC   GL167837  43.048  40.115   5.833
 5393POPC   GL267838  43.378  40.083   5.897
 5393POPC   C1A67839  42.986  40.300   6.230
 5393POPC   D2A67840  43.141  40.321   6.639
 5393POPC   C3A67841  42.927  40.129   6.963
 5393POPC   C4A67842  42.828  40.009   7.368
 5393POPC   C1B67843  43.408  39.995   6.298
 5393POPC   C2B67844  43.631  40.165   6.653
 5393POPC   C3B67845  43.421  40.033   7.020
 5393POPC   C4B67846  43.320  40.079   7.471
 5394POPC   NC367847  34.159  29.999   5.395
 5394POPC   PO467848  33.508  30.019   5.336
 5394POPC   GL167849  33.770  30.167   5.714
 5394POPC   GL267850  33.950  29.839   5.850
 5394POPC   C1A67851  33.910  30.220   6.175
 5394POPC   D2A67852  33.917  29.881   6.496
 5394POPC   C3A67853  33.803  29.991   6.896
 5394POPC   C4A67854  33.811  29.806   7.333
 5394POPC   C1B67855  34.126  29.545   6.162
 5394POPC   C2B67856  34.243  29.480   6.596
 5394POPC   C3B67857  34.266  29.744   6.958
 5394POPC   C4B67858  34.165  30.135   7.199
 5395POPC   NC367859  39.417  39.509   5.159
 5395POPC   PO467860  39.928  40.026   5.356
 5395POPC   GL167861  39.963  40.093   5.787
 5395POPC   GL267862  39.716  40.380   5.787
 5395POPC   C1A67863  40.113  39.858   6.183
 5395POPC   D2A67864  40.367  39.735   6.564
 5395POPC   C3A67865  40.202  39.869   6.980
 5395POPC   C4A67866  40.184  40.317   7.074
 5395POPC   C1B67867  39.903  40.348   6.217
 5395POPC   C2B67868  40.008  40.170   6.601
 5395POPC   C3B67869  39.739  40.070   6.939
 5395POPC   C4B67870  39.554  40.114   7.302
 5396POPC   NC367871  40.565   7.704   5.313
 5396POPC   PO467872  41.146   7.352   5.365
 5396POPC   GL167873  40.972   7.599   5.697
 5396POPC   GL267874  40.635   7.508   5.783
 5396POPC   C1A67875  40.948   7.788   6.107
 5396POPC   D2A67876  40.796   7.509   6.444
 5396POPC   C3A67877  40.712   7.595   6.876
 5396POPC   C4A67878  40.647   7.242   7.153
 5396POPC   C1B67879  40.449   7.715   6.124
 5396POPC   C2B67880  40.320   7.802   6.548
 5396POPC   C3B67881  39.972   7.630   6.792
 5396POPC   C4B67882  40.245   7.552   7.112
 5397POPC   NC367883  36.248  36.840   5.187
 5397POPC   PO467884  35.729  36.614   5.553
 5397POPC   GL167885  35.966  36.775   5.878
 5397POPC   GL267886  36.268  36.819   5.708
 5397POPC   C1A67887  35.950  36.924   6.324
 5397POPC   D2A67888  36.005  36.828   6.764
 5397POPC   C3A67889  35.795  37.105   7.051
 5397POPC   C4A67890  36.028  37.402   7.263
 5397POPC   C1B67891  36.405  36.729   6.147
 5397POPC   C2B67892  36.418  37.040   6.498
 5397POPC   C3B67893  36.481  37.024   6.920
 5397POPC   C4B67894  36.211  36.856   7.233
 5398POPC   NC367895  28.493   3.126   5.437
 5398POPC   PO467896  27.973   2.677   5.353
 5398POPC   GL167897  28.136   2.898   5.740
 5398POPC   GL267898  28.290   2.600   5.915
 5398POPC   C1A67899  28.267   3.028   6.181
 5398POPC   D2A67900  28.358   2.786   6.561
 5398POPC   C3A67901  28.618   2.929   6.923
 5398POPC   C4A67902  28.905   3.194   7.167
 5398POPC   C1B67903  27.986   2.530   6.274
 5398POPC   C2B67904  27.935   2.540   6.725
 5398POPC   C3B67905  28.331   2.468   6.948
 5398POPC   C4B67906  28.501   2.178   7.224
 5399POPC   NC367907   4.755   6.654   5.339
 5399POPC   PO467908   5.357   6.735   5.584
 5399POPC   GL167909   4.989   6.881   5.823
 5399POPC   GL267910   4.693   6.635   5.861
 5399POPC   C1A67911   4.861   6.957   6.261
 5399POPC   D2A67912   4.992   6.798   6.654
 5399POPC   C3A67913   4.823   6.768   7.061
 5399POPC   C4A67914   4.997   6.963   7.421
 5399POPC   C1B67915   4.844   6.449   6.263
 5399POPC   C2B67916   4.647   6.408   6.668
 5399POPC   C3B67917   4.726   6.283   7.086
 5399POPC   C4B67918   4.959   6.436   7.434
 5400POPC   NC367919  32.533  38.400   5.693
 5400POPC   PO467920  33.176  38.509   5.430
 5400POPC   GL167921  32.980  38.651   5.805
 5400POPC   GL267922  33.237  38.857   5.832
 5400POPC   C1A67923  32.887  38.531   6.236
 5400POPC   D2A67924  33.082  38.395   6.615
 5400POPC   C3A67925  32.812  38.491   6.944
 5400POPC   C4A67926  32.640  38.321   7.275
 5400POPC   C1B67927  33.378  38.698   6.205
 5400POPC   C2B67928  33.330  38.850   6.639
 5400POPC   C3B67929  33.286  38.645   7.029
 5400POPC   C4B67930  33.159  38.243   7.235
 5401POPC   NC367931  38.179  35.840   5.487
 5401POPC   PO467932  37.678  35.372   5.495
 5401POPC   GL167933  37.703  35.426   5.918
 5401POPC   GL267934  37.765  35.786   5.831
 5401POPC   C1A67935  37.561  35.249   6.354
 5401POPC   D2A67936  37.279  35.204   6.750
 5401POPC   C3A67937  37.523  35.287   7.134
 5401POPC   C4A67938  37.972  35.345   7.134
 5401POPC   C1B67939  37.673  35.791   6.277
 5401POPC   C2B67940  37.686  35.621   6.720
 5401POPC   C3B67941  37.687  35.828   7.116
 5401POPC   C4B67942  38.075  35.873   7.353
 5402POPC   NC367943  40.325  31.091   5.590
 5402POPC   PO467944  40.076  31.686   5.449
 5402POPC   GL167945  40.083  31.492   5.859
 5402POPC   GL267946  39.862  31.207   5.773
 5402POPC   C1A67947  39.996  31.698   6.286
 5402POPC   D2A67948  39.750  31.765   6.710
 5402POPC   C3A67949  40.047  31.721   7.039
 5402POPC   C4A67950  40.269  31.386   7.226
 5402POPC   C1B67951  39.764  31.266   6.190
 5402POPC   C2B67952  40.003  31.288   6.599
 5402POPC   C3B67953  39.817  31.266   7.016
 5402POPC   C4B67954  39.759  31.117   7.416
 5403POPC   NC367955  12.350  24.386   5.400
 5403POPC   PO467956  11.740  24.596   5.388
 5403POPC   GL167957  11.926  24.600   5.785
 5403POPC   GL267958  12.059  24.262   5.831
 5403POPC   C1A67959  11.749  24.514   6.190
 5403POPC   D2A67960  11.801  24.353   6.585
 5403POPC   C3A67961  11.917  24.633   6.888
 5403POPC   C4A67962  11.951  24.480   7.273
 5403POPC   C1B67963  12.267  24.319   6.228
 5403POPC   C2B67964  12.317  24.441   6.653
 5403POPC   C3B67965  12.314  24.204   7.049
 5403POPC   C4B67966  12.317  24.178   7.524
 5404POPC   NC367967   4.966  14.325   5.378
 5404POPC   PO467968   5.491  14.308   5.756
 5404POPC   GL167969   5.056  14.381   5.891
 5404POPC   GL267970   4.927  14.682   5.733
 5404POPC   C1A67971   4.985  14.398   6.354
 5404POPC   D2A67972   5.279  14.139   6.640
 5404POPC   C3A67973   5.260  14.210   7.084
 5404POPC   C4A67974   4.864  14.392   7.227
 5404POPC   C1B67975   5.216  14.827   6.071
 5404POPC   C2B67976   5.352  14.755   6.489
 5404POPC   C3B67977   5.139  14.637   6.846
 5404POPC   C4B67978   5.297  14.705   7.257
 5405POPC   NC367979   0.900   6.053   5.409
 5405POPC   PO467980   1.350   5.587   5.383
 5405POPC   GL167981   1.339   5.780   5.808
 5405POPC   GL267982   1.571   6.047   5.888
 5405POPC   C1A67983   1.196   5.832   6.245
 5405POPC   D2A67984   0.950   5.677   6.594
 5405POPC   C3A67985   1.092   5.829   6.951
 5405POPC   C4A67986   1.111   6.211   7.161
 5405POPC   C1B67987   1.323   6.312   6.213
 5405POPC   C2B67988   1.291   6.188   6.657
 5405POPC   C3B67989   1.564   6.030   7.022
 5405POPC   C4B67990   1.552   6.289   7.394
 5406POPC   NC367991  26.348  38.867   5.590
 5406POPC   PO467992  26.603  38.306   5.360
 5406POPC   GL167993  26.251  38.364   5.743
 5406POPC   GL267994  26.402  38.571   5.999
 5406POPC   C1A67995  25.942  38.556   6.133
 5406POPC   D2A67996  26.174  38.581   6.553
 5406POPC   C3A67997  26.210  38.765   6.962
 5406POPC   C4A67998  26.041  38.818   7.377
 5406POPC   C1B67999  26.320  38.186   6.244
 5406POPC   C2B68000  26.302  38.071   6.680
 5406POPC   C3B68001  26.566  38.192   7.034
 5406POPC   C4B68002  26.285  38.379   7.331
 5407POPC   NC368003  16.169  28.870   5.397
 5407POPC   PO468004  15.596  29.258   5.428
 5407POPC   GL168005  15.880  29.117   5.768
 5407POPC   GL268006  16.123  29.375   5.792
 5407POPC   C1A68007  16.046  29.148   6.226
 5407POPC   D2A68008  15.832  29.255   6.593
 5407POPC   C3A68009  16.072  29.219   6.934
 5407POPC   C4A68010  16.093  29.012   7.301
 5407POPC   C1B68011  15.776  29.565   6.058
 5407POPC   C2B68012  15.801  29.759   6.480
 5407POPC   C3B68013  15.816  29.669   6.922
 5407POPC   C4B68014  15.934  29.507   7.338
 5408POPC   NC368015  34.864  35.922   5.410
 5408POPC   PO468016  34.555  35.297   5.506
 5408POPC   GL168017  34.474  35.392   5.898
 5408POPC   GL268018  34.562  35.744   5.844
 5408POPC   C1A68019  34.506  35.217   6.319
 5408POPC   D2A68020  34.451  35.407   6.737
 5408POPC   C3A68021  34.654  35.193   7.074
 5408POPC   C4A68022  34.601  35.116   7.559
 5408POPC   C1B68023  34.554  35.751   6.310
 5408POPC   C2B68024  34.862  35.779   6.642
 5408POPC   C3B68025  34.716  35.726   7.057
 5408POPC   C4B68026  34.342  35.568   7.258
 5409POPC   NC368027  26.502  22.418   5.502
 5409POPC   PO468028  26.654  21.815   5.470
 5409POPC   GL168029  26.773  22.097   5.836
 5409POPC   GL268030  27.002  22.372   5.806
 5409POPC   C1A68031  26.652  22.402   6.180
 5409POPC   D2A68032  26.794  22.451   6.612
 5409POPC   C3A68033  26.560  22.212   6.872
 5409POPC   C4A68034  26.646  21.971   7.099
 5409POPC   C1B68035  27.139  22.272   6.251
 5409POPC   C2B68036  27.335  22.234   6.657
 5409POPC   C3B68037  27.135  22.190   7.050
 5409POPC   C4B68038  27.266  22.321   7.466
 5410POPC   NC368039  28.995  12.601   5.287
 5410POPC   PO468040  29.630  12.635   5.512
 5410POPC   GL168041  29.211  12.610   5.774
 5410POPC   GL268042  28.872  12.438   5.764
 5410POPC   C1A68043  28.970  12.858   6.134
 5410POPC   D2A68044  29.147  12.990   6.569
 5410POPC   C3A68045  29.020  12.934   7.033
 5410POPC   C4A68046  29.021  12.935   7.511
 5410POPC   C1B68047  29.045  12.377   6.194
 5410POPC   C2B68048  29.245  12.485   6.601
 5410POPC   C3B68049  29.179  12.457   7.040
 5410POPC   C4B68050  29.007  12.445   7.457
 5411POPC   NC368051   0.925   9.706   5.376
 5411POPC   PO468052   1.563   9.688   5.621
 5411POPC   GL168053   1.127   9.680   5.847
 5411POPC   GL268054   0.767   9.515   5.810
 5411POPC   C1A68055   0.860   9.862   6.183
 5411POPC   D2A68056   0.889  10.117   6.556
 5411POPC   C3A68057   0.904   9.977   6.970
 5411POPC   C4A68058   1.322   9.939   7.143
 5411POPC   C1B68059   1.013   9.338   6.197
 5411POPC   C2B68060   1.208   9.444   6.577
 5411POPC   C3B68061   1.087   9.504   7.000
 5411POPC   C4B68062   1.262   9.497   7.414
 5412POPC   NC368063  19.897  40.472   5.432
 5412POPC   PO468064  20.280  40.888   5.147
 5412POPC   GL168065  19.993  40.914   5.647
 5412POPC   GL268066  19.845  40.619   5.924
 5412POPC   C1A68067  20.049  41.007   6.136
 5412POPC   D2A68068  20.013  40.682   6.492
 5412POPC   C3A68069  19.970  40.816   6.938
 5412POPC   C4A68070  20.095  41.008   7.331
 5412POPC   C1B68071  19.632  40.386   6.296
 5412POPC   C2B68072  19.586  40.280   6.772
 5412POPC   C3B68073  19.539  40.602   7.135
 5412POPC   C4B68074  19.449  40.589   7.596
 5413POPC   NC368075  21.593  24.216   5.335
 5413POPC   PO468076  21.030  24.510   5.474
 5413POPC   GL168077  21.373  24.551   5.713
 5413POPC   GL268078  21.377  24.225   5.806
 5413POPC   C1A68079  21.371  24.648   6.149
 5413POPC   D2A68080  21.622  24.600   6.517
 5413POPC   C3A68081  21.365  24.542   6.859
 5413POPC   C4A68082  21.261  24.736   7.219
 5413POPC   C1B68083  21.720  24.253   6.116
 5413POPC   C2B68084  21.871  24.155   6.537
 5413POPC   C3B68085  21.808  24.333   6.939
 5413POPC   C4B68086  21.943  24.234   7.313
 5414POPC   NC368087  26.979  31.716   5.413
 5414POPC   PO468088  26.367  31.601   5.167
 5414POPC   GL168089  26.616  31.592   5.712
 5414POPC   GL268090  26.871  31.362   5.770
 5414POPC   C1A68091  26.590  31.516   6.167
 5414POPC   D2A68092  26.847  31.616   6.542
 5414POPC   C3A68093  26.793  31.482   6.976
 5414POPC   C4A68094  26.848  31.761   7.327
 5414POPC   C1B68095  27.006  31.203   6.204
 5414POPC   C2B68096  27.173  31.223   6.651
 5414POPC   C3B68097  27.034  31.033   7.063
 5414POPC   C4B68098  26.875  31.251   7.450
 5415POPC   NC368099  26.555  43.346   5.513
 5415POPC   PO468100  26.954  42.832   5.344
 5415POPC   GL168101  26.963  43.075   5.735
 5415POPC   GL268102  26.801  42.862   5.964
 5415POPC   C1A68103  27.009  43.301   6.152
 5415POPC   D2A68104  26.859  43.291   6.588
 5415POPC   C3A68105  27.092  43.332   6.981
 5415POPC   C4A68106  27.218  42.978   7.224
 5415POPC   C1B68107  26.541  42.873   6.351
 5415POPC   C2B68108  26.439  43.085   6.745
 5415POPC   C3B68109  26.575  43.221   7.109
 5415POPC   C4B68110  26.525  42.862   7.376
 5416POPC   NC368111  26.372  41.655   5.595
 5416POPC   PO468112  25.791  41.635   5.340
 5416POPC   GL168113  25.898  41.679   5.760
 5416POPC   GL268114  26.005  41.356   5.869
 5416POPC   C1A68115  26.080  41.827   6.185
 5416POPC   D2A68116  26.055  41.804   6.641
 5416POPC   C3A68117  26.354  41.640   6.935
 5416POPC   C4A68118  26.150  41.579   7.312
 5416POPC   C1B68119  26.261  41.338   6.229
 5416POPC   C2B68120  26.137  41.296   6.617
 5416POPC   C3B68121  26.158  41.159   6.997
 5416POPC   C4B68122  26.047  40.948   7.332
 5417POPC   NC368123   9.418  31.432   5.439
 5417POPC   PO468124  10.042  31.153   5.278
 5417POPC   GL168125   9.919  31.297   5.731
 5417POPC   GL268126   9.572  31.330   5.893
 5417POPC   C1A68127   9.959  31.330   6.220
 5417POPC   D2A68128   9.846  31.515   6.618
 5417POPC   C3A68129   9.885  31.374   7.046
 5417POPC   C4A68130   9.560  31.592   7.290
 5417POPC   C1B68131   9.476  31.079   6.234
 5417POPC   C2B68132   9.600  31.062   6.645
 5417POPC   C3B68133   9.411  31.215   6.989
 5417POPC   C4B68134   9.187  31.235   7.347
 5418POPC   NC368135  34.862   3.788   5.213
 5418POPC   PO468136  34.627   3.256   5.349
 5418POPC   GL168137  34.556   3.540   5.690
 5418POPC   GL268138  34.197   3.588   5.804
 5418POPC   C1A68139  34.586   3.680   6.115
 5418POPC   D2A68140  34.388   3.817   6.497
 5418POPC   C3A68141  34.746   3.795   6.764
 5418POPC   C4A68142  34.760   3.563   7.113
 5418POPC   C1B68143  34.257   3.304   6.171
 5418POPC   C2B68144  34.342   3.323   6.616
 5418POPC   C3B68145  34.166   3.606   6.928
 5418POPC   C4B68146  34.289   3.784   7.307
 5419POPC   NC368147  29.720  34.443   5.372
 5419POPC   PO468148  30.051  35.002   5.451
 5419POPC   GL168149  29.906  34.703   5.754
 5419POPC   GL268150  29.614  34.866   5.707
 5419POPC   C1A68151  29.796  34.434   6.124
 5419POPC   D2A68152  29.873  34.612   6.543
 5419POPC   C3A68153  29.852  34.396   6.929
 5419POPC   C4A68154  30.203  34.406   7.210
 5419POPC   C1B68155  29.650  34.933   6.145
 5419POPC   C2B68156  29.412  34.798   6.515
 5419POPC   C3B68157  29.571  34.859   6.924
 5419POPC   C4B68158  29.898  34.825   7.225
 5420POPC   NC368159  30.452  11.615   5.488
 5420POPC   PO468160  30.542  12.269   5.373
 5420POPC   GL168161  30.727  12.232   5.832
 5420POPC   GL268162  30.775  11.889   5.795
 5420POPC   C1A68163  30.812  12.309   6.301
 5420POPC   D2A68164  30.918  12.455   6.744
 5420POPC   C3A68165  30.636  12.282   7.080
 5420POPC   C4A68166  30.408  11.882   7.183
 5420POPC   C1B68167  31.020  11.792   6.125
 5420POPC   C2B68168  31.147  11.880   6.523
 5420POPC   C3B68169  30.929  11.854   6.889
 5420POPC   C4B68170  30.926  11.924   7.286
 5421POPC   NC368171  19.428  23.263   5.318
 5421POPC   PO468172  19.768  22.747   5.464
 5421POPC   GL168173  19.825  22.845   5.908
 5421POPC   GL268174  19.932  23.168   6.027
 5421POPC   C1A68175  19.771  22.807   6.359
 5421POPC   D2A68176  19.865  23.041   6.701
 5421POPC   C3A68177  19.908  22.757   6.988
 5421POPC   C4A68178  20.117  22.824   7.322
 5421POPC   C1B68179  19.497  23.188   6.147
 5421POPC   C2B68180  19.330  23.049   6.560
 5421POPC   C3B68181  19.417  23.052   7.003
 5421POPC   C4B68182  19.732  23.193   7.236
 5422POPC   NC368183  15.544   7.090   5.444
 5422POPC   PO468184  15.992   7.571   5.308
 5422POPC   GL168185  15.969   7.384   5.742
 5422POPC   GL268186  15.771   7.134   5.904
 5422POPC   C1A68187  16.105   7.389   6.192
 5422POPC   D2A68188  15.912   7.591   6.559
 5422POPC   C3A68189  16.043   7.463   6.943
 5422POPC   C4A68190  16.082   7.305   7.323
 5422POPC   C1B68191  15.609   7.259   6.305
 5422POPC   C2B68192  15.636   7.193   6.765
 5422POPC   C3B68193  15.596   7.380   7.179
 5422POPC   C4B68194  15.659   7.449   7.620
 5423POPC   NC368195   0.807   3.395   5.446
 5423POPC   PO468196   1.500   3.343   5.536
 5423POPC   GL168197   1.344   3.490   5.896
 5423POPC   GL268198   0.994   3.433   5.920
 5423POPC   C1A68199   1.310   3.477   6.319
 5423POPC   D2A68200   1.078   3.578   6.665
 5423POPC   C3A68201   1.292   3.414   6.999
 5423POPC   C4A68202   1.073   3.415   7.374
 5423POPC   C1B68203   0.914   3.782   6.211
 5423POPC   C2B68204   1.093   4.082   6.508
 5423POPC   C3B68205   1.332   3.989   6.887
 5423POPC   C4B68206   1.316   3.854   7.306
 5424POPC   NC368207  21.765  44.706   5.385
 5424POPC   PO468208  21.190  44.353   5.362
 5424POPC   GL168209  21.229  44.544   5.771
 5424POPC   GL268210  21.484  44.792   5.830
 5424POPC   C1A68211  21.236  44.504   6.233
 5424POPC   D2A68212  21.427  44.646   6.624
 5424POPC   C3A68213  21.171  44.845   6.948
 5424POPC   C4A68214  21.066  44.615   7.333
 5424POPC   C1B68215  21.829  44.973   6.095
 5424POPC   C2B68216  21.979  44.935   6.529
 5424POPC   C3B68217  21.853  44.778   6.915
 5424POPC   C4B68218  21.560  44.653   7.209
 5425POPC   NC368219   0.397  43.135   5.434
 5425POPC   PO468220   0.954  42.709   5.455
 5425POPC   GL168221   0.636  42.837   5.803
 5425POPC   GL268222   0.408  43.145   5.929
 5425POPC   C1A68223   0.452  42.760   6.233
 5425POPC   D2A68224   0.328  42.933   6.624
 5425POPC   C3A68225   0.439  42.777   7.039
 5425POPC   C4A68226   0.625  43.000   7.407
 5425POPC   C1B68227   0.052  43.125   6.218
 5425POPC   C2B68228  44.840  42.960   6.582
 5425POPC   C3B68229   0.001  43.118   6.985
 5425POPC   C4B68230   0.084  42.975   7.395
 5426POPC   NC368231   3.802  27.797   5.027
 5426POPC   PO468232   3.474  27.919   5.601
 5426POPC   GL168233   3.453  27.552   5.839
 5426POPC   GL268234   3.750  27.375   5.719
 5426POPC   C1A68235   3.511  27.431   6.268
 5426POPC   D2A68236   3.650  27.709   6.598
 5426POPC   C3A68237   3.458  27.705   7.005
 5426POPC   C4A68238   3.328  27.792   7.445
 5426POPC   C1B68239   3.957  27.259   6.069
 5426POPC   C2B68240   3.982  27.328   6.523
 5426POPC   C3B68241   3.857  27.346   6.970
 5426POPC   C4B68242   3.547  27.322   7.307
 5427POPC   NC368243  41.475   5.504   5.334
 5427POPC   PO468244  42.109   5.181   5.247
 5427POPC   GL168245  41.781   5.131   5.605
 5427POPC   GL268246  41.864   5.379   5.825
 5427POPC   C1A68247  41.630   4.997   6.083
 5427POPC   D2A68248  41.389   5.116   6.510
 5427POPC   C3A68249  41.502   4.995   6.950
 5427POPC   C4A68250  41.356   5.158   7.357
 5427POPC   C1B68251  41.581   5.495   6.199
 5427POPC   C2B68252  41.573   5.648   6.647
 5427POPC   C3B68253  41.560   5.574   7.110
 5427POPC   C4B68254  41.729   5.469   7.570
 5428POPC   NC368255  37.320  18.926   5.595
 5428POPC   PO468256  37.939  18.804   5.398
 5428POPC   GL168257  37.891  19.088   5.752
 5428POPC   GL268258  37.813  19.469   5.709
 5428POPC   C1A68259  37.806  19.107   6.168
 5428POPC   D2A68260  37.869  18.856   6.524
 5428POPC   C3A68261  37.939  19.081   6.914
 5428POPC   C4A68262  37.799  18.925   7.299
 5428POPC   C1B68263  37.522  19.529   6.090
 5428POPC   C2B68264  37.557  19.373   6.532
 5428POPC   C3B68265  37.400  19.523   6.908
 5428POPC   C4B68266  37.617  19.399   7.236
 5429POPC   NC368267  11.794   8.750   5.420
 5429POPC   PO468268  12.298   9.145   5.226
 5429POPC   GL168269  12.293   8.969   5.715
 5429POPC   GL268270  12.023   8.852   5.853
 5429POPC   C1A68271  12.258   9.119   6.231
 5429POPC   D2A68272  12.133   9.131   6.664
 5429POPC   C3A68273  12.187   9.303   7.088
 5429POPC   C4A68274  12.052   8.889   7.210
 5429POPC   C1B68275  11.961   8.645   6.220
 5429POPC   C2B68276  12.163   8.627   6.603
 5429POPC   C3B68277  12.256   8.468   7.005
 5429POPC   C4B68278  12.278   8.547   7.489
 5430POPC   NC368279  37.962   7.260   5.281
 5430POPC   PO468280  38.558   7.636   5.412
 5430POPC   GL168281  38.389   7.541   5.792
 5430POPC   GL268282  38.303   7.166   5.841
 5430POPC   C1A68283  38.534   7.692   6.198
 5430POPC   D2A68284  38.439   7.474   6.577
 5430POPC   C3A68285  38.605   7.502   6.983
 5430POPC   C4A68286  38.779   7.466   7.386
 5430POPC   C1B68287  38.006   6.960   6.145
 5430POPC   C2B68288  38.154   6.974   6.580
 5430POPC   C3B68289  38.009   7.103   6.998
 5430POPC   C4B68290  38.316   7.221   7.310
 5431POPC   NC368291  32.916  17.817   5.515
 5431POPC   PO468292  33.153  17.194   5.609
 5431POPC   GL168293  33.020  17.452   5.911
 5431POPC   GL268294  33.214  17.756   5.931
 5431POPC   C1A68295  33.018  17.477   6.354
 5431POPC   D2A68296  33.206  17.487   6.713
 5431POPC   C3A68297  32.974  17.276   6.979
 5431POPC   C4A68298  33.102  17.372   7.380
 5431POPC   C1B68299  32.886  17.936   6.220
 5431POPC   C2B68300  32.776  17.867   6.669
 5431POPC   C3B68301  32.974  17.786   7.090
 5431POPC   C4B68302  32.720  17.695   7.474
 5432POPC   NC368303  39.966  40.738   5.439
 5432POPC   PO468304  40.127  41.349   5.598
 5432POPC   GL168305  40.310  40.979   5.796
 5432POPC   GL268306  40.141  40.656   5.895
 5432POPC   C1A68307  40.490  40.873   6.180
 5432POPC   D2A68308  40.260  40.631   6.470
 5432POPC   C3A68309  40.333  40.766   6.858
 5432POPC   C4A68310  40.125  40.842   7.205
 5432POPC   C1B68311  39.919  40.921   6.190
 5432POPC   C2B68312  39.736  40.848   6.604
 5432POPC   C3B68313  39.778  40.583   6.960
 5432POPC   C4B68314  39.836  40.510   7.431
 5433POPC   NC368315  18.023  12.343   5.592
 5433POPC   PO468316  18.404  11.820   5.444
 5433POPC   GL168317  18.223  11.899   5.835
 5433POPC   GL268318  17.857  11.859   5.777
 5433POPC   C1A68319  18.416  12.148   6.189
 5433POPC   D2A68320  18.424  12.367   6.591
 5433POPC   C3A68321  18.540  12.105   6.910
 5433POPC   C4A68322  18.466  12.260   7.311
 5433POPC   C1B68323  17.897  11.998   6.217
 5433POPC   C2B68324  18.089  11.947   6.623
 5433POPC   C3B68325  18.053  12.248   6.947
 5433POPC   C4B68326  17.940  12.191   7.346
 5434POPC   NC368327  43.410   7.683   5.393
 5434POPC   PO468328  42.848   7.436   5.074
 5434POPC   GL168329  42.978   7.412   5.553
 5434POPC   GL268330  43.131   7.079   5.707
 5434POPC   C1A68331  42.887   7.483   6.037
 5434POPC   D2A68332  42.768   7.592   6.498
 5434POPC   C3A68333  43.117   7.644   6.808
 5434POPC   C4A68334  43.242   7.495   7.238
 5434POPC   C1B68335  43.306   7.143   6.147
 5434POPC   C2B68336  43.409   7.248   6.601
 5434POPC   C3B68337  43.447   7.084   7.033
 5434POPC   C4B68338  43.570   7.012   7.492
 5435POPC   NC368339  12.450  29.259   5.500
 5435POPC   PO468340  13.071  29.438   5.499
 5435POPC   GL168341  12.906  29.170   5.821
 5435POPC   GL268342  12.732  28.856   5.740
 5435POPC   C1A68343  12.652  29.283   6.179
 5435POPC   D2A68344  12.530  29.117   6.571
 5435POPC   C3A68345  12.620  29.320   6.989
 5435POPC   C4A68346  13.014  29.293   7.267
 5435POPC   C1B68347  12.519  28.795   6.140
 5435POPC   C2B68348  12.336  28.635   6.532
 5435POPC   C3B68349  12.613  28.674   6.870
 5435POPC   C4B68350  12.709  28.885   7.241
 5436POPC   NC368351  25.342  41.520   5.320
 5436POPC   PO468352  24.693  41.540   5.433
 5436POPC   GL168353  25.062  41.369   5.733
 5436POPC   GL268354  25.474  41.361   5.783
 5436POPC   C1A68355  25.144  41.446   6.178
 5436POPC   D2A68356  25.213  41.773   6.504
 5436POPC   C3A68357  25.245  41.634   6.940
 5436POPC   C4A68358  25.050  41.598   7.349
 5436POPC   C1B68359  25.633  41.563   6.170
 5436POPC   C2B68360  25.647  41.460   6.589
 5436POPC   C3B68361  25.764  41.524   6.993
 5436POPC   C4B68362  25.562  41.677   7.379
 5437POPC   NC368363  19.209  36.483   5.534
 5437POPC   PO468364  19.061  35.818   5.335
 5437POPC   GL168365  18.920  36.045   5.759
 5437POPC   GL268366  19.182  36.215   5.975
 5437POPC   C1A68367  18.755  36.082   6.239
 5437POPC   D2A68368  18.907  36.208   6.717
 5437POPC   C3A68369  18.819  35.957   7.121
 5437POPC   C4A68370  18.728  35.983   7.582
 5437POPC   C1B68371  19.227  35.991   6.378
 5437POPC   C2B68372  19.309  35.660   6.634
 5437POPC   C3B68373  19.420  35.739   7.038
 5437POPC   C4B68374  19.261  36.020   7.379
 5438POPC   NC368375   5.249  39.565   5.336
 5438POPC   PO468376   4.946  40.179   5.324
 5438POPC   GL168377   4.967  40.186   5.801
 5438POPC   GL268378   4.844  40.509   5.927
 5438POPC   C1A68379   5.078  40.031   6.234
 5438POPC   D2A68380   5.142  40.096   6.694
 5438POPC   C3A68381   5.198  39.748   6.939
 5438POPC   C4A68382   5.156  39.771   7.399
 5438POPC   C1B68383   4.727  40.385   6.355
 5438POPC   C2B68384   4.664  40.001   6.594
 5438POPC   C3B68385   4.753  39.974   7.006
 5438POPC   C4B68386   4.991  40.254   7.258
 5439POPC   NC368387  26.888  38.684   5.253
 5439POPC   PO468388  27.347  38.531   5.673
 5439POPC   GL168389  26.882  38.523   5.775
 5439POPC   GL268390  26.745  38.178   5.917
 5439POPC   C1A68391  26.833  38.643   6.208
 5439POPC   D2A68392  26.656  38.436   6.552
 5439POPC   C3A68393  26.744  38.670   6.928
 5439POPC   C4A68394  26.710  38.658   7.356
 5439POPC   C1B68395  27.079  38.189   6.287
 5439POPC   C2B68396  27.084  38.292   6.767
 5439POPC   C3B68397  27.053  38.247   7.254
 5439POPC   C4B68398  27.182  38.019   7.686
 5440POPC   NC368399  12.419  16.419   5.131
 5440POPC   PO468400  12.804  16.116   5.601
 5440POPC   GL168401  12.709  16.529   5.911
 5440POPC   GL268402  12.404  16.788   5.842
 5440POPC   C1A68403  12.795  16.637   6.345
 5440POPC   D2A68404  12.879  16.974   6.629
 5440POPC   C3A68405  13.066  16.835   7.005
 5440POPC   C4A68406  12.921  16.508   7.264
 5440POPC   C1B68407  12.298  16.627   6.271
 5440POPC   C2B68408  12.434  16.680   6.716
 5440POPC   C3B68409  12.559  16.841   7.100
 5440POPC   C4B68410  12.606  16.788   7.556
 5441POPC   NC368411  25.334  11.029   5.525
 5441POPC   PO468412  25.055  10.410   5.218
 5441POPC   GL168413  25.094  10.611   5.640
 5441POPC   GL268414  25.365  10.572   5.816
 5441POPC   C1A68415  24.965  10.591   6.134
 5441POPC   D2A68416  25.023  10.344   6.550
 5441POPC   C3A68417  25.097  10.590   6.942
 5441POPC   C4A68418  24.781  10.812   7.168
 5441POPC   C1B68419  25.427  10.348   6.212
 5441POPC   C2B68420  25.487  10.149   6.623
 5441POPC   C3B68421  25.594  10.296   7.024
 5441POPC   C4B68422  25.561  10.653   7.231
 5442POPC   NC368423   1.355  18.490   5.148
 5442POPC   PO468424   0.852  18.273   5.513
 5442POPC   GL168425   1.032  18.503   5.835
 5442POPC   GL268426   0.691  18.559   5.899
 5442POPC   C1A68427   1.305  18.524   6.231
 5442POPC   D2A68428   1.502  18.267   6.587
 5442POPC   C3A68429   1.333  18.208   7.014
 5442POPC   C4A68430   1.607  18.327   7.345
 5442POPC   C1B68431   0.832  18.312   6.264
 5442POPC   C2B68432   0.877  18.227   6.707
 5442POPC   C3B68433   0.932  18.549   7.028
 5442POPC   C4B68434   1.100  18.503   7.428
 5443POPC   NC368435  35.139  39.626   5.463
 5443POPC   PO468436  35.573  39.109   5.409
 5443POPC   GL168437  35.521  39.173   5.828
 5443POPC   GL268438  35.798  39.336   5.906
 5443POPC   C1A68439  35.273  39.139   6.215
 5443POPC   D2A68440  35.103  39.433   6.533
 5443POPC   C3A68441  35.182  39.267   6.931
 5443POPC   C4A68442  35.076  39.159   7.329
 5443POPC   C1B68443  35.772  39.141   6.291
 5443POPC   C2B68444  35.591  39.245   6.629
 5443POPC   C3B68445  35.674  39.438   6.988
 5443POPC   C4B68446  35.615  39.128   7.277
 5444POPC   NC368447  20.482  15.859   5.548
 5444POPC   PO468448  20.854  16.397   5.509
 5444POPC   GL168449  20.764  16.184   5.929
 5444POPC   GL268450  20.485  15.928   6.035
 5444POPC   C1A68451  20.695  16.196   6.391
 5444POPC   D2A68452  20.287  16.161   6.610
 5444POPC   C3A68453  20.370  16.217   7.016
 5444POPC   C4A68454  20.749  16.346   7.218
 5444POPC   C1B68455  20.440  15.713   6.430
 5444POPC   C2B68456  20.370  15.717   6.883
 5444POPC   C3B68457  20.488  15.819   7.316
 5444POPC   C4B68458  20.308  15.798   7.716
 5445POPC   NC368459  40.504  14.323   5.573
 5445POPC   PO468460  40.009  14.491   5.139
 5445POPC   GL168461  39.977  14.395   5.609
 5445POPC   GL268462  39.757  14.112   5.730
 5445POPC   C1A68463  40.068  14.398   6.081
 5445POPC   D2A68464  40.286  14.483   6.514
 5445POPC   C3A68465  40.047  14.688   6.847
 5445POPC   C4A68466  39.962  14.483   7.256
 5445POPC   C1B68467  39.588  14.217   6.143
 5445POPC   C2B68468  39.789  14.355   6.519
 5445POPC   C3B68469  40.020  14.166   6.849
 5445POPC   C4B68470  39.754  14.024   7.167
 5446POPC   NC368471  14.514  27.210   5.016
 5446POPC   PO468472  14.583  26.574   5.318
 5446POPC   GL168473  14.254  26.625   5.656
 5446POPC   GL268474  14.499  26.788   5.869
 5446POPC   C1A68475  14.173  26.539   6.133
 5446POPC   D2A68476  14.466  26.730   6.463
 5446POPC   C3A68477  14.361  26.693   6.898
 5446POPC   C4A68478  14.095  26.486   7.174
 5446POPC   C1B68479  14.482  27.150   6.189
 5446POPC   C2B68480  14.389  27.219   6.607
 5446POPC   C3B68481  14.383  27.297   7.010
 5446POPC   C4B68482  14.503  27.157   7.391
 5447POPC   NC368483  33.444  38.041   5.407
 5447POPC   PO468484  33.734  37.409   5.497
 5447POPC   GL168485  33.870  37.660   5.830
 5447POPC   GL268486  33.900  38.009   5.721
 5447POPC   C1A68487  33.776  37.586   6.264
 5447POPC   D2A68488  33.957  37.516   6.644
 5447POPC   C3A68489  33.721  37.456   7.037
 5447POPC   C4A68490  34.069  37.570   7.341
 5447POPC   C1B68491  33.753  38.084   6.146
 5447POPC   C2B68492  33.964  38.035   6.557
 5447POPC   C3B68493  33.931  37.912   6.990
 5447POPC   C4B68494  33.620  37.897   7.298
 5448POPC   NC368495  23.413   2.910   5.492
 5448POPC   PO468496  23.842   2.366   5.325
 5448POPC   GL168497  23.740   2.565   5.749
 5448POPC   GL268498  23.457   2.457   5.985
 5448POPC   C1A68499  23.842   2.755   6.169
 5448POPC   D2A68500  23.602   2.658   6.544
 5448POPC   C3A68501  23.840   2.699   6.926
 5448POPC   C4A68502  23.725   2.844   7.315
 5448POPC   C1B68503  23.138   2.664   6.255
 5448POPC   C2B68504  23.143   2.913   6.606
 5448POPC   C3B68505  23.353   2.827   6.976
 5448POPC   C4B68506  23.367   2.467   7.237
 5449POPC   NC368507  41.554   2.101   5.465
 5449POPC   PO468508  41.906   1.517   5.299
 5449POPC   GL168509  41.713   1.636   5.767
 5449POPC   GL268510  41.889   1.461   5.989
 5449POPC   C1A68511  41.623   1.945   6.155
 5449POPC   D2A68512  41.408   2.046   6.564
 5449POPC   C3A68513  41.615   2.274   6.900
 5449POPC   C4A68514  41.469   2.299   7.330
 5449POPC   C1B68515  42.079   1.757   6.198
 5449POPC   C2B68516  41.946   1.916   6.582
 5449POPC   C3B68517  41.889   1.702   6.937
 5449POPC   C4B68518  41.779   1.862   7.283
 5450POPC   NC368519  18.562   6.117   5.291
 5450POPC   PO468520  18.128   5.667   5.525
 5450POPC   GL168521  18.068   5.993   5.825
 5450POPC   GL268522  18.429   6.035   5.844
 5450POPC   C1A68523  18.081   5.933   6.280
 5450POPC   D2A68524  18.354   5.943   6.646
 5450POPC   C3A68525  18.124   5.855   7.020
 5450POPC   C4A68526  18.144   6.019   7.466
 5450POPC   C1B68527  18.548   5.690   6.146
 5450POPC   C2B68528  18.808   5.584   6.532
 5450POPC   C3B68529  18.714   5.663   6.974
 5450POPC   C4B68530  18.576   6.010   7.226
 5451POPC   NC368531  43.435  24.520   5.589
 5451POPC   PO468532  42.849  24.667   5.228
 5451POPC   GL168533  42.926  24.444   5.615
 5451POPC   GL268534  42.999  24.705   5.778
 5451POPC   C1A68535  43.045  24.286   6.063
 5451POPC   D2A68536  43.090  24.236   6.541
 5451POPC   C3A68537  43.385  24.358   6.890
 5451POPC   C4A68538  43.386  24.674   7.211
 5451POPC   C1B68539  43.118  24.763   6.205
 5451POPC   C2B68540  43.290  24.769   6.596
 5451POPC   C3B68541  42.990  24.698   6.908
 5451POPC   C4B68542  42.900  24.813   7.332
 5452POPC   NC368543  11.739  25.041   5.497
 5452POPC   PO468544  12.339  25.192   5.534
 5452POPC   GL168545  12.094  25.097   5.864
 5452POPC   GL268546  11.829  25.346   5.893
 5452POPC   C1A68547  12.183  24.838   6.188
 5452POPC   D2A68548  12.124  24.988   6.572
 5452POPC   C3A68549  12.397  24.935   6.881
 5452POPC   C4A68550  12.154  24.965   7.217
 5452POPC   C1B68551  12.027  25.441   6.260
 5452POPC   C2B68552  12.084  25.554   6.666
 5452POPC   C3B68553  11.978  25.449   7.065
 5452POPC   C4B68554  11.682  25.491   7.395
 5453POPC   NC368555  14.381  19.368   5.227
 5453POPC   PO468556  14.249  18.859   5.544
 5453POPC   GL168557  14.050  19.061   5.893
 5453POPC   GL268558  14.113  19.337   5.714
 5453POPC   C1A68559  14.038  19.103   6.351
 5453POPC   D2A68560  14.278  19.018   6.731
 5453POPC   C3A68561  14.638  18.881   6.995
 5453POPC   C4A68562  14.602  18.729   7.435
 5453POPC   C1B68563  14.418  19.336   6.106
 5453POPC   C2B68564  14.598  19.384   6.524
 5453POPC   C3B68565  14.565  19.417   6.969
 5453POPC   C4B68566  14.283  19.166   7.220
 5454POPC   NC368567  33.223   3.681   5.414
 5454POPC   PO468568  32.634   3.452   5.449
 5454POPC   GL168569  32.961   3.464   5.788
 5454POPC   GL268570  32.706   3.642   5.935
 5454POPC   C1A68571  33.266   3.621   6.128
 5454POPC   D2A68572  33.424   3.479   6.543
 5454POPC   C3A68573  33.238   3.502   7.005
 5454POPC   C4A68574  33.269   3.747   7.404
 5454POPC   C1B68575  32.811   3.464   6.303
 5454POPC   C2B68576  32.850   3.655   6.679
 5454POPC   C3B68577  32.711   3.394   6.988
 5454POPC   C4B68578  32.706   3.500   7.378
 5455POPC   NC368579  39.321   4.152   5.560
 5455POPC   PO468580  39.139   4.778   5.291
 5455POPC   GL168581  39.122   4.734   5.771
 5455POPC   GL268582  39.023   4.386   5.909
 5455POPC   C1A68583  39.173   4.724   6.252
 5455POPC   D2A68584  39.061   4.349   6.573
 5455POPC   C3A68585  39.094   4.501   7.015
 5455POPC   C4A68586  39.211   4.348   7.449
 5455POPC   C1B68587  39.419   4.281   6.206
 5455POPC   C2B68588  39.571   4.317   6.656
 5455POPC   C3B68589  39.385   4.071   6.989
 5455POPC   C4B68590  39.575   3.997   7.357
 5456POPC   NC368591  19.797   2.462   5.423
 5456POPC   PO468592  20.174   3.056   5.378
 5456POPC   GL168593  19.981   2.835   5.763
 5456POPC   GL268594  20.062   2.495   5.883
 5456POPC   C1A68595  19.771   2.861   6.156
 5456POPC   D2A68596  19.939   2.730   6.543
 5456POPC   C3A68597  19.770   2.955   6.891
 5456POPC   C4A68598  19.766   2.840   7.355
 5456POPC   C1B68599  20.147   2.284   6.284
 5456POPC   C2B68600  20.221   2.334   6.728
 5456POPC   C3B68601  19.964   2.483   7.015
 5456POPC   C4B68602  20.039   2.384   7.396
 5457POPC   NC368603   2.059  38.805   5.539
 5457POPC   PO468604   1.848  38.224   5.320
 5457POPC   GL168605   2.024  38.327   5.764
 5457POPC   GL268606   2.381  38.273   5.761
 5457POPC   C1A68607   2.171  38.462   6.214
 5457POPC   D2A68608   2.193  38.754   6.583
 5457POPC   C3A68609   2.054  38.660   7.007
 5457POPC   C4A68610   1.964  38.249   7.216
 5457POPC   C1B68611   2.405  37.984   6.133
 5457POPC   C2B68612   2.247  38.029   6.568
 5457POPC   C3B68613   2.399  38.033   7.032
 5457POPC   C4B68614   2.554  38.278   7.430
 5458POPC   NC368615  38.625   7.176   5.447
 5458POPC   PO468616  39.310   7.050   5.484
 5458POPC   GL168617  39.106   7.153   5.858
 5458POPC   GL268618  38.890   7.444   5.803
 5458POPC   C1A68619  39.219   7.065   6.284
 5458POPC   D2A68620  39.357   7.346   6.576
 5458POPC   C3A68621  39.168   7.355   6.967
 5458POPC   C4A68622  39.309   7.337   7.366
 5458POPC   C1B68623  39.044   7.560   6.208
 5458POPC   C2B68624  38.920   7.690   6.613
 5458POPC   C3B68625  39.004   7.824   7.032
 5458POPC   C4B68626  39.165   7.833   7.440
 5459POPC   NC368627  38.254  19.243   5.430
 5459POPC   PO468628  38.680  18.784   5.408
 5459POPC   GL168629  38.403  18.897   5.763
 5459POPC   GL268630  38.687  19.095   5.852
 5459POPC   C1A68631  38.307  19.016   6.210
 5459POPC   D2A68632  38.364  18.833   6.630
 5459POPC   C3A68633  38.488  18.994   7.027
 5459POPC   C4A68634  38.274  18.938   7.381
 5459POPC   C1B68635  38.803  18.905   6.288
 5459POPC   C2B68636  38.882  18.798   6.728
 5459POPC   C3B68637  38.970  18.768   7.169
 5459POPC   C4B68638  38.751  18.970   7.494
 5460POPC   NC368639  14.677  24.429   5.478
 5460POPC   PO468640  15.271  24.598   5.465
 5460POPC   GL168641  15.340  24.477   5.885
 5460POPC   GL268642  15.690  24.306   5.911
 5460POPC   C1A68643  15.090  24.592   6.281
 5460POPC   D2A68644  15.003  24.871   6.642
 5460POPC   C3A68645  15.079  24.663   7.040
 5460POPC   C4A68646  15.048  24.253   7.077
 5460POPC   C1B68647  15.432  24.140   6.253
 5460POPC   C2B68648  15.346  24.298   6.658
 5460POPC   C3B68649  15.574  24.259   7.043
 5460POPC   C4B68650  15.778  24.108   7.429
 5461POPC   NC368651  12.484   3.007   5.440
 5461POPC   PO468652  13.094   3.172   5.461
 5461POPC   GL168653  12.921   2.787   5.691
 5461POPC   GL268654  13.149   2.530   5.849
 5461POPC   C1A68655  12.662   2.712   6.072
 5461POPC   D2A68656  12.596   2.872   6.515
 5461POPC   C3A68657  12.546   2.670   6.925
 5461POPC   C4A68658  12.711   3.045   7.140
 5461POPC   C1B68659  13.075   2.538   6.310
 5461POPC   C2B68660  13.016   2.581   6.746
 5461POPC   C3B68661  13.013   2.635   7.186
 5461POPC   C4B68662  13.050   2.500   7.611
 5462POPC   NC368663   6.088  15.458   5.657
 5462POPC   PO468664   5.551  15.754   5.426
 5462POPC   GL168665   5.771  15.898   5.832
 5462POPC   GL268666   5.811  16.257   5.829
 5462POPC   C1A68667   5.892  16.011   6.308
 5462POPC   D2A68668   5.637  16.060   6.708
 5462POPC   C3A68669   5.738  15.912   7.151
 5462POPC   C4A68670   6.036  15.652   7.395
 5462POPC   C1B68671   5.676  16.470   6.214
 5462POPC   C2B68672   5.796  16.548   6.662
 5462POPC   C3B68673   5.638  16.422   7.061
 5462POPC   C4B68674   5.760  16.310   7.492
 5463POPC   NC368675  31.564  32.158   5.430
 5463POPC   PO468676  31.038  32.736   5.498
 5463POPC   GL168677  31.255  32.484   5.813
 5463POPC   GL268678  31.252  32.121   5.827
 5463POPC   C1A68679  31.500  32.553   6.202
 5463POPC   D2A68680  31.337  32.610   6.627
 5463POPC   C3A68681  31.520  32.324   6.953
 5463POPC   C4A68682  31.788  32.446   7.296
 5463POPC   C1B68683  31.120  32.218   6.226
 5463POPC   C2B68684  31.262  32.072   6.584
 5463POPC   C3B68685  31.255  31.875   6.972
 5463POPC   C4B68686  31.140  32.109   7.276
 5464POPC   NC368687  34.324  27.197   5.714
 5464POPC   PO468688  34.744  26.881   5.267
 5464POPC   GL168689  34.652  26.733   5.715
 5464POPC   GL268690  34.359  26.537   5.813
 5464POPC   C1A68691  34.853  26.666   6.144
 5464POPC   D2A68692  34.749  26.559   6.606
 5464POPC   C3A68693  34.724  26.919   6.908
 5464POPC   C4A68694  34.732  26.916   7.373
 5464POPC   C1B68695  34.317  26.694   6.258
 5464POPC   C2B68696  34.275  26.812   6.708
 5464POPC   C3B68697  34.259  27.079   7.079
 5464POPC   C4B68698  34.282  27.031   7.551
 5465POPC   NC368699  30.094  22.534   5.406
 5465POPC   PO468700  30.097  23.216   5.200
 5465POPC   GL168701  30.072  23.085   5.674
 5465POPC   GL268702  30.171  22.773   5.845
 5465POPC   C1A68703  29.909  23.156   6.102
 5465POPC   D2A68704  29.958  23.224   6.530
 5465POPC   C3A68705  29.692  23.282   6.869
 5465POPC   C4A68706  29.791  23.261   7.316
 5465POPC   C1B68707  29.760  22.675   6.075
 5465POPC   C2B68708  29.624  22.776   6.479
 5465POPC   C3B68709  29.880  22.812   6.829
 5465POPC   C4B68710  29.770  22.758   7.217
 5466POPC   NC368711  16.935  27.384   5.452
 5466POPC   PO468712  17.186  27.994   5.525
 5466POPC   GL168713  17.137  27.676   5.846
 5466POPC   GL268714  16.774  27.555   5.894
 5466POPC   C1A68715  17.122  27.473   6.251
 5466POPC   D2A68716  16.852  27.519   6.586
 5466POPC   C3A68717  16.990  27.679   6.989
 5466POPC   C4A68718  16.954  27.953   7.343
 5466POPC   C1B68719  16.503  27.409   6.204
 5466POPC   C2B68720  16.339  27.378   6.612
 5466POPC   C3B68721  16.314  27.427   7.046
 5466POPC   C4B68722  16.624  27.501   7.334
 5467POPC   NC368723  17.114  32.343   5.456
 5467POPC   PO468724  16.432  32.240   5.283
 5467POPC   GL168725  16.688  32.184   5.735
 5467POPC   GL268726  16.987  31.951   5.807
 5467POPC   C1A68727  16.593  32.322   6.200
 5467POPC   D2A68728  16.638  32.160   6.614
 5467POPC   C3A68729  16.454  32.287   7.005
 5467POPC   C4A68730  16.432  32.460   7.401
 5467POPC   C1B68731  17.090  32.298   6.105
 5467POPC   C2B68732  17.039  32.507   6.493
 5467POPC   C3B68733  16.962  32.424   6.897
 5467POPC   C4B68734  16.934  32.473   7.295
 5468POPC   NC368735  29.196   3.643   5.424
 5468POPC   PO468736  29.735   3.150   5.515
 5468POPC   GL168737  29.393   3.205   5.815
 5468POPC   GL268738  29.038   3.338   5.801
 5468POPC   C1A68739  29.344   3.440   6.221
 5468POPC   D2A68740  29.360   3.747   6.588
 5468POPC   C3A68741  29.224   3.584   7.021
 5468POPC   C4A68742  29.348   3.366   7.420
 5468POPC   C1B68743  28.905   3.636   6.135
 5468POPC   C2B68744  28.861   3.654   6.593
 5468POPC   C3B68745  28.802   3.932   6.929
 5468POPC   C4B68746  28.753   3.693   7.294
 5469POPC   NC368747  20.424  43.190   5.555
 5469POPC   PO468748  21.001  42.825   5.472
 5469POPC   GL168749  20.862  43.021   5.879
 5469POPC   GL268750  20.573  43.192   6.036
 5469POPC   C1A68751  20.848  42.894   6.350
 5469POPC   D2A68752  20.903  42.686   6.754
 5469POPC   C3A68753  20.773  42.945   7.101
 5469POPC   C4A68754  20.652  43.384   7.232
 5469POPC   C1B68755  20.367  42.856   6.188
 5469POPC   C2B68756  20.357  42.776   6.586
 5469POPC   C3B68757  20.307  43.062   6.918
 5469POPC   C4B68758  20.318  43.029   7.352
 5470POPC   NC368759   9.769  29.396   5.633
 5470POPC   PO468760   9.522  28.753   5.659
 5470POPC   GL168761   9.620  29.013   5.981
 5470POPC   GL268762   9.973  29.003   5.939
 5470POPC   C1A68763   9.673  29.279   6.335
 5470POPC   D2A68764   9.762  29.308   6.769
 5470POPC   C3A68765   9.502  29.265   7.101
 5470POPC   C4A68766   9.439  29.337   7.528
 5470POPC   C1B68767   9.974  28.750   6.321
 5470POPC   C2B68768   9.898  28.797   6.757
 5470POPC   C3B68769  10.040  29.032   7.084
 5470POPC   C4B68770  10.251  29.009   7.473
 5471POPC   NC368771   0.482  41.420   5.402
 5471POPC   PO468772   0.179  42.012   5.485
 5471POPC   GL168773   0.168  41.822   5.864
 5471POPC   GL268774   0.277  41.478   5.857
 5471POPC   C1A68775   0.076  41.689   6.282
 5471POPC   D2A68776   0.432  41.698   6.535
 5471POPC   C3A68777   0.357  41.658   6.955
 5471POPC   C4A68778   0.265  41.867   7.340
 5471POPC   C1B68779   0.339  41.254   6.238
 5471POPC   C2B68780   0.414  41.190   6.648
 5471POPC   C3B68781   0.581  41.163   7.039
 5471POPC   C4B68782   0.569  41.459   7.369
 5472POPC   NC368783  29.565  17.985   5.370
 5472POPC   PO468784  29.100  18.390   5.533
 5472POPC   GL168785  29.185  18.318   5.932
 5472POPC   GL268786  28.867  18.181   5.966
 5472POPC   C1A68787  29.179  18.306   6.381
 5472POPC   D2A68788  29.378  18.614   6.630
 5472POPC   C3A68789  29.176  18.518   6.954
 5472POPC   C4A68790  29.140  18.082   6.934
 5472POPC   C1B68791  28.720  18.475   6.279
 5472POPC   C2B68792  28.734  18.540   6.715
 5472POPC   C3B68793  28.775  18.836   7.071
 5472POPC   C4B68794  28.823  18.853   7.549
 5473POPC   NC368795  43.388  22.921   5.077
 5473POPC   PO468796  43.827  23.259   5.544
 5473POPC   GL168797  43.919  23.098   5.911
 5473POPC   GL268798  43.922  22.760   5.864
 5473POPC   C1A68799  43.768  23.048   6.313
 5473POPC   D2A68800  44.045  23.181   6.631
 5473POPC   C3A68801  43.917  23.378   6.995
 5473POPC   C4A68802  43.687  23.234   7.365
 5473POPC   C1B68803  43.764  22.556   6.207
 5473POPC   C2B68804  43.566  22.643   6.621
 5473POPC   C3B68805  43.756  22.877   6.973
 5473POPC   C4B68806  44.209  22.973   7.101
 5474POPC   NC368807  25.080  17.957   5.367
 5474POPC   PO468808  25.336  18.620   5.381
 5474POPC   GL168809  25.292  18.340   5.717
 5474POPC   GL268810  25.360  17.980   5.796
 5474POPC   C1A68811  25.363  18.368   6.143
 5474POPC   D2A68812  25.134  18.335   6.506
 5474POPC   C3A68813  25.368  18.446   6.870
 5474POPC   C4A68814  25.059  18.595   7.129
 5474POPC   C1B68815  25.109  17.893   6.156
 5474POPC   C2B68816  25.238  17.762   6.552
 5474POPC   C3B68817  25.355  17.943   6.932
 5474POPC   C4B68818  25.627  18.023   7.284
 5475POPC   NC368819  10.824  16.071   5.279
 5475POPC   PO468820  10.232  15.771   5.394
 5475POPC   GL168821  10.392  16.000   5.742
 5475POPC   GL268822  10.728  15.988   5.772
 5475POPC   C1A68823  10.389  16.004   6.201
 5475POPC   D2A68824  10.240  15.778   6.588
 5475POPC   C3A68825  10.290  15.995   6.972
 5475POPC   C4A68826  10.362  15.767   7.328
 5475POPC   C1B68827  10.872  15.828   6.157
 5475POPC   C2B68828  10.769  16.006   6.556
 5475POPC   C3B68829  10.785  15.850   6.952
 5475POPC   C4B68830  10.733  16.085   7.277
 5476POPC   NC368831  23.726  26.374   5.418
 5476POPC   PO468832  23.356  26.913   5.521
 5476POPC   GL168833  23.702  26.978   5.819
 5476POPC   GL268834  23.846  26.651   5.855
 5476POPC   C1A68835  23.796  26.998   6.279
 5476POPC   D2A68836  24.093  26.939   6.629
 5476POPC   C3A68837  23.904  27.029   7.059
 5476POPC   C4A68838  23.477  27.102   7.194
 5476POPC   C1B68839  23.995  26.533   6.276
 5476POPC   C2B68840  23.874  26.393   6.705
 5476POPC   C3B68841  23.753  26.526   7.127
 5476POPC   C4B68842  24.029  26.526   7.491
 5477POPC   NC368843  20.413  39.637   5.626
 5477POPC   PO468844  20.556  40.201   5.466
 5477POPC   GL168845  20.498  40.077   5.856
 5477POPC   GL268846  20.828  39.941   5.830
 5477POPC   C1A68847  20.474  39.923   6.293
 5477POPC   D2A68848  20.551  40.044   6.749
 5477POPC   C3A68849  20.321  39.865   7.094
 5477POPC   C4A68850  20.351  39.858   7.574
 5477POPC   C1B68851  20.967  39.888   6.224
 5477POPC   C2B68852  20.873  39.688   6.592
 5477POPC   C3B68853  20.878  39.722   7.027
 5477POPC   C4B68854  20.747  40.068   7.248
 5478POPC   NC368855  25.234  23.338   5.593
 5478POPC   PO468856  24.861  22.831   5.361
 5478POPC   GL168857  25.109  22.743   5.786
 5478POPC   GL268858  25.443  22.872   5.796
 5478POPC   C1A68859  25.186  22.965   6.221
 5478POPC   D2A68860  25.221  23.195   6.602
 5478POPC   C3A68861  25.225  23.005   7.006
 5478POPC   C4A68862  24.999  22.844   7.369
 5478POPC   C1B68863  25.563  22.639   6.199
 5478POPC   C2B68864  25.353  22.641   6.636
 5478POPC   C3B68865  25.582  22.642   7.058
 5478POPC   C4B68866  25.778  22.448   7.419
 5479POPC   NC368867   3.411  18.017   5.404
 5479POPC   PO468868   3.836  18.591   5.523
 5479POPC   GL168869   3.728  18.438   5.923
 5479POPC   GL268870   3.453  18.210   5.877
 5479POPC   C1A68871   3.747  18.243   6.337
 5479POPC   D2A68872   3.477  18.119   6.680
 5479POPC   C3A68873   3.616  18.187   7.122
 5479POPC   C4A68874   3.701  18.557   7.371
 5479POPC   C1B68875   3.285  18.438   6.231
 5479POPC   C2B68876   3.425  18.651   6.591
 5479POPC   C3B68877   3.275  18.550   6.985
 5479POPC   C4B68878   3.056  18.390   7.333
 5480POPC   NC368879  33.377  18.320   5.405
 5480POPC   PO468880  34.035  18.480   5.564
 5480POPC   GL168881  33.744  18.266   5.805
 5480POPC   GL268882  33.478  18.514   5.850
 5480POPC   C1A68883  33.845  18.121   6.217
 5480POPC   D2A68884  33.771  18.099   6.667
 5480POPC   C3A68885  33.896  18.449   6.931
 5480POPC   C4A68886  33.972  18.174   7.257
 5480POPC   C1B68887  33.311  18.694   6.227
 5480POPC   C2B68888  33.429  18.494   6.614
 5480POPC   C3B68889  33.414  18.605   7.042
 5480POPC   C4B68890  33.539  18.464   7.457
 5481POPC   NC368891  19.194  29.491   5.259
 5481POPC   PO468892  19.414  30.134   5.212
 5481POPC   GL168893  19.424  29.830   5.577
 5481POPC   GL268894  19.090  29.765   5.688
 5481POPC   C1A68895  19.471  29.814   6.052
 5481POPC   D2A68896  19.282  29.973   6.463
 5481POPC   C3A68897  19.394  29.882   6.911
 5481POPC   C4A68898  19.314  30.038   7.346
 5481POPC   C1B68899  18.948  29.761   6.126
 5481POPC   C2B68900  18.610  29.813   6.458
 5481POPC   C3B68901  18.605  29.966   6.885
 5481POPC   C4B68902  18.875  29.821   7.207
 5482POPC   NC368903  24.696   5.194   5.507
 5482POPC   PO468904  24.126   4.778   5.462
 5482POPC   GL168905  24.385   4.924   5.841
 5482POPC   GL268906  24.682   5.139   5.997
 5482POPC   C1A68907  24.260   5.035   6.246
 5482POPC   D2A68908  24.361   5.253   6.600
 5482POPC   C3A68909  24.274   5.006   6.965
 5482POPC   C4A68910  24.515   5.253   7.216
 5482POPC   C1B68911  24.873   4.959   6.316
 5482POPC   C2B68912  24.734   4.898   6.714
 5482POPC   C3B68913  24.932   4.960   7.116
 5482POPC   C4B68914  24.797   4.909   7.549
 5483POPC   NC368915  13.959  19.784   5.489
 5483POPC   PO468916  14.578  19.780   5.336
 5483POPC   GL168917  14.395  19.992   5.704
 5483POPC   GL268918  14.384  19.735   5.824
 5483POPC   C1A68919  14.133  20.018   6.132
 5483POPC   D2A68920  14.075  20.118   6.565
 5483POPC   C3A68921  14.177  19.933   6.961
 5483POPC   C4A68922  14.274  19.916   7.386
 5483POPC   C1B68923  14.594  19.821   6.207
 5483POPC   C2B68924  14.560  19.886   6.620
 5483POPC   C3B68925  14.709  19.916   7.020
 5483POPC   C4B68926  14.723  19.722   7.383
 5484POPC   NC368927  18.751  15.401   5.469
 5484POPC   PO468928  19.295  15.033   5.342
 5484POPC   GL168929  19.212  15.177   5.748
 5484POPC   GL268930  18.881  15.085   5.845
 5484POPC   C1A68931  19.188  15.326   6.177
 5484POPC   D2A68932  19.105  15.134   6.539
 5484POPC   C3A68933  19.282  15.251   6.877
 5484POPC   C4A68934  19.118  15.306   7.233
 5484POPC   C1B68935  18.715  15.001   6.244
 5484POPC   C2B68936  18.843  14.708   6.559
 5484POPC   C3B68937  18.941  14.865   6.957
 5484POPC   C4B68938  18.701  15.009   7.298
 5485POPC   NC368939  32.925  38.894   5.350
 5485POPC   PO468940  33.373  39.335   5.551
 5485POPC   GL168941  33.110  39.355   5.882
 5485POPC   GL268942  32.836  39.152   5.818
 5485POPC   C1A68943  33.025  39.547   6.245
 5485POPC   D2A68944  33.279  39.361   6.553
 5485POPC   C3A68945  33.083  39.245   6.909
 5485POPC   C4A68946  33.028  39.416   7.318
 5485POPC   C1B68947  32.963  39.035   6.244
 5485POPC   C2B68948  32.796  38.881   6.610
 5485POPC   C3B68949  32.647  38.992   7.002
 5485POPC   C4B68950  32.977  38.921   7.317
 5486POPC   NC368951   8.957  18.171   5.479
 5486POPC   PO468952   8.504  17.735   5.647
 5486POPC   GL168953   8.724  18.077   5.926
 5486POPC   GL268954   9.149  18.132   5.942
 5486POPC   C1A68955   8.855  18.383   6.241
 5486POPC   D2A68956   8.804  18.483   6.658
 5486POPC   C3A68957   9.009  18.131   6.872
 5486POPC   C4A68958   8.977  17.999   7.295
 5486POPC   C1B68959   9.256  18.616   6.025
 5486POPC   C2B68960   9.206  18.820   6.438
 5486POPC   C3B68961   9.292  18.564   6.805
 5486POPC   C4B68962   9.358  18.319   7.197
 5487POPC   NC368963  14.713  14.121   5.739
 5487POPC   PO468964  14.295  14.584   5.465
 5487POPC   GL168965  14.311  14.429   5.855
 5487POPC   GL268966  14.173  14.111   5.765
 5487POPC   C1A68967  14.432  14.357   6.286
 5487POPC   D2A68968  14.570  14.562   6.683
 5487POPC   C3A68969  14.353  14.579   7.082
 5487POPC   C4A68970  14.590  14.291   7.326
 5487POPC   C1B68971  13.955  14.193   6.151
 5487POPC   C2B68972  14.110  14.088   6.564
 5487POPC   C3B68973  14.309  14.080   6.933
 5487POPC   C4B68974  14.098  14.052   7.302
 5488POPC   NC368975  10.248   1.736   5.429
 5488POPC   PO468976  10.774   2.129   5.225
 5488POPC   GL168977  10.651   1.890   5.661
 5488POPC   GL268978  10.345   2.025   5.854
 5488POPC   C1A68979  10.709   1.819   6.137
 5488POPC   D2A68980  10.676   2.062   6.498
 5488POPC   C3A68981  10.520   1.914   6.898
 5488POPC   C4A68982  10.690   1.992   7.285
 5488POPC   C1B68983  10.165   2.174   6.288
 5488POPC   C2B68984  10.131   2.223   6.755
 5488POPC   C3B68985  10.108   2.183   7.220
 5488POPC   C4B68986  10.051   2.140   7.683
 5489POPC   NC368987  36.277  43.925   5.424
 5489POPC   PO468988  35.720  43.482   5.573
 5489POPC   GL168989  36.083  43.706   5.863
 5489POPC   GL268990  36.264  44.042   5.903
 5489POPC   C1A68991  36.018  43.861   6.295
 5489POPC   D2A68992  36.277  43.853   6.639
 5489POPC   C3A68993  36.070  43.814   6.990
 5489POPC   C4A68994  35.894  44.094   7.244
 5489POPC   C1B68995  36.560  44.198   6.225
 5489POPC   C2B68996  36.499  44.314   6.648
 5489POPC   C3B68997  36.424  44.198   7.069
 5489POPC   C4B68998  36.354  43.984   7.439
 5490POPC   NC368999  43.489  32.198   5.453
 5490POPC   PO469000  43.029  32.628   5.458
 5490POPC   GL169001  43.226  32.454   5.839
 5490POPC   GL269002  43.218  32.087   5.874
 5490POPC   C1A69003  43.077  32.380   6.269
 5490POPC   D2A69004  43.267  32.377   6.673
 5490POPC   C3A69005  42.972  32.345   6.979
 5490POPC   C4A69006  42.977  32.150   7.375
 5490POPC   C1B69007  43.409  31.944   6.257
 5490POPC   C2B69008  43.567  31.973   6.660
 5490POPC   C3B69009  43.367  32.017   7.034
 5490POPC   C4B69010  43.473  32.206   7.366
 5491POPC   NC369011   9.960  28.578   5.594
 5491POPC   PO469012   9.580  28.119   5.386
 5491POPC   GL169013   9.670  28.238   5.818
 5491POPC   GL269014   9.992  28.090   5.801
 5491POPC   C1A69015   9.592  28.394   6.236
 5491POPC   D2A69016   9.525  28.431   6.661
 5491POPC   C3A69017   9.750  28.387   7.018
 5491POPC   C4A69018   9.992  28.574   7.271
 5491POPC   C1B69019  10.075  28.209   6.234
 5491POPC   C2B69020  10.094  28.331   6.656
 5491POPC   C3B69021  10.189  28.143   7.080
 5491POPC   C4B69022  10.189  28.215   7.557
 5492POPC   NC369023  42.662   4.311   5.405
 5492POPC   PO469024  42.084   4.341   5.790
 5492POPC   GL169025  42.465   4.250   5.968
 5492POPC   GL269026  42.634   3.985   5.799
 5492POPC   C1A69027  42.382   4.144   6.414
 5492POPC   D2A69028  42.011   4.066   6.669
 5492POPC   C3A69029  42.084   4.395   6.946
 5492POPC   C4A69030  42.470   4.592   7.071
 5492POPC   C1B69031  42.630   3.768   6.194
 5492POPC   C2B69032  42.768   3.855   6.635
 5492POPC   C3B69033  42.482   4.029   6.952
 5492POPC   C4B69034  42.143   3.817   7.110
 5493POPC   NC369035   5.186  35.400   5.373
 5493POPC   PO469036   4.841  34.999   5.771
 5493POPC   GL169037   5.157  35.376   5.921
 5493POPC   GL269038   5.426  35.599   5.751
 5493POPC   C1A69039   5.152  35.447   6.383
 5493POPC   D2A69040   4.858  35.165   6.650
 5493POPC   C3A69041   4.892  35.192   7.088
 5493POPC   C4A69042   5.128  35.492   7.299
 5493POPC   C1B69043   5.476  35.807   6.117
 5493POPC   C2B69044   5.615  35.715   6.515
 5493POPC   C3B69045   5.443  35.551   6.869
 5493POPC   C4B69046   5.619  35.564   7.274
 5494POPC   NC369047   3.461  25.305   5.413
 5494POPC   PO469048   3.631  24.773   5.823
 5494POPC   GL169049   3.543  25.222   5.928
 5494POPC   GL269050   3.648  25.544   5.813
 5494POPC   C1A69051   3.395  25.492   6.278
 5494POPC   D2A69052   3.392  25.348   6.718
 5494POPC   C3A69053   3.155  25.306   7.119
 5494POPC   C4A69054   3.186  24.921   7.371
 5494POPC   C1B69055   3.888  25.623   6.168
 5494POPC   C2B69056   3.973  25.664   6.590
 5494POPC   C3B69057   3.757  25.541   6.989
 5494POPC   C4B69058   3.615  25.237   7.331
 5495POPC   NC369059   8.877   4.147   5.557
 5495POPC   PO469060   9.384   4.507   5.354
 5495POPC   GL169061   9.183   4.521   5.777
 5495POPC   GL269062   9.146   4.199   5.971
 5495POPC   C1A69063   9.174   4.672   6.218
 5495POPC   D2A69064   9.040   4.694   6.656
 5495POPC   C3A69065   9.220   4.421   6.987
 5495POPC   C4A69066   8.807   4.368   7.099
 5495POPC   C1B69067   8.818   4.279   6.269
 5495POPC   C2B69068   8.961   4.149   6.649
 5495POPC   C3B69069   8.919   3.861   6.980
 5495POPC   C4B69070   8.736   3.745   7.371
 5496POPC   NC369071  35.247   9.998   5.525
 5496POPC   PO469072  35.556   9.395   5.414
 5496POPC   GL169073  35.451   9.477   5.837
 5496POPC   GL269074  35.154   9.315   5.974
 5496POPC   C1A69075  35.513   9.790   6.172
 5496POPC   D2A69076  35.373  10.073   6.513
 5496POPC   C3A69077  35.337   9.889   6.926
 5496POPC   C4A69078  35.200   9.967   7.344
 5496POPC   C1B69079  35.112   9.512   6.314
 5496POPC   C2B69080  35.324   9.442   6.651
 5496POPC   C3B69081  35.146   9.408   7.027
 5496POPC   C4B69082  35.408   9.513   7.349
 5497POPC   NC369083  42.423  31.066   5.638
 5497POPC   PO469084  42.223  30.451   5.355
 5497POPC   GL169085  42.341  30.579   5.795
 5497POPC   GL269086  42.675  30.523   5.840
 5497POPC   C1A69087  42.415  30.715   6.246
 5497POPC   D2A69088  42.578  30.830   6.640
 5497POPC   C3A69089  42.405  30.668   6.977
 5497POPC   C4A69090  42.237  30.676   7.381
 5497POPC   C1B69091  42.681  30.275   6.193
 5497POPC   C2B69092  42.455  30.258   6.583
 5497POPC   C3B69093  42.623  30.209   6.983
 5497POPC   C4B69094  42.705  30.454   7.343
 5498POPC   NC369095  27.782  41.133   5.487
 5498POPC   PO469096  27.215  40.685   5.368
 5498POPC   GL169097  27.505  40.635   5.766
 5498POPC   GL269098  27.482  40.949   5.876
 5498POPC   C1A69099  27.610  40.578   6.236
 5498POPC   D2A69100  27.824  40.392   6.627
 5498POPC   C3A69101  27.879  40.633   7.020
 5498POPC   C4A69102  27.615  40.743   7.354
 5498POPC   C1B69103  27.809  41.076   6.183
 5498POPC   C2B69104  27.866  40.929   6.608
 5498POPC   C3B69105  27.670  41.118   7.012
 5498POPC   C4B69106  27.740  41.220   7.468
 5499POPC   NC369107  37.542  34.027   5.571
 5499POPC   PO469108  37.829  33.358   5.622
 5499POPC   GL169109  37.728  33.668   5.894
 5499POPC   GL269110  37.877  34.007   5.924
 5499POPC   C1A69111  37.543  33.785   6.270
 5499POPC   D2A69112  37.299  33.815   6.642
 5499POPC   C3A69113  37.453  33.885   7.051
 5499POPC   C4A69114  37.642  33.524   7.311
 5499POPC   C1B69115  38.068  33.818   6.271
 5499POPC   C2B69116  38.155  33.607   6.615
 5499POPC   C3B69117  37.872  33.627   6.891
 5499POPC   C4B69118  37.930  33.925   7.259
 5500POPC   NC369119   4.268  40.358   4.870
 5500POPC   PO469120   4.361  40.949   5.171
 5500POPC   GL169121   4.395  40.716   5.676
 5500POPC   GL269122   4.607  40.958   5.866
 5500POPC   C1A69123   4.299  40.552   6.082
 5500POPC   D2A69124   4.241  40.701   6.499
 5500POPC   C3A69125   4.492  40.517   6.807
 5500POPC   C4A69126   4.521  40.465   7.231
 5500POPC   C1B69127   4.668  40.897   6.303
 5500POPC   C2B69128   4.592  41.043   6.724
 5500POPC   C3B69129   4.447  40.964   7.118
 5500POPC   C4B69130   4.023  40.921   7.171
 5501POPC   NC369131  25.151  30.583   5.493
 5501POPC   PO469132  25.544  31.097   5.251
 5501POPC   GL169133  25.464  30.957   5.689
 5501POPC   GL269134  25.255  31.216   5.720
 5501POPC   C1A69135  25.162  30.838   6.093
 5501POPC   D2A69136  25.074  30.652   6.512
 5501POPC   C3A69137  25.308  30.643   6.880
 5501POPC   C4A69138  25.125  30.680   7.278
 5501POPC   C1B69139  25.481  31.226   6.138
 5501POPC   C2B69140  25.444  31.031   6.549
 5501POPC   C3B69141  25.556  31.088   6.996
 5501POPC   C4B69142  25.424  31.065   7.424
 5502POPC   NC369143  27.402  29.486   5.332
 5502POPC   PO469144  27.713  30.094   5.359
 5502POPC   GL169145  27.786  29.736   5.666
 5502POPC   GL269146  27.427  29.701   5.785
 5502POPC   C1A69147  27.777  29.576   6.109
 5502POPC   D2A69148  27.757  29.794   6.503
 5502POPC   C3A69149  27.868  29.627   6.883
 5502POPC   C4A69150  27.934  29.811   7.291
 5502POPC   C1B69151  27.343  29.909   6.185
 5502POPC   C2B69152  27.261  29.809   6.619
 5502POPC   C3B69153  27.435  29.864   7.047
 5502POPC   C4B69154  27.300  30.046   7.402
 5503POPC   NC369155  42.811   8.427   5.432
 5503POPC   PO469156  43.382   8.102   5.594
 5503POPC   GL169157  43.159   8.128   5.955
 5503POPC   GL269158  42.859   8.095   5.820
 5503POPC   C1A69159  43.120   7.981   6.387
 5503POPC   D2A69160  43.522   7.930   6.648
 5503POPC   C3A69161  43.416   7.981   7.072
 5503POPC   C4A69162  43.017   7.947   7.251
 5503POPC   C1B69163  42.785   8.394   6.161
 5503POPC   C2B69164  43.023   8.475   6.527
 5503POPC   C3B69165  42.920   8.303   6.897
 5503POPC   C4B69166  42.859   8.496   7.277
 5504POPC   NC369167  23.539  32.610   5.301
 5504POPC   PO469168  23.580  31.988   5.433
 5504POPC   GL169169  23.906  32.206   5.645
 5504POPC   GL269170  23.931  31.927   5.852
 5504POPC   C1A69171  23.999  32.364   6.086
 5504POPC   D2A69172  23.937  32.154   6.497
 5504POPC   C3A69173  23.712  32.346   6.854
 5504POPC   C4A69174  24.005  32.380   7.169
 5504POPC   C1B69175  23.593  31.849   6.178
 5504POPC   C2B69176  23.424  31.987   6.597
 5504POPC   C3B69177  23.559  31.885   7.041
 5504POPC   C4B69178  23.436  31.848   7.486
 5505POPC   NC369179  20.205  10.706   5.589
 5505POPC   PO469180  20.025  10.153   5.174
 5505POPC   GL169181  19.757  10.294   5.592
 5505POPC   GL269182  19.640  10.629   5.748
 5505POPC   C1A69183  19.772  10.217   6.072
 5505POPC   D2A69184  19.868  10.394   6.486
 5505POPC   C3A69185  19.643  10.349   6.868
 5505POPC   C4A69186  19.815  10.423   7.260
 5505POPC   C1B69187  19.851  10.789   6.155
 5505POPC   C2B69188  19.772  10.900   6.614
 5505POPC   C3B69189  19.765  10.867   7.051
 5505POPC   C4B69190  19.990  10.899   7.441
 5506POPC   NC369191  10.305  18.183   5.440
 5506POPC   PO469192  10.813  18.677   5.563
 5506POPC   GL169193  10.703  18.337   5.809
 5506POPC   GL269194  10.386  18.446   5.861
 5506POPC   C1A69195  10.722  18.014   6.134
 5506POPC   D2A69196  10.519  17.993   6.540
 5506POPC   C3A69197  10.761  17.942   6.927
 5506POPC   C4A69198  10.617  17.965   7.323
 5506POPC   C1B69199  10.620  18.509   6.281
 5506POPC   C2B69200  10.629  18.476   6.731
 5506POPC   C3B69201  10.724  18.441   7.160
 5506POPC   C4B69202  10.822  18.420   7.585
 5507POPC   NC369203   9.808   5.693   5.228
 5507POPC   PO469204   9.458   6.205   5.465
 5507POPC   GL169205   9.657   6.037   5.818
 5507POPC   GL269206   9.915   5.796   5.734
 5507POPC   C1A69207   9.822   5.999   6.234
 5507POPC   D2A69208   9.916   6.191   6.598
 5507POPC   C3A69209   9.861   6.006   6.977
 5507POPC   C4A69210   9.739   6.135   7.403
 5507POPC   C1B69211  10.042   5.556   6.121
 5507POPC   C2B69212  10.109   5.702   6.562
 5507POPC   C3B69213  10.206   5.598   6.982
 5507POPC   C4B69214  10.234   5.244   7.233
 5508POPC   NC369215  37.938  38.818   5.390
 5508POPC   PO469216  37.761  38.091   5.319
 5508POPC   GL169217  37.613  38.403   5.633
 5508POPC   GL269218  37.897  38.513   5.789
 5508POPC   C1A69219  37.453  38.537   6.058
 5508POPC   D2A69220  37.496  38.746   6.479
 5508POPC   C3A69221  37.343  38.509   6.831
 5508POPC   C4A69222  37.476  38.411   7.231
 5508POPC   C1B69223  37.927  38.664   6.199
 5508POPC   C2B69224  38.032  38.698   6.618
 5508POPC   C3B69225  37.865  38.712   7.021
 5508POPC   C4B69226  38.085  38.546   7.377
 5509POPC   NC369227   7.918  19.001   5.505
 5509POPC   PO469228   8.545  19.315   5.371
 5509POPC   GL169229   8.505  19.334   5.826
 5509POPC   GL269230   8.340  19.018   5.860
 5509POPC   C1A69231   8.431  19.302   6.292
 5509POPC   D2A69232   8.139  19.250   6.640
 5509POPC   C3A69233   8.200  18.968   6.974
 5509POPC   C4A69234   8.125  19.202   7.333
 5509POPC   C1B69235   8.164  18.865   6.282
 5509POPC   C2B69236   7.835  18.826   6.613
 5509POPC   C3B69237   7.698  18.935   7.051
 5509POPC   C4B69238   7.761  18.836   7.515
 5510POPC   NC369239  42.454  41.012   5.109
 5510POPC   PO469240  42.092  40.469   5.450
 5510POPC   GL169241  42.373  40.616   5.749
 5510POPC   GL269242  42.407  40.998   5.776
 5510POPC   C1A69243  42.466  40.494   6.147
 5510POPC   D2A69244  42.141  40.592   6.453
 5510POPC   C3A69245  42.261  40.580   6.864
 5510POPC   C4A69246  42.584  40.456   7.155
 5510POPC   C1B69247  42.398  40.994   6.228
 5510POPC   C2B69248  42.601  40.920   6.650
 5510POPC   C3B69249  42.525  40.982   7.101
 5510POPC   C4B69250  42.159  40.959   7.360
 5511POPC   NC369251   9.620  18.902   5.318
 5511POPC   PO469252   9.765  19.547   5.351
 5511POPC   GL169253   9.731  19.222   5.693
 5511POPC   GL269254  10.033  19.032   5.707
 5511POPC   C1A69255   9.629  19.006   6.087
 5511POPC   D2A69256   9.795  19.126   6.464
 5511POPC   C3A69257   9.588  19.017   6.813
 5511POPC   C4A69258   9.465  18.853   7.192
 5511POPC   C1B69259  10.120  19.284   6.086
 5511POPC   C2B69260  10.229  19.410   6.527
 5511POPC   C3B69261  10.284  19.272   6.952
 5511POPC   C4B69262   9.962  19.061   7.178
 5512POPC   NC369263  32.166  23.189   5.426
 5512POPC   PO469264  32.129  22.518   5.310
 5512POPC   GL169265  32.382  22.803   5.664
 5512POPC   GL269266  32.637  23.028   5.839
 5512POPC   C1A69267  32.174  23.067   6.045
 5512POPC   D2A69268  32.168  23.051   6.475
 5512POPC   C3A69269  32.066  23.207   6.883
 5512POPC   C4A69270  32.200  23.034   7.290
 5512POPC   C1B69271  32.687  23.290   6.195
 5512POPC   C2B69272  32.590  23.308   6.619
 5512POPC   C3B69273  32.619  23.075   6.984
 5512POPC   C4B69274  32.650  23.269   7.367
 5513POPC   NC369275  39.539  21.681   5.211
 5513POPC   PO469276  39.489  21.041   5.577
 5513POPC   GL169277  39.237  21.289   5.897
 5513POPC   GL269278  38.966  21.546   5.768
 5513POPC   C1A69279  39.150  21.084   6.307
 5513POPC   D2A69280  38.977  21.108   6.736
 5513POPC   C3A69281  39.291  21.242   7.054
 5513POPC   C4A69282  39.454  21.053   7.445
 5513POPC   C1B69283  38.857  21.487   6.218
 5513POPC   C2B69284  39.080  21.612   6.579
 5513POPC   C3B69285  38.908  21.577   6.986
 5513POPC   C4B69286  39.075  21.617   7.365
 5514POPC   NC369287  31.759  25.662   5.398
 5514POPC   PO469288  31.161  25.909   5.485
 5514POPC   GL169289  31.454  26.006   5.836
 5514POPC   GL269290  31.691  25.759   5.914
 5514POPC   C1A69291  31.582  26.092   6.275
 5514POPC   D2A69292  31.571  25.793   6.624
 5514POPC   C3A69293  31.594  26.076   6.939
 5514POPC   C4A69294  31.590  26.221   7.347
 5514POPC   C1B69295  31.324  25.664   6.188
 5514POPC   C2B69296  31.076  25.789   6.485
 5514POPC   C3B69297  31.107  25.841   6.869
 5514POPC   C4B69298  31.330  25.795   7.243
 5515POPC   NC369299  30.901   3.877   5.337
 5515POPC   PO469300  30.417   3.342   5.437
 5515POPC   GL169301  30.605   3.430   5.818
 5515POPC   GL269302  30.890   3.645   5.789
 5515POPC   C1A69303  30.712   3.297   6.231
 5515POPC   D2A69304  30.563   3.259   6.645
 5515POPC   C3A69305  30.719   3.464   6.968
 5515POPC   C4A69306  30.647   3.790   7.232
 5515POPC   C1B69307  30.726   3.797   6.167
 5515POPC   C2B69308  30.946   3.663   6.533
 5515POPC   C3B69309  31.074   3.819   6.913
 5515POPC   C4B69310  31.092   3.601   7.321
 5516POPC   NC369311  35.838  42.082   5.587
 5516POPC   PO469312  36.253  41.649   5.407
 5516POPC   GL169313  36.301  41.544   5.783
 5516POPC   GL269314  35.954  41.645   5.835
 5516POPC   C1A69315  36.211  41.362   6.172
 5516POPC   D2A69316  36.360  41.514   6.533
 5516POPC   C3A69317  36.098  41.426   6.879
 5516POPC   C4A69318  36.233  41.387   7.287
 5516POPC   C1B69319  35.986  41.870   6.226
 5516POPC   C2B69320  36.053  41.925   6.661
 5516POPC   C3B69321  35.937  41.880   7.086
 5516POPC   C4B69322  35.888  41.728   7.479
 5517POPC   NC369323   4.101  16.862   5.199
 5517POPC   PO469324   3.434  16.718   5.351
 5517POPC   GL169325   3.568  16.774   5.776
 5517POPC   GL269326   3.428  16.447   5.894
 5517POPC   C1A69327   3.610  16.808   6.229
 5517POPC   D2A69328   3.363  16.584   6.496
 5517POPC   C3A69329   3.395  16.826   6.854
 5517POPC   C4A69330   3.497  16.794   7.292
 5517POPC   C1B69331   3.753  16.313   6.175
 5517POPC   C2B69332   3.827  16.410   6.595
 5517POPC   C3B69333   3.557  16.364   6.932
 5517POPC   C4B69334   3.693  16.237   7.280
 5518POPC   NC369335  37.775  39.772   5.138
 5518POPC   PO469336  37.680  40.480   5.085
 5518POPC   GL169337  37.649  40.198   5.519
 5518POPC   GL269338  37.938  39.984   5.623
 5518POPC   C1A69339  37.582  39.965   5.988
 5518POPC   D2A69340  37.650  39.633   6.363
 5518POPC   C3A69341  37.623  39.683   6.840
 5518POPC   C4A69342  37.667  40.058   7.103
 5518POPC   C1B69343  38.061  40.159   6.049
 5518POPC   C2B69344  37.902  40.169   6.492
 5518POPC   C3B69345  38.085  40.332   6.872
 5518POPC   C4B69346  38.059  40.308   7.326
 5519POPC   NC369347  36.349  34.829   5.312
 5519POPC   PO469348  36.070  35.499   5.371
 5519POPC   GL169349  36.117  35.467   5.798
 5519POPC   GL269350  36.419  35.264   5.770
 5519POPC   C1A69351  35.989  35.712   6.194
 5519POPC   D2A69352  35.885  35.669   6.636
 5519POPC   C3A69353  35.960  35.238   6.768
 5519POPC   C4A69354  36.107  35.034   7.109
 5519POPC   C1B69355  36.480  35.522   6.146
 5519POPC   C2B69356  36.363  35.507   6.582
 5519POPC   C3B69357  36.248  35.587   7.016
 5519POPC   C4B69358  36.360  35.776   7.396
 5520POPC   NC369359  31.242  10.374   5.653
 5520POPC   PO469360  30.594  10.532   5.429
 5520POPC   GL169361  30.642  10.192   5.757
 5520POPC   GL269362  30.805  10.456   5.911
 5520POPC   C1A69363  30.666  10.104   6.242
 5520POPC   D2A69364  30.674  10.383   6.633
 5520POPC   C3A69365  30.860  10.457   7.047
 5520POPC   C4A69366  30.728  10.561   7.467
 5520POPC   C1B69367  30.438  10.565   6.206
 5520POPC   C2B69368  30.288  10.769   6.586
 5520POPC   C3B69369  30.378  10.670   7.025
 5520POPC   C4B69370  30.501  10.994   7.341
 5521POPC   NC369371  25.340   5.878   5.319
 5521POPC   PO469372  25.043   6.460   5.223
 5521POPC   GL169373  25.319   6.255   5.659
 5521POPC   GL269374  25.126   5.907   5.774
 5521POPC   C1A69375  25.388   6.130   6.149
 5521POPC   D2A69376  25.421   6.340   6.593
 5521POPC   C3A69377  25.261   6.192   6.996
 5521POPC   C4A69378  25.244   5.786   7.183
 5521POPC   C1B69379  24.975   5.776   6.195
 5521POPC   C2B69380  25.099   5.682   6.644
 5521POPC   C3B69381  24.910   5.464   6.998
 5521POPC   C4B69382  25.070   5.336   7.450
 5522POPC   NC369383  41.106  36.333   5.431
 5522POPC   PO469384  40.769  35.831   5.492
 5522POPC   GL169385  40.742  36.114   5.809
 5522POPC   GL269386  40.406  36.241   5.841
 5522POPC   C1A69387  41.011  36.087   6.164
 5522POPC   D2A69388  41.074  36.208   6.586
 5522POPC   C3A69389  41.128  35.920   6.902
 5522POPC   C4A69390  41.204  36.099   7.258
 5522POPC   C1B69391  40.562  36.312   6.253
 5522POPC   C2B69392  40.575  36.150   6.659
 5522POPC   C3B69393  40.718  36.232   7.066
 5522POPC   C4B69394  40.442  36.224   7.468
 5523POPC   NC369395   1.924  29.355   5.621
 5523POPC   PO469396   1.818  28.716   5.696
 5523POPC   GL169397   1.797  28.861   6.057
 5523POPC   GL269398   2.126  29.029   6.001
 5523POPC   C1A69399   1.785  29.152   6.365
 5523POPC   D2A69400   2.151  29.065   6.574
 5523POPC   C3A69401   2.014  28.907   6.906
 5523POPC   C4A69402   1.771  29.119   7.191
 5523POPC   C1B69403   2.215  29.441   6.232
 5523POPC   C2B69404   2.372  29.513   6.656
 5523POPC   C3B69405   2.232  29.362   7.047
 5523POPC   C4B69406   2.178  29.616   7.391
 5524POPC   NC369407  19.462   0.693   5.428
 5524POPC   PO469408  18.928   0.305   5.314
 5524POPC   GL169409  19.058   0.436   5.733
 5524POPC   GL269410  19.152   0.779   5.832
 5524POPC   C1A69411  18.867   0.483   6.159
 5524POPC   D2A69412  18.845   0.298   6.572
 5524POPC   C3A69413  18.740   0.569   6.912
 5524POPC   C4A69414  19.018   0.516   7.224
 5524POPC   C1B69415  19.347   0.657   6.264
 5524POPC   C2B69416  19.273   0.558   6.731
 5524POPC   C3B69417  19.502   0.453   7.134
 5524POPC   C4B69418  19.414   0.351   7.587
 5525POPC   NC369419  28.734  22.062   5.447
 5525POPC   PO469420  29.359  22.272   5.370
 5525POPC   GL169421  29.179  22.199   5.776
 5525POPC   GL269422  28.883  22.385   5.856
 5525POPC   C1A69423  29.270  22.398   6.200
 5525POPC   D2A69424  29.480  22.272   6.578
 5525POPC   C3A69425  29.405  22.540   6.919
 5525POPC   C4A69426  29.243  22.418   7.312
 5525POPC   C1B69427  28.757  22.307   6.264
 5525POPC   C2B69428  28.964  22.092   6.604
 5525POPC   C3B69429  29.170  22.013   6.988
 5525POPC   C4B69430  29.029  21.677   7.222
 5526POPC   NC369431   1.105   8.725   5.443
 5526POPC   PO469432   0.764   9.268   5.322
 5526POPC   GL169433   1.100   9.136   5.729
 5526POPC   GL269434   1.066   8.787   5.932
 5526POPC   C1A69435   1.434   9.070   6.117
 5526POPC   D2A69436   1.296   8.929   6.558
 5526POPC   C3A69437   1.445   9.136   6.942
 5526POPC   C4A69438   1.613   9.123   7.376
 5526POPC   C1B69439   1.364   8.558   6.215
 5526POPC   C2B69440   1.535   8.466   6.650
 5526POPC   C3B69441   1.338   8.642   7.037
 5526POPC   C4B69442   1.105   8.585   7.412
 5527POPC   NC369443   5.093  22.988   5.481
 5527POPC   PO469444   5.722  22.985   5.304
 5527POPC   GL169445   5.526  23.061   5.781
 5527POPC   GL269446   5.527  22.740   6.032
 5527POPC   C1A69447   5.263  23.128   6.205
 5527POPC   D2A69448   5.290  22.846   6.620
 5527POPC   C3A69449   5.091  23.042   7.005
 5527POPC   C4A69450   4.781  23.302   7.256
 5527POPC   C1B69451   5.110  22.599   6.210
 5527POPC   C2B69452   4.821  22.639   6.598
 5527POPC   C3B69453   4.867  22.534   7.052
 5527POPC   C4B69454   4.888  22.795   7.417
 5528POPC   NC369455  10.918   1.082   5.505
 5528POPC   PO469456  10.294   1.279   5.442
 5528POPC   GL169457  10.511   1.424   5.834
 5528POPC   GL269458  10.896   1.479   5.828
 5528POPC   C1A69459  10.401   1.370   6.291
 5528POPC   D2A69460  10.167   1.144   6.627
 5528POPC   C3A69461  10.401   1.147   7.029
 5528POPC   C4A69462  10.693   1.484   7.190
 5528POPC   C1B69463  10.886   1.195   6.209
 5528POPC   C2B69464  10.760   1.114   6.648
 5528POPC   C3B69465  10.976   1.094   7.058
 5528POPC   C4B69466  10.971   1.171   7.512
 5529POPC   NC369467   0.118  28.977   5.470
 5529POPC   PO469468   0.617  29.335   5.479
 5529POPC   GL169469   0.515  29.002   5.809
 5529POPC   GL269470   0.177  28.911   5.984
 5529POPC   C1A69471   0.696  28.994   6.222
 5529POPC   D2A69472   0.890  29.319   6.483
 5529POPC   C3A69473   0.723  29.359   6.889
 5529POPC   C4A69474   0.643  29.047   7.236
 5529POPC   C1B69475   0.246  29.365   6.089
 5529POPC   C2B69476   0.379  29.582   6.484
 5529POPC   C3B69477   0.264  29.616   6.921
 5529POPC   C4B69478   0.208  29.308   7.239
 5530POPC   NC369479  12.541  22.589   5.510
 5530POPC   PO469480  11.916  23.049   5.389
 5530POPC   GL169481  12.163  22.879   5.737
 5530POPC   GL269482  12.471  23.059   5.731
 5530POPC   C1A69483  12.215  22.753   6.180
 5530POPC   D2A69484  12.277  22.696   6.643
 5530POPC   C3A69485  11.950  22.837   6.951
 5530POPC   C4A69486  11.888  22.910   7.399
 5530POPC   C1B69487  12.250  23.354   6.033
 5530POPC   C2B69488  12.304  23.488   6.483
 5530POPC   C3B69489  12.263  23.242   6.868
 5530POPC   C4B69490  12.241  23.316   7.302
 5531POPC   NC369491  23.025  14.715   5.204
 5531POPC   PO469492  22.908  15.368   5.292
 5531POPC   GL169493  22.885  15.275   5.795
 5531POPC   GL269494  23.209  15.328   5.945
 5531POPC   C1A69495  22.879  15.043   6.243
 5531POPC   D2A69496  22.664  14.908   6.648
 5531POPC   C3A69497  22.691  15.185   7.010
 5531POPC   C4A69498  23.063  15.444   7.163
 5531POPC   C1B69499  23.372  15.275   6.358
 5531POPC   C2B69500  23.115  15.193   6.707
 5531POPC   C3B69501  23.112  14.893   7.036
 5531POPC   C4B69502  23.232  14.693   7.458
 5532POPC   NC369503  24.318  13.080   5.101
 5532POPC   PO469504  24.541  12.612   5.589
 5532POPC   GL169505  24.483  12.682   5.978
 5532POPC   GL269506  24.836  12.598   6.042
 5532POPC   C1A69507  24.221  12.831   6.321
 5532POPC   D2A69508  24.326  12.870   6.747
 5532POPC   C3A69509  24.242  12.754   7.168
 5532POPC   C4A69510  24.347  12.996   7.546
 5532POPC   C1B69511  24.762  12.992   6.289
 5532POPC   C2B69512  24.771  13.142   6.724
 5532POPC   C3B69513  24.697  12.954   7.131
 5532POPC   C4B69514  24.650  12.610   7.454
 5533POPC   NC369515  35.701  13.335   5.518
 5533POPC   PO469516  35.435  13.910   5.266
 5533POPC   GL169517  35.372  13.711   5.698
 5533POPC   GL269518  35.617  13.583   5.944
 5533POPC   C1A69519  35.157  13.675   6.124
 5533POPC   D2A69520  35.168  13.823   6.572
 5533POPC   C3A69521  35.168  13.546   6.929
 5533POPC   C4A69522  35.029  13.470   7.343
 5533POPC   C1B69523  35.562  13.506   6.405
 5533POPC   C2B69524  35.678  13.459   6.848
 5533POPC   C3B69525  35.546  13.460   7.280
 5533POPC   C4B69526  35.683  13.319   7.676
 5534POPC   NC369527  43.782  13.837   5.461
 5534POPC   PO469528  44.330  13.557   5.492
 5534POPC   GL169529  43.981  13.491   5.782
 5534POPC   GL269530  44.148  13.569   6.065
 5534POPC   C1A69531  43.615  13.454   6.103
 5534POPC   D2A69532  43.446  13.605   6.491
 5534POPC   C3A69533  43.700  13.655   6.853
 5534POPC   C4A69534  43.854  13.395   7.175
 5534POPC   C1B69535  43.936  13.786   6.395
 5534POPC   C2B69536  44.022  14.047   6.764
 5534POPC   C3B69537  44.036  13.900   7.200
 5534POPC   C4B69538  44.141  13.976   7.671
 5535POPC   NC369539  32.912  40.047   5.246
 5535POPC   PO469540  33.008  40.776   5.287
 5535POPC   GL169541  32.982  40.784   5.751
 5535POPC   GL269542  32.686  40.631   5.938
 5535POPC   C1A69543  33.164  40.770   6.172
 5535POPC   D2A69544  33.254  41.039   6.537
 5535POPC   C3A69545  33.340  40.915   6.951
 5535POPC   C4A69546  33.074  41.096   7.237
 5535POPC   C1B69547  32.826  40.400   6.283
 5535POPC   C2B69548  33.094  40.519   6.651
 5535POPC   C3B69549  32.993  40.566   7.106
 5535POPC   C4B69550  32.871  40.399   7.508
 5536POPC   NC369551  18.497  27.379   5.349
 5536POPC   PO469552  19.139  27.566   5.502
 5536POPC   GL169553  19.022  27.860   5.829
 5536POPC   GL269554  18.656  27.792   5.728
 5536POPC   C1A69555  19.089  27.822   6.289
 5536POPC   D2A69556  18.928  27.466   6.518
 5536POPC   C3A69557  19.087  27.258   6.878
 5536POPC   C4A69558  19.026  27.376   7.264
 5536POPC   C1B69559  18.599  27.774   6.163
 5536POPC   C2B69560  18.683  27.928   6.579
 5536POPC   C3B69561  18.894  27.768   6.934
 5536POPC   C4B69562  18.642  27.713   7.280
 5537POPC   NC369563  35.137  36.884   5.405
 5537POPC   PO469564  34.499  36.992   5.211
 5537POPC   GL169565  34.530  37.052   5.648
 5537POPC   GL269566  34.762  36.788   5.757
 5537POPC   C1A69567  34.481  37.049   6.106
 5537POPC   D2A69568  34.631  36.869   6.500
 5537POPC   C3A69569  34.672  37.104   6.903
 5537POPC   C4A69570  34.483  36.913   7.248
 5537POPC   C1B69571  35.004  36.673   6.100
 5537POPC   C2B69572  35.133  36.776   6.507
 5537POPC   C3B69573  34.938  36.647   6.867
 5537POPC   C4B69574  34.986  36.728   7.264
 5538POPC   NC369575  40.947  23.912   5.572
 5538POPC   PO469576  40.505  23.442   5.399
 5538POPC   GL169577  40.783  23.486   5.774
 5538POPC   GL269578  40.940  23.204   5.951
 5538POPC   C1A69579  40.910  23.676   6.183
 5538POPC   D2A69580  40.861  24.003   6.490
 5538POPC   C3A69581  40.852  23.870   6.928
 5538POPC   C4A69582  40.877  24.042   7.329
 5538POPC   C1B69583  40.522  23.333   6.152
 5538POPC   C2B69584  40.463  23.578   6.518
 5538POPC   C3B69585  40.469  23.538   6.935
 5538POPC   C4B69586  40.412  23.379   7.300
 5539POPC   NC369587   2.836  38.477   5.599
 5539POPC   PO469588   3.457  38.491   5.476
 5539POPC   GL169589   3.542  38.501   5.874
 5539POPC   GL269590   3.205  38.593   5.927
 5539POPC   C1A69591   3.755  38.431   6.262
 5539POPC   D2A69592   3.688  38.161   6.610
 5539POPC   C3A69593   3.816  38.354   6.981
 5539POPC   C4A69594   3.860  38.489   7.404
 5539POPC   C1B69595   3.248  38.661   6.330
 5539POPC   C2B69596   3.206  38.911   6.703
 5539POPC   C3B69597   3.489  38.777   7.049
 5539POPC   C4B69598   3.380  38.390   7.270
 5540POPC   NC369599   5.055   5.703   5.253
 5540POPC   PO469600   5.614   5.260   5.597
 5540POPC   GL169601   5.419   5.635   5.893
 5540POPC   GL269602   5.043   5.726   5.858
 5540POPC   C1A69603   5.285   5.988   6.228
 5540POPC   D2A69604   5.010   6.071   6.623
 5540POPC   C3A69605   5.225   6.226   7.019
 5540POPC   C4A69606   5.362   6.113   7.434
 5540POPC   C1B69607   4.913   5.646   6.306
 5540POPC   C2B69608   5.143   5.586   6.684
 5540POPC   C3B69609   5.149   5.740   7.092
 5540POPC   C4B69610   4.860   5.916   7.420
 5541POPC   NC369611  14.708   7.222   5.122
 5541POPC   PO469612  14.270   7.598   5.500
 5541POPC   GL169613  14.229   7.444   5.889
 5541POPC   GL269614  14.534   7.245   5.910
 5541POPC   C1A69615  14.404   7.546   6.320
 5541POPC   D2A69616  14.777   7.581   6.586
 5541POPC   C3A69617  14.622   7.598   7.012
 5541POPC   C4A69618  14.189   7.575   7.122
 5541POPC   C1B69619  14.211   7.083   6.239
 5541POPC   C2B69620  14.066   7.274   6.637
 5541POPC   C3B69621  14.037   7.093   7.054
 5541POPC   C4B69622  14.222   7.149   7.454
 5542POPC   NC369623  13.172  28.216   5.460
 5542POPC   PO469624  12.565  28.093   5.584
 5542POPC   GL169625  12.818  28.351   5.894
 5542POPC   GL269626  13.152  28.538   5.856
 5542POPC   C1A69627  12.902  28.519   6.330
 5542POPC   D2A69628  13.108  28.521   6.733
 5542POPC   C3A69629  12.880  28.249   6.998
 5542POPC   C4A69630  12.663  28.369   7.322
 5542POPC   C1B69631  13.233  28.169   6.145
 5542POPC   C2B69632  13.108  28.027   6.563
 5542POPC   C3B69633  13.347  28.101   6.958
 5542POPC   C4B69634  13.200  28.147   7.407
 5543POPC   NC369635  42.605  24.287   5.081
 5543POPC   PO469636  42.108  24.490   5.473
 5543POPC   GL169637  42.157  24.756   5.791
 5543POPC   GL269638  42.502  24.790   5.704
 5543POPC   C1A69639  42.084  24.632   6.206
 5543POPC   D2A69640  42.226  24.378   6.548
 5543POPC   C3A69641  42.029  24.432   6.950
 5543POPC   C4A69642  42.127  24.583   7.350
 5543POPC   C1B69643  42.613  24.617   6.125
 5543POPC   C2B69644  42.592  24.755   6.554
 5543POPC   C3B69645  42.496  24.633   6.982
 5543POPC   C4B69646  42.724  24.353   7.270
 5544POPC   NC369647  14.709  14.833   5.372
 5544POPC   PO469648  14.324  15.294   5.524
 5544POPC   GL169649  14.406  14.963   5.842
 5544POPC   GL269650  14.709  15.113   5.882
 5544POPC   C1A69651  14.513  14.844   6.256
 5544POPC   D2A69652  14.792  15.018   6.592
 5544POPC   C3A69653  14.647  14.993   7.004
 5544POPC   C4A69654  14.740  14.787   7.390
 5544POPC   C1B69655  14.595  15.353   6.248
 5544POPC   C2B69656  14.559  15.487   6.663
 5544POPC   C3B69657  14.522  15.495   7.075
 5544POPC   C4B69658  14.491  15.757   7.466
 5545POPC   NC369659  23.762  38.879   5.223
 5545POPC   PO469660  24.079  39.357   5.574
 5545POPC   GL169661  23.871  39.249   5.955
 5545POPC   GL269662  23.761  38.960   5.846
 5545POPC   C1A69663  23.538  39.062   6.277
 5545POPC   D2A69664  23.411  38.765   6.607
 5545POPC   C3A69665  23.542  38.983   6.962
 5545POPC   C4A69666  23.602  39.346   7.205
 5545POPC   C1B69667  24.013  38.860   6.245
 5545POPC   C2B69668  24.062  38.802   6.682
 5545POPC   C3B69669  24.049  39.029   7.051
 5545POPC   C4B69670  23.831  38.940   7.422
 5546POPC   NC369671  39.202  17.769   5.492
 5546POPC   PO469672  39.682  17.275   5.589
 5546POPC   GL169673  39.386  17.324   5.964
 5546POPC   GL269674  39.319  17.668   5.970
 5546POPC   C1A69675  39.055  17.432   6.334
 5546POPC   D2A69676  38.752  17.499   6.702
 5546POPC   C3A69677  38.833  17.453   7.125
 5546POPC   C4A69678  39.191  17.598   7.306
 5546POPC   C1B69679  39.333  17.873   6.374
 5546POPC   C2B69680  39.454  17.636   6.734
 5546POPC   C3B69681  39.658  17.668   7.116
 5546POPC   C4B69682  39.494  17.993   7.415
 5547POPC   NC369683   4.182   3.877   5.468
 5547POPC   PO469684   4.077   4.491   5.230
 5547POPC   GL169685   4.010   4.415   5.711
 5547POPC   GL269686   4.308   4.265   5.804
 5547POPC   C1A69687   4.064   4.447   6.202
 5547POPC   D2A69688   4.313   4.188   6.535
 5547POPC   C3A69689   4.181   4.288   6.950
 5547POPC   C4A69690   3.872   4.566   7.153
 5547POPC   C1B69691   4.581   4.462   6.136
 5547POPC   C2B69692   4.781   4.428   6.527
 5547POPC   C3B69693   4.711   4.244   6.904
 5547POPC   C4B69694   4.566   4.346   7.325
 5548POPC   NC369695  37.047  39.029   5.295
 5548POPC   PO469696  37.447  39.561   5.403
 5548POPC   GL169697  37.198  39.282   5.765
 5548POPC   GL269698  36.852  39.092   5.760
 5548POPC   C1A69699  36.926  39.354   6.177
 5548POPC   D2A69700  36.590  39.482   6.491
 5548POPC   C3A69701  36.735  39.551   6.905
 5548POPC   C4A69702  37.101  39.396   7.066
 5548POPC   C1B69703  37.060  38.856   6.097
 5548POPC   C2B69704  36.967  38.649   6.501
 5548POPC   C3B69705  36.892  38.835   6.914
 5548POPC   C4B69706  36.630  39.129   7.214
 5549POPC   NC369707  20.925   8.601   5.447
 5549POPC   PO469708  21.529   8.184   5.465
 5549POPC   GL169709  21.432   8.316   5.882
 5549POPC   GL269710  21.124   8.482   5.906
 5549POPC   C1A69711  21.377   8.206   6.338
 5549POPC   D2A69712  21.388   8.333   6.792
 5549POPC   C3A69713  21.573   8.185   7.198
 5549POPC   C4A69714  21.630   8.373   7.654
 5549POPC   C1B69715  20.885   8.209   6.183
 5549POPC   C2B69716  20.927   8.069   6.635
 5549POPC   C3B69717  21.089   8.008   7.059
 5549POPC   C4B69718  21.061   8.166   7.480
 5550POPC   NC369719  33.473   2.745   5.368
 5550POPC   PO469720  34.054   2.997   5.213
 5550POPC   GL169721  33.923   3.097   5.666
 5550POPC   GL269722  33.593   2.958   5.799
 5550POPC   C1A69723  34.010   2.870   6.096
 5550POPC   D2A69724  34.307   2.827   6.474
 5550POPC   C3A69725  34.077   2.853   6.882
 5550POPC   C4A69726  33.955   3.024   7.272
 5550POPC   C1B69727  33.466   2.920   6.241
 5550POPC   C2B69728  33.608   2.735   6.615
 5550POPC   C3B69729  33.518   2.846   7.027
 5550POPC   C4B69730  33.559   2.712   7.455
 5551POPC   NC369731   7.557  13.198   4.954
 5551POPC   PO469732   7.112  13.548   5.369
 5551POPC   GL169733   7.358  13.640   5.720
 5551POPC   GL269734   7.646  13.828   5.585
 5551POPC   C1A69735   7.253  13.610   6.167
 5551POPC   D2A69736   7.275  13.873   6.538
 5551POPC   C3A69737   7.257  13.652   6.923
 5551POPC   C4A69738   7.119  13.551   7.342
 5551POPC   C1B69739   7.727  13.743   6.033
 5551POPC   C2B69740   7.754  13.682   6.473
 5551POPC   C3B69741   7.811  13.840   6.882
 5551POPC   C4B69742   7.608  13.769   7.305
 5552POPC   NC369743  29.405  25.869   5.490
 5552POPC   PO469744  28.742  26.058   5.345
 5552POPC   GL169745  28.954  25.968   5.738
 5552POPC   GL269746  28.913  26.323   5.772
 5552POPC   C1A69747  29.190  25.795   6.123
 5552POPC   D2A69748  29.334  25.635   6.514
 5552POPC   C3A69749  29.273  25.796   6.904
 5552POPC   C4A69750  29.101  25.935   7.288
 5552POPC   C1B69751  29.111  26.285   6.141
 5552POPC   C2B69752  29.237  26.191   6.554
 5552POPC   C3B69753  29.037  26.300   6.935
 5552POPC   C4B69754  28.876  26.383   7.380
 5553POPC   NC369755   1.795  40.654   5.473
 5553POPC   PO469756   2.467  40.662   5.276
 5553POPC   GL169757   2.359  40.820   5.714
 5553POPC   GL269758   2.056  41.022   5.738
 5553POPC   C1A69759   2.162  40.702   6.131
 5553POPC   D2A69760   1.916  40.847   6.500
 5553POPC   C3A69761   2.138  40.811   6.908
 5553POPC   C4A69762   2.226  40.475   7.205
 5553POPC   C1B69763   1.748  41.128   6.070
 5553POPC   C2B69764   1.662  41.319   6.483
 5553POPC   C3B69765   1.724  41.103   6.910
 5553POPC   C4B69766   1.766  40.747   7.249
 5554POPC   NC369767  31.923  35.940   5.574
 5554POPC   PO469768  32.362  36.354   5.484
 5554POPC   GL169769  32.362  36.157   5.871
 5554POPC   GL269770  32.637  35.929   5.977
 5554POPC   C1A69771  32.311  36.177   6.312
 5554POPC   D2A69772  32.022  36.007   6.622
 5554POPC   C3A69773  32.095  36.220   7.012
 5554POPC   C4A69774  32.457  36.227   7.260
 5554POPC   C1B69775  32.400  35.656   6.269
 5554POPC   C2B69776  32.480  35.501   6.690
 5554POPC   C3B69777  32.380  35.785   7.023
 5554POPC   C4B69778  32.406  35.775   7.509
 5555POPC   NC369779   8.659  44.661   5.347
 5555POPC   PO469780   9.229  44.306   5.363
 5555POPC   GL169781   8.978  44.481   5.733
 5555POPC   GL269782   9.025  44.806   5.864
 5555POPC   C1A69783   8.888  44.427   6.188
 5555POPC   D2A69784   8.829  44.598   6.614
 5555POPC   C3A69785   8.862  44.978   6.857
 5555POPC   C4A69786   8.818  44.872   7.270
 5555POPC   C1B69787   9.386  44.985   6.080
 5555POPC   C2B69788   9.234  44.960   6.487
 5555POPC   C3B69789   9.382   0.067   6.854
 5555POPC   C4B69790   9.276   0.092   7.236
 5556POPC   NC369791  17.427   8.590   5.554
 5556POPC   PO469792  17.667   9.236   5.321
 5556POPC   GL169793  17.660   9.196   5.778
 5556POPC   GL269794  17.898   9.444   5.834
 5556POPC   C1A69795  17.395   9.134   6.175
 5556POPC   D2A69796  17.166   8.961   6.561
 5556POPC   C3A69797  17.328   8.874   6.987
 5556POPC   C4A69798  17.206   8.674   7.393
 5556POPC   C1B69799  17.919   9.263   6.265
 5556POPC   C2B69800  18.013   9.389   6.691
 5556POPC   C3B69801  17.859   9.259   7.107
 5556POPC   C4B69802  17.396   9.303   7.262
 5557POPC   NC369803  24.348  21.054   5.628
 5557POPC   PO469804  24.446  20.482   5.348
 5557POPC   GL169805  24.509  20.566   5.787
 5557POPC   GL269806  24.734  20.267   5.771
 5557POPC   C1A69807  24.588  20.866   6.195
 5557POPC   D2A69808  24.388  20.943   6.614
 5557POPC   C3A69809  24.579  20.791   7.056
 5557POPC   C4A69810  24.486  20.716   7.526
 5557POPC   C1B69811  24.753  20.391   6.197
 5557POPC   C2B69812  24.641  20.503   6.598
 5557POPC   C3B69813  24.819  20.352   6.957
 5557POPC   C4B69814  24.640  20.234   7.325
 5558POPC   NC369815  10.378   2.313   5.423
 5558POPC   PO469816  10.512   2.916   5.292
 5558POPC   GL169817  10.518   2.823   5.756
 5558POPC   GL269818  10.289   2.544   5.887
 5558POPC   C1A69819  10.488   2.999   6.180
 5558POPC   D2A69820  10.716   3.066   6.574
 5558POPC   C3A69821  10.471   2.944   6.932
 5558POPC   C4A69822  10.497   2.878   7.388
 5558POPC   C1B69823  10.543   2.507   6.268
 5558POPC   C2B69824  10.537   2.514   6.689
 5558POPC   C3B69825  10.531   2.444   7.108
 5558POPC   C4B69826  10.489   2.389   7.555
 5559POPC   NC369827  24.057  14.517   5.397
 5559POPC   PO469828  23.361  14.491   5.451
 5559POPC   GL169829  23.430  14.359   5.834
 5559POPC   GL269830  23.780  14.444   5.837
 5559POPC   C1A69831  23.498  14.483   6.272
 5559POPC   D2A69832  23.435  14.797   6.610
 5559POPC   C3A69833  23.594  14.699   7.028
 5559POPC   C4A69834  23.688  14.358   7.320
 5559POPC   C1B69835  24.003  14.549   6.231
 5559POPC   C2B69836  24.071  14.405   6.659
 5559POPC   C3B69837  24.106  14.551   7.101
 5559POPC   C4B69838  24.160  14.519   7.562
 5560POPC   NC369839   8.088  44.229   5.091
 5560POPC   PO469840   8.193  43.738   5.499
 5560POPC   GL169841   8.291  43.882   5.866
 5560POPC   GL269842   7.963  43.815   5.967
 5560POPC   C1A69843   8.423  43.742   6.223
 5560POPC   D2A69844   8.221  43.591   6.583
 5560POPC   C3A69845   8.406  43.834   6.914
 5560POPC   C4A69846   8.341  44.039   7.294
 5560POPC   C1B69847   8.032  44.024   6.351
 5560POPC   C2B69848   8.100  44.293   6.659
 5560POPC   C3B69849   8.006  44.332   7.069
 5560POPC   C4B69850   7.963  44.668   7.315
 5561POPC   NC369851  28.800  18.044   5.471
 5561POPC   PO469852  28.270  18.476   5.480
 5561POPC   GL169853  28.348  18.127   5.771
 5561POPC   GL269854  27.996  18.121   5.901
 5561POPC   C1A69855  28.434  18.058   6.212
 5561POPC   D2A69856  28.280  18.342   6.550
 5561POPC   C3A69857  28.438  18.226   6.944
 5561POPC   C4A69858  28.763  18.358   7.236
 5561POPC   C1B69859  27.976  17.873   6.281
 5561POPC   C2B69860  28.214  17.841   6.673
 5561POPC   C3B69861  28.149  17.873   7.137
 5561POPC   C4B69862  28.100  17.887   7.582
 5562POPC   NC369863  17.468  14.044   5.313
 5562POPC   PO469864  17.765  13.424   5.211
 5562POPC   GL169865  17.721  13.541   5.716
 5562POPC   GL269866  17.364  13.534   5.805
 5562POPC   C1A69867  17.686  13.488   6.212
 5562POPC   D2A69868  17.415  13.578   6.603
 5562POPC   C3A69869  17.574  13.685   7.024
 5562POPC   C4A69870  17.517  13.577   7.455
 5562POPC   C1B69871  17.233  13.777   6.157
 5562POPC   C2B69872  17.048  13.935   6.528
 5562POPC   C3B69873  17.172  14.032   6.962
 5562POPC   C4B69874  17.273  14.005   7.404
 5563POPC   NC369875  27.426   8.384   5.458
 5563POPC   PO469876  27.855   7.852   5.499
 5563POPC   GL169877  27.599   8.027   5.833
 5563POPC   GL269878  27.761   8.374   5.896
 5563POPC   C1A69879  27.554   8.125   6.296
 5563POPC   D2A69880  27.742   8.372   6.621
 5563POPC   C3A69881  27.654   8.257   7.051
 5563POPC   C4A69882  27.759   8.292   7.507
 5563POPC   C1B69883  27.380   8.563   6.107
 5563POPC   C2B69884  27.160   8.446   6.495
 5563POPC   C3B69885  27.177   8.416   6.944
 5563POPC   C4B69886  27.294   8.439   7.385
 5564POPC   NC369887   0.717  25.447   5.464
 5564POPC   PO469888   0.197  25.105   5.507
 5564POPC   GL169889   0.305  25.323   5.892
 5564POPC   GL269890   0.677  25.290   5.948
 5564POPC   C1A69891   0.218  25.325   6.350
 5564POPC   D2A69892   0.261  25.047   6.679
 5564POPC   C3A69893   0.259  25.162   7.110
 5564POPC   C4A69894   0.555  24.907   7.336
 5564POPC   C1B69895   0.597  25.643   6.200
 5564POPC   C2B69896   0.591  25.875   6.571
 5564POPC   C3B69897   0.738  25.844   6.973
 5564POPC   C4B69898   0.512  25.603   7.268
 5565POPC   NC369899   2.307  16.860   5.368
 5565POPC   PO469900   1.720  16.505   5.561
 5565POPC   GL169901   1.947  16.815   5.793
 5565POPC   GL269902   2.238  16.626   5.819
 5565POPC   C1A69903   2.013  16.873   6.262
 5565POPC   D2A69904   2.012  16.684   6.722
 5565POPC   C3A69905   1.853  16.911   7.117
 5565POPC   C4A69906   1.719  16.994   7.597
 5565POPC   C1B69907   2.238  16.294   6.100
 5565POPC   C2B69908   2.384  16.330   6.483
 5565POPC   C3B69909   2.440  16.395   6.861
 5565POPC   C4B69910   2.157  16.477   7.183
 5566POPC   NC369911  11.123  18.337   5.508
 5566POPC   PO469912  11.571  17.882   5.445
 5566POPC   GL169913  11.496  18.154   5.799
 5566POPC   GL269914  11.485  18.490   5.848
 5566POPC   C1A69915  11.151  18.312   6.158
 5566POPC   D2A69916  11.037  18.109   6.528
 5566POPC   C3A69917  11.135  18.285   6.890
 5566POPC   C4A69918  11.120  18.114   7.281
 5566POPC   C1B69919  11.512  18.679   6.251
 5566POPC   C2B69920  11.555  18.510   6.677
 5566POPC   C3B69921  11.586  18.634   7.131
 5566POPC   C4B69922  11.338  18.514   7.536
 5567POPC   NC369923  24.887  22.362   5.473
 5567POPC   PO469924  24.243  21.938   5.411
 5567POPC   GL169925  24.449  22.117   5.762
 5567POPC   GL269926  24.758  21.970   5.837
 5567POPC   C1A69927  24.534  22.269   6.205
 5567POPC   D2A69928  24.454  22.573   6.559
 5567POPC   C3A69929  24.305  22.454   6.944
 5567POPC   C4A69930  24.385  22.107   7.137
 5567POPC   C1B69931  24.753  21.796   6.255
 5567POPC   C2B69932  24.538  21.923   6.653
 5567POPC   C3B69933  24.703  21.730   7.054
 5567POPC   C4B69934  25.008  21.931   7.328
 5568POPC   NC369935  28.267  13.294   5.298
 5568POPC   PO469936  28.577  12.756   5.368
 5568POPC   GL169937  28.500  12.788   5.833
 5568POPC   GL269938  28.210  12.580   5.884
 5568POPC   C1A69939  28.406  12.842   6.322
 5568POPC   D2A69940  28.239  12.573   6.703
 5568POPC   C3A69941  28.244  12.817   7.110
 5568POPC   C4A69942  28.590  13.094   7.281
 5568POPC   C1B69943  28.532  12.396   6.166
 5568POPC   C2B69944  28.739  12.495   6.598
 5568POPC   C3B69945  28.656  12.522   7.066
 5568POPC   C4B69946  28.552  12.628   7.518
 5569POPC   NC369947  38.389  15.149   5.282
 5569POPC   PO469948  38.811  15.621   5.542
 5569POPC   GL169949  38.698  15.244   5.719
 5569POPC   GL269950  38.344  15.280   5.779
 5569POPC   C1A69951  38.722  15.264   6.152
 5569POPC   D2A69952  38.828  15.324   6.553
 5569POPC   C3A69953  38.726  15.028   6.913
 5569POPC   C4A69954  38.579  15.082   7.369
 5569POPC   C1B69955  38.231  15.113   6.173
 5569POPC   C2B69956  38.321  15.263   6.565
 5569POPC   C3B69957  38.282  15.218   6.979
 5569POPC   C4B69958  38.086  15.240   7.359
 5570POPC   NC369959   8.083  10.832   5.695
 5570POPC   PO469960   7.917  10.361   5.367
 5570POPC   GL169961   8.021  10.305   5.798
 5570POPC   GL269962   8.391  10.396   5.767
 5570POPC   C1A69963   8.238  10.180   6.207
 5570POPC   D2A69964   8.352  10.379   6.617
 5570POPC   C3A69965   8.084  10.307   6.970
 5570POPC   C4A69966   7.833  10.487   7.286
 5570POPC   C1B69967   8.473  10.629   6.174
 5570POPC   C2B69968   8.376  10.911   6.507
 5570POPC   C3B69969   8.377  10.857   6.950
 5570POPC   C4B69970   8.721  10.883   7.242
 5571POPC   NC369971   8.464  31.681   5.438
 5571POPC   PO469972   8.410  30.983   5.441
 5571POPC   GL169973   8.227  31.311   5.717
 5571POPC   GL269974   7.900  31.447   5.601
 5571POPC   C1A69975   8.329  31.308   6.187
 5571POPC   D2A69976   8.688  31.468   6.481
 5571POPC   C3A69977   8.582  31.605   6.911
 5571POPC   C4A69978   8.273  31.546   7.227
 5571POPC   C1B69979   7.817  31.274   6.033
 5571POPC   C2B69980   7.786  31.261   6.482
 5571POPC   C3B69981   7.829  31.401   6.911
 5571POPC   C4B69982   7.972  31.128   7.216
 5572POPC   NC369983  43.864  39.224   5.306
 5572POPC   PO469984  44.518  39.317   5.620
 5572POPC   GL169985  44.241  39.535   5.896
 5572POPC   GL269986  43.910  39.471   5.764
 5572POPC   C1A69987  44.189  39.371   6.302
 5572POPC   D2A69988  43.934  39.266   6.657
 5572POPC   C3A69989  44.102  39.300   7.071
 5572POPC   C4A69990  44.037  38.996   7.408
 5572POPC   C1B69991  43.714  39.578   6.162
 5572POPC   C2B69992  43.646  39.671   6.606
 5572POPC   C3B69993  43.644  39.558   7.008
 5572POPC   C4B69994  43.623  39.288   7.304
 5573POPC   NC369995  15.406  33.099   5.372
 5573POPC   PO469996  14.982  32.485   5.359
 5573POPC   GL169997  15.027  32.738   5.745
 5573POPC   GL269998  15.102  33.107   5.807
 5573POPC   C1A69999  15.195  32.798   6.174
 5573POPC   D2A70000  15.287  33.030   6.538
 5573POPC   C3A70001  15.124  32.913   6.888
 5573POPC   C4A70002  15.141  32.818   7.274
 5573POPC   C1B70003  15.182  33.375   6.187
 5573POPC   C2B70004  15.014  33.435   6.664
 5573POPC   C3B70005  15.201  33.353   7.110
 5573POPC   C4B70006  15.073  33.223   7.556
 5574POPC   NC370007  18.147  15.384   5.354
 5574POPC   PO470008  18.592  14.962   5.452
 5574POPC   GL170009  18.357  15.211   5.786
 5574POPC   GL270010  18.027  15.446   5.832
 5574POPC   C1A70011  18.203  15.126   6.188
 5574POPC   D2A70012  18.384  15.305   6.528
 5574POPC   C3A70013  18.458  15.046   6.836
 5574POPC   C4A70014  18.208  14.921   7.164
 5574POPC   C1B70015  18.088  15.643   6.236
 5574POPC   C2B70016  17.946  15.540   6.645
 5574POPC   C3B70017  18.092  15.472   7.032
 5574POPC   C4B70018  17.915  15.646   7.425
 5575POPC   NC370019  17.273  21.978   5.403
 5575POPC   PO470020  17.837  22.378   5.519
 5575POPC   GL170021  17.634  22.112   5.798
 5575POPC   GL270022  17.309  22.206   5.841
 5575POPC   C1A70023  17.624  22.102   6.229
 5575POPC   D2A70024  17.830  22.387   6.469
 5575POPC   C3A70025  17.799  22.291   6.854
 5575POPC   C4A70026  17.646  22.204   7.215
 5575POPC   C1B70027  17.119  22.006   6.131
 5575POPC   C2B70028  17.084  22.073   6.570
 5575POPC   C3B70029  17.226  22.271   6.944
 5575POPC   C4B70030  17.156  22.388   7.371
 5576POPC   NC370031  23.563  15.562   5.053
 5576POPC   PO470032  23.813  16.043   5.379
 5576POPC   GL170033  23.765  15.918   5.791
 5576POPC   GL270034  23.445  15.947   5.849
 5576POPC   C1A70035  23.864  16.071   6.208
 5576POPC   D2A70036  23.670  15.977   6.622
 5576POPC   C3A70037  23.889  15.943   7.021
 5576POPC   C4A70038  24.092  15.991   7.444
 5576POPC   C1B70039  23.331  15.775   6.242
 5576POPC   C2B70040  23.194  15.704   6.673
 5576POPC   C3B70041  23.292  15.918   7.062
 5576POPC   C4B70042  23.422  16.341   7.181
 5577POPC   NC370043  23.704  17.169   5.427
 5577POPC   PO470044  24.017  17.725   5.107
 5577POPC   GL170045  23.873  17.684   5.566
 5577POPC   GL270046  23.551  17.837   5.631
 5577POPC   C1A70047  23.945  17.479   6.021
 5577POPC   D2A70048  23.945  17.591   6.486
 5577POPC   C3A70049  23.855  17.298   6.847
 5577POPC   C4A70050  23.824  17.323   7.314
 5577POPC   C1B70051  23.598  17.843   6.100
 5577POPC   C2B70052  23.421  17.718   6.526
 5577POPC   C3B70053  23.541  17.697   6.990
 5577POPC   C4B70054  23.433  17.605   7.442
 5578POPC   NC370055  25.151   9.825   5.411
 5578POPC   PO470056  24.510   9.910   5.600
 5578POPC   GL170057  24.898   9.827   5.850
 5578POPC   GL270058  25.071   9.476   5.798
 5578POPC   C1A70059  25.099   9.949   6.233
 5578POPC   D2A70060  25.031   9.802   6.647
 5578POPC   C3A70061  25.116  10.077   6.997
 5578POPC   C4A70062  25.358   9.996   7.346
 5578POPC   C1B70063  25.216   9.458   6.223
 5578POPC   C2B70064  25.530   9.661   6.475
 5578POPC   C3B70065  25.521   9.720   6.909
 5578POPC   C4B70066  25.517   9.497   7.293
 5579POPC   NC370067  37.636  25.742   5.392
 5579POPC   PO470068  37.388  25.092   5.573
 5579POPC   GL170069  37.582  25.416   5.792
 5579POPC   GL270070  37.927  25.346   5.788
 5579POPC   C1A70071  37.613  25.408   6.235
 5579POPC   D2A70072  37.660  25.155   6.600
 5579POPC   C3A70073  37.663  25.433   6.938
 5579POPC   C4A70074  37.501  25.410   7.345
 5579POPC   C1B70075  37.982  25.056   6.159
 5579POPC   C2B70076  37.955  24.750   6.489
 5579POPC   C3B70077  38.057  24.906   6.912
 5579POPC   C4B70078  37.775  24.886   7.248
 5580POPC   NC370079  18.419  24.536   5.509
 5580POPC   PO470080  17.882  24.185   5.526
 5580POPC   GL170081  18.092  24.361   5.873
 5580POPC   GL270082  18.197  24.725   5.917
 5580POPC   C1A70083  18.274  24.370   6.252
 5580POPC   D2A70084  18.175  24.522   6.626
 5580POPC   C3A70085  18.421  24.373   6.953
 5580POPC   C4A70086  18.159  24.412   7.281
 5580POPC   C1B70087  18.320  24.910   6.323
 5580POPC   C2B70088  18.537  24.862   6.727
 5580POPC   C3B70089  18.390  24.849   7.145
 5580POPC   C4B70090  18.235  24.856   7.622
 5581POPC   NC370091   7.267  14.620   5.366
 5581POPC   PO470092   7.429  15.275   5.379
 5581POPC   GL170093   7.461  15.028   5.763
 5581POPC   GL270094   7.129  14.862   5.823
 5581POPC   C1A70095   7.438  15.224   6.176
 5581POPC   D2A70096   7.294  15.313   6.589
 5581POPC   C3A70097   7.614  15.173   6.867
 5581POPC   C4A70098   7.665  15.417   7.209
 5581POPC   C1B70099   7.057  14.888   6.272
 5581POPC   C2B70100   7.196  14.830   6.702
 5581POPC   C3B70101   7.205  15.054   7.123
 5581POPC   C4B70102   7.056  14.943   7.526
 5582POPC   NC370103   0.010  42.338   5.216
 5582POPC   PO470104  44.418  42.421   5.457
 5582POPC   GL170105  44.427  42.467   5.871
 5582POPC   GL270106  44.765  42.539   5.850
 5582POPC   C1A70107  44.496  42.425   6.324
 5582POPC   D2A70108  44.442  42.556   6.763
 5582POPC   C3A70109  44.481  42.226   7.129
 5582POPC   C4A70110  44.289  42.110   7.556
 5582POPC   C1B70111  44.975  42.601   6.242
 5582POPC   C2B70112  44.950  42.472   6.686
 5582POPC   C3B70113  44.825  42.625   7.107
 5582POPC   C4B70114  44.796  42.567   7.571
 5583POPC   NC370115  24.085   3.637   5.428
 5583POPC   PO470116  24.714   3.937   5.427
 5583POPC   GL170117  24.549   3.733   5.846
 5583POPC   GL270118  24.224   3.882   5.851
 5583POPC   C1A70119  24.482   3.553   6.321
 5583POPC   D2A70120  24.345   3.253   6.698
 5583POPC   C3A70121  24.440   3.335   7.143
 5583POPC   C4A70122  24.607   3.728   7.282
 5583POPC   C1B70123  24.010   3.850   6.246
 5583POPC   C2B70124  24.050   3.680   6.672
 5583POPC   C3B70125  24.086   3.700   7.119
 5583POPC   C4B70126  24.169   3.630   7.568
 5584POPC   NC370127  28.071  43.012   5.112
 5584POPC   PO470128  28.676  42.826   5.375
 5584POPC   GL170129  28.582  43.056   5.777
 5584POPC   GL270130  28.286  43.264   5.715
 5584POPC   C1A70131  28.481  43.039   6.233
 5584POPC   D2A70132  28.400  43.248   6.631
 5584POPC   C3A70133  28.475  43.065   7.041
 5584POPC   C4A70134  28.484  43.392   7.372
 5584POPC   C1B70135  28.065  43.339   6.126
 5584POPC   C2B70136  27.899  43.215   6.544
 5584POPC   C3B70137  28.044  43.356   7.000
 5584POPC   C4B70138  28.092  43.088   7.383
 5585POPC   NC370139  33.837  22.836   5.479
 5585POPC   PO470140  33.413  23.431   5.415
 5585POPC   GL170141  33.536  23.159   5.734
 5585POPC   GL270142  33.847  23.252   5.779
 5585POPC   C1A70143  33.691  22.884   6.133
 5585POPC   D2A70144  33.975  22.728   6.472
 5585POPC   C3A70145  33.755  22.638   6.859
 5585POPC   C4A70146  33.991  22.671   7.232
 5585POPC   C1B70147  33.626  23.375   6.182
 5585POPC   C2B70148  33.652  23.161   6.563
 5585POPC   C3B70149  33.914  23.110   6.912
 5585POPC   C4B70150  33.625  23.043   7.229
 5586POPC   NC370151  19.695  14.812   5.352
 5586POPC   PO470152  20.054  15.361   5.225
 5586POPC   GL170153  19.938  15.370   5.684
 5586POPC   GL270154  19.912  15.012   5.789
 5586POPC   C1A70155  19.684  15.383   6.088
 5586POPC   D2A70156  19.606  15.133   6.469
 5586POPC   C3A70157  19.774  15.144   6.910
 5586POPC   C4A70158  19.630  15.368   7.276
 5586POPC   C1B70159  20.072  15.082   6.213
 5586POPC   C2B70160  20.129  15.328   6.587
 5586POPC   C3B70161  20.267  15.230   7.019
 5586POPC   C4B70162  20.201  15.370   7.449
 5587POPC   NC370163  32.882   5.456   5.537
 5587POPC   PO470164  32.644   6.075   5.604
 5587POPC   GL170165  32.937   5.857   5.859
 5587POPC   GL270166  33.290   5.760   5.712
 5587POPC   C1A70167  32.918   5.733   6.282
 5587POPC   D2A70168  32.745   5.516   6.639
 5587POPC   C3A70169  32.671   5.873   6.879
 5587POPC   C4A70170  32.827   6.057   7.260
 5587POPC   C1B70171  33.360   5.977   6.115
 5587POPC   C2B70172  33.408   5.856   6.538
 5587POPC   C3B70173  33.171   5.837   6.895
 5587POPC   C4B70174  33.155   5.658   7.291
 5588POPC   NC370175  37.559  26.311   5.456
 5588POPC   PO470176  38.081  25.804   5.462
 5588POPC   GL170177  37.855  25.880   5.849
 5588POPC   GL270178  37.744  26.237   5.906
 5588POPC   C1A70179  37.770  25.913   6.282
 5588POPC   D2A70180  37.505  26.130   6.500
 5588POPC   C3A70181  37.506  25.963   6.884
 5588POPC   C4A70182  37.677  25.877   7.274
 5588POPC   C1B70183  37.971  26.495   6.174
 5588POPC   C2B70184  37.961  26.367   6.577
 5588POPC   C3B70185  37.960  26.531   6.957
 5588POPC   C4B70186  38.027  26.368   7.324
 5589POPC   NC370187  32.471  35.108   5.492
 5589POPC   PO470188  32.488  35.768   5.520
 5589POPC   GL170189  32.266  35.464   5.820
 5589POPC   GL270190  31.916  35.379   5.724
 5589POPC   C1A70191  32.135  35.120   6.142
 5589POPC   D2A70192  31.906  34.948   6.523
 5589POPC   C3A70193  32.072  35.105   6.907
 5589POPC   C4A70194  32.240  35.346   7.216
 5589POPC   C1B70195  31.840  35.540   6.149
 5589POPC   C2B70196  31.982  35.473   6.540
 5589POPC   C3B70197  31.866  35.576   6.934
 5589POPC   C4B70198  31.936  35.792   7.288
 5590POPC   NC370199  10.844  33.796   5.617
 5590POPC   PO470200  10.223  33.619   5.389
 5590POPC   GL170201  10.326  33.884   5.710
 5590POPC   GL270202  10.393  33.592   5.897
 5590POPC   C1A70203  10.283  34.008   6.143
 5590POPC   D2A70204  10.490  34.127   6.541
 5590POPC   C3A70205  10.350  33.934   6.933
 5590POPC   C4A70206  10.349  33.878   7.380
 5590POPC   C1B70207  10.617  33.640   6.295
 5590POPC   C2B70208  10.752  33.708   6.718
 5590POPC   C3B70209  10.577  33.490   7.079
 5590POPC   C4B70210  10.402  33.398   7.504
 5591POPC   NC370211  24.093  11.235   5.487
 5591POPC   PO470212  23.594  11.592   5.400
 5591POPC   GL170213  23.755  11.454   5.835
 5591POPC   GL270214  23.802  11.074   5.852
 5591POPC   C1A70215  23.704  11.485   6.311
 5591POPC   D2A70216  23.604  11.315   6.750
 5591POPC   C3A70217  23.497  11.554   7.136
 5591POPC   C4A70218  23.734  11.662   7.525
 5591POPC   C1B70219  23.919  10.866   6.215
 5591POPC   C2B70220  23.779  10.793   6.619
 5591POPC   C3B70221  23.861  10.831   7.030
 5591POPC   C4B70222  23.678  11.099   7.273
 5592POPC   NC370223   8.435  22.336   5.370
 5592POPC   PO470224   7.849  22.077   5.242
 5592POPC   GL170225   7.980  22.145   5.754
 5592POPC   GL270226   8.274  22.332   5.866
 5592POPC   C1A70227   8.052  22.150   6.273
 5592POPC   D2A70228   8.196  22.440   6.638
 5592POPC   C3A70229   8.201  22.296   7.075
 5592POPC   C4A70230   7.848  22.271   7.363
 5592POPC   C1B70231   8.537  22.376   6.252
 5592POPC   C2B70232   8.702  22.632   6.570
 5592POPC   C3B70233   8.725  22.454   6.973
 5592POPC   C4B70234   8.600  22.588   7.368
 5593POPC   NC370235  36.024  32.036   5.411
 5593POPC   PO470236  36.126  32.602   5.069
 5593POPC   GL170237  36.141  32.535   5.595
 5593POPC   GL270238  35.871  32.687   5.790
 5593POPC   C1A70239  36.114  32.320   6.047
 5593POPC   D2A70240  35.975  32.050   6.411
 5593POPC   C3A70241  36.070  32.170   6.874
 5593POPC   C4A70242  35.984  32.035   7.319
 5593POPC   C1B70243  35.895  32.767   6.191
 5593POPC   C2B70244  36.080  32.571   6.520
 5593POPC   C3B70245  35.858  32.670   6.865
 5593POPC   C4B70246  35.920  32.561   7.257
 5594POPC   NC370247  39.385  25.405   5.359
 5594POPC   PO470248  38.712  25.309   5.134
 5594POPC   GL170249  38.854  25.181   5.603
 5594POPC   GL270250  39.143  24.968   5.587
 5594POPC   C1A70251  38.923  25.306   6.104
 5594POPC   D2A70252  39.110  25.488   6.517
 5594POPC   C3A70253  38.984  25.419   6.961
 5594POPC   C4A70254  39.216  25.363   7.317
 5594POPC   C1B70255  39.343  25.002   5.989
 5594POPC   C2B70256  39.419  25.065   6.426
 5594POPC   C3B70257  39.438  25.131   6.873
 5594POPC   C4B70258  39.564  25.020   7.291
 5595POPC   NC370259   5.543  11.946   5.366
 5595POPC   PO470260   5.888  12.545   5.383
 5595POPC   GL170261   5.874  12.216   5.711
 5595POPC   GL270262   6.214  12.123   5.792
 5595POPC   C1A70263   5.827  12.076   6.149
 5595POPC   D2A70264   5.996  12.113   6.582
 5595POPC   C3A70265   5.770  11.939   6.958
 5595POPC   C4A70266   5.614  12.068   7.367
 5595POPC   C1B70267   6.295  11.877   6.182
 5595POPC   C2B70268   6.219  11.635   6.559
 5595POPC   C3B70269   6.301  11.865   6.908
 5595POPC   C4B70270   6.170  12.033   7.293
 5596POPC   NC370271   6.011  27.287   5.428
 5596POPC   PO470272   5.589  27.822   5.573
 5596POPC   GL170273   5.848  27.601   5.851
 5596POPC   GL270274   5.629  27.306   5.844
 5596POPC   C1A70275   5.969  27.736   6.268
 5596POPC   D2A70276   6.026  27.562   6.680
 5596POPC   C3A70277   6.158  27.814   7.006
 5596POPC   C4A70278   5.954  27.857   7.370
 5596POPC   C1B70279   5.443  27.483   6.232
 5596POPC   C2B70280   5.480  27.537   6.684
 5596POPC   C3B70281   5.613  27.523   7.080
 5596POPC   C4B70282   5.984  27.367   7.224
 5597POPC   NC370283  16.122  35.359   5.478
 5597POPC   PO470284  15.491  35.237   5.223
 5597POPC   GL170285  15.665  35.277   5.695
 5597POPC   GL270286  15.774  34.933   5.826
 5597POPC   C1A70287  15.838  35.402   6.117
 5597POPC   D2A70288  15.933  35.334   6.570
 5597POPC   C3A70289  16.218  35.610   6.795
 5597POPC   C4A70290  16.322  35.638   7.231
 5597POPC   C1B70291  15.659  34.923   6.258
 5597POPC   C2B70292  15.475  35.092   6.623
 5597POPC   C3B70293  15.608  35.074   7.016
 5597POPC   C4B70294  15.980  35.239   7.183
 5598POPC   NC370295  16.245  33.644   5.405
 5598POPC   PO470296  15.792  33.956   5.261
 5598POPC   GL170297  15.856  33.894   5.702
 5598POPC   GL270298  16.179  34.023   5.753
 5598POPC   C1A70299  15.805  33.558   6.036
 5598POPC   D2A70300  15.989  33.481   6.458
 5598POPC   C3A70301  15.808  33.468   6.925
 5598POPC   C4A70302  15.712  33.807   7.235
 5598POPC   C1B70303  16.296  33.723   6.059
 5598POPC   C2B70304  16.391  33.806   6.474
 5598POPC   C3B70305  16.269  33.663   6.851
 5598POPC   C4B70306  16.241  33.716   7.264
 5599POPC   NC370307   1.002  34.849   5.543
 5599POPC   PO470308   1.465  34.371   5.375
 5599POPC   GL170309   1.247  34.392   5.770
 5599POPC   GL270310   1.473  34.659   5.815
 5599POPC   C1A70311   1.271  34.353   6.232
 5599POPC   D2A70312   1.552  34.431   6.604
 5599POPC   C3A70313   1.305  34.377   6.963
 5599POPC   C4A70314   1.151  34.458   7.343
 5599POPC   C1B70315   1.570  34.765   6.221
 5599POPC   C2B70316   1.352  34.898   6.572
 5599POPC   C3B70317   1.359  34.889   6.999
 5599POPC   C4B70318   1.403  35.197   7.299
 5600POPC   NC370319  18.391  22.818   5.441
 5600POPC   PO470320  18.044  23.334   5.383
 5600POPC   GL170321  18.413  23.245   5.751
 5600POPC   GL270322  18.626  22.881   5.862
 5600POPC   C1A70323  18.385  23.139   6.216
 5600POPC   D2A70324  18.123  22.796   6.387
 5600POPC   C3A70325  18.054  22.738   6.836
 5600POPC   C4A70326  18.061  22.952   7.226
 5600POPC   C1B70327  18.590  22.640   6.235
 5600POPC   C2B70328  18.542  22.783   6.682
 5600POPC   C3B70329  18.543  22.775   7.148
 5600POPC   C4B70330  18.686  22.466   7.432
 5601POPC   NC370331   6.857  28.554   5.483
 5601POPC   PO470332   6.525  27.959   5.654
 5601POPC   GL170333   6.456  28.260   5.931
 5601POPC   GL270334   6.767  28.406   5.945
 5601POPC   C1A70335   6.501  28.342   6.368
 5601POPC   D2A70336   6.281  28.210   6.691
 5601POPC   C3A70337   6.497  28.199   7.069
 5601POPC   C4A70338   6.543  28.546   7.299
 5601POPC   C1B70339   6.993  28.505   6.288
 5601POPC   C2B70340   6.915  28.349   6.697
 5601POPC   C3B70341   6.945  28.660   6.985
 5601POPC   C4B70342   7.006  28.717   7.430
 5602POPC   NC370343  12.526  34.962   5.574
 5602POPC   PO470344  12.892  35.508   5.338
 5602POPC   GL170345  12.866  35.354   5.768
 5602POPC   GL270346  13.186  35.196   5.875
 5602POPC   C1A70347  12.866  35.395   6.236
 5602POPC   D2A70348  12.770  35.258   6.668
 5602POPC   C3A70349  12.594  35.455   7.014
 5602POPC   C4A70350  12.686  35.049   7.235
 5602POPC   C1B70351  13.334  35.558   6.075
 5602POPC   C2B70352  13.195  35.763   6.453
 5602POPC   C3B70353  13.100  35.635   6.855
 5602POPC   C4B70354  13.050  35.386   7.226
 5603POPC   NC370355  36.429  20.904   5.391
 5603POPC   PO470356  35.902  20.511   5.495
 5603POPC   GL170357  36.067  20.714   5.835
 5603POPC   GL270358  36.412  20.626   5.828
 5603POPC   C1A70359  35.960  20.731   6.270
 5603POPC   D2A70360  35.853  20.948   6.630
 5603POPC   C3A70361  35.964  20.758   6.985
 5603POPC   C4A70362  35.898  20.721   7.389
 5603POPC   C1B70363  36.360  20.423   6.232
 5603POPC   C2B70364  36.332  20.642   6.640
 5603POPC   C3B70365  36.438  20.574   7.085
 5603POPC   C4B70366  36.153  20.294   7.284
 5604POPC   NC370367  15.027  40.381   5.543
 5604POPC   PO470368  15.151  41.112   5.465
 5604POPC   GL170369  15.257  40.964   5.856
 5604POPC   GL270370  15.389  40.614   5.851
 5604POPC   C1A70371  15.191  41.063   6.300
 5604POPC   D2A70372  15.430  41.043   6.655
 5604POPC   C3A70373  15.283  40.965   7.037
 5604POPC   C4A70374  14.891  40.782   7.100
 5604POPC   C1B70375  15.130  40.558   6.227
 5604POPC   C2B70376  15.163  40.594   6.688
 5604POPC   C3B70377  15.396  40.462   7.082
 5604POPC   C4B70378  15.523  40.351   7.537
 5605POPC   NC370379  12.187  28.378   5.517
 5605POPC   PO470380  11.776  28.872   5.218
 5605POPC   GL170381  11.805  28.690   5.713
 5605POPC   GL270382  12.092  28.628   5.959
 5605POPC   C1A70383  11.680  28.439   6.122
 5605POPC   D2A70384  11.958  28.220   6.460
 5605POPC   C3A70385  11.939  28.449   6.847
 5605POPC   C4A70386  12.223  28.583   7.183
 5605POPC   C1B70387  12.363  28.296   6.151
 5605POPC   C2B70388  12.572  28.134   6.496
 5605POPC   C3B70389  12.395  28.195   6.882
 5605POPC   C4B70390  12.403  27.941   7.233
 5606POPC   NC370391  16.489  21.938   5.523
 5606POPC   PO470392  17.004  22.394   5.440
 5606POPC   GL170393  16.785  22.248   5.818
 5606POPC   GL270394  16.442  22.365   5.818
 5606POPC   C1A70395  16.779  22.405   6.251
 5606POPC   D2A70396  16.916  22.573   6.644
 5606POPC   C3A70397  16.732  22.424   7.037
 5606POPC   C4A70398  16.809  22.003   7.223
 5606POPC   C1B70399  16.375  22.115   6.224
 5606POPC   C2B70400  16.553  22.110   6.675
 5606POPC   C3B70401  16.318  22.099   7.104
 5606POPC   C4B70402  16.292  22.059   7.563
 5607POPC   NC370403  17.145   8.112   5.186
 5607POPC   PO470404  16.730   7.908   5.646
 5607POPC   GL170405  16.704   8.272   5.901
 5607POPC   GL270406  16.385   8.202   6.014
 5607POPC   C1A70407  16.780   8.344   6.341
 5607POPC   D2A70408  16.688   8.088   6.722
 5607POPC   C3A70409  16.615   8.241   7.138
 5607POPC   C4A70410  16.901   8.272   7.483
 5607POPC   C1B70411  16.557   7.833   6.276
 5607POPC   C2B70412  16.447   7.650   6.698
 5607POPC   C3B70413  16.440   7.719   7.168
 5607POPC   C4B70414  16.446   7.972   7.549
 5608POPC   NC370415  38.196   2.095   5.279
 5608POPC   PO470416  38.619   1.663   5.105
 5608POPC   GL170417  38.716   1.804   5.565
 5608POPC   GL270418  38.553   2.128   5.673
 5608POPC   C1A70419  38.634   1.793   6.045
 5608POPC   D2A70420  38.489   1.922   6.470
 5608POPC   C3A70421  38.674   1.870   6.877
 5608POPC   C4A70422  38.531   1.566   7.168
 5608POPC   C1B70423  38.610   2.307   6.114
 5608POPC   C2B70424  38.615   2.407   6.598
 5608POPC   C3B70425  38.438   2.277   7.028
 5608POPC   C4B70426  38.654   2.150   7.401
 5609POPC   NC370427  42.406  18.299   5.365
 5609POPC   PO470428  43.016  18.169   5.634
 5609POPC   GL170429  42.663  18.395   5.849
 5609POPC   GL270430  42.303  18.245   5.870
 5609POPC   C1A70431  42.581  18.376   6.297
 5609POPC   D2A70432  42.282  18.440   6.612
 5609POPC   C3A70433  42.212  18.103   6.888
 5609POPC   C4A70434  42.577  18.007   7.141
 5609POPC   C1B70435  42.086  18.564   6.144
 5609POPC   C2B70436  41.789  18.543   6.516
 5609POPC   C3B70437  41.923  18.561   6.949
 5609POPC   C4B70438  42.335  18.523   7.151
 5610POPC   NC370439  13.951  28.124   5.297
 5610POPC   PO470440  13.381  28.532   5.211
 5610POPC   GL170441  13.618  28.440   5.618
 5610POPC   GL270442  13.782  28.161   5.770
 5610POPC   C1A70443  13.631  28.520   6.096
 5610POPC   D2A70444  13.865  28.570   6.497
 5610POPC   C3A70445  13.616  28.566   6.874
 5610POPC   C4A70446  13.618  28.411   7.283
 5610POPC   C1B70447  14.020  28.169   6.144
 5610POPC   C2B70448  13.966  28.060   6.567
 5610POPC   C3B70449  14.000  28.236   6.961
 5610POPC   C4B70450  14.068  28.157   7.382
 5611POPC   NC370451  44.907  17.253   5.473
 5611POPC   PO470452  44.600  16.631   5.519
 5611POPC   GL170453  44.611  16.906   5.884
 5611POPC   GL270454  44.939  17.070   5.959
 5611POPC   C1A70455  44.604  16.767   6.326
 5611POPC   D2A70456  44.527  16.399   6.602
 5611POPC   C3A70457  44.419  16.577   6.997
 5611POPC   C4A70458  44.561  16.973   7.184
 5611POPC   C1B70459   0.037  16.641   6.077
 5611POPC   C2B70460   0.033  16.485   6.519
 5611POPC   C3B70461  44.936  16.705   6.893
 5611POPC   C4B70462  44.854  16.546   7.293
 5612POPC   NC370463  31.850  16.681   5.427
 5612POPC   PO470464  31.172  16.704   5.351
 5612POPC   GL170465  31.337  16.740   5.750
 5612POPC   GL270466  31.481  16.412   5.699
 5612POPC   C1A70467  31.378  16.894   6.186
 5612POPC   D2A70468  31.718  16.908   6.527
 5612POPC   C3A70469  31.440  16.865   6.884
 5612POPC   C4A70470  31.238  16.930   7.254
 5612POPC   C1B70471  31.581  16.442   6.133
 5612POPC   C2B70472  31.416  16.483   6.539
 5612POPC   C3B70473  31.572  16.358   6.935
 5612POPC   C4B70474  31.545  16.508   7.350
 5613POPC   NC370475   5.667  23.426   5.411
 5613POPC   PO470476   6.113  23.882   5.506
 5613POPC   GL170477   5.892  23.834   5.904
 5613POPC   GL270478   5.589  23.626   5.879
 5613POPC   C1A70479   6.019  23.624   6.295
 5613POPC   D2A70480   6.030  23.382   6.677
 5613POPC   C3A70481   5.985  23.573   7.087
 5613POPC   C4A70482   6.154  23.548   7.466
 5613POPC   C1B70483   5.515  23.660   6.316
 5613POPC   C2B70484   5.648  23.757   6.770
 5613POPC   C3B70485   5.568  23.844   7.238
 5613POPC   C4B70486   5.471  23.999   7.725
 5614POPC   NC370487  37.832   6.616   5.422
 5614POPC   PO470488  37.251   7.008   5.586
 5614POPC   GL170489  37.449   6.684   5.830
 5614POPC   GL270490  37.558   6.340   5.737
 5614POPC   C1A70491  37.510   6.753   6.256
 5614POPC   D2A70492  37.648   6.999   6.575
 5614POPC   C3A70493  37.657   6.721   6.872
 5614POPC   C4A70494  37.482   6.943   7.175
 5614POPC   C1B70495  37.863   6.457   6.079
 5614POPC   C2B70496  38.049   6.461   6.512
 5614POPC   C3B70497  38.039   6.334   6.967
 5614POPC   C4B70498  37.966   6.647   7.278
 5615POPC   NC370499  33.449   9.728   5.410
 5615POPC   PO470500  34.024   9.386   5.466
 5615POPC   GL170501  33.858   9.719   5.739
 5615POPC   GL270502  33.570   9.530   5.870
 5615POPC   C1A70503  33.778   9.941   6.149
 5615POPC   D2A70504  33.570   9.851   6.535
 5615POPC   C3A70505  33.784   9.853   6.961
 5615POPC   C4A70506  33.786  10.071   7.345
 5615POPC   C1B70507  33.874   9.436   6.199
 5615POPC   C2B70508  34.033   9.575   6.596
 5615POPC   C3B70509  33.974   9.378   7.013
 5615POPC   C4B70510  33.860   9.565   7.413
 5616POPC   NC370511  40.838  32.602   5.370
 5616POPC   PO470512  40.911  31.996   5.130
 5616POPC   GL170513  40.752  32.155   5.623
 5616POPC   GL270514  40.995  32.067   5.902
 5616POPC   C1A70515  40.590  32.329   6.035
 5616POPC   D2A70516  40.648  32.114   6.456
 5616POPC   C3A70517  40.667  32.354   6.846
 5616POPC   C4A70518  40.585  32.316   7.286
 5616POPC   C1B70519  41.069  31.780   6.247
 5616POPC   C2B70520  40.960  31.701   6.669
 5616POPC   C3B70521  40.974  31.987   7.014
 5616POPC   C4B70522  41.089  32.393   7.184
 5617POPC   NC370523  15.969  25.015   5.493
 5617POPC   PO470524  16.266  25.592   5.456
 5617POPC   GL170525  16.194  25.365   5.821
 5617POPC   GL270526  15.860  25.357   5.873
 5617POPC   C1A70527  16.169  25.137   6.214
 5617POPC   D2A70528  15.879  25.054   6.534
 5617POPC   C3A70529  16.084  24.908   6.877
 5617POPC   C4A70530  16.077  24.919   7.296
 5617POPC   C1B70531  15.727  25.459   6.262
 5617POPC   C2B70532  15.906  25.581   6.650
 5617POPC   C3B70533  15.969  25.410   7.056
 5617POPC   C4B70534  15.618  25.362   7.343
 5618POPC   NC370535  12.609  17.853   5.292
 5618POPC   PO470536  13.168  17.683   5.366
 5618POPC   GL170537  12.830  17.665   5.717
 5618POPC   GL270538  12.657  17.316   5.811
 5618POPC   C1A70539  12.725  17.685   6.169
 5618POPC   D2A70540  12.668  17.678   6.632
 5618POPC   C3A70541  13.020  17.751   6.908
 5618POPC   C4A70542  13.169  17.562   7.306
 5618POPC   C1B70543  12.533  17.111   6.233
 5618POPC   C2B70544  12.431  17.207   6.675
 5618POPC   C3B70545  12.765  17.293   7.018
 5618POPC   C4B70546  12.962  17.111   7.419
 5619POPC   NC370547   8.437  34.447   5.612
 5619POPC   PO470548   7.818  34.382   5.462
 5619POPC   GL170549   7.965  34.499   5.906
 5619POPC   GL270550   8.189  34.818   5.934
 5619POPC   C1A70551   8.274  34.457   6.279
 5619POPC   D2A70552   8.578  34.355   6.602
 5619POPC   C3A70553   8.374  34.412   6.982
 5619POPC   C4A70554   7.942  34.413   7.160
 5619POPC   C1B70555   8.561  34.911   6.228
 5619POPC   C2B70556   8.802  34.844   6.617
 5619POPC   C3B70557   8.663  34.897   7.044
 5619POPC   C4B70558   8.258  34.820   7.237
 5620POPC   NC370559  28.234  24.164   5.471
 5620POPC   PO470560  27.827  24.717   5.197
 5620POPC   GL170561  27.718  24.680   5.717
 5620POPC   GL270562  27.409  24.874   5.694
 5620POPC   C1A70563  27.727  24.415   6.162
 5620POPC   D2A70564  27.796  24.234   6.653
 5620POPC   C3A70565  27.740  24.390   7.122
 5620POPC   C4A70566  27.484  24.293   7.511
 5620POPC   C1B70567  27.423  24.871   6.139
 5620POPC   C2B70568  27.580  24.741   6.517
 5620POPC   C3B70569  27.406  24.671   6.879
 5620POPC   C4B70570  27.418  24.757   7.309
 5621POPC   NC370571  27.229  41.863   5.416
 5621POPC   PO470572  26.738  41.404   5.077
 5621POPC   GL170573  26.901  41.483   5.609
 5621POPC   GL270574  26.682  41.444   5.915
 5621POPC   C1A70575  27.029  41.734   6.098
 5621POPC   D2A70576  26.853  41.760   6.549
 5621POPC   C3A70577  26.979  41.694   6.990
 5621POPC   C4A70578  26.733  41.660   7.352
 5621POPC   C1B70579  26.796  41.280   6.318
 5621POPC   C2B70580  26.657  41.209   6.736
 5621POPC   C3B70581  26.799  41.202   7.150
 5621POPC   C4B70582  26.463  41.197   7.432
 5622POPC   NC370583  32.571  11.845   5.471
 5622POPC   PO470584  33.237  11.739   5.436
 5622POPC   GL170585  33.183  12.025   5.783
 5622POPC   GL270586  32.834  12.107   5.844
 5622POPC   C1A70587  33.313  12.192   6.176
 5622POPC   D2A70588  33.094  12.070   6.552
 5622POPC   C3A70589  33.350  11.973   6.891
 5622POPC   C4A70590  33.388  12.264   7.210
 5622POPC   C1B70591  32.717  11.847   6.189
 5622POPC   C2B70592  32.605  11.828   6.623
 5622POPC   C3B70593  32.837  11.897   7.002
 5622POPC   C4B70594  33.089  11.614   7.193
 5623POPC   NC370595  44.769   2.276   5.522
 5623POPC   PO470596  44.539   1.621   5.586
 5623POPC   GL170597  44.638   1.886   5.927
 5623POPC   GL270598  44.342   2.068   6.000
 5623POPC   C1A70599  44.780   1.905   6.362
 5623POPC   D2A70600  44.688   1.758   6.776
 5623POPC   C3A70601  44.858   1.964   7.150
 5623POPC   C4A70602  44.999   2.005   7.603
 5623POPC   C1B70603  44.567   2.399   6.242
 5623POPC   C2B70604  44.647   2.546   6.672
 5623POPC   C3B70605  44.652   2.440   7.115
 5623POPC   C4B70606  44.534   2.162   7.487
 5624POPC   NC370607  12.231  41.608   5.323
 5624POPC   PO470608  11.863  41.049   5.436
 5624POPC   GL170609  12.024  41.360   5.724
 5624POPC   GL270610  12.368  41.309   5.774
 5624POPC   C1A70611  12.121  41.577   6.122
 5624POPC   D2A70612  12.136  41.881   6.459
 5624POPC   C3A70613  12.131  41.627   6.804
 5624POPC   C4A70614  12.100  41.710   7.199
 5624POPC   C1B70615  12.535  41.240   6.190
 5624POPC   C2B70616  12.418  41.180   6.626
 5624POPC   C3B70617  12.509  41.329   7.028
 5624POPC   C4B70618  12.340  41.344   7.434
 5625POPC   NC370619  16.586  20.465   5.631
 5625POPC   PO470620  16.855  20.968   5.278
 5625POPC   GL170621  16.872  20.917   5.743
 5625POPC   GL270622  16.982  20.613   5.906
 5625POPC   C1A70623  16.650  20.873   6.181
 5625POPC   D2A70624  16.800  20.846   6.604
 5625POPC   C3A70625  16.605  20.740   6.971
 5625POPC   C4A70626  16.502  20.347   7.166
 5625POPC   C1B70627  16.807  20.398   6.267
 5625POPC   C2B70628  16.730  20.317   6.697
 5625POPC   C3B70629  16.982  20.406   7.077
 5625POPC   C4B70630  16.841  20.343   7.543
 5626POPC   NC370631  27.228   0.003   5.365
 5626POPC   PO470632  26.583   0.171   5.183
 5626POPC   GL170633  26.564   0.221   5.668
 5626POPC   GL270634  26.918   0.229   5.781
 5626POPC   C1A70635  26.540   0.277   6.151
 5626POPC   D2A70636  26.843   0.387   6.508
 5626POPC   C3A70637  26.701   0.388   6.943
 5626POPC   C4A70638  26.563   0.113   7.281
 5626POPC   C1B70639  26.904   0.639   6.022
 5626POPC   C2B70640  27.095   0.839   6.387
 5626POPC   C3B70641  27.059   0.775   6.833
 5626POPC   C4B70642  27.104   0.550   7.229
 5627POPC   NC370643   0.188   9.134   5.107
 5627POPC   PO470644   0.642   8.802   5.526
 5627POPC   GL170645   0.492   8.761   5.916
 5627POPC   GL270646   0.645   9.050   5.980
 5627POPC   C1A70647   0.237   8.948   6.246
 5627POPC   D2A70648   0.341   9.176   6.610
 5627POPC   C3A70649   0.387   8.940   6.977
 5627POPC   C4A70650   0.277   9.151   7.359
 5627POPC   C1B70651   0.759   8.919   6.362
 5627POPC   C2B70652   0.850   9.093   6.722
 5627POPC   C3B70653   0.972   9.019   7.104
 5627POPC   C4B70654   0.685   8.861   7.390
 5628POPC   NC370655  37.327  24.812   5.193
 5628POPC   PO470656  36.826  24.278   5.298
 5628POPC   GL170657  37.034  24.515   5.598
 5628POPC   GL270658  36.763  24.349   5.799
 5628POPC   C1A70659  37.102  24.604   6.054
 5628POPC   D2A70660  37.033  24.356   6.432
 5628POPC   C3A70661  36.799  24.519   6.782
 5628POPC   C4A70662  36.641  24.758   7.136
 5628POPC   C1B70663  36.655  24.109   6.148
 5628POPC   C2B70664  36.513  24.126   6.574
 5628POPC   C3B70665  36.684  24.053   6.975
 5628POPC   C4B70666  36.883  24.312   7.265
 5629POPC   NC370667  38.839  38.760   5.482
 5629POPC   PO470668  38.251  39.161   5.464
 5629POPC   GL170669  38.497  38.995   5.782
 5629POPC   GL270670  38.817  39.153   5.856
 5629POPC   C1A70671  38.413  38.899   6.223
 5629POPC   D2A70672  38.328  39.149   6.600
 5629POPC   C3A70673  38.482  39.127   7.013
 5629POPC   C4A70674  38.135  39.060   7.335
 5629POPC   C1B70675  38.652  39.367   6.261
 5629POPC   C2B70676  38.593  39.613   6.667
 5629POPC   C3B70677  38.605  39.659   7.118
 5629POPC   C4B70678  38.590  39.369   7.453
 5630POPC   NC370679  24.793  11.824   5.494
 5630POPC   PO470680  24.315  12.236   5.258
 5630POPC   GL170681  24.318  12.118   5.716
 5630POPC   GL270682  24.642  12.141   5.878
 5630POPC   C1A70683  24.247  12.286   6.168
 5630POPC   D2A70684  24.569  12.473   6.456
 5630POPC   C3A70685  24.599  12.460   6.901
 5630POPC   C4A70686  24.371  12.201   7.198
 5630POPC   C1B70687  24.393  11.799   6.108
 5630POPC   C2B70688  24.426  11.645   6.536
 5630POPC   C3B70689  24.559  11.807   6.926
 5630POPC   C4B70690  24.538  11.713   7.361
 5631POPC   NC370691  41.126  42.087   5.584
 5631POPC   PO470692  41.554  42.475   5.279
 5631POPC   GL170693  41.450  42.451   5.750
 5631POPC   GL270694  41.727  42.356   5.939
 5631POPC   C1A70695  41.307  42.262   6.178
 5631POPC   D2A70696  41.301  42.098   6.613
 5631POPC   C3A70697  41.436  42.294   7.015
 5631POPC   C4A70698  41.750  42.214   7.328
 5631POPC   C1B70699  41.667  42.607   6.330
 5631POPC   C2B70700  41.820  42.548   6.744
 5631POPC   C3B70701  41.758  42.695   7.158
 5631POPC   C4B70702  41.765  42.908   7.545
 5632POPC   NC370703  25.491  17.115   5.557
 5632POPC   PO470704  24.965  17.504   5.336
 5632POPC   GL170705  25.080  17.488   5.771
 5632POPC   GL270706  24.926  17.173   5.819
 5632POPC   C1A70707  25.375  17.432   6.140
 5632POPC   D2A70708  25.590  17.372   6.544
 5632POPC   C3A70709  25.336  17.421   6.935
 5632POPC   C4A70710  25.347  17.601   7.317
 5632POPC   C1B70711  24.889  17.298   6.232
 5632POPC   C2B70712  24.864  17.421   6.630
 5632POPC   C3B70713  24.793  17.194   6.977
 5632POPC   C4B70714  25.068  17.167   7.326
 5633POPC   NC370715  14.434   9.487   5.400
 5633POPC   PO470716  14.142  10.086   5.494
 5633POPC   GL170717  14.462   9.905   5.753
 5633POPC   GL270718  14.391   9.563   5.901
 5633POPC   C1A70719  14.624   9.926   6.168
 5633POPC   D2A70720  14.399   9.739   6.486
 5633POPC   C3A70721  14.570   9.752   6.879
 5633POPC   C4A70722  14.626   9.803   7.304
 5633POPC   C1B70723  14.711   9.416   6.210
 5633POPC   C2B70724  14.605   9.291   6.626
 5633POPC   C3B70725  14.217   9.323   6.853
 5633POPC   C4B70726  14.179   9.573   7.207
 5634POPC   NC370727  43.427  23.798   5.313
 5634POPC   PO470728  42.816  24.015   5.384
 5634POPC   GL170729  43.134  23.912   5.724
 5634POPC   GL270730  43.111  23.533   5.754
 5634POPC   C1A70731  43.081  23.807   6.202
 5634POPC   D2A70732  43.156  23.705   6.639
 5634POPC   C3A70733  43.055  23.970   7.009
 5634POPC   C4A70734  42.915  23.919   7.449
 5634POPC   C1B70735  43.378  23.355   6.121
 5634POPC   C2B70736  43.585  23.446   6.553
 5634POPC   C3B70737  43.408  23.365   6.954
 5634POPC   C4B70738  43.325  23.636   7.308
 5635POPC   NC370739  35.143   9.134   5.512
 5635POPC   PO470740  35.707   8.681   5.469
 5635POPC   GL170741  35.504   8.909   5.858
 5635POPC   GL270742  35.127   8.814   5.921
 5635POPC   C1A70743  35.579   9.205   6.247
 5635POPC   D2A70744  35.821   9.235   6.638
 5635POPC   C3A70745  35.638   9.165   7.036
 5635POPC   C4A70746  35.631   9.013   7.436
 5635POPC   C1B70747  35.198   8.893   6.336
 5635POPC   C2B70748  35.316   8.922   6.745
 5635POPC   C3B70749  35.195   8.923   7.190
 5635POPC   C4B70750  35.262   8.696   7.586
 5636POPC   NC370751  41.077  13.508   5.381
 5636POPC   PO470752  41.742  13.393   5.322
 5636POPC   GL170753  41.606  13.563   5.725
 5636POPC   GL270754  41.363  13.829   5.686
 5636POPC   C1A70755  41.740  13.562   6.171
 5636POPC   D2A70756  41.880  13.753   6.568
 5636POPC   C3A70757  41.599  13.719   6.910
 5636POPC   C4A70758  41.639  13.530   7.301
 5636POPC   C1B70759  41.515  13.999   6.077
 5636POPC   C2B70760  41.493  14.105   6.543
 5636POPC   C3B70761  41.299  14.132   6.977
 5636POPC   C4B70762  41.466  13.994   7.368
 5637POPC   NC370763  24.441   6.114   5.555
 5637POPC   PO470764  24.376   5.453   5.742
 5637POPC   GL170765  24.262   5.757   6.053
 5637POPC   GL270766  24.250   6.136   6.012
 5637POPC   C1A70767  24.496   5.772   6.442
 5637POPC   D2A70768  24.711   6.031   6.767
 5637POPC   C3A70769  24.464   6.007   7.134
 5637POPC   C4A70770  24.281   5.664   7.421
 5637POPC   C1B70771  24.397   6.294   6.370
 5637POPC   C2B70772  24.187   6.096   6.697
 5637POPC   C3B70773  23.957   5.956   7.032
 5637POPC   C4B70774  24.064   6.105   7.423
 5638POPC   NC370775  40.324  29.295   5.669
 5638POPC   PO470776  40.895  29.145   5.337
 5638POPC   GL170777  40.828  29.299   5.733
 5638POPC   GL270778  41.026  29.559   5.700
 5638POPC   C1A70779  40.767  29.101   6.163
 5638POPC   D2A70780  41.055  28.929   6.474
 5638POPC   C3A70781  40.975  29.047   6.901
 5638POPC   C4A70782  40.557  29.100   7.067
 5638POPC   C1B70783  40.838  29.624   6.121
 5638POPC   C2B70784  40.876  29.433   6.546
 5638POPC   C3B70785  40.772  29.542   6.976
 5638POPC   C4B70786  40.904  29.497   7.404
 5639POPC   NC370787  39.531   5.124   5.661
 5639POPC   PO470788  40.147   4.869   5.454
 5639POPC   GL170789  40.104   5.140   5.856
 5639POPC   GL270790  40.333   5.446   5.889
 5639POPC   C1A70791  39.957   5.088   6.290
 5639POPC   D2A70792  39.654   4.804   6.467
 5639POPC   C3A70793  39.683   4.858   6.888
 5639POPC   C4A70794  39.780   5.033   7.295
 5639POPC   C1B70795  40.269   5.659   6.221
 5639POPC   C2B70796  40.219   5.472   6.576
 5639POPC   C3B70797  39.999   5.264   6.885
 5639POPC   C4B70798  40.161   5.371   7.312
 5640POPC   NC370799  10.881  34.641   5.511
 5640POPC   PO470800  10.341  34.999   5.391
 5640POPC   GL170801  10.393  34.793   5.819
 5640POPC   GL270802  10.237  34.452   5.886
 5640POPC   C1A70803  10.533  34.808   6.289
 5640POPC   D2A70804  10.510  34.805   6.768
 5640POPC   C3A70805  10.613  34.399   6.990
 5640POPC   C4A70806  10.667  34.304   7.438
 5640POPC   C1B70807  10.109  34.447   6.339
 5640POPC   C2B70808  10.139  34.421   6.787
 5640POPC   C3B70809  10.130  34.308   7.200
 5640POPC   C4B70810  10.197  34.292   7.645
 5641POPC   NC370811  10.645  14.543   5.429
 5641POPC   PO470812   9.936  14.605   5.334
 5641POPC   GL170813  10.242  14.406   5.721
 5641POPC   GL270814  10.573  14.151   5.786
 5641POPC   C1A70815  10.459  14.489   6.160
 5641POPC   D2A70816  10.358  14.709   6.549
 5641POPC   C3A70817  10.509  14.610   6.989
 5641POPC   C4A70818  10.327  14.301   7.258
 5641POPC   C1B70819  10.668  14.039   6.235
 5641POPC   C2B70820  10.570  14.235   6.638
 5641POPC   C3B70821  10.763  14.144   7.058
 5641POPC   C4B70822  10.815  14.356   7.458
 5642POPC   NC370823  40.064  43.607   5.271
 5642POPC   PO470824  39.553  43.672   5.726
 5642POPC   GL170825  40.002  43.808   5.810
 5642POPC   GL270826  40.308  43.950   5.594
 5642POPC   C1A70827  39.991  44.058   6.193
 5642POPC   D2A70828  39.890  44.266   6.587
 5642POPC   C3A70829  39.668  43.969   6.864
 5642POPC   C4A70830  39.760  43.760   7.263
 5642POPC   C1B70831  40.464  43.929   6.037
 5642POPC   C2B70832  40.402  44.025   6.482
 5642POPC   C3B70833  40.201  43.945   6.881
 5642POPC   C4B70834  40.282  43.731   7.256
 5643POPC   NC370835   4.651   7.588   5.094
 5643POPC   PO470836   4.267   7.154   5.423
 5643POPC   GL170837   4.212   7.308   5.821
 5643POPC   GL270838   4.548   7.156   5.883
 5643POPC   C1A70839   4.335   7.475   6.228
 5643POPC   D2A70840   4.210   7.332   6.621
 5643POPC   C3A70841   4.277   7.499   7.030
 5643POPC   C4A70842   4.287   7.592   7.476
 5643POPC   C1B70843   4.355   6.959   6.240
 5643POPC   C2B70844   4.494   6.892   6.624
 5643POPC   C3B70845   4.649   7.193   6.876
 5643POPC   C4B70846   4.506   7.122   7.290
 5644POPC   NC370847   9.192  44.764   5.393
 5644POPC   PO470848   9.822  44.867   5.310
 5644POPC   GL170849   9.761  44.734   5.732
 5644POPC   GL270850   9.550  44.485   5.704
 5644POPC   C1A70851   9.830  44.710   6.176
 5644POPC   D2A70852   9.653  44.708   6.567
 5644POPC   C3A70853   9.806  44.552   6.927
 5644POPC   C4A70854   9.671  44.767   7.268
 5644POPC   C1B70855   9.388  44.466   6.107
 5644POPC   C2B70856   9.275  44.386   6.535
 5644POPC   C3B70857   9.277  44.561   6.961
 5644POPC   C4B70858   9.451  44.320   7.325
 5645POPC   NC370859  17.662   4.572   5.540
 5645POPC   PO470860  17.385   5.146   5.307
 5645POPC   GL170861  17.516   5.020   5.738
 5645POPC   GL270862  17.845   5.015   5.861
 5645POPC   C1A70863  17.450   5.099   6.200
 5645POPC   D2A70864  17.632   5.230   6.602
 5645POPC   C3A70865  17.448   5.063   6.959
 5645POPC   C4A70866  17.131   5.206   7.170
 5645POPC   C1B70867  17.735   4.690   6.180
 5645POPC   C2B70868  17.648   4.726   6.606
 5645POPC   C3B70869  17.874   4.800   6.980
 5645POPC   C4B70870  17.829   4.751   7.445
 5646POPC   NC370871  35.969  20.039   5.415
 5646POPC   PO470872  35.938  19.500   5.667
 5646POPC   GL170873  36.184  19.787   5.840
 5646POPC   GL270874  36.360  20.109   5.762
 5646POPC   C1A70875  36.018  20.046   6.168
 5646POPC   D2A70876  35.759  19.888   6.517
 5646POPC   C3A70877  35.964  19.980   6.914
 5646POPC   C4A70878  35.903  19.849   7.318
 5646POPC   C1B70879  36.517  19.934   6.173
 5646POPC   C2B70880  36.354  20.001   6.566
 5646POPC   C3B70881  36.491  20.017   6.962
 5646POPC   C4B70882  36.408  19.743   7.277
 5647POPC   NC370883  18.196   2.267   5.361
 5647POPC   PO470884  18.596   1.591   5.342
 5647POPC   GL170885  18.332   1.856   5.617
 5647POPC   GL270886  18.455   2.164   5.805
 5647POPC   C1A70887  18.048   1.883   5.980
 5647POPC   D2A70888  18.170   1.916   6.439
 5647POPC   C3A70889  17.989   1.812   6.863
 5647POPC   C4A70890  18.153   1.674   7.280
 5647POPC   C1B70891  18.196   2.376   6.123
 5647POPC   C2B70892  18.319   2.504   6.547
 5647POPC   C3B70893  18.312   2.341   6.975
 5647POPC   C4B70894  18.022   2.171   7.279
 5648POPC   NC370895  32.532  36.659   5.213
 5648POPC   PO470896  32.205  37.255   5.286
 5648POPC   GL170897  32.262  37.056   5.754
 5648POPC   GL270898  32.172  36.688   5.800
 5648POPC   C1A70899  32.143  36.966   6.223
 5648POPC   D2A70900  31.944  37.143   6.613
 5648POPC   C3A70901  32.155  37.080   6.994
 5648POPC   C4A70902  32.395  36.732   7.152
 5648POPC   C1B70903  31.950  36.490   6.148
 5648POPC   C2B70904  32.020  36.561   6.575
 5648POPC   C3B70905  31.839  36.664   6.952
 5648POPC   C4B70906  31.942  36.619   7.376
 5649POPC   NC370907  18.096   8.028   5.482
 5649POPC   PO470908  17.858   8.602   5.755
 5649POPC   GL170909  18.086   8.248   5.971
 5649POPC   GL270910  18.413   8.068   5.891
 5649POPC   C1A70911  18.353   8.273   6.342
 5649POPC   D2A70912  18.536   8.537   6.656
 5649POPC   C3A70913  18.390   8.190   6.948
 5649POPC   C4A70914  18.021   8.271   7.221
 5649POPC   C1B70915  18.652   7.818   6.191
 5649POPC   C2B70916  18.463   7.713   6.602
 5649POPC   C3B70917  18.534   7.652   7.030
 5649POPC   C4B70918  18.306   7.856   7.336
 5650POPC   NC370919  16.204   3.751   5.437
 5650POPC   PO470920  16.815   3.488   5.334
 5650POPC   GL170921  16.679   3.472   5.742
 5650POPC   GL270922  16.609   3.823   5.769
 5650POPC   C1A70923  16.628   3.482   6.199
 5650POPC   D2A70924  16.494   3.341   6.599
 5650POPC   C3A70925  16.815   3.466   6.891
 5650POPC   C4A70926  16.862   3.453   7.312
 5650POPC   C1B70927  16.574   4.016   6.188
 5650POPC   C2B70928  16.537   4.062   6.657
 5650POPC   C3B70929  16.557   3.862   7.086
 5650POPC   C4B70930  16.343   3.458   7.088
 5651POPC   NC370931  18.203  40.863   5.161
 5651POPC   PO470932  18.806  40.694   5.414
 5651POPC   GL170933  18.482  40.728   5.801
 5651POPC   GL270934  18.120  40.740   5.719
 5651POPC   C1A70935  18.422  40.523   6.225
 5651POPC   D2A70936  18.668  40.621   6.604
 5651POPC   C3A70937  18.631  40.406   6.996
 5651POPC   C4A70938  18.555  40.278   7.395
 5651POPC   C1B70939  18.089  40.919   6.158
 5651POPC   C2B70940  18.203  40.839   6.594
 5651POPC   C3B70941  18.415  40.859   6.987
 5651POPC   C4B70942  18.324  41.082   7.344
 5652POPC   NC370943  17.736  40.062   5.326
 5652POPC   PO470944  17.268  39.561   5.281
 5652POPC   GL170945  17.464  39.705   5.669
 5652POPC   GL270946  17.410  40.070   5.753
 5652POPC   C1A70947  17.516  39.681   6.110
 5652POPC   D2A70948  17.333  39.816   6.501
 5652POPC   C3A70949  17.411  39.647   6.869
 5652POPC   C4A70950  17.315  39.936   7.231
 5652POPC   C1B70951  17.497  40.195   6.207
 5652POPC   C2B70952  17.778  40.067   6.573
 5652POPC   C3B70953  17.816  39.929   7.001
 5652POPC   C4B70954  18.117  40.030   7.316
 5653POPC   NC370955   7.036  43.997   5.398
 5653POPC   PO470956   7.697  44.010   5.268
 5653POPC   GL170957   7.522  43.957   5.717
 5653POPC   GL270958   7.261  44.196   5.807
 5653POPC   C1A70959   7.559  44.035   6.191
 5653POPC   D2A70960   7.614  44.141   6.643
 5653POPC   C3A70961   7.881  43.880   6.865
 5653POPC   C4A70962   7.675  43.886   7.229
 5653POPC   C1B70963   7.106  43.871   6.071
 5653POPC   C2B70964   7.139  44.027   6.501
 5653POPC   C3B70965   7.263  43.888   6.916
 5653POPC   C4B70966   7.222  44.110   7.302
 5654POPC   NC370967  23.048  38.736   5.419
 5654POPC   PO470968  22.732  38.135   5.380
 5654POPC   GL170969  22.801  38.282   5.775
 5654POPC   GL270970  23.033  38.557   5.890
 5654POPC   C1A70971  22.640  38.374   6.149
 5654POPC   D2A70972  22.918  38.501   6.482
 5654POPC   C3A70973  22.759  38.332   6.851
 5654POPC   C4A70974  22.788  38.497   7.238
 5654POPC   C1B70975  23.240  38.215   6.092
 5654POPC   C2B70976  23.322  38.141   6.544
 5654POPC   C3B70977  23.259  38.370   6.949
 5654POPC   C4B70978  23.276  38.690   7.283
 5655POPC   NC370979   9.813  14.135   5.393
 5655POPC   PO470980   9.497  13.521   5.455
 5655POPC   GL170981   9.746  13.621   5.803
 5655POPC   GL270982   9.843  13.964   5.855
 5655POPC   C1A70983   9.841  13.599   6.232
 5655POPC   D2A70984   9.654  13.509   6.622
 5655POPC   C3A70985   9.861  13.568   6.993
 5655POPC   C4A70986   9.806  13.289   7.305
 5655POPC   C1B70987  10.163  14.021   6.145
 5655POPC   C2B70988  10.311  13.777   6.493
 5655POPC   C3B70989  10.238  13.936   6.883
 5655POPC   C4B70990   9.891  14.065   7.129
 5656POPC   NC370991   3.990   2.920   5.257
 5656POPC   PO470992   3.350   2.709   5.345
 5656POPC   GL170993   3.639   2.846   5.682
 5656POPC   GL270994   3.880   2.588   5.735
 5656POPC   C1A70995   3.580   2.966   6.127
 5656POPC   D2A70996   3.312   3.065   6.503
 5656POPC   C3A70997   3.574   3.024   6.866
 5656POPC   C4A70998   3.866   2.937   7.208
 5656POPC   C1B70999   3.639   2.454   6.116
 5656POPC   C2B71000   3.470   2.577   6.531
 5656POPC   C3B71001   3.596   2.541   6.973
 5656POPC   C4B71002   3.551   2.518   7.394
 5657POPC   NC371003  33.005  19.192   5.089
 5657POPC   PO471004  32.504  19.511   5.532
 5657POPC   GL171005  32.756  19.136   5.759
 5657POPC   GL271006  33.146  19.095   5.757
 5657POPC   C1A71007  32.886  19.006   6.195
 5657POPC   D2A71008  32.991  19.249   6.551
 5657POPC   C3A71009  33.239  19.097   6.901
 5657POPC   C4A71010  33.074  19.313   7.236
 5657POPC   C1B71011  33.402  19.208   6.149
 5657POPC   C2B71012  33.476  19.433   6.574
 5657POPC   C3B71013  33.518  19.527   7.015
 5657POPC   C4B71014  33.551  19.231   7.357
 5658POPC   NC371015   2.426   3.348   5.481
 5658POPC   PO471016   3.006   3.629   5.538
 5658POPC   GL171017   2.772   3.386   5.881
 5658POPC   GL271018   2.398   3.273   5.967
 5658POPC   C1A71019   2.727   3.635   6.244
 5658POPC   D2A71020   2.524   3.799   6.590
 5658POPC   C3A71021   2.782   3.727   6.953
 5658POPC   C4A71022   2.698   3.567   7.368
 5658POPC   C1B71023   2.377   3.299   6.391
 5658POPC   C2B71024   2.540   3.246   6.789
 5658POPC   C3B71025   2.388   3.168   7.190
 5658POPC   C4B71026   2.469   3.197   7.640
 5659POPC   NC371027  33.977   4.106   5.265
 5659POPC   PO471028  33.390   4.459   5.291
 5659POPC   GL171029  33.520   4.169   5.637
 5659POPC   GL271030  33.890   4.193   5.756
 5659POPC   C1A71031  33.481   4.219   6.099
 5659POPC   D2A71032  33.644   4.520   6.421
 5659POPC   C3A71033  33.462   4.416   6.841
 5659POPC   C4A71034  33.548   4.201   7.269
 5659POPC   C1B71035  34.055   4.193   6.192
 5659POPC   C2B71036  33.914   4.152   6.631
 5659POPC   C3B71037  33.975   4.329   7.032
 5659POPC   C4B71038  34.276   4.330   7.366
 5660POPC   NC371039  18.608  33.032   5.120
 5660POPC   PO471040  18.666  33.456   5.688
 5660POPC   GL171041  18.459  33.224   6.023
 5660POPC   GL271042  18.198  33.039   5.844
 5660POPC   C1A71043  18.447  32.899   6.312
 5660POPC   D2A71044  18.412  32.797   6.747
 5660POPC   C3A71045  18.360  33.063   7.053
 5660POPC   C4A71046  18.109  33.429   7.070
 5660POPC   C1B71047  17.978  32.757   6.121
 5660POPC   C2B71048  17.959  32.611   6.545
 5660POPC   C3B71049  17.929  32.793   6.932
 5660POPC   C4B71050  17.734  32.818   7.312
 5661POPC   NC371051  28.303  40.581   5.498
 5661POPC   PO471052  28.935  40.709   5.519
 5661POPC   GL171053  28.601  40.852   5.831
 5661POPC   GL271054  28.207  40.845   5.924
 5661POPC   C1A71055  28.558  40.622   6.215
 5661POPC   D2A71056  28.361  40.645   6.610
 5661POPC   C3A71057  28.661  40.675   6.931
 5661POPC   C4A71058  28.571  40.622   7.391
 5661POPC   C1B71059  28.341  41.083   6.294
 5661POPC   C2B71060  28.338  41.153   6.743
 5661POPC   C3B71061  28.303  40.989   7.161
 5661POPC   C4B71062  28.487  41.102   7.594
 5662POPC   NC371063  23.607  42.914   5.466
 5662POPC   PO471064  24.128  43.296   5.461
 5662POPC   GL171065  23.893  43.173   5.796
 5662POPC   GL271066  23.969  42.831   5.821
 5662POPC   C1A71067  23.544  43.213   6.090
 5662POPC   D2A71068  23.706  43.245   6.496
 5662POPC   C3A71069  23.456  43.219   6.843
 5662POPC   C4A71070  23.540  43.132   7.284
 5662POPC   C1B71071  23.748  42.756   6.180
 5662POPC   C2B71072  23.606  42.747   6.596
 5662POPC   C3B71073  23.737  42.797   6.976
 5662POPC   C4B71074  23.544  42.577   7.279
 5663POPC   NC371075  26.796  44.314   5.451
 5663POPC   PO471076  26.942  43.647   5.543
 5663POPC   GL171077  26.650  43.729   5.865
 5663POPC   GL271078  26.524  44.081   5.844
 5663POPC   C1A71079  26.648  43.657   6.295
 5663POPC   D2A71080  26.392  43.614   6.644
 5663POPC   C3A71081  26.713  43.680   6.905
 5663POPC   C4A71082  26.775  43.686   7.321
 5663POPC   C1B71083  26.868  44.116   6.171
 5663POPC   C2B71084  26.824  44.113   6.636
 5663POPC   C3B71085  26.745  44.155   7.094
 5663POPC   C4B71086  26.573  44.176   7.511
 5664POPC   NC371087   2.300  11.299   5.482
 5664POPC   PO471088   1.701  11.308   5.224
 5664POPC   GL171089   1.800  11.378   5.663
 5664POPC   GL271090   1.956  11.058   5.809
 5664POPC   C1A71091   2.019  11.542   6.032
 5664POPC   D2A71092   2.141  11.523   6.449
 5664POPC   C3A71093   1.880  11.361   6.746
 5664POPC   C4A71094   1.909  11.386   7.188
 5664POPC   C1B71095   2.047  11.050   6.254
 5664POPC   C2B71096   2.289  11.066   6.641
 5664POPC   C3B71097   2.058  10.937   7.022
 5664POPC   C4B71098   2.177  11.004   7.463
 5665POPC   NC371099  16.653  14.142   5.320
 5665POPC   PO471100  16.784  14.848   5.218
 5665POPC   GL171101  16.716  14.547   5.604
 5665POPC   GL271102  16.515  14.238   5.799
 5665POPC   C1A71103  16.819  14.517   6.071
 5665POPC   D2A71104  16.694  14.529   6.508
 5665POPC   C3A71105  16.960  14.535   6.876
 5665POPC   C4A71106  16.981  14.808   7.263
 5665POPC   C1B71107  16.587  14.072   6.262
 5665POPC   C2B71108  16.620  14.083   6.744
 5665POPC   C3B71109  16.735  14.178   7.167
 5665POPC   C4B71110  16.508  14.143   7.527
 5666POPC   NC371111  10.837  41.982   5.510
 5666POPC   PO471112  10.417  41.477   5.335
 5666POPC   GL171113  10.381  41.384   5.785
 5666POPC   GL271114  10.493  41.722   5.807
 5666POPC   C1A71115  10.312  41.515   6.271
 5666POPC   D2A71116  10.597  41.648   6.607
 5666POPC   C3A71117  10.665  41.433   7.027
 5666POPC   C4A71118  10.603  41.162   7.416
 5666POPC   C1B71119  10.563  41.960   6.157
 5666POPC   C2B71120  10.308  42.069   6.484
 5666POPC   C3B71121  10.327  41.945   6.927
 5666POPC   C4B71122  10.478  41.798   7.318
 5667POPC   NC371123  21.209  27.131   5.704
 5667POPC   PO471124  20.945  26.608   5.856
 5667POPC   GL171125  21.320  26.771   6.033
 5667POPC   GL271126  21.568  26.554   5.960
 5667POPC   C1A71127  21.641  27.014   6.285
 5667POPC   D2A71128  21.568  27.078   6.729
 5667POPC   C3A71129  21.220  26.810   6.873
 5667POPC   C4A71130  21.113  27.034   7.227
 5667POPC   C1B71131  21.499  26.530   6.430
 5667POPC   C2B71132  21.709  26.581   6.808
 5667POPC   C3B71133  21.599  26.737   7.211
 5667POPC   C4B71134  21.520  26.614   7.647
 5668POPC   NC371135   9.504   8.213   5.399
 5668POPC   PO471136  10.070   8.032   5.731
 5668POPC   GL171137   9.964   8.209   6.021
 5668POPC   GL271138   9.656   8.343   5.945
 5668POPC   C1A71139   9.729   8.087   6.376
 5668POPC   D2A71140   9.727   7.951   6.760
 5668POPC   C3A71141   9.982   8.176   6.995
 5668POPC   C4A71142   9.656   8.358   7.240
 5668POPC   C1B71143   9.888   8.587   6.327
 5668POPC   C2B71144   9.815   8.612   6.781
 5668POPC   C3B71145  10.050   8.680   7.173
 5668POPC   C4B71146   9.896   8.580   7.637
 5669POPC   NC371147   0.716  44.791   5.447
 5669POPC   PO471148   0.188  44.259   5.393
 5669POPC   GL171149   0.388  44.471   5.761
 5669POPC   GL271150   0.336  44.833   5.791
 5669POPC   C1A71151   0.422  44.585   6.219
 5669POPC   D2A71152   0.450  44.433   6.620
 5669POPC   C3A71153   0.406  44.679   6.978
 5669POPC   C4A71154   0.398  44.477   7.351
 5669POPC   C1B71155   0.572   0.068   6.138
 5669POPC   C2B71156   0.539   0.025   6.617
 5669POPC   C3B71157   0.679   0.103   7.085
 5669POPC   C4B71158   0.690  44.853   7.488
 5670POPC   NC371159  24.097  12.541   5.542
 5670POPC   PO471160  23.479  12.535   5.706
 5670POPC   GL171161  23.850  12.643   5.992
 5670POPC   GL271162  24.054  12.961   5.840
 5670POPC   C1A71163  23.852  12.484   6.444
 5670POPC   D2A71164  24.026  12.401   6.862
 5670POPC   C3A71165  23.790  12.524   7.258
 5670POPC   C4A71166  23.358  12.483   7.519
 5670POPC   C1B71167  23.803  13.140   6.170
 5670POPC   C2B71168  23.707  12.990   6.583
 5670POPC   C3B71169  23.871  13.049   6.990
 5670POPC   C4B71170  23.870  12.995   7.439
 5671POPC   NC371171   4.670  21.232   5.420
 5671POPC   PO471172   4.206  21.695   5.457
 5671POPC   GL171173   4.318  21.367   5.817
 5671POPC   GL271174   4.615  21.102   5.904
 5671POPC   C1A71175   4.237  21.246   6.254
 5671POPC   D2A71176   4.065  21.004   6.613
 5671POPC   C3A71177   4.033  21.258   6.997
 5671POPC   C4A71178   4.253  21.661   7.127
 5671POPC   C1B71179   4.691  21.021   6.361
 5671POPC   C2B71180   4.597  21.255   6.755
 5671POPC   C3B71181   4.489  21.206   7.190
 5671POPC   C4B71182   4.136  20.913   7.354
 5672POPC   NC371183   5.007  10.924   5.185
 5672POPC   PO471184   5.308  11.507   5.384
 5672POPC   GL171185   5.226  11.338   5.795
 5672POPC   GL271186   4.914  11.181   5.833
 5672POPC   C1A71187   5.469  11.254   6.178
 5672POPC   D2A71188   5.553  11.123   6.604
 5672POPC   C3A71189   5.331  11.380   6.922
 5672POPC   C4A71190   5.523  11.556   7.289
 5672POPC   C1B71191   4.703  11.311   6.246
 5672POPC   C2B71192   4.807  11.370   6.712
 5672POPC   C3B71193   4.850  11.234   7.162
 5672POPC   C4B71194   4.661  11.204   7.606
 5673POPC   NC371195   6.396  13.272   5.556
 5673POPC   PO471196   6.749  12.645   5.599
 5673POPC   GL171197   6.558  12.903   5.862
 5673POPC   GL271198   6.733  13.188   5.904
 5673POPC   C1A71199   6.377  12.982   6.245
 5673POPC   D2A71200   6.509  13.157   6.633
 5673POPC   C3A71201   6.563  12.843   6.934
 5673POPC   C4A71202   6.282  12.800   7.290
 5673POPC   C1B71203   6.892  13.009   6.267
 5673POPC   C2B71204   7.054  12.916   6.666
 5673POPC   C3B71205   7.022  13.150   7.035
 5673POPC   C4B71206   6.687  13.110   7.356
 5674POPC   NC371207  35.323  34.347   5.498
 5674POPC   PO471208  35.285  34.945   5.644
 5674POPC   GL171209  35.218  34.616   5.952
 5674POPC   GL271210  35.057  34.263   5.923
 5674POPC   C1A71211  35.512  34.604   6.318
 5674POPC   D2A71212  35.508  34.853   6.700
 5674POPC   C3A71213  35.339  34.756   7.108
 5674POPC   C4A71214  35.687  34.812   7.401
 5674POPC   C1B71215  35.124  34.283   6.329
 5674POPC   C2B71216  35.245  34.391   6.725
 5674POPC   C3B71217  35.139  34.270   7.114
 5674POPC   C4B71218  35.419  34.354   7.422
 5675POPC   NC371219  30.335  21.567   5.490
 5675POPC   PO471220  29.702  21.334   5.412
 5675POPC   GL171221  29.941  21.224   5.773
 5675POPC   GL271222  29.705  20.984   5.816
 5675POPC   C1A71223  29.931  21.231   6.235
 5675POPC   D2A71224  30.080  21.063   6.618
 5675POPC   C3A71225  30.023  21.294   6.986
 5675POPC   C4A71226  29.886  21.221   7.402
 5675POPC   C1B71227  29.456  21.097   6.188
 5675POPC   C2B71228  29.576  20.929   6.600
 5675POPC   C3B71229  29.572  21.036   7.046
 5675POPC   C4B71230  29.530  20.879   7.478
 5676POPC   NC371231  25.069  42.622   5.232
 5676POPC   PO471232  25.263  42.006   5.397
 5676POPC   GL171233  25.299  42.362   5.696
 5676POPC   GL271234  25.595  42.590   5.699
 5676POPC   C1A71235  25.217  42.339   6.169
 5676POPC   D2A71236  25.017  42.278   6.577
 5676POPC   C3A71237  25.231  42.366   6.952
 5676POPC   C4A71238  25.363  42.129   7.286
 5676POPC   C1B71239  25.670  42.569   6.162
 5676POPC   C2B71240  25.541  42.548   6.582
 5676POPC   C3B71241  25.727  42.481   6.977
 5676POPC   C4B71242  25.650  42.589   7.371
 5677POPC   NC371243  30.971  41.180   5.317
 5677POPC   PO471244  31.510  41.596   5.271
 5677POPC   GL171245  31.468  41.495   5.739
 5677POPC   GL271246  31.272  41.175   5.755
 5677POPC   C1A71247  31.646  41.502   6.185
 5677POPC   D2A71248  31.416  41.573   6.587
 5677POPC   C3A71249  31.586  41.506   6.996
 5677POPC   C4A71250  31.594  41.577   7.450
 5677POPC   C1B71251  31.146  41.316   6.187
 5677POPC   C2B71252  31.061  41.129   6.594
 5677POPC   C3B71253  31.264  41.104   6.984
 5677POPC   C4B71254  31.199  41.255   7.389
 5678POPC   NC371255   8.492  13.474   5.179
 5678POPC   PO471256   7.824  13.488   5.215
 5678POPC   GL171257   8.005  13.480   5.686
 5678POPC   GL271258   8.190  13.792   5.839
 5678POPC   C1A71259   8.091  13.400   6.165
 5678POPC   D2A71260   8.265  13.565   6.531
 5678POPC   C3A71261   8.310  13.362   6.933
 5678POPC   C4A71262   8.055  13.548   7.226
 5678POPC   C1B71263   8.545  13.887   6.153
 5678POPC   C2B71264   8.642  13.892   6.605
 5678POPC   C3B71265   8.355  13.879   6.951
 5678POPC   C4B71266   8.510  13.925   7.356
 5679POPC   NC371267  19.260   8.226   5.329
 5679POPC   PO471268  18.562   7.974   5.423
 5679POPC   GL171269  18.908   8.180   5.745
 5679POPC   GL271270  19.294   8.298   5.815
 5679POPC   C1A71271  18.935   8.280   6.199
 5679POPC   D2A71272  18.781   8.120   6.595
 5679POPC   C3A71273  18.900   8.314   6.971
 5679POPC   C4A71274  18.893   8.090   7.362
 5679POPC   C1B71275  19.486   8.347   6.228
 5679POPC   C2B71276  19.284   8.257   6.585
 5679POPC   C3B71277  19.402   8.160   6.949
 5679POPC   C4B71278  19.334   8.340   7.288
 5680POPC   NC371279   4.344  31.763   5.444
 5680POPC   PO471280   4.318  31.103   5.320
 5680POPC   GL171281   4.284  31.316   5.749
 5680POPC   GL271282   4.028  31.562   5.789
 5680POPC   C1A71283   4.408  31.376   6.198
 5680POPC   D2A71284   4.567  31.261   6.625
 5680POPC   C3A71285   4.350  31.246   7.027
 5680POPC   C4A71286   4.506  31.405   7.433
 5680POPC   C1B71287   4.118  31.803   6.166
 5680POPC   C2B71288   4.328  31.738   6.588
 5680POPC   C3B71289   4.450  31.742   7.012
 5680POPC   C4B71290   4.097  31.655   7.270
 5681POPC   NC371291  19.049   1.832   5.215
 5681POPC   PO471292  18.707   2.373   5.415
 5681POPC   GL171293  18.971   2.103   5.670
 5681POPC   GL271294  18.828   1.797   5.740
 5681POPC   C1A71295  18.948   2.135   6.136
 5681POPC   D2A71296  19.195   2.167   6.533
 5681POPC   C3A71297  19.081   1.956   6.928
 5681POPC   C4A71298  19.162   2.191   7.317
 5681POPC   C1B71299  18.560   1.731   6.085
 5681POPC   C2B71300  18.668   1.820   6.505
 5681POPC   C3B71301  18.514   1.861   6.915
 5681POPC   C4B71302  18.670   2.074   7.257
 5682POPC   NC371303  17.043  13.436   5.059
 5682POPC   PO471304  16.444  13.662   5.368
 5682POPC   GL171305  16.561  13.548   5.790
 5682POPC   GL271306  16.309  13.327   5.909
 5682POPC   C1A71307  16.836  13.379   6.147
 5682POPC   D2A71308  16.876  13.228   6.594
 5682POPC   C3A71309  16.969  13.558   6.899
 5682POPC   C4A71310  16.995  13.601   7.335
 5682POPC   C1B71311  16.380  13.586   6.281
 5682POPC   C2B71312  16.485  13.582   6.716
 5682POPC   C3B71313  16.409  13.797   7.122
 5682POPC   C4B71314  16.513  13.648   7.555
 5683POPC   NC371315  40.862  21.637   5.413
 5683POPC   PO471316  40.413  21.226   5.642
 5683POPC   GL171317  40.568  21.297   5.973
 5683POPC   GL271318  40.854  21.400   5.869
 5683POPC   C1A71319  40.654  21.549   6.298
 5683POPC   D2A71320  40.874  21.726   6.567
 5683POPC   C3A71321  40.663  21.589   6.894
 5683POPC   C4A71322  40.639  21.555   7.323
 5683POPC   C1B71323  40.998  21.142   6.231
 5683POPC   C2B71324  41.056  21.252   6.646
 5683POPC   C3B71325  41.154  21.544   6.981
 5683POPC   C4B71326  41.118  21.356   7.367
 5684POPC   NC371327  25.412  32.168   5.392
 5684POPC   PO471328  25.051  32.668   5.387
 5684POPC   GL171329  25.185  32.435   5.755
 5684POPC   GL271330  25.532  32.436   5.794
 5684POPC   C1A71331  25.158  32.233   6.155
 5684POPC   D2A71332  25.220  32.472   6.519
 5684POPC   C3A71333  25.109  32.322   6.878
 5684POPC   C4A71334  25.127  32.206   7.266
 5684POPC   C1B71335  25.509  32.680   6.139
 5684POPC   C2B71336  25.716  32.652   6.528
 5684POPC   C3B71337  25.637  32.452   6.908
 5684POPC   C4B71338  25.486  32.578   7.281
 5685POPC   NC371339   0.300  29.685   5.453
 5685POPC   PO471340   0.654  30.227   5.296
 5685POPC   GL171341   0.604  30.276   5.751
 5685POPC   GL271342   0.298  30.048   5.822
 5685POPC   C1A71343   0.704  30.124   6.211
 5685POPC   D2A71344   0.819  29.831   6.593
 5685POPC   C3A71345   0.694  29.949   7.026
 5685POPC   C4A71346   0.626  30.069   7.479
 5685POPC   C1B71347   0.193  30.012   6.266
 5685POPC   C2B71348   0.342  30.097   6.695
 5685POPC   C3B71349   0.195  30.053   7.161
 5685POPC   C4B71350   0.216  29.741   7.511
 5686POPC   NC371351  36.822  15.522   5.382
 5686POPC   PO471352  37.082  14.770   5.414
 5686POPC   GL171353  36.794  15.045   5.699
 5686POPC   GL271354  36.973  15.319   5.844
 5686POPC   C1A71355  36.513  15.143   6.097
 5686POPC   D2A71356  36.587  15.035   6.571
 5686POPC   C3A71357  36.853  15.266   6.853
 5686POPC   C4A71358  36.941  15.196   7.297
 5686POPC   C1B71359  37.016  15.152   6.248
 5686POPC   C2B71360  37.218  14.910   6.562
 5686POPC   C3B71361  37.315  15.091   6.953
 5686POPC   C4B71362  37.438  15.049   7.358
 5687POPC   NC371363  35.569  23.960   5.500
 5687POPC   PO471364  35.086  23.443   5.437
 5687POPC   GL171365  35.264  23.587   5.833
 5687POPC   GL271366  35.272  23.957   5.921
 5687POPC   C1A71367  35.220  23.370   6.257
 5687POPC   D2A71368  34.979  23.404   6.657
 5687POPC   C3A71369  35.284  23.362   6.966
 5687POPC   C4A71370  35.335  23.401   7.400
 5687POPC   C1B71371  35.601  23.723   6.193
 5687POPC   C2B71372  35.680  23.500   6.589
 5687POPC   C3B71373  35.721  23.692   6.995
 5687POPC   C4B71374  35.456  23.949   7.245
 5688POPC   NC371375  42.700  12.351   5.474
 5688POPC   PO471376  42.231  11.822   5.433
 5688POPC   GL171377  42.381  12.055   5.774
 5688POPC   GL271378  42.694  11.836   5.823
 5688POPC   C1A71379  42.232  12.332   6.131
 5688POPC   D2A71380  42.424  12.325   6.549
 5688POPC   C3A71381  42.214  12.315   6.928
 5688POPC   C4A71382  42.525  12.297   7.253
 5688POPC   C1B71383  42.533  11.909   6.259
 5688POPC   C2B71384  42.300  11.838   6.658
 5688POPC   C3B71385  42.271  11.859   7.133
 5688POPC   C4B71386  42.028  11.589   7.367
 5689POPC   NC371387  24.011  38.586   5.644
 5689POPC   PO471388  23.473  38.499   5.175
 5689POPC   GL171389  23.497  38.528   5.660
 5689POPC   GL271390  23.637  38.202   5.742
 5689POPC   C1A71391  23.601  38.556   6.152
 5689POPC   D2A71392  23.801  38.380   6.549
 5689POPC   C3A71393  23.748  38.524   6.985
 5689POPC   C4A71394  23.614  38.317   7.367
 5689POPC   C1B71395  23.762  38.037   6.149
 5689POPC   C2B71396  24.130  38.004   6.424
 5689POPC   C3B71397  24.265  38.236   6.811
 5689POPC   C4B71398  24.083  38.217   7.210
 5690POPC   NC371399   0.796  19.582   5.444
 5690POPC   PO471400   0.079  19.520   5.317
 5690POPC   GL171401   0.343  19.703   5.678
 5690POPC   GL271402   0.489  20.034   5.685
 5690POPC   C1A71403   0.442  19.557   6.118
 5690POPC   D2A71404   0.248  19.676   6.526
 5690POPC   C3A71405   0.467  19.602   6.922
 5690POPC   C4A71406   0.364  19.524   7.341
 5690POPC   C1B71407   0.247  20.024   6.088
 5690POPC   C2B71408   0.326  20.213   6.475
 5690POPC   C3B71409   0.283  20.089   6.897
 5690POPC   C4B71410   0.517  20.016   7.276
 5691POPC   NC371411  17.019  35.791   5.383
 5691POPC   PO471412  16.577  36.292   5.236
 5691POPC   GL171413  16.635  36.065   5.670
 5691POPC   GL271414  16.977  36.138   5.795
 5691POPC   C1A71415  16.627  35.949   6.153
 5691POPC   D2A71416  16.602  36.079   6.606
 5691POPC   C3A71417  16.894  36.139   6.986
 5691POPC   C4A71418  16.764  36.157   7.449
 5691POPC   C1B71419  16.914  36.372   6.185
 5691POPC   C2B71420  16.874  36.539   6.608
 5691POPC   C3B71421  16.769  36.621   7.049
 5691POPC   C4B71422  17.155  36.503   7.301
 5692POPC   NC371423  35.877  39.521   5.437
 5692POPC   PO471424  36.560  39.267   5.384
 5692POPC   GL171425  36.275  39.264   5.723
 5692POPC   GL271426  36.041  39.009   5.612
 5692POPC   C1A71427  36.201  39.456   6.158
 5692POPC   D2A71428  36.008  39.550   6.574
 5692POPC   C3A71429  36.221  39.493   6.968
 5692POPC   C4A71430  36.008  39.465   7.361
 5692POPC   C1B71431  36.140  38.900   6.057
 5692POPC   C2B71432  36.222  39.067   6.506
 5692POPC   C3B71433  35.983  39.042   6.910
 5692POPC   C4B71434  36.062  38.816   7.302
 5693POPC   NC371435  26.169  10.788   5.631
 5693POPC   PO471436  25.716  11.150   5.264
 5693POPC   GL171437  26.044  11.311   5.645
 5693POPC   GL271438  25.973  11.597   5.877
 5693POPC   C1A71439  26.218  11.225   6.113
 5693POPC   D2A71440  26.092  11.070   6.504
 5693POPC   C3A71441  26.194  11.136   6.930
 5693POPC   C4A71442  25.856  11.089   7.231
 5693POPC   C1B71443  25.954  11.593   6.343
 5693POPC   C2B71444  25.916  11.797   6.737
 5693POPC   C3B71445  25.882  11.566   7.104
 5693POPC   C4B71446  26.049  11.489   7.522
 5694POPC   NC371447  13.270  23.153   5.394
 5694POPC   PO471448  13.900  22.768   5.441
 5694POPC   GL171449  13.699  22.900   5.822
 5694POPC   GL271450  13.439  23.131   5.870
 5694POPC   C1A71451  13.506  22.743   6.194
 5694POPC   D2A71452  13.290  22.664   6.557
 5694POPC   C3A71453  13.553  22.651   6.919
 5694POPC   C4A71454  13.483  22.725   7.352
 5694POPC   C1B71455  13.628  23.236   6.293
 5694POPC   C2B71456  13.777  23.084   6.704
 5694POPC   C3B71457  13.897  23.001   7.147
 5694POPC   C4B71458  13.675  23.176   7.517
 5695POPC   NC371459  22.307  42.031   5.106
 5695POPC   PO471460  21.804  42.452   5.332
 5695POPC   GL171461  22.094  42.476   5.678
 5695POPC   GL271462  22.194  42.128   5.744
 5695POPC   C1A71463  22.248  42.552   6.094
 5695POPC   D2A71464  22.107  42.716   6.488
 5695POPC   C3A71465  22.237  42.476   6.870
 5695POPC   C4A71466  22.113  42.541   7.300
 5695POPC   C1B71467  21.926  42.152   6.134
 5695POPC   C2B71468  21.847  42.248   6.566
 5695POPC   C3B71469  21.847  42.139   6.999
 5695POPC   C4B71470  22.201  42.019   7.236
 5696POPC   NC371471  20.023  19.395   5.490
 5696POPC   PO471472  20.290  18.912   5.417
 5696POPC   GL171473  20.056  19.041   5.869
 5696POPC   GL271474  19.715  19.276   5.879
 5696POPC   C1A71475  19.971  18.947   6.360
 5696POPC   D2A71476  19.625  18.892   6.694
 5696POPC   C3A71477  19.616  18.903   7.144
 5696POPC   C4A71478  19.864  18.832   7.521
 5696POPC   C1B71479  19.971  19.432   6.224
 5696POPC   C2B71480  19.877  19.344   6.697
 5696POPC   C3B71481  19.920  19.322   7.155
 5696POPC   C4B71482  20.053  19.282   7.636
 5697POPC   NC371483  39.706  34.245   5.131
 5697POPC   PO471484  40.042  34.792   5.304
 5697POPC   GL171485  39.890  34.565   5.728
 5697POPC   GL271486  39.677  34.789   5.987
 5697POPC   C1A71487  40.095  34.489   6.147
 5697POPC   D2A71488  40.349  34.748   6.457
 5697POPC   C3A71489  40.369  34.671   6.907
 5697POPC   C4A71490  40.320  34.330   7.208
 5697POPC   C1B71491  39.847  34.865   6.404
 5697POPC   C2B71492  39.923  34.484   6.656
 5697POPC   C3B71493  39.808  34.308   7.044
 5697POPC   C4B71494  39.938  34.670   7.288
 5698POPC   NC371495  12.228  20.621   5.212
 5698POPC   PO471496  11.646  20.588   5.609
 5698POPC   GL171497  12.000  20.561   5.822
 5698POPC   GL271498  12.329  20.488   5.699
 5698POPC   C1A71499  11.988  20.459   6.241
 5698POPC   D2A71500  12.175  20.349   6.612
 5698POPC   C3A71501  11.941  20.540   6.938
 5698POPC   C4A71502  11.986  20.527   7.376
 5698POPC   C1B71503  12.452  20.663   6.117
 5698POPC   C2B71504  12.620  20.691   6.533
 5698POPC   C3B71505  12.434  20.677   6.919
 5698POPC   C4B71506  12.465  20.675   7.359
 5699POPC   NC371507  42.390  17.320   5.445
 5699POPC   PO471508  42.118  17.916   5.324
 5699POPC   GL171509  42.145  17.679   5.715
 5699POPC   GL271510  41.969  17.323   5.745
 5699POPC   C1A71511  42.411  17.777   6.091
 5699POPC   D2A71512  42.555  17.872   6.526
 5699POPC   C3A71513  42.365  17.621   6.839
 5699POPC   C4A71514  42.214  17.667   7.217
 5699POPC   C1B71515  42.158  17.321   6.173
 5699POPC   C2B71516  42.198  17.208   6.613
 5699POPC   C3B71517  42.218  17.150   7.079
 5699POPC   C4B71518  42.260  17.265   7.526
 5700POPC   NC371519  38.953  20.124   5.416
 5700POPC   PO471520  38.331  19.721   5.389
 5700POPC   GL171521  38.233  19.769   5.783
 5700POPC   GL271522  38.302  19.448   5.923
 5700POPC   C1A71523  38.283  19.947   6.153
 5700POPC   D2A71524  38.385  19.748   6.535
 5700POPC   C3A71525  38.513  20.020   6.845
 5700POPC   C4A71526  38.384  19.990   7.239
 5700POPC   C1B71527  38.661  19.410   6.234
 5700POPC   C2B71528  38.647  19.290   6.646
 5700POPC   C3B71529  38.593  19.523   7.036
 5700POPC   C4B71530  38.508  19.408   7.465
 5701POPC   NC371531  32.529  20.628   5.353
 5701POPC   PO471532  31.892  20.981   5.471
 5701POPC   GL171533  32.085  20.641   5.734
 5701POPC   GL271534  32.458  20.679   5.851
 5701POPC   C1A71535  32.095  20.662   6.201
 5701POPC   D2A71536  31.908  20.722   6.629
 5701POPC   C3A71537  32.179  20.710   7.008
 5701POPC   C4A71538  32.251  20.715   7.454
 5701POPC   C1B71539  32.492  20.347   6.194
 5701POPC   C2B71540  32.202  20.296   6.569
 5701POPC   C3B71541  31.928  20.264   6.927
 5701POPC   C4B71542  32.229  20.236   7.225
 5702POPC   NC371543   6.787  44.892   5.026
 5702POPC   PO471544   6.933  44.454   5.520
 5702POPC   GL171545   6.750  44.686   5.825
 5702POPC   GL271546   6.454  44.809   5.729
 5702POPC   C1A71547   6.861  44.808   6.232
 5702POPC   D2A71548   6.951   0.001   6.581
 5702POPC   C3A71549   6.745  44.710   6.884
 5702POPC   C4A71550   6.897  44.493   7.216
 5702POPC   C1B71551   6.397  44.949   6.122
 5702POPC   C2B71552   6.434  44.939   6.551
 5702POPC   C3B71553   6.323  44.967   6.992
 5702POPC   C4B71554   6.349  44.588   7.224
 5703POPC   NC371555   9.362  23.467   5.520
 5703POPC   PO471556   9.296  24.159   5.437
 5703POPC   GL171557   9.097  23.873   5.777
 5703POPC   GL271558   8.938  23.515   5.823
 5703POPC   C1A71559   9.099  23.917   6.218
 5703POPC   D2A71560   8.906  23.886   6.607
 5703POPC   C3A71561   9.141  24.028   6.931
 5703POPC   C4A71562   8.951  23.969   7.290
 5703POPC   C1B71563   9.132  23.397   6.229
 5703POPC   C2B71564   9.261  23.521   6.650
 5703POPC   C3B71565   9.043  23.500   7.039
 5703POPC   C4B71566   9.095  23.294   7.453
 5704POPC   NC371567   0.130  34.758   5.678
 5704POPC   PO471568  44.882  34.210   5.471
 5704POPC   GL171569  44.612  34.401   5.762
 5704POPC   GL271570  44.894  34.416   5.953
 5704POPC   C1A71571  44.492  34.359   6.239
 5704POPC   D2A71572  44.686  34.426   6.679
 5704POPC   C3A71573  44.396  34.244   7.002
 5704POPC   C4A71574  44.192  34.378   7.406
 5704POPC   C1B71575  44.850  34.736   6.285
 5704POPC   C2B71576   0.064  34.870   6.658
 5704POPC   C3B71577  44.976  34.922   7.100
 5704POPC   C4B71578  44.689  34.601   7.211
 5705POPC   NC371579  42.398  22.804   5.158
 5705POPC   PO471580  42.449  22.151   5.298
 5705POPC   GL171581  42.261  22.210   5.681
 5705POPC   GL271582  41.983  22.440   5.576
 5705POPC   C1A71583  42.353  22.053   6.121
 5705POPC   D2A71584  42.584  22.122   6.509
 5705POPC   C3A71585  42.360  21.976   6.872
 5705POPC   C4A71586  42.282  21.957   7.297
 5705POPC   C1B71587  41.895  22.321   6.022
 5705POPC   C2B71588  42.008  22.270   6.475
 5705POPC   C3B71589  41.914  22.211   6.925
 5705POPC   C4B71590  42.044  22.473   7.236
 5706POPC   NC371591  41.215  34.066   5.369
 5706POPC   PO471592  40.515  33.917   5.405
 5706POPC   GL171593  40.834  33.855   5.722
 5706POPC   GL271594  40.647  33.568   5.879
 5706POPC   C1A71595  40.838  33.944   6.171
 5706POPC   D2A71596  40.703  33.659   6.512
 5706POPC   C3A71597  40.829  33.844   6.909
 5706POPC   C4A71598  40.632  33.932   7.275
 5706POPC   C1B71599  41.037  33.481   6.099
 5706POPC   C2B71600  41.130  33.273   6.505
 5706POPC   C3B71601  40.985  33.368   6.903
 5706POPC   C4B71602  40.921  33.512   7.326
 5707POPC   NC371603  34.947  25.002   5.486
 5707POPC   PO471604  35.598  25.256   5.471
 5707POPC   GL171605  35.361  25.082   5.820
 5707POPC   GL271606  35.071  25.333   5.906
 5707POPC   C1A71607  35.358  25.089   6.272
 5707POPC   D2A71608  35.173  24.850   6.612
 5707POPC   C3A71609  35.158  24.939   7.031
 5707POPC   C4A71610  35.548  24.902   7.236
 5707POPC   C1B71611  35.081  25.544   6.331
 5707POPC   C2B71612  35.290  25.360   6.705
 5707POPC   C3B71613  35.331  25.401   7.155
 5707POPC   C4B71614  35.030  25.555   7.460
 5708POPC   NC371615  24.783   9.067   5.481
 5708POPC   PO471616  25.453   8.796   5.319
 5708POPC   GL171617  25.234   8.773   5.757
 5708POPC   GL271618  25.516   8.706   5.972
 5708POPC   C1A71619  25.039   8.586   6.175
 5708POPC   D2A71620  24.731   8.684   6.525
 5708POPC   C3A71621  24.921   8.704   6.961
 5708POPC   C4A71622  25.129   8.344   7.183
 5708POPC   C1B71623  25.359   8.975   6.318
 5708POPC   C2B71624  25.414   9.221   6.713
 5708POPC   C3B71625  25.223   9.113   7.102
 5708POPC   C4B71626  25.260   8.826   7.461
 5709POPC   NC371627  10.768  23.960   5.544
 5709POPC   PO471628  11.446  23.761   5.363
 5709POPC   GL171629  11.246  23.815   5.787
 5709POPC   GL271630  10.958  23.626   5.878
 5709POPC   C1A71631  11.361  23.845   6.227
 5709POPC   D2A71632  11.648  23.823   6.568
 5709POPC   C3A71633  11.543  24.039   6.939
 5709POPC   C4A71634  11.253  24.078   7.285
 5709POPC   C1B71635  11.152  23.394   6.176
 5709POPC   C2B71636  11.307  23.432   6.573
 5709POPC   C3B71637  11.191  23.646   6.916
 5709POPC   C4B71638  11.287  23.552   7.315
 5710POPC   NC371639  39.694   8.534   5.413
 5710POPC   PO471640  40.355   8.763   5.595
 5710POPC   GL171641  39.943   8.873   5.745
 5710POPC   GL271642  39.789   8.570   5.917
 5710POPC   C1A71643  39.907   9.045   6.155
 5710POPC   D2A71644  39.698   9.155   6.545
 5710POPC   C3A71645  39.983   9.159   6.856
 5710POPC   C4A71646  39.888   8.968   7.200
 5710POPC   C1B71647  40.158   8.595   6.189
 5710POPC   C2B71648  40.234   8.790   6.588
 5710POPC   C3B71649  40.246   8.643   7.015
 5710POPC   C4B71650  40.196   8.728   7.482
 5711POPC   NC371651  39.072   1.680   5.183
 5711POPC   PO471652  39.386   2.160   5.511
 5711POPC   GL171653  39.058   2.126   5.848
 5711POPC   GL271654  39.129   1.815   5.902
 5711POPC   C1A71655  38.993   2.031   6.330
 5711POPC   D2A71656  39.263   2.087   6.670
 5711POPC   C3A71657  39.050   2.171   7.048
 5711POPC   C4A71658  39.388   2.099   7.268
 5711POPC   C1B71659  39.404   1.705   6.275
 5711POPC   C2B71660  39.329   1.511   6.651
 5711POPC   C3B71661  39.197   1.682   6.998
 5711POPC   C4B71662  38.988   1.746   7.334
 5712POPC   NC371663  36.619  29.744   5.439
 5712POPC   PO471664  35.975  29.705   5.293
 5712POPC   GL171665  36.108  29.811   5.708
 5712POPC   GL271666  35.910  30.129   5.709
 5712POPC   C1A71667  36.088  29.873   6.171
 5712POPC   D2A71668  35.928  29.693   6.567
 5712POPC   C3A71669  36.215  29.686   6.924
 5712POPC   C4A71670  36.288  29.761   7.369
 5712POPC   C1B71671  36.143  30.364   6.037
 5712POPC   C2B71672  35.937  30.324   6.456
 5712POPC   C3B71673  36.008  30.149   6.860
 5712POPC   C4B71674  36.162  30.233   7.265
 5713POPC   NC371675   6.541  23.269   5.389
 5713POPC   PO471676   6.947  23.834   5.282
 5713POPC   GL171677   6.800  23.742   5.780
 5713POPC   GL271678   6.449  23.578   5.791
 5713POPC   C1A71679   6.862  23.814   6.236
 5713POPC   D2A71680   6.883  23.830   6.684
 5713POPC   C3A71681   6.594  23.615   6.945
 5713POPC   C4A71682   6.630  23.585   7.396
 5713POPC   C1B71683   6.388  23.912   6.085
 5713POPC   C2B71684   6.399  23.902   6.510
 5713POPC   C3B71685   6.477  24.140   6.839
 5713POPC   C4B71686   6.311  23.967   7.195
 5714POPC   NC371687  43.793   2.381   5.331
 5714POPC   PO471688  44.162   2.893   5.220
 5714POPC   GL171689  43.941   2.749   5.646
 5714POPC   GL271690  43.591   2.746   5.703
 5714POPC   C1A71691  44.023   2.775   6.089
 5714POPC   D2A71692  44.043   2.841   6.521
 5714POPC   C3A71693  44.144   2.523   6.780
 5714POPC   C4A71694  44.015   2.743   7.105
 5714POPC   C1B71695  43.550   2.596   6.126
 5714POPC   C2B71696  43.571   2.554   6.574
 5714POPC   C3B71697  43.667   2.425   6.994
 5714POPC   C4B71698  43.757   2.554   7.499
 5715POPC   NC371699   1.904   9.323   5.495
 5715POPC   PO471700   1.569   8.697   5.486
 5715POPC   GL171701   1.906   8.735   5.826
 5715POPC   GL271702   2.080   9.066   5.901
 5715POPC   C1A71703   2.015   8.714   6.276
 5715POPC   D2A71704   1.807   8.953   6.584
 5715POPC   C3A71705   1.829   8.767   6.975
 5715POPC   C4A71706   1.768   8.650   7.388
 5715POPC   C1B71707   2.287   9.282   6.243
 5715POPC   C2B71708   2.062   9.445   6.602
 5715POPC   C3B71709   1.935   9.276   6.984
 5715POPC   C4B71710   2.157   9.030   7.266
 5716POPC   NC371711  20.611  24.699   5.330
 5716POPC   PO471712  20.456  24.083   5.145
 5716POPC   GL171713  20.360  24.406   5.633
 5716POPC   GL271714  20.667  24.574   5.825
 5716POPC   C1A71715  20.323  24.382   6.151
 5716POPC   D2A71716  20.425  24.181   6.595
 5716POPC   C3A71717  20.497  24.406   7.005
 5716POPC   C4A71718  20.514  24.295   7.491
 5716POPC   C1B71719  20.863  24.442   6.230
 5716POPC   C2B71720  20.976  24.250   6.636
 5716POPC   C3B71721  20.978  24.319   7.099
 5716POPC   C4B71722  20.764  24.694   7.347
 5717POPC   NC371723  43.733  18.603   5.343
 5717POPC   PO471724  44.223  18.219   5.554
 5717POPC   GL171725  43.979  18.276   5.858
 5717POPC   GL271726  43.972  18.630   5.797
 5717POPC   C1A71727  44.107  18.263   6.277
 5717POPC   D2A71728  44.001  18.158   6.686
 5717POPC   C3A71729  43.839  18.468   6.946
 5717POPC   C4A71730  44.057  18.339   7.301
 5717POPC   C1B71731  43.741  18.602   6.175
 5717POPC   C2B71732  43.579  18.352   6.485
 5717POPC   C3B71733  43.325  18.400   6.825
 5717POPC   C4B71734  43.351  18.414   7.241
 5718POPC   NC371735  15.175   8.504   5.511
 5718POPC   PO471736  15.145   7.763   5.458
 5718POPC   GL171737  15.304   8.051   5.748
 5718POPC   GL271738  14.945   8.153   5.826
 5718POPC   C1A71739  15.410   8.311   6.125
 5718POPC   D2A71740  15.196   8.483   6.469
 5718POPC   C3A71741  15.324   8.292   6.843
 5718POPC   C4A71742  15.160   8.304   7.210
 5718POPC   C1B71743  15.041   7.970   6.218
 5718POPC   C2B71744  14.942   8.057   6.619
 5718POPC   C3B71745  15.055   7.868   6.968
 5718POPC   C4B71746  14.904   7.864   7.362
 5719POPC   NC371747  35.934  42.966   5.491
 5719POPC   PO471748  36.396  43.476   5.373
 5719POPC   GL171749  36.273  43.247   5.760
 5719POPC   GL271750  36.382  42.883   5.790
 5719POPC   C1A71751  36.055  43.327   6.194
 5719POPC   D2A71752  35.915  43.459   6.631
 5719POPC   C3A71753  36.118  43.292   7.021
 5719POPC   C4A71754  35.958  43.111   7.411
 5719POPC   C1B71755  36.175  42.829   6.212
 5719POPC   C2B71756  35.944  42.927   6.629
 5719POPC   C3B71757  36.065  42.756   7.057
 5719POPC   C4B71758  36.402  42.785   7.401
 5720POPC   NC371759  21.424  11.722   5.572
 5720POPC   PO471760  21.869  12.245   5.480
 5720POPC   GL171761  21.719  12.145   5.879
 5720POPC   GL271762  21.821  11.809   5.888
 5720POPC   C1A71763  21.439  12.308   6.239
 5720POPC   D2A71764  21.118  12.183   6.574
 5720POPC   C3A71765  21.219  11.902   6.915
 5720POPC   C4A71766  21.450  12.178   7.177
 5720POPC   C1B71767  21.587  11.824   6.268
 5720POPC   C2B71768  21.660  12.023   6.659
 5720POPC   C3B71769  21.723  11.774   7.018
 5720POPC   C4B71770  21.590  11.700   7.418
 5721POPC   NC371771  44.696  15.335   5.318
 5721POPC   PO471772  44.101  15.080   5.521
 5721POPC   GL171773  44.500  15.171   5.789
 5721POPC   GL271774  44.906  15.245   5.794
 5721POPC   C1A71775  44.640  15.081   6.212
 5721POPC   D2A71776  44.692  14.835   6.587
 5721POPC   C3A71777  44.627  15.091   6.946
 5721POPC   C4A71778  44.563  14.959   7.326
 5721POPC   C1B71779   0.124  15.285   6.217
 5721POPC   C2B71780   0.032  15.207   6.659
 5721POPC   C3B71781   0.115  14.918   7.006
 5721POPC   C4B71782   0.117  14.882   7.464
 5722POPC   NC371783  34.510   5.278   5.511
 5722POPC   PO471784  34.921   4.770   5.664
 5722POPC   GL171785  34.677   5.022   5.938
 5722POPC   GL271786  34.318   4.999   5.895
 5722POPC   C1A71787  34.695   5.373   6.221
 5722POPC   D2A71788  34.544   5.454   6.649
 5722POPC   C3A71789  34.764   5.155   6.922
 5722POPC   C4A71790  34.730   4.998   7.309
 5722POPC   C1B71791  34.217   4.771   6.277
 5722POPC   C2B71792  34.426   4.829   6.709
 5722POPC   C3B71793  34.219   4.810   7.114
 5722POPC   C4B71794  34.314   4.845   7.555
 5723POPC   NC371795  17.185  21.265   5.414
 5723POPC   PO471796  17.686  21.760   5.433
 5723POPC   GL171797  17.389  21.639   5.789
 5723POPC   GL271798  17.452  21.275   5.847
 5723POPC   C1A71799  17.431  21.622   6.263
 5723POPC   D2A71800  17.576  21.847   6.675
 5723POPC   C3A71801  17.747  21.537   6.968
 5723POPC   C4A71802  17.354  21.380   7.049
 5723POPC   C1B71803  17.107  21.202   6.148
 5723POPC   C2B71804  17.245  21.055   6.563
 5723POPC   C3B71805  17.171  20.916   6.998
 5723POPC   C4B71806  17.267  21.108   7.462
 5724POPC   NC371807  39.699   5.919   5.357
 5724POPC   PO471808  40.390   5.838   5.509
 5724POPC   GL171809  40.016   5.888   5.816
 5724POPC   GL271810  39.882   5.581   5.701
 5724POPC   C1A71811  39.882   6.006   6.283
 5724POPC   D2A71812  39.794   6.331   6.620
 5724POPC   C3A71813  39.670   6.189   7.033
 5724POPC   C4A71814  39.996   6.076   7.343
 5724POPC   C1B71815  39.761   5.530   6.124
 5724POPC   C2B71816  39.722   5.571   6.562
 5724POPC   C3B71817  39.922   5.746   6.958
 5724POPC   C4B71818  39.743   5.628   7.383
 5725POPC   NC371819  35.865  15.809   5.430
 5725POPC   PO471820  36.373  16.130   5.573
 5725POPC   GL171821  36.122  15.964   5.864
 5725POPC   GL271822  35.815  16.096   5.843
 5725POPC   C1A71823  36.147  16.069   6.282
 5725POPC   D2A71824  36.248  15.806   6.592
 5725POPC   C3A71825  36.213  15.976   6.975
 5725POPC   C4A71826  36.216  15.898   7.394
 5725POPC   C1B71827  35.665  15.912   6.242
 5725POPC   C2B71828  35.756  15.974   6.688
 5725POPC   C3B71829  35.714  15.906   7.136
 5725POPC   C4B71830  35.769  16.116   7.550
 5726POPC   NC371831  26.816  10.661   5.130
 5726POPC   PO471832  26.270  10.351   5.498
 5726POPC   GL171833  26.647  10.542   5.716
 5726POPC   GL271834  26.689  10.190   5.817
 5726POPC   C1A71835  26.931  10.670   6.113
 5726POPC   D2A71836  27.075  10.925   6.492
 5726POPC   C3A71837  27.011  10.790   6.894
 5726POPC   C4A71838  27.000  10.562   7.283
 5726POPC   C1B71839  26.607  10.296   6.243
 5726POPC   C2B71840  26.623  10.409   6.646
 5726POPC   C3B71841  26.441  10.228   6.962
 5726POPC   C4B71842  26.594  10.164   7.332
 5727POPC   NC371843  39.194  33.915   5.634
 5727POPC   PO471844  38.786  33.397   5.448
 5727POPC   GL171845  38.806  33.659   5.828
 5727POPC   GL271846  38.767  34.032   5.911
 5727POPC   C1A71847  39.038  33.671   6.222
 5727POPC   D2A71848  39.297  33.629   6.571
 5727POPC   C3A71849  39.101  33.714   6.922
 5727POPC   C4A71850  39.250  33.494   7.222
 5727POPC   C1B71851  39.096  34.194   6.225
 5727POPC   C2B71852  39.215  34.156   6.663
 5727POPC   C3B71853  39.257  34.178   7.122
 5727POPC   C4B71854  38.999  33.892   7.399
 5728POPC   NC371855  10.463  10.585   5.243
 5728POPC   PO471856  10.972  10.496   5.623
 5728POPC   GL171857  10.586  10.269   5.787
 5728POPC   GL271858  10.253  10.235   5.692
 5728POPC   C1A71859  10.532  10.173   6.197
 5728POPC   D2A71860  10.786  10.353   6.491
 5728POPC   C3A71861  10.631  10.364   6.864
 5728POPC   C4A71862  10.793  10.597   7.197
 5728POPC   C1B71863  10.179  10.502   6.048
 5728POPC   C2B71864  10.255  10.553   6.501
 5728POPC   C3B71865  10.128  10.445   6.934
 5728POPC   C4B71866  10.337  10.139   7.222
 5729POPC   NC371867  41.636  23.169   5.501
 5729POPC   PO471868  41.187  22.726   5.370
 5729POPC   GL171869  41.312  22.874   5.759
 5729POPC   GL271870  41.684  22.779   5.835
 5729POPC   C1A71871  41.379  23.035   6.170
 5729POPC   D2A71872  41.510  22.932   6.574
 5729POPC   C3A71873  41.620  23.194   6.902
 5729POPC   C4A71874  41.426  23.143   7.280
 5729POPC   C1B71875  41.918  22.788   6.256
 5729POPC   C2B71876  41.972  22.768   6.723
 5729POPC   C3B71877  42.005  22.960   7.146
 5729POPC   C4B71878  41.796  22.938   7.571
 5730POPC   NC371879  29.894  37.226   5.407
 5730POPC   PO471880  30.166  36.666   5.363
 5730POPC   GL171881  29.979  36.803   5.784
 5730POPC   GL271882  29.669  36.623   5.937
 5730POPC   C1A71883  29.952  36.934   6.221
 5730POPC   D2A71884  29.971  36.795   6.657
 5730POPC   C3A71885  29.899  37.050   7.024
 5730POPC   C4A71886  29.990  36.763   7.324
 5730POPC   C1B71887  29.857  36.435   6.305
 5730POPC   C2B71888  29.651  36.321   6.698
 5730POPC   C3B71889  29.623  36.417   7.138
 5730POPC   C4B71890  29.524  36.666   7.494
 5731POPC   NC371891  17.928  16.216   5.530
 5731POPC   PO471892  18.460  15.741   5.382
 5731POPC   GL171893  18.544  15.856   5.813
 5731POPC   GL271894  18.238  15.937   5.824
 5731POPC   C1A71895  18.554  15.944   6.301
 5731POPC   D2A71896  18.389  15.785   6.719
 5731POPC   C3A71897  18.422  15.889   7.178
 5731POPC   C4A71898  18.553  16.210   7.504
 5731POPC   C1B71899  18.115  16.165   6.165
 5731POPC   C2B71900  17.999  16.073   6.563
 5731POPC   C3B71901  17.975  15.973   6.978
 5731POPC   C4B71902  18.046  16.137   7.410
 5732POPC   NC371903  10.345  27.316   5.565
 5732POPC   PO471904  10.827  27.801   5.801
 5732POPC   GL171905  10.547  27.570   5.958
 5732POPC   GL271906  10.774  27.283   5.878
 5732POPC   C1A71907  10.199  27.679   6.201
 5732POPC   D2A71908  10.190  27.828   6.623
 5732POPC   C3A71909  10.471  27.740   6.944
 5732POPC   C4A71910  10.391  27.774   7.400
 5732POPC   C1B71911  10.492  27.113   6.201
 5732POPC   C2B71912  10.443  27.368   6.545
 5732POPC   C3B71913  10.396  27.253   6.949
 5732POPC   C4B71914  10.662  27.364   7.270
 5733POPC   NC371915  12.901  10.181   5.357
 5733POPC   PO471916  12.629  10.825   5.262
 5733POPC   GL171917  12.570  10.646   5.685
 5733POPC   GL271918  12.441  10.293   5.704
 5733POPC   C1A71919  12.664  10.745   6.110
 5733POPC   D2A71920  12.563  10.814   6.564
 5733POPC   C3A71921  12.917  10.820   6.847
 5733POPC   C4A71922  12.907  10.619   7.227
 5733POPC   C1B71923  12.495  10.284   6.183
 5733POPC   C2B71924  12.724  10.336   6.635
 5733POPC   C3B71925  12.522  10.343   7.069
 5733POPC   C4B71926  12.647  10.294   7.517
 5734POPC   NC371927  15.353  34.930   5.531
 5734POPC   PO471928  14.947  35.413   5.344
 5734POPC   GL171929  15.142  35.379   5.726
 5734POPC   GL271930  14.981  35.093   5.831
 5734POPC   C1A71931  15.317  35.310   6.150
 5734POPC   D2A71932  15.435  35.584   6.484
 5734POPC   C3A71933  15.296  35.484   6.919
 5734POPC   C4A71934  15.041  35.679   7.227
 5734POPC   C1B71935  14.796  35.196   6.232
 5734POPC   C2B71936  14.954  35.220   6.620
 5734POPC   C3B71937  14.840  35.245   7.020
 5734POPC   C4B71938  15.122  35.051   7.225
 5735POPC   NC371939  38.945   7.878   5.502
 5735POPC   PO471940  39.515   8.108   5.404
 5735POPC   GL171941  39.330   8.350   5.766
 5735POPC   GL271942  39.240   8.047   5.881
 5735POPC   C1A71943  39.396   8.424   6.252
 5735POPC   D2A71944  39.593   8.320   6.704
 5735POPC   C3A71945  39.303   8.254   7.090
 5735POPC   C4A71946  39.199   8.467   7.490
 5735POPC   C1B71947  38.993   8.079   6.207
 5735POPC   C2B71948  39.092   8.180   6.602
 5735POPC   C3B71949  38.838   8.276   6.896
 5735POPC   C4B71950  38.811   8.195   7.338
 5736POPC   NC371951  34.463  36.578   5.409
 5736POPC   PO471952  34.397  35.927   5.365
 5736POPC   GL171953  34.280  36.177   5.732
 5736POPC   GL271954  34.616  36.271   5.822
 5736POPC   C1A71955  34.219  36.139   6.208
 5736POPC   D2A71956  34.120  35.898   6.623
 5736POPC   C3A71957  34.297  36.052   7.015
 5736POPC   C4A71958  34.514  36.430   7.127
 5736POPC   C1B71959  34.776  36.212   6.241
 5736POPC   C2B71960  34.661  36.237   6.684
 5736POPC   C3B71961  34.946  36.173   7.080
 5736POPC   C4B71962  35.065  36.293   7.518
 5737POPC   NC371963  14.414  27.177   5.559
 5737POPC   PO471964  14.339  27.832   5.353
 5737POPC   GL171965  14.224  27.855   5.801
 5737POPC   GL271966  14.367  27.560   5.871
 5737POPC   C1A71967  14.129  27.680   6.275
 5737POPC   D2A71968  14.387  27.730   6.652
 5737POPC   C3A71969  14.246  27.784   7.065
 5737POPC   C4A71970  14.007  27.502   7.296
 5737POPC   C1B71971  14.650  27.633   6.220
 5737POPC   C2B71972  14.931  27.583   6.579
 5737POPC   C3B71973  14.882  27.463   6.996
 5737POPC   C4B71974  14.708  27.610   7.361
 5738POPC   NC371975  38.901  41.052   5.438
 5738POPC   PO471976  39.552  40.925   5.581
 5738POPC   GL171977  39.174  40.852   5.835
 5738POPC   GL271978  39.182  40.511   5.813
 5738POPC   C1A71979  39.019  40.889   6.285
 5738POPC   D2A71980  39.211  41.041   6.710
 5738POPC   C3A71981  38.921  40.970   7.062
 5738POPC   C4A71982  38.890  40.623   7.347
 5738POPC   C1B71983  39.456  40.606   6.188
 5738POPC   C2B71984  39.516  40.372   6.566
 5738POPC   C3B71985  39.293  40.390   6.957
 5738POPC   C4B71986  39.362  40.777   7.156
 5739POPC   NC371987   5.250  28.143   5.474
 5739POPC   PO471988   4.984  28.815   5.492
 5739POPC   GL171989   5.172  28.559   5.792
 5739POPC   GL271990   5.521  28.701   5.738
 5739POPC   C1A71991   5.000  28.287   6.167
 5739POPC   D2A71992   4.785  28.308   6.583
 5739POPC   C3A71993   4.982  28.229   6.958
 5739POPC   C4A71994   5.173  28.364   7.292
 5739POPC   C1B71995   5.464  28.509   6.193
 5739POPC   C2B71996   5.321  28.412   6.590
 5739POPC   C3B71997   5.484  28.567   6.952
 5739POPC   C4B71998   5.649  28.640   7.364
 5740POPC   NC371999   5.620  21.605   5.184
 5740POPC   PO472000   5.912  20.994   5.327
 5740POPC   GL172001   5.856  21.272   5.706
 5740POPC   GL272002   5.626  21.600   5.702
 5740POPC   C1A72003   6.022  21.274   6.146
 5740POPC   D2A72004   6.098  21.511   6.515
 5740POPC   C3A72005   6.125  21.252   6.855
 5740POPC   C4A72006   5.901  21.263   7.186
 5740POPC   C1B72007   5.771  21.755   6.116
 5740POPC   C2B72008   5.624  21.732   6.537
 5740POPC   C3B72009   5.580  21.549   6.921
 5740POPC   C4B72010   5.447  21.638   7.296
 5741POPC   NC372011  17.791  19.265   5.457
 5741POPC   PO472012  17.128  19.284   5.468
 5741POPC   GL172013  17.394  19.160   5.840
 5741POPC   GL272014  17.722  18.939   5.883
 5741POPC   C1A72015  17.413  19.115   6.306
 5741POPC   D2A72016  17.477  18.868   6.694
 5741POPC   C3A72017  17.208  19.007   7.048
 5741POPC   C4A72018  17.303  19.213   7.438
 5741POPC   C1B72019  17.883  18.907   6.339
 5741POPC   C2B72020  17.862  19.220   6.687
 5741POPC   C3B72021  17.707  19.097   7.094
 5741POPC   C4B72022  17.644  18.862   7.462
 5742POPC   NC372023  32.010  31.666   5.303
 5742POPC   PO472024  32.451  31.191   5.444
 5742POPC   GL172025  32.314  31.413   5.829
 5742POPC   GL272026  32.343  31.758   5.742
 5742POPC   C1A72027  32.190  31.346   6.288
 5742POPC   D2A72028  31.958  31.455   6.679
 5742POPC   C3A72029  32.117  31.349   7.095
 5742POPC   C4A72030  32.027  31.520   7.520
 5742POPC   C1B72031  32.097  31.827   6.120
 5742POPC   C2B72032  32.191  31.898   6.557
 5742POPC   C3B72033  32.258  31.825   7.006
 5742POPC   C4B72034  32.115  32.017   7.403
 5743POPC   NC372035  21.115  10.295   5.546
 5743POPC   PO472036  21.763  10.470   5.510
 5743POPC   GL172037  21.457  10.632   5.760
 5743POPC   GL272038  21.495  10.339   5.967
 5743POPC   C1A72039  21.444  10.827   6.164
 5743POPC   D2A72040  21.302  11.000   6.575
 5743POPC   C3A72041  21.298  10.678   6.892
 5743POPC   C4A72042  21.549  10.788   7.259
 5743POPC   C1B72043  21.347  10.387   6.396
 5743POPC   C2B72044  20.999  10.294   6.654
 5743POPC   C3B72045  21.077  10.171   7.050
 5743POPC   C4B72046  21.493  10.285   7.207
 5744POPC   NC372047  15.820  25.723   5.484
 5744POPC   PO472048  16.344  26.182   5.311
 5744POPC   GL172049  16.120  26.165   5.763
 5744POPC   GL272050  16.018  25.855   5.929
 5744POPC   C1A72051  16.019  26.304   6.210
 5744POPC   D2A72052  15.889  26.130   6.620
 5744POPC   C3A72053  15.710  26.342   6.981
 5744POPC   C4A72054  15.802  26.225   7.406
 5744POPC   C1B72055  15.648  25.952   6.190
 5744POPC   C2B72056  15.471  25.835   6.592
 5744POPC   C3B72057  15.633  25.829   7.025
 5744POPC   C4B72058  15.440  25.847   7.431
 5745POPC   NC372059  22.510   2.020   5.411
 5745POPC   PO472060  21.867   1.838   5.532
 5745POPC   GL172061  22.108   1.921   5.871
 5745POPC   GL272062  22.324   2.186   5.865
 5745POPC   C1A72063  22.019   1.935   6.286
 5745POPC   D2A72064  21.783   1.974   6.603
 5745POPC   C3A72065  21.988   1.787   6.896
 5745POPC   C4A72066  22.145   1.991   7.206
 5745POPC   C1B72067  22.503   2.051   6.269
 5745POPC   C2B72068  22.394   2.066   6.720
 5745POPC   C3B72069  22.555   2.266   7.089
 5745POPC   C4B72070  22.462   2.706   7.126
 5746POPC   NC372071  25.089  43.392   5.407
 5746POPC   PO472072  25.477  42.840   5.254
 5746POPC   GL172073  25.241  42.949   5.586
 5746POPC   GL272074  25.411  43.209   5.783
 5746POPC   C1A72075  25.124  42.785   5.952
 5746POPC   D2A72076  25.265  42.918   6.349
 5746POPC   C3A72077  25.095  42.836   6.750
 5746POPC   C4A72078  25.177  42.812   7.193
 5746POPC   C1B72079  25.378  43.416   6.223
 5746POPC   C2B72080  25.240  43.396   6.686
 5746POPC   C3B72081  25.292  43.306   7.150
 5746POPC   C4B72082  25.386  43.433   7.631
 5747POPC   NC372083  10.126  36.793   5.532
 5747POPC   PO472084   9.458  37.058   5.375
 5747POPC   GL172085   9.684  37.047   5.770
 5747POPC   GL272086   9.904  37.325   5.843
 5747POPC   C1A72087   9.556  36.841   6.168
 5747POPC   D2A72088   9.744  36.783   6.589
 5747POPC   C3A72089   9.569  36.914   6.974
 5747POPC   C4A72090   9.550  36.604   7.289
 5747POPC   C1B72091   9.988  37.117   6.272
 5747POPC   C2B72092  10.058  37.166   6.747
 5747POPC   C3B72093  10.017  36.965   7.192
 5747POPC   C4B72094  10.059  37.027   7.666
 5748POPC   NC372095   5.759  22.632   5.599
 5748POPC   PO472096   6.267  22.902   5.299
 5748POPC   GL172097   6.065  23.004   5.731
 5748POPC   GL272098   5.998  23.314   5.858
 5748POPC   C1A72099   6.062  22.790   6.162
 5748POPC   D2A72100   5.810  22.694   6.549
 5748POPC   C3A72101   5.867  22.959   6.943
 5748POPC   C4A72102   5.900  23.126   7.385
 5748POPC   C1B72103   5.761  23.188   6.249
 5748POPC   C2B72104   5.531  23.279   6.655
 5748POPC   C3B72105   5.521  23.325   7.105
 5748POPC   C4B72106   5.414  22.989   7.425
 5749POPC   NC372107  35.217  27.572   5.468
 5749POPC   PO472108  35.654  28.097   5.385
 5749POPC   GL172109  35.647  27.765   5.768
 5749POPC   GL272110  35.360  27.560   5.942
 5749POPC   C1A72111  35.717  27.708   6.245
 5749POPC   D2A72112  35.552  27.697   6.680
 5749POPC   C3A72113  35.398  27.623   7.120
 5749POPC   C4A72114  35.618  27.335   7.374
 5749POPC   C1B72115  35.190  27.542   6.351
 5749POPC   C2B72116  35.017  27.255   6.652
 5749POPC   C3B72117  35.011  27.285   7.105
 5749POPC   C4B72118  35.149  27.219   7.510
 5750POPC   NC372119   7.668  28.347   5.501
 5750POPC   PO472120   7.083  28.136   5.206
 5750POPC   GL172121   7.109  28.146   5.662
 5750POPC   GL272122   7.289  28.431   5.840
 5750POPC   C1A72123   7.144  28.035   6.097
 5750POPC   D2A72124   7.399  28.230   6.418
 5750POPC   C3A72125   7.358  28.128   6.830
 5750POPC   C4A72126   7.450  28.053   7.238
 5750POPC   C1B72127   7.487  28.676   6.189
 5750POPC   C2B72128   7.404  28.702   6.661
 5750POPC   C3B72129   7.440  28.560   7.111
 5750POPC   C4B72130   7.660  28.492   7.492
 5751POPC   NC372131   7.800  22.972   5.530
 5751POPC   PO472132   7.262  22.816   5.255
 5751POPC   GL172133   7.350  22.779   5.698
 5751POPC   GL272134   7.636  22.561   5.790
 5751POPC   C1A72135   7.456  22.964   6.121
 5751POPC   D2A72136   7.289  23.019   6.530
 5751POPC   C3A72137   7.485  23.095   6.928
 5751POPC   C4A72138   7.209  23.028   7.262
 5751POPC   C1B72139   7.821  22.598   6.174
 5751POPC   C2B72140   7.823  22.874   6.537
 5751POPC   C3B72141   7.815  22.688   6.927
 5751POPC   C4B72142   7.551  22.659   7.293
 5752POPC   NC372143  33.286   4.124   4.983
 5752POPC   PO472144  32.648   4.164   5.102
 5752POPC   GL172145  32.963   4.232   5.494
 5752POPC   GL272146  33.054   3.985   5.768
 5752POPC   C1A72147  33.041   4.460   5.929
 5752POPC   D2A72148  33.132   4.506   6.386
 5752POPC   C3A72149  32.901   4.370   6.742
 5752POPC   C4A72150  33.003   4.437   7.166
 5752POPC   C1B72151  32.954   4.025   6.210
 5752POPC   C2B72152  33.266   3.998   6.538
 5752POPC   C3B72153  33.187   3.998   6.957
 5752POPC   C4B72154  32.848   3.956   7.211
 5753POPC   NC372155  20.984   5.517   5.494
 5753POPC   PO472156  20.562   6.177   5.359
 5753POPC   GL172157  20.625   6.037   5.798
 5753POPC   GL272158  20.617   5.679   5.835
 5753POPC   C1A72159  20.787   5.940   6.231
 5753POPC   D2A72160  20.586   5.796   6.593
 5753POPC   C3A72161  20.640   6.089   6.927
 5753POPC   C4A72162  20.668   5.899   7.305
 5753POPC   C1B72163  20.342   5.495   6.172
 5753POPC   C2B72164  20.317   5.338   6.629
 5753POPC   C3B72165  20.417   5.511   7.065
 5753POPC   C4B72166  20.536   5.448   7.524
 5754POPC   NC372167  41.313  20.296   5.518
 5754POPC   PO472168  41.771  20.773   5.487
 5754POPC   GL172169  41.473  20.715   5.834
 5754POPC   GL272170  41.598  20.390   5.950
 5754POPC   C1A72171  41.412  20.715   6.291
 5754POPC   D2A72172  41.618  20.456   6.584
 5754POPC   C3A72173  41.618  20.692   6.987
 5754POPC   C4A72174  41.236  20.809   7.235
 5754POPC   C1B72175  41.702  20.051   6.246
 5754POPC   C2B72176  41.941  20.017   6.635
 5754POPC   C3B72177  41.921  20.273   6.989
 5754POPC   C4B72178  41.656  20.315   7.379
 5755POPC   NC372179  28.711  44.253   5.331
 5755POPC   PO472180  29.105  43.709   5.185
 5755POPC   GL172181  28.898  43.817   5.598
 5755POPC   GL272182  28.747  43.516   5.615
 5755POPC   C1A72183  28.974  43.930   6.053
 5755POPC   D2A72184  28.979  44.066   6.503
 5755POPC   C3A72185  29.117  43.790   6.847
 5755POPC   C4A72186  29.271  43.945   7.241
 5755POPC   C1B72187  28.774  43.455   6.065
 5755POPC   C2B72188  28.833  43.470   6.502
 5755POPC   C3B72189  28.831  43.397   6.955
 5755POPC   C4B72190  28.944  43.589   7.361
 5756POPC   NC372191   5.881   0.102   5.103
 5756POPC   PO472192   5.984  44.538   5.430
 5756POPC   GL172193   6.049  44.401   5.826
 5756POPC   GL272194   5.846  44.126   5.805
 5756POPC   C1A72195   6.116  44.545   6.233
 5756POPC   D2A72196   5.949  44.952   6.384
 5756POPC   C3A72197   5.832  44.937   6.811
 5756POPC   C4A72198   5.863  44.893   7.235
 5756POPC   C1B72199   5.632  44.380   6.116
 5756POPC   C2B72200   5.689  44.518   6.536
 5756POPC   C3B72201   5.605  44.471   6.972
 5756POPC   C4B72202   5.873  44.390   7.285
 5757POPC   NC372203  22.815  43.509   5.359
 5757POPC   PO472204  23.155  42.968   5.429
 5757POPC   GL172205  23.084  42.909   5.832
 5757POPC   GL272206  23.213  42.580   5.800
 5757POPC   C1A72207  22.933  43.126   6.203
 5757POPC   D2A72208  23.011  43.357   6.575
 5757POPC   C3A72209  22.795  43.152   6.906
 5757POPC   C4A72210  22.637  43.027   7.288
 5757POPC   C1B72211  23.249  42.666   6.242
 5757POPC   C2B72212  23.110  42.847   6.619
 5757POPC   C3B72213  23.182  42.850   7.044
 5757POPC   C4B72214  23.131  42.871   7.456
 5758POPC   NC372215  33.367  22.067   5.544
 5758POPC   PO472216  33.873  22.453   5.215
 5758POPC   GL172217  33.864  22.166   5.645
 5758POPC   GL272218  34.113  21.979   5.773
 5758POPC   C1A72219  33.652  22.092   6.099
 5758POPC   D2A72220  33.690  22.292   6.483
 5758POPC   C3A72221  33.662  22.132   6.895
 5758POPC   C4A72222  33.595  22.339   7.266
 5758POPC   C1B72223  34.107  22.300   6.116
 5758POPC   C2B72224  34.300  22.280   6.501
 5758POPC   C3B72225  34.203  22.348   6.900
 5758POPC   C4B72226  34.058  22.109   7.222
 5759POPC   NC372227   1.432  30.972   5.324
 5759POPC   PO472228   0.877  30.724   5.495
 5759POPC   GL172229   1.020  30.606   5.860
 5759POPC   GL272230   1.305  30.796   5.826
 5759POPC   C1A72231   1.080  30.526   6.281
 5759POPC   D2A72232   1.137  30.795   6.626
 5759POPC   C3A72233   1.234  30.634   7.007
 5759POPC   C4A72234   0.997  30.314   7.222
 5759POPC   C1B72235   1.496  30.840   6.214
 5759POPC   C2B72236   1.661  30.776   6.628
 5759POPC   C3B72237   1.518  31.065   6.927
 5759POPC   C4B72238   1.390  31.065   7.329
 5760POPC   NC372239  16.667  25.763   5.326
 5760POPC   PO472240  17.083  26.258   5.242
 5760POPC   GL172241  16.978  26.080   5.655
 5760POPC   GL272242  16.620  26.071   5.740
 5760POPC   C1A72243  16.954  26.219   6.109
 5760POPC   D2A72244  16.836  26.341   6.548
 5760POPC   C3A72245  16.677  26.069   6.885
 5760POPC   C4A72246  16.842  26.132   7.280
 5760POPC   C1B72247  16.448  25.979   6.163
 5760POPC   C2B72248  16.337  25.841   6.582
 5760POPC   C3B72249  16.172  25.938   7.013
 5760POPC   C4B72250  16.330  26.215   7.342
 5761POPC   NC372251  23.123  11.650   5.349
 5761POPC   PO472252  22.878  11.077   5.143
 5761POPC   GL172253  22.955  11.208   5.628
 5761POPC   GL272254  23.302  11.246   5.680
 5761POPC   C1A72255  22.958  11.428   6.060
 5761POPC   D2A72256  23.204  11.494   6.463
 5761POPC   C3A72257  23.050  11.378   6.880
 5761POPC   C4A72258  22.938  11.556   7.293
 5761POPC   C1B72259  23.380  11.128   6.106
 5761POPC   C2B72260  23.300  10.972   6.490
 5761POPC   C3B72261  23.324  10.928   6.919
 5761POPC   C4B72262  23.226  10.813   7.319
 5762POPC   NC372263  18.155  18.571   5.012
 5762POPC   PO472264  18.535  18.240   5.450
 5762POPC   GL172265  18.422  18.425   5.790
 5762POPC   GL272266  18.095  18.541   5.694
 5762POPC   C1A72267  18.463  18.218   6.191
 5762POPC   D2A72268  18.560  18.127   6.581
 5762POPC   C3A72269  18.359  18.357   6.877
 5762POPC   C4A72270  18.308  18.139   7.220
 5762POPC   C1B72271  17.999  18.441   6.133
 5762POPC   C2B72272  18.040  18.169   6.512
 5762POPC   C3B72273  17.881  18.158   6.950
 5762POPC   C4B72274  17.932  18.502   7.259
 5763POPC   NC372275  44.150   7.664   5.255
 5763POPC   PO472276  43.599   7.238   5.499
 5763POPC   GL172277  43.854   7.371   5.801
 5763POPC   GL272278  44.177   7.290   5.698
 5763POPC   C1A72279  43.805   7.303   6.243
 5763POPC   D2A72280  43.950   7.255   6.639
 5763POPC   C3A72281  43.747   7.545   6.948
 5763POPC   C4A72282  43.712   7.510   7.407
 5763POPC   C1B72283  44.286   7.486   6.121
 5763POPC   C2B72284  44.451   7.516   6.534
 5763POPC   C3B72285  44.289   7.469   6.928
 5763POPC   C4B72286  44.162   7.646   7.268
 5764POPC   NC372287  16.189   9.963   5.343
 5764POPC   PO472288  15.851   9.407   5.462
 5764POPC   GL172289  15.910   9.770   5.757
 5764POPC   GL272290  15.689   9.627   6.001
 5764POPC   C1A72291  15.995   9.979   6.177
 5764POPC   D2A72292  15.978   9.847   6.605
 5764POPC   C3A72293  16.038  10.078   7.001
 5764POPC   C4A72294  15.908   9.710   7.267
 5764POPC   C1B72295  15.670   9.334   6.334
 5764POPC   C2B72296  15.713   9.388   6.753
 5764POPC   C3B72297  15.483   9.493   7.094
 5764POPC   C4B72298  15.567   9.441   7.580
 5765POPC   NC372299  41.184  10.485   5.361
 5765POPC   PO472300  41.829  10.792   5.281
 5765POPC   GL172301  41.640  10.754   5.728
 5765POPC   GL272302  41.525  10.435   5.788
 5765POPC   C1A72303  41.783  10.587   6.182
 5765POPC   D2A72304  41.604  10.465   6.591
 5765POPC   C3A72305  41.371  10.491   6.951
 5765POPC   C4A72306  41.650  10.580   7.273
 5765POPC   C1B72307  41.329  10.330   6.187
 5765POPC   C2B72308  41.067  10.325   6.554
 5765POPC   C3B72309  41.078  10.057   6.922
 5765POPC   C4B72310  41.209  10.162   7.331
 5766POPC   NC372311  33.833  33.767   5.125
 5766POPC   PO472312  33.432  33.374   5.480
 5766POPC   GL172313  33.784  33.472   5.756
 5766POPC   GL272314  33.947  33.811   5.703
 5766POPC   C1A72315  33.833  33.635   6.189
 5766POPC   D2A72316  33.793  33.865   6.584
 5766POPC   C3A72317  33.792  33.548   6.915
 5766POPC   C4A72318  33.740  33.518   7.357
 5766POPC   C1B72319  34.182  33.991   6.085
 5766POPC   C2B72320  34.273  34.033   6.581
 5766POPC   C3B72321  34.153  33.911   7.052
 5766POPC   C4B72322  34.091  33.822   7.526
 5767POPC   NC372323  22.535  33.772   5.470
 5767POPC   PO472324  23.097  33.678   5.139
 5767POPC   GL172325  23.015  33.594   5.617
 5767POPC   GL272326  23.115  33.914   5.798
 5767POPC   C1A72327  22.961  33.539   6.103
 5767POPC   D2A72328  23.055  33.347   6.486
 5767POPC   C3A72329  23.030  33.619   6.843
 5767POPC   C4A72330  23.116  33.485   7.251
 5767POPC   C1B72331  22.769  34.012   6.094
 5767POPC   C2B72332  22.706  33.888   6.522
 5767POPC   C3B72333  22.735  34.136   6.874
 5767POPC   C4B72334  22.928  34.232   7.280
 5768POPC   NC372335  41.662  19.419   5.187
 5768POPC   PO472336  41.222  19.825   5.539
 5768POPC   GL172337  41.547  19.557   5.727
 5768POPC   GL272338  41.334  19.645   6.034
 5768POPC   C1A72339  41.757  19.385   6.107
 5768POPC   D2A72340  41.656  19.591   6.486
 5768POPC   C3A72341  41.705  19.548   6.904
 5768POPC   C4A72342  41.738  19.840   7.211
 5768POPC   C1B72343  41.200  20.112   6.147
 5768POPC   C2B72344  41.132  20.295   6.569
 5768POPC   C3B72345  41.344  20.240   6.965
 5768POPC   C4B72346  41.243  20.004   7.310
 5769POPC   NC372347  30.058   3.941   5.694
 5769POPC   PO472348  29.919   4.586   5.580
 5769POPC   GL172349  29.774   4.339   5.878
 5769POPC   GL272350  30.094   4.326   6.049
 5769POPC   C1A72351  29.633   4.278   6.286
 5769POPC   D2A72352  29.742   4.091   6.659
 5769POPC   C3A72353  29.833   4.317   7.035
 5769POPC   C4A72354  30.014   4.564   7.382
 5769POPC   C1B72355  30.264   3.973   6.307
 5769POPC   C2B72356  30.460   3.803   6.676
 5769POPC   C3B72357  30.200   3.902   7.034
 5769POPC   C4B72358  30.362   4.199   7.283
 5770POPC   NC372359  34.700   1.901   5.369
 5770POPC   PO472360  34.154   1.724   5.460
 5770POPC   GL172361  34.420   2.023   5.793
 5770POPC   GL272362  34.801   2.138   5.813
 5770POPC   C1A72363  34.477   2.149   6.267
 5770POPC   D2A72364  34.406   1.952   6.705
 5770POPC   C3A72365  34.355   2.160   7.159
 5770POPC   C4A72366  34.283   2.087   7.638
 5770POPC   C1B72367  34.852   1.822   6.150
 5770POPC   C2B72368  34.935   1.872   6.607
 5770POPC   C3B72369  34.816   2.128   6.947
 5770POPC   C4B72370  34.994   2.415   7.181
 5771POPC   NC372371  42.627  33.521   5.527
 5771POPC   PO472372  42.228  33.997   5.598
 5771POPC   GL172373  42.428  33.790   5.934
 5771POPC   GL272374  42.420  33.433   5.973
 5771POPC   C1A72375  42.334  33.851   6.383
 5771POPC   D2A72376  42.373  34.154   6.730
 5771POPC   C3A72377  42.437  33.948   7.109
 5771POPC   C4A72378  42.194  33.578   7.207
 5771POPC   C1B72379  42.732  33.562   6.275
 5771POPC   C2B72380  42.729  33.679   6.694
 5771POPC   C3B72381  42.693  33.509   7.089
 5771POPC   C4B72382  42.613  33.627   7.529
 5772POPC   NC372383  19.232  10.931   5.539
 5772POPC   PO472384  19.342  11.665   5.478
 5772POPC   GL172385  19.176  11.370   5.846
 5772POPC   GL272386  19.311  11.031   6.024
 5772POPC   C1A72387  19.098  11.384   6.308
 5772POPC   D2A72388  19.074  11.142   6.674
 5772POPC   C3A72389  19.220  11.247   7.092
 5772POPC   C4A72390  19.157  11.436   7.497
 5772POPC   C1B72391  18.954  10.842   6.255
 5772POPC   C2B72392  18.810  10.688   6.677
 5772POPC   C3B72393  18.779  10.966   7.057
 5772POPC   C4B72394  18.897  11.027   7.475
 5773POPC   NC372395   6.852  24.934   5.476
 5773POPC   PO472396   6.452  25.526   5.401
 5773POPC   GL172397   6.628  25.313   5.771
 5773POPC   GL272398   6.426  25.020   5.806
 5773POPC   C1A72399   6.834  25.397   6.186
 5773POPC   D2A72400   7.013  25.559   6.590
 5773POPC   C3A72401   6.850  25.400   6.989
 5773POPC   C4A72402   6.954  25.437   7.425
 5773POPC   C1B72403   6.308  25.212   6.178
 5773POPC   C2B72404   6.476  25.270   6.560
 5773POPC   C3B72405   6.408  25.117   6.941
 5773POPC   C4B72406   6.579  25.034   7.303
 5774POPC   NC372407  23.638  10.362   5.306
 5774POPC   PO472408  24.140  10.768   5.551
 5774POPC   GL172409  23.831  10.529   5.800
 5774POPC   GL272410  23.485  10.649   5.760
 5774POPC   C1A72411  23.936  10.344   6.202
 5774POPC   D2A72412  24.158  10.426   6.578
 5774POPC   C3A72413  23.967  10.332   6.959
 5774POPC   C4A72414  23.843  10.433   7.387
 5774POPC   C1B72415  23.465  10.551   6.213
 5774POPC   C2B72416  23.595  10.322   6.601
 5774POPC   C3B72417  23.479  10.461   7.045
 5774POPC   C4B72418  23.309  10.329   7.484
 5775POPC   NC372419  40.679   6.077   5.234
 5775POPC   PO472420  41.324   5.918   5.162
 5775POPC   GL172421  41.193   6.149   5.619
 5775POPC   GL272422  40.856   6.019   5.737
 5775POPC   C1A72423  41.094   6.295   6.110
 5775POPC   D2A72424  40.841   6.274   6.553
 5775POPC   C3A72425  40.741   5.935   6.887
 5775POPC   C4A72426  40.422   5.802   7.194
 5775POPC   C1B72427  40.774   5.689   6.056
 5775POPC   C2B72428  40.740   5.577   6.488
 5775POPC   C3B72429  41.061   5.520   6.808
 5775POPC   C4B72430  40.903   5.536   7.205
 5776POPC   NC372431   9.646   4.785   5.614
 5776POPC   PO472432  10.007   5.288   5.323
 5776POPC   GL172433   9.779   5.287   5.724
 5776POPC   GL272434   9.500   5.497   5.599
 5776POPC   C1A72435   9.792   5.097   6.172
 5776POPC   D2A72436   9.918   4.845   6.537
 5776POPC   C3A72437   9.906   5.149   6.846
 5776POPC   C4A72438   9.716   5.130   7.227
 5776POPC   C1B72439   9.525   5.612   6.050
 5776POPC   C2B72440   9.616   5.512   6.480
 5776POPC   C3B72441   9.517   5.498   6.923
 5776POPC   C4B72442   9.766   5.628   7.287
 5777POPC   NC372443  13.515  24.866   5.318
 5777POPC   PO472444  13.612  24.243   5.362
 5777POPC   GL172445  13.688  24.449   5.735
 5777POPC   GL272446  13.834  24.774   5.741
 5777POPC   C1A72447  13.505  24.468   6.131
 5777POPC   D2A72448  13.499  24.214   6.501
 5777POPC   C3A72449  13.667  24.403   6.846
 5777POPC   C4A72450  13.539  24.390   7.270
 5777POPC   C1B72451  13.983  24.644   6.172
 5777POPC   C2B72452  14.001  24.721   6.635
 5777POPC   C3B72453  14.003  24.694   7.103
 5777POPC   C4B72454  13.913  24.910   7.499
 5778POPC   NC372455  26.387  26.213   5.431
 5778POPC   PO472456  25.868  25.865   5.274
 5778POPC   GL172457  26.085  25.866   5.704
 5778POPC   GL272458  26.456  25.805   5.782
 5778POPC   C1A72459  26.061  25.736   6.144
 5778POPC   D2A72460  25.952  25.960   6.495
 5778POPC   C3A72461  26.090  25.896   6.920
 5778POPC   C4A72462  25.906  26.128   7.265
 5778POPC   C1B72463  26.333  26.148   6.126
 5778POPC   C2B72464  26.326  26.369   6.534
 5778POPC   C3B72465  26.514  26.297   6.929
 5778POPC   C4B72466  26.412  26.087   7.280
 5779POPC   NC372467  16.643  38.275   5.292
 5779POPC   PO472468  16.546  38.916   5.531
 5779POPC   GL172469  16.662  38.497   5.802
 5779POPC   GL272470  16.882  38.182   5.775
 5779POPC   C1A72471  16.557  38.215   6.199
 5779POPC   D2A72472  16.354  38.240   6.600
 5779POPC   C3A72473  16.546  38.393   6.959
 5779POPC   C4A72474  16.455  38.169   7.292
 5779POPC   C1B72475  17.008  38.433   6.173
 5779POPC   C2B72476  16.850  38.491   6.550
 5779POPC   C3B72477  17.053  38.405   6.919
 5779POPC   C4B72478  16.928  38.664   7.255
 5780POPC   NC372479  12.738  39.299   5.428
 5780POPC   PO472480  13.247  38.870   5.449
 5780POPC   GL172481  13.027  39.113   5.805
 5780POPC   GL272482  12.728  39.012   5.887
 5780POPC   C1A72483  12.898  39.576   6.006
 5780POPC   D2A72484  12.683  39.722   6.415
 5780POPC   C3A72485  12.859  39.711   6.848
 5780POPC   C4A72486  12.786  39.665   7.297
 5780POPC   C1B72487  12.816  39.186   6.304
 5780POPC   C2B72488  13.018  39.092   6.682
 5780POPC   C3B72489  12.875  39.216   7.066
 5780POPC   C4B72490  12.599  39.076   7.349
 5781POPC   NC372491  42.115  15.414   5.210
 5781POPC   PO472492  42.572  14.998   5.450
 5781POPC   GL172493  42.496  15.243   5.808
 5781POPC   GL272494  42.143  15.299   5.741
 5781POPC   C1A72495  42.448  15.247   6.264
 5781POPC   D2A72496  42.366  15.264   6.709
 5781POPC   C3A72497  42.450  14.939   6.978
 5781POPC   C4A72498  42.691  15.189   7.297
 5781POPC   C1B72499  41.959  15.128   6.120
 5781POPC   C2B72500  42.078  14.917   6.502
 5781POPC   C3B72501  41.921  14.952   6.933
 5781POPC   C4B72502  42.124  15.263   7.188
 5782POPC   NC372503  33.951  14.419   5.698
 5782POPC   PO472504  33.368  14.361   5.639
 5782POPC   GL172505  33.613  14.233   6.002
 5782POPC   GL272506  33.841  13.907   5.843
 5782POPC   C1A72507  33.858  14.537   6.328
 5782POPC   D2A72508  34.011  14.773   6.726
 5782POPC   C3A72509  33.655  14.839   6.991
 5782POPC   C4A72510  33.661  14.590   7.330
 5782POPC   C1B72511  33.985  13.981   6.233
 5782POPC   C2B72512  33.689  14.118   6.518
 5782POPC   C3B72513  33.762  14.327   6.880
 5782POPC   C4B72514  33.810  14.130   7.267
 5783POPC   NC372515  25.924  33.548   5.097
 5783POPC   PO472516  26.248  34.060   5.462
 5783POPC   GL172517  26.050  33.972   5.831
 5783POPC   GL272518  25.756  34.162   5.809
 5783POPC   C1A72519  26.124  33.786   6.255
 5783POPC   D2A72520  26.275  33.611   6.641
 5783POPC   C3A72521  26.051  33.754   6.972
 5783POPC   C4A72522  25.657  33.575   7.143
 5783POPC   C1B72523  25.643  33.920   6.189
 5783POPC   C2B72524  25.651  33.805   6.623
 5783POPC   C3B72525  25.637  34.073   6.959
 5783POPC   C4B72526  25.845  34.030   7.334
 5784POPC   NC372527   2.070  42.780   5.496
 5784POPC   PO472528   1.787  42.159   5.512
 5784POPC   GL172529   1.811  42.383   5.875
 5784POPC   GL272530   2.165  42.425   5.903
 5784POPC   C1A72531   1.866  42.196   6.304
 5784POPC   D2A72532   1.693  41.997   6.694
 5784POPC   C3A72533   1.922  42.215   7.049
 5784POPC   C4A72534   1.883  42.675   7.154
 5784POPC   C1B72535   2.337  42.528   6.313
 5784POPC   C2B72536   2.208  42.527   6.737
 5784POPC   C3B72537   2.385  42.582   7.128
 5784POPC   C4B72538   2.200  42.351   7.466
 5785POPC   NC372539  15.888   0.335   5.431
 5785POPC   PO472540  15.371   0.800   5.411
 5785POPC   GL172541  15.542   0.648   5.813
 5785POPC   GL272542  15.715   0.321   5.901
 5785POPC   C1A72543  15.765   0.716   6.215
 5785POPC   D2A72544  15.808   0.474   6.616
 5785POPC   C3A72545  16.082   0.535   6.979
 5785POPC   C4A72546  15.885   0.215   7.136
 5785POPC   C1B72547  16.091   0.311   6.176
 5785POPC   C2B72548  16.314   0.354   6.564
 5785POPC   C3B72549  16.334   0.077   6.916
 5785POPC   C4B72550  16.369   0.192   7.333
 5786POPC   NC372551  35.381  44.574   5.302
 5786POPC   PO472552  35.919  44.335   5.558
 5786POPC   GL172553  35.654  44.613   5.796
 5786POPC   GL272554  35.325  44.757   5.766
 5786POPC   C1A72555  35.648  44.747   6.212
 5786POPC   D2A72556  35.532  44.510   6.567
 5786POPC   C3A72557  35.684  44.687   6.886
 5786POPC   C4A72558  35.519  44.912   7.206
 5786POPC   C1B72559  35.175  44.530   6.143
 5786POPC   C2B72560  35.050  44.708   6.553
 5786POPC   C3B72561  35.188  44.615   6.952
 5786POPC   C4B72562  35.085  44.372   7.296
 5787POPC   NC372563  23.430   9.568   5.537
 5787POPC   PO472564  23.946  10.024   5.380
 5787POPC   GL172565  23.803   9.983   5.762
 5787POPC   GL272566  23.484  10.114   5.751
 5787POPC   C1A72567  23.803   9.851   6.178
 5787POPC   D2A72568  24.095   9.910   6.503
 5787POPC   C3A72569  23.865   9.858   6.858
 5787POPC   C4A72570  23.749   9.653   7.204
 5787POPC   C1B72571  23.247  10.041   6.114
 5787POPC   C2B72572  23.186  10.001   6.547
 5787POPC   C3B72573  23.372   9.989   6.937
 5787POPC   C4B72574  23.288   9.800   7.277
 5788POPC   NC372575  10.358  24.480   5.377
 5788POPC   PO472576  10.995  24.677   5.202
 5788POPC   GL172577  10.540  24.823   5.683
 5788POPC   GL272578  10.282  24.566   5.861
 5788POPC   C1A72579  10.677  24.698   6.157
 5788POPC   D2A72580  10.870  24.543   6.564
 5788POPC   C3A72581  10.982  24.734   6.964
 5788POPC   C4A72582  10.646  24.760   7.294
 5788POPC   C1B72583  10.436  24.229   6.155
 5788POPC   C2B72584  10.477  24.173   6.607
 5788POPC   C3B72585  10.323  24.438   6.961
 5788POPC   C4B72586  10.386  24.351   7.399
 5789POPC   NC372587  13.106  14.561   5.553
 5789POPC   PO472588  12.797  13.962   5.435
 5789POPC   GL172589  12.760  14.219   5.791
 5789POPC   GL272590  12.434  14.208   5.889
 5789POPC   C1A72591  12.767  14.395   6.227
 5789POPC   D2A72592  13.065  14.391   6.556
 5789POPC   C3A72593  12.912  14.581   6.939
 5789POPC   C4A72594  12.880  14.393   7.329
 5789POPC   C1B72595  12.570  13.920   6.241
 5789POPC   C2B72596  12.582  14.026   6.694
 5789POPC   C3B72597  12.584  13.901   7.140
 5789POPC   C4B72598  12.455  14.153   7.500
 5790POPC   NC372599  21.300  24.897   5.331
 5790POPC   PO472600  21.484  25.547   5.303
 5790POPC   GL172601  21.322  25.308   5.707
 5790POPC   GL272602  21.103  25.005   5.779
 5790POPC   C1A72603  21.467  25.162   6.134
 5790POPC   D2A72604  21.714  25.102   6.514
 5790POPC   C3A72605  21.461  25.070   6.887
 5790POPC   C4A72606  21.291  25.366   7.206
 5790POPC   C1B72607  20.946  24.973   6.192
 5790POPC   C2B72608  21.014  24.859   6.634
 5790POPC   C3B72609  20.933  25.063   7.042
 5790POPC   C4B72610  21.059  25.060   7.538
 5791POPC   NC372611  20.743  23.727   5.137
 5791POPC   PO472612  20.405  23.933   5.688
 5791POPC   GL172613  20.603  23.712   5.908
 5791POPC   GL272614  20.483  23.375   5.788
 5791POPC   C1A72615  20.708  23.896   6.280
 5791POPC   D2A72616  20.674  23.677   6.611
 5791POPC   C3A72617  20.937  23.820   6.912
 5791POPC   C4A72618  20.657  23.916   7.200
 5791POPC   C1B72619  20.380  23.398   6.231
 5791POPC   C2B72620  20.213  23.450   6.635
 5791POPC   C3B72621  20.289  23.571   7.060
 5791POPC   C4B72622  20.172  23.339   7.415
 5792POPC   NC372623  38.507  27.869   5.440
 5792POPC   PO472624  38.348  28.543   5.231
 5792POPC   GL172625  38.367  28.289   5.632
 5792POPC   GL272626  38.710  28.207   5.737
 5792POPC   C1A72627  38.368  28.231   6.105
 5792POPC   D2A72628  38.257  28.206   6.544
 5792POPC   C3A72629  38.512  28.479   6.800
 5792POPC   C4A72630  38.493  28.474   7.215
 5792POPC   C1B72631  38.802  27.958   6.120
 5792POPC   C2B72632  38.746  28.078   6.524
 5792POPC   C3B72633  38.586  27.987   6.929
 5792POPC   C4B72634  38.780  28.025   7.335
 5793POPC   NC372635  36.758   7.032   5.494
 5793POPC   PO472636  36.999   7.711   5.611
 5793POPC   GL172637  37.093   7.462   5.987
 5793POPC   GL272638  36.912   7.139   5.968
 5793POPC   C1A72639  36.939   7.556   6.418
 5793POPC   D2A72640  36.579   7.704   6.686
 5793POPC   C3A72641  36.679   7.687   7.132
 5793POPC   C4A72642  37.015   7.728   7.427
 5793POPC   C1B72643  37.123   7.068   6.343
 5793POPC   C2B72644  37.179   7.178   6.749
 5793POPC   C3B72645  37.072   7.321   7.113
 5793POPC   C4B72646  36.789   7.043   7.172
 5794POPC   NC372647  27.553  20.795   5.498
 5794POPC   PO472648  27.419  21.434   5.300
 5794POPC   GL172649  27.439  21.280   5.728
 5794POPC   GL272650  27.207  21.003   5.843
 5794POPC   C1A72651  27.367  21.490   6.128
 5794POPC   D2A72652  27.392  21.771   6.472
 5794POPC   C3A72653  27.502  21.550   6.846
 5794POPC   C4A72654  27.361  21.336   7.217
 5794POPC   C1B72655  27.449  20.996   6.254
 5794POPC   C2B72656  27.513  21.034   6.718
 5794POPC   C3B72657  27.758  21.042   7.119
 5794POPC   C4B72658  27.895  21.126   7.554
 5795POPC   NC372659  21.401   9.399   5.681
 5795POPC   PO472660  21.849   9.081   5.396
 5795POPC   GL172661  21.688   8.834   5.796
 5795POPC   GL272662  21.349   8.950   5.919
 5795POPC   C1A72663  21.635   8.647   6.232
 5795POPC   D2A72664  21.373   8.797   6.585
 5795POPC   C3A72665  21.481   8.981   6.996
 5795POPC   C4A72666  21.236   9.289   7.224
 5795POPC   C1B72667  20.989   8.897   6.206
 5795POPC   C2B72668  20.908   8.597   6.533
 5795POPC   C3B72669  20.942   8.543   6.987
 5795POPC   C4B72670  21.291   8.581   7.268
 5796POPC   NC372671  28.173  22.481   5.593
 5796POPC   PO472672  28.326  21.806   5.501
 5796POPC   GL172673  28.458  22.046   5.885
 5796POPC   GL272674  28.793  21.869   5.924
 5796POPC   C1A72675  28.255  22.247   6.279
 5796POPC   D2A72676  28.415  22.455   6.677
 5796POPC   C3A72677  28.140  22.359   7.027
 5796POPC   C4A72678  28.130  21.924   7.111
 5796POPC   C1B72679  28.624  21.801   6.325
 5796POPC   C2B72680  28.422  21.922   6.679
 5796POPC   C3B72681  28.631  22.060   7.021
 5796POPC   C4B72682  28.621  22.430   7.214
 5797POPC   NC372683  35.983   8.988   5.228
 5797POPC   PO472684  36.469   9.309   5.635
 5797POPC   GL172685  36.079   9.142   5.747
 5797POPC   GL272686  36.152   8.780   5.711
 5797POPC   C1A72687  36.062   9.071   6.190
 5797POPC   D2A72688  36.238   8.944   6.581
 5797POPC   C3A72689  36.197   9.051   7.017
 5797POPC   C4A72690  36.395   8.664   7.187
 5797POPC   C1B72691  35.939   8.585   6.090
 5797POPC   C2B72692  35.748   8.741   6.466
 5797POPC   C3B72693  35.833   8.701   6.873
 5797POPC   C4B72694  35.914   8.622   7.278
 5798POPC   NC372695  42.345  42.511   5.160
 5798POPC   PO472696  41.940  42.167   5.502
 5798POPC   GL172697  42.208  42.310   5.843
 5798POPC   GL272698  42.529  42.287   5.966
 5798POPC   C1A72699  42.120  42.350   6.303
 5798POPC   D2A72700  42.338  42.444   6.681
 5798POPC   C3A72701  42.175  42.381   7.101
 5798POPC   C4A72702  42.129  42.503   7.537
 5798POPC   C1B72703  42.676  42.639   6.245
 5798POPC   C2B72704  42.713  42.794   6.673
 5798POPC   C3B72705  42.638  42.601   7.088
 5798POPC   C4B72706  42.637  42.777   7.531
 5799POPC   NC372707  28.303  37.884   5.264
 5799POPC   PO472708  28.712  37.406   5.446
 5799POPC   GL172709  28.473  37.726   5.720
 5799POPC   GL272710  28.128  37.700   5.744
 5799POPC   C1A72711  28.401  37.640   6.168
 5799POPC   D2A72712  28.580  37.611   6.549
 5799POPC   C3A72713  28.325  37.678   6.896
 5799POPC   C4A72714  28.443  37.737   7.321
 5799POPC   C1B72715  27.902  37.594   6.130
 5799POPC   C2B72716  27.888  37.695   6.557
 5799POPC   C3B72717  27.893  37.926   6.927
 5799POPC   C4B72718  27.924  37.744   7.295
 5800POPC   NC372719  16.388  13.183   5.422
 5800POPC   PO472720  17.080  13.040   5.346
 5800POPC   GL172721  16.807  12.912   5.743
 5800POPC   GL272722  16.465  12.743   5.670
 5800POPC   C1A72723  16.846  12.840   6.230
 5800POPC   D2A72724  16.676  12.586   6.639
 5800POPC   C3A72725  16.908  12.684   7.027
 5800POPC   C4A72726  17.038  13.111   7.159
 5800POPC   C1B72727  16.366  12.692   6.118
 5800POPC   C2B72728  16.385  12.974   6.479
 5800POPC   C3B72729  16.481  12.988   6.928
 5800POPC   C4B72730  16.575  13.326   7.173
 5801POPC   NC372731  14.631  23.643   5.322
 5801POPC   PO472732  15.252  23.778   5.328
 5801POPC   GL172733  15.115  23.891   5.741
 5801POPC   GL272734  14.748  23.970   5.748
 5801POPC   C1A72735  15.134  23.673   6.135
 5801POPC   D2A72736  14.994  23.383   6.452
 5801POPC   C3A72737  15.211  23.466   6.843
 5801POPC   C4A72738  15.369  23.801   7.110
 5801POPC   C1B72739  14.882  24.113   6.179
 5801POPC   C2B72740  14.963  23.911   6.592
 5801POPC   C3B72741  14.859  23.799   7.022
 5801POPC   C4B72742  14.934  23.990   7.484
 5802POPC   NC372743  21.990  10.240   5.178
 5802POPC   PO472744  22.472   9.836   5.380
 5802POPC   GL172745  22.434   9.690   5.820
 5802POPC   GL272746  22.064   9.668   5.903
 5802POPC   C1A72747  22.411   9.605   6.273
 5802POPC   D2A72748  22.205   9.865   6.599
 5802POPC   C3A72749  22.356   9.961   6.984
 5802POPC   C4A72750  22.531   9.693   7.279
 5802POPC   C1B72751  21.857   9.975   6.246
 5802POPC   C2B72752  21.645  10.001   6.649
 5802POPC   C3B72753  21.844   9.964   7.054
 5802POPC   C4B72754  22.023   9.682   7.307
 5803POPC   NC372755  18.586  16.210   5.410
 5803POPC   PO472756  19.296  15.993   5.383
 5803POPC   GL172757  19.081  16.015   5.799
 5803POPC   GL272758  19.020  15.657   5.811
 5803POPC   C1A72759  19.103  15.857   6.261
 5803POPC   D2A72760  19.400  15.629   6.547
 5803POPC   C3A72761  19.326  15.764   6.982
 5803POPC   C4A72762  19.124  16.177   7.044
 5803POPC   C1B72763  18.712  15.496   6.135
 5803POPC   C2B72764  18.823  15.540   6.579
 5803POPC   C3B72765  18.694  15.475   7.010
 5803POPC   C4B72766  18.888  15.777   7.296
 5804POPC   NC372767  11.829  38.894   5.526
 5804POPC   PO472768  12.304  39.385   5.351
 5804POPC   GL172769  12.040  39.321   5.709
 5804POPC   GL272770  12.243  39.042   5.766
 5804POPC   C1A72771  11.886  39.222   6.164
 5804POPC   D2A72772  11.868  39.137   6.647
 5804POPC   C3A72773  11.885  39.440   7.012
 5804POPC   C4A72774  11.820  39.454   7.484
 5804POPC   C1B72775  12.332  38.951   6.204
 5804POPC   C2B72776  12.411  39.095   6.632
 5804POPC   C3B72777  12.206  39.041   7.039
 5804POPC   C4B72778  12.052  39.015   7.478
 5805POPC   NC372779  17.563  10.922   5.322
 5805POPC   PO472780  17.449  11.666   5.272
 5805POPC   GL172781  17.561  11.439   5.670
 5805POPC   GL272782  17.452  11.106   5.795
 5805POPC   C1A72783  17.526  11.589   6.090
 5805POPC   D2A72784  17.637  11.676   6.513
 5805POPC   C3A72785  17.450  11.476   6.844
 5805POPC   C4A72786  17.277  11.355   7.224
 5805POPC   C1B72787  17.365  11.092   6.245
 5805POPC   C2B72788  17.417  10.976   6.690
 5805POPC   C3B72789  17.714  11.068   7.029
 5805POPC   C4B72790  17.712  11.133   7.459
 5806POPC   NC372791  42.614   3.390   5.508
 5806POPC   PO472792  42.341   3.959   5.367
 5806POPC   GL172793  42.180   3.761   5.766
 5806POPC   GL272794  42.140   3.402   5.711
 5806POPC   C1A72795  42.112   3.731   6.233
 5806POPC   D2A72796  42.373   3.429   6.505
 5806POPC   C3A72797  42.492   3.460   6.952
 5806POPC   C4A72798  42.477   3.577   7.404
 5806POPC   C1B72799  42.023   3.245   6.125
 5806POPC   C2B72800  41.897   3.199   6.560
 5806POPC   C3B72801  41.965   3.329   7.001
 5806POPC   C4B72802  42.262   3.133   7.314
 5807POPC   NC372803  30.733  18.078   5.113
 5807POPC   PO472804  31.028  18.567   5.499
 5807POPC   GL172805  30.734  18.419   5.831
 5807POPC   GL272806  30.644  18.071   5.719
 5807POPC   C1A72807  30.655  18.517   6.308
 5807POPC   D2A72808  30.518  18.546   6.765
 5807POPC   C3A72809  30.833  18.399   7.019
 5807POPC   C4A72810  31.063  18.655   7.280
 5807POPC   C1B72811  30.465  18.063   6.126
 5807POPC   C2B72812  30.490  18.084   6.565
 5807POPC   C3B72813  30.425  18.080   7.022
 5807POPC   C4B72814  30.654  18.092   7.429
 5808POPC   NC372815  16.336   7.244   5.366
 5808POPC   PO472816  16.931   7.545   5.211
 5808POPC   GL172817  16.777   7.381   5.668
 5808POPC   GL272818  16.455   7.517   5.801
 5808POPC   C1A72819  16.919   7.460   6.136
 5808POPC   D2A72820  16.973   7.647   6.571
 5808POPC   C3A72821  16.889   7.539   7.008
 5808POPC   C4A72822  16.884   7.752   7.429
 5808POPC   C1B72823  16.528   7.157   6.050
 5808POPC   C2B72824  16.614   7.228   6.482
 5808POPC   C3B72825  16.492   7.189   6.925
 5808POPC   C4B72826  16.582   7.264   7.338
 5809POPC   NC372827  38.290  33.364   5.535
 5809POPC   PO472828  38.527  32.697   5.470
 5809POPC   GL172829  38.549  32.961   5.809
 5809POPC   GL272830  38.824  32.817   5.949
 5809POPC   C1A72831  38.413  32.937   6.241
 5809POPC   D2A72832  38.451  33.197   6.596
 5809POPC   C3A72833  38.359  33.027   6.975
 5809POPC   C4A72834  38.422  33.055   7.399
 5809POPC   C1B72835  38.766  32.557   6.309
 5809POPC   C2B72836  38.680  32.724   6.717
 5809POPC   C3B72837  38.641  32.636   7.167
 5809POPC   C4B72838  38.749  32.749   7.614
 5810POPC   NC372839  36.424  24.022   5.351
 5810POPC   PO472840  35.888  23.581   5.546
 5810POPC   GL172841  36.033  23.727   5.919
 5810POPC   GL272842  36.241  23.997   5.824
 5810POPC   C1A72843  36.341  23.721   6.264
 5810POPC   D2A72844  36.521  23.625   6.642
 5810POPC   C3A72845  36.176  23.460   6.813
 5810POPC   C4A72846  36.161  23.493   7.232
 5810POPC   C1B72847  36.055  24.148   6.210
 5810POPC   C2B72848  36.022  23.934   6.611
 5810POPC   C3B72849  36.189  23.935   7.017
 5810POPC   C4B72850  36.056  24.044   7.444
 5811POPC   NC372851  35.700  40.426   5.668
 5811POPC   PO472852  35.207  40.070   5.395
 5811POPC   GL172853  35.355  40.048   5.796
 5811POPC   GL272854  35.508  39.739   5.822
 5811POPC   C1A72855  35.422  40.099   6.243
 5811POPC   D2A72856  35.229  40.199   6.642
 5811POPC   C3A72857  35.475  40.185   7.023
 5811POPC   C4A72858  35.273  40.060   7.413
 5811POPC   C1B72859  35.522  39.593   6.239
 5811POPC   C2B72860  35.515  39.762   6.632
 5811POPC   C3B72861  35.269  39.748   6.983
 5811POPC   C4B72862  35.378  39.566   7.394
 5812POPC   NC372863   4.773   9.192   5.065
 5812POPC   PO472864   4.286   8.846   5.444
 5812POPC   GL172865   4.125   9.102   5.771
 5812POPC   GL272866   3.839   8.879   5.842
 5812POPC   C1A72867   4.337   9.252   6.151
 5812POPC   D2A72868   4.513   9.025   6.510
 5812POPC   C3A72869   4.465   9.288   6.861
 5812POPC   C4A72870   4.350   9.209   7.276
 5812POPC   C1B72871   3.970   8.897   6.240
 5812POPC   C2B72872   4.025   9.115   6.604
 5812POPC   C3B72873   4.143   8.886   6.955
 5812POPC   C4B72874   3.980   8.611   7.258
 5813POPC   NC372875   2.512  13.050   5.497
 5813POPC   PO472876   2.996  12.597   5.534
 5813POPC   GL172877   2.677  12.671   5.869
 5813POPC   GL272878   2.692  13.029   5.974
 5813POPC   C1A72879   2.500  12.672   6.310
 5813POPC   D2A72880   2.707  12.581   6.709
 5813POPC   C3A72881   2.804  12.994   6.917
 5813POPC   C4A72882   2.611  13.159   7.270
 5813POPC   C1B72883   3.022  13.059   6.287
 5813POPC   C2B72884   3.261  12.875   6.635
 5813POPC   C3B72885   3.134  12.626   7.000
 5813POPC   C4B72886   2.995  12.663   7.434
 5814POPC   NC372887  11.270  17.512   5.366
 5814POPC   PO472888  10.744  17.992   5.435
 5814POPC   GL172889  11.112  17.826   5.753
 5814POPC   GL272890  11.309  17.454   5.851
 5814POPC   C1A72891  11.300  17.828   6.179
 5814POPC   D2A72892  11.339  17.529   6.507
 5814POPC   C3A72893  11.251  17.734   6.890
 5814POPC   C4A72894  11.450  17.709   7.300
 5814POPC   C1B72895  11.451  17.131   6.152
 5814POPC   C2B72896  11.514  17.023   6.569
 5814POPC   C3B72897  11.473  17.259   6.956
 5814POPC   C4B72898  11.426  17.200   7.400
 5815POPC   NC372899  24.864  29.813   5.509
 5815POPC   PO472900  25.440  30.207   5.533
 5815POPC   GL172901  25.258  29.937   5.827
 5815POPC   GL272902  24.979  30.167   5.866
 5815POPC   C1A72903  25.331  29.831   6.252
 5815POPC   D2A72904  25.116  29.699   6.628
 5815POPC   C3A72905  25.325  29.762   6.993
 5815POPC   C4A72906  25.669  29.645   7.232
 5815POPC   C1B72907  25.282  30.320   6.206
 5815POPC   C2B72908  25.360  30.176   6.666
 5815POPC   C3B72909  25.093  30.207   7.056
 5815POPC   C4B72910  25.044  30.190   7.496
 5816POPC   NC372911  20.439  28.637   5.353
 5816POPC   PO472912  20.787  28.150   5.489
 5816POPC   GL172913  20.475  28.234   5.817
 5816POPC   GL272914  20.224  28.521   5.792
 5816POPC   C1A72915  20.503  28.291   6.268
 5816POPC   D2A72916  20.693  28.355   6.678
 5816POPC   C3A72917  20.504  28.191   7.050
 5816POPC   C4A72918  20.618  28.128   7.480
 5816POPC   C1B72919  20.248  28.715   6.161
 5816POPC   C2B72920  20.171  28.555   6.579
 5816POPC   C3B72921  20.365  28.669   6.937
 5816POPC   C4B72922  20.421  28.591   7.365
 5817POPC   NC372923  26.640  34.344   5.460
 5817POPC   PO472924  27.338  34.499   5.376
 5817POPC   GL172925  27.076  34.411   5.778
 5817POPC   GL272926  26.822  34.639   5.830
 5817POPC   C1A72927  27.026  34.490   6.270
 5817POPC   D2A72928  27.191  34.650   6.707
 5817POPC   C3A72929  26.913  34.487   7.060
 5817POPC   C4A72930  26.833  34.396   7.510
 5817POPC   C1B72931  26.506  34.745   6.164
 5817POPC   C2B72932  26.317  34.618   6.595
 5817POPC   C3B72933  26.414  34.683   7.068
 5817POPC   C4B72934  26.334  34.650   7.544
 5818POPC   NC372935   4.701   9.189   5.589
 5818POPC   PO472936   5.250   8.826   5.301
 5818POPC   GL172937   5.173   9.017   5.695
 5818POPC   GL272938   5.412   9.221   5.832
 5818POPC   C1A72939   5.149   8.930   6.144
 5818POPC   D2A72940   5.374   8.873   6.514
 5818POPC   C3A72941   5.042   8.894   6.791
 5818POPC   C4A72942   4.779   8.960   7.114
 5818POPC   C1B72943   5.348   9.396   6.272
 5818POPC   C2B72944   5.382   9.348   6.745
 5818POPC   C3B72945   5.260   9.170   7.155
 5818POPC   C4B72946   5.382   9.179   7.612
 5819POPC   NC372947  40.432   5.246   5.453
 5819POPC   PO472948  41.128   5.056   5.391
 5819POPC   GL172949  40.945   4.907   5.774
 5819POPC   GL272950  40.580   4.927   5.818
 5819POPC   C1A72951  40.989   5.049   6.190
 5819POPC   D2A72952  40.841   5.092   6.594
 5819POPC   C3A72953  40.997   5.037   6.996
 5819POPC   C4A72954  40.962   4.796   7.362
 5819POPC   C1B72955  40.473   5.082   6.223
 5819POPC   C2B72956  40.353   4.978   6.625
 5819POPC   C3B72957  40.522   5.277   6.942
 5819POPC   C4B72958  40.599   5.139   7.330
 5820POPC   NC372959  15.132   2.166   5.420
 5820POPC   PO472960  15.283   1.554   5.631
 5820POPC   GL172961  15.194   1.806   5.904
 5820POPC   GL272962  14.895   1.870   5.771
 5820POPC   C1A72963  15.164   1.687   6.318
 5820POPC   D2A72964  15.463   1.792   6.659
 5820POPC   C3A72965  15.355   1.921   7.101
 5820POPC   C4A72966  14.943   1.901   7.355
 5820POPC   C1B72967  14.859   2.095   6.183
 5820POPC   C2B72968  14.959   2.029   6.614
 5820POPC   C3B72969  14.960   2.232   6.974
 5820POPC   C4B72970  15.284   2.439   7.203
 5821POPC   NC372971  41.232  31.241   5.506
 5821POPC   PO472972  41.986  31.259   5.521
 5821POPC   GL172973  41.658  31.230   5.855
 5821POPC   GL272974  41.406  31.495   5.924
 5821POPC   C1A72975  41.708  31.313   6.310
 5821POPC   D2A72976  41.860  31.576   6.650
 5821POPC   C3A72977  41.836  31.364   7.060
 5821POPC   C4A72978  41.449  31.156   7.244
 5821POPC   C1B72979  41.168  31.263   6.255
 5821POPC   C2B72980  41.190  31.241   6.725
 5821POPC   C3B72981  41.380  31.592   6.970
 5821POPC   C4B72982  41.358  31.906   7.307
 5822POPC   NC372983  29.327  31.412   5.371
 5822POPC   PO472984  28.686  31.247   5.259
 5822POPC   GL172985  28.968  31.529   5.730
 5822POPC   GL272986  29.257  31.443   5.859
 5822POPC   C1A72987  29.026  31.731   6.182
 5822POPC   D2A72988  29.097  31.583   6.603
 5822POPC   C3A72989  29.097  31.856   6.961
 5822POPC   C4A72990  29.044  31.727   7.383
 5822POPC   C1B72991  29.452  31.421   6.236
 5822POPC   C2B72992  29.587  31.402   6.644
 5822POPC   C3B72993  29.384  31.407   7.060
 5822POPC   C4B72994  29.580  31.173   7.410
 5823POPC   NC372995  31.660  33.742   5.445
 5823POPC   PO472996  31.360  34.217   5.228
 5823POPC   GL172997  31.322  34.008   5.813
 5823POPC   GL272998  31.594  33.772   5.932
 5823POPC   C1A72999  31.435  34.091   6.290
 5823POPC   D2A73000  31.731  33.927   6.628
 5823POPC   C3A73001  31.607  34.061   7.049
 5823POPC   C4A73002  31.718  33.856   7.453
 5823POPC   C1B73003  31.717  33.441   6.171
 5823POPC   C2B73004  31.598  33.431   6.584
 5823POPC   C3B73005  31.546  33.557   7.026
 5823POPC   C4B73006  31.246  33.698   7.319
 5824POPC   NC373007  40.398  15.242   5.469
 5824POPC   PO473008  40.850  14.807   5.159
 5824POPC   GL173009  40.866  15.015   5.657
 5824POPC   GL273010  40.790  15.372   5.753
 5824POPC   C1A73011  40.703  15.052   6.147
 5824POPC   D2A73012  40.761  15.317   6.552
 5824POPC   C3A73013  40.784  15.122   6.957
 5824POPC   C4A73014  40.652  15.354   7.283
 5824POPC   C1B73015  41.003  15.525   6.143
 5824POPC   C2B73016  41.213  15.569   6.564
 5824POPC   C3B73017  41.156  15.451   6.988
 5824POPC   C4B73018  41.105  15.535   7.413
 5825POPC   NC373019  12.228  34.209   5.004
 5825POPC   PO473020  12.538  34.495   5.573
 5825POPC   GL173021  12.150  34.630   5.818
 5825POPC   GL273022  11.805  34.466   5.825
 5825POPC   C1A73023  11.913  34.856   6.158
 5825POPC   D2A73024  11.935  35.052   6.555
 5825POPC   C3A73025  11.866  34.838   7.005
 5825POPC   C4A73026  11.832  34.864   7.479
 5825POPC   C1B73027  11.938  34.340   6.254
 5825POPC   C2B73028  11.904  34.206   6.695
 5825POPC   C3B73029  11.877  34.206   7.156
 5825POPC   C4B73030  11.741  33.991   7.550
 5826POPC   NC373031  42.632  30.227   5.430
 5826POPC   PO473032  42.594  29.529   5.473
 5826POPC   GL173033  42.363  29.711   5.800
 5826POPC   GL273034  42.262  30.065   5.776
 5826POPC   C1A73035  42.438  29.833   6.220
 5826POPC   D2A73036  42.441  29.693   6.616
 5826POPC   C3A73037  42.230  29.865   6.924
 5826POPC   C4A73038  42.190  29.667   7.294
 5826POPC   C1B73039  42.122  30.261   6.176
 5826POPC   C2B73040  41.934  30.160   6.592
 5826POPC   C3B73041  42.020  30.335   7.003
 5826POPC   C4B73042  42.280  30.167   7.354
 5827POPC   NC373043  27.405  42.842   5.518
 5827POPC   PO473044  27.876  43.328   5.384
 5827POPC   GL173045  27.724  43.213   5.752
 5827POPC   GL273046  27.894  42.936   5.795
 5827POPC   C1A73047  27.537  43.295   6.141
 5827POPC   D2A73048  27.378  43.249   6.541
 5827POPC   C3A73049  27.562  43.499   6.854
 5827POPC   C4A73050  27.605  43.341   7.272
 5827POPC   C1B73051  27.731  42.824   6.166
 5827POPC   C2B73052  27.700  42.744   6.575
 5827POPC   C3B73053  27.697  42.967   6.946
 5827POPC   C4B73054  27.686  42.817   7.363
 5828POPC   NC373055   6.334   9.666   5.445
 5828POPC   PO473056   5.663   9.867   5.388
 5828POPC   GL173057   5.920   9.756   5.738
 5828POPC   GL273058   6.077  10.047   5.865
 5828POPC   C1A73059   5.814   9.602   6.142
 5828POPC   D2A73060   5.644   9.740   6.518
 5828POPC   C3A73061   5.810   9.651   6.902
 5828POPC   C4A73062   5.699   9.385   7.210
 5828POPC   C1B73063   6.197  10.056   6.265
 5828POPC   C2B73064   6.066  10.038   6.658
 5828POPC   C3B73065   6.227   9.945   7.031
 5828POPC   C4B73066   6.140  10.138   7.399
 5829POPC   NC373067  35.506  28.681   5.567
 5829POPC   PO473068  36.155  28.428   5.313
 5829POPC   GL173069  36.275  28.425   5.746
 5829POPC   GL273070  35.943  28.516   5.845
 5829POPC   C1A73071  36.377  28.547   6.191
 5829POPC   D2A73072  36.107  28.559   6.560
 5829POPC   C3A73073  36.300  28.412   6.937
 5829POPC   C4A73074  36.159  28.214   7.290
 5829POPC   C1B73075  35.682  28.504   6.219
 5829POPC   C2B73076  35.550  28.489   6.636
 5829POPC   C3B73077  35.797  28.446   6.972
 5829POPC   C4B73078  35.843  28.587   7.374
 5830POPC   NC373079  14.641  33.502   5.616
 5830POPC   PO473080  14.268  34.043   5.532
 5830POPC   GL173081  14.496  33.911   5.886
 5830POPC   GL273082  14.856  33.949   5.784
 5830POPC   C1A73083  14.375  33.687   6.258
 5830POPC   D2A73084  14.212  33.775   6.665
 5830POPC   C3A73085  14.428  33.609   7.023
 5830POPC   C4A73086  14.247  33.575   7.439
 5830POPC   C1B73087  14.888  33.788   6.221
 5830POPC   C2B73088  14.751  33.902   6.627
 5830POPC   C3B73089  14.505  34.160   6.887
 5830POPC   C4B73090  14.482  34.056   7.305
 5831POPC   NC373091  24.903  33.121   5.388
 5831POPC   PO473092  24.211  32.784   5.346
 5831POPC   GL173093  24.478  32.879   5.749
 5831POPC   GL273094  24.738  33.126   5.885
 5831POPC   C1A73095  24.439  32.902   6.218
 5831POPC   D2A73096  24.333  33.104   6.605
 5831POPC   C3A73097  24.437  32.864   6.972
 5831POPC   C4A73098  24.625  32.976   7.359
 5831POPC   C1B73099  24.923  33.184   6.311
 5831POPC   C2B73100  24.829  33.268   6.759
 5831POPC   C3B73101  24.601  33.436   7.134
 5831POPC   C4B73102  24.539  33.428   7.588
 5832POPC   NC373103   2.344  31.687   5.238
 5832POPC   PO473104   3.008  31.403   5.340
 5832POPC   GL173105   2.786  31.321   5.726
 5832POPC   GL273106   2.462  31.392   5.676
 5832POPC   C1A73107   2.785  31.248   6.150
 5832POPC   D2A73108   2.838  31.157   6.556
 5832POPC   C3A73109   2.835  31.441   6.859
 5832POPC   C4A73110   2.957  31.413   7.257
 5832POPC   C1B73111   2.384  31.566   6.058
 5832POPC   C2B73112   2.485  31.568   6.485
 5832POPC   C3B73113   2.346  31.612   6.899
 5832POPC   C4B73114   2.446  31.493   7.297
 5833POPC   NC373115  11.012  16.777   5.328
 5833POPC   PO473116  10.442  16.335   5.346
 5833POPC   GL173117  10.607  16.537   5.725
 5833POPC   GL273118  10.960  16.445   5.719
 5833POPC   C1A73119  10.499  16.823   6.123
 5833POPC   D2A73120  10.519  17.065   6.569
 5833POPC   C3A73121  10.576  16.886   7.014
 5833POPC   C4A73122  10.502  16.533   7.353
 5833POPC   C1B73123  10.819  16.358   6.148
 5833POPC   C2B73124  10.680  16.548   6.515
 5833POPC   C3B73125  10.770  16.424   6.900
 5833POPC   C4B73126  10.993  16.525   7.257
 5834POPC   NC373127  32.734  25.658   5.340
 5834POPC   PO473128  33.044  25.083   5.463
 5834POPC   GL173129  32.957  25.367   5.811
 5834POPC   GL273130  32.639  25.543   5.826
 5834POPC   C1A73131  32.922  25.385   6.274
 5834POPC   D2A73132  32.741  25.136   6.618
 5834POPC   C3A73133  33.034  24.964   6.941
 5834POPC   C4A73134  33.352  24.902   7.237
 5834POPC   C1B73135  32.692  25.853   6.184
 5834POPC   C2B73136  32.891  25.821   6.607
 5834POPC   C3B73137  33.091  25.486   6.790
 5834POPC   C4B73138  33.216  25.399   7.184
 5835POPC   NC373139  13.782  21.249   5.421
 5835POPC   PO473140  13.211  21.530   5.513
 5835POPC   GL173141  13.521  21.377   5.848
 5835POPC   GL273142  13.847  21.560   5.834
 5835POPC   C1A73143  13.618  21.374   6.306
 5835POPC   D2A73144  13.370  21.146   6.630
 5835POPC   C3A73145  13.471  21.226   7.070
 5835POPC   C4A73146  13.247  21.344   7.426
 5835POPC   C1B73147  14.074  21.214   6.043
 5835POPC   C2B73148  14.183  21.147   6.481
 5835POPC   C3B73149  14.119  21.307   6.899
 5835POPC   C4B73150  13.939  21.166   7.280
 5836POPC   NC373151  39.912  14.912   5.301
 5836POPC   PO473152  40.115  15.483   5.204
 5836POPC   GL173153  39.980  15.224   5.713
 5836POPC   GL273154  39.933  14.880   5.809
 5836POPC   C1A73155  39.942  15.360   6.172
 5836POPC   D2A73156  39.878  15.185   6.573
 5836POPC   C3A73157  39.736  15.321   6.970
 5836POPC   C4A73158  39.599  15.051   7.269
 5836POPC   C1B73159  40.153  14.889   6.202
 5836POPC   C2B73160  40.352  15.027   6.549
 5836POPC   C3B73161  40.272  15.173   6.949
 5836POPC   C4B73162  40.127  14.961   7.278
 5837POPC   NC373163   4.520  18.626   5.542
 5837POPC   PO473164   4.295  18.083   5.221
 5837POPC   GL173165   4.186  18.221   5.611
 5837POPC   GL273166   4.514  18.138   5.698
 5837POPC   C1A73167   4.179  18.258   6.061
 5837POPC   D2A73168   4.252  18.064   6.454
 5837POPC   C3A73169   4.000  18.233   6.782
 5837POPC   C4A73170   4.125  18.285   7.185
 5837POPC   C1B73171   4.652  18.087   6.108
 5837POPC   C2B73172   4.766  18.017   6.525
 5837POPC   C3B73173   4.518  18.082   6.889
 5837POPC   C4B73174   4.635  18.170   7.269
 5838POPC   NC373175  12.372  44.074   5.768
 5838POPC   PO473176  12.084  44.219   5.231
 5838POPC   GL173177  11.925  43.893   5.739
 5838POPC   GL273178  12.079  43.649   6.003
 5838POPC   C1A73179  11.848  44.058   6.182
 5838POPC   D2A73180  12.012  44.108   6.610
 5838POPC   C3A73181  11.805  43.995   6.984
 5838POPC   C4A73182  11.954  43.674   7.244
 5838POPC   C1B73183  12.338  43.820   6.345
 5838POPC   C2B73184  12.477  43.886   6.776
 5838POPC   C3B73185  12.288  44.099   7.097
 5838POPC   C4B73186  12.204  44.025   7.542
 5839POPC   NC373187   5.631  30.775   5.437
 5839POPC   PO473188   6.216  31.030   5.438
 5839POPC   GL173189   5.981  30.882   5.801
 5839POPC   GL273190   6.020  30.524   5.874
 5839POPC   C1A73191   5.692  30.788   6.159
 5839POPC   D2A73192   5.880  30.623   6.524
 5839POPC   C3A73193   5.775  30.780   6.910
 5839POPC   C4A73194   5.730  30.965   7.305
 5839POPC   C1B73195   6.233  30.268   6.190
 5839POPC   C2B73196   6.069  30.142   6.577
 5839POPC   C3B73197   5.858  30.266   6.936
 5839POPC   C4B73198   6.118  30.168   7.257
 5840POPC   NC373199   2.510  27.089   5.614
 5840POPC   PO473200   3.027  27.558   5.304
 5840POPC   GL173201   2.817  27.516   5.708
 5840POPC   GL273202   2.506  27.658   5.657
 5840POPC   C1A73203   2.759  27.474   6.147
 5840POPC   D2A73204   3.036  27.465   6.494
 5840POPC   C3A73205   2.835  27.588   6.849
 5840POPC   C4A73206   2.952  27.477   7.242
 5840POPC   C1B73207   2.562  27.942   6.026
 5840POPC   C2B73208   2.705  27.921   6.451
 5840POPC   C3B73209   2.523  28.022   6.832
 5840POPC   C4B73210   2.595  27.856   7.239
 5841POPC   NC373211   6.050  39.501   5.457
 5841POPC   PO473212   6.283  38.893   5.699
 5841POPC   GL173213   5.973  39.047   5.996
 5841POPC   GL273214   5.720  39.246   5.836
 5841POPC   C1A73215   5.817  39.136   6.436
 5841POPC   D2A73216   5.618  39.437   6.731
 5841POPC   C3A73217   5.891  39.406   7.058
 5841POPC   C4A73218   6.078  38.987   7.008
 5841POPC   C1B73219   5.443  38.975   6.130
 5841POPC   C2B73220   5.447  38.770   6.566
 5841POPC   C3B73221   5.532  38.976   6.970
 5841POPC   C4B73222   5.351  39.335   7.174
 5842POPC   NC373223  28.425  12.321   5.464
 5842POPC   PO473224  28.335  11.720   5.497
 5842POPC   GL173225  28.296  11.735   5.912
 5842POPC   GL273226  28.237  12.069   5.898
 5842POPC   C1A73227  28.245  11.774   6.339
 5842POPC   D2A73228  28.422  12.101   6.572
 5842POPC   C3A73229  28.345  12.073   6.967
 5842POPC   C4A73230  28.337  11.689   7.186
 5842POPC   C1B73231  28.027  12.239   6.261
 5842POPC   C2B73232  27.884  12.165   6.692
 5842POPC   C3B73233  27.864  12.431   7.045
 5842POPC   C4B73234  28.162  12.366   7.333
 5843POPC   NC373235  12.464  35.700   5.336
 5843POPC   PO473236  12.081  35.169   5.483
 5843POPC   GL173237  12.296  35.400   5.776
 5843POPC   GL273238  12.006  35.597   5.809
 5843POPC   C1A73239  12.367  35.249   6.190
 5843POPC   D2A73240  12.294  35.387   6.585
 5843POPC   C3A73241  12.314  35.054   6.890
 5843POPC   C4A73242  12.201  35.209   7.297
 5843POPC   C1B73243  11.873  35.408   6.167
 5843POPC   C2B73244  11.807  35.560   6.553
 5843POPC   C3B73245  11.865  35.374   6.942
 5843POPC   C4B73246  11.702  35.352   7.346
 5844POPC   NC373247   4.756  40.852   5.385
 5844POPC   PO473248   5.307  41.192   5.383
 5844POPC   GL173249   5.132  40.928   5.715
 5844POPC   GL273250   5.300  40.601   5.668
 5844POPC   C1A73251   5.161  40.879   6.149
 5844POPC   D2A73252   5.110  41.010   6.566
 5844POPC   C3A73253   4.970  40.698   6.853
 5844POPC   C4A73254   4.954  40.841   7.237
 5844POPC   C1B73255   5.377  40.423   6.094
 5844POPC   C2B73256   5.348  40.521   6.560
 5844POPC   C3B73257   5.420  40.394   7.039
 5844POPC   C4B73258   5.321  40.625   7.496
 5845POPC   NC373259  15.927  26.415   5.369
 5845POPC   PO473260  16.383  26.921   5.436
 5845POPC   GL173261  16.198  26.705   5.803
 5845POPC   GL273262  15.827  26.599   5.820
 5845POPC   C1A73263  16.281  26.943   6.194
 5845POPC   D2A73264  16.504  26.886   6.557
 5845POPC   C3A73265  16.243  26.938   6.902
 5845POPC   C4A73266  16.093  26.627   7.173
 5845POPC   C1B73267  15.809  26.773   6.225
 5845POPC   C2B73268  15.837  26.713   6.654
 5845POPC   C3B73269  15.733  26.954   7.026
 5845POPC   C4B73270  15.627  26.696   7.370
 5846POPC   NC373271  10.467  17.599   5.350
 5846POPC   PO473272  10.888  17.228   5.320
 5846POPC   GL173273  10.676  17.277   5.738
 5846POPC   GL273274  10.652  17.628   5.811
 5846POPC   C1A73275  10.405  17.344   6.152
 5846POPC   D2A73276  10.167  17.560   6.509
 5846POPC   C3A73277  10.364  17.626   6.907
 5846POPC   C4A73278  10.496  17.454   7.290
 5846POPC   C1B73279  10.905  17.495   6.154
 5846POPC   C2B73280  10.819  17.577   6.556
 5846POPC   C3B73281  10.857  17.413   6.945
 5846POPC   C4B73282  10.970  17.613   7.323
 5847POPC   NC373283  36.167  22.472   5.450
 5847POPC   PO473284  35.603  22.037   5.256
 5847POPC   GL173285  35.860  22.018   5.675
 5847POPC   GL273286  36.253  22.080   5.775
 5847POPC   C1A73287  35.860  22.112   6.129
 5847POPC   D2A73288  35.800  21.937   6.527
 5847POPC   C3A73289  36.094  22.051   6.840
 5847POPC   C4A73290  36.248  22.216   7.214
 5847POPC   C1B73291  36.297  22.421   6.127
 5847POPC   C2B73292  36.082  22.497   6.539
 5847POPC   C3B73293  35.975  22.569   6.972
 5847POPC   C4B73294  36.006  22.670   7.417
 5848POPC   NC373295   9.298  16.564   5.461
 5848POPC   PO473296   9.034  17.175   5.309
 5848POPC   GL173297   8.927  16.881   5.648
 5848POPC   GL273298   9.232  16.954   5.817
 5848POPC   C1A73299   8.780  16.796   6.093
 5848POPC   D2A73300   8.928  16.764   6.529
 5848POPC   C3A73301   8.705  16.747   6.921
 5848POPC   C4A73302   8.816  16.686   7.333
 5848POPC   C1B73303   9.314  16.700   6.170
 5848POPC   C2B73304   9.429  16.778   6.588
 5848POPC   C3B73305   9.247  16.749   6.993
 5848POPC   C4B73306   9.294  16.524   7.372
 5849POPC   NC373307  38.070  29.657   5.164
 5849POPC   PO473308  38.343  30.150   5.544
 5849POPC   GL173309  38.554  29.921   5.876
 5849POPC   GL273310  38.795  29.629   5.847
 5849POPC   C1A73311  38.332  29.971   6.271
 5849POPC   D2A73312  38.042  29.770   6.572
 5849POPC   C3A73313  38.300  29.726   6.910
 5849POPC   C4A73314  38.326  29.496   7.249
 5849POPC   C1B73315  38.880  29.876   6.262
 5849POPC   C2B73316  38.670  30.061   6.655
 5849POPC   C3B73317  38.586  30.115   7.105
 5849POPC   C4B73318  38.676  29.838   7.458
 5850POPC   NC373319  40.279   3.961   5.383
 5850POPC   PO473320  39.664   3.873   5.663
 5850POPC   GL173321  40.078   4.041   5.861
 5850POPC   GL273322  40.217   4.379   5.723
 5850POPC   C1A73323  40.288   4.126   6.292
 5850POPC   D2A73324  40.335   4.100   6.777
 5850POPC   C3A73325  39.928   4.111   7.021
 5850POPC   C4A73326  39.641   4.468   7.186
 5850POPC   C1B73327  40.220   4.632   6.132
 5850POPC   C2B73328  40.072   4.524   6.556
 5850POPC   C3B73329  40.135   4.561   6.968
 5850POPC   C4B73330  40.234   4.889   7.112
 5851POPC   NC373331   7.094  12.485   5.322
 5851POPC   PO473332   7.518  11.952   5.595
 5851POPC   GL173333   7.289  12.111   5.892
 5851POPC   GL273334   7.522  12.424   5.848
 5851POPC   C1A73335   7.259  11.904   6.311
 5851POPC   D2A73336   7.546  12.002   6.628
 5851POPC   C3A73337   7.369  11.882   6.964
 5851POPC   C4A73338   7.326  11.960   7.417
 5851POPC   C1B73339   7.480  12.360   6.294
 5851POPC   C2B73340   7.192  12.379   6.672
 5851POPC   C3B73341   7.323  12.356   7.105
 5851POPC   C4B73342   7.336  12.490   7.561
 5852POPC   NC373343  22.538   6.115   5.567
 5852POPC   PO473344  22.082   5.715   5.206
 5852POPC   GL173345  22.187   5.731   5.624
 5852POPC   GL273346  22.031   6.066   5.737
 5852POPC   C1A73347  22.171   5.670   6.064
 5852POPC   D2A73348  22.029   5.829   6.467
 5852POPC   C3A73349  22.125   5.588   6.838
 5852POPC   C4A73350  22.198   5.760   7.245
 5852POPC   C1B73351  22.216   6.216   6.142
 5852POPC   C2B73352  22.171   6.330   6.567
 5852POPC   C3B73353  21.954   6.115   6.890
 5852POPC   C4B73354  22.059   6.227   7.267
 5853POPC   NC373355  19.101  22.593   5.293
 5853POPC   PO473356  18.996  23.293   5.137
 5853POPC   GL173357  19.014  23.109   5.617
 5853POPC   GL273358  19.318  22.917   5.722
 5853POPC   C1A73359  18.991  23.106   6.130
 5853POPC   D2A73360  18.777  23.229   6.527
 5853POPC   C3A73361  18.919  23.047   6.890
 5853POPC   C4A73362  18.978  23.212   7.282
 5853POPC   C1B73363  19.078  22.626   6.017
 5853POPC   C2B73364  19.025  22.638   6.491
 5853POPC   C3B73365  18.920  22.505   6.919
 5853POPC   C4B73366  19.095  22.732   7.263
 5854POPC   NC373367  30.715  12.661   5.565
 5854POPC   PO473368  30.311  13.187   5.694
 5854POPC   GL173369  30.667  13.016   5.905
 5854POPC   GL273370  31.030  13.031   5.780
 5854POPC   C1A73371  30.566  12.818   6.274
 5854POPC   D2A73372  30.439  13.034   6.666
 5854POPC   C3A73373  30.524  12.782   7.046
 5854POPC   C4A73374  30.591  12.982   7.431
 5854POPC   C1B73375  31.051  12.751   6.164
 5854POPC   C2B73376  30.941  12.960   6.564
 5854POPC   C3B73377  30.959  13.016   6.996
 5854POPC   C4B73378  31.193  12.951   7.368
 5855POPC   NC373379  10.860   2.594   5.312
 5855POPC   PO473380  11.507   2.458   5.276
 5855POPC   GL173381  11.365   2.687   5.680
 5855POPC   GL273382  11.051   2.865   5.735
 5855POPC   C1A73383  11.447   2.641   6.149
 5855POPC   D2A73384  11.359   2.835   6.567
 5855POPC   C3A73385  11.407   2.512   6.851
 5855POPC   C4A73386  11.493   2.668   7.237
 5855POPC   C1B73387  10.957   2.802   6.162
 5855POPC   C2B73388  11.002   2.507   6.495
 5855POPC   C3B73389  10.949   2.717   6.910
 5855POPC   C4B73390  10.969   2.627   7.330
 5856POPC   NC373391   3.733  16.374   5.461
 5856POPC   PO473392   3.385  15.833   5.281
 5856POPC   GL173393   3.272  15.752   5.723
 5856POPC   GL273394   3.567  15.946   5.781
 5856POPC   C1A73395   3.234  15.949   6.164
 5856POPC   D2A73396   3.459  16.052   6.540
 5856POPC   C3A73397   3.339  15.909   6.968
 5856POPC   C4A73398   3.186  16.210   7.283
 5856POPC   C1B73399   3.740  15.797   6.162
 5856POPC   C2B73400   3.992  15.946   6.485
 5856POPC   C3B73401   3.864  15.922   6.906
 5856POPC   C4B73402   3.720  15.738   7.314
 5857POPC   NC373403  16.523  40.728   5.137
 5857POPC   PO473404  16.828  41.341   5.187
 5857POPC   GL173405  16.741  40.959   5.551
 5857POPC   GL273406  16.370  40.894   5.649
 5857POPC   C1A73407  16.690  40.602   5.917
 5857POPC   D2A73408  16.500  40.351   6.277
 5857POPC   C3A73409  16.611  40.437   6.735
 5857POPC   C4A73410  16.533  40.513   7.165
 5857POPC   C1B73411  16.242  40.839   6.115
 5857POPC   C2B73412  16.206  40.691   6.552
 5857POPC   C3B73413  16.314  40.913   6.895
 5857POPC   C4B73414  16.197  40.896   7.296
 5858POPC   NC373415  44.158  16.169   5.320
 5858POPC   PO473416  43.520  15.807   5.316
 5858POPC   GL173417  43.822  15.821   5.655
 5858POPC   GL273418  44.115  15.629   5.567
 5858POPC   C1A73419  43.892  15.969   6.089
 5858POPC   D2A73420  43.737  16.013   6.507
 5858POPC   C3A73421  43.901  16.041   6.914
 5858POPC   C4A73422  43.808  16.092   7.344
 5858POPC   C1B73423  44.238  15.599   5.992
 5858POPC   C2B73424  44.124  15.638   6.446
 5858POPC   C3B73425  44.280  15.676   6.889
 5858POPC   C4B73426  44.082  15.638   7.295
 5859POPC   NC373427  18.335   9.616   5.306
 5859POPC   PO473428  18.158  10.237   5.400
 5859POPC   GL173429  18.075   9.929   5.757
 5859POPC   GL273430  18.393   9.778   5.808
 5859POPC   C1A73431  18.048   9.762   6.216
 5859POPC   D2A73432  17.971   9.938   6.640
 5859POPC   C3A73433  18.095   9.771   7.048
 5859POPC   C4A73434  18.154   9.907   7.486
 5859POPC   C1B73435  18.531   9.920   6.212
 5859POPC   C2B73436  18.426   9.688   6.602
 5859POPC   C3B73437  18.469   9.438   6.982
 5859POPC   C4B73438  18.577   9.704   7.321
 5860POPC   NC373439  39.232  44.049   5.606
 5860POPC   PO473440  39.476  43.520   5.204
 5860POPC   GL173441  39.083  43.533   5.629
 5860POPC   GL273442  38.764  43.431   5.807
 5860POPC   C1A73443  38.974  43.782   6.114
 5860POPC   D2A73444  39.261  43.976   6.460
 5860POPC   C3A73445  39.158  44.093   6.888
 5860POPC   C4A73446  39.409  44.130   7.294
 5860POPC   C1B73447  39.013  43.306   6.219
 5860POPC   C2B73448  39.219  43.438   6.624
 5860POPC   C3B73449  39.282  43.628   7.049
 5860POPC   C4B73450  38.946  43.577   7.323
 5861POPC   NC373451  13.074  38.381   5.452
 5861POPC   PO473452  12.394  38.577   5.423
 5861POPC   GL173453  12.696  38.438   5.834
 5861POPC   GL273454  13.026  38.598   5.942
 5861POPC   C1A73455  12.833  38.199   6.269
 5861POPC   D2A73456  12.826  38.310   6.761
 5861POPC   C3A73457  12.896  38.272   7.217
 5861POPC   C4A73458  13.231  37.998   7.400
 5861POPC   C1B73459  12.760  38.686   6.324
 5861POPC   C2B73460  12.428  38.597   6.646
 5861POPC   C3B73461  12.596  38.670   7.046
 5861POPC   C4B73462  13.054  38.731   7.073
 5862POPC   NC373463  32.779  19.988   5.547
 5862POPC   PO473464  33.405  19.914   5.368
 5862POPC   GL173465  33.265  19.871   5.806
 5862POPC   GL273466  33.034  20.099   5.963
 5862POPC   C1A73467  33.204  19.694   6.237
 5862POPC   D2A73468  33.271  19.909   6.659
 5862POPC   C3A73469  33.075  19.796   7.052
 5862POPC   C4A73470  33.205  19.740   7.496
 5862POPC   C1B73471  32.869  20.053   6.368
 5862POPC   C2B73472  32.568  19.946   6.655
 5862POPC   C3B73473  32.560  19.870   7.098
 5862POPC   C4B73474  32.831  20.072   7.410
 5863POPC   NC373475  40.489  31.879   5.309
 5863POPC   PO473476  41.100  31.707   5.569
 5863POPC   GL173477  40.871  31.502   5.860
 5863POPC   GL273478  40.565  31.560   5.701
 5863POPC   C1A73479  40.634  31.256   6.176
 5863POPC   D2A73480  40.613  31.042   6.577
 5863POPC   C3A73481  40.692  31.311   6.935
 5863POPC   C4A73482  40.953  31.521   7.241
 5863POPC   C1B73483  40.482  31.772   6.091
 5863POPC   C2B73484  40.456  31.611   6.527
 5863POPC   C3B73485  40.522  31.812   6.918
 5863POPC   C4B73486  40.484  31.822   7.343
 5864POPC   NC373487  36.366   1.632   5.612
 5864POPC   PO473488  36.029   2.152   5.334
 5864POPC   GL173489  36.053   2.006   5.786
 5864POPC   GL273490  35.825   1.701   5.815
 5864POPC   C1A73491  36.189   2.169   6.206
 5864POPC   D2A73492  36.519   2.079   6.515
 5864POPC   C3A73493  36.394   2.153   6.928
 5864POPC   C4A73494  36.592   2.010   7.271
 5864POPC   C1B73495  36.030   1.690   6.240
 5864POPC   C2B73496  36.001   1.912   6.645
 5864POPC   C3B73497  36.106   1.747   7.077
 5864POPC   C4B73498  36.063   1.795   7.546
 5865POPC   NC373499  27.990   6.634   5.539
 5865POPC   PO473500  27.369   6.427   5.265
 5865POPC   GL173501  27.499   6.702   5.638
 5865POPC   GL273502  27.575   6.377   5.794
 5865POPC   C1A73503  27.596   6.904   6.073
 5865POPC   D2A73504  27.474   6.883   6.544
 5865POPC   C3A73505  27.730   6.981   6.934
 5865POPC   C4A73506  27.903   6.887   7.359
 5865POPC   C1B73507  27.583   6.427   6.247
 5865POPC   C2B73508  27.661   6.384   6.670
 5865POPC   C3B73509  27.710   6.475   7.095
 5865POPC   C4B73510  27.865   6.392   7.502
 5866POPC   NC373511  31.851  36.905   5.470
 5866POPC   PO473512  31.217  36.878   5.263
 5866POPC   GL173513  31.401  36.964   5.757
 5866POPC   GL273514  31.584  36.727   5.877
 5866POPC   C1A73515  31.606  37.049   6.221
 5866POPC   D2A73516  31.462  36.898   6.636
 5866POPC   C3A73517  31.594  37.109   7.032
 5866POPC   C4A73518  31.617  37.126   7.485
 5866POPC   C1B73519  31.440  36.538   6.217
 5866POPC   C2B73520  31.543  36.378   6.586
 5866POPC   C3B73521  31.351  36.479   6.959
 5866POPC   C4B73522  31.441  36.686   7.305
 5867POPC   NC373523   2.091  19.158   5.261
 5867POPC   PO473524   1.642  18.679   5.462
 5867POPC   GL173525   1.987  18.903   5.709
 5867POPC   GL273526   1.937  19.271   5.770
 5867POPC   C1A73527   1.994  18.901   6.161
 5867POPC   D2A73528   1.837  18.841   6.580
 5867POPC   C3A73529   2.109  18.942   6.955
 5867POPC   C4A73530   1.995  18.943   7.384
 5867POPC   C1B73531   2.125  19.379   6.197
 5867POPC   C2B73532   2.061  19.339   6.642
 5867POPC   C3B73533   2.141  19.459   7.074
 5867POPC   C4B73534   2.112  19.402   7.538
 5868POPC   NC373535   8.344  10.493   5.221
 5868POPC   PO473536   9.074  10.522   5.298
 5868POPC   GL173537   9.107  10.404   5.730
 5868POPC   GL273538   9.345  10.640   5.805
 5868POPC   C1A73539   8.967  10.580   6.137
 5868POPC   D2A73540   8.868  10.785   6.546
 5868POPC   C3A73541   8.774  10.531   6.880
 5868POPC   C4A73542   8.881  10.414   7.282
 5868POPC   C1B73543   9.447  10.427   6.187
 5868POPC   C2B73544   9.272  10.486   6.572
 5868POPC   C3B73545   9.299  10.547   6.976
 5868POPC   C4B73546   9.361  10.237   7.251
 5869POPC   NC373547  23.303  22.639   5.424
 5869POPC   PO473548  23.889  23.040   5.467
 5869POPC   GL173549  23.624  22.873   5.797
 5869POPC   GL273550  23.593  22.488   5.829
 5869POPC   C1A73551  23.448  23.077   6.202
 5869POPC   D2A73552  23.503  22.898   6.613
 5869POPC   C3A73553  23.711  23.073   6.942
 5869POPC   C4A73554  23.526  23.034   7.324
 5869POPC   C1B73555  23.737  22.649   6.228
 5869POPC   C2B73556  23.948  22.658   6.595
 5869POPC   C3B73557  23.783  22.581   6.976
 5869POPC   C4B73558  23.979  22.751   7.291
 5870POPC   NC373559  19.791  11.590   5.372
 5870POPC   PO473560  19.848  10.922   5.402
 5870POPC   GL173561  19.711  11.212   5.775
 5870POPC   GL273562  19.635  11.586   5.877
 5870POPC   C1A73563  19.723  11.282   6.253
 5870POPC   D2A73564  20.042  11.346   6.559
 5870POPC   C3A73565  19.856  11.349   6.943
 5870POPC   C4A73566  20.064  11.375   7.304
 5870POPC   C1B73567  19.461  11.752   6.302
 5870POPC   C2B73568  19.358  11.611   6.749
 5870POPC   C3B73569  19.543  11.663   7.193
 5870POPC   C4B73570  19.578  11.636   7.704
 5871POPC   NC373571   0.087  11.260   5.524
 5871POPC   PO473572   0.554  11.655   5.533
 5871POPC   GL173573   0.519  11.312   5.840
 5871POPC   GL273574   0.238  11.489   5.967
 5871POPC   C1A73575   0.521  11.243   6.309
 5871POPC   D2A73576   0.485  10.998   6.690
 5871POPC   C3A73577   0.564  11.179   7.082
 5871POPC   C4A73578   0.705  11.119   7.516
 5871POPC   C1B73579  44.939  11.305   6.258
 5871POPC   C2B73580  44.960  11.268   6.705
 5871POPC   C3B73581   0.089  11.338   7.116
 5871POPC   C4B73582   0.205  11.074   7.446
 5872POPC   NC373583   5.341  41.660   5.360
 5872POPC   PO473584   4.714  41.300   5.482
 5872POPC   GL173585   5.038  41.437   5.786
 5872POPC   GL273586   5.407  41.443   5.841
 5872POPC   C1A73587   5.051  41.541   6.234
 5872POPC   D2A73588   4.831  41.491   6.635
 5872POPC   C3A73589   5.014  41.674   6.993
 5872POPC   C4A73590   4.949  41.909   7.335
 5872POPC   C1B73591   5.487  41.273   6.267
 5872POPC   C2B73592   5.354  41.450   6.655
 5872POPC   C3B73593   5.326  41.289   7.085
 5872POPC   C4B73594   5.151  41.263   7.505
 5873POPC   NC373595   8.529   3.576   5.557
 5873POPC   PO473596   9.160   3.803   5.457
 5873POPC   GL173597   8.961   3.659   5.815
 5873POPC   GL273598   8.896   3.273   5.766
 5873POPC   C1A73599   8.958   3.790   6.235
 5873POPC   D2A73600   9.184   3.674   6.578
 5873POPC   C3A73601   9.168   3.340   6.847
 5873POPC   C4A73602   9.143   3.456   7.252
 5873POPC   C1B73603   8.658   3.390   6.170
 5873POPC   C2B73604   8.674   3.570   6.612
 5873POPC   C3B73605   8.682   3.398   7.024
 5873POPC   C4B73606   8.667   3.240   7.457
 5874POPC   NC373607  40.642  16.520   5.460
 5874POPC   PO473608  40.849  15.776   5.405
 5874POPC   GL173609  40.844  15.903   5.830
 5874POPC   GL273610  40.563  16.137   5.875
 5874POPC   C1A73611  41.017  16.175   6.167
 5874POPC   D2A73612  40.877  16.283   6.588
 5874POPC   C3A73613  40.816  15.901   6.817
 5874POPC   C4A73614  40.768  15.872   7.248
 5874POPC   C1B73615  40.561  15.958   6.312
 5874POPC   C2B73616  40.331  16.092   6.699
 5874POPC   C3B73617  40.430  16.245   7.127
 5874POPC   C4B73618  40.390  16.082   7.567
 5875POPC   NC373619  20.679  14.987   5.389
 5875POPC   PO473620  20.546  15.471   5.798
 5875POPC   GL173621  20.539  15.039   5.985
 5875POPC   GL273622  20.835  14.829   5.886
 5875POPC   C1A73623  20.521  14.995   6.466
 5875POPC   D2A73624  20.713  15.367   6.687
 5875POPC   C3A73625  20.737  15.420   7.129
 5875POPC   C4A73626  20.628  15.084   7.383
 5875POPC   C1B73627  20.966  15.111   6.268
 5875POPC   C2B73628  21.073  15.013   6.688
 5875POPC   C3B73629  21.071  15.024   7.137
 5875POPC   C4B73630  21.074  15.287   7.528
 5876POPC   NC373631  41.904  35.654   5.155
 5876POPC   PO473632  41.551  35.299   5.345
 5876POPC   GL173633  41.336  35.319   5.769
 5876POPC   GL273634  41.525  35.574   5.957
 5876POPC   C1A73635  41.316  35.215   6.243
 5876POPC   D2A73636  41.585  35.331   6.613
 5876POPC   C3A73637  41.402  35.340   7.031
 5876POPC   C4A73638  41.413  35.223   7.497
 5876POPC   C1B73639  41.369  35.742   6.371
 5876POPC   C2B73640  41.611  35.846   6.742
 5876POPC   C3B73641  41.792  35.703   7.101
 5876POPC   C4B73642  41.480  35.706   7.382
 5877POPC   NC373643  41.895   4.082   5.456
 5877POPC   PO473644  41.516   3.495   5.450
 5877POPC   GL173645  41.679   3.576   5.852
 5877POPC   GL273646  41.721   3.941   5.908
 5877POPC   C1A73647  41.529   3.333   6.202
 5877POPC   D2A73648  41.399   3.054   6.510
 5877POPC   C3A73649  41.461   3.289   6.849
 5877POPC   C4A73650  41.482   3.397   7.252
 5877POPC   C1B73651  41.461   3.850   6.232
 5877POPC   C2B73652  41.692   3.672   6.567
 5877POPC   C3B73653  41.652   3.766   6.975
 5877POPC   C4B73654  41.266   3.889   7.192
 5878POPC   NC373655  19.447  20.202   5.466
 5878POPC   PO473656  20.100  20.548   5.371
 5878POPC   GL173657  19.996  20.591   5.766
 5878POPC   GL273658  19.851  20.285   5.803
 5878POPC   C1A73659  19.820  20.662   6.168
 5878POPC   D2A73660  19.806  20.830   6.553
 5878POPC   C3A73661  19.869  20.586   6.929
 5878POPC   C4A73662  20.145  20.616   7.279
 5878POPC   C1B73663  19.509  20.264   6.133
 5878POPC   C2B73664  19.421  20.440   6.570
 5878POPC   C3B73665  19.446  20.249   7.005
 5878POPC   C4B73666  19.376  20.297   7.470
 5879POPC   NC373667  26.899  40.967   5.171
 5879POPC   PO473668  26.399  41.132   5.618
 5879POPC   GL173669  26.713  40.933   5.946
 5879POPC   GL273670  26.990  40.662   5.852
 5879POPC   C1A73671  26.628  40.565   6.197
 5879POPC   D2A73672  26.809  40.383   6.523
 5879POPC   C3A73673  26.804  40.686   6.796
 5879POPC   C4A73674  26.508  40.799   7.097
 5879POPC   C1B73675  27.135  40.783   6.306
 5879POPC   C2B73676  27.342  40.776   6.760
 5879POPC   C3B73677  27.128  40.700   7.173
 5879POPC   C4B73678  26.784  40.400   7.277
 5880POPC   NC373679   5.636  17.606   5.198
 5880POPC   PO473680   6.259  17.338   5.394
 5880POPC   GL173681   6.077  17.449   5.812
 5880POPC   GL273682   5.885  17.743   5.858
 5880POPC   C1A73683   6.228  17.634   6.236
 5880POPC   D2A73684   6.033  17.767   6.651
 5880POPC   C3A73685   5.865  17.419   6.910
 5880POPC   C4A73686   6.080  17.231   7.220
 5880POPC   C1B73687   5.738  17.499   6.261
 5880POPC   C2B73688   5.523  17.688   6.630
 5880POPC   C3B73689   5.640  17.848   7.047
 5880POPC   C4B73690   5.827  17.669   7.410
 5881POPC   NC373691  20.447  18.481   5.394
 5881POPC   PO473692  20.915  18.025   5.300
 5881POPC   GL173693  20.802  18.208   5.685
 5881POPC   GL273694  20.471  18.104   5.790
 5881POPC   C1A73695  20.847  18.339   6.122
 5881POPC   D2A73696  20.936  18.195   6.558
 5881POPC   C3A73697  20.847  18.519   6.871
 5881POPC   C4A73698  20.971  18.377   7.263
 5881POPC   C1B73699  20.354  18.163   6.225
 5881POPC   C2B73700  20.417  18.020   6.646
 5881POPC   C3B73701  20.576  18.127   7.053
 5881POPC   C4B73702  20.397  18.517   7.176
 5882POPC   NC373703  34.143  35.556   5.504
 5882POPC   PO473704  33.693  35.126   5.260
 5882POPC   GL173705  33.632  35.107   5.732
 5882POPC   GL273706  33.994  35.143   5.783
 5882POPC   C1A73707  33.659  35.234   6.198
 5882POPC   D2A73708  33.580  35.454   6.590
 5882POPC   C3A73709  33.865  35.349   6.943
 5882POPC   C4A73710  33.748  35.225   7.370
 5882POPC   C1B73711  34.079  34.958   6.190
 5882POPC   C2B73712  33.862  34.879   6.598
 5882POPC   C3B73713  33.896  34.841   7.047
 5882POPC   C4B73714  34.210  35.068   7.243
 5883POPC   NC373715  16.878   0.476   5.415
 5883POPC   PO473716  16.313   0.500   5.556
 5883POPC   GL173717  16.636   0.527   5.864
 5883POPC   GL273718  16.794   0.195   5.830
 5883POPC   C1A73719  16.618   0.698   6.266
 5883POPC   D2A73720  16.828   0.557   6.591
 5883POPC   C3A73721  16.626   0.510   6.965
 5883POPC   C4A73722  16.802   0.485   7.343
 5883POPC   C1B73723  16.673   0.170   6.263
 5883POPC   C2B73724  16.811   0.070   6.696
 5883POPC   C3B73725  16.817   0.015   7.144
 5883POPC   C4B73726  16.854   0.053   7.602
 5884POPC   NC373727  41.659  17.855   5.342
 5884POPC   PO473728  41.420  17.200   5.314
 5884POPC   GL173729  41.457  17.457   5.742
 5884POPC   GL273730  41.436  17.821   5.811
 5884POPC   C1A73731  41.322  17.528   6.223
 5884POPC   D2A73732  41.235  17.720   6.648
 5884POPC   C3A73733  41.263  17.461   7.021
 5884POPC   C4A73734  41.323  17.309   7.445
 5884POPC   C1B73735  41.798  17.689   6.071
 5884POPC   C2B73736  42.037  17.750   6.456
 5884POPC   C3B73737  41.839  17.683   6.840
 5884POPC   C4B73738  41.733  17.522   7.243
 5885POPC   NC373739  23.174  29.495   5.447
 5885POPC   PO473740  22.655  29.956   5.387
 5885POPC   GL173741  22.807  29.701   5.768
 5885POPC   GL273742  23.164  29.818   5.840
 5885POPC   C1A73743  22.829  29.745   6.244
 5885POPC   D2A73744  22.961  29.925   6.649
 5885POPC   C3A73745  22.665  30.081   6.946
 5885POPC   C4A73746  22.587  30.214   7.369
 5885POPC   C1B73747  23.315  29.505   6.155
 5885POPC   C2B73748  23.163  29.451   6.601
 5885POPC   C3B73749  23.099  29.608   7.033
 5885POPC   C4B73750  23.221  29.582   7.462
 5886POPC   NC373751  31.889  26.746   5.407
 5886POPC   PO473752  32.513  26.757   5.534
 5886POPC   GL173753  32.274  26.902   5.850
 5886POPC   GL273754  32.128  26.608   5.853
 5886POPC   C1A73755  32.270  26.855   6.321
 5886POPC   D2A73756  32.319  26.650   6.728
 5886POPC   C3A73757  32.208  26.902   7.091
 5886POPC   C4A73758  32.160  26.998   7.526
 5886POPC   C1B73759  31.898  26.521   6.213
 5886POPC   C2B73760  31.860  26.377   6.614
 5886POPC   C3B73761  31.948  26.447   7.048
 5886POPC   C4B73762  31.830  26.641   7.446
 5887POPC   NC373763  14.761  43.970   5.434
 5887POPC   PO473764  14.149  43.570   5.339
 5887POPC   GL173765  14.371  43.743   5.699
 5887POPC   GL273766  14.601  43.532   5.775
 5887POPC   C1A73767  14.542  43.870   6.140
 5887POPC   D2A73768  14.519  43.658   6.535
 5887POPC   C3A73769  14.350  43.835   6.909
 5887POPC   C4A73770  14.577  44.062   7.267
 5887POPC   C1B73771  14.807  43.399   6.129
 5887POPC   C2B73772  14.820  43.243   6.546
 5887POPC   C3B73773  14.679  43.406   6.970
 5887POPC   C4B73774  14.795  43.623   7.342
 5888POPC   NC373775  10.377   4.115   5.487
 5888POPC   PO473776  10.786   4.668   5.416
 5888POPC   GL173777  10.540   4.524   5.772
 5888POPC   GL273778  10.724   4.202   5.858
 5888POPC   C1A73779  10.334   4.416   6.175
 5888POPC   D2A73780  10.401   4.571   6.600
 5888POPC   C3A73781  10.320   4.343   6.976
 5888POPC   C4A73782  10.580   4.393   7.295
 5888POPC   C1B73783  10.501   3.921   6.162
 5888POPC   C2B73784  10.404   3.954   6.639
 5888POPC   C3B73785  10.565   3.896   7.094
 5888POPC   C4B73786  10.810   3.986   7.525
 5889POPC   NC373787  37.396  33.251   5.713
 5889POPC   PO473788  36.913  33.189   5.256
 5889POPC   GL173789  36.855  33.088   5.719
 5889POPC   GL273790  36.790  32.726   5.776
 5889POPC   C1A73791  36.762  33.177   6.185
 5889POPC   D2A73792  36.954  33.379   6.567
 5889POPC   C3A73793  36.837  33.172   6.944
 5889POPC   C4A73794  36.988  33.029   7.339
 5889POPC   C1B73795  36.958  32.670   6.187
 5889POPC   C2B73796  37.123  32.874   6.556
 5889POPC   C3B73797  37.124  32.707   6.953
 5889POPC   C4B73798  36.831  32.507   7.208
 5890POPC   NC373799  44.390   0.089   5.498
 5890POPC   PO473800  44.350  44.397   5.563
 5890POPC   GL173801  44.514  44.716   5.814
 5890POPC   GL273802  44.834  44.794   5.643
 5890POPC   C1A73803  44.581  44.827   6.236
 5890POPC   D2A73804  44.448  44.616   6.592
 5890POPC   C3A73805  44.532  44.805   6.973
 5890POPC   C4A73806  44.525  44.530   7.321
 5890POPC   C1B73807  44.947  44.535   6.014
 5890POPC   C2B73808  44.965  44.557   6.462
 5890POPC   C3B73809  44.936  44.514   6.898
 5890POPC   C4B73810  44.970  44.810   7.230
 5891POPC   NC373811  44.016  25.350   5.491
 5891POPC   PO473812  43.725  24.787   5.340
 5891POPC   GL173813  43.830  24.941   5.749
 5891POPC   GL273814  44.181  24.889   5.822
 5891POPC   C1A73815  43.893  25.190   6.151
 5891POPC   D2A73816  43.741  25.061   6.560
 5891POPC   C3A73817  43.863  25.292   6.917
 5891POPC   C4A73818  44.083  25.647   7.132
 5891POPC   C1B73819  44.374  25.069   6.195
 5891POPC   C2B73820  44.316  25.242   6.614
 5891POPC   C3B73821  44.336  25.205   7.071
 5891POPC   C4B73822  44.283  24.958   7.433
 5892POPC   NC373823  16.994  38.838   5.583
 5892POPC   PO473824  16.683  39.353   5.173
 5892POPC   GL173825  16.746  39.386   5.648
 5892POPC   GL273826  16.941  39.682   5.789
 5892POPC   C1A73827  16.616  39.279   6.080
 5892POPC   D2A73828  16.453  39.384   6.489
 5892POPC   C3A73829  16.557  39.167   6.895
 5892POPC   C4A73830  16.284  39.132   7.233
 5892POPC   C1B73831  17.012  39.557   6.220
 5892POPC   C2B73832  16.931  39.506   6.663
 5892POPC   C3B73833  16.980  39.517   7.119
 5892POPC   C4B73834  17.052  39.628   7.557
 5893POPC   NC373835   7.805  27.497   5.285
 5893POPC   PO473836   7.134  27.316   5.431
 5893POPC   GL173837   7.248  27.612   5.777
 5893POPC   GL273838   7.514  27.843   5.687
 5893POPC   C1A73839   7.167  27.544   6.218
 5893POPC   D2A73840   7.248  27.364   6.610
 5893POPC   C3A73841   7.366  27.617   6.949
 5893POPC   C4A73842   7.225  27.562   7.382
 5893POPC   C1B73843   7.683  27.943   6.090
 5893POPC   C2B73844   7.715  27.851   6.542
 5893POPC   C3B73845   7.837  27.846   6.971
 5893POPC   C4B73846   7.729  27.573   7.323
 5894POPC   NC373847  40.259  41.763   5.451
 5894POPC   PO473848  39.693  41.898   5.765
 5894POPC   GL173849  39.968  41.701   5.998
 5894POPC   GL273850  40.295  41.759   5.960
 5894POPC   C1A73851  39.999  41.707   6.428
 5894POPC   D2A73852  40.183  41.783   6.805
 5894POPC   C3A73853  39.945  41.697   7.154
 5894POPC   C4A73854  40.189  41.770   7.564
 5894POPC   C1B73855  40.283  41.345   6.212
 5894POPC   C2B73856  40.156  41.171   6.594
 5894POPC   C3B73857  40.261  41.290   7.006
 5894POPC   C4B73858  40.086  41.287   7.415
 5895POPC   NC373859  44.262  17.767   5.488
 5895POPC   PO473860  43.830  17.268   5.502
 5895POPC   GL173861  43.968  17.381   5.903
 5895POPC   GL273862  43.917  17.742   5.899
 5895POPC   C1A73863  44.021  17.481   6.351
 5895POPC   D2A73864  43.934  17.671   6.759
 5895POPC   C3A73865  43.821  17.413   7.104
 5895POPC   C4A73866  44.231  17.355   7.222
 5895POPC   C1B73867  43.744  17.900   6.300
 5895POPC   C2B73868  43.483  17.895   6.674
 5895POPC   C3B73869  43.632  18.001   7.061
 5895POPC   C4B73870  43.998  17.855   7.239
 5896POPC   NC373871  33.224  30.285   5.607
 5896POPC   PO473872  32.929  29.753   5.404
 5896POPC   GL173873  33.098  29.819   5.809
 5896POPC   GL273874  33.441  29.766   5.781
 5896POPC   C1A73875  32.961  29.995   6.238
 5896POPC   D2A73876  32.642  29.945   6.591
 5896POPC   C3A73877  32.837  29.932   7.010
 5896POPC   C4A73878  32.985  29.715   7.417
 5896POPC   C1B73879  33.487  29.908   6.195
 5896POPC   C2B73880  33.418  29.753   6.625
 5896POPC   C3B73881  33.354  29.836   7.082
 5896POPC   C4B73882  33.193  30.221   7.228
 5897POPC   NC373883  43.564  11.792   5.333
 5897POPC   PO473884  43.123  12.245   5.279
 5897POPC   GL173885  43.129  12.121   5.725
 5897POPC   GL273886  43.230  11.747   5.735
 5897POPC   C1A73887  43.048  12.278   6.172
 5897POPC   D2A73888  43.352  12.310   6.496
 5897POPC   C3A73889  43.244  12.178   6.900
 5897POPC   C4A73890  43.379  12.331   7.282
 5897POPC   C1B73891  43.307  11.835   6.185
 5897POPC   C2B73892  42.995  11.895   6.515
 5897POPC   C3B73893  42.746  12.029   6.861
 5897POPC   C4B73894  42.924  11.996   7.272
 5898POPC   NC373895  11.007  10.960   5.552
 5898POPC   PO473896  10.431  11.336   5.524
 5898POPC   GL173897  10.588  11.103   5.827
 5898POPC   GL273898  10.498  10.771   5.724
 5898POPC   C1A73899  10.721  11.265   6.228
 5898POPC   D2A73900  10.497  11.402   6.604
 5898POPC   C3A73901  10.594  11.610   7.001
 5898POPC   C4A73902  10.295  11.634   7.337
 5898POPC   C1B73903  10.640  10.710   6.153
 5898POPC   C2B73904  10.642  10.870   6.565
 5898POPC   C3B73905  10.427  10.867   6.936
 5898POPC   C4B73906  10.521  11.149   7.236
 5899POPC   NC373907  29.262  35.808   5.515
 5899POPC   PO473908  29.340  35.198   5.411
 5899POPC   GL173909  29.410  35.329   5.829
 5899POPC   GL273910  29.079  35.492   5.881
 5899POPC   C1A73911  29.241  35.210   6.255
 5899POPC   D2A73912  29.117  35.497   6.560
 5899POPC   C3A73913  28.893  35.379   6.918
 5899POPC   C4A73914  29.034  35.309   7.299
 5899POPC   C1B73915  29.404  35.715   6.169
 5899POPC   C2B73916  29.612  35.756   6.593
 5899POPC   C3B73917  29.401  35.565   6.988
 5899POPC   C4B73918  29.416  35.688   7.428
 5900POPC   NC373919  37.995  40.818   5.095
 5900POPC   PO473920  37.668  40.734   5.686
 5900POPC   GL173921  37.982  40.745   6.051
 5900POPC   GL273922  38.164  41.079   6.083
 5900POPC   C1A73923  37.847  40.692   6.492
 5900POPC   D2A73924  37.606  40.516   6.849
 5900POPC   C3A73925  37.475  40.809   7.166
 5900POPC   C4A73926  37.384  40.909   7.606
 5900POPC   C1B73927  38.178  41.226   6.501
 5900POPC   C2B73928  37.944  41.118   6.834
 5900POPC   C3B73929  37.994  40.788   7.110
 5900POPC   C4B73930  37.892  40.806   7.526
 5901POPC   NC373931  16.158  36.297   5.423
 5901POPC   PO473932  15.849  35.729   5.510
 5901POPC   GL173933  16.103  35.880   5.856
 5901POPC   GL273934  16.210  36.217   5.929
 5901POPC   C1A73935  16.113  35.835   6.317
 5901POPC   D2A73936  15.793  35.895   6.659
 5901POPC   C3A73937  15.936  35.931   7.093
 5901POPC   C4A73938  16.382  36.115   7.081
 5901POPC   C1B73939  15.774  36.276   6.083
 5901POPC   C2B73940  15.703  36.412   6.501
 5901POPC   C3B73941  15.993  36.358   6.824
 5901POPC   C4B73942  15.875  36.414   7.249
 5902POPC   NC373943  14.660  42.367   5.035
 5902POPC   PO473944  15.241  42.344   5.371
 5902POPC   GL173945  15.150  42.522   5.788
 5902POPC   GL273946  15.190  42.151   5.865
 5902POPC   C1A73947  14.997  42.429   6.238
 5902POPC   D2A73948  15.065  42.332   6.683
 5902POPC   C3A73949  15.099  42.645   7.038
 5902POPC   C4A73950  14.778  42.636   7.357
 5902POPC   C1B73951  15.328  41.975   6.259
 5902POPC   C2B73952  15.129  41.797   6.622
 5902POPC   C3B73953  15.133  41.820   7.042
 5902POPC   C4B73954  15.046  42.175   7.177
 5903POPC   NC373955  28.626  10.649   5.438
 5903POPC   PO473956  28.160  10.194   5.376
 5903POPC   GL173957  28.254  10.481   5.750
 5903POPC   GL273958  28.587  10.390   5.890
 5903POPC   C1A73959  28.225  10.702   6.178
 5903POPC   D2A73960  28.062  10.626   6.613
 5903POPC   C3A73961  28.244  10.766   7.009
 5903POPC   C4A73962  28.358  10.498   7.355
 5903POPC   C1B73963  28.739  10.684   6.202
 5903POPC   C2B73964  28.615  10.670   6.639
 5903POPC   C3B73965  28.761  10.686   7.069
 5903POPC   C4B73966  28.772  10.799   7.513
 5904POPC   NC373967  37.894  32.091   5.324
 5904POPC   PO473968  37.352  31.740   5.424
 5904POPC   GL173969  37.537  31.977   5.827
 5904POPC   GL273970  37.746  32.274   5.883
 5904POPC   C1A73971  37.708  31.984   6.285
 5904POPC   D2A73972  37.852  32.116   6.715
 5904POPC   C3A73973  37.686  31.852   7.074
 5904POPC   C4A73974  37.768  31.789   7.563
 5904POPC   C1B73975  37.718  32.504   6.292
 5904POPC   C2B73976  37.615  32.716   6.698
 5904POPC   C3B73977  37.603  32.637   7.115
 5904POPC   C4B73978  37.737  32.279   7.349
 5905POPC   NC373979  36.821  30.758   5.435
 5905POPC   PO473980  36.801  30.144   5.546
 5905POPC   GL173981  36.975  30.471   5.814
 5905POPC   GL273982  36.632  30.644   5.905
 5905POPC   C1A73983  37.048  30.757   6.183
 5905POPC   D2A73984  36.847  30.787   6.583
 5905POPC   C3A73985  37.125  30.865   6.904
 5905POPC   C4A73986  37.045  30.722   7.288
 5905POPC   C1B73987  36.588  31.011   6.193
 5905POPC   C2B73988  36.438  31.104   6.635
 5905POPC   C3B73989  36.621  30.933   7.046
 5905POPC   C4B73990  36.626  30.957   7.497
 5906POPC   NC373991  44.578  10.812   5.435
 5906POPC   PO473992  44.435  10.206   5.430
 5906POPC   GL173993  44.762  10.462   5.747
 5906POPC   GL273994  44.888  10.859   5.827
 5906POPC   C1A73995  44.646  10.590   6.185
 5906POPC   D2A73996  44.674  10.366   6.586
 5906POPC   C3A73997  44.606  10.587   6.963
 5906POPC   C4A73998  44.444  10.584   7.395
 5906POPC   C1B73999   0.171  10.845   6.182
 5906POPC   C2B74000   0.067  10.729   6.573
 5906POPC   C3B74001   0.075  10.846   6.992
 5906POPC   C4B74002  44.950  10.637   7.351
 5907POPC   NC374003   6.164  25.109   5.390
 5907POPC   PO474004   5.535  25.144   5.509
 5907POPC   GL174005   5.794  25.271   5.807
 5907POPC   GL274006   5.949  25.561   5.638
 5907POPC   C1A74007   5.831  25.004   6.176
 5907POPC   D2A74008   6.046  24.948   6.593
 5907POPC   C3A74009   5.891  25.183   6.977
 5907POPC   C4A74010   6.004  25.303   7.401
 5907POPC   C1B74011   6.043  25.635   6.083
 5907POPC   C2B74012   6.020  25.518   6.537
 5907POPC   C3B74013   5.669  25.612   6.804
 5907POPC   C4B74014   5.608  25.622   7.237
 5908POPC   NC374015  17.772  34.495   5.393
 5908POPC   PO474016  17.108  34.667   5.418
 5908POPC   GL174017  17.312  34.408   5.774
 5908POPC   GL274018  17.125  34.158   5.882
 5908POPC   C1A74019  17.567  34.387   6.166
 5908POPC   D2A74020  17.854  34.497   6.543
 5908POPC   C3A74021  17.725  34.581   6.975
 5908POPC   C4A74022  17.426  34.904   7.154
 5908POPC   C1B74023  17.053  34.380   6.296
 5908POPC   C2B74024  16.981  34.395   6.764
 5908POPC   C3B74025  17.267  34.413   7.125
 5908POPC   C4B74026  17.263  34.223   7.567
 5909POPC   NC374027   7.489  34.684   5.398
 5909POPC   PO474028   7.050  34.168   5.368
 5909POPC   GL174029   7.316  34.324   5.743
 5909POPC   GL274030   7.274  34.713   5.861
 5909POPC   C1A74031   7.479  34.391   6.180
 5909POPC   D2A74032   7.258  34.759   6.417
 5909POPC   C3A74033   7.156  34.707   6.864
 5909POPC   C4A74034   7.450  34.431   7.050
 5909POPC   C1B74035   7.656  34.888   6.091
 5909POPC   C2B74036   7.897  34.805   6.475
 5909POPC   C3B74037   7.831  34.888   6.938
 5909POPC   C4B74038   7.588  34.847   7.330
 5910POPC   NC374039  42.185   7.052   5.483
 5910POPC   PO474040  41.558   6.804   5.310
 5910POPC   GL174041  41.479   6.618   5.729
 5910POPC   GL274042  41.591   6.925   5.829
 5910POPC   C1A74043  41.562   6.533   6.181
 5910POPC   D2A74044  41.557   6.342   6.584
 5910POPC   C3A74045  41.444   6.492   6.996
 5910POPC   C4A74046  41.577   6.420   7.424
 5910POPC   C1B74047  41.627   7.046   6.239
 5910POPC   C2B74048  41.599   6.885   6.617
 5910POPC   C3B74049  41.574   7.051   6.965
 5910POPC   C4B74050  41.703   6.867   7.272
 5911POPC   NC374051  38.126  43.197   5.462
 5911POPC   PO474052  38.752  43.111   5.405
 5911POPC   GL174053  38.446  42.896   5.747
 5911POPC   GL274054  38.333  43.159   5.908
 5911POPC   C1A74055  38.284  42.742   6.184
 5911POPC   D2A74056  38.479  42.750   6.599
 5911POPC   C3A74057  38.281  42.962   6.926
 5911POPC   C4A74058  38.222  43.021   7.332
 5911POPC   C1B74059  38.533  43.175   6.295
 5911POPC   C2B74060  38.704  43.243   6.709
 5911POPC   C3B74061  38.543  43.353   7.111
 5911POPC   C4B74062  38.494  43.431   7.556
 5912POPC   NC374063   4.643  39.866   5.512
 5912POPC   PO474064   4.085  40.366   5.336
 5912POPC   GL174065   4.221  40.126   5.721
 5912POPC   GL274066   4.081  39.773   5.775
 5912POPC   C1A74067   4.404  40.035   6.129
 5912POPC   D2A74068   4.231  40.203   6.489
 5912POPC   C3A74069   4.240  40.050   6.915
 5912POPC   C4A74070   4.394  39.976   7.337
 5912POPC   C1B74071   4.098  39.627   6.208
 5912POPC   C2B74072   4.298  39.623   6.608
 5912POPC   C3B74073   4.321  39.565   7.051
 5912POPC   C4B74074   4.018  39.467   7.384
 5913POPC   NC374075  23.800  24.270   5.426
 5913POPC   PO474076  23.523  24.856   5.441
 5913POPC   GL174077  23.740  24.621   5.813
 5913POPC   GL274078  24.006  24.325   5.905
 5913POPC   C1A74079  23.664  24.579   6.256
 5913POPC   D2A74080  23.852  24.475   6.651
 5913POPC   C3A74081  23.649  24.634   7.000
 5913POPC   C4A74082  23.696  24.694   7.424
 5913POPC   C1B74083  23.829  24.084   6.269
 5913POPC   C2B74084  23.843  23.973   6.713
 5913POPC   C3B74085  23.942  24.211   7.108
 5913POPC   C4B74086  23.931  24.270   7.572
 5914POPC   NC374087  38.364  36.196   5.044
 5914POPC   PO474088  38.218  36.236   5.717
 5914POPC   GL174089  38.565  36.193   6.015
 5914POPC   GL274090  38.734  35.908   5.864
 5914POPC   C1A74091  38.607  36.218   6.457
 5914POPC   D2A74092  38.312  36.118   6.782
 5914POPC   C3A74093  38.313  36.324   7.180
 5914POPC   C4A74094  38.257  36.239   7.650
 5914POPC   C1B74095  38.526  35.740   6.245
 5914POPC   C2B74096  38.594  35.709   6.690
 5914POPC   C3B74097  38.527  35.790   7.126
 5914POPC   C4B74098  38.572  35.822   7.544
 5915POPC   NC374099  37.038   4.129   5.485
 5915POPC   PO474100  36.767   4.725   5.487
 5915POPC   GL174101  37.008   4.514   5.836
 5915POPC   GL274102  37.001   4.128   5.986
 5915POPC   C1A74103  36.826   4.527   6.246
 5915POPC   D2A74104  36.591   4.504   6.621
 5915POPC   C3A74105  36.924   4.439   6.916
 5915POPC   C4A74106  37.189   4.676   7.157
 5915POPC   C1B74107  36.590   3.989   6.205
 5915POPC   C2B74108  36.366   4.020   6.617
 5915POPC   C3B74109  36.554   4.102   7.032
 5915POPC   C4B74110  36.728   3.928   7.444
 5916POPC   NC374111   6.826  25.761   5.575
 5916POPC   PO474112   6.580  26.361   5.492
 5916POPC   GL174113   6.811  26.187   5.828
 5916POPC   GL274114   6.519  26.014   5.957
 5916POPC   C1A74115   6.966  25.940   6.208
 5916POPC   D2A74116   6.813  26.040   6.611
 5916POPC   C3A74117   6.960  25.919   7.012
 5916POPC   C4A74118   6.901  26.294   7.263
 5916POPC   C1B74119   6.472  25.753   6.345
 5916POPC   C2B74120   6.477  25.720   6.804
 5916POPC   C3B74121   6.462  26.046   7.128
 5916POPC   C4B74122   6.346  26.160   7.563
 5917POPC   NC374123   8.618  25.107   5.350
 5917POPC   PO474124   9.213  25.329   5.613
 5917POPC   GL174125   9.123  25.170   5.941
 5917POPC   GL274126   8.819  25.044   5.864
 5917POPC   C1A74127   8.921  25.342   6.319
 5917POPC   D2A74128   9.005  25.503   6.744
 5917POPC   C3A74129   8.769  25.287   7.017
 5917POPC   C4A74130   9.034  24.997   7.254
 5917POPC   C1B74131   9.000  24.821   6.259
 5917POPC   C2B74132   8.936  24.944   6.646
 5917POPC   C3B74133   8.697  24.786   6.926
 5917POPC   C4B74134   8.435  24.969   7.232
 5918POPC   NC374135   7.679  20.717   5.264
 5918POPC   PO474136   7.208  20.300   5.490
 5918POPC   GL174137   7.447  20.345   5.846
 5918POPC   GL274138   7.622  20.660   5.785
 5918POPC   C1A74139   7.321  20.414   6.290
 5918POPC   D2A74140   7.570  20.351   6.691
 5918POPC   C3A74141   7.362  20.268   7.083
 5918POPC   C4A74142   6.972  20.435   7.230
 5918POPC   C1B74143   7.754  20.662   6.230
 5918POPC   C2B74144   7.522  20.856   6.603
 5918POPC   C3B74145   7.354  20.822   7.032
 5918POPC   C4B74146   7.596  20.638   7.366
 5919POPC   NC374147   5.135  24.914   5.457
 5919POPC   PO474148   4.763  24.338   5.522
 5919POPC   GL174149   5.138  24.428   5.756
 5919POPC   GL274150   5.389  24.130   5.816
 5919POPC   C1A74151   5.352  24.678   6.084
 5919POPC   D2A74152   5.592  24.656   6.483
 5919POPC   C3A74153   5.313  24.561   6.798
 5919POPC   C4A74154   5.000  24.722   7.051
 5919POPC   C1B74155   5.176  24.201   6.220
 5919POPC   C2B74156   4.916  24.352   6.581
 5919POPC   C3B74157   4.983  24.213   7.019
 5919POPC   C4B74158   5.349  24.297   7.255
 5920POPC   NC374159  17.905  36.247   5.470
 5920POPC   PO474160  17.443  35.801   5.148
 5920POPC   GL174161  17.460  35.974   5.651
 5920POPC   GL274162  17.487  36.339   5.815
 5920POPC   C1A74163  17.330  35.965   6.139
 5920POPC   D2A74164  17.203  36.136   6.564
 5920POPC   C3A74165  17.383  35.968   6.971
 5920POPC   C4A74166  17.322  36.027   7.454
 5920POPC   C1B74167  17.506  36.469   6.284
 5920POPC   C2B74168  17.561  36.486   6.781
 5920POPC   C3B74169  17.659  36.321   7.228
 5920POPC   C4B74170  17.896  36.146   7.599
 5921POPC   NC374171   1.516  17.039   5.527
 5921POPC   PO474172   1.100  16.601   5.252
 5921POPC   GL174173   1.164  16.635   5.702
 5921POPC   GL274174   1.019  16.907   5.822
 5921POPC   C1A74175   1.354  16.657   6.113
 5921POPC   D2A74176   1.162  16.676   6.497
 5921POPC   C3A74177   1.436  16.784   6.811
 5921POPC   C4A74178   1.433  16.609   7.212
 5921POPC   C1B74179   1.001  17.098   6.200
 5921POPC   C2B74180   0.733  17.130   6.527
 5921POPC   C3B74181   0.932  16.942   6.870
 5921POPC   C4B74182   0.847  16.890   7.250
 5922POPC   NC374183  15.799  22.438   5.455
 5922POPC   PO474184  16.029  21.801   5.558
 5922POPC   GL174185  15.981  22.113   5.864
 5922POPC   GL274186  15.639  22.170   5.887
 5922POPC   C1A74187  15.917  22.332   6.292
 5922POPC   D2A74188  16.046  22.193   6.671
 5922POPC   C3A74189  15.810  22.259   7.027
 5922POPC   C4A74190  15.802  22.633   7.253
 5922POPC   C1B74191  15.742  21.863   6.259
 5922POPC   C2B74192  15.586  21.911   6.668
 5922POPC   C3B74193  15.523  21.788   7.100
 5922POPC   C4B74194  15.853  21.902   7.384
 5923POPC   NC374195  28.088   1.449   5.434
 5923POPC   PO474196  28.819   1.451   5.412
 5923POPC   GL174197  28.540   1.472   5.787
 5923POPC   GL274198  28.277   1.185   5.834
 5923POPC   C1A74199  28.595   1.302   6.227
 5923POPC   D2A74200  28.302   1.231   6.525
 5923POPC   C3A74201  28.232   1.381   6.904
 5923POPC   C4A74202  28.369   1.236   7.273
 5923POPC   C1B74203  28.076   0.935   6.184
 5923POPC   C2B74204  27.999   0.838   6.645
 5923POPC   C3B74205  27.977   0.938   7.120
 5923POPC   C4B74206  28.107   0.940   7.596
 5924POPC   NC374207  38.286  25.059   5.059
 5924POPC   PO474208  38.373  24.948   5.660
 5924POPC   GL174209  38.439  25.293   5.892
 5924POPC   GL274210  38.346  25.658   5.875
 5924POPC   C1A74211  38.472  25.157   6.283
 5924POPC   D2A74212  38.637  25.303   6.613
 5924POPC   C3A74213  38.529  25.149   7.005
 5924POPC   C4A74214  38.566  25.470   7.309
 5924POPC   C1B74215  38.120  25.551   6.213
 5924POPC   C2B74216  38.119  25.360   6.592
 5924POPC   C3B74217  38.181  25.506   6.967
 5924POPC   C4B74218  38.013  25.320   7.304
 5925POPC   NC374219  19.134  41.118   5.428
 5925POPC   PO474220  19.489  40.627   5.583
 5925POPC   GL174221  19.315  40.747   5.907
 5925POPC   GL274222  18.985  40.864   5.864
 5925POPC   C1A74223  19.501  40.885   6.247
 5925POPC   D2A74224  19.531  40.762   6.644
 5925POPC   C3A74225  19.433  41.058   6.930
 5925POPC   C4A74226  19.196  40.934   7.279
 5925POPC   C1B74227  18.930  40.531   6.151
 5925POPC   C2B74228  19.147  40.425   6.510
 5925POPC   C3B74229  19.097  40.599   6.894
 5925POPC   C4B74230  19.080  40.437   7.268
 5926POPC   NC374231  44.274  40.257   5.344
 5926POPC   PO474232  43.854  40.837   5.332
 5926POPC   GL174233  43.789  40.784   5.781
 5926POPC   GL274234  43.723  40.439   5.737
 5926POPC   C1A74235  43.957  40.885   6.208
 5926POPC   D2A74236  44.071  41.127   6.593
 5926POPC   C3A74237  43.938  40.955   6.995
 5926POPC   C4A74238  43.973  40.904   7.433
 5926POPC   C1B74239  43.673  40.425   6.190
 5926POPC   C2B74240  43.658  40.672   6.580
 5926POPC   C3B74241  43.472  40.577   6.934
 5926POPC   C4B74242  43.626  40.422   7.270
 5927POPC   NC374243  26.980  28.754   5.474
 5927POPC   PO474244  26.592  28.194   5.424
 5927POPC   GL174245  26.749  28.405   5.793
 5927POPC   GL274246  27.122  28.347   5.830
 5927POPC   C1A74247  26.551  28.547   6.166
 5927POPC   D2A74248  26.592  28.789   6.521
 5927POPC   C3A74249  26.801  28.519   6.793
 5927POPC   C4A74250  26.843  28.308   7.180
 5927POPC   C1B74251  26.983  28.326   6.285
 5927POPC   C2B74252  27.085  28.103   6.667
 5927POPC   C3B74253  27.182  27.954   7.089
 5927POPC   C4B74254  27.291  28.258   7.464
 5928POPC   NC374255  17.751  20.444   5.335
 5928POPC   PO474256  18.375  20.647   5.417
 5928POPC   GL174257  18.255  20.520   5.790
 5928POPC   GL274258  17.911  20.670   5.770
 5928POPC   C1A74259  18.490  20.576   6.183
 5928POPC   D2A74260  18.569  20.808   6.568
 5928POPC   C3A74261  18.470  20.600   6.956
 5928POPC   C4A74262  18.531  20.853   7.291
 5928POPC   C1B74263  17.940  20.483   6.168
 5928POPC   C2B74264  18.143  20.465   6.556
 5928POPC   C3B74265  17.964  20.564   6.935
 5928POPC   C4B74266  18.053  20.672   7.345
 5929POPC   NC374267  25.187  13.760   5.093
 5929POPC   PO474268  25.595  13.465   5.482
 5929POPC   GL174269  25.480  13.487   5.896
 5929POPC   GL274270  25.157  13.642   5.918
 5929POPC   C1A74271  25.296  13.239   6.226
 5929POPC   D2A74272  25.404  13.183   6.641
 5929POPC   C3A74273  25.183  13.404   6.981
 5929POPC   C4A74274  25.179  13.563   7.428
 5929POPC   C1B74275  25.390  13.749   6.336
 5929POPC   C2B74276  25.498  13.998   6.717
 5929POPC   C3B74277  25.483  13.857   7.128
 5929POPC   C4B74278  25.826  13.771   7.378
 5930POPC   NC374279  20.974  38.968   5.596
 5930POPC   PO474280  20.448  38.575   5.321
 5930POPC   GL174281  20.506  38.384   5.764
 5930POPC   GL274282  20.487  38.038   5.801
 5930POPC   C1A74283  20.544  38.522   6.206
 5930POPC   D2A74284  20.777  38.619   6.599
 5930POPC   C3A74285  20.556  38.816   6.927
 5930POPC   C4A74286  20.699  38.788   7.328
 5930POPC   C1B74287  20.818  38.114   6.113
 5930POPC   C2B74288  20.936  38.115   6.554
 5930POPC   C3B74289  20.782  38.236   6.966
 5930POPC   C4B74290  20.558  38.084   7.296
 5931POPC   NC374291  10.031  32.440   5.349
 5931POPC   PO474292   9.623  31.861   5.413
 5931POPC   GL174293   9.864  32.081   5.708
 5931POPC   GL274294   9.722  32.400   5.735
 5931POPC   C1A74295   9.855  32.113   6.161
 5931POPC   D2A74296  10.016  32.005   6.548
 5931POPC   C3A74297   9.741  31.954   6.916
 5931POPC   C4A74298   9.701  32.206   7.299
 5931POPC   C1B74299   9.926  32.625   6.045
 5931POPC   C2B74300   9.736  32.604   6.425
 5931POPC   C3B74301   9.777  32.486   6.849
 5931POPC   C4B74302  10.015  32.605   7.189
 5932POPC   NC374303  23.377   2.049   5.671
 5932POPC   PO474304  23.839   1.633   5.417
 5932POPC   GL174305  23.948   1.760   5.825
 5932POPC   GL274306  23.962   2.081   5.722
 5932POPC   C1A74307  23.919   1.784   6.324
 5932POPC   D2A74308  23.583   1.769   6.668
 5932POPC   C3A74309  23.628   1.781   7.146
 5932POPC   C4A74310  23.471   2.035   7.519
 5932POPC   C1B74311  23.915   2.248   6.116
 5932POPC   C2B74312  23.946   2.286   6.546
 5932POPC   C3B74313  23.697   2.223   6.883
 5932POPC   C4B74314  23.837   2.310   7.261
 5933POPC   NC374315  21.072  41.492   5.513
 5933POPC   PO474316  21.740  41.492   5.581
 5933POPC   GL174317  21.532  41.535   5.916
 5933POPC   GL274318  21.541  41.861   5.978
 5933POPC   C1A74319  21.636  41.537   6.351
 5933POPC   D2A74320  21.346  41.444   6.648
 5933POPC   C3A74321  21.512  41.265   6.965
 5933POPC   C4A74322  21.423  41.335   7.362
 5933POPC   C1B74323  21.142  41.785   6.167
 5933POPC   C2B74324  20.931  41.686   6.542
 5933POPC   C3B74325  21.040  41.781   6.961
 5933POPC   C4B74326  21.460  41.780   7.046
 5934POPC   NC374327  38.029   4.445   5.071
 5934POPC   PO474328  37.451   4.462   5.434
 5934POPC   GL174329  37.536   4.303   5.800
 5934POPC   GL274330  37.893   4.196   5.686
 5934POPC   C1A74331  37.381   4.405   6.199
 5934POPC   D2A74332  37.677   4.365   6.509
 5934POPC   C3A74333  37.506   4.391   6.891
 5934POPC   C4A74334  37.732   4.447   7.227
 5934POPC   C1B74335  38.027   4.242   6.111
 5934POPC   C2B74336  38.072   4.032   6.497
 5934POPC   C3B74337  37.907   4.070   6.889
 5934POPC   C4B74338  38.071   4.004   7.266
 5935POPC   NC374339  16.128  11.566   5.329
 5935POPC   PO474340  15.792  10.989   5.389
 5935POPC   GL174341  15.898  11.302   5.716
 5935POPC   GL274342  15.720  11.615   5.648
 5935POPC   C1A74343  16.040  11.331   6.153
 5935POPC   D2A74344  15.840  11.156   6.519
 5935POPC   C3A74345  16.021  11.107   6.906
 5935POPC   C4A74346  15.751  11.020   7.232
 5935POPC   C1B74347  15.610  11.604   6.080
 5935POPC   C2B74348  15.773  11.666   6.489
 5935POPC   C3B74349  15.659  11.497   6.903
 5935POPC   C4B74350  15.884  11.498   7.288
 5936POPC   NC374351  40.156   2.566   5.341
 5936POPC   PO474352  39.621   2.991   5.567
 5936POPC   GL174353  39.896   2.725   5.826
 5936POPC   GL274354  40.260   2.803   5.793
 5936POPC   C1A74355  39.967   2.616   6.277
 5936POPC   D2A74356  40.215   2.624   6.675
 5936POPC   C3A74357  39.890   2.767   6.983
 5936POPC   C4A74358  39.635   2.552   7.262
 5936POPC   C1B74359  40.383   2.906   6.242
 5936POPC   C2B74360  40.217   3.130   6.603
 5936POPC   C3B74361  40.199   3.137   7.061
 5936POPC   C4B74362  40.330   2.943   7.493
 5937POPC   NC374363  29.699  30.509   5.158
 5937POPC   PO474364  30.140  30.697   5.411
 5937POPC   GL174365  29.875  30.886   5.738
 5937POPC   GL274366  29.707  30.573   5.889
 5937POPC   C1A74367  29.863  31.082   6.168
 5937POPC   D2A74368  29.948  30.942   6.582
 5937POPC   C3A74369  29.851  31.108   6.975
 5937POPC   C4A74370  29.936  30.773   7.243
 5937POPC   C1B74371  29.581  30.686   6.339
 5937POPC   C2B74372  29.510  30.730   6.801
 5937POPC   C3B74373  29.632  30.379   7.083
 5937POPC   C4B74374  29.776  30.238   7.508
 5938POPC   NC374375  21.162   0.476   5.214
 5938POPC   PO474376  20.558   0.126   5.405
 5938POPC   GL174377  20.709   0.253   5.854
 5938POPC   GL274378  20.652   0.581   6.016
 5938POPC   C1A74379  20.617   0.180   6.309
 5938POPC   D2A74380  20.601   0.540   6.578
 5938POPC   C3A74381  20.513   0.517   6.983
 5938POPC   C4A74382  20.618   0.705   7.347
 5938POPC   C1B74383  20.423   0.894   6.248
 5938POPC   C2B74384  20.222   0.887   6.651
 5938POPC   C3B74385  20.282   1.003   7.072
 5938POPC   C4B74386  20.119   0.772   7.416
 5939POPC   NC374387  25.935   3.991   5.448
 5939POPC   PO474388  26.513   4.425   5.407
 5939POPC   GL174389  26.346   4.320   5.832
 5939POPC   GL274390  25.975   4.346   5.851
 5939POPC   C1A74391  26.257   4.356   6.295
 5939POPC   D2A74392  26.476   4.438   6.670
 5939POPC   C3A74393  26.204   4.265   7.023
 5939POPC   C4A74394  25.916   3.974   7.230
 5939POPC   C1B74395  25.753   4.266   6.220
 5939POPC   C2B74396  25.845   4.074   6.611
 5939POPC   C3B74397  25.733   4.366   6.883
 5939POPC   C4B74398  25.595   4.380   7.245
 5940POPC   NC374399   5.607  12.943   5.324
 5940POPC   PO474400   6.315  12.978   5.223
 5940POPC   GL174401   6.053  12.932   5.676
 5940POPC   GL274402   6.126  12.638   5.847
 5940POPC   C1A74403   5.872  12.959   6.147
 5940POPC   D2A74404   5.806  13.129   6.601
 5940POPC   C3A74405   5.879  12.994   7.018
 5940POPC   C4A74406   5.618  12.693   7.180
 5940POPC   C1B74407   6.149  12.501   6.254
 5940POPC   C2B74408   6.150  12.688   6.655
 5940POPC   C3B74409   6.046  12.441   7.017
 5940POPC   C4B74410   5.949  12.444   7.472
 5941POPC   NC374411  44.215   3.149   5.600
 5941POPC   PO474412  43.874   3.785   5.546
 5941POPC   GL174413  43.962   3.569   5.881
 5941POPC   GL274414  43.806   3.222   5.895
 5941POPC   C1A74415  43.749   3.641   6.273
 5941POPC   D2A74416  43.724   3.890   6.657
 5941POPC   C3A74417  43.895   3.738   7.051
 5941POPC   C4A74418  44.258   3.888   7.312
 5941POPC   C1B74419  44.118   3.272   6.246
 5941POPC   C2B74420  43.993   3.385   6.643
 5941POPC   C3B74421  44.005   3.242   7.032
 5941POPC   C4B74422  43.609   3.232   7.218
 5942POPC   NC374423  13.501  34.926   5.584
 5942POPC   PO474424  13.379  34.134   5.471
 5942POPC   GL174425  13.677  34.413   5.746
 5942POPC   GL274426  13.422  34.549   5.933
 5942POPC   C1A74427  13.870  34.580   6.174
 5942POPC   D2A74428  13.766  34.780   6.598
 5942POPC   C3A74429  13.787  34.493   6.957
 5942POPC   C4A74430  13.621  34.438   7.364
 5942POPC   C1B74431  13.429  34.278   6.315
 5942POPC   C2B74432  13.351  34.298   6.762
 5942POPC   C3B74433  13.311  34.703   6.905
 5942POPC   C4B74434  13.184  34.886   7.266
 5943POPC   NC374435  11.601  20.127   5.519
 5943POPC   PO474436  12.157  19.830   5.348
 5943POPC   GL174437  12.012  19.763   5.780
 5943POPC   GL274438  11.669  19.800   5.890
 5943POPC   C1A74439  12.043  19.958   6.205
 5943POPC   D2A74440  11.883  19.917   6.614
 5943POPC   C3A74441  12.174  19.914   6.956
 5943POPC   C4A74442  12.120  20.023   7.386
 5943POPC   C1B74443  11.799  19.518   6.213
 5943POPC   C2B74444  11.919  19.397   6.634
 5943POPC   C3B74445  11.759  19.577   6.995
 5943POPC   C4B74446  11.702  19.717   7.405
 5944POPC   NC374447  16.069  10.568   5.336
 5944POPC   PO474448  15.623  10.023   5.385
 5944POPC   GL174449  15.855  10.309   5.733
 5944POPC   GL274450  16.040  10.705   5.805
 5944POPC   C1A74451  15.835  10.448   6.161
 5944POPC   D2A74452  16.037  10.361   6.527
 5944POPC   C3A74453  15.866  10.631   6.782
 5944POPC   C4A74454  15.763  10.512   7.172
 5944POPC   C1B74455  16.144  10.835   6.244
 5944POPC   C2B74456  16.410  10.685   6.561
 5944POPC   C3B74457  16.315  10.555   6.972
 5944POPC   C4B74458  16.199  10.786   7.305
 5945POPC   NC374459   1.726  34.792   5.377
 5945POPC   PO474460   2.210  34.425   5.458
 5945POPC   GL174461   2.152  34.260   5.854
 5945POPC   GL274462   1.980  34.573   5.954
 5945POPC   C1A74463   2.197  34.140   6.285
 5945POPC   D2A74464   2.094  34.397   6.645
 5945POPC   C3A74465   2.206  34.242   7.059
 5945POPC   C4A74466   2.051  34.116   7.455
 5945POPC   C1B74467   2.064  34.839   6.326
 5945POPC   C2B74468   1.837  34.845   6.703
 5945POPC   C3B74469   1.779  34.578   7.074
 5945POPC   C4B74470   1.990  34.634   7.468
 5946POPC   NC374471   9.224  12.788   5.338
 5946POPC   PO474472   8.662  13.045   5.215
 5946POPC   GL174473   8.879  13.111   5.655
 5946POPC   GL274474   9.244  13.172   5.745
 5946POPC   C1A74475   8.864  13.095   6.139
 5946POPC   D2A74476   8.876  12.845   6.536
 5946POPC   C3A74477   8.878  12.999   6.978
 5946POPC   C4A74478   8.867  12.650   7.264
 5946POPC   C1B74479   9.351  13.311   6.174
 5946POPC   C2B74480   9.221  13.239   6.630
 5946POPC   C3B74481   9.299  13.298   7.081
 5946POPC   C4B74482   9.393  12.998   7.414
 5947POPC   NC374483  17.503  13.157   5.480
 5947POPC   PO474484  17.710  12.543   5.235
 5947POPC   GL174485  17.722  12.772   5.690
 5947POPC   GL274486  17.330  12.844   5.845
 5947POPC   C1A74487  17.716  12.818   6.157
 5947POPC   D2A74488  17.358  12.643   6.402
 5947POPC   C3A74489  17.403  12.728   6.833
 5947POPC   C4A74490  17.758  12.665   7.135
 5947POPC   C1B74491  17.312  13.133   6.226
 5947POPC   C2B74492  17.627  13.117   6.586
 5947POPC   C3B74493  17.551  13.174   7.035
 5947POPC   C4B74494  17.777  13.145   7.391
 5948POPC   NC374495  44.211  23.022   5.484
 5948POPC   PO474496  44.841  23.377   5.332
 5948POPC   GL174497  44.725  23.193   5.807
 5948POPC   GL274498  44.456  22.901   5.904
 5948POPC   C1A74499  44.502  23.279   6.248
 5948POPC   D2A74500  44.517  23.005   6.643
 5948POPC   C3A74501  44.742  22.987   7.019
 5948POPC   C4A74502  44.625  23.022   7.427
 5948POPC   C1B74503  44.215  22.781   6.298
 5948POPC   C2B74504  44.234  22.575   6.737
 5948POPC   C3B74505  44.488  22.547   7.153
 5948POPC   C4B74506  44.363  22.644   7.606
 5949POPC   NC374507  25.083  29.074   5.389
 5949POPC   PO474508  24.422  29.075   5.495
 5949POPC   GL174509  24.460  29.351   5.809
 5949POPC   GL274510  24.827  29.400   5.820
 5949POPC   C1A74511  24.433  29.419   6.235
 5949POPC   D2A74512  24.721  29.387   6.575
 5949POPC   C3A74513  24.531  29.184   6.890
 5949POPC   C4A74514  24.484  29.333   7.259
 5949POPC   C1B74515  24.909  29.118   6.170
 5949POPC   C2B74516  24.721  28.862   6.510
 5949POPC   C3B74517  24.810  28.766   6.928
 5949POPC   C4B74518  24.757  28.913   7.335
 5950POPC   NC374519  11.969   9.734   5.605
 5950POPC   PO474520  11.332   9.791   5.380
 5950POPC   GL174521  11.493   9.924   5.756
 5950POPC   GL274522  11.539   9.587   5.865
 5950POPC   C1A74523  11.572   9.959   6.210
 5950POPC   D2A74524  11.317  10.031   6.567
 5950POPC   C3A74525  11.464   9.977   6.989
 5950POPC   C4A74526  11.260   9.796   7.359
 5950POPC   C1B74527  11.353   9.491   6.245
 5950POPC   C2B74528  11.531   9.548   6.649
 5950POPC   C3B74529  11.288   9.484   6.963
 5950POPC   C4B74530  11.344   9.292   7.329
 5951POPC   NC374531  24.243  10.283   5.617
 5951POPC   PO474532  24.599  10.687   5.149
 5951POPC   GL174533  24.602  10.617   5.674
 5951POPC   GL274534  24.725  10.312   5.800
 5951POPC   C1A74535  24.436  10.629   6.137
 5951POPC   D2A74536  24.619  10.645   6.546
 5951POPC   C3A74537  24.354  10.811   6.864
 5951POPC   C4A74538  24.328  10.570   7.207
 5951POPC   C1B74539  24.618  10.141   6.203
 5951POPC   C2B74540  24.571  10.098   6.608
 5951POPC   C3B74541  24.657  10.307   6.944
 5951POPC   C4B74542  24.710  10.218   7.356
 5952POPC   NC374543   6.379  35.399   5.409
 5952POPC   PO474544   5.681  35.333   5.343
 5952POPC   GL174545   5.752  35.218   5.775
 5952POPC   GL274546   6.002  35.436   5.760
 5952POPC   C1A74547   5.634  35.314   6.189
 5952POPC   D2A74548   5.517  35.101   6.578
 5952POPC   C3A74549   5.677  35.117   7.007
 5952POPC   C4A74550   5.463  35.119   7.433
 5952POPC   C1B74551   6.147  35.282   6.141
 5952POPC   C2B74552   6.012  35.353   6.558
 5952POPC   C3B74553   6.136  35.330   6.974
 5952POPC   C4B74554   6.125  35.596   7.328
 5953POPC   NC374555  37.275  16.479   5.092
 5953POPC   PO474556  36.641  16.636   5.405
 5953POPC   GL174557  36.700  16.671   5.847
 5953POPC   GL274558  36.510  16.955   5.961
 5953POPC   C1A74559  36.916  16.730   6.274
 5953POPC   D2A74560  37.187  16.556   6.628
 5953POPC   C3A74561  36.964  16.601   7.035
 5953POPC   C4A74562  37.000  16.846   7.394
 5953POPC   C1B74563  36.596  17.125   6.367
 5953POPC   C2B74564  36.701  16.950   6.763
 5953POPC   C3B74565  36.527  16.905   7.189
 5953POPC   C4B74566  36.566  16.882   7.642
 5954POPC   NC374567   8.151  37.910   5.650
 5954POPC   PO474568   7.696  37.381   5.441
 5954POPC   GL174569   7.922  37.455   5.841
 5954POPC   GL274570   8.285  37.479   5.876
 5954POPC   C1A74571   7.918  37.592   6.300
 5954POPC   D2A74572   7.879  37.925   6.654
 5954POPC   C3A74573   8.125  37.815   7.015
 5954POPC   C4A74574   8.207  37.644   7.443
 5954POPC   C1B74575   8.489  37.643   6.249
 5954POPC   C2B74576   8.509  37.656   6.681
 5954POPC   C3B74577   8.325  37.364   6.967
 5954POPC   C4B74578   7.981  37.247   7.252
 5955POPC   NC374579   3.716  10.447   5.464
 5955POPC   PO474580   3.659  11.054   5.277
 5955POPC   GL174581   3.532  10.809   5.740
 5955POPC   GL274582   3.283  10.491   5.709
 5955POPC   C1A74583   3.351  10.711   6.152
 5955POPC   D2A74584   3.473  10.591   6.541
 5955POPC   C3A74585   3.227  10.743   6.856
 5955POPC   C4A74586   3.386  10.710   7.257
 5955POPC   C1B74587   3.520  10.228   6.058
 5955POPC   C2B74588   3.568  10.061   6.494
 5955POPC   C3B74589   3.619  10.244   6.918
 5955POPC   C4B74590   3.446  10.197   7.328
 5956POPC   NC374591   6.060  19.506   5.454
 5956POPC   PO474592   6.104  18.795   5.602
 5956POPC   GL174593   5.862  19.068   5.907
 5956POPC   GL274594   5.688  19.365   5.790
 5956POPC   C1A74595   5.550  18.970   6.267
 5956POPC   D2A74596   5.527  18.678   6.590
 5956POPC   C3A74597   5.809  18.753   6.911
 5956POPC   C4A74598   5.810  19.049   7.212
 5956POPC   C1B74599   5.751  19.429   6.233
 5956POPC   C2B74600   5.809  19.234   6.656
 5956POPC   C3B74601   6.142  19.295   6.941
 5956POPC   C4B74602   6.242  19.281   7.356
 5957POPC   NC374603  16.352   6.459   5.451
 5957POPC   PO474604  15.976   6.953   5.446
 5957POPC   GL174605  16.042   6.715   5.802
 5957POPC   GL274606  15.682   6.637   5.792
 5957POPC   C1A74607  16.211   6.801   6.229
 5957POPC   D2A74608  16.123   7.073   6.583
 5957POPC   C3A74609  16.049   6.908   6.978
 5957POPC   C4A74610  15.664   6.879   7.208
 5957POPC   C1B74611  15.709   6.698   6.259
 5957POPC   C2B74612  15.690   6.643   6.725
 5957POPC   C3B74613  15.801   6.397   7.116
 5957POPC   C4B74614  16.045   6.370   7.488
 5958POPC   NC374615  28.447  18.911   5.352
 5958POPC   PO474616  28.417  19.601   5.550
 5958POPC   GL174617  28.476  19.219   5.764
 5958POPC   GL274618  28.167  19.016   5.770
 5958POPC   C1A74619  28.556  18.936   6.135
 5958POPC   D2A74620  28.372  18.967   6.584
 5958POPC   C3A74621  28.283  18.713   6.969
 5958POPC   C4A74622  28.351  18.864   7.405
 5958POPC   C1B74623  28.152  19.257   6.173
 5958POPC   C2B74624  27.888  19.246   6.547
 5958POPC   C3B74625  27.998  19.134   6.973
 5958POPC   C4B74626  28.321  19.368   7.173
 5959POPC   NC374627  44.206  11.715   5.647
 5959POPC   PO474628  44.656  11.249   5.361
 5959POPC   GL174629  44.558  11.297   5.767
 5959POPC   GL274630  44.755  11.578   5.840
 5959POPC   C1A74631  44.454  11.104   6.158
 5959POPC   D2A74632  44.588  10.930   6.557
 5959POPC   C3A74633  44.407  11.049   6.944
 5959POPC   C4A74634  44.666  11.047   7.269
 5959POPC   C1B74635  44.536  11.641   6.222
 5959POPC   C2B74636  44.487  11.460   6.632
 5959POPC   C3B74637  44.606  11.512   7.062
 5959POPC   C4B74638  44.333  11.400   7.435
 5960POPC   NC374639  21.350  42.543   5.397
 5960POPC   PO474640  21.030  41.959   5.510
 5960POPC   GL174641  21.233  42.243   5.820
 5960POPC   GL274642  21.594  42.353   5.792
 5960POPC   C1A74643  21.396  42.262   6.245
 5960POPC   D2A74644  21.397  41.985   6.568
 5960POPC   C3A74645  21.379  42.303   6.846
 5960POPC   C4A74646  21.372  42.234   7.247
 5960POPC   C1B74647  21.745  42.630   6.085
 5960POPC   C2B74648  21.597  42.682   6.512
 5960POPC   C3B74649  21.764  42.682   6.929
 5960POPC   C4B74650  21.625  42.655   7.357
 5961POPC   NC374651  29.743  23.416   5.417
 5961POPC   PO474652  29.349  23.979   5.459
 5961POPC   GL174653  29.291  23.587   5.713
 5961POPC   GL274654  29.580  23.481   5.894
 5961POPC   C1A74655  29.061  23.463   6.096
 5961POPC   D2A74656  28.946  23.519   6.538
 5961POPC   C3A74657  29.218  23.539   6.900
 5961POPC   C4A74658  29.168  23.753   7.297
 5961POPC   C1B74659  29.461  23.805   6.169
 5961POPC   C2B74660  29.281  23.925   6.551
 5961POPC   C3B74661  29.438  24.014   6.939
 5961POPC   C4B74662  29.647  23.725   7.152
 5962POPC   NC374663   6.598  10.874   5.417
 5962POPC   PO474664   6.383  10.161   5.463
 5962POPC   GL174665   6.504  10.382   5.825
 5962POPC   GL274666   6.796  10.558   5.833
 5962POPC   C1A74667   6.645  10.314   6.249
 5962POPC   D2A74668   6.536  10.209   6.655
 5962POPC   C3A74669   6.320  10.435   6.962
 5962POPC   C4A74670   6.610  10.286   7.219
 5962POPC   C1B74671   6.630  10.847   6.155
 5962POPC   C2B74672   6.539  10.723   6.587
 5962POPC   C3B74673   6.708  10.761   7.011
 5962POPC   C4B74674   6.634  10.744   7.470
 5963POPC   NC374675   7.405  37.784   5.477
 5963POPC   PO474676   7.797  38.099   5.873
 5963POPC   GL174677   7.466  37.822   5.990
 5963POPC   GL274678   7.392  37.458   5.873
 5963POPC   C1A74679   7.428  37.811   6.413
 5963POPC   D2A74680   7.343  37.694   6.780
 5963POPC   C3A74681   7.668  37.560   6.979
 5963POPC   C4A74682   7.748  37.795   7.349
 5963POPC   C1B74683   7.085  37.497   6.210
 5963POPC   C2B74684   6.955  37.343   6.605
 5963POPC   C3B74685   7.095  37.347   7.048
 5963POPC   C4B74686   6.982  37.286   7.476
 5964POPC   NC374687  19.346   9.862   5.549
 5964POPC   PO474688  18.763   9.673   5.465
 5964POPC   GL174689  18.866   9.484   5.859
 5964POPC   GL274690  19.234   9.437   5.865
 5964POPC   C1A74691  18.887   9.580   6.309
 5964POPC   D2A74692  18.879   9.911   6.599
 5964POPC   C3A74693  18.922   9.688   6.956
 5964POPC   C4A74694  18.905   9.333   7.239
 5964POPC   C1B74695  19.387   9.668   6.209
 5964POPC   C2B74696  19.313   9.611   6.635
 5964POPC   C3B74697  19.400   9.863   6.957
 5964POPC   C4B74698  19.672   9.942   7.230
 5965POPC   NC374699  29.464   2.680   5.575
 5965POPC   PO474700  28.924   2.968   5.450
 5965POPC   GL174701  29.061   2.816   5.840
 5965POPC   GL274702  28.814   2.584   5.822
 5965POPC   C1A74703  29.255   2.926   6.254
 5965POPC   D2A74704  29.103   3.104   6.656
 5965POPC   C3A74705  29.238   2.824   6.984
 5965POPC   C4A74706  29.369   2.864   7.408
 5965POPC   C1B74707  28.745   2.795   6.225
 5965POPC   C2B74708  28.895   2.608   6.603
 5965POPC   C3B74709  28.852   2.482   7.015
 5965POPC   C4B74710  28.881   2.652   7.412
 5966POPC   NC374711  15.610  41.157   5.301
 5966POPC   PO474712  16.074  40.691   5.281
 5966POPC   GL174713  15.901  40.670   5.747
 5966POPC   GL274714  16.183  40.420   5.852
 5966POPC   C1A74715  15.719  40.915   6.163
 5966POPC   D2A74716  15.916  41.107   6.568
 5966POPC   C3A74717  15.809  41.069   7.009
 5966POPC   C4A74718  15.681  40.805   7.374
 5966POPC   C1B74719  15.917  40.467   6.216
 5966POPC   C2B74720  15.686  40.601   6.595
 5966POPC   C3B74721  15.911  40.560   6.984
 5966POPC   C4B74722  16.050  40.410   7.377
 5967POPC   NC374723   2.542  17.542   5.544
 5967POPC   PO474724   3.182  17.665   5.590
 5967POPC   GL174725   2.923  17.574   5.913
 5967POPC   GL274726   2.896  17.244   5.879
 5967POPC   C1A74727   2.693  17.637   6.309
 5967POPC   D2A74728   2.686  17.406   6.712
 5967POPC   C3A74729   2.771  17.658   7.087
 5967POPC   C4A74730   2.565  17.740   7.505
 5967POPC   C1B74731   2.710  17.130   6.251
 5967POPC   C2B74732   2.425  16.962   6.558
 5967POPC   C3B74733   2.326  17.071   6.975
 5967POPC   C4B74734   2.607  17.229   7.293
 5968POPC   NC374735   5.735  13.932   5.202
 5968POPC   PO474736   5.468  13.399   5.548
 5968POPC   GL174737   5.874  13.415   5.872
 5968POPC   GL274738   5.999  13.786   6.001
 5968POPC   C1A74739   6.093  13.406   6.295
 5968POPC   D2A74740   5.819  13.638   6.589
 5968POPC   C3A74741   5.795  13.543   7.023
 5968POPC   C4A74742   5.436  13.699   7.238
 5968POPC   C1B74743   6.269  13.875   6.395
 5968POPC   C2B74744   6.282  13.683   6.799
 5968POPC   C3B74745   6.189  13.857   7.200
 5968POPC   C4B74746   6.362  13.890   7.664
 5969POPC   NC374747   2.950  29.048   5.462
 5969POPC   PO474748   2.294  29.150   5.443
 5969POPC   GL174749   2.573  29.219   5.778
 5969POPC   GL274750   2.586  28.866   5.815
 5969POPC   C1A74751   2.730  29.343   6.194
 5969POPC   D2A74752   2.687  29.129   6.585
 5969POPC   C3A74753   2.756  29.334   6.992
 5969POPC   C4A74754   2.608  29.300   7.418
 5969POPC   C1B74755   2.920  28.853   6.100
 5969POPC   C2B74756   3.106  28.856   6.507
 5969POPC   C3B74757   2.952  28.828   6.905
 5969POPC   C4B74758   2.929  28.902   7.324
 5970POPC   NC374759  33.395  35.459   5.384
 5970POPC   PO474760  32.913  34.949   5.429
 5970POPC   GL174761  33.088  35.208   5.742
 5970POPC   GL274762  32.812  35.461   5.790
 5970POPC   C1A74763  33.181  35.384   6.156
 5970POPC   D2A74764  33.009  35.582   6.514
 5970POPC   C3A74765  33.174  35.536   6.919
 5970POPC   C4A74766  33.271  35.182   7.180
 5970POPC   C1B74767  32.687  35.237   6.170
 5970POPC   C2B74768  32.899  35.084   6.543
 5970POPC   C3B74769  32.810  35.154   6.935
 5970POPC   C4B74770  32.744  35.477   7.205
 5971POPC   NC374771  41.999  28.505   5.509
 5971POPC   PO474772  41.419  28.522   5.120
 5971POPC   GL174773  41.476  28.453   5.621
 5971POPC   GL274774  41.642  28.688   5.822
 5971POPC   C1A74775  41.562  28.297   6.115
 5971POPC   D2A74776  41.575  28.054   6.533
 5971POPC   C3A74777  41.498  28.288   6.909
 5971POPC   C4A74778  41.521  28.214   7.333
 5971POPC   C1B74779  41.527  28.811   6.249
 5971POPC   C2B74780  41.479  28.764   6.702
 5971POPC   C3B74781  41.337  28.738   7.137
 5971POPC   C4B74782  41.151  28.515   7.490
 5972POPC   NC374783  22.555  40.823   5.306
 5972POPC   PO474784  23.088  40.502   5.320
 5972POPC   GL174785  23.033  40.593   5.748
 5972POPC   GL274786  22.753  40.771   5.779
 5972POPC   C1A74787  23.261  40.469   6.125
 5972POPC   D2A74788  23.478  40.604   6.484
 5972POPC   C3A74789  23.325  40.597   6.887
 5972POPC   C4A74790  23.142  40.707   7.253
 5972POPC   C1B74791  22.891  40.838   6.194
 5972POPC   C2B74792  22.999  40.893   6.621
 5972POPC   C3B74793  22.767  40.944   6.992
 5972POPC   C4B74794  22.674  41.131   7.362
 5973POPC   NC374795  26.960   4.589   5.344
 5973POPC   PO474796  27.147   4.036   5.508
 5973POPC   GL174797  26.940   4.284   5.791
 5973POPC   GL274798  27.230   4.508   5.763
 5973POPC   C1A74799  26.755   4.266   6.216
 5973POPC   D2A74800  26.904   4.114   6.620
 5973POPC   C3A74801  26.680   4.128   7.013
 5973POPC   C4A74802  26.517   4.253   7.449
 5973POPC   C1B74803  27.090   4.654   6.152
 5973POPC   C2B74804  26.911   4.686   6.553
 5973POPC   C3B74805  26.997   4.526   6.939
 5973POPC   C4B74806  26.777   4.648   7.287
 5974POPC   NC374807  16.949  23.569   5.247
 5974POPC   PO474808  16.609  24.010   5.532
 5974POPC   GL174809  16.569  23.656   5.758
 5974POPC   GL274810  16.837  23.403   5.734
 5974POPC   C1A74811  16.557  23.697   6.186
 5974POPC   D2A74812  16.410  23.816   6.598
 5974POPC   C3A74813  16.691  23.726   6.933
 5974POPC   C4A74814  16.614  23.471   7.279
 5974POPC   C1B74815  17.044  23.707   6.019
 5974POPC   C2B74816  16.977  23.727   6.472
 5974POPC   C3B74817  17.184  23.575   6.833
 5974POPC   C4B74818  17.095  23.285   7.174
 5975POPC   NC374819  41.771  41.743   5.365
 5975POPC   PO474820  41.070  41.713   5.309
 5975POPC   GL174821  41.298  41.628   5.754
 5975POPC   GL274822  41.527  41.903   5.830
 5975POPC   C1A74823  41.222  41.733   6.227
 5975POPC   D2A74824  41.063  41.653   6.676
 5975POPC   C3A74825  41.335  41.688   7.087
 5975POPC   C4A74826  41.244  41.534   7.528
 5975POPC   C1B74827  41.715  41.931   6.260
 5975POPC   C2B74828  41.910  41.734   6.623
 5975POPC   C3B74829  41.928  41.791   7.067
 5975POPC   C4B74830  41.724  41.713   7.484
 5976POPC   NC374831  10.395  18.789   5.423
 5976POPC   PO474832  10.648  19.365   5.287
 5976POPC   GL174833  10.513  19.257   5.729
 5976POPC   GL274834  10.513  18.929   5.917
 5976POPC   C1A74835  10.626  19.331   6.190
 5976POPC   D2A74836  10.612  19.015   6.549
 5976POPC   C3A74837  10.815  19.196   6.917
 5976POPC   C4A74838  10.758  19.345   7.346
 5976POPC   C1B74839  10.206  18.823   6.261
 5976POPC   C2B74840  10.125  18.828   6.697
 5976POPC   C3B74841  10.260  18.668   7.048
 5976POPC   C4B74842  10.533  18.907   7.229
 5977POPC   NC374843  32.874  26.771   5.236
 5977POPC   PO474844  32.889  26.071   5.465
 5977POPC   GL174845  33.077  25.872   5.817
 5977POPC   GL274846  33.194  26.182   5.916
 5977POPC   C1A74847  33.251  25.787   6.251
 5977POPC   D2A74848  33.343  26.053   6.649
 5977POPC   C3A74849  33.203  25.928   7.050
 5977POPC   C4A74850  32.818  25.797   7.151
 5977POPC   C1B74851  33.016  26.261   6.293
 5977POPC   C2B74852  33.071  26.528   6.635
 5977POPC   C3B74853  33.246  26.434   7.003
 5977POPC   C4B74854  32.863  26.301   7.158
 5978POPC   NC374855  39.630  24.524   5.176
 5978POPC   PO474856  39.058  24.321   5.496
 5978POPC   GL174857  39.068  24.560   5.899
 5978POPC   GL274858  38.790  24.824   5.997
 5978POPC   C1A74859  39.315  24.513   6.260
 5978POPC   D2A74860  39.332  24.601   6.684
 5978POPC   C3A74861  39.237  24.298   7.009
 5978POPC   C4A74862  38.954  24.342   7.330
 5978POPC   C1B74863  38.941  24.870   6.389
 5978POPC   C2B74864  38.954  24.936   6.804
 5978POPC   C3B74865  39.150  24.780   7.155
 5978POPC   C4B74866  39.222  24.728   7.610
 5979POPC   NC374867  19.899  27.023   5.247
 5979POPC   PO474868  19.470  26.729   5.067
 5979POPC   GL174869  19.566  26.888   5.596
 5979POPC   GL274870  19.904  26.744   5.680
 5979POPC   C1A74871  19.714  27.044   6.058
 5979POPC   D2A74872  19.683  26.905   6.514
 5979POPC   C3A74873  19.613  27.136   6.913
 5979POPC   C4A74874  19.787  27.019   7.336
 5979POPC   C1B74875  19.989  26.618   6.115
 5979POPC   C2B74876  19.961  26.469   6.531
 5979POPC   C3B74877  20.058  26.534   6.936
 5979POPC   C4B74878  19.893  26.511   7.364
 5980POPC   NC374879  34.983  18.436   5.480
 5980POPC   PO474880  35.558  18.717   5.225
 5980POPC   GL174881  35.573  18.572   5.748
 5980POPC   GL274882  35.343  18.295   5.803
 5980POPC   C1A74883  35.405  18.542   6.234
 5980POPC   D2A74884  35.258  18.328   6.597
 5980POPC   C3A74885  35.445  18.369   7.005
 5980POPC   C4A74886  35.438  18.551   7.448
 5980POPC   C1B74887  35.387  18.027   6.180
 5980POPC   C2B74888  35.190  17.837   6.567
 5980POPC   C3B74889  35.273  17.894   6.975
 5980POPC   C4B74890  35.342  18.066   7.403
 5981POPC   NC374891  17.804   5.338   5.426
 5981POPC   PO474892  17.319   5.899   5.386
 5981POPC   GL174893  17.540   5.897   5.780
 5981POPC   GL274894  17.507   5.529   5.808
 5981POPC   C1A74895  17.415   5.989   6.213
 5981POPC   D2A74896  17.173   5.934   6.605
 5981POPC   C3A74897  17.379   6.100   6.975
 5981POPC   C4A74898  17.697   6.035   7.228
 5981POPC   C1B74899  17.712   5.564   6.202
 5981POPC   C2B74900  17.642   5.739   6.627
 5981POPC   C3B74901  17.577   5.576   7.039
 5981POPC   C4B74902  17.870   5.603   7.408
 5982POPC   NC374903  34.097  32.313   5.501
 5982POPC   PO474904  34.660  31.973   5.532
 5982POPC   GL174905  34.560  32.332   5.819
 5982POPC   GL274906  34.623  32.065   6.058
 5982POPC   C1A74907  34.364  32.452   6.252
 5982POPC   D2A74908  34.566  32.207   6.596
 5982POPC   C3A74909  34.563  32.387   7.026
 5982POPC   C4A74910  34.453  32.422   7.449
 5982POPC   C1B74911  34.973  31.852   6.227
 5982POPC   C2B74912  35.072  32.007   6.613
 5982POPC   C3B74913  34.835  31.952   6.964
 5982POPC   C4B74914  34.749  31.952   7.401
 5983POPC   NC374915  38.773  16.068   5.373
 5983POPC   PO474916  38.082  16.259   5.289
 5983POPC   GL174917  38.236  16.245   5.697
 5983POPC   GL274918  37.863  16.275   5.785
 5983POPC   C1A74919  38.536  16.053   6.032
 5983POPC   D2A74920  38.520  15.702   6.342
 5983POPC   C3A74921  38.558  15.734   6.805
 5983POPC   C4A74922  38.593  15.559   7.223
 5983POPC   C1B74923  38.043  16.124   6.162
 5983POPC   C2B74924  38.314  16.176   6.497
 5983POPC   C3B74925  38.174  16.145   6.899
 5983POPC   C4B74926  38.424  16.045   7.238
 5984POPC   NC374927  25.073   7.831   5.487
 5984POPC   PO474928  25.328   7.186   5.524
 5984POPC   GL174929  25.452   7.364   5.885
 5984POPC   GL274930  25.141   7.564   5.957
 5984POPC   C1A74931  25.427   7.277   6.305
 5984POPC   D2A74932  25.240   7.606   6.555
 5984POPC   C3A74933  25.442   7.642   6.961
 5984POPC   C4A74934  25.454   7.454   7.394
 5984POPC   C1B74935  24.938   7.225   6.219
 5984POPC   C2B74936  25.071   7.118   6.661
 5984POPC   C3B74937  24.997   7.371   7.020
 5984POPC   C4B74938  24.983   7.274   7.450
 5985POPC   NC374939  23.458  44.323   5.188
 5985POPC   PO474940  23.914  44.889   5.342
 5985POPC   GL174941  23.713  44.935   5.791
 5985POPC   GL274942  23.551  44.627   5.801
 5985POPC   C1A74943  23.481  44.897   6.239
 5985POPC   D2A74944  23.332   0.132   6.583
 5985POPC   C3A74945  23.451  44.943   7.000
 5985POPC   C4A74946  23.724  44.860   7.351
 5985POPC   C1B74947  23.893  44.625   6.171
 5985POPC   C2B74948  23.783  44.728   6.620
 5985POPC   C3B74949  23.822  44.523   7.004
 5985POPC   C4B74950  23.619  44.377   7.412
 5986POPC   NC374951   3.711  12.179   5.224
 5986POPC   PO474952   3.187  11.731   5.307
 5986POPC   GL174953   3.274  11.832   5.805
 5986POPC   GL274954   3.513  12.128   5.829
 5986POPC   C1A74955   3.306  12.041   6.274
 5986POPC   D2A74956   3.298  12.351   6.604
 5986POPC   C3A74957   3.374  12.168   7.024
 5986POPC   C4A74958   3.621  12.093   7.434
 5986POPC   C1B74959   3.802  11.947   6.191
 5986POPC   C2B74960   3.709  12.042   6.608
 5986POPC   C3B74961   3.873  12.092   6.999
 5986POPC   C4B74962   3.978  12.440   7.311
 5987POPC   NC374963  26.851  17.836   4.864
 5987POPC   PO474964  26.933  17.588   5.486
 5987POPC   GL174965  26.780  17.676   5.922
 5987POPC   GL274966  26.551  17.963   5.855
 5987POPC   C1A74967  26.851  17.526   6.391
 5987POPC   D2A74968  26.852  17.614   6.859
 5987POPC   C3A74969  26.985  17.281   7.152
 5987POPC   C4A74970  27.111  16.963   7.450
 5987POPC   C1B74971  26.612  17.970   6.308
 5987POPC   C2B74972  26.426  17.880   6.708
 5987POPC   C3B74973  26.440  17.733   7.123
 5987POPC   C4B74974  26.755  17.672   7.417
 5988POPC   NC374975  12.380  21.884   5.503
 5988POPC   PO474976  12.889  22.334   5.676
 5988POPC   GL174977  12.794  22.187   6.040
 5988POPC   GL274978  12.474  22.149   5.926
 5988POPC   C1A74979  12.918  22.127   6.455
 5988POPC   D2A74980  13.249  22.182   6.740
 5988POPC   C3A74981  13.087  22.469   7.006
 5988POPC   C4A74982  12.660  22.414   7.058
 5988POPC   C1B74983  12.499  21.778   6.193
 5988POPC   C2B74984  12.710  21.669   6.572
 5988POPC   C3B74985  12.836  21.922   6.920
 5988POPC   C4B74986  12.464  21.957   7.162
 5989POPC   NC374987  15.153  39.632   5.409
 5989POPC   PO474988  15.458  40.215   5.523
 5989POPC   GL174989  15.242  39.975   5.823
 5989POPC   GL274990  15.478  39.698   5.838
 5989POPC   C1A74991  15.055  39.967   6.238
 5989POPC   D2A74992  14.854  40.195   6.581
 5989POPC   C3A74993  14.880  40.274   7.010
 5989POPC   C4A74994  14.998  40.348   7.431
 5989POPC   C1B74995  15.519  39.718   6.302
 5989POPC   C2B74996  15.195  39.597   6.597
 5989POPC   C3B74997  15.045  39.806   6.938
 5989POPC   C4B74998  15.288  39.985   7.243
 5990POPC   NC374999  29.559  26.974   5.286
 5990POPC   PO475000  30.066  26.711   5.367
 5990POPC   GL175001  29.909  26.725   5.782
 5990POPC   GL275002  29.628  26.959   5.805
 5990POPC   C1A75003  30.045  26.451   6.169
 5990POPC   D2A75004  30.154  26.308   6.627
 5990POPC   C3A75005  29.961  26.477   7.018
 5990POPC   C4A75006  30.043  26.728   7.423
 5990POPC   C1B75007  29.826  26.950   6.261
 5990POPC   C2B75008  29.958  26.903   6.726
 5990POPC   C3B75009  29.691  26.930   7.120
 5990POPC   C4B75010  29.314  27.090   7.323
 5991POPC   NC375011   7.901  30.943   5.476
 5991POPC   PO475012   8.069  30.491   5.188
 5991POPC   GL175013   8.186  30.559   5.696
 5991POPC   GL275014   8.129  30.862   5.905
 5991POPC   C1A75015   8.097  30.469   6.182
 5991POPC   D2A75016   8.090  30.799   6.508
 5991POPC   C3A75017   8.037  30.691   6.941
 5991POPC   C4A75018   8.156  30.684   7.392
 5991POPC   C1B75019   8.488  30.810   6.151
 5991POPC   C2B75020   8.576  30.979   6.534
 5991POPC   C3B75021   8.376  31.102   6.890
 5991POPC   C4B75022   8.553  30.776   7.113
 5992POPC   NC375023   0.428  27.305   5.172
 5992POPC   PO475024   0.552  26.716   5.452
 5992POPC   GL175025   0.377  26.858   5.824
 5992POPC   GL275026   0.613  27.120   5.833
 5992POPC   C1A75027   0.238  26.643   6.208
 5992POPC   D2A75028   0.036  26.603   6.631
 5992POPC   C3A75029   0.371  26.748   6.912
 5992POPC   C4A75030   0.457  26.674   7.320
 5992POPC   C1B75031   0.793  27.190   6.234
 5992POPC   C2B75032   0.765  27.238   6.674
 5992POPC   C3B75033   0.759  27.054   7.111
 5992POPC   C4B75034   0.663  27.076   7.577
 5993POPC   NC375035  34.162  33.184   5.502
 5993POPC   PO475036  33.661  32.581   5.325
 5993POPC   GL175037  33.738  32.925   5.668
 5993POPC   GL275038  33.497  32.994   5.858
 5993POPC   C1A75039  33.924  33.098   6.113
 5993POPC   D2A75040  34.232  32.995   6.460
 5993POPC   C3A75041  34.047  33.086   6.883
 5993POPC   C4A75042  33.680  33.045   7.147
 5993POPC   C1B75043  33.365  32.832   6.270
 5993POPC   C2B75044  33.452  32.829   6.712
 5993POPC   C3B75045  33.526  32.551   7.017
 5993POPC   C4B75046  33.549  32.515   7.443
 5994POPC   NC375047  39.371  26.396   5.497
 5994POPC   PO475048  39.502  27.141   5.455
 5994POPC   GL175049  39.426  26.843   5.763
 5994POPC   GL275050  39.079  26.697   5.824
 5994POPC   C1A75051  39.520  26.804   6.178
 5994POPC   D2A75052  39.282  26.703   6.515
 5994POPC   C3A75053  39.312  26.724   6.964
 5994POPC   C4A75054  39.415  27.032   7.275
 5994POPC   C1B75055  38.866  26.880   6.206
 5994POPC   C2B75056  38.933  27.068   6.625
 5994POPC   C3B75057  38.828  26.901   7.049
 5994POPC   C4B75058  38.922  27.104   7.452
 5995POPC   NC375059   5.763  36.595   5.360
 5995POPC   PO475060   6.135  37.120   5.523
 5995POPC   GL175061   5.995  36.777   5.821
 5995POPC   GL275062   5.612  36.699   5.815
 5995POPC   C1A75063   6.142  36.811   6.258
 5995POPC   D2A75064   5.935  36.927   6.619
 5995POPC   C3A75065   6.157  36.931   6.968
 5995POPC   C4A75066   5.917  36.814   7.255
 5995POPC   C1B75067   5.601  36.851   6.193
 5995POPC   C2B75068   5.507  36.637   6.539
 5995POPC   C3B75069   5.498  36.812   6.935
 5995POPC   C4B75070   5.557  37.194   7.183
 5996POPC   NC375071  31.592  24.877   5.190
 5996POPC   PO475072  31.719  24.170   5.377
 5996POPC   GL175073  31.560  24.582   5.628
 5996POPC   GL275074  31.195  24.589   5.771
 5996POPC   C1A75075  31.547  24.744   6.075
 5996POPC   D2A75076  31.294  24.626   6.403
 5996POPC   C3A75077  31.431  24.491   6.786
 5996POPC   C4A75078  31.691  24.610   7.153
 5996POPC   C1B75079  30.895  24.751   6.130
 5996POPC   C2B75080  30.883  24.942   6.532
 5996POPC   C3B75081  31.169  24.905   6.871
 5996POPC   C4B75082  31.210  24.729   7.273
 5997POPC   NC375083   1.664   1.394   5.484
 5997POPC   PO475084   1.038   1.218   5.508
 5997POPC   GL175085   1.059   1.489   5.879
 5997POPC   GL275086   1.260   1.225   6.049
 5997POPC   C1A75087   1.001   1.567   6.336
 5997POPC   D2A75088   1.238   1.315   6.601
 5997POPC   C3A75089   1.240   1.185   7.026
 5997POPC   C4A75090   1.300   1.182   7.460
 5997POPC   C1B75091   1.663   1.241   6.335
 5997POPC   C2B75092   1.712   1.285   6.793
 5997POPC   C3B75093   1.701   0.964   7.132
 5997POPC   C4B75094   1.784   0.981   7.566
 5998POPC   NC375095   3.161  28.552   5.169
 5998POPC   PO475096   3.741  28.241   5.151
 5998POPC   GL175097   3.575  28.454   5.602
 5998POPC   GL275098   3.242  28.662   5.683
 5998POPC   C1A75099   3.611  28.313   6.083
 5998POPC   D2A75100   3.848  28.197   6.460
 5998POPC   C3A75101   3.590  28.185   6.827
 5998POPC   C4A75102   3.627  28.146   7.238
 5998POPC   C1B75103   3.425  28.772   6.103
 5998POPC   C2B75104   3.550  28.607   6.536
 5998POPC   C3B75105   3.581  28.689   6.993
 5998POPC   C4B75106   3.229  28.489   7.207
 5999POPC   NC375107  44.657  32.993   5.408
 5999POPC   PO475108   0.260  33.298   5.311
 5999POPC   GL175109   0.018  33.208   5.703
 5999POPC   GL275110   0.040  32.819   5.684
 5999POPC   C1A75111  44.851  33.178   6.151
 5999POPC   D2A75112  44.543  33.022   6.470
 5999POPC   C3A75113  44.571  33.070   6.953
 5999POPC   C4A75114  44.441  32.864   7.320
 5999POPC   C1B75115  44.764  32.670   6.030
 5999POPC   C2B75116  44.756  32.538   6.480
 5999POPC   C3B75117  44.731  32.587   6.950
 5999POPC   C4B75118  44.840  32.574   7.408
 6000POPC   NC375119  12.859  36.603   5.389
 6000POPC   PO475120  13.292  37.136   5.493
 6000POPC   GL175121  13.126  36.837   5.777
 6000POPC   GL275122  12.728  36.833   5.826
 6000POPC   C1A75123  13.047  36.704   6.187
 6000POPC   D2A75124  12.757  36.712   6.507
 6000POPC   C3A75125  12.994  36.816   6.856
 6000POPC   C4A75126  13.105  36.986   7.239
 6000POPC   C1B75127  12.575  36.448   6.086
 6000POPC   C2B75128  12.492  36.238   6.511
 6000POPC   C3B75129  12.638  36.433   6.933
 6000POPC   C4B75130  12.666  36.749   7.242
 6001POPC   NC375131  30.485   0.290   5.366
 6001POPC   PO475132  31.041   0.158   5.444
 6001POPC   GL175133  30.744   0.352   5.841
 6001POPC   GL275134  30.353   0.394   5.901
 6001POPC   C1A75135  30.671   0.478   6.333
 6001POPC   D2A75136  30.700   0.251   6.764
 6001POPC   C3A75137  30.638   0.395   7.186
 6001POPC   C4A75138  30.828   0.787   7.377
 6001POPC   C1B75139  30.214   0.253   6.351
 6001POPC   C2B75140  30.272  44.971   6.715
 6001POPC   C3B75141  30.286  44.890   7.165
 6001POPC   C4B75142  30.397   0.077   7.621
 6002POPC   NC375143   3.455  34.007   5.409
 6002POPC   PO475144   3.712  33.386   5.497
 6002POPC   GL175145   3.587  33.713   5.834
 6002POPC   GL275146   3.277  33.951   5.880
 6002POPC   C1A75147   3.538  33.758   6.298
 6002POPC   D2A75148   3.563  33.997   6.687
 6002POPC   C3A75149   3.694  33.760   7.049
 6002POPC   C4A75150   3.605  33.430   7.337
 6002POPC   C1B75151   3.044  33.657   6.157
 6002POPC   C2B75152   3.152  33.408   6.537
 6002POPC   C3B75153   3.207  33.584   6.975
 6002POPC   C4B75154   3.246  34.035   7.095
 6003POPC   NC375155   9.605  40.829   5.469
 6003POPC   PO475156   9.772  40.296   5.129
 6003POPC   GL175157   9.667  40.389   5.688
 6003POPC   GL275158   9.925  40.386   5.937
 6003POPC   C1A75159   9.591  40.731   6.087
 6003POPC   D2A75160   9.567  40.816   6.543
 6003POPC   C3A75161   9.574  41.135   6.848
 6003POPC   C4A75162   9.499  40.933   7.228
 6003POPC   C1B75163  10.033  40.666   6.282
 6003POPC   C2B75164  10.127  40.681   6.702
 6003POPC   C3B75165   9.984  40.928   7.042
 6003POPC   C4B75166   9.908  41.058   7.488
 6004POPC   NC375167  38.184  14.190   5.477
 6004POPC   PO475168  38.613  14.714   5.273
 6004POPC   GL175169  38.457  14.775   5.732
 6004POPC   GL275170  38.075  14.742   5.801
 6004POPC   C1A75171  38.656  14.767   6.178
 6004POPC   D2A75172  38.759  14.462   6.502
 6004POPC   C3A75173  38.522  14.310   6.840
 6004POPC   C4A75174  38.580  14.209   7.273
 6004POPC   C1B75175  38.179  14.601   6.239
 6004POPC   C2B75176  38.332  14.762   6.647
 6004POPC   C3B75177  38.350  14.707   7.096
 6004POPC   C4B75178  38.123  14.404   7.325
 6005POPC   NC375179  26.092   4.592   5.414
 6005POPC   PO475180  25.858   5.189   5.483
 6005POPC   GL175181  26.088   5.153   5.855
 6005POPC   GL275182  26.211   4.828   5.842
 6005POPC   C1A75183  26.095   5.295   6.286
 6005POPC   D2A75184  25.833   5.429   6.642
 6005POPC   C3A75185  25.884   5.138   6.979
 6005POPC   C4A75186  26.078   5.154   7.364
 6005POPC   C1B75187  25.967   4.770   6.210
 6005POPC   C2B75188  26.071   4.741   6.642
 6005POPC   C3B75189  26.308   4.777   7.018
 6005POPC   C4B75190  25.976   4.683   7.232
 6006POPC   NC375191  15.456   1.237   5.326
 6006POPC   PO475192  14.790   0.957   5.424
 6006POPC   GL175193  15.061   0.970   5.805
 6006POPC   GL275194  15.051   1.293   5.984
 6006POPC   C1A75195  15.300   0.922   6.206
 6006POPC   D2A75196  15.470   0.848   6.622
 6006POPC   C3A75197  15.347   0.992   7.014
 6006POPC   C4A75198  15.450   1.154   7.414
 6006POPC   C1B75199  14.885   1.196   6.352
 6006POPC   C2B75200  15.176   1.307   6.662
 6006POPC   C3B75201  15.107   1.467   7.075
 6006POPC   C4B75202  15.038   1.437   7.523
 6007POPC   NC375203  28.665  26.538   5.384
 6007POPC   PO475204  29.140  26.937   5.065
 6007POPC   GL175205  29.132  26.765   5.512
 6007POPC   GL275206  29.381  26.530   5.634
 6007POPC   C1A75207  29.073  26.786   5.987
 6007POPC   D2A75208  29.195  26.703   6.441
 6007POPC   C3A75209  29.071  26.860   6.858
 6007POPC   C4A75210  28.840  26.894   7.231
 6007POPC   C1B75211  29.532  26.556   6.080
 6007POPC   C2B75212  29.673  26.511   6.499
 6007POPC   C3B75213  29.487  26.569   6.837
 6007POPC   C4B75214  29.321  26.579   7.227
 6008POPC   NC375215  41.239   8.847   5.395
 6008POPC   PO475216  40.646   9.154   5.199
 6008POPC   GL175217  40.812   9.021   5.596
 6008POPC   GL275218  41.003   9.285   5.713
 6008POPC   C1A75219  40.882   8.867   6.032
 6008POPC   D2A75220  41.013   8.851   6.484
 6008POPC   C3A75221  40.734   8.833   6.874
 6008POPC   C4A75222  40.666   8.674   7.297
 6008POPC   C1B75223  41.207   9.283   6.139
 6008POPC   C2B75224  41.296   9.295   6.577
 6008POPC   C3B75225  41.240   9.004   6.920
 6008POPC   C4B75226  40.984   9.074   7.282
 6009POPC   NC375227   9.405   7.506   5.489
 6009POPC   PO475228   9.858   7.943   5.253
 6009POPC   GL175229   9.861   7.603   5.632
 6009POPC   GL275230   9.607   7.826   5.834
 6009POPC   C1A75231   9.896   7.482   6.089
 6009POPC   D2A75232   9.610   7.567   6.440
 6009POPC   C3A75233   9.703   7.428   6.878
 6009POPC   C4A75234   9.575   7.087   7.177
 6009POPC   C1B75235   9.297   7.927   6.152
 6009POPC   C2B75236   9.197   7.856   6.584
 6009POPC   C3B75237   9.319   7.800   7.010
 6009POPC   C4B75238   9.684   7.801   7.248
 6010POPC   NC375239   0.966  15.058   5.436
 6010POPC   PO475240   0.357  15.286   5.156
 6010POPC   GL175241   0.461  15.073   5.607
 6010POPC   GL275242   0.697  15.328   5.766
 6010POPC   C1A75243   0.514  14.967   6.083
 6010POPC   D2A75244   0.452  14.946   6.537
 6010POPC   C3A75245   0.799  14.952   6.880
 6010POPC   C4A75246   0.613  14.737   7.210
 6010POPC   C1B75247   0.631  15.474   6.177
 6010POPC   C2B75248   0.712  15.369   6.576
 6010POPC   C3B75249   0.456  15.306   6.943
 6010POPC   C4B75250   0.501  15.271   7.370
 6011POPC   NC375251  27.871  33.238   5.286
 6011POPC   PO475252  27.617  32.672   5.436
 6011POPC   GL175253  27.623  32.928   5.846
 6011POPC   GL275254  27.274  33.041   5.947
 6011POPC   C1A75255  27.716  32.943   6.324
 6011POPC   D2A75256  27.989  32.993   6.695
 6011POPC   C3A75257  27.709  33.213   6.956
 6011POPC   C4A75258  27.287  33.097   7.082
 6011POPC   C1B75259  27.212  32.719   6.264
 6011POPC   C2B75260  27.461  32.481   6.527
 6011POPC   C3B75261  27.590  32.661   6.921
 6011POPC   C4B75262  27.393  32.599   7.312
 6012POPC   NC375263  40.350  42.665   5.446
 6012POPC   PO475264  40.041  42.130   5.243
 6012POPC   GL175265  40.217  42.210   5.671
 6012POPC   GL275266  39.936  42.392   5.720
 6012POPC   C1A75267  40.247  42.233   6.131
 6012POPC   D2A75268  39.969  42.223   6.476
 6012POPC   C3A75269  40.191  42.330   6.822
 6012POPC   C4A75270  40.085  42.179   7.194
 6012POPC   C1B75271  39.881  42.609   6.094
 6012POPC   C2B75272  39.803  42.706   6.515
 6012POPC   C3B75273  39.786  42.600   6.950
 6012POPC   C4B75274  40.129  42.685   7.224
 6013POPC   NC375275  34.372  10.647   5.435
 6013POPC   PO475276  34.994  10.378   5.430
 6013POPC   GL175277  34.892  10.606   5.797
 6013POPC   GL275278  34.884  10.926   5.682
 6013POPC   C1A75279  34.532  10.581   6.115
 6013POPC   D2A75280  34.382  10.481   6.536
 6013POPC   C3A75281  34.694  10.350   6.840
 6013POPC   C4A75282  34.511  10.256   7.210
 6013POPC   C1B75283  34.691  11.064   6.058
 6013POPC   C2B75284  34.655  10.945   6.479
 6013POPC   C3B75285  34.549  10.839   6.886
 6013POPC   C4B75286  34.624  10.750   7.307
 6014POPC   NC375287   8.786  26.187   4.960
 6014POPC   PO475288   8.886  25.938   5.588
 6014POPC   GL175289   9.121  25.806   5.938
 6014POPC   GL275290   9.276  26.113   5.992
 6014POPC   C1A75291   9.193  25.780   6.361
 6014POPC   D2A75292   9.064  26.028   6.708
 6014POPC   C3A75293   9.167  25.876   7.096
 6014POPC   C4A75294   8.941  25.603   7.354
 6014POPC   C1B75295   8.874  26.178   6.253
 6014POPC   C2B75296   8.713  26.432   6.601
 6014POPC   C3B75297   8.857  26.370   7.027
 6014POPC   C4B75298   8.866  26.148   7.406
 6015POPC   NC375299  26.863  33.381   5.100
 6015POPC   PO475300  26.900  33.934   5.516
 6015POPC   GL175301  26.981  33.903   5.932
 6015POPC   GL275302  27.303  33.703   5.952
 6015POPC   C1A75303  26.638  33.869   6.244
 6015POPC   D2A75304  26.420  34.092   6.582
 6015POPC   C3A75305  26.551  33.900   6.977
 6015POPC   C4A75306  26.883  33.965   7.260
 6015POPC   C1B75307  26.974  33.457   6.209
 6015POPC   C2B75308  26.793  33.533   6.639
 6015POPC   C3B75309  27.025  33.537   7.047
 6015POPC   C4B75310  27.128  33.518   7.508
 6016POPC   NC375311  36.645   7.972   5.436
 6016POPC   PO475312  37.145   8.285   5.154
 6016POPC   GL175313  37.035   8.220   5.668
 6016POPC   GL275314  36.677   8.241   5.855
 6016POPC   C1A75315  37.061   8.135   6.147
 6016POPC   D2A75316  37.277   7.976   6.498
 6016POPC   C3A75317  37.143   7.881   6.930
 6016POPC   C4A75318  37.087   8.203   7.268
 6016POPC   C1B75319  36.661   8.459   6.248
 6016POPC   C2B75320  36.801   8.472   6.656
 6016POPC   C3B75321  36.675   8.191   6.959
 6016POPC   C4B75322  36.575   8.218   7.380
 6017POPC   NC375323  31.793   2.864   5.406
 6017POPC   PO475324  31.216   2.747   5.527
 6017POPC   GL175325  31.477   2.924   5.857
 6017POPC   GL275326  31.786   3.144   5.834
 6017POPC   C1A75327  31.370   2.806   6.277
 6017POPC   D2A75328  31.240   2.626   6.660
 6017POPC   C3A75329  31.439   2.782   7.020
 6017POPC   C4A75330  31.587   2.727   7.440
 6017POPC   C1B75331  31.717   3.307   6.237
 6017POPC   C2B75332  31.590   3.124   6.629
 6017POPC   C3B75333  31.723   3.213   7.054
 6017POPC   C4B75334  31.814   3.172   7.490
 6018POPC   NC375335  43.051  31.301   5.385
 6018POPC   PO475336  43.520  31.748   5.444
 6018POPC   GL175337  43.282  31.580   5.795
 6018POPC   GL275338  43.261  31.229   5.837
 6018POPC   C1A75339  43.072  31.562   6.198
 6018POPC   D2A75340  43.319  31.525   6.587
 6018POPC   C3A75341  43.066  31.596   6.945
 6018POPC   C4A75342  43.116  31.684   7.376
 6018POPC   C1B75343  43.297  31.106   6.266
 6018POPC   C2B75344  42.958  31.164   6.548
 6018POPC   C3B75345  42.890  31.099   6.958
 6018POPC   C4B75346  43.145  31.197   7.303
 6019POPC   NC375347  33.546  38.835   5.435
 6019POPC   PO475348  33.993  39.304   5.190
 6019POPC   GL175349  33.920  39.213   5.667
 6019POPC   GL275350  33.703  39.041   5.880
 6019POPC   C1A75351  33.948  39.448   6.079
 6019POPC   D2A75352  34.064  39.376   6.540
 6019POPC   C3A75353  33.739  39.349   6.841
 6019POPC   C4A75354  33.835  39.505   7.250
 6019POPC   C1B75355  33.692  39.077   6.327
 6019POPC   C2B75356  33.854  38.865   6.673
 6019POPC   C3B75357  33.725  38.882   7.061
 6019POPC   C4B75358  33.453  39.153   7.255
 6020POPC   NC375359   0.890  33.353   5.565
 6020POPC   PO475360   1.078  33.034   4.999
 6020POPC   GL175361   1.209  32.948   5.560
 6020POPC   GL275362   1.230  33.181   5.904
 6020POPC   C1A75363   1.150  32.739   6.070
 6020POPC   D2A75364   1.242  32.996   6.441
 6020POPC   C3A75365   1.250  32.833   6.873
 6020POPC   C4A75366   1.553  32.892   7.194
 6020POPC   C1B75367   1.018  33.421   6.225
 6020POPC   C2B75368   1.126  33.528   6.627
 6020POPC   C3B75369   1.266  33.345   6.990
 6020POPC   C4B75370   0.995  33.167   7.225
 6021POPC   NC375371  22.920  26.975   5.383
 6021POPC   PO475372  23.083  26.278   5.235
 6021POPC   GL175373  23.010  26.583   5.714
 6021POPC   GL275374  23.038  26.951   5.900
 6021POPC   C1A75375  22.695  26.636   6.084
 6021POPC   D2A75376  22.577  26.868   6.486
 6021POPC   C3A75377  22.861  26.904   6.855
 6021POPC   C4A75378  22.787  27.061   7.285
 6021POPC   C1B75379  23.389  26.711   6.115
 6021POPC   C2B75380  23.446  26.569   6.505
 6021POPC   C3B75381  23.347  26.731   6.879
 6021POPC   C4B75382  23.181  26.602   7.270
 6022POPC   NC375383  44.907  39.102   5.523
 6022POPC   PO475384   0.068  39.771   5.482
 6022POPC   GL175385  44.953  39.512   5.877
 6022POPC   GL275386  44.963  39.174   6.016
 6022POPC   C1A75387  44.727  39.545   6.273
 6022POPC   D2A75388  44.883  39.357   6.662
 6022POPC   C3A75389  44.635  39.335   7.042
 6022POPC   C4A75390  44.459  39.301   7.464
 6022POPC   C1B75391  44.613  39.045   6.284
 6022POPC   C2B75392  44.401  39.039   6.701
 6022POPC   C3B75393  44.467  38.873   7.152
 6022POPC   C4B75394  44.814  38.949   7.463
 6023POPC   NC375395   1.770  14.583   5.574
 6023POPC   PO475396   2.152  14.191   5.155
 6023POPC   GL175397   2.188  14.302   5.660
 6023POPC   GL275398   2.317  14.633   5.796
 6023POPC   C1A75399   1.974  14.351   6.132
 6023POPC   D2A75400   1.907  14.541   6.567
 6023POPC   C3A75401   1.839  14.431   7.016
 6023POPC   C4A75402   1.947  14.254   7.447
 6023POPC   C1B75403   2.245  14.794   6.241
 6023POPC   C2B75404   2.273  14.894   6.721
 6023POPC   C3B75405   2.097  14.851   7.175
 6023POPC   C4B75406   2.187  14.691   7.655
 6024POPC   NC375407  26.909  25.361   5.391
 6024POPC   PO475408  26.358  25.124   5.469
 6024POPC   GL175409  26.676  25.247   5.827
 6024POPC   GL275410  26.990  25.520   5.839
 6024POPC   C1A75411  26.806  25.100   6.251
 6024POPC   D2A75412  26.702  25.115   6.698
 6024POPC   C3A75413  26.978  24.904   7.019
 6024POPC   C4A75414  26.950  24.879   7.480
 6024POPC   C1B75415  26.762  25.611   6.169
 6024POPC   C2B75416  26.908  25.580   6.566
 6024POPC   C3B75417  27.054  25.409   6.930
 6024POPC   C4B75418  27.028  25.337   7.309
 6025POPC   NC375419  12.824  27.816   5.335
 6025POPC   PO475420  13.146  27.282   5.509
 6025POPC   GL175421  12.875  27.537   5.748
 6025POPC   GL275422  13.036  27.857   5.796
 6025POPC   C1A75423  12.687  27.667   6.132
 6025POPC   D2A75424  12.495  27.545   6.503
 6025POPC   C3A75425  12.715  27.760   6.851
 6025POPC   C4A75426  12.882  27.784   7.263
 6025POPC   C1B75427  13.198  27.605   6.141
 6025POPC   C2B75428  13.051  27.505   6.543
 6025POPC   C3B75429  13.223  27.597   6.959
 6025POPC   C4B75430  13.323  27.532   7.424
 6026POPC   NC375431  42.229  20.836   5.476
 6026POPC   PO475432  42.687  20.380   5.491
 6026POPC   GL175433  42.356  20.413   5.801
 6026POPC   GL275434  42.342  20.752   5.969
 6026POPC   C1A75435  42.163  20.295   6.191
 6026POPC   D2A75436  42.364  20.328   6.577
 6026POPC   C3A75437  42.653  20.645   6.734
 6026POPC   C4A75438  42.758  20.624   7.175
 6026POPC   C1B75439  41.926  20.736   6.197
 6026POPC   C2B75440  42.041  20.696   6.640
 6026POPC   C3B75441  42.249  20.663   7.026
 6026POPC   C4B75442  41.998  20.695   7.342
 6027POPC   NC375443  23.636   8.824   5.341
 6027POPC   PO475444  23.799   9.371   5.719
 6027POPC   GL175445  23.726   9.058   5.972
 6027POPC   GL275446  23.827   8.788   5.805
 6027POPC   C1A75447  23.654   9.031   6.400
 6027POPC   D2A75448  23.874   8.925   6.754
 6027POPC   C3A75449  23.736   9.170   7.054
 6027POPC   C4A75450  23.941   9.228   7.419
 6027POPC   C1B75451  23.576   8.593   6.134
 6027POPC   C2B75452  23.754   8.527   6.496
 6027POPC   C3B75453  23.671   8.482   6.948
 6027POPC   C4B75454  23.892   8.736   7.259
 6028POPC   NC375455  35.657  29.529   5.610
 6028POPC   PO475456  35.371  29.031   5.164
 6028POPC   GL175457  35.251  29.147   5.626
 6028POPC   GL275458  35.074  29.450   5.702
 6028POPC   C1A75459  35.227  28.996   6.095
 6028POPC   D2A75460  35.541  28.949   6.444
 6028POPC   C3A75461  35.508  28.939   6.920
 6028POPC   C4A75462  35.677  29.246   7.246
 6028POPC   C1B75463  35.257  29.498   6.144
 6028POPC   C2B75464  35.185  29.300   6.545
 6028POPC   C3B75465  35.170  29.394   6.982
 6028POPC   C4B75466  35.167  29.343   7.417
 6029POPC   NC375467  35.047  30.318   5.306
 6029POPC   PO475468  35.511  30.755   5.124
 6029POPC   GL175469  35.380  30.730   5.576
 6029POPC   GL275470  35.457  30.379   5.618
 6029POPC   C1A75471  35.295  30.915   6.020
 6029POPC   D2A75472  35.074  30.727   6.382
 6029POPC   C3A75473  35.225  30.664   6.793
 6029POPC   C4A75474  35.298  30.873   7.145
 6029POPC   C1B75475  35.276  30.358   6.034
 6029POPC   C2B75476  35.431  30.352   6.444
 6029POPC   C3B75477  35.504  30.222   6.854
 6029POPC   C4B75478  35.328  30.354   7.268
 6030POPC   NC375479  30.520  32.565   5.419
 6030POPC   PO475480  31.114  32.170   5.350
 6030POPC   GL175481  30.783  32.266   5.714
 6030POPC   GL275482  30.431  32.092   5.745
 6030POPC   C1A75483  30.625  32.345   6.144
 6030POPC   D2A75484  30.722  32.224   6.558
 6030POPC   C3A75485  30.969  32.378   6.889
 6030POPC   C4A75486  30.836  32.505   7.301
 6030POPC   C1B75487  30.290  31.955   6.200
 6030POPC   C2B75488  30.381  31.853   6.671
 6030POPC   C3B75489  30.533  32.140   7.020
 6030POPC   C4B75490  30.406  32.573   7.009
 6031POPC   NC375491  20.976  32.988   5.313
 6031POPC   PO475492  21.635  33.077   5.307
 6031POPC   GL175493  21.370  32.911   5.673
 6031POPC   GL275494  21.051  32.703   5.721
 6031POPC   C1A75495  21.312  33.127   6.081
 6031POPC   D2A75496  21.611  33.226   6.416
 6031POPC   C3A75497  21.458  33.312   6.843
 6031POPC   C4A75498  21.549  33.185   7.270
 6031POPC   C1B75499  21.059  32.689   6.153
 6031POPC   C2B75500  21.273  32.839   6.543
 6031POPC   C3B75501  21.183  32.898   7.000
 6031POPC   C4B75502  21.099  33.006   7.429
 6032POPC   NC375503  42.443   7.586   5.251
 6032POPC   PO475504  42.621   7.038   5.607
 6032POPC   GL175505  42.387   7.247   5.938
 6032POPC   GL275506  42.235   7.508   5.739
 6032POPC   C1A75507  42.124   7.208   6.338
 6032POPC   D2A75508  42.084   7.033   6.778
 6032POPC   C3A75509  42.439   7.155   7.016
 6032POPC   C4A75510  42.764   7.405   7.071
 6032POPC   C1B75511  42.105   7.713   6.127
 6032POPC   C2B75512  42.237   7.712   6.557
 6032POPC   C3B75513  42.165   7.582   6.975
 6032POPC   C4B75514  41.963   7.294   7.220
 6033POPC   NC375515   4.573   7.599   5.611
 6033POPC   PO475516   5.024   7.297   5.197
 6033POPC   GL175517   5.105   7.401   5.692
 6033POPC   GL275518   5.478   7.535   5.722
 6033POPC   C1A75519   4.902   7.442   6.142
 6033POPC   D2A75520   4.719   7.616   6.536
 6033POPC   C3A75521   4.931   7.622   6.918
 6033POPC   C4A75522   4.883   7.473   7.303
 6033POPC   C1B75523   5.411   7.483   6.166
 6033POPC   C2B75524   5.195   7.265   6.533
 6033POPC   C3B75525   5.156   7.164   6.973
 6033POPC   C4B75526   5.370   7.311   7.327
 6034POPC   NC375527  28.973  37.904   5.435
 6034POPC   PO475528  29.562  37.568   5.428
 6034POPC   GL175529  29.304  37.742   5.813
 6034POPC   GL275530  28.944  37.656   5.860
 6034POPC   C1A75531  29.175  37.630   6.285
 6034POPC   D2A75532  29.053  37.368   6.623
 6034POPC   C3A75533  29.304  37.493   6.936
 6034POPC   C4A75534  29.279  37.839   7.195
 6034POPC   C1B75535  28.796  37.973   6.183
 6034POPC   C2B75536  28.858  38.032   6.655
 6034POPC   C3B75537  28.835  37.703   6.997
 6034POPC   C4B75538  28.947  37.319   7.267
 6035POPC   NC375539  43.971  31.679   5.486
 6035POPC   PO475540  43.560  31.108   5.357
 6035POPC   GL175541  43.737  31.326   5.750
 6035POPC   GL275542  44.076  31.316   5.830
 6035POPC   C1A75543  43.674  31.478   6.196
 6035POPC   D2A75544  43.865  31.554   6.643
 6035POPC   C3A75545  43.589  31.569   7.036
 6035POPC   C4A75546  43.663  31.747   7.468
 6035POPC   C1B75547  44.192  31.543   6.204
 6035POPC   C2B75548  44.381  31.646   6.592
 6035POPC   C3B75549  44.304  31.719   7.022
 6035POPC   C4B75550  44.038  31.428   7.207
 6036POPC   NC375551  22.072  25.044   5.373
 6036POPC   PO475552  22.160  25.665   5.429
 6036POPC   GL175553  22.109  25.389   5.788
 6036POPC   GL275554  22.314  25.068   5.847
 6036POPC   C1A75555  22.094  25.377   6.258
 6036POPC   D2A75556  22.388  25.451   6.629
 6036POPC   C3A75557  22.180  25.613   7.005
 6036POPC   C4A75558  21.804  25.378   7.117
 6036POPC   C1B75559  22.578  24.931   6.222
 6036POPC   C2B75560  22.520  24.928   6.676
 6036POPC   C3B75561  22.364  25.117   7.052
 6036POPC   C4B75562  22.511  24.990   7.490
 6037POPC   NC375563  14.832   9.148   4.921
 6037POPC   PO475564  15.247   8.952   5.388
 6037POPC   GL175565  15.333   8.885   5.812
 6037POPC   GL275566  15.473   9.192   5.847
 6037POPC   C1A75567  15.535   8.812   6.208
 6037POPC   D2A75568  15.413   8.951   6.617
 6037POPC   C3A75569  15.414   8.764   7.012
 6037POPC   C4A75570  15.378   9.051   7.312
 6037POPC   C1B75571  15.187   9.207   6.196
 6037POPC   C2B75572  15.113   9.355   6.595
 6037POPC   C3B75573  15.015   9.198   6.963
 6037POPC   C4B75574  14.638   9.319   7.153
 6038POPC   NC375575  35.909  30.412   5.215
 6038POPC   PO475576  36.365  30.842   5.379
 6038POPC   GL175577  36.153  30.946   5.746
 6038POPC   GL275578  35.913  30.678   5.662
 6038POPC   C1A75579  36.098  30.895   6.202
 6038POPC   D2A75580  36.352  30.620   6.460
 6038POPC   C3A75581  36.251  30.627   6.895
 6038POPC   C4A75582  36.119  31.050   7.051
 6038POPC   C1B75583  35.704  30.610   6.035
 6038POPC   C2B75584  35.621  30.819   6.409
 6038POPC   C3B75585  35.747  30.765   6.791
 6038POPC   C4B75586  35.786  30.548   7.109
 6039POPC   NC375587  31.150  23.011   5.570
 6039POPC   PO475588  30.530  22.699   5.469
 6039POPC   GL175589  30.718  22.702   5.852
 6039POPC   GL275590  30.670  23.052   5.848
 6039POPC   C1A75591  30.899  22.858   6.243
 6039POPC   D2A75592  30.779  23.130   6.597
 6039POPC   C3A75593  30.732  22.851   6.931
 6039POPC   C4A75594  30.954  22.822   7.278
 6039POPC   C1B75595  30.409  23.044   6.193
 6039POPC   C2B75596  30.329  22.874   6.560
 6039POPC   C3B75597  30.297  23.131   6.907
 6039POPC   C4B75598  30.281  22.903   7.238
 6040POPC   NC375599   3.362  33.121   5.355
 6040POPC   PO475600   3.962  32.821   5.369
 6040POPC   GL175601   3.673  32.938   5.727
 6040POPC   GL275602   3.414  32.755   5.740
 6040POPC   C1A75603   3.470  33.086   6.129
 6040POPC   D2A75604   3.464  32.889   6.537
 6040POPC   C3A75605   3.393  33.095   6.921
 6040POPC   C4A75606   3.708  32.966   7.190
 6040POPC   C1B75607   3.391  32.549   6.159
 6040POPC   C2B75608   3.212  32.415   6.572
 6040POPC   C3B75609   3.105  32.663   6.905
 6040POPC   C4B75610   3.269  32.736   7.286
 6041POPC   NC375611  38.259  43.891   5.295
 6041POPC   PO475612  38.768  44.100   5.556
 6041POPC   GL175613  38.335  44.023   5.774
 6041POPC   GL275614  38.206  43.650   5.751
 6041POPC   C1A75615  38.105  44.053   6.150
 6041POPC   D2A75616  38.094  44.227   6.559
 6041POPC   C3A75617  38.229  43.974   6.859
 6041POPC   C4A75618  38.064  44.051   7.249
 6041POPC   C1B75619  38.438  43.656   6.121
 6041POPC   C2B75620  38.445  43.645   6.536
 6041POPC   C3B75621  38.727  43.765   6.872
 6041POPC   C4B75622  38.525  43.851   7.255
 6042POPC   NC375623  33.764  41.418   5.341
 6042POPC   PO475624  34.002  41.985   5.493
 6042POPC   GL175625  33.683  41.744   5.738
 6042POPC   GL275626  33.869  41.467   5.837
 6042POPC   C1A75627  33.444  41.633   6.121
 6042POPC   D2A75628  33.616  41.462   6.529
 6042POPC   C3A75629  33.765  41.646   6.922
 6042POPC   C4A75630  33.953  41.626   7.319
 6042POPC   C1B75631  33.903  41.790   6.196
 6042POPC   C2B75632  33.955  41.996   6.572
 6042POPC   C3B75633  34.199  41.935   6.946
 6042POPC   C4B75634  34.243  42.071   7.350
 6043POPC   NC375635  35.831  33.650   5.406
 6043POPC   PO475636  36.411  34.053   5.308
 6043POPC   GL175637  36.222  33.932   5.675
 6043POPC   GL275638  36.271  33.584   5.700
 6043POPC   C1A75639  36.155  34.089   6.088
 6043POPC   D2A75640  36.337  34.026   6.476
 6043POPC   C3A75641  36.169  34.179   6.834
 6043POPC   C4A75642  36.371  34.030   7.230
 6043POPC   C1B75643  35.974  33.608   6.099
 6043POPC   C2B75644  35.888  33.784   6.533
 6043POPC   C3B75645  35.987  33.734   6.968
 6043POPC   C4B75646  35.840  33.527   7.292
 6044POPC   NC375647  42.298   2.260   5.406
 6044POPC   PO475648  42.424   2.962   5.455
 6044POPC   GL175649  42.285   2.917   5.826
 6044POPC   GL275650  42.528   3.138   6.000
 6044POPC   C1A75651  42.150   2.763   6.199
 6044POPC   D2A75652  42.353   2.908   6.500
 6044POPC   C3A75653  42.182   2.893   6.860
 6044POPC   C4A75654  42.085   2.650   7.174
 6044POPC   C1B75655  42.658   2.696   6.120
 6044POPC   C2B75656  42.611   2.449   6.502
 6044POPC   C3B75657  42.560   2.555   6.966
 6044POPC   C4B75658  42.539   2.722   7.419
 6045POPC   NC375659  32.767  36.144   5.482
 6045POPC   PO475660  33.397  35.915   5.275
 6045POPC   GL175661  33.279  36.025   5.741
 6045POPC   GL275662  33.165  36.377   5.797
 6045POPC   C1A75663  33.092  36.021   6.207
 6045POPC   D2A75664  32.718  35.979   6.542
 6045POPC   C3A75665  32.868  35.970   6.978
 6045POPC   C4A75666  33.247  36.108   7.212
 6045POPC   C1B75667  32.785  36.414   6.070
 6045POPC   C2B75668  32.770  36.477   6.500
 6045POPC   C3B75669  32.806  36.489   6.934
 6045POPC   C4B75670  32.881  36.449   7.370
 6046POPC   NC375671  37.538  26.989   5.343
 6046POPC   PO475672  37.963  26.499   5.506
 6046POPC   GL175673  37.740  26.763   5.773
 6046POPC   GL275674  37.397  26.749   5.838
 6046POPC   C1A75675  37.769  27.020   6.139
 6046POPC   D2A75676  37.931  26.898   6.548
 6046POPC   C3A75677  37.729  27.021   6.946
 6046POPC   C4A75678  37.869  26.869   7.339
 6046POPC   C1B75679  37.486  26.619   6.291
 6046POPC   C2B75680  37.505  26.579   6.759
 6046POPC   C3B75681  37.537  26.391   7.213
 6046POPC   C4B75682  37.646  26.516   7.653
 6047POPC   NC375683  19.702  38.938   5.715
 6047POPC   PO475684  20.176  39.287   5.426
 6047POPC   GL175685  20.011  39.321   5.852
 6047POPC   GL275686  19.664  39.462   5.814
 6047POPC   C1A75687  19.934  39.144   6.297
 6047POPC   D2A75688  20.146  39.097   6.702
 6047POPC   C3A75689  19.934  38.926   7.073
 6047POPC   C4A75690  19.696  39.067   7.429
 6047POPC   C1B75691  19.477  39.381   6.223
 6047POPC   C2B75692  19.529  39.204   6.639
 6047POPC   C3B75693  19.629  39.368   7.014
 6047POPC   C4B75694  20.047  39.416   7.122
 6048POPC   NC375695  18.474   4.451   5.327
 6048POPC   PO475696  17.840   4.258   5.237
 6048POPC   GL175697  18.090   4.250   5.658
 6048POPC   GL275698  18.454   4.313   5.829
 6048POPC   C1A75699  18.033   4.284   6.113
 6048POPC   D2A75700  18.261   4.466   6.481
 6048POPC   C3A75701  18.317   4.248   6.856
 6048POPC   C4A75702  18.040   4.367   7.183
 6048POPC   C1B75703  18.458   4.044   6.246
 6048POPC   C2B75704  18.386   3.777   6.618
 6048POPC   C3B75705  18.424   3.780   7.074
 6048POPC   C4B75706  18.099   3.890   7.354
 6049POPC   NC375707  44.182  22.183   5.239
 6049POPC   PO475708  44.785  21.965   5.116
 6049POPC   GL175709  44.559  21.995   5.575
 6049POPC   GL275710  44.497  22.360   5.723
 6049POPC   C1A75711  44.556  21.953   6.049
 6049POPC   D2A75712  44.507  22.066   6.514
 6049POPC   C3A75713  44.618  22.056   6.957
 6049POPC   C4A75714  44.242  22.066   7.178
 6049POPC   C1B75715  44.612  22.471   6.195
 6049POPC   C2B75716  44.738  22.519   6.670
 6049POPC   C3B75717  44.978  22.486   7.078
 6049POPC   C4B75718  44.903  22.611   7.500
 6050POPC   NC375719  16.776  29.324   5.374
 6050POPC   PO475720  16.643  28.655   5.420
 6050POPC   GL175721  16.559  28.954   5.746
 6050POPC   GL275722  16.908  29.009   5.761
 6050POPC   C1A75723  16.560  29.230   6.119
 6050POPC   D2A75724  16.411  29.333   6.541
 6050POPC   C3A75725  16.588  29.205   6.943
 6050POPC   C4A75726  16.601  29.002   7.346
 6050POPC   C1B75727  16.903  28.829   6.145
 6050POPC   C2B75728  16.819  28.930   6.544
 6050POPC   C3B75729  16.855  28.759   6.922
 6050POPC   C4B75730  17.061  28.797   7.298
 6051POPC   NC375731  44.006  23.671   5.436
 6051POPC   PO475732  43.414  23.336   5.291
 6051POPC   GL175733  43.606  23.650   5.758
 6051POPC   GL275734  43.949  23.851   5.881
 6051POPC   C1A75735  43.576  23.816   6.196
 6051POPC   D2A75736  43.587  24.056   6.535
 6051POPC   C3A75737  43.584  23.854   6.914
 6051POPC   C4A75738  43.801  23.769   7.281
 6051POPC   C1B75739  43.992  23.527   6.214
 6051POPC   C2B75740  44.012  23.735   6.630
 6051POPC   C3B75741  44.239  23.809   7.043
 6051POPC   C4B75742  44.386  23.444   7.243
 6052POPC   NC375743  40.643  30.440   5.400
 6052POPC   PO475744  40.778  31.093   5.540
 6052POPC   GL175745  40.694  30.760   5.782
 6052POPC   GL275746  41.025  30.567   5.714
 6052POPC   C1A75747  40.482  30.556   6.105
 6052POPC   D2A75748  40.485  30.359   6.476
 6052POPC   C3A75749  40.565  30.578   6.848
 6052POPC   C4A75750  40.566  30.521   7.255
 6052POPC   C1B75751  41.066  30.766   6.116
 6052POPC   C2B75752  40.947  30.631   6.511
 6052POPC   C3B75753  41.052  30.464   6.918
 6052POPC   C4B75754  41.059  30.816   7.184
 6053POPC   NC375755  24.491  17.128   5.565
 6053POPC   PO475756  24.610  16.593   5.126
 6053POPC   GL175757  24.673  16.665   5.633
 6053POPC   GL275758  24.348  16.624   5.840
 6053POPC   C1A75759  24.705  16.796   6.126
 6053POPC   D2A75760  24.761  16.808   6.597
 6053POPC   C3A75761  24.589  16.666   7.019
 6053POPC   C4A75762  24.625  16.770   7.449
 6053POPC   C1B75763  24.203  16.724   6.253
 6053POPC   C2B75764  24.222  16.730   6.674
 6053POPC   C3B75765  24.126  16.908   7.059
 6053POPC   C4B75766  24.182  17.001   7.507
 6054POPC   NC375767   2.641  34.237   5.434
 6054POPC   PO475768   2.986  34.797   5.524
 6054POPC   GL175769   2.797  34.697   5.886
 6054POPC   GL275770   2.458  34.732   5.795
 6054POPC   C1A75771   2.939  34.478   6.300
 6054POPC   D2A75772   3.088  34.199   6.620
 6054POPC   C3A75773   2.980  34.459   6.954
 6054POPC   C4A75774   2.630  34.523   7.194
 6054POPC   C1B75775   2.454  34.543   6.204
 6054POPC   C2B75776   2.529  34.676   6.619
 6054POPC   C3B75777   2.257  34.780   6.979
 6054POPC   C4B75778   2.380  34.956   7.378
 6055POPC   NC375779  16.777  39.780   5.328
 6055POPC   PO475780  16.918  40.497   5.251
 6055POPC   GL175781  16.907  40.190   5.622
 6055POPC   GL275782  16.584  40.087   5.768
 6055POPC   C1A75783  17.005  40.092   6.072
 6055POPC   D2A75784  16.954  40.169   6.486
 6055POPC   C3A75785  16.949  39.966   6.865
 6055POPC   C4A75786  16.763  39.974   7.279
 6055POPC   C1B75787  16.561  39.818   6.142
 6055POPC   C2B75788  16.516  39.894   6.581
 6055POPC   C3B75789  16.499  39.661   6.960
 6055POPC   C4B75790  16.573  39.500   7.415
 6056POPC   NC375791  20.870  26.308   5.507
 6056POPC   PO475792  21.533  26.323   5.239
 6056POPC   GL175793  21.363  26.162   5.669
 6056POPC   GL275794  21.452  25.819   5.752
 6056POPC   C1A75795  21.311  26.121   6.147
 6056POPC   D2A75796  21.216  25.943   6.554
 6056POPC   C3A75797  21.321  26.247   6.886
 6056POPC   C4A75798  21.197  26.432   7.271
 6056POPC   C1B75799  21.605  25.675   6.173
 6056POPC   C2B75800  21.655  25.599   6.627
 6056POPC   C3B75801  21.470  25.772   6.986
 6056POPC   C4B75802  21.597  25.748   7.410
 6057POPC   NC375803  33.452  25.359   5.529
 6057POPC   PO475804  33.898  24.907   5.379
 6057POPC   GL175805  33.798  25.029   5.777
 6057POPC   GL275806  33.972  25.337   5.852
 6057POPC   C1A75807  33.620  25.166   6.161
 6057POPC   D2A75808  33.777  25.008   6.510
 6057POPC   C3A75809  33.555  25.130   6.846
 6057POPC   C4A75810  33.732  25.270   7.241
 6057POPC   C1B75811  34.072  25.396   6.293
 6057POPC   C2B75812  33.941  25.466   6.698
 6057POPC   C3B75813  33.595  25.635   6.903
 6057POPC   C4B75814  33.582  25.751   7.345
 6058POPC   NC375815  41.922  12.232   5.515
 6058POPC   PO475816  41.392  12.415   5.126
 6058POPC   GL175817  41.420  12.036   5.557
 6058POPC   GL275818  41.305  12.148   5.910
 6058POPC   C1A75819  41.693  11.867   6.000
 6058POPC   D2A75820  41.631  11.898   6.480
 6058POPC   C3A75821  41.835  11.870   6.875
 6058POPC   C4A75822  41.698  11.972   7.284
 6058POPC   C1B75823  41.528  12.360   6.269
 6058POPC   C2B75824  41.781  12.386   6.629
 6058POPC   C3B75825  41.511  12.265   6.929
 6058POPC   C4B75826  41.333  12.385   7.290
 6059POPC   NC375827  43.156  25.802   5.257
 6059POPC   PO475828  43.215  26.468   5.526
 6059POPC   GL175829  43.033  26.074   5.764
 6059POPC   GL275830  42.891  25.725   5.680
 6059POPC   C1A75831  42.817  26.070   6.177
 6059POPC   D2A75832  42.937  26.331   6.556
 6059POPC   C3A75833  43.017  26.148   6.978
 6059POPC   C4A75834  43.444  26.158   7.161
 6059POPC   C1B75835  43.079  25.635   6.077
 6059POPC   C2B75836  42.908  25.654   6.495
 6059POPC   C3B75837  43.031  25.615   6.905
 6059POPC   C4B75838  43.143  25.741   7.299
 6060POPC   NC375839  32.671   3.060   5.695
 6060POPC   PO475840  32.200   2.690   5.316
 6060POPC   GL175841  32.219   2.832   5.767
 6060POPC   GL275842  32.078   2.570   5.893
 6060POPC   C1A75843  32.363   2.943   6.235
 6060POPC   D2A75844  32.571   3.025   6.630
 6060POPC   C3A75845  32.470   2.832   6.988
 6060POPC   C4A75846  32.546   2.624   7.372
 6060POPC   C1B75847  31.879   2.811   6.232
 6060POPC   C2B75848  32.030   2.878   6.678
 6060POPC   C3B75849  31.991   2.783   7.143
 6060POPC   C4B75850  32.002   2.422   7.454
 6061POPC   NC375851  11.491  34.669   5.101
 6061POPC   PO475852  11.065  34.186   5.459
 6061POPC   GL175853  11.270  34.434   5.823
 6061POPC   GL275854  11.329  34.788   5.739
 6061POPC   C1A75855  11.378  34.687   6.228
 6061POPC   D2A75856  11.638  34.655   6.584
 6061POPC   C3A75857  11.477  34.430   6.929
 6061POPC   C4A75858  11.101  34.345   7.151
 6061POPC   C1B75859  10.969  34.978   6.036
 6061POPC   C2B75860  10.990  35.038   6.467
 6061POPC   C3B75861  11.061  34.756   6.806
 6061POPC   C4B75862  10.877  34.795   7.206
 6062POPC   NC375863  27.944  31.921   5.579
 6062POPC   PO475864  28.501  32.205   5.478
 6062POPC   GL175865  28.368  32.053   5.827
 6062POPC   GL275866  28.637  31.900   5.893
 6062POPC   C1A75867  28.178  32.119   6.212
 6062POPC   D2A75868  28.313  32.136   6.630
 6062POPC   C3A75869  28.140  31.974   7.019
 6062POPC   C4A75870  28.362  32.236   7.313
 6062POPC   C1B75871  28.534  31.772   6.324
 6062POPC   C2B75872  28.641  31.776   6.758
 6062POPC   C3B75873  28.607  31.828   7.169
 6062POPC   C4B75874  28.610  31.920   7.620
 6063POPC   NC375875   8.501  39.514   5.428
 6063POPC   PO475876   8.257  40.228   5.366
 6063POPC   GL175877   8.147  39.924   5.667
 6063POPC   GL275878   8.493  39.952   5.733
 6063POPC   C1A75879   8.112  39.945   6.118
 6063POPC   D2A75880   8.313  40.078   6.513
 6063POPC   C3A75881   8.115  39.996   6.878
 6063POPC   C4A75882   7.771  39.925   7.122
 6063POPC   C1B75883   8.481  40.295   6.066
 6063POPC   C2B75884   8.768  40.299   6.407
 6063POPC   C3B75885   8.720  40.319   6.827
 6063POPC   C4B75886   8.397  40.379   7.117
 6064POPC   NC375887  36.909  39.575   5.456
 6064POPC   PO475888  36.779  40.241   5.435
 6064POPC   GL175889  36.740  39.991   5.812
 6064POPC   GL275890  36.543  39.691   5.834
 6064POPC   C1A75891  36.955  39.860   6.200
 6064POPC   D2A75892  37.134  39.648   6.576
 6064POPC   C3A75893  37.132  39.919   6.944
 6064POPC   C4A75894  37.212  40.328   7.155
 6064POPC   C1B75895  36.443  39.920   6.231
 6064POPC   C2B75896  36.649  39.990   6.616
 6064POPC   C3B75897  36.462  39.984   7.017
 6064POPC   C4B75898  36.514  39.708   7.362
 6065POPC   NC375899  43.263  17.807   5.482
 6065POPC   PO475900  42.834  17.208   5.427
 6065POPC   GL175901  43.022  17.428   5.771
 6065POPC   GL275902  43.403  17.413   5.790
 6065POPC   C1A75903  42.886  17.548   6.170
 6065POPC   D2A75904  43.088  17.537   6.541
 6065POPC   C3A75905  42.854  17.564   6.880
 6065POPC   C4A75906  42.870  17.622   7.303
 6065POPC   C1B75907  43.523  17.443   6.217
 6065POPC   C2B75908  43.545  17.379   6.655
 6065POPC   C3B75909  43.340  17.544   7.025
 6065POPC   C4B75910  43.367  17.373   7.417
 6066POPC   NC375911  27.075  39.740   5.330
 6066POPC   PO475912  26.747  39.115   5.463
 6066POPC   GL175913  26.682  39.221   5.898
 6066POPC   GL275914  26.794  39.595   5.837
 6066POPC   C1A75915  26.464  39.048   6.283
 6066POPC   D2A75916  26.315  39.233   6.690
 6066POPC   C3A75917  26.674  39.382   6.908
 6066POPC   C4A75918  26.933  39.126   7.144
 6066POPC   C1B75919  27.081  39.515   6.169
 6066POPC   C2B75920  27.135  39.412   6.620
 6066POPC   C3B75921  27.155  39.575   7.043
 6066POPC   C4B75922  27.196  39.455   7.476
 6067POPC   NC375923  22.799  16.725   5.502
 6067POPC   PO475924  23.431  16.835   5.643
 6067POPC   GL175925  23.138  16.566   5.900
 6067POPC   GL275926  22.972  16.850   5.967
 6067POPC   C1A75927  22.769  16.516   6.268
 6067POPC   D2A75928  22.528  16.802   6.594
 6067POPC   C3A75929  22.571  16.644   7.051
 6067POPC   C4A75930  22.663  16.562   7.503
 6067POPC   C1B75931  23.204  16.776   6.374
 6067POPC   C2B75932  22.986  16.700   6.768
 6067POPC   C3B75933  23.075  16.722   7.208
 6067POPC   C4B75934  22.967  16.968   7.552
 6068POPC   NC375935  23.603  39.498   5.587
 6068POPC   PO475936  23.711  40.204   5.443
 6068POPC   GL175937  23.696  40.096   5.865
 6068POPC   GL275938  23.901  39.785   5.916
 6068POPC   C1A75939  23.592  40.107   6.301
 6068POPC   D2A75940  23.738  39.948   6.717
 6068POPC   C3A75941  23.624  40.211   7.067
 6068POPC   C4A75942  23.522  40.215   7.548
 6068POPC   C1B75943  23.638  39.584   6.261
 6068POPC   C2B75944  23.759  39.359   6.651
 6068POPC   C3B75945  24.015  39.548   6.969
 6068POPC   C4B75946  23.817  39.803   7.270
 6069POPC   NC375947  24.221  16.288   5.264
 6069POPC   PO475948  24.446  15.659   5.444
 6069POPC   GL175949  24.269  15.791   5.882
 6069POPC   GL275950  24.219  16.134   5.774
 6069POPC   C1A75951  24.294  15.763   6.359
 6069POPC   D2A75952  24.631  15.974   6.615
 6069POPC   C3A75953  24.763  15.810   7.016
 6069POPC   C4A75954  24.526  15.758   7.383
 6069POPC   C1B75955  24.350  16.245   6.202
 6069POPC   C2B75956  24.174  16.200   6.624
 6069POPC   C3B75957  24.364  16.168   7.032
 6069POPC   C4B75958  24.564  16.264   7.419
 6070POPC   NC375959  41.711  25.527   5.409
 6070POPC   PO475960  41.272  25.037   5.431
 6070POPC   GL175961  41.479  25.171   5.806
 6070POPC   GL275962  41.800  25.161   5.757
 6070POPC   C1A75963  41.384  25.350   6.232
 6070POPC   D2A75964  41.048  25.344   6.541
 6070POPC   C3A75965  41.202  25.326   6.985
 6070POPC   C4A75966  41.241  25.392   7.445
 6070POPC   C1B75967  41.881  25.213   6.189
 6070POPC   C2B75968  42.022  24.991   6.569
 6070POPC   C3B75969  41.877  24.931   6.990
 6070POPC   C4B75970  41.691  25.309   7.213
 6071POPC   NC375971  38.150  30.594   5.512
 6071POPC   PO475972  38.636  31.084   5.486
 6071POPC   GL175973  38.591  30.750   5.794
 6071POPC   GL275974  38.760  30.399   5.821
 6071POPC   C1A75975  38.300  30.786   6.137
 6071POPC   D2A75976  38.196  30.551   6.511
 6071POPC   C3A75977  38.126  30.814   6.859
 6071POPC   C4A75978  38.208  31.101   7.147
 6071POPC   C1B75979  38.657  30.426   6.272
 6071POPC   C2B75980  38.730  30.590   6.715
 6071POPC   C3B75981  38.548  30.635   7.149
 6071POPC   C4B75982  38.670  30.443   7.547
 6072POPC   NC375983   5.593  13.852   5.697
 6072POPC   PO475984   5.849  14.376   5.300
 6072POPC   GL175985   5.920  14.577   5.771
 6072POPC   GL275986   6.020  14.272   5.847
 6072POPC   C1A75987   5.760  14.544   6.260
 6072POPC   D2A75988   5.827  14.139   6.485
 6072POPC   C3A75989   5.764  14.073   6.938
 6072POPC   C4A75990   5.751  14.464   7.143
 6072POPC   C1B75991   6.236  14.570   6.145
 6072POPC   C2B75992   6.163  14.596   6.575
 6072POPC   C3B75993   6.251  14.859   6.877
 6072POPC   C4B75994   6.280  14.663   7.249
 6073POPC   NC375995   1.140  32.421   5.521
 6073POPC   PO475996   1.061  31.740   5.442
 6073POPC   GL175997   0.868  31.986   5.782
 6073POPC   GL275998   0.689  32.276   5.705
 6073POPC   C1A75999   1.024  32.152   6.187
 6073POPC   D2A76000   1.361  32.295   6.473
 6073POPC   C3A76001   1.408  32.095   6.877
 6073POPC   C4A76002   1.075  32.068   7.170
 6073POPC   C1B76003   0.663  32.501   6.110
 6073POPC   C2B76004   0.914  32.596   6.502
 6073POPC   C3B76005   0.875  32.482   6.922
 6073POPC   C4B76006   0.906  32.676   7.304
 6074POPC   NC376007  30.578  38.009   5.559
 6074POPC   PO476008  30.965  38.557   5.303
 6074POPC   GL176009  30.920  38.504   5.786
 6074POPC   GL276010  30.574  38.446   5.827
 6074POPC   C1A76011  30.772  38.673   6.233
 6074POPC   D2A76012  30.522  38.527   6.618
 6074POPC   C3A76013  30.632  38.712   7.028
 6074POPC   C4A76014  31.041  38.860   7.200
 6074POPC   C1B76015  30.765  38.149   6.160
 6074POPC   C2B76016  30.816  37.999   6.594
 6074POPC   C3B76017  30.682  38.157   7.000
 6074POPC   C4B76018  30.871  38.372   7.344
 6075POPC   NC376019   3.266  11.277   5.225
 6075POPC   PO476020   3.687  11.808   5.488
 6075POPC   GL176021   3.701  11.562   5.827
 6075POPC   GL276022   3.488  11.317   5.730
 6075POPC   C1A76023   3.465  11.558   6.202
 6075POPC   D2A76024   3.748  11.521   6.542
 6075POPC   C3A76025   3.588  11.658   6.935
 6075POPC   C4A76026   3.835  11.653   7.298
 6075POPC   C1B76027   3.658  11.110   6.143
 6075POPC   C2B76028   3.417  11.131   6.563
 6075POPC   C3B76029   3.531  11.155   7.025
 6075POPC   C4B76030   3.381  11.164   7.480
 6076POPC   NC376031  40.904  40.406   5.341
 6076POPC   PO476032  40.514  40.924   5.318
 6076POPC   GL176033  40.809  40.826   5.674
 6076POPC   GL276034  40.630  40.546   5.784
 6076POPC   C1A76035  40.995  40.750   6.104
 6076POPC   D2A76036  40.810  40.664   6.520
 6076POPC   C3A76037  41.095  40.688   6.863
 6076POPC   C4A76038  41.225  40.683   7.262
 6076POPC   C1B76039  40.433  40.288   6.099
 6076POPC   C2B76040  40.534  40.198   6.524
 6076POPC   C3B76041  40.645  40.364   6.886
 6076POPC   C4B76042  40.712  40.628   7.204
 6077POPC   NC376043  19.304   6.076   5.343
 6077POPC   PO476044  18.771   5.721   5.177
 6077POPC   GL176045  18.887   5.896   5.636
 6077POPC   GL276046  19.224   5.834   5.779
 6077POPC   C1A76047  18.910   6.044   6.111
 6077POPC   D2A76048  19.109   6.004   6.536
 6077POPC   C3A76049  18.900   6.179   6.871
 6077POPC   C4A76050  18.869   6.420   7.249
 6077POPC   C1B76051  19.294   5.672   6.184
 6077POPC   C2B76052  19.412   5.553   6.591
 6077POPC   C3B76053  19.229   5.686   6.937
 6077POPC   C4B76054  19.244   5.996   7.244
 6078POPC   NC376055   2.333  36.885   5.401
 6078POPC   PO476056   1.626  36.877   5.211
 6078POPC   GL176057   1.904  36.791   5.653
 6078POPC   GL276058   1.859  36.492   5.827
 6078POPC   C1A76059   1.926  36.973   6.089
 6078POPC   D2A76060   2.184  37.119   6.407
 6078POPC   C3A76061   1.968  37.102   6.781
 6078POPC   C4A76062   2.091  37.086   7.178
 6078POPC   C1B76063   2.008  36.437   6.180
 6078POPC   C2B76064   2.001  36.663   6.508
 6078POPC   C3B76065   1.901  36.572   6.857
 6078POPC   C4B76066   2.021  36.564   7.227
 6079POPC   NC376067  28.027  43.738   5.525
 6079POPC   PO476068  28.410  44.236   5.674
 6079POPC   GL176069  28.196  44.031   5.924
 6079POPC   GL276070  28.375  43.732   5.912
 6079POPC   C1A76071  27.993  43.850   6.243
 6079POPC   D2A76072  28.102  43.666   6.572
 6079POPC   C3A76073  28.084  43.918   6.862
 6079POPC   C4A76074  28.287  43.845   7.212
 6079POPC   C1B76075  28.522  43.858   6.326
 6079POPC   C2B76076  28.584  43.820   6.775
 6079POPC   C3B76077  28.752  44.037   7.127
 6079POPC   C4B76078  28.850  44.038   7.563
 6080POPC   NC376079  17.976   8.916   5.447
 6080POPC   PO476080  18.492   9.191   5.254
 6080POPC   GL176081  18.370   9.269   5.701
 6080POPC   GL276082  18.181   9.005   5.908
 6080POPC   C1A76083  18.417   9.392   6.149
 6080POPC   D2A76084  18.543   9.184   6.531
 6080POPC   C3A76085  18.285   8.977   6.839
 6080POPC   C4A76086  18.361   8.658   7.111
 6080POPC   C1B76087  18.197   8.793   6.340
 6080POPC   C2B76088  18.029   8.531   6.707
 6080POPC   C3B76089  17.865   8.737   7.062
 6080POPC   C4B76090  17.659   8.881   7.389
 6081POPC   NC376091  17.568  29.557   5.476
 6081POPC   PO476092  17.616  30.200   5.467
 6081POPC   GL176093  17.452  29.923   5.837
 6081POPC   GL276094  17.684  29.649   5.966
 6081POPC   C1A76095  17.481  30.031   6.283
 6081POPC   D2A76096  17.653  30.148   6.705
 6081POPC   C3A76097  17.582  30.171   7.159
 6081POPC   C4A76098  17.876  30.238   7.553
 6081POPC   C1B76099  17.367  29.539   6.254
 6081POPC   C2B76100  17.345  29.699   6.665
 6081POPC   C3B76101  17.464  29.588   7.040
 6081POPC   C4B76102  17.190  29.603   7.388
 6082POPC   NC376103  38.087  35.130   5.518
 6082POPC   PO476104  38.519  35.633   5.252
 6082POPC   GL176105  38.514  35.479   5.694
 6082POPC   GL276106  38.220  35.522   5.883
 6082POPC   C1A76107  38.667  35.266   6.076
 6082POPC   D2A76108  38.552  35.249   6.488
 6082POPC   C3A76109  38.756  35.120   6.868
 6082POPC   C4A76110  38.490  35.262   7.149
 6082POPC   C1B76111  38.098  35.240   6.214
 6082POPC   C2B76112  38.013  35.073   6.639
 6082POPC   C3B76113  37.981  34.817   7.026
 6082POPC   C4B76114  38.248  34.880   7.378
 6083POPC   NC376115  19.311  13.890   5.415
 6083POPC   PO476116  19.292  13.161   5.356
 6083POPC   GL176117  19.034  13.295   5.729
 6083POPC   GL276118  18.993  13.644   5.797
 6083POPC   C1A76119  19.112  13.334   6.170
 6083POPC   D2A76120  18.879  13.183   6.499
 6083POPC   C3A76121  19.035  13.314   6.902
 6083POPC   C4A76122  19.238  13.456   7.297
 6083POPC   C1B76123  18.977  13.859   6.184
 6083POPC   C2B76124  19.119  13.716   6.590
 6083POPC   C3B76125  18.969  13.821   7.017
 6083POPC   C4B76126  18.600  14.041   7.177
 6084POPC   NC376127  31.175   7.341   5.310
 6084POPC   PO476128  31.803   7.604   5.415
 6084POPC   GL176129  31.628   7.312   5.775
 6084POPC   GL276130  31.248   7.244   5.804
 6084POPC   C1A76131  31.541   7.211   6.244
 6084POPC   D2A76132  31.515   7.139   6.716
 6084POPC   C3A76133  31.722   7.358   7.110
 6084POPC   C4A76134  31.486   7.353   7.572
 6084POPC   C1B76135  31.171   7.569   6.124
 6084POPC   C2B76136  31.289   7.621   6.568
 6084POPC   C3B76137  31.237   7.486   6.999
 6084POPC   C4B76138  31.132   7.698   7.352
 6085POPC   NC376139  14.209  13.412   5.416
 6085POPC   PO476140  14.842  13.716   5.543
 6085POPC   GL176141  14.466  13.667   5.796
 6085POPC   GL276142  14.411  13.319   5.871
 6085POPC   C1A76143  14.350  13.840   6.187
 6085POPC   D2A76144  14.627  13.954   6.541
 6085POPC   C3A76145  14.646  13.696   6.900
 6085POPC   C4A76146  14.524  13.772   7.313
 6085POPC   C1B76147  14.588  13.405   6.278
 6085POPC   C2B76148  14.278  13.532   6.603
 6085POPC   C3B76149  14.232  13.403   7.047
 6085POPC   C4B76150  14.424  13.290   7.451
 6086POPC   NC376151  17.769  31.974   5.413
 6086POPC   PO476152  17.536  32.564   5.441
 6086POPC   GL176153  17.571  32.448   5.831
 6086POPC   GL276154  17.522  32.111   5.870
 6086POPC   C1A76155  17.516  32.553   6.235
 6086POPC   D2A76156  17.533  32.294   6.567
 6086POPC   C3A76157  17.464  32.540   6.909
 6086POPC   C4A76158  17.447  32.403   7.297
 6086POPC   C1B76159  17.327  31.854   6.207
 6086POPC   C2B76160  17.116  31.982   6.579
 6086POPC   C3B76161  17.289  32.051   6.962
 6086POPC   C4B76162  17.184  31.977   7.354
 6087POPC   NC376163  35.657   3.960   5.563
 6087POPC   PO476164  35.975   4.485   5.207
 6087POPC   GL176165  36.199   4.424   5.639
 6087POPC   GL276166  36.144   4.095   5.762
 6087POPC   C1A76167  36.322   4.434   6.108
 6087POPC   D2A76168  36.063   4.437   6.486
 6087POPC   C3A76169  36.168   4.461   6.920
 6087POPC   C4A76170  35.945   4.465   7.306
 6087POPC   C1B76171  35.984   3.989   6.187
 6087POPC   C2B76172  35.845   3.985   6.617
 6087POPC   C3B76173  36.027   4.005   7.047
 6087POPC   C4B76174  36.256   4.101   7.443
 6088POPC   NC376175  12.823  18.751   5.540
 6088POPC   PO476176  12.506  19.226   5.149
 6088POPC   GL176177  12.501  19.165   5.655
 6088POPC   GL276178  12.446  19.498   5.743
 6088POPC   C1A76179  12.575  18.959   6.138
 6088POPC   D2A76180  12.580  18.731   6.573
 6088POPC   C3A76181  12.714  18.919   6.990
 6088POPC   C4A76182  12.895  18.877   7.409
 6088POPC   C1B76183  12.797  19.412   6.013
 6088POPC   C2B76184  12.847  19.359   6.464
 6088POPC   C3B76185  12.997  19.341   6.890
 6088POPC   C4B76186  12.873  19.376   7.292
 6089POPC   NC376187  22.080  10.134   5.676
 6089POPC   PO476188  22.340  10.707   5.362
 6089POPC   GL176189  22.249  10.630   5.775
 6089POPC   GL276190  21.941  10.655   5.944
 6089POPC   C1A76191  22.426  10.676   6.180
 6089POPC   D2A76192  22.306  10.755   6.594
 6089POPC   C3A76193  22.470  10.537   6.950
 6089POPC   C4A76194  22.402  10.767   7.331
 6089POPC   C1B76195  21.869  10.488   6.348
 6089POPC   C2B76196  22.023  10.347   6.756
 6089POPC   C3B76197  21.989  10.465   7.198
 6089POPC   C4B76198  21.977  10.303   7.624
 6090POPC   NC376199  30.995  34.176   5.493
 6090POPC   PO476200  30.620  33.641   5.577
 6090POPC   GL176201  30.887  33.739   5.868
 6090POPC   GL276202  31.138  33.519   5.816
 6090POPC   C1A76203  30.918  33.960   6.247
 6090POPC   D2A76204  30.694  33.896   6.634
 6090POPC   C3A76205  30.823  33.887   7.061
 6090POPC   C4A76206  30.455  33.991   7.292
 6090POPC   C1B76207  31.229  33.566   6.235
 6090POPC   C2B76208  31.199  33.746   6.640
 6090POPC   C3B76209  31.031  33.458   6.894
 6090POPC   C4B76210  30.790  33.375   7.227
 6091POPC   NC376211  13.699  31.321   5.367
 6091POPC   PO476212  13.412  31.761   5.741
 6091POPC   GL176213  13.485  31.291   5.842
 6091POPC   GL276214  13.849  31.117   5.805
 6091POPC   C1A76215  13.526  31.126   6.265
 6091POPC   D2A76216  13.396  31.296   6.641
 6091POPC   C3A76217  13.588  31.306   7.034
 6091POPC   C4A76218  13.354  31.648   7.215
 6091POPC   C1B76219  13.930  31.405   6.137
 6091POPC   C2B76220  13.888  31.527   6.566
 6091POPC   C3B76221  13.784  31.779   6.927
 6091POPC   C4B76222  13.855  31.644   7.346
 6092POPC   NC376223   6.057  27.978   5.529
 6092POPC   PO476224   5.921  28.600   5.348
 6092POPC   GL176225   5.975  28.440   5.782
 6092POPC   GL276226   5.686  28.228   5.838
 6092POPC   C1A76227   5.996  28.297   6.230
 6092POPC   D2A76228   5.838  28.472   6.598
 6092POPC   C3A76229   5.919  28.309   7.020
 6092POPC   C4A76230   6.083  28.338   7.395
 6092POPC   C1B76231   5.533  28.007   6.225
 6092POPC   C2B76232   5.688  27.993   6.656
 6092POPC   C3B76233   5.498  28.036   7.063
 6092POPC   C4B76234   5.570  28.143   7.508
 6093POPC   NC376235   0.372   9.166   5.580
 6093POPC   PO476236   0.466   9.826   5.365
 6093POPC   GL176237   0.285   9.709   5.756
 6093POPC   GL276238   0.196   9.415   5.973
 6093POPC   C1A76239   0.339   9.888   6.159
 6093POPC   D2A76240   0.211   9.710   6.536
 6093POPC   C3A76241   0.403   9.933   6.864
 6093POPC   C4A76242   0.492   9.829   7.258
 6093POPC   C1B76243   0.534   9.445   6.244
 6093POPC   C2B76244   0.712   9.590   6.610
 6093POPC   C3B76245   0.575   9.426   6.988
 6093POPC   C4B76246   0.746   9.383   7.371
 6094POPC   NC376247  23.547  37.227   5.423
 6094POPC   PO476248  23.914  36.748   5.175
 6094POPC   GL176249  23.715  36.557   5.587
 6094POPC   GL276250  23.554  36.828   5.795
 6094POPC   C1A76251  23.805  36.460   6.062
 6094POPC   D2A76252  23.824  36.672   6.495
 6094POPC   C3A76253  23.487  36.743   6.797
 6094POPC   C4A76254  23.674  36.671   7.195
 6094POPC   C1B76255  23.673  37.082   6.186
 6094POPC   C2B76256  23.691  37.201   6.642
 6094POPC   C3B76257  23.598  37.184   7.091
 6094POPC   C4B76258  23.540  37.389   7.520
 6095POPC   NC376259  10.309  25.650   5.462
 6095POPC   PO476260  10.793  26.150   5.500
 6095POPC   GL176261  10.563  26.010   5.829
 6095POPC   GL276262  10.266  26.157   5.755
 6095POPC   C1A76263  10.631  26.150   6.239
 6095POPC   D2A76264  10.635  25.981   6.623
 6095POPC   C3A76265  10.765  26.236   6.941
 6095POPC   C4A76266  10.520  26.107   7.264
 6095POPC   C1B76267  10.137  26.127   6.201
 6095POPC   C2B76268  10.091  25.967   6.617
 6095POPC   C3B76269  10.070  26.119   7.022
 6095POPC   C4B76270  10.055  26.113   7.492
 6096POPC   NC376271  25.540  39.667   5.554
 6096POPC   PO476272  25.048  39.330   5.327
 6096POPC   GL176273  25.196  39.252   5.771
 6096POPC   GL276274  25.568  39.257   5.854
 6096POPC   C1A76275  24.993  39.125   6.181
 6096POPC   D2A76276  24.900  39.217   6.627
 6096POPC   C3A76277  25.182  39.135   6.975
 6096POPC   C4A76278  25.480  39.057   7.291
 6096POPC   C1B76279  25.483  39.120   6.270
 6096POPC   C2B76280  25.469  39.369   6.624
 6096POPC   C3B76281  25.555  39.589   6.989
 6096POPC   C4B76282  25.731  39.505   7.375
 6097POPC   NC376283  22.786  10.639   5.195
 6097POPC   PO476284  23.213  10.155   5.317
 6097POPC   GL176285  23.022  10.396   5.736
 6097POPC   GL276286  22.778  10.706   5.716
 6097POPC   C1A76287  22.949  10.449   6.230
 6097POPC   D2A76288  23.123  10.509   6.660
 6097POPC   C3A76289  22.961  10.438   7.081
 6097POPC   C4A76290  22.825  10.542   7.509
 6097POPC   C1B76291  22.884  10.932   6.112
 6097POPC   C2B76292  22.800  10.905   6.573
 6097POPC   C3B76293  22.814  10.929   7.037
 6097POPC   C4B76294  22.825  11.089   7.493
 6098POPC   NC376295  22.190  35.970   5.464
 6098POPC   PO476296  21.865  36.532   5.261
 6098POPC   GL176297  22.035  36.417   5.725
 6098POPC   GL276298  22.361  36.228   5.853
 6098POPC   C1A76299  21.896  36.226   6.141
 6098POPC   D2A76300  21.772  36.162   6.563
 6098POPC   C3A76301  22.056  36.035   6.889
 6098POPC   C4A76302  22.032  36.219   7.286
 6098POPC   C1B76303  22.311  36.502   6.178
 6098POPC   C2B76304  22.245  36.399   6.565
 6098POPC   C3B76305  22.208  36.548   6.947
 6098POPC   C4B76306  22.381  36.630   7.343
 6099POPC   NC376307  43.741  10.580   4.942
 6099POPC   PO476308  44.032  11.033   5.354
 6099POPC   GL176309  44.108  10.774   5.718
 6099POPC   GL276310  43.772  10.659   5.749
 6099POPC   C1A76311  44.099  10.626   6.181
 6099POPC   D2A76312  44.157  10.415   6.615
 6099POPC   C3A76313  44.024  10.613   7.030
 6099POPC   C4A76314  43.940  10.557   7.509
 6099POPC   C1B76315  43.570  10.623   6.142
 6099POPC   C2B76316  43.642  10.490   6.552
 6099POPC   C3B76317  43.475  10.430   6.956
 6099POPC   C4B76318  43.537  10.741   7.259
 6100POPC   NC376319   9.987  11.390   5.333
 6100POPC   PO476320   9.476  11.041   5.550
 6100POPC   GL176321   9.736  11.235   5.829
 6100POPC   GL276322  10.052  11.057   5.739
 6100POPC   C1A76323   9.718  11.240   6.297
 6100POPC   D2A76324   9.677  11.453   6.704
 6100POPC   C3A76325   9.613  11.294   7.130
 6100POPC   C4A76326   9.340  11.444   7.484
 6100POPC   C1B76327  10.217  11.015   6.170
 6100POPC   C2B76328  10.102  11.053   6.586
 6100POPC   C3B76329  10.108  11.286   6.958
 6100POPC   C4B76330  10.023  11.081   7.323
 6101POPC   NC376331  26.682  24.005   5.433
 6101POPC   PO476332  27.261  23.608   5.397
 6101POPC   GL176333  27.010  23.759   5.746
 6101POPC   GL276334  27.115  24.102   5.710
 6101POPC   C1A76335  26.763  23.607   6.137
 6101POPC   D2A76336  26.555  23.398   6.469
 6101POPC   C3A76337  26.605  23.629   6.812
 6101POPC   C4A76338  26.730  23.620   7.241
 6101POPC   C1B76339  26.797  24.108   6.062
 6101POPC   C2B76340  26.806  24.011   6.492
 6101POPC   C3B76341  26.836  24.050   6.930
 6101POPC   C4B76342  26.557  24.122   7.246
 6102POPC   NC376343  33.271  22.309   5.075
 6102POPC   PO476344  33.519  22.524   5.642
 6102POPC   GL176345  33.192  22.355   5.908
 6102POPC   GL276346  32.878  22.209   5.772
 6102POPC   C1A76347  33.177  22.164   6.291
 6102POPC   D2A76348  33.201  22.294   6.705
 6102POPC   C3A76349  33.183  22.049   7.054
 6102POPC   C4A76350  33.121  22.248   7.424
 6102POPC   C1B76351  32.669  22.198   6.176
 6102POPC   C2B76352  32.657  22.236   6.619
 6102POPC   C3B76353  32.719  22.247   7.054
 6102POPC   C4B76354  32.713  21.926   7.358
 6103POPC   NC376355  41.417   7.876   5.446
 6103POPC   PO476356  41.656   8.581   5.429
 6103POPC   GL176357  41.557   8.269   5.761
 6103POPC   GL276358  41.875   8.134   5.908
 6103POPC   C1A76359  41.420   7.992   6.133
 6103POPC   D2A76360  41.574   7.944   6.600
 6103POPC   C3A76361  41.323   8.037   7.010
 6103POPC   C4A76362  41.407   8.257   7.450
 6103POPC   C1B76363  41.688   8.399   6.237
 6103POPC   C2B76364  41.594   8.471   6.654
 6103POPC   C3B76365  41.734   8.314   7.048
 6103POPC   C4B76366  41.920   8.502   7.407
 6104POPC   NC376367  20.494  13.158   5.414
 6104POPC   PO476368  20.445  13.823   5.410
 6104POPC   GL176369  20.396  13.630   5.842
 6104POPC   GL276370  20.719  13.806   5.909
 6104POPC   C1A76371  20.523  13.540   6.296
 6104POPC   D2A76372  20.967  13.604   6.467
 6104POPC   C3A76373  20.870  13.610   6.903
 6104POPC   C4A76374  20.491  13.435   7.012
 6104POPC   C1B76375  20.488  14.035   6.224
 6104POPC   C2B76376  20.225  13.923   6.564
 6104POPC   C3B76377  20.353  13.964   6.990
 6104POPC   C4B76378  20.179  14.201   7.313
 6105POPC   NC376379  19.239  21.746   5.167
 6105POPC   PO476380  18.997  21.287   5.451
 6105POPC   GL176381  19.124  21.348   5.892
 6105POPC   GL276382  19.433  21.197   5.867
 6105POPC   C1A76383  18.987  21.644   6.257
 6105POPC   D2A76384  18.700  21.690   6.594
 6105POPC   C3A76385  18.794  21.333   6.853
 6105POPC   C4A76386  18.886  21.503   7.253
 6105POPC   C1B76387  19.413  21.361   6.309
 6105POPC   C2B76388  19.313  21.475   6.768
 6105POPC   C3B76389  19.349  21.271   7.180
 6105POPC   C4B76390  19.179  21.294   7.607
 6106POPC   NC376391   2.906   4.852   5.452
 6106POPC   PO476392   2.799   5.461   5.682
 6106POPC   GL176393   2.834   5.091   5.891
 6106POPC   GL276394   2.530   4.875   5.837
 6106POPC   C1A76395   2.967   5.003   6.273
 6106POPC   D2A76396   2.725   5.076   6.645
 6106POPC   C3A76397   2.939   5.286   6.967
 6106POPC   C4A76398   3.143   5.104   7.329
 6106POPC   C1B76399   2.633   4.646   6.211
 6106POPC   C2B76400   2.921   4.563   6.574
 6106POPC   C3B76401   2.878   4.713   7.013
 6106POPC   C4B76402   2.541   5.025   7.140
 6107POPC   NC376403  34.679  44.122   5.536
 6107POPC   PO476404  34.722  43.453   5.516
 6107POPC   GL176405  34.750  43.716   5.872
 6107POPC   GL276406  34.629  43.452   6.041
 6107POPC   C1A76407  34.893  44.047   6.192
 6107POPC   D2A76408  35.099  44.202   6.583
 6107POPC   C3A76409  34.767  44.293   6.911
 6107POPC   C4A76410  34.637  44.013   7.277
 6107POPC   C1B76411  34.497  43.735   6.357
 6107POPC   C2B76412  34.541  43.826   6.794
 6107POPC   C3B76413  34.235  43.729   7.117
 6107POPC   C4B76414  34.168  43.830   7.521
 6108POPC   NC376415   3.090   7.156   5.081
 6108POPC   PO476416   2.616   7.491   5.408
 6108POPC   GL176417   2.634   7.478   5.840
 6108POPC   GL276418   2.907   7.741   5.865
 6108POPC   C1A76419   2.840   7.366   6.255
 6108POPC   D2A76420   2.968   7.582   6.642
 6108POPC   C3A76421   2.753   7.326   6.930
 6108POPC   C4A76422   2.922   6.962   7.090
 6108POPC   C1B76423   2.617   7.817   6.212
 6108POPC   C2B76424   2.454   7.614   6.592
 6108POPC   C3B76425   2.327   7.595   7.002
 6108POPC   C4B76426   2.575   7.650   7.346
 6109POPC   NC376427  18.539  37.949   5.461
 6109POPC   PO476428  18.274  37.390   5.344
 6109POPC   GL176429  18.124  37.573   5.732
 6109POPC   GL276430  18.211  37.917   5.870
 6109POPC   C1A76431  18.057  37.449   6.165
 6109POPC   D2A76432  18.131  37.674   6.536
 6109POPC   C3A76433  18.247  37.453   6.908
 6109POPC   C4A76434  18.359  37.817   7.148
 6109POPC   C1B76435  18.564  38.094   6.126
 6109POPC   C2B76436  18.704  37.986   6.548
 6109POPC   C3B76437  18.838  37.897   6.943
 6109POPC   C4B76438  18.723  38.166   7.254
 6110POPC   NC376439  29.914  14.725   5.264
 6110POPC   PO476440  30.055  15.394   5.419
 6110POPC   GL176441  30.194  15.283   5.839
 6110POPC   GL276442  30.452  15.510   5.929
 6110POPC   C1A76443  29.948  15.319   6.233
 6110POPC   D2A76444  29.808  15.032   6.583
 6110POPC   C3A76445  29.780  15.181   7.025
 6110POPC   C4A76446  29.985  15.064   7.403
 6110POPC   C1B76447  30.440  15.320   6.328
 6110POPC   C2B76448  30.252  15.235   6.738
 6110POPC   C3B76449  30.207  15.453   7.116
 6110POPC   C4B76450  30.193  15.510   7.573
 6111POPC   NC376451  36.639  14.630   5.290
 6111POPC   PO476452  36.892  13.978   5.466
 6111POPC   GL176453  36.664  14.266   5.688
 6111POPC   GL276454  36.815  14.537   5.775
 6111POPC   C1A76455  36.568  14.266   6.144
 6111POPC   D2A76456  36.681  14.015   6.497
 6111POPC   C3A76457  36.490  14.090   6.892
 6111POPC   C4A76458  36.686  14.359   7.185
 6111POPC   C1B76459  36.773  14.725   6.147
 6111POPC   C2B76460  36.793  14.569   6.540
 6111POPC   C3B76461  36.877  14.753   6.925
 6111POPC   C4B76462  37.213  14.643   7.138
 6112POPC   NC376463  24.542  35.497   5.216
 6112POPC   PO476464  24.128  35.891   5.601
 6112POPC   GL176465  24.466  35.604   5.794
 6112POPC   GL276466  24.293  35.337   5.733
 6112POPC   C1A76467  24.579  35.409   6.252
 6112POPC   D2A76468  24.645  35.367   6.700
 6112POPC   C3A76469  24.565  35.584   7.098
 6112POPC   C4A76470  24.527  35.259   7.469
 6112POPC   C1B76471  24.087  35.392   6.156
 6112POPC   C2B76472  24.159  35.212   6.564
 6112POPC   C3B76473  24.149  35.342   6.985
 6112POPC   C4B76474  24.108  35.552   7.391
 6113POPC   NC376475   9.549  26.673   5.253
 6113POPC   PO476476   9.954  27.071   5.471
 6113POPC   GL176477   9.861  26.960   5.859
 6113POPC   GL276478   9.647  26.671   5.815
 6113POPC   C1A76479   9.909  26.853   6.281
 6113POPC   D2A76480  10.212  26.896   6.624
 6113POPC   C3A76481  10.002  26.937   7.018
 6113POPC   C4A76482   9.851  26.551   7.190
 6113POPC   C1B76483   9.402  26.993   6.063
 6113POPC   C2B76484   9.485  27.075   6.489
 6113POPC   C3B76485   9.535  26.828   6.853
 6113POPC   C4B76486   9.541  26.963   7.276
 6114POPC   NC376487   9.252  39.372   5.407
 6114POPC   PO476488   8.705  39.079   5.514
 6114POPC   GL176489   8.859  39.340   5.799
 6114POPC   GL276490   9.189  39.232   5.885
 6114POPC   C1A76491   8.861  39.404   6.241
 6114POPC   D2A76492   8.691  39.210   6.583
 6114POPC   C3A76493   8.750  39.369   6.997
 6114POPC   C4A76494   8.632  39.177   7.399
 6114POPC   C1B76495   9.362  39.502   6.188
 6114POPC   C2B76496   9.261  39.556   6.658
 6114POPC   C3B76497   9.244  39.506   7.105
 6114POPC   C4B76498   9.340  39.471   7.566
 6115POPC   NC376499  20.795  44.088   5.353
 6115POPC   PO476500  20.739  43.527   5.701
 6115POPC   GL176501  20.668  43.940   5.857
 6115POPC   GL276502  20.986  44.100   5.834
 6115POPC   C1A76503  20.501  43.952   6.303
 6115POPC   D2A76504  20.503  43.672   6.703
 6115POPC   C3A76505  20.350  43.869   7.104
 6115POPC   C4A76506  20.184  43.847   7.552
 6115POPC   C1B76507  21.004  44.003   6.262
 6115POPC   C2B76508  20.862  44.059   6.663
 6115POPC   C3B76509  20.871  43.824   7.028
 6115POPC   C4B76510  20.703  43.832   7.461
 6116POPC   NC376511  38.753  44.539   5.446
 6116POPC   PO476512  38.563   0.059   5.311
 6116POPC   GL176513  38.528  44.900   5.764
 6116POPC   GL276514  38.395  44.544   5.824
 6116POPC   C1A76515  38.427  44.859   6.224
 6116POPC   D2A76516  38.372  44.674   6.644
 6116POPC   C3A76517  38.748  44.722   6.948
 6116POPC   C4A76518  38.576  44.773   7.389
 6116POPC   C1B76519  38.524  44.338   6.239
 6116POPC   C2B76520  38.650  44.250   6.695
 6116POPC   C3B76521  38.447  44.357   7.106
 6116POPC   C4B76522  38.478  44.285   7.553
 6117POPC   NC376523   1.136  37.159   5.086
 6117POPC   PO476524   1.280  36.708   5.603
 6117POPC   GL176525   1.469  36.843   5.922
 6117POPC   GL276526   1.459  37.174   6.034
 6117POPC   C1A76527   1.544  36.692   6.308
 6117POPC   D2A76528   1.431  36.491   6.671
 6117POPC   C3A76529   1.292  36.757   6.982
 6117POPC   C4A76530   1.637  36.887   7.201
 6117POPC   C1B76531   1.648  37.350   6.425
 6117POPC   C2B76532   1.567  37.406   6.886
 6117POPC   C3B76533   1.284  37.245   7.197
 6117POPC   C4B76534   0.980  36.969   7.345
 6118POPC   NC376535  22.889  20.399   5.553
 6118POPC   PO476536  22.925  19.743   5.336
 6118POPC   GL176537  23.173  19.707   5.725
 6118POPC   GL276538  23.284  20.058   5.677
 6118POPC   C1A76539  23.092  19.546   6.142
 6118POPC   D2A76540  22.888  19.830   6.418
 6118POPC   C3A76541  22.952  19.792   6.861
 6118POPC   C4A76542  22.744  20.010   7.214
 6118POPC   C1B76543  23.340  20.015   6.115
 6118POPC   C2B76544  23.386  19.839   6.500
 6118POPC   C3B76545  23.471  19.828   6.933
 6118POPC   C4B76546  23.232  19.789   7.311
 6119POPC   NC376547  44.944  16.290   5.477
 6119POPC   PO476548  44.520  15.829   5.313
 6119POPC   GL176549  44.624  15.965   5.742
 6119POPC   GL276550  44.952  15.812   5.747
 6119POPC   C1A76551  44.824  16.133   6.169
 6119POPC   D2A76552  44.929  15.997   6.620
 6119POPC   C3A76553  44.708  16.127   7.007
 6119POPC   C4A76554  44.311  16.118   7.227
 6119POPC   C1B76555  44.739  15.612   6.106
 6119POPC   C2B76556  44.645  15.529   6.530
 6119POPC   C3B76557  44.803  15.599   6.940
 6119POPC   C4B76558  45.000  15.360   7.245
 6120POPC   NC376559  17.059  33.259   5.527
 6120POPC   PO476560  16.723  32.662   5.524
 6120POPC   GL176561  16.703  32.978   5.856
 6120POPC   GL276562  16.479  33.281   5.825
 6120POPC   C1A76563  16.632  32.853   6.281
 6120POPC   D2A76564  16.423  32.634   6.616
 6120POPC   C3A76565  16.618  32.792   6.976
 6120POPC   C4A76566  16.701  32.921   7.372
 6120POPC   C1B76567  16.659  33.390   6.238
 6120POPC   C2B76568  16.733  33.475   6.686
 6120POPC   C3B76569  16.564  33.328   7.097
 6120POPC   C4B76570  16.516  33.354   7.578
 6121POPC   NC376571  34.544  30.787   5.627
 6121POPC   PO476572  34.587  30.195   5.254
 6121POPC   GL176573  34.818  30.320   5.756
 6121POPC   GL276574  34.894  30.644   5.921
 6121POPC   C1A76575  34.698  30.343   6.271
 6121POPC   D2A76576  34.703  30.580   6.706
 6121POPC   C3A76577  34.384  30.638   7.030
 6121POPC   C4A76578  34.363  30.498   7.453
 6121POPC   C1B76579  34.578  30.836   6.263
 6121POPC   C2B76580  34.550  31.076   6.676
 6121POPC   C3B76581  34.736  31.019   7.097
 6121POPC   C4B76582  34.539  30.949   7.513
 6122POPC   NC376583  24.359  27.892   5.560
 6122POPC   PO476584  24.819  27.434   5.439
 6122POPC   GL176585  24.600  27.421   5.841
 6122POPC   GL276586  24.450  27.717   6.019
 6122POPC   C1A76587  24.422  27.248   6.217
 6122POPC   D2A76588  24.371  27.550   6.526
 6122POPC   C3A76589  24.201  27.436   6.904
 6122POPC   C4A76590  24.494  27.614   7.142
 6122POPC   C1B76591  24.636  28.053   6.298
 6122POPC   C2B76592  24.951  28.004   6.590
 6122POPC   C3B76593  24.876  27.922   6.988
 6122POPC   C4B76594  24.623  28.063   7.300
 6123POPC   NC376595  29.728  31.905   5.358
 6123POPC   PO476596  30.147  32.309   5.341
 6123POPC   GL176597  29.899  32.262   5.743
 6123POPC   GL276598  29.900  31.925   5.846
 6123POPC   C1A76599  29.888  32.306   6.216
 6123POPC   D2A76600  30.202  32.333   6.558
 6123POPC   C3A76601  30.043  32.196   6.941
 6123POPC   C4A76602  29.892  32.224   7.348
 6123POPC   C1B76603  29.520  31.938   6.117
 6123POPC   C2B76604  29.420  32.092   6.551
 6123POPC   C3B76605  29.557  32.061   6.983
 6123POPC   C4B76606  29.431  32.016   7.419
 6124POPC   NC376607  13.100  33.834   5.237
 6124POPC   PO476608  12.671  33.387   5.521
 6124POPC   GL176609  12.820  33.746   5.715
 6124POPC   GL276610  13.157  33.767   5.770
 6124POPC   C1A76611  12.859  33.974   6.129
 6124POPC   D2A76612  13.007  34.002   6.541
 6124POPC   C3A76613  12.784  34.075   6.928
 6124POPC   C4A76614  12.622  33.777   7.204
 6124POPC   C1B76615  13.342  33.712   6.220
 6124POPC   C2B76616  13.433  33.763   6.689
 6124POPC   C3B76617  13.198  33.807   7.121
 6124POPC   C4B76618  13.144  33.546   7.522
 6125POPC   NC376619  11.716  22.601   5.706
 6125POPC   PO476620  11.250  22.310   5.214
 6125POPC   GL176621  11.244  22.227   5.704
 6125POPC   GL276622  11.070  22.470   5.908
 6125POPC   C1A76623  11.268  22.082   6.181
 6125POPC   D2A76624  11.474  21.989   6.624
 6125POPC   C3A76625  11.267  22.198   6.971
 6125POPC   C4A76626  10.856  22.232   7.151
 6125POPC   C1B76627  11.091  22.584   6.354
 6125POPC   C2B76628  10.864  22.558   6.757
 6125POPC   C3B76629  11.130  22.687   7.097
 6125POPC   C4B76630  11.546  22.586   7.174
 6126POPC   NC376631  40.280  25.361   5.346
 6126POPC   PO476632  39.789  24.910   5.407
 6126POPC   GL176633  39.839  25.222   5.731
 6126POPC   GL276634  40.186  25.206   5.826
 6126POPC   C1A76635  39.844  25.358   6.182
 6126POPC   D2A76636  40.046  25.266   6.588
 6126POPC   C3A76637  39.907  25.382   7.004
 6126POPC   C4A76638  39.963  25.248   7.440
 6126POPC   C1B76639  40.243  24.957   6.194
 6126POPC   C2B76640  40.354  24.867   6.619
 6126POPC   C3B76641  40.180  24.935   7.031
 6126POPC   C4B76642  40.446  25.111   7.337
 6127POPC   NC376643   9.866   3.201   5.167
 6127POPC   PO476644  10.038   3.767   5.515
 6127POPC   GL176645   9.826   3.446   5.734
 6127POPC   GL276646   9.461   3.502   5.771
 6127POPC   C1A76647   9.760   3.373   6.183
 6127POPC   D2A76648   9.662   3.483   6.625
 6127POPC   C3A76649   9.946   3.734   6.876
 6127POPC   C4A76650  10.117   3.607   7.273
 6127POPC   C1B76651   9.488   3.828   6.145
 6127POPC   C2B76652   9.556   4.000   6.607
 6127POPC   C3B76653   9.450   3.843   7.070
 6127POPC   C4B76654   9.449   3.750   7.577
 6128POPC   NC376655   1.525  41.727   5.460
 6128POPC   PO476656   0.917  41.429   5.201
 6128POPC   GL176657   0.974  41.589   5.659
 6128POPC   GL276658   0.694  41.821   5.751
 6128POPC   C1A76659   1.205  41.697   6.081
 6128POPC   D2A76660   1.209  41.804   6.545
 6128POPC   C3A76661   1.394  41.518   6.877
 6128POPC   C4A76662   1.591  41.394   7.293
 6128POPC   C1B76663   0.721  41.565   6.126
 6128POPC   C2B76664   0.875  41.412   6.519
 6128POPC   C3B76665   0.885  41.565   6.936
 6128POPC   C4B76666   1.074  41.387   7.296
 6129POPC   NC376667  43.688  32.854   5.611
 6129POPC   PO476668  44.238  32.932   5.233
 6129POPC   GL176669  44.201  32.888   5.722
 6129POPC   GL276670  44.062  33.198   5.736
 6129POPC   C1A76671  43.992  32.917   6.208
 6129POPC   D2A76672  43.637  33.073   6.509
 6129POPC   C3A76673  43.662  32.977   6.955
 6129POPC   C4A76674  43.589  33.209   7.309
 6129POPC   C1B76675  44.289  33.323   6.083
 6129POPC   C2B76676  44.146  33.355   6.491
 6129POPC   C3B76677  44.108  33.055   6.766
 6129POPC   C4B76678  44.105  33.208   7.180
 6130POPC   NC376679   9.511  30.491   5.481
 6130POPC   PO476680   9.447  29.741   5.525
 6130POPC   GL176681   9.682  29.972   5.843
 6130POPC   GL276682   9.919  30.188   5.738
 6130POPC   C1A76683  10.025  29.843   6.120
 6130POPC   D2A76684  10.005  29.661   6.503
 6130POPC   C3A76685   9.698  29.833   6.801
 6130POPC   C4A76686   9.538  29.764   7.224
 6130POPC   C1B76687  10.096  30.342   6.128
 6130POPC   C2B76688  10.071  30.174   6.551
 6130POPC   C3B76689   9.994  30.230   6.954
 6130POPC   C4B76690   9.966  30.425   7.312
 6131POPC   NC376691   9.177  28.107   5.187
 6131POPC   PO476692   8.597  28.246   5.511
 6131POPC   GL176693   8.866  28.223   5.845
 6131POPC   GL276694   9.184  28.102   5.741
 6131POPC   C1A76695   8.902  28.425   6.229
 6131POPC   D2A76696   9.031  28.477   6.639
 6131POPC   C3A76697   8.866  28.630   6.994
 6131POPC   C4A76698   8.618  28.561   7.333
 6131POPC   C1B76699   9.211  28.018   6.203
 6131POPC   C2B76700   9.222  28.010   6.669
 6131POPC   C3B76701   9.247  28.271   7.087
 6131POPC   C4B76702   9.513  28.459   7.467
 6132POPC   NC376703  36.180  10.344   5.431
 6132POPC   PO476704  36.449  10.885   5.455
 6132POPC   GL176705  36.332  10.589   5.839
 6132POPC   GL276706  35.959  10.512   5.867
 6132POPC   C1A76707  36.256  10.503   6.296
 6132POPC   D2A76708  36.078  10.726   6.680
 6132POPC   C3A76709  36.276  10.649   7.093
 6132POPC   C4A76710  36.261  10.351   7.451
 6132POPC   C1B76711  35.823  10.221   6.237
 6132POPC   C2B76712  36.022  10.210   6.659
 6132POPC   C3B76713  35.897  10.283   7.052
 6132POPC   C4B76714  35.717   9.958   7.256
 6133POPC   NC376715   9.266  22.809   5.075
 6133POPC   PO476716   8.693  22.728   5.458
 6133POPC   GL176717   8.874  22.952   5.816
 6133POPC   GL276718   8.660  22.769   5.974
 6133POPC   C1A76719   9.140  22.861   6.218
 6133POPC   D2A76720   9.226  22.569   6.595
 6133POPC   C3A76721   9.291  22.745   7.034
 6133POPC   C4A76722   9.070  22.757   7.448
 6133POPC   C1B76723   8.693  23.116   6.256
 6133POPC   C2B76724   8.935  23.104   6.643
 6133POPC   C3B76725   8.838  22.968   7.038
 6133POPC   C4B76726   8.657  23.071   7.424
 6134POPC   NC376727  38.114  20.829   5.503
 6134POPC   PO476728  38.766  20.734   5.474
 6134POPC   GL176729  38.540  20.634   5.833
 6134POPC   GL276730  38.312  20.339   5.728
 6134POPC   C1A76731  38.726  20.753   6.240
 6134POPC   D2A76732  38.541  20.621   6.611
 6134POPC   C3A76733  38.644  20.765   7.016
 6134POPC   C4A76734  38.706  20.373   7.199
 6134POPC   C1B76735  38.142  20.446   6.135
 6134POPC   C2B76736  38.173  20.262   6.555
 6134POPC   C3B76737  38.219  20.435   6.975
 6134POPC   C4B76738  37.953  20.661   7.217
 6135POPC   NC376739  23.027  28.722   5.163
 6135POPC   PO476740  22.743  29.254   5.479
 6135POPC   GL176741  22.997  29.140   5.796
 6135POPC   GL276742  23.201  28.854   5.712
 6135POPC   C1A76743  22.877  29.252   6.187
 6135POPC   D2A76744  22.600  29.288   6.508
 6135POPC   C3A76745  22.756  29.266   6.904
 6135POPC   C4A76746  22.870  29.245   7.328
 6135POPC   C1B76747  23.124  28.815   6.188
 6135POPC   C2B76748  23.010  28.968   6.583
 6135POPC   C3B76749  23.192  29.006   6.964
 6135POPC   C4B76750  23.204  28.854   7.357
 6136POPC   NC376751  39.921   1.601   5.223
 6136POPC   PO476752  40.219   0.981   5.351
 6136POPC   GL176753  40.166   1.076   5.778
 6136POPC   GL276754  40.457   1.281   5.797
 6136POPC   C1A76755  39.955   1.160   6.206
 6136POPC   D2A76756  40.107   1.200   6.663
 6136POPC   C3A76757  39.801   1.284   7.032
 6136POPC   C4A76758  39.846   1.308   7.533
 6136POPC   C1B76759  40.379   1.436   6.209
 6136POPC   C2B76760  40.312   1.673   6.598
 6136POPC   C3B76761  40.172   1.622   7.026
 6136POPC   C4B76762  40.300   1.561   7.445
 6137POPC   NC376763  40.115  17.369   5.417
 6137POPC   PO476764  39.648  17.796   5.335
 6137POPC   GL176765  39.799  17.718   5.811
 6137POPC   GL276766  40.067  17.438   5.916
 6137POPC   C1A76767  39.727  17.543   6.273
 6137POPC   D2A76768  39.960  17.422   6.647
 6137POPC   C3A76769  40.186  17.711   6.933
 6137POPC   C4A76770  40.131  17.633   7.382
 6137POPC   C1B76771  40.329  17.158   6.189
 6137POPC   C2B76772  40.416  17.121   6.636
 6137POPC   C3B76773  40.271  17.217   7.059
 6137POPC   C4B76774  40.314  17.136   7.530
 6138POPC   NC376775  11.733  43.909   5.294
 6138POPC   PO476776  11.117  44.064   5.196
 6138POPC   GL176777  11.300  43.940   5.629
 6138POPC   GL276778  11.480  43.599   5.698
 6138POPC   C1A76779  11.278  43.998   6.101
 6138POPC   D2A76780  11.483  44.054   6.524
 6138POPC   C3A76781  11.304  43.993   6.913
 6138POPC   C4A76782  11.414  43.769   7.261
 6138POPC   C1B76783  11.603  43.601   6.157
 6138POPC   C2B76784  11.771  43.563   6.595
 6138POPC   C3B76785  11.612  43.389   7.009
 6138POPC   C4B76786  11.570  43.372   7.534
 6139POPC   NC376787  21.874  42.913   5.292
 6139POPC   PO476788  22.472  43.191   5.423
 6139POPC   GL176789  22.301  42.961   5.745
 6139POPC   GL276790  21.961  43.057   5.808
 6139POPC   C1A76791  22.395  43.037   6.168
 6139POPC   D2A76792  22.467  43.225   6.539
 6139POPC   C3A76793  22.303  42.989   6.879
 6139POPC   C4A76794  22.062  43.043   7.218
 6139POPC   C1B76795  21.734  43.130   6.207
 6139POPC   C2B76796  21.832  43.140   6.650
 6139POPC   C3B76797  21.635  43.310   7.010
 6139POPC   C4B76798  21.617  43.176   7.428
 6140POPC   NC376799  18.634  10.557   5.445
 6140POPC   PO476800  18.006  10.918   5.466
 6140POPC   GL176801  18.213  10.608   5.801
 6140POPC   GL276802  18.427  10.303   5.841
 6140POPC   C1A76803  18.473  10.652   6.224
 6140POPC   D2A76804  18.303  10.795   6.650
 6140POPC   C3A76805  18.409  10.599   7.027
 6140POPC   C4A76806  18.142  10.273   7.124
 6140POPC   C1B76807  18.157  10.263   6.221
 6140POPC   C2B76808  18.389  10.248   6.624
 6140POPC   C3B76809  18.610  10.108   6.996
 6140POPC   C4B76810  18.621  10.190   7.448
 6141POPC   NC376811  43.226   6.050   5.473
 6141POPC   PO476812  42.828   5.537   5.495
 6141POPC   GL176813  43.101   5.771   5.869
 6141POPC   GL276814  43.375   6.063   5.952
 6141POPC   C1A76815  43.250   5.734   6.308
 6141POPC   D2A76816  43.205   6.052   6.614
 6141POPC   C3A76817  43.201   5.905   7.033
 6141POPC   C4A76818  43.327   6.180   7.338
 6141POPC   C1B76819  42.959   6.164   6.158
 6141POPC   C2B76820  42.852   6.423   6.484
 6141POPC   C3B76821  42.811   6.257   6.887
 6141POPC   C4B76822  42.741   6.387   7.280
 6142POPC   NC376823   6.248  26.555   5.761
 6142POPC   PO476824   5.569  26.822   5.589
 6142POPC   GL176825   5.850  26.840   5.938
 6142POPC   GL276826   6.100  27.090   5.919
 6142POPC   C1A76827   5.961  26.673   6.358
 6142POPC   D2A76828   5.732  26.417   6.649
 6142POPC   C3A76829   5.739  26.647   7.031
 6142POPC   C4A76830   5.986  26.692   7.436
 6142POPC   C1B76831   5.889  27.206   6.314
 6142POPC   C2B76832   5.894  27.071   6.757
 6142POPC   C3B76833   6.183  26.950   7.050
 6142POPC   C4B76834   6.443  27.095   7.374
 6143POPC   NC376835   0.276  26.343   5.399
 6143POPC   PO476836   0.791  25.895   5.426
 6143POPC   GL176837   0.410  25.816   5.740
 6143POPC   GL276838   0.243  26.141   5.850
 6143POPC   C1A76839   0.123  25.779   6.146
 6143POPC   D2A76840   0.104  26.027   6.517
 6143POPC   C3A76841   0.195  25.786   6.901
 6143POPC   C4A76842   0.128  25.940   7.319
 6143POPC   C1B76843   0.555  26.185   6.164
 6143POPC   C2B76844   0.493  26.375   6.571
 6143POPC   C3B76845   0.410  26.249   6.987
 6143POPC   C4B76846   0.680  26.227   7.331
 6144POPC   NC376847  34.469  38.239   5.402
 6144POPC   PO476848  33.730  38.408   5.440
 6144POPC   GL176849  33.898  38.555   5.818
 6144POPC   GL276850  34.171  38.786   5.800
 6144POPC   C1A76851  33.909  38.564   6.256
 6144POPC   D2A76852  33.611  38.407   6.558
 6144POPC   C3A76853  33.801  38.394   6.925
 6144POPC   C4A76854  33.632  38.396   7.302
 6144POPC   C1B76855  34.213  38.991   6.208
 6144POPC   C2B76856  34.352  38.921   6.642
 6144POPC   C3B76857  34.231  38.675   7.032
 6144POPC   C4B76858  34.113  38.387   7.361
 6145POPC   NC376859  35.258   6.619   5.312
 6145POPC   PO476860  35.854   6.841   5.387
 6145POPC   GL176861  35.630   6.607   5.695
 6145POPC   GL276862  35.301   6.777   5.795
 6145POPC   C1A76863  35.624   6.528   6.155
 6145POPC   D2A76864  35.672   6.688   6.606
 6145POPC   C3A76865  35.669   6.358   6.933
 6145POPC   C4A76866  35.531   6.251   7.372
 6145POPC   C1B76867  35.350   6.948   6.219
 6145POPC   C2B76868  35.149   6.774   6.589
 6145POPC   C3B76869  35.175   6.525   6.956
 6145POPC   C4B76870  35.202   6.638   7.347
 6146POPC   NC376871   7.268   9.312   5.400
 6146POPC   PO476872   7.363   9.978   5.393
 6146POPC   GL176873   7.368   9.722   5.736
 6146POPC   GL276874   7.557   9.997   5.875
 6146POPC   C1A76875   7.300   9.696   6.190
 6146POPC   D2A76876   7.461   9.975   6.510
 6146POPC   C3A76877   7.630   9.667   6.784
 6146POPC   C4A76878   7.523   9.376   7.100
 6146POPC   C1B76879   7.138  10.170   6.090
 6146POPC   C2B76880   7.086  10.412   6.487
 6146POPC   C3B76881   7.017  10.298   6.910
 6146POPC   C4B76882   7.263   9.949   7.024
 6147POPC   NC376883  18.126  21.986   5.502
 6147POPC   PO476884  18.685  22.470   5.453
 6147POPC   GL176885  18.622  22.154   5.757
 6147POPC   GL276886  18.325  22.342   5.868
 6147POPC   C1A76887  18.657  22.067   6.209
 6147POPC   D2A76888  18.501  22.271   6.591
 6147POPC   C3A76889  18.479  22.216   7.036
 6147POPC   C4A76890  18.130  22.415   7.270
 6147POPC   C1B76891  18.143  22.071   6.194
 6147POPC   C2B76892  18.094  21.936   6.631
 6147POPC   C3B76893  18.063  21.920   7.086
 6147POPC   C4B76894  17.919  21.913   7.514
 6148POPC   NC376895   4.286  15.729   5.428
 6148POPC   PO476896   4.194  16.406   5.359
 6148POPC   GL176897   4.373  16.154   5.742
 6148POPC   GL276898   4.070  16.027   5.839
 6148POPC   C1A76899   4.400  16.180   6.226
 6148POPC   D2A76900   4.342  16.459   6.621
 6148POPC   C3A76901   4.390  16.308   7.074
 6148POPC   C4A76902   4.160  16.009   7.318
 6148POPC   C1B76903   4.244  15.685   6.088
 6148POPC   C2B76904   4.419  15.653   6.483
 6148POPC   C3B76905   4.403  15.795   6.897
 6148POPC   C4B76906   4.452  15.574   7.272
 6149POPC   NC376907  39.670  41.431   5.669
 6149POPC   PO476908  39.031  41.509   5.407
 6149POPC   GL176909  39.193  41.615   5.828
 6149POPC   GL276910  39.090  41.326   5.996
 6149POPC   C1A76911  39.388  41.672   6.258
 6149POPC   D2A76912  39.515  41.924   6.597
 6149POPC   C3A76913  39.415  41.684   6.940
 6149POPC   C4A76914  39.303  41.787   7.344
 6149POPC   C1B76915  39.446  41.165   6.246
 6149POPC   C2B76916  39.665  41.356   6.598
 6149POPC   C3B76917  39.700  41.231   7.028
 6149POPC   C4B76918  39.301  41.279   7.240
 6150POPC   NC376919  33.654  15.261   5.337
 6150POPC   PO476920  34.159  14.751   5.447
 6150POPC   GL176921  34.096  14.901   5.869
 6150POPC   GL276922  33.750  15.061   5.834
 6150POPC   C1A76923  33.959  15.035   6.290
 6150POPC   D2A76924  33.780  15.221   6.659
 6150POPC   C3A76925  33.999  15.243   7.054
 6150POPC   C4A76926  34.084  14.878   7.296
 6150POPC   C1B76927  33.614  15.402   6.151
 6150POPC   C2B76928  33.371  15.489   6.547
 6150POPC   C3B76929  33.392  15.330   6.987
 6150POPC   C4B76930  33.574  15.326   7.398
 6151POPC   NC376931  42.892   7.002   5.229
 6151POPC   PO476932  43.226   6.383   5.139
 6151POPC   GL176933  43.211   6.548   5.596
 6151POPC   GL276934  42.869   6.590   5.744
 6151POPC   C1A76935  43.266   6.575   6.062
 6151POPC   D2A76936  43.249   6.749   6.487
 6151POPC   C3A76937  43.266   6.523   6.879
 6151POPC   C4A76938  43.242   6.682   7.301
 6151POPC   C1B76939  42.862   6.866   6.162
 6151POPC   C2B76940  42.882   7.087   6.587
 6151POPC   C3B76941  42.898   6.900   6.997
 6151POPC   C4B76942  42.695   6.892   7.416
 6152POPC   NC376943   0.165  14.576   5.400
 6152POPC   PO476944   0.871  14.602   5.437
 6152POPC   GL176945   0.723  14.429   5.788
 6152POPC   GL276946   0.393  14.538   5.845
 6152POPC   C1A76947   0.769  14.500   6.215
 6152POPC   D2A76948   0.723  14.530   6.630
 6152POPC   C3A76949   0.682  14.259   6.958
 6152POPC   C4A76950   0.450  14.223   7.319
 6152POPC   C1B76951   0.258  14.535   6.267
 6152POPC   C2B76952   0.243  14.269   6.622
 6152POPC   C3B76953   0.121  14.411   6.991
 6152POPC   C4B76954  44.783  14.522   7.237
 6153POPC   NC376955   4.760  26.495   5.508
 6153POPC   PO476956   4.262  26.110   5.448
 6153POPC   GL176957   4.360  25.942   5.848
 6153POPC   GL276958   4.595  26.144   5.887
 6153POPC   C1A76959   4.245  25.986   6.296
 6153POPC   D2A76960   4.376  26.054   6.735
 6153POPC   C3A76961   4.210  25.766   7.018
 6153POPC   C4A76962   3.910  25.857   7.348
 6153POPC   C1B76963   4.727  26.160   6.343
 6153POPC   C2B76964   4.852  25.884   6.692
 6153POPC   C3B76965   4.701  25.854   7.124
 6153POPC   C4B76966   4.411  25.768   7.479
 6154POPC   NC376967  20.156  29.329   5.375
 6154POPC   PO476968  19.525  29.144   5.304
 6154POPC   GL176969  19.647  29.153   5.760
 6154POPC   GL276970  20.036  29.201   5.844
 6154POPC   C1A76971  19.751  28.947   6.165
 6154POPC   D2A76972  20.064  29.067   6.470
 6154POPC   C3A76973  19.948  28.955   6.875
 6154POPC   C4A76974  20.214  29.042   7.246
 6154POPC   C1B76975  19.844  29.458   6.151
 6154POPC   C2B76976  19.693  29.401   6.592
 6154POPC   C3B76977  19.848  29.443   7.020
 6154POPC   C4B76978  19.717  29.100   7.313
 6155POPC   NC376979  39.719  16.835   5.485
 6155POPC   PO476980  40.211  16.281   5.501
 6155POPC   GL176981  40.003  16.521   5.831
 6155POPC   GL276982  40.045  16.908   5.852
 6155POPC   C1A76983  39.913  16.471   6.271
 6155POPC   D2A76984  39.810  16.217   6.623
 6155POPC   C3A76985  39.946  16.422   6.963
 6155POPC   C4A76986  40.157  16.749   7.198
 6155POPC   C1B76987  39.844  16.998   6.265
 6155POPC   C2B76988  39.925  16.922   6.732
 6155POPC   C3B76989  39.758  17.157   7.106
 6155POPC   C4B76990  39.456  17.178   7.471
 6156POPC   NC376991  36.820  16.191   5.478
 6156POPC   PO476992  37.246  15.643   5.537
 6156POPC   GL176993  36.957  15.835   5.816
 6156POPC   GL276994  36.613  15.743   5.773
 6156POPC   C1A76995  36.845  15.967   6.235
 6156POPC   D2A76996  37.156  15.942   6.574
 6156POPC   C3A76997  37.067  16.116   6.934
 6156POPC   C4A76998  36.675  16.142   7.138
 6156POPC   C1B76999  36.428  15.641   6.126
 6156POPC   C2B77000  36.668  15.527   6.452
 6156POPC   C3B77001  36.721  15.756   6.806
 6156POPC   C4B77002  36.691  15.640   7.220
 6157POPC   NC377003  42.572  32.597   5.457
 6157POPC   PO477004  42.102  32.192   5.646
 6157POPC   GL177005  42.379  32.384   5.906
 6157POPC   GL277006  42.716  32.236   5.806
 6157POPC   C1A77007  42.211  32.320   6.314
 6157POPC   D2A77008  42.059  32.057   6.617
 6157POPC   C3A77009  42.167  32.238   6.981
 6157POPC   C4A77010  42.021  32.383   7.376
 6157POPC   C1B77011  42.650  32.052   6.215
 6157POPC   C2B77012  42.600  32.188   6.642
 6157POPC   C3B77013  42.625  31.982   7.044
 6157POPC   C4B77014  42.494  32.244   7.369
 6158POPC   NC377015   7.165  31.566   5.188
 6158POPC   PO477016   6.568  31.717   5.274
 6158POPC   GL177017   6.570  31.423   5.649
 6158POPC   GL277018   6.676  31.663   5.858
 6158POPC   C1A77019   6.502  31.269   6.131
 6158POPC   D2A77020   6.382  31.397   6.587
 6158POPC   C3A77021   6.581  31.349   7.029
 6158POPC   C4A77022   6.528  31.205   7.530
 6158POPC   C1B77023   6.912  31.594   6.227
 6158POPC   C2B77024   6.842  31.657   6.661
 6158POPC   C3B77025   6.494  31.846   6.856
 6158POPC   C4B77026   6.218  31.791   7.174
 6159POPC   NC377027  43.843  44.319   5.573
 6159POPC   PO477028  43.924   0.004   5.584
 6159POPC   GL177029  43.771  44.706   5.906
 6159POPC   GL277030  44.060  44.500   6.010
 6159POPC   C1A77031  43.653  44.570   6.336
 6159POPC   D2A77032  43.810  44.762   6.731
 6159POPC   C3A77033  43.820  44.519   7.116
 6159POPC   C4A77034  43.527  44.433   7.442
 6159POPC   C1B77035  44.073  44.874   6.288
 6159POPC   C2B77036  44.207   0.079   6.683
 6159POPC   C3B77037  44.083  44.974   7.109
 6159POPC   C4B77038  44.251  44.921   7.515
 6160POPC   NC377039  33.426  16.376   5.334
 6160POPC   PO477040  33.813  15.701   5.393
 6160POPC   GL177041  33.771  15.805   5.823
 6160POPC   GL277042  33.940  16.135   5.817
 6160POPC   C1A77043  33.687  15.948   6.253
 6160POPC   D2A77044  33.895  16.144   6.601
 6160POPC   C3A77045  33.543  16.179   6.864
 6160POPC   C4A77046  33.274  16.369   7.138
 6160POPC   C1B77047  34.188  15.884   6.141
 6160POPC   C2B77048  34.009  15.622   6.471
 6160POPC   C3B77049  33.752  15.700   6.856
 6160POPC   C4B77050  33.928  16.021   7.159
 6161POPC   NC377051  14.452  35.343   5.368
 6161POPC   PO477052  13.955  34.851   5.554
 6161POPC   GL177053  14.200  35.170   5.836
 6161POPC   GL277054  14.527  35.371   5.850
 6161POPC   C1A77055  14.227  35.250   6.287
 6161POPC   D2A77056  14.432  35.067   6.622
 6161POPC   C3A77057  14.327  35.275   7.000
 6161POPC   C4A77058  14.486  35.064   7.351
 6161POPC   C1B77059  14.493  35.679   6.167
 6161POPC   C2B77060  14.560  35.551   6.564
 6161POPC   C3B77061  14.626  35.696   6.938
 6161POPC   C4B77062  14.527  35.600   7.326
 6162POPC   NC377063   0.345  32.559   5.293
 6162POPC   PO477064   0.407  31.877   5.362
 6162POPC   GL177065   0.305  31.962   5.794
 6162POPC   GL277066   0.198  32.334   5.809
 6162POPC   C1A77067   0.524  31.958   6.181
 6162POPC   D2A77068   0.611  32.201   6.539
 6162POPC   C3A77069   0.556  32.079   6.949
 6162POPC   C4A77070   0.635  32.243   7.348
 6162POPC   C1B77071   0.179  32.342   6.264
 6162POPC   C2B77072   0.118  32.262   6.718
 6162POPC   C3B77073   0.246  32.465   7.119
 6162POPC   C4B77074   0.251  32.382   7.633
 6163POPC   NC377075  13.944  38.548   5.625
 6163POPC   PO477076  14.629  38.541   5.450
 6163POPC   GL177077  14.599  38.447   5.867
 6163POPC   GL277078  14.273  38.262   5.926
 6163POPC   C1A77079  14.480  38.759   6.179
 6163POPC   D2A77080  14.397  38.939   6.594
 6163POPC   C3A77081  14.553  38.707   6.970
 6163POPC   C4A77082  14.553  38.271   7.076
 6163POPC   C1B77083  14.014  38.199   6.334
 6163POPC   C2B77084  13.812  38.387   6.702
 6163POPC   C3B77085  14.080  38.468   7.085
 6163POPC   C4B77086  14.014  38.424   7.539
 6164POPC   NC377087   6.900  35.048   5.621
 6164POPC   PO477088   6.750  35.688   5.401
 6164POPC   GL177089   6.688  35.513   5.817
 6164POPC   GL277090   6.392  35.768   5.801
 6164POPC   C1A77091   6.650  35.197   6.212
 6164POPC   D2A77092   6.471  35.031   6.631
 6164POPC   C3A77093   6.634  35.207   7.032
 6164POPC   C4A77094   6.630  35.181   7.497
 6164POPC   C1B77095   6.462  35.675   6.228
 6164POPC   C2B77096   6.520  35.531   6.611
 6164POPC   C3B77097   6.458  35.729   6.962
 6164POPC   C4B77098   6.641  35.656   7.321
 6165POPC   NC377099  33.930  42.404   5.340
 6165POPC   PO477100  33.359  42.634   5.447
 6165POPC   GL177101  33.721  42.538   5.794
 6165POPC   GL277102  33.706  42.240   5.811
 6165POPC   C1A77103  33.945  42.420   6.243
 6165POPC   D2A77104  33.788  42.487   6.652
 6165POPC   C3A77105  33.972  42.424   7.069
 6165POPC   C4A77106  33.637  42.558   7.352
 6165POPC   C1B77107  33.523  42.140   6.196
 6165POPC   C2B77108  33.399  41.946   6.561
 6165POPC   C3B77109  33.566  42.104   6.909
 6165POPC   C4B77110  33.728  42.055   7.287
 6166POPC   NC377111  21.970  18.192   5.162
 6166POPC   PO477112  22.347  18.256   5.628
 6166POPC   GL177113  22.022  18.431   5.877
 6166POPC   GL277114  21.771  18.282   5.683
 6166POPC   C1A77115  22.012  18.665   6.253
 6166POPC   D2A77116  22.134  18.673   6.667
 6166POPC   C3A77117  21.928  18.606   7.048
 6166POPC   C4A77118  22.251  18.372   7.288
 6166POPC   C1B77119  21.825  18.003   6.069
 6166POPC   C2B77120  21.990  18.178   6.426
 6166POPC   C3B77121  22.094  18.158   6.841
 6166POPC   C4B77122  21.894  17.969   7.173
 6167POPC   NC377123  40.375   6.259   5.715
 6167POPC   PO477124  39.729   6.443   5.438
 6167POPC   GL177125  39.880   6.431   5.843
 6167POPC   GL277126  39.621   6.260   5.947
 6167POPC   C1A77127  39.940   6.671   6.241
 6167POPC   D2A77128  40.229   6.736   6.584
 6167POPC   C3A77129  40.202   6.429   6.935
 6167POPC   C4A77130  40.212   6.541   7.360
 6167POPC   C1B77131  39.447   6.513   6.281
 6167POPC   C2B77132  39.544   6.785   6.658
 6167POPC   C3B77133  39.789   6.708   7.047
 6167POPC   C4B77134  39.716   6.490   7.453
 6168POPC   NC377135  25.201  13.222   5.542
 6168POPC   PO477136  25.204  12.564   5.295
 6168POPC   GL177137  25.385  12.646   5.756
 6168POPC   GL277138  25.552  12.973   5.838
 6168POPC   C1A77139  25.290  12.724   6.224
 6168POPC   D2A77140  25.025  12.661   6.579
 6168POPC   C3A77141  25.150  12.851   6.928
 6168POPC   C4A77142  25.116  12.690   7.309
 6168POPC   C1B77143  25.750  12.911   6.275
 6168POPC   C2B77144  25.631  12.740   6.704
 6168POPC   C3B77145  25.611  12.871   7.135
 6168POPC   C4B77146  25.588  13.310   7.268
 6169POPC   NC377147   2.238  14.650   5.136
 6169POPC   PO477148   2.817  14.287   5.367
 6169POPC   GL177149   2.682  14.257   5.772
 6169POPC   GL277150   2.974  14.341   5.928
 6169POPC   C1A77151   2.469  14.261   6.150
 6169POPC   D2A77152   2.402  14.407   6.527
 6169POPC   C3A77153   2.556  14.269   6.877
 6169POPC   C4A77154   2.366  14.428   7.212
 6169POPC   C1B77155   2.773  14.645   6.211
 6169POPC   C2B77156   2.771  14.770   6.626
 6169POPC   C3B77157   2.824  14.658   7.065
 6169POPC   C4B77158   2.595  14.838   7.380
 6170POPC   NC377159   9.883  34.997   5.317
 6170POPC   PO477160   9.567  34.370   5.459
 6170POPC   GL177161   9.681  34.468   5.846
 6170POPC   GL277162   9.840  34.758   5.796
 6170POPC   C1A77163   9.594  34.622   6.252
 6170POPC   D2A77164   9.666  34.390   6.608
 6170POPC   C3A77165   9.659  34.538   7.004
 6170POPC   C4A77166   9.661  34.231   7.332
 6170POPC   C1B77167  10.050  34.919   6.183
 6170POPC   C2B77168   9.912  34.862   6.615
 6170POPC   C3B77169  10.047  34.866   7.052
 6170POPC   C4B77170  10.372  34.722   7.314
 6171POPC   NC377171  42.308  43.937   5.393
 6171POPC   PO477172  42.822  43.582   5.427
 6171POPC   GL177173  42.539  43.697   5.811
 6171POPC   GL277174  42.179  43.875   5.886
 6171POPC   C1A77175  42.563  43.898   6.230
 6171POPC   D2A77176  42.548  43.827   6.675
 6171POPC   C3A77177  42.190  43.662   6.888
 6171POPC   C4A77178  42.264  43.431   7.222
 6171POPC   C1B77179  42.137  44.209   6.236
 6171POPC   C2B77180  41.998  44.239   6.682
 6171POPC   C3B77181  42.272  44.131   7.048
 6171POPC   C4B77182  42.678  44.145   7.153
 6172POPC   NC377183  27.051   6.082   5.274
 6172POPC   PO477184  26.613   5.645   5.554
 6172POPC   GL177185  26.826   5.838   5.893
 6172POPC   GL277186  27.136   5.947   5.756
 6172POPC   C1A77187  26.829   5.888   6.343
 6172POPC   D2A77188  26.778   6.180   6.672
 6172POPC   C3A77189  26.635   5.886   6.955
 6172POPC   C4A77190  26.837   5.519   7.141
 6172POPC   C1B77191  27.163   6.181   6.095
 6172POPC   C2B77192  27.303   6.042   6.478
 6172POPC   C3B77193  27.118   5.813   6.773
 6172POPC   C4B77194  27.092   5.947   7.149
 6173POPC   NC377195   3.272   6.376   5.297
 6173POPC   PO477196   3.511   7.054   5.315
 6173POPC   GL177197   3.588   6.879   5.725
 6173POPC   GL277198   3.683   6.516   5.711
 6173POPC   C1A77199   3.378   6.724   6.097
 6173POPC   D2A77200   3.516   6.680   6.507
 6173POPC   C3A77201   3.351   6.697   6.914
 6173POPC   C4A77202   3.684   6.767   7.228
 6173POPC   C1B77203   3.796   6.269   6.083
 6173POPC   C2B77204   3.659   6.187   6.499
 6173POPC   C3B77205   3.772   6.349   6.911
 6173POPC   C4B77206   3.915   6.310   7.353
 6174POPC   NC377207  20.293  25.491   5.481
 6174POPC   PO477208  20.861  25.103   5.317
 6174POPC   GL177209  20.607  25.105   5.696
 6174POPC   GL277210  20.769  25.424   5.794
 6174POPC   C1A77211  20.418  24.918   6.106
 6174POPC   D2A77212  20.491  24.696   6.524
 6174POPC   C3A77213  20.338  24.894   6.899
 6174POPC   C4A77214  20.471  25.106   7.231
 6174POPC   C1B77215  21.089  25.505   6.143
 6174POPC   C2B77216  21.164  25.414   6.602
 6174POPC   C3B77217  20.897  25.574   6.962
 6174POPC   C4B77218  20.783  25.469   7.426
 6175POPC   NC377219   6.837   3.288   5.530
 6175POPC   PO477220   6.464   3.798   5.542
 6175POPC   GL177221   6.563   3.603   5.888
 6175POPC   GL277222   6.423   3.275   5.839
 6175POPC   C1A77223   6.689   3.740   6.282
 6175POPC   D2A77224   6.927   3.619   6.624
 6175POPC   C3A77225   6.679   3.698   6.960
 6175POPC   C4A77226   6.573   3.557   7.374
 6175POPC   C1B77227   6.728   3.223   6.190
 6175POPC   C2B77228   6.548   3.293   6.592
 6175POPC   C3B77229   6.538   3.201   7.014
 6175POPC   C4B77230   6.188   3.111   7.249
 6176POPC   NC377231  22.984  19.306   5.470
 6176POPC   PO477232  22.622  18.794   5.431
 6176POPC   GL177233  22.713  19.005   5.769
 6176POPC   GL277234  22.506  19.312   5.678
 6176POPC   C1A77235  22.980  18.962   6.146
 6176POPC   D2A77236  22.997  18.648   6.487
 6176POPC   C3A77237  23.064  18.928   6.837
 6176POPC   C4A77238  22.871  19.025   7.233
 6176POPC   C1B77239  22.561  19.267   6.153
 6176POPC   C2B77240  22.799  19.321   6.529
 6176POPC   C3B77241  22.648  19.380   6.942
 6176POPC   C4B77242  22.811  19.517   7.337
 6177POPC   NC377243  33.239  24.499   5.503
 6177POPC   PO477244  32.612  24.496   5.585
 6177POPC   GL177245  32.870  24.313   5.858
 6177POPC   GL277246  32.960  24.658   5.944
 6177POPC   C1A77247  32.894  24.265   6.302
 6177POPC   D2A77248  32.924  24.615   6.567
 6177POPC   C3A77249  32.791  24.501   6.951
 6177POPC   C4A77250  32.561  24.186   7.162
 6177POPC   C1B77251  33.290  24.773   6.220
 6177POPC   C2B77252  33.448  24.637   6.616
 6177POPC   C3B77253  33.307  24.463   6.996
 6177POPC   C4B77254  33.492  24.425   7.415
 6178POPC   NC377255   8.738  40.388   5.490
 6178POPC   PO477256   8.954  39.730   5.408
 6178POPC   GL177257   9.077  39.800   5.857
 6178POPC   GL277258   8.945  40.126   5.908
 6178POPC   C1A77259   9.135  39.929   6.331
 6178POPC   D2A77260   9.226  40.217   6.688
 6178POPC   C3A77261   9.365  40.056   7.114
 6178POPC   C4A77262   9.605  40.115   7.522
 6178POPC   C1B77263   8.653  39.844   6.190
 6178POPC   C2B77264   8.740  39.758   6.629
 6178POPC   C3B77265   8.627  39.876   7.047
 6178POPC   C4B77266   8.904  40.143   7.271
 6179POPC   NC377267  23.475  25.714   5.765
 6179POPC   PO477268  23.278  25.346   5.196
 6179POPC   GL177269  23.329  25.235   5.701
 6179POPC   GL277270  23.723  25.180   5.786
 6179POPC   C1A77271  23.448  25.195   6.194
 6179POPC   D2A77272  23.645  25.483   6.540
 6179POPC   C3A77273  23.434  25.472   6.955
 6179POPC   C4A77274  23.337  25.038   7.096
 6179POPC   C1B77275  23.934  25.014   6.177
 6179POPC   C2B77276  23.763  24.979   6.611
 6179POPC   C3B77277  23.839  25.134   7.032
 6179POPC   C4B77278  23.864  25.157   7.478
 6180POPC   NC377279  43.600  27.037   5.389
 6180POPC   PO477280  44.061  26.556   5.469
 6180POPC   GL177281  43.918  26.884   5.755
 6180POPC   GL277282  43.563  26.802   5.831
 6180POPC   C1A77283  43.839  27.071   6.169
 6180POPC   D2A77284  43.943  26.901   6.560
 6180POPC   C3A77285  43.868  27.144   6.903
 6180POPC   C4A77286  43.844  27.084   7.312
 6180POPC   C1B77287  43.799  26.550   6.153
 6180POPC   C2B77288  43.659  26.354   6.518
 6180POPC   C3B77289  43.743  26.532   6.900
 6180POPC   C4B77290  43.638  26.620   7.286
 6181POPC   NC377291  24.631  10.233   5.286
 6181POPC   PO477292  24.781   9.534   5.378
 6181POPC   GL177293  24.563   9.450   5.848
 6181POPC   GL277294  24.290   9.732   6.003
 6181POPC   C1A77295  24.694   9.604   6.273
 6181POPC   D2A77296  24.491   9.603   6.666
 6181POPC   C3A77297  24.678   9.781   7.032
 6181POPC   C4A77298  25.059   9.595   7.133
 6181POPC   C1B77299  24.174   9.421   6.278
 6181POPC   C2B77300  24.019   9.402   6.694
 6181POPC   C3B77301  24.214   9.532   7.084
 6181POPC   C4B77302  24.238   9.982   7.238
 6182POPC   NC377303  31.571   6.409   5.273
 6182POPC   PO477304  31.116   6.882   5.333
 6182POPC   GL177305  31.425   6.760   5.678
 6182POPC   GL277306  31.253   6.465   5.704
 6182POPC   C1A77307  31.629   6.701   6.122
 6182POPC   D2A77308  31.747   6.567   6.574
 6182POPC   C3A77309  31.547   6.677   6.987
 6182POPC   C4A77310  31.364   7.014   7.207
 6182POPC   C1B77311  31.243   6.359   6.116
 6182POPC   C2B77312  31.373   6.204   6.502
 6182POPC   C3B77313  31.223   6.243   6.892
 6182POPC   C4B77314  31.165   6.289   7.302
 6183POPC   NC377315  39.365   9.369   5.588
 6183POPC   PO477316  38.776   9.201   5.486
 6183POPC   GL177317  38.942   9.486   5.860
 6183POPC   GL277318  39.183   9.770   5.844
 6183POPC   C1A77319  39.230   9.439   6.256
 6183POPC   D2A77320  39.405   9.552   6.697
 6183POPC   C3A77321  39.113   9.663   7.070
 6183POPC   C4A77322  38.922   9.886   7.447
 6183POPC   C1B77323  39.538   9.890   6.145
 6183POPC   C2B77324  39.722  10.176   6.478
 6183POPC   C3B77325  39.651  10.147   6.927
 6183POPC   C4B77326  39.603   9.760   7.149
 6184POPC   NC377327  32.068  15.713   5.555
 6184POPC   PO477328  32.623  15.356   5.760
 6184POPC   GL177329  32.273  15.427   5.957
 6184POPC   GL277330  32.052  15.221   5.753
 6184POPC   C1A77331  32.384  15.339   6.391
 6184POPC   D2A77332  32.436  14.937   6.597
 6184POPC   C3A77333  32.579  14.990   6.984
 6184POPC   C4A77334  32.490  15.319   7.252
 6184POPC   C1B77335  31.980  15.058   6.187
 6184POPC   C2B77336  31.965  15.163   6.626
 6184POPC   C3B77337  31.808  15.199   7.038
 6184POPC   C4B77338  32.101  14.953   7.270
 6185POPC   NC377339   1.274  14.492   5.281
 6185POPC   PO477340   1.739  14.111   5.508
 6185POPC   GL177341   1.356  14.243   5.725
 6185POPC   GL277342   1.047  14.050   5.610
 6185POPC   C1A77343   1.293  14.531   6.100
 6185POPC   D2A77344   1.392  14.646   6.557
 6185POPC   C3A77345   1.141  14.523   6.946
 6185POPC   C4A77346   1.401  14.298   7.270
 6185POPC   C1B77347   1.003  14.079   6.060
 6185POPC   C2B77348   1.129  14.218   6.472
 6185POPC   C3B77349   1.397  14.114   6.789
 6185POPC   C4B77350   1.261  13.836   7.118
 6186POPC   NC377351  14.020  14.965   5.533
 6186POPC   PO477352  13.376  14.916   5.422
 6186POPC   GL177353  13.557  14.938   5.849
 6186POPC   GL277354  13.822  15.205   5.921
 6186POPC   C1A77355  13.551  15.008   6.296
 6186POPC   D2A77356  13.782  15.083   6.666
 6186POPC   C3A77357  13.655  15.327   7.015
 6186POPC   C4A77358  13.700  14.995   7.259
 6186POPC   C1B77359  14.112  15.160   6.260
 6186POPC   C2B77360  14.284  15.063   6.656
 6186POPC   C3B77361  14.157  15.115   7.068
 6186POPC   C4B77362  14.066  15.469   7.339
 6187POPC   NC377363  17.092  39.159   5.121
 6187POPC   PO477364  17.494  38.924   5.570
 6187POPC   GL177365  17.502  39.171   5.933
 6187POPC   GL277366  17.202  39.258   5.852
 6187POPC   C1A77367  17.424  39.259   6.386
 6187POPC   D2A77368  17.658  39.078   6.685
 6187POPC   C3A77369  17.659  39.198   7.059
 6187POPC   C4A77370  17.463  39.441   7.334
 6187POPC   C1B77371  17.050  38.978   6.189
 6187POPC   C2B77372  16.932  39.005   6.595
 6187POPC   C3B77373  17.154  39.064   6.981
 6187POPC   C4B77374  17.112  39.115   7.460
 6188POPC   NC377375   6.858   2.032   5.235
 6188POPC   PO477376   6.230   2.050   5.395
 6188POPC   GL177377   6.566   2.123   5.713
 6188POPC   GL277378   6.773   1.808   5.712
 6188POPC   C1A77379   6.654   2.166   6.166
 6188POPC   D2A77380   6.461   1.983   6.552
 6188POPC   C3A77381   6.787   1.922   6.865
 6188POPC   C4A77382   6.891   2.197   7.178
 6188POPC   C1B77383   6.594   1.661   6.115
 6188POPC   C2B77384   6.562   1.472   6.555
 6188POPC   C3B77385   6.391   1.612   6.957
 6188POPC   C4B77386   6.558   1.783   7.351
 6189POPC   NC377387  30.769  25.608   5.527
 6189POPC   PO477388  31.216  25.028   5.477
 6189POPC   GL177389  30.824  25.178   5.847
 6189POPC   GL277390  30.525  25.397   5.898
 6189POPC   C1A77391  30.825  25.409   6.286
 6189POPC   D2A77392  30.698  25.534   6.716
 6189POPC   C3A77393  30.701  25.183   6.957
 6189POPC   C4A77394  30.511  24.927   7.228
 6189POPC   C1B77395  30.469  25.050   6.202
 6189POPC   C2B77396  30.343  24.973   6.632
 6189POPC   C3B77397  30.153  25.203   6.969
 6189POPC   C4B77398  30.346  25.552   7.176
 6190POPC   NC377399  32.204   6.190   5.509
 6190POPC   PO477400  31.792   5.654   5.293
 6190POPC   GL177401  32.017   5.750   5.707
 6190POPC   GL277402  32.381   5.619   5.717
 6190POPC   C1A77403  32.188   5.937   6.119
 6190POPC   D2A77404  32.413   6.119   6.485
 6190POPC   C3A77405  32.217   6.077   6.896
 6190POPC   C4A77406  32.343   6.223   7.278
 6190POPC   C1B77407  32.450   5.482   6.164
 6190POPC   C2B77408  32.240   5.639   6.553
 6190POPC   C3B77409  32.166   5.571   6.984
 6190POPC   C4B77410  32.464   5.703   7.305
 6191POPC   NC377411  15.485  44.652   5.331
 6191POPC   PO477412  15.916   0.047   5.043
 6191POPC   GL177413  15.868  44.864   5.628
 6191POPC   GL277414  16.090  44.818   5.953
 6191POPC   C1A77415  15.640  44.893   6.140
 6191POPC   D2A77416  15.914  44.972   6.548
 6191POPC   C3A77417  15.907  44.746   6.962
 6191POPC   C4A77418  15.985  44.824   7.429
 6191POPC   C1B77419  15.923  44.488   6.308
 6191POPC   C2B77420  15.920  44.279   6.762
 6191POPC   C3B77421  16.114  44.333   7.210
 6191POPC   C4B77422  16.128  44.416   7.692
 6192POPC   NC377423  15.329  10.933   5.410
 6192POPC   PO477424  14.931  11.495   5.352
 6192POPC   GL177425  15.200  11.526   5.696
 6192POPC   GL277426  15.383  11.230   5.827
 6192POPC   C1A77427  15.093  11.617   6.113
 6192POPC   D2A77428  15.294  11.523   6.508
 6192POPC   C3A77429  15.107  11.565   6.909
 6192POPC   C4A77430  15.207  11.219   7.187
 6192POPC   C1B77431  15.157  11.101   6.219
 6192POPC   C2B77432  15.120  11.033   6.683
 6192POPC   C3B77433  14.923  10.800   7.022
 6192POPC   C4B77434  14.812  10.975   7.400
 6193POPC   NC377435  32.204  19.468   5.176
 6193POPC   PO477436  32.369  18.824   5.304
 6193POPC   GL177437  32.242  19.118   5.756
 6193POPC   GL277438  32.092  19.401   5.877
 6193POPC   C1A77439  32.372  19.127   6.217
 6193POPC   D2A77440  32.535  18.947   6.590
 6193POPC   C3A77441  32.296  18.929   6.951
 6193POPC   C4A77442  32.336  18.868   7.378
 6193POPC   C1B77443  32.119  19.554   6.321
 6193POPC   C2B77444  32.021  19.294   6.681
 6193POPC   C3B77445  32.057  19.346   7.126
 6193POPC   C4B77446  32.270  19.331   7.552
 6194POPC   NC377447   6.274   2.512   5.499
 6194POPC   PO477448   6.864   2.816   5.509
 6194POPC   GL177449   6.798   2.619   5.891
 6194POPC   GL277450   6.496   2.776   5.889
 6194POPC   C1A77451   6.693   2.645   6.341
 6194POPC   D2A77452   6.671   2.424   6.720
 6194POPC   C3A77453   6.969   2.658   6.974
 6194POPC   C4A77454   6.903   2.920   7.305
 6194POPC   C1B77455   6.299   2.964   6.249
 6194POPC   C2B77456   6.327   2.829   6.686
 6194POPC   C3B77457   6.476   2.703   7.102
 6194POPC   C4B77458   6.237   2.615   7.420
 6195POPC   NC377459  10.400  21.204   5.419
 6195POPC   PO477460  10.683  21.781   5.407
 6195POPC   GL177461  10.672  21.454   5.762
 6195POPC   GL277462  10.822  21.092   5.682
 6195POPC   C1A77463  10.495  21.344   6.180
 6195POPC   D2A77464  10.336  21.373   6.619
 6195POPC   C3A77465  10.521  21.497   7.004
 6195POPC   C4A77466  10.424  21.354   7.414
 6195POPC   C1B77467  10.778  20.918   6.094
 6195POPC   C2B77468  10.588  20.929   6.510
 6195POPC   C3B77469  10.683  20.995   6.942
 6195POPC   C4B77470  11.017  20.759   7.132
 6196POPC   NC377471  38.425  34.392   5.275
 6196POPC   PO477472  38.550  35.010   5.481
 6196POPC   GL177473  38.320  34.733   5.774
 6196POPC   GL277474  38.584  34.496   5.753
 6196POPC   C1A77475  38.195  34.727   6.225
 6196POPC   D2A77476  38.478  34.765   6.594
 6196POPC   C3A77477  38.455  34.557   6.976
 6196POPC   C4A77478  38.190  34.367   7.267
 6196POPC   C1B77479  38.703  34.532   6.187
 6196POPC   C2B77480  38.696  34.237   6.538
 6196POPC   C3B77481  38.774  34.111   6.950
 6196POPC   C4B77482  38.771  34.337   7.318
 6197POPC   NC377483  30.177   2.954   5.585
 6197POPC   PO477484  29.762   2.623   5.206
 6197POPC   GL177485  29.919   2.529   5.725
 6197POPC   GL277486  29.792   2.852   5.913
 6197POPC   C1A77487  29.976   2.563   6.254
 6197POPC   D2A77488  29.694   2.770   6.615
 6197POPC   C3A77489  29.746   2.624   7.059
 6197POPC   C4A77490  30.118   2.578   7.323
 6197POPC   C1B77491  29.751   3.139   6.239
 6197POPC   C2B77492  29.585   3.291   6.639
 6197POPC   C3B77493  29.633   3.165   7.037
 6197POPC   C4B77494  29.956   3.049   7.300
 6198POPC   NC377495  18.427  13.919   5.315
 6198POPC   PO477496  17.899  14.312   5.497
 6198POPC   GL177497  18.080  13.901   5.764
 6198POPC   GL277498  18.465  13.794   5.818
 6198POPC   C1A77499  18.137  13.724   6.215
 6198POPC   D2A77500  17.914  13.768   6.624
 6198POPC   C3A77501  18.100  13.790   7.036
 6198POPC   C4A77502  18.040  13.575   7.420
 6198POPC   C1B77503  18.603  13.509   6.174
 6198POPC   C2B77504  18.600  13.588   6.633
 6198POPC   C3B77505  18.542  13.522   7.068
 6198POPC   C4B77506  18.566  13.589   7.504
 6199POPC   NC377507  17.221  40.838   5.348
 6199POPC   PO477508  17.876  40.555   5.274
 6199POPC   GL177509  17.598  40.603   5.682
 6199POPC   GL277510  17.215  40.564   5.781
 6199POPC   C1A77511  17.529  40.752   6.133
 6199POPC   D2A77512  17.238  40.577   6.442
 6199POPC   C3A77513  17.379  40.299   6.784
 6199POPC   C4A77514  17.629  40.366   7.168
 6199POPC   C1B77515  17.054  40.935   6.059
 6199POPC   C2B77516  17.141  41.059   6.506
 6199POPC   C3B77517  16.979  40.789   6.856
 6199POPC   C4B77518  16.762  40.956   7.239
 6200POPC   NC377519  12.762  26.263   5.384
 6200POPC   PO477520  13.317  26.391   5.733
 6200POPC   GL177521  12.947  26.170   5.867
 6200POPC   GL277522  12.754  25.875   5.721
 6200POPC   C1A77523  12.797  26.141   6.272
 6200POPC   D2A77524  12.518  26.354   6.544
 6200POPC   C3A77525  12.725  26.172   6.882
 6200POPC   C4A77526  12.896  26.264   7.272
 6200POPC   C1B77527  12.773  25.661   6.116
 6200POPC   C2B77528  12.986  25.666   6.517
 6200POPC   C3B77529  13.002  25.718   6.951
 6200POPC   C4B77530  12.781  25.782   7.331
 6201POPC   NC377531  32.100  11.696   5.294
 6201POPC   PO477532  32.408  12.272   5.604
 6201POPC   GL177533  32.255  12.012   5.861
 6201POPC   GL277534  31.938  11.973   5.791
 6201POPC   C1A77535  32.206  11.935   6.282
 6201POPC   D2A77536  32.187  12.152   6.667
 6201POPC   C3A77537  32.343  11.985   7.049
 6201POPC   C4A77538  32.504  11.961   7.462
 6201POPC   C1B77539  31.827  12.272   6.169
 6201POPC   C2B77540  31.878  12.543   6.574
 6201POPC   C3B77541  31.890  12.388   7.006
 6201POPC   C4B77542  31.852  11.957   7.138
 6202POPC   NC377543  37.327  40.610   5.386
 6202POPC   PO477544  37.023  41.202   5.301
 6202POPC   GL177545  36.832  41.032   5.702
 6202POPC   GL277546  36.680  40.688   5.691
 6202POPC   C1A77547  36.968  40.867   6.111
 6202POPC   D2A77548  37.193  40.787   6.518
 6202POPC   C3A77549  36.980  40.911   6.889
 6202POPC   C4A77550  36.970  40.778   7.275
 6202POPC   C1B77551  36.647  40.441   6.069
 6202POPC   C2B77552  36.706  40.590   6.485
 6202POPC   C3B77553  36.806  40.409   6.871
 6202POPC   C4B77554  36.672  40.365   7.278
 6203POPC   NC377555  29.296  17.183   5.352
 6203POPC   PO477556  28.729  17.593   5.372
 6203POPC   GL177557  29.078  17.514   5.673
 6203POPC   GL277558  29.218  17.834   5.732
 6203POPC   C1A77559  29.283  17.397   6.083
 6203POPC   D2A77560  29.359  17.237   6.535
 6203POPC   C3A77561  29.127  17.428   6.901
 6203POPC   C4A77562  29.195  17.276   7.319
 6203POPC   C1B77563  29.417  17.910   6.131
 6203POPC   C2B77564  29.323  17.749   6.535
 6203POPC   C3B77565  29.540  17.750   6.926
 6203POPC   C4B77566  29.304  17.769   7.301
 6204POPC   NC377567  39.955  32.719   5.406
 6204POPC   PO477568  40.344  33.263   5.568
 6204POPC   GL177569  40.055  32.952   5.850
 6204POPC   GL277570  40.124  32.578   5.873
 6204POPC   C1A77571  39.796  32.807   6.228
 6204POPC   D2A77572  39.979  33.038   6.581
 6204POPC   C3A77573  40.013  33.012   7.030
 6204POPC   C4A77574  39.910  33.414   7.211
 6204POPC   C1B77575  40.303  32.708   6.277
 6204POPC   C2B77576  40.297  32.676   6.738
 6204POPC   C3B77577  40.483  32.794   7.150
 6204POPC   C4B77578  40.440  32.686   7.639
 6205POPC   NC377579  10.645  28.060   5.470
 6205POPC   PO477580  10.411  28.710   5.551
 6205POPC   GL177581  10.423  28.471   5.917
 6205POPC   GL277582  10.478  28.122   5.946
 6205POPC   C1A77583  10.465  28.522   6.344
 6205POPC   D2A77584  10.613  28.786   6.638
 6205POPC   C3A77585  10.373  28.674   6.937
 6205POPC   C4A77586  10.493  28.515   7.274
 6205POPC   C1B77587  10.589  28.029   6.371
 6205POPC   C2B77588  10.584  28.227   6.772
 6205POPC   C3B77589  10.749  28.102   7.158
 6205POPC   C4B77590  11.084  28.030   7.404
 6206POPC   NC377591  17.242  30.502   5.488
 6206POPC   PO477592  17.435  31.182   5.524
 6206POPC   GL177593  17.453  30.837   5.878
 6206POPC   GL277594  17.489  30.439   5.931
 6206POPC   C1A77595  17.756  30.767   6.212
 6206POPC   D2A77596  17.908  31.074   6.478
 6206POPC   C3A77597  17.919  30.978   6.922
 6206POPC   C4A77598  17.880  30.602   7.190
 6206POPC   C1B77599  17.334  30.519   6.361
 6206POPC   C2B77600  17.535  30.652   6.728
 6206POPC   C3B77601  17.393  30.763   7.135
 6206POPC   C4B77602  17.473  30.536   7.511
 6207POPC   NC377603  37.352   9.347   5.580
 6207POPC   PO477604  37.250   8.679   5.614
 6207POPC   GL177605  37.557   8.834   5.890
 6207POPC   GL277606  37.933   8.760   5.878
 6207POPC   C1A77607  37.657   8.783   6.314
 6207POPC   D2A77608  37.808   8.958   6.667
 6207POPC   C3A77609  37.787   8.757   7.027
 6207POPC   C4A77610  37.363   8.801   7.155
 6207POPC   C1B77611  38.063   9.086   6.213
 6207POPC   C2B77612  38.206   9.259   6.646
 6207POPC   C3B77613  37.987   9.261   7.063
 6207POPC   C4B77614  38.115   9.045   7.441
 6208POPC   NC377615  21.809   6.773   5.415
 6208POPC   PO477616  22.436   6.553   5.460
 6208POPC   GL177617  22.173   6.602   5.811
 6208POPC   GL277618  21.977   6.900   5.880
 6208POPC   C1A77619  22.304   6.744   6.242
 6208POPC   D2A77620  22.274   6.909   6.658
 6208POPC   C3A77621  22.374   6.613   6.975
 6208POPC   C4A77622  22.217   6.671   7.405
 6208POPC   C1B77623  21.819   6.580   6.176
 6208POPC   C2B77624  21.716   6.566   6.594
 6208POPC   C3B77625  21.853   6.609   6.996
 6208POPC   C4B77626  21.601   6.427   7.327
 6209POPC   NC377627  16.675  26.527   5.277
 6209POPC   PO477628  17.091  27.067   5.162
 6209POPC   GL177629  16.924  26.892   5.610
 6209POPC   GL277630  16.724  26.591   5.777
 6209POPC   C1A77631  16.823  27.008   6.078
 6209POPC   D2A77632  17.000  26.991   6.524
 6209POPC   C3A77633  16.770  27.153   6.918
 6209POPC   C4A77634  17.048  27.235   7.269
 6209POPC   C1B77635  16.499  26.485   6.178
 6209POPC   C2B77636  16.331  26.405   6.633
 6209POPC   C3B77637  16.570  26.550   7.010
 6209POPC   C4B77638  16.937  26.740   7.157
 6210POPC   NC377639  43.031  18.626   5.547
 6210POPC   PO477640  43.504  18.194   5.310
 6210POPC   GL177641  43.467  18.396   5.755
 6210POPC   GL277642  43.496  18.076   5.887
 6210POPC   C1A77643  43.198  18.461   6.181
 6210POPC   D2A77644  42.955  18.626   6.541
 6210POPC   C3A77645  42.749  18.402   6.850
 6210POPC   C4A77646  42.851  18.436   7.275
 6210POPC   C1B77647  43.238  17.927   6.215
 6210POPC   C2B77648  43.020  18.071   6.570
 6210POPC   C3B77649  43.078  18.010   7.025
 6210POPC   C4B77650  43.282  17.908   7.412
 6211POPC   NC377651  19.064  24.462   5.422
 6211POPC   PO477652  18.521  24.899   5.239
 6211POPC   GL177653  18.691  24.829   5.794
 6211POPC   GL277654  19.029  24.648   5.901
 6211POPC   C1A77655  18.726  24.596   6.272
 6211POPC   D2A77656  19.088  24.357   6.453
 6211POPC   C3A77657  19.067  24.314   6.885
 6211POPC   C4A77658  18.851  24.587   7.159
 6211POPC   C1B77659  19.337  24.770   6.225
 6211POPC   C2B77660  19.535  24.652   6.624
 6211POPC   C3B77661  19.406  24.653   7.078
 6211POPC   C4B77662  19.233  24.335   7.409
 6212POPC   NC377663   9.990  16.335   5.479
 6212POPC   PO477664   9.628  16.898   5.493
 6212POPC   GL177665   9.731  16.636   5.846
 6212POPC   GL277666  10.107  16.611   5.890
 6212POPC   C1A77667   9.819  16.806   6.256
 6212POPC   D2A77668  10.011  16.933   6.630
 6212POPC   C3A77669   9.710  17.024   6.932
 6212POPC   C4A77670   9.641  16.870   7.332
 6212POPC   C1B77671  10.196  16.460   6.337
 6212POPC   C2B77672  10.254  16.505   6.812
 6212POPC   C3B77673  10.094  16.748   7.169
 6212POPC   C4B77674  10.073  16.703   7.656
 6213POPC   NC377675   9.488  17.330   5.384
 6213POPC   PO477676  10.054  17.785   5.316
 6213POPC   GL177677   9.804  17.570   5.734
 6213POPC   GL277678   9.434  17.454   5.871
 6213POPC   C1A77679   9.813  17.352   6.185
 6213POPC   D2A77680   9.603  17.448   6.598
 6213POPC   C3A77681   9.845  17.544   6.968
 6213POPC   C4A77682  10.013  17.268   7.281
 6213POPC   C1B77683   9.463  17.777   6.208
 6213POPC   C2B77684   9.521  17.997   6.643
 6213POPC   C3B77685   9.402  17.812   7.049
 6213POPC   C4B77686   9.641  17.720   7.423
 6214POPC   NC377687  28.432  29.100   5.369
 6214POPC   PO477688  27.851  29.341   5.302
 6214POPC   GL177689  28.110  29.314   5.690
 6214POPC   GL277690  28.102  28.971   5.778
 6214POPC   C1A77691  28.205  29.324   6.158
 6214POPC   D2A77692  28.081  29.212   6.615
 6214POPC   C3A77693  28.302  29.403   7.018
 6214POPC   C4A77694  28.120  29.357   7.446
 6214POPC   C1B77695  28.287  28.830   6.203
 6214POPC   C2B77696  28.333  28.738   6.673
 6214POPC   C3B77697  28.627  28.787   7.089
 6214POPC   C4B77698  28.880  28.837   7.530
 6215POPC   NC377699  37.611  18.467   5.352
 6215POPC   PO477700  38.070  17.996   5.328
 6215POPC   GL177701  37.971  18.152   5.767
 6215POPC   GL277702  37.882  18.522   5.814
 6215POPC   C1A77703  37.748  18.196   6.186
 6215POPC   D2A77704  37.461  18.319   6.533
 6215POPC   C3A77705  37.593  18.184   6.927
 6215POPC   C4A77706  37.812  18.018   7.245
 6215POPC   C1B77707  37.546  18.664   6.139
 6215POPC   C2B77708  37.355  18.834   6.537
 6215POPC   C3B77709  37.564  18.688   6.915
 6215POPC   C4B77710  37.565  18.489   7.352
 6216POPC   NC377711  30.477  15.628   5.410
 6216POPC   PO477712  31.025  15.166   5.332
 6216POPC   GL177713  30.831  15.248   5.702
 6216POPC   GL277714  30.620  14.994   5.753
 6216POPC   C1A77715  30.927  15.245   6.154
 6216POPC   D2A77716  30.893  15.395   6.584
 6216POPC   C3A77717  30.722  15.343   6.978
 6216POPC   C4A77718  30.635  15.602   7.342
 6216POPC   C1B77719  30.628  14.840   6.169
 6216POPC   C2B77720  30.647  14.951   6.605
 6216POPC   C3B77721  30.594  14.840   7.019
 6216POPC   C4B77722  30.485  15.093   7.397
 6217POPC   NC377723  29.231  33.954   5.421
 6217POPC   PO477724  29.272  33.313   5.314
 6217POPC   GL177725  29.156  33.501   5.747
 6217POPC   GL277726  29.436  33.683   5.865
 6217POPC   C1A77727  29.056  33.602   6.221
 6217POPC   D2A77728  29.000  33.902   6.609
 6217POPC   C3A77729  29.074  33.656   6.968
 6217POPC   C4A77730  29.050  33.705   7.381
 6217POPC   C1B77731  29.345  34.035   6.157
 6217POPC   C2B77732  29.510  34.216   6.540
 6217POPC   C3B77733  29.485  34.041   6.963
 6217POPC   C4B77734  29.528  33.871   7.381
 6218POPC   NC377735  20.191  33.979   5.226
 6218POPC   PO477736  20.717  33.435   5.400
 6218POPC   GL177737  20.559  33.569   5.821
 6218POPC   GL277738  20.203  33.699   5.803
 6218POPC   C1A77739  20.754  33.655   6.240
 6218POPC   D2A77740  20.792  34.008   6.543
 6218POPC   C3A77741  20.655  33.927   6.945
 6218POPC   C4A77742  20.854  33.563   7.112
 6218POPC   C1B77743  20.313  33.899   6.213
 6218POPC   C2B77744  20.317  33.711   6.611
 6218POPC   C3B77745  20.325  33.569   7.054
 6218POPC   C4B77746  20.488  33.740   7.427
 6219POPC   NC377747  43.293  14.646   5.578
 6219POPC   PO477748  42.870  14.178   5.425
 6219POPC   GL177749  42.919  14.368   5.819
 6219POPC   GL277750  43.271  14.291   5.933
 6219POPC   C1A77751  42.836  14.323   6.242
 6219POPC   D2A77752  42.990  14.441   6.622
 6219POPC   C3A77753  43.058  14.188   6.977
 6219POPC   C4A77754  42.954  14.425   7.296
 6219POPC   C1B77755  43.250  14.663   6.231
 6219POPC   C2B77756  43.389  14.747   6.653
 6219POPC   C3B77757  43.394  14.584   7.056
 6219POPC   C4B77758  43.571  14.731   7.410
 6220POPC   NC377759  43.142  41.932   5.329
 6220POPC   PO477760  42.613  42.309   5.461
 6220POPC   GL177761  42.996  42.290   5.726
 6220POPC   GL277762  43.358  42.357   5.632
 6220POPC   C1A77763  42.990  42.215   6.175
 6220POPC   D2A77764  42.790  42.224   6.586
 6220POPC   C3A77765  43.014  42.243   6.984
 6220POPC   C4A77766  43.041  42.485   7.386
 6220POPC   C1B77767  43.477  42.151   6.050
 6220POPC   C2B77768  43.363  42.090   6.515
 6220POPC   C3B77769  43.524  42.307   6.906
 6220POPC   C4B77770  43.494  42.216   7.367
 6221POPC   NC377771  11.474  30.878   5.544
 6221POPC   PO477772  11.055  30.576   5.208
 6221POPC   GL177773  11.170  30.542   5.768
 6221POPC   GL277774  11.464  30.521   5.930
 6221POPC   C1A77775  11.073  30.663   6.234
 6221POPC   D2A77776  11.090  30.549   6.660
 6221POPC   C3A77777  10.949  30.817   6.952
 6221POPC   C4A77778  11.140  30.850   7.335
 6221POPC   C1B77779  11.545  30.900   6.219
 6221POPC   C2B77780  11.751  30.860   6.625
 6221POPC   C3B77781  11.522  30.757   6.997
 6221POPC   C4B77782  11.687  30.807   7.419
 6222POPC   NC377783  18.890  11.866   5.451
 6222POPC   PO477784  19.251  12.321   5.268
 6222POPC   GL177785  19.096  12.288   5.742
 6222POPC   GL277786  19.227  11.957   5.884
 6222POPC   C1A77787  19.191  12.346   6.225
 6222POPC   D2A77788  18.935  12.223   6.600
 6222POPC   C3A77789  19.014  12.175   7.057
 6222POPC   C4A77790  18.952  12.342   7.465
 6222POPC   C1B77791  18.933  11.874   6.219
 6222POPC   C2B77792  18.853  11.702   6.650
 6222POPC   C3B77793  18.931  11.679   7.092
 6222POPC   C4B77794  18.729  11.852   7.487
 6223POPC   NC377795   3.448  13.926   5.520
 6223POPC   PO477796   3.668  13.336   5.571
 6223POPC   GL177797   3.703  13.638   5.872
 6223POPC   GL277798   3.336  13.621   5.928
 6223POPC   C1A77799   3.732  13.754   6.296
 6223POPC   D2A77800   3.907  13.755   6.710
 6223POPC   C3A77801   3.704  13.712   7.115
 6223POPC   C4A77802   3.619  13.357   7.373
 6223POPC   C1B77803   3.315  14.018   6.154
 6223POPC   C2B77804   3.395  14.047   6.578
 6223POPC   C3B77805   3.427  14.138   6.998
 6223POPC   C4B77806   3.253  13.886   7.318
 6224POPC   NC377807  20.349   6.588   5.278
 6224POPC   PO477808  19.787   6.913   5.226
 6224POPC   GL177809  19.808   6.645   5.620
 6224POPC   GL277810  19.886   6.284   5.525
 6224POPC   C1A77811  19.610   6.721   6.072
 6224POPC   D2A77812  19.706   6.950   6.458
 6224POPC   C3A77813  19.495   6.906   6.846
 6224POPC   C4A77814  19.731   6.870   7.238
 6224POPC   C1B77815  19.880   6.299   6.004
 6224POPC   C2B77816  19.866   6.434   6.439
 6224POPC   C3B77817  19.835   6.482   6.889
 6224POPC   C4B77818  19.719   6.256   7.260
 6225POPC   NC377819  15.868  29.674   5.381
 6225POPC   PO477820  15.921  30.296   5.213
 6225POPC   GL177821  15.794  30.117   5.648
 6225POPC   GL277822  16.086  29.917   5.780
 6225POPC   C1A77823  15.782  30.146   6.130
 6225POPC   D2A77824  16.006  30.239   6.535
 6225POPC   C3A77825  15.769  30.166   6.920
 6225POPC   C4A77826  15.671  29.980   7.330
 6225POPC   C1B77827  16.255  29.719   6.178
 6225POPC   C2B77828  16.302  29.810   6.627
 6225POPC   C3B77829  16.322  29.695   7.039
 6225POPC   C4B77830  16.168  30.048   7.242
 6226POPC   NC377831  21.781  25.913   5.303
 6226POPC   PO477832  22.509  25.986   5.177
 6226POPC   GL177833  22.314  26.071   5.681
 6226POPC   GL277834  21.976  25.928   5.806
 6226POPC   C1A77835  22.378  26.172   6.175
 6226POPC   D2A77836  22.507  25.972   6.617
 6226POPC   C3A77837  22.397  26.102   7.036
 6226POPC   C4A77838  22.100  26.024   7.356
 6226POPC   C1B77839  21.828  26.157   6.127
 6226POPC   C2B77840  21.721  26.094   6.531
 6226POPC   C3B77841  21.862  26.086   6.920
 6226POPC   C4B77842  21.654  26.237   7.294
 6227W        W77843  39.312  15.118   1.005
 6228W        W77844  33.049  29.138  12.802
 6229W        W77845  16.780  16.801   3.723
 6230W        W77846  15.824   3.667   5.027
 6231W        W77847  36.045  20.118   0.458
 6232W        W77848  41.798  22.174   1.157
 6233W        W77849  44.721  16.148  10.474
 6234W        W77850  34.990  18.728  14.149
 6235W        W77851  16.305  15.240   2.691
 6236W        W77852  35.637  32.620   1.563
 6237W        W77853  16.630  25.681   1.752
 6238W        W77854  26.745   8.304   0.707
 6239W        W77855   4.470  44.707  11.646
 6240W        W77856   8.408  27.540  13.552
 6241W        W77857  14.141  29.101  14.808
 6242W        W77858  30.803  33.486   0.373
 6243W        W77859  42.130   2.091   2.725
 6244W        W77860  25.208   9.126   0.380
 6245W        W77861  40.469  12.188   3.538
 6246W        W77862  21.055   2.370   4.182
 6247W        W77863  26.004  18.849   4.804
 6248W        W77864   1.454  27.602   4.559
 6249W        W77865   2.738  11.758  11.409
 6250W        W77866  26.509  42.045   3.367
 6251W        W77867   8.269  15.305  12.906
 6252W        W77868  27.574  26.248  13.347
 6253W        W77869  25.719  41.863  13.402
 6254W        W77870  14.671  36.818  13.828
 6255W        W77871  27.344   8.397   1.748
 6256W        W77872  23.546  26.145   4.979
 6257W        W77873   6.704   5.142  14.365
 6258W        W77874  36.138   7.244  12.529
 6259W        W77875   4.917  11.118  14.802
 6260W        W77876  28.650  31.156   4.142
 6261W        W77877  10.057   6.189   4.584
 6262W        W77878   4.905  36.504   2.128
 6263W        W77879   5.704  43.838  10.949
 6264W        W77880   4.677  24.086  10.052
 6265W        W77881  20.379   8.497   0.339
 6266W        W77882  37.043  34.085  10.694
 6267W        W77883  10.165   1.494   4.157
 6268W        W77884   4.455   6.700  14.832
 6269W        W77885  13.105   9.215   0.897
 6270W        W77886  13.321  30.734  14.547
 6271W        W77887   3.110   1.863  14.400
 6272W        W77888  44.206   2.009   0.657
 6273W        W77889  20.062  32.342   1.241
 6274W        W77890  11.045  40.962  10.639
 6275W        W77891  38.049  31.396   4.231
 6276W        W77892  30.898   8.911  12.882
 6277W        W77893  13.425  39.495   3.249
 6278W        W77894  19.137  23.606   4.571
 6279W        W77895  39.056   9.237  13.441
 6280W        W77896  36.550  20.863   0.347
 6281W        W77897  12.086   5.837  14.699
 6282W        W77898  13.690   6.710  10.014
 6283W        W77899  42.809  17.199  14.804
 6284W        W77900   0.215  32.549  11.254
 6285W        W77901  31.687  44.449   0.323
 6286W        W77902  24.595  34.098   0.239
 6287W        W77903  28.034   7.155  13.311
 6288W        W77904  32.359  13.118   4.137
 6289W        W77905  40.705  27.854  11.706
 6290W        W77906  24.227  14.254  13.661
 6291W        W77907  29.377  15.595   3.074
 6292W        W77908  16.091   0.945   4.506
 6293W        W77909  43.365  16.205   1.665
 6294W        W77910  39.402  37.235  11.219
 6295W        W77911  15.608   3.710  12.713
 6296W        W77912  16.313  12.861  12.505
 6297W        W77913   0.147  19.707   3.607
 6298W        W77914  39.382  30.119   0.984
 6299W        W77915  38.789   2.301   4.396
 6300W        W77916   6.534  22.189   2.222
 6301W        W77917  10.375   3.756  14.894
 6302W        W77918  28.699  36.898  14.428
 6303W        W77919  29.662   7.846   3.247
 6304W        W77920  20.790   7.865   1.991
 6305W        W77921  44.878  30.175  11.525
 6306W        W77922   2.836  31.202   2.614
 6307W        W77923  18.586  24.127  14.202
 6308W        W77924  33.417  27.721  13.865
 6309W        W77925  11.862  34.216   1.720
 6310W        W77926   4.292  42.198   3.146
 6311W        W77927   2.399  37.896   0.302
 6312W        W77928  34.136  25.716   4.206
 6313W        W77929  39.581  22.310   0.243
 6314W        W77930  15.626  37.857  14.762
 6315W        W77931  32.334  19.263  14.499
 6316W        W77932   5.830   2.906  10.846
 6317W        W77933  35.965  18.303   4.481
 6318W        W77934  33.621  14.674  13.801
 6319W        W77935  26.530  43.019   1.283
 6320W        W77936  11.054  35.454   4.561
 6321W        W77937   8.305   3.089   4.157
 6322W        W77938   4.773   6.411  14.505
 6323W        W77939  31.526   6.924  12.045
 6324W        W77940   7.519  19.770   1.307
 6325W        W77941   4.765   8.154  11.678
 6326W        W77942   7.393  43.995  14.773
 6327W        W77943  23.271  15.240   1.790
 6328W        W77944  29.473  11.340   9.875
 6329W        W77945  11.535   0.596   2.628
 6330W        W77946   2.832  30.385  10.343
 6331W        W77947  23.763  19.517  13.869
 6332W        W77948   1.979  25.603   0.372
 6333W        W77949  32.837  19.766   2.260
 6334W        W77950   0.533  28.551  12.919
 6335W        W77951  26.920  18.348  14.402
 6336W        W77952   3.186   6.334   4.629
 6337W        W77953  13.542  43.809   1.560
 6338W        W77954  24.991  25.106  12.888
 6339W        W77955  12.008  28.105  11.751
 6340W        W77956  25.119  13.291   1.404
 6341W        W77957  16.384  20.599   2.630
 6342W        W77958  37.994  34.381  10.645
 6343W        W77959  24.337  36.285  11.741
 6344W        W77960  19.518  44.301  14.216
 6345W        W77961   9.294  33.614  13.360
 6346W        W77962  20.950  34.184  11.170
 6347W        W77963   4.749  18.974  14.071
 6348W        W77964  20.555  30.648  12.753
 6349W        W77965  42.545  36.561   3.748
 6350W        W77966  38.646  28.393  14.025
 6351W        W77967  30.214  44.521   3.766
 6352W        W77968  28.385  18.928   0.845
 6353W        W77969  13.141  38.489   2.789
 6354W        W77970  44.404  19.720   5.079
 6355W        W77971  43.238  28.537   1.538
 6356W        W77972  36.431  25.233  11.883
 6357W        W77973  33.466   6.696   0.575
 6358W        W77974   0.573  44.733   1.341
 6359W        W77975   0.839   8.859  10.253
 6360W        W77976  14.224  29.056  14.297
 6361W        W77977  23.042  18.947   0.183
 6362W        W77978  44.298  26.565  14.995
 6363W        W77979  23.034  37.348   1.782
 6364W        W77980  13.777  25.942  12.727
 6365W        W77981  24.190  13.717  10.892
 6366W        W77982  10.876  17.594  13.877
 6367W        W77983  33.919  41.469   0.426
 6368W        W77984  13.308  42.766   4.562
 6369W        W77985  28.930  17.147   2.173
 6370W        W77986  43.364  38.465  14.370
 6371W        W77987  26.463   5.620   1.317
 6372W        W77988  19.546   5.530   0.498
 6373W        W77989  31.516  27.369   9.764
 6374W        W77990  37.000  42.848  13.162
 6375W        W77991  36.013  27.669  14.350
 6376W        W77992   0.426  30.254  13.570
 6377W        W77993   1.381  35.117  11.174
 6378W        W77994   5.992  29.591  14.367
 6379W        W77995  10.116  37.573   0.035
 6380W        W77996  26.395  35.515   1.962
 6381W        W77997  16.645  18.508   1.900
 6382W        W77998  34.593  39.521   1.736
 6383W        W77999  19.883  31.436   4.489
 6384W        W78000  12.675  18.875  11.208
 6385W        W78001  18.704  13.291  14.573
 6386W        W78002   1.807  34.123  14.945
 6387W        W78003   5.923  17.729  14.310
 6388W        W78004  22.074  31.181   1.333
 6389W        W78005   2.311  35.207  11.935
 6390W        W78006   5.740  29.807  14.786
 6391W        W78007  23.102  41.795  14.410
 6392W        W78008  36.068  39.393  13.154
 6393W        W78009   6.292  41.462  14.365
 6394W        W78010  34.976  18.817  11.650
 6395W        W78011  33.107  37.565  11.859
 6396W        W78012  29.563  10.325   2.865
 6397W        W78013  20.425  29.155   4.757
 6398W        W78014  21.046  44.872   4.368
 6399W        W78015   3.960  41.013   1.452
 6400W        W78016  18.192  21.897   2.708
 6401W        W78017  21.483  20.678   1.297
 6402W        W78018  38.027  18.488  11.631
 6403W        W78019  33.937  43.925  13.536
 6404W        W78020   3.441  13.691   3.840
 6405W        W78021  44.711  35.575   2.203
 6406W        W78022   9.726   9.204  11.698
 6407W        W78023  43.512   6.744   2.834
 6408W        W78024  37.348  40.122   3.984
 6409W        W78025  33.886  23.159  10.649
 6410W        W78026  10.071  34.712  10.280
 6411W        W78027  20.226  37.890   4.616
 6412W        W78028  41.694  34.964  14.778
 6413W        W78029  36.903   7.442   0.171
 6414W        W78030  36.517  32.350   0.906
 6415W        W78031  32.908  35.329   2.690
 6416W        W78032  38.081  43.371   0.454
 6417W        W78033  21.510   0.934   3.184
 6418W        W78034  29.924  32.485   4.613
 6419W        W78035   3.758  34.635   9.812
 6420W        W78036  33.391  16.058  13.826
 6421W        W78037   6.847   7.310   0.289
 6422W        W78038  37.434  21.967  13.948
 6423W        W78039  24.318   8.914   3.095
 6424W        W78040   6.403  38.270   2.364
 6425W        W78041  11.165   3.175   0.598
 6426W        W78042  21.121  39.313   1.429
 6427W        W78043  27.434  13.757  13.287
 6428W        W78044  40.967  19.573   2.731
 6429W        W78045  23.986  25.231  12.013
 6430W        W78046  30.479   6.549   0.857
 6431W        W78047  10.452  40.458  10.854
 6432W        W78048  31.648  25.099   4.724
 6433W        W78049  19.259   3.985   3.381
 6434W        W78050  34.919  24.065   4.406
 6435W        W78051  29.662  25.463   0.736
 6436W        W78052   2.002  41.599  11.128
 6437W        W78053  10.755  11.816  12.039
 6438W        W78054  39.535  11.744  12.367
 6439W        W78055  11.763   3.561  13.905
 6440W        W78056   8.624  40.906  12.123
 6441W        W78057  32.680  40.009   3.110
 6442W        W78058  25.111  24.630   4.352
 6443W        W78059  41.073  16.217  10.669
 6444W        W78060  21.960  19.562   2.543
 6445W        W78061  37.442  21.199  12.150
 6446W        W78062  17.660  15.621   2.209
 6447W        W78063  17.823   6.974   2.253
 6448W        W78064   4.604  23.907  11.920
 6449W        W78065  16.110  13.314   2.809
 6450W        W78066  24.679  12.194  14.284
 6451W        W78067  23.677  31.438  12.966
 6452W        W78068  18.060   6.826   4.237
 6453W        W78069  19.639  14.049  14.392
 6454W        W78070  16.716  32.630  13.996
 6455W        W78071  26.568  27.908  13.937
 6456W        W78072   2.456  21.002   1.918
 6457W        W78073  35.976  16.777   0.042
 6458W        W78074   2.184  20.460  14.323
 6459W        W78075  30.397   3.250  13.539
 6460W        W78076   2.474  32.289   3.909
 6461W        W78077  24.044  25.725  10.644
 6462W        W78078   6.864  42.509  11.685
 6463W        W78079  40.323  23.024   1.568
 6464W        W78080  44.710  35.272   3.570
 6465W        W78081   0.997  37.526   4.758
 6466W        W78082  33.354  30.459   2.129
 6467W        W78083  30.883  22.059  14.865
 6468W        W78084  12.642  20.578  14.743
 6469W        W78085  29.028  40.979  12.627
 6470W        W78086  25.421  14.124   3.845
 6471W        W78087  44.774   6.666  12.146
 6472W        W78088  25.468   2.458   4.883
 6473W        W78089  32.426  17.853  11.498
 6474W        W78090  29.718   7.139   0.033
 6475W        W78091  17.796  43.449  13.891
 6476W        W78092   7.420  33.961  14.833
 6477W        W78093  32.089  37.187   4.342
 6478W        W78094  11.555  20.264  13.595
 6479W        W78095   2.452  32.673  12.575
 6480W        W78096  39.168   4.045   4.521
 6481W        W78097  27.067  18.243  12.538
 6482W        W78098   7.657  11.581  12.927
 6483W        W78099   6.585  33.032  12.467
 6484W        W78100  40.524  13.561   2.317
 6485W        W78101  29.407  16.063   1.757
 6486W        W78102  34.908   8.459  13.796
 6487W        W78103  21.158   5.082  14.338
 6488W        W78104   8.730  36.399   2.043
 6489W        W78105  34.836  19.629   0.465
 6490W        W78106   4.242  18.376  11.182
 6491W        W78107   1.363  17.796   2.264
 6492W        W78108  37.343  14.295  10.563
 6493W        W78109   4.171  19.192  12.905
 6494W        W78110  43.972   3.690  13.984
 6495W        W78111  44.405  25.495  12.491
 6496W        W78112  25.125  40.864   1.412
 6497W        W78113  11.794   5.472  10.975
 6498W        W78114  17.276   1.646   1.330
 6499W        W78115   1.036  42.625  11.084
 6500W        W78116  21.621  11.873  11.533
 6501W        W78117  19.511   9.610   1.495
 6502W        W78118   1.966  32.358  14.315
 6503W        W78119  23.086  33.111   4.189
 6504W        W78120  23.269  28.670   4.721
 6505W        W78121   3.517  40.514  14.992
 6506W        W78122  41.332  34.858  12.964
 6507W        W78123  14.875   0.069   2.757
 6508W        W78124  37.493  19.018  14.963
 6509W        W78125  14.719   1.179  11.444
 6510W        W78126  19.305  19.260   0.381
 6511W        W78127  23.842  19.529  11.999
 6512W        W78128  18.548  20.040   3.432
 6513W        W78129  10.825   0.288  14.865
 6514W        W78130   6.240  30.007   1.177
 6515W        W78131   5.699  42.418   2.953
 6516W        W78132  14.694  39.900   2.994
 6517W        W78133  19.461  44.549  13.488
 6518W        W78134   9.141   4.664   1.938
 6519W        W78135  31.404   6.728   1.005
 6520W        W78136  36.423  30.389  14.428
 6521W        W78137  28.831  32.937   1.627
 6522W        W78138  17.849   5.872  13.858
 6523W        W78139   0.831  21.629  13.379
 6524W        W78140  17.510  38.654   4.602
 6525W        W78141   8.439  37.622   2.702
 6526W        W78142  21.593  39.892  12.556
 6527W        W78143  19.228  41.300   4.251
 6528W        W78144  13.724   4.666  14.936
 6529W        W78145  18.162   0.108   5.658
 6530W        W78146  13.093  32.055   2.278
 6531W        W78147  12.088  24.398  11.088
 6532W        W78148  11.268  24.214   1.285
 6533W        W78149   4.420   0.339  12.640
 6534W        W78150  22.456  35.444  10.338
 6535W        W78151  28.467  28.564  11.591
 6536W        W78152  43.024  11.634  14.725
 6537W        W78153   5.936  36.294   3.852
 6538W        W78154  21.210  36.196   2.149
 6539W        W78155  40.064  18.460   0.930
 6540W        W78156  12.361   1.991  13.120
 6541W        W78157  35.272  17.920  11.595
 6542W        W78158  29.405  36.520   0.342
 6543W        W78159   7.700  11.712   2.868
 6544W        W78160  39.826   0.869   1.311
 6545W        W78161  22.506   3.438   3.824
 6546W        W78162  39.952   4.240   0.686
 6547W        W78163  42.316  39.796   4.566
 6548W        W78164   7.822  17.292  14.512
 6549W        W78165  11.784   8.914   2.265
 6550W        W78166  29.748  18.332   0.897
 6551W        W78167  38.533  44.101  14.868
 6552W        W78168  32.680  23.976   2.375
 6553W        W78169  34.572  13.794   3.926
 6554W        W78170  15.027  33.317   0.883
 6555W        W78171   2.106   0.192   5.462
 6556W        W78172  32.789  31.855   1.904
 6557W        W78173  26.633  40.940  10.656
 6558W        W78174   0.005   9.115  11.993
 6559W        W78175  25.177   0.739   4.155
 6560W        W78176  12.224  41.498  10.713
 6561W        W78177  32.893  10.678  12.926
 6562W        W78178  37.328  39.489  11.621
 6563W        W78179  28.356  40.873  10.352
 6564W        W78180  19.134  42.090  10.290
 6565W        W78181  38.362  33.380  13.452
 6566W        W78182  18.674  20.995  11.702
 6567W        W78183  21.238  22.390  11.422
 6568W        W78184  18.837  14.992  10.391
 6569W        W78185  40.862   5.699  11.987
 6570W        W78186  30.450  39.725  14.425
 6571W        W78187  18.578  16.301   0.275
 6572W        W78188  42.295  42.258   1.650
 6573W        W78189  34.608  23.679  12.055
 6574W        W78190  14.645  16.222   5.495
 6575W        W78191   7.498  27.208   0.225
 6576W        W78192  21.523  24.354  12.024
 6577W        W78193  16.988  11.401  10.696
 6578W        W78194  19.405  30.106  11.146
 6579W        W78195   6.162  17.394  11.558
 6580W        W78196  23.214  40.112   0.794
 6581W        W78197   6.772  43.828   0.298
 6582W        W78198   6.870   4.564   2.147
 6583W        W78199  31.423   1.891   4.143
 6584W        W78200  42.854  43.155  13.371
 6585W        W78201  31.624  41.744   0.491
 6586W        W78202  21.016   7.097  14.467
 6587W        W78203  30.521  40.368   1.227
 6588W        W78204  31.611  23.662  14.303
 6589W        W78205   9.876  38.039  14.779
 6590W        W78206   4.298   4.679   2.811
 6591W        W78207  44.477  29.655   4.264
 6592W        W78208  25.662   1.394   3.942
 6593W        W78209  41.691  15.664  14.946
 6594W        W78210  44.974  11.585   3.607
 6595W        W78211   3.239  35.305  12.867
 6596W        W78212   4.678  11.689   0.668
 6597W        W78213  30.865  33.193  13.775
 6598W        W78214   5.039   1.925  14.405
 6599W        W78215  35.964   4.085  14.748
 6600W        W78216   9.873  43.944   1.488
 6601W        W78217   0.588  18.857   4.082
 6602W        W78218  42.765   2.225  13.462
 6603W        W78219  25.427  38.450  14.908
 6604W        W78220  23.117   1.778  14.806
 6605W        W78221   2.332  35.385  11.103
 6606W        W78222   8.164  19.674   3.170
 6607W        W78223   9.347   2.877  13.069
 6608W        W78224  31.030  39.030  13.040
 6609W        W78225   9.894  30.923   1.834
 6610W        W78226   4.974  43.492   1.646
 6611W        W78227   6.741  44.173   3.204
 6612W        W78228  30.315  34.840  11.568
 6613W        W78229  41.075  28.959  12.414
 6614W        W78230  35.661   0.212  14.071
 6615W        W78231  33.355  33.628  11.588
 6616W        W78232  26.692  28.584   4.341
 6617W        W78233  37.700   5.078  12.052
 6618W        W78234  21.561  43.278   3.831
 6619W        W78235   5.618  40.369  10.904
 6620W        W78236   4.388   9.242  11.213
 6621W        W78237  29.173  39.940  11.460
 6622W        W78238  43.415   4.623   4.151
 6623W        W78239  37.268  13.082  10.322
 6624W        W78240  20.756  29.888  11.092
 6625W        W78241  20.479  38.027   4.166
 6626W        W78242  15.821  18.990   2.736
 6627W        W78243  12.186  31.589  12.064
 6628W        W78244  16.550  32.866   2.834
 6629W        W78245  33.145  20.965  14.790
 6630W        W78246  43.937   4.241  12.901
 6631W        W78247  37.720  15.144  11.889
 6632W        W78248  25.793  14.796  10.294
 6633W        W78249  12.101  34.581   2.861
 6634W        W78250  38.579   6.951   0.536
 6635W        W78251   0.098   3.688   0.730
 6636W        W78252  17.217  13.854   1.993
 6637W        W78253  30.382  38.519  13.397
 6638W        W78254  33.156  24.058   1.207
 6639W        W78255  12.175  36.124  14.007
 6640W        W78256  42.236  41.549  12.514
 6641W        W78257  29.035  40.348  11.167
 6642W        W78258   8.499   4.298   0.418
 6643W        W78259  19.340  20.159  14.841
 6644W        W78260  31.946   2.797  11.068
 6645W        W78261  25.795  40.937   3.566
 6646W        W78262  24.758  24.778  13.987
 6647W        W78263  11.217  23.059   4.616
 6648W        W78264  12.593  19.769  13.055
 6649W        W78265  10.208   3.168  10.479
 6650W        W78266  20.583  13.667  12.365
 6651W        W78267   7.769   1.320   0.948
 6652W        W78268  39.250  29.602   0.092
 6653W        W78269  35.911  31.632   0.906
 6654W        W78270  21.169   5.434   2.859
 6655W        W78271  36.394  34.305   4.867
 6656W        W78272  19.837  39.336  13.925
 6657W        W78273  11.203  19.632   3.340
 6658W        W78274   6.266  38.603   4.156
 6659W        W78275  41.942  42.828  10.079
 6660W        W78276  44.392  21.449   0.812
 6661W        W78277  13.409   1.765   4.103
 6662W        W78278  28.490  28.216   2.306
 6663W        W78279   6.303  31.174   4.625
 6664W        W78280   1.472  12.209  13.622
 6665W        W78281  40.436  40.062   4.601
 6666W        W78282  28.197   7.243  10.366
 6667W        W78283  26.992  14.038   0.873
 6668W        W78284  19.516  38.944  14.061
 6669W        W78285  23.990  38.899   1.825
 6670W        W78286  41.901  30.084  12.157
 6671W        W78287  18.208  29.267  11.595
 6672W        W78288  32.626  42.019   2.699
 6673W        W78289   2.370  35.675   3.210
 6674W        W78290  29.564   5.162  12.868
 6675W        W78291   6.521  24.217   1.680
 6676W        W78292  36.397  20.183   2.975
 6677W        W78293  28.169  24.493  11.157
 6678W        W78294   8.731   2.982  12.570
 6679W        W78295  26.740   2.327  10.947
 6680W        W78296   2.920  16.529   4.135
 6681W        W78297  11.476  44.962  10.652
 6682W        W78298  15.582   4.387  13.881
 6683W        W78299   7.228   3.251   2.710
 6684W        W78300  20.579  44.748   4.171
 6685W        W78301  17.076  21.248  12.961
 6686W        W78302  20.355  19.621   3.570
 6687W        W78303  35.801  17.102   1.429
 6688W        W78304  28.954  17.256   0.271
 6689W        W78305  10.609  20.773  11.436
 6690W        W78306   8.911  21.499  10.537
 6691W        W78307  17.202  38.020   2.936
 6692W        W78308  20.041  41.085  13.584
 6693W        W78309   4.423  20.700   4.274
 6694W        W78310  29.432  34.369  14.770
 6695W        W78311  34.547  25.844   3.103
 6696W        W78312  11.713  37.357  14.524
 6697W        W78313  20.826  19.573   3.800
 6698W        W78314  23.024  43.837   4.043
 6699W        W78315  17.238  23.429  11.336
 6700W        W78316   2.273   6.731   0.830
 6701W        W78317   5.149   0.412   2.993
 6702W        W78318  44.239  30.707   2.507
 6703W        W78319  32.504   1.993  12.364
 6704W        W78320  24.277   5.205   1.459
 6705W        W78321  13.633   2.888   3.455
 6706W        W78322   9.924  24.803  14.877
 6707W        W78323  16.245  37.283  13.985
 6708W        W78324   7.243  13.824   3.676
 6709W        W78325   0.940  34.766   4.093
 6710W        W78326  31.516  14.636   0.249
 6711W        W78327  34.977   3.210  11.065
 6712W        W78328  36.636   4.502  11.043
 6713W        W78329  19.023  17.448  13.969
 6714W        W78330  31.898   6.732   0.124
 6715W        W78331  14.200  30.050  10.597
 6716W        W78332  35.403  25.796   2.594
 6717W        W78333  16.700  27.496   1.818
 6718W        W78334  14.651  34.314  14.892
 6719W        W78335  24.197  21.569  10.958
 6720W        W78336   2.206  19.269  10.680
 6721W        W78337   2.038  40.209  13.050
 6722W        W78338  10.399  35.899  13.901
 6723W        W78339   6.646  35.417  11.454
 6724W        W78340  18.548   2.821   3.637
 6725W        W78341   7.094  27.019  11.183
 6726W        W78342  31.051  33.427   2.269
 6727W        W78343  37.636  37.936   4.665
 6728W        W78344   2.389  40.919  12.048
 6729W        W78345  25.422  37.363  12.937
 6730W        W78346  33.929  23.622  14.833
 6731W        W78347  33.089  31.145   1.224
 6732W        W78348  37.787  18.701   2.452
 6733W        W78349   4.843  41.605   1.903
 6734W        W78350  35.289  11.603  13.471
 6735W        W78351  39.564  27.397   0.448
 6736W        W78352  31.893   7.536   3.713
 6737W        W78353   3.319  31.133  13.883
 6738W        W78354  15.578  39.439  11.987
 6739W        W78355  43.372   8.748   4.623
 6740W        W78356  10.301   8.145  11.647
 6741W        W78357  17.048   9.779   4.744
 6742W        W78358  41.801  27.884   0.517
 6743W        W78359   9.794  35.622  12.937
 6744W        W78360  36.931  31.794  12.363
 6745W        W78361  33.295  15.783  12.892
 6746W        W78362  42.391  26.623   4.684
 6747W        W78363  30.581  15.292   2.999
 6748W        W78364  33.483  17.524   3.743
 6749W        W78365  23.202  37.887  10.665
 6750W        W78366  39.750   4.727  14.777
 6751W        W78367  22.743  37.273  10.947
 6752W        W78368  44.909  29.631  14.142
 6753W        W78369   7.772   9.371  10.418
 6754W        W78370  20.054   9.620   1.411
 6755W        W78371  32.043  30.636  13.926
 6756W        W78372   6.253  18.176  12.803
 6757W        W78373  14.524  41.524   4.181
 6758W        W78374  35.885  10.374  13.866
 6759W        W78375  14.624  34.406  12.903
 6760W        W78376  13.667  23.758  14.071
 6761W        W78377  26.011  15.115   1.259
 6762W        W78378  36.998  26.917  14.031
 6763W        W78379  31.041  17.264  13.516
 6764W        W78380   0.745  21.963   1.807
 6765W        W78381  10.806  22.083   3.787
 6766W        W78382  34.039  22.037  13.511
 6767W        W78383  44.173  15.191   1.374
 6768W        W78384  27.175  17.407   1.240
 6769W        W78385   1.597  40.392   2.099
 6770W        W78386  18.023   7.307  10.524
 6771W        W78387  38.976  13.660  11.505
 6772W        W78388  41.910  35.368  13.383
 6773W        W78389  31.685  29.607  13.500
 6774W        W78390  27.388  42.979  14.359
 6775W        W78391  18.767  34.513   2.747
 6776W        W78392  28.553  31.024   3.653
 6777W        W78393  37.925  44.976  13.070
 6778W        W78394  26.184   0.046  13.980
 6779W        W78395   0.138  32.131   5.004
 6780W        W78396  14.726  44.093   4.193
 6781W        W78397  33.338  44.896  13.473
 6782W        W78398  23.291   7.890  11.602
 6783W        W78399  21.823  12.514   1.587
 6784W        W78400  20.142   4.982   5.012
 6785W        W78401  11.152  16.158   0.658
 6786W        W78402  13.172   2.501   0.851
 6787W        W78403  23.506  31.709  11.087
 6788W        W78404   3.451   8.437  12.581
 6789W        W78405  29.989  32.978  10.965
 6790W        W78406  11.622   7.412   2.082
 6791W        W78407   7.349  37.433   3.604
 6792W        W78408  33.760  41.658  14.476
 6793W        W78409  36.107   7.846  14.324
 6794W        W78410   6.434  33.202   1.310
 6795W        W78411  13.663   9.194   3.831
 6796W        W78412  21.493  15.838  12.521
 6797W        W78413  39.437  38.617   2.719
 6798W        W78414  10.738   9.682  14.391
 6799W        W78415  24.137   3.637   2.748
 6800W        W78416  17.692  29.355  11.536
 6801W        W78417  38.374  20.107  13.808
 6802W        W78418  22.011  27.981  10.489
 6803W        W78419  43.484  18.230  14.901
 6804W        W78420  21.474  43.621  10.874
 6805W        W78421   2.382  22.705   0.470
 6806W        W78422  19.324  23.028  11.128
 6807W        W78423  33.456   2.262   0.333
 6808W        W78424   6.669  44.957  10.931
 6809W        W78425  11.844  18.591   1.433
 6810W        W78426  24.141  12.543  13.390
 6811W        W78427  21.569  29.194  12.290
 6812W        W78428  40.445  21.551   1.134
 6813W        W78429  39.626  20.356   0.929
 6814W        W78430  27.009  18.004   1.993
 6815W        W78431  26.159  30.374   3.754
 6816W        W78432  13.062  42.796  13.368
 6817W        W78433  28.390  34.591  13.878
 6818W        W78434   6.403  11.625   1.744
 6819W        W78435  15.066  24.654   1.219
 6820W        W78436  38.657  23.024  12.674
 6821W        W78437  28.490  29.011  10.874
 6822W        W78438   3.213   3.990  11.976
 6823W        W78439  23.252  41.924   0.831
 6824W        W78440  22.271  42.358   3.568
 6825W        W78441  25.674  44.207   4.675
 6826W        W78442  30.986  25.198  10.343
 6827W        W78443  38.958  36.169   4.121
 6828W        W78444  23.248  22.429  14.948
 6829W        W78445  15.093  31.488   4.720
 6830W        W78446  37.155  28.554  11.643
 6831W        W78447  18.496  39.009  13.320
 6832W        W78448   2.307  42.147  10.716
 6833W        W78449  21.691  10.332  12.996
 6834W        W78450  12.852  41.501  13.964
 6835W        W78451   2.238  38.106   2.735
 6836W        W78452  18.438  39.473   1.514
 6837W        W78453  44.188   5.542  11.186
 6838W        W78454   1.727  26.891   2.906
 6839W        W78455  36.343  25.887   4.212
 6840W        W78456  15.083  33.976   4.301
 6841W        W78457  42.006  27.598   0.988
 6842W        W78458  34.525   0.482  14.950
 6843W        W78459  39.959  11.063   3.815
 6844W        W78460  15.746  44.016   5.163
 6845W        W78461  42.013  13.982  14.456
 6846W        W78462  37.185  15.931   2.847
 6847W        W78463  29.444  33.428  14.224
 6848W        W78464  29.453   6.769   2.882
 6849W        W78465  19.047  29.179  13.926
 6850W        W78466  37.959  32.854   3.299
 6851W        W78467  42.791  18.679  12.427
 6852W        W78468  11.911  20.349   0.359
 6853W        W78469   5.116   1.711  11.552
 6854W        W78470  24.090   0.459  12.530
 6855W        W78471  28.064   5.306  10.279
 6856W        W78472  19.856   8.727   4.632
 6857W        W78473  22.659  25.924   3.399
 6858W        W78474  23.793  10.619  10.779
 6859W        W78475  22.634  30.954  12.138
 6860W        W78476  27.308  18.826  11.038
 6861W        W78477  41.124  14.084   1.864
 6862W        W78478   6.416   6.450   3.776
 6863W        W78479  29.904  24.985  10.383
 6864W        W78480   9.345  14.310  13.497
 6865W        W78481  43.980  26.091   4.229
 6866W        W78482  19.963   7.803  13.445
 6867W        W78483  19.134  31.923   4.192
 6868W        W78484  20.249  14.643   2.233
 6869W        W78485  34.110  14.648  10.946
 6870W        W78486   3.998   5.872  12.053
 6871W        W78487  15.191  15.395  14.855
 6872W        W78488  36.369   2.034   3.240
 6873W        W78489   5.668   8.708   2.286
 6874W        W78490  18.035  11.808  12.998
 6875W        W78491  22.196  44.748   4.077
 6876W        W78492   3.462  30.888  14.771
 6877W        W78493  26.129  42.828  12.275
 6878W        W78494  38.821   3.907   0.390
 6879W        W78495  25.090  25.658   0.832
 6880W        W78496   8.447   0.480   2.744
 6881W        W78497   4.367  28.853   3.062
 6882W        W78498  13.379   5.330  11.123
 6883W        W78499  30.550  24.562   0.436
 6884W        W78500  44.710  28.943   4.013
 6885W        W78501  35.492   2.422  12.601
 6886W        W78502  10.523  11.636   2.412
 6887W        W78503  19.165   8.963   3.550
 6888W        W78504   2.045  12.345  10.657
 6889W        W78505  17.643   1.263   1.420
 6890W        W78506  42.390   3.000  12.545
 6891W        W78507   5.107  18.153   4.057
 6892W        W78508   0.317   2.265   0.329
 6893W        W78509  30.190  19.849  11.602
 6894W        W78510   1.019  36.599   1.927
 6895W        W78511  26.170  34.157   1.301
 6896W        W78512   2.806   5.703   3.771
 6897W        W78513  41.172  31.618  12.075
 6898W        W78514  16.246  24.179   4.534
 6899W        W78515  29.266  17.592   1.160
 6900W        W78516  31.468  35.398  13.171
 6901W        W78517   0.171  26.729  13.975
 6902W        W78518   6.158  23.965   0.609
 6903W        W78519  44.226  26.626  14.493
 6904W        W78520  27.232  12.937   3.226
 6905W        W78521  29.856  38.936   4.544
 6906W        W78522  13.786  17.470   0.476
 6907W        W78523  32.690  36.992   1.212
 6908W        W78524   4.796  34.948  12.983
 6909W        W78525   3.938   1.766  12.103
 6910W        W78526  36.472  17.714  13.909
 6911W        W78527   5.787  22.302  13.807
 6912W        W78528  18.829  19.519  14.358
 6913W        W78529   0.844  34.383  12.907
 6914W        W78530   8.451  12.653   3.825
 6915W        W78531  17.204  32.828   0.907
 6916W        W78532  43.481   7.153   1.877
 6917W        W78533  27.599  37.870   4.677
 6918W        W78534  13.562  37.389  13.294
 6919W        W78535  42.779   7.655  13.514
 6920W        W78536   3.459  29.147   0.199
 6921W        W78537  17.443  18.082   1.484
 6922W        W78538  40.981   3.045   1.144
 6923W        W78539   3.485  38.902   3.224
 6924W        W78540  19.222  21.280  12.968
 6925W        W78541  31.181   6.718   4.056
 6926W        W78542   8.293  24.240  13.333
 6927W        W78543  13.788   2.975  12.122
 6928W        W78544  16.341  22.665  10.715
 6929W        W78545  33.464  42.513  13.976
 6930W        W78546  33.804   5.336  13.951
 6931W        W78547   2.434  26.313  11.747
 6932W        W78548  19.736  33.124  13.889
 6933W        W78549  38.113  42.450  14.830
 6934W        W78550  12.236  13.996  13.329
 6935W        W78551  33.976  44.461  10.684
 6936W        W78552  41.092  37.352  10.986
 6937W        W78553  13.841  36.481  12.448
 6938W        W78554  21.313   1.394  13.318
 6939W        W78555  27.740  12.987  14.978
 6940W        W78556  33.840  25.135  12.478
 6941W        W78557  41.462  21.698  10.614
 6942W        W78558   0.063  35.668   4.829
 6943W        W78559  10.682   1.509   3.237
 6944W        W78560  11.658  32.410   0.704
 6945W        W78561  18.623  34.372   1.793
 6946W        W78562  43.834  29.166   1.321
 6947W        W78563  18.856   2.487  14.473
 6948W        W78564  32.334  41.745   2.176
 6949W        W78565  22.065  11.952   1.427
 6950W        W78566  41.101  19.062   2.727
 6951W        W78567   6.351   7.240  13.351
 6952W        W78568  37.550  16.944  12.119
 6953W        W78569  39.089  38.246   4.009
 6954W        W78570  30.161  32.704   2.010
 6955W        W78571  43.720  13.171   2.750
 6956W        W78572  40.283   8.770   5.082
 6957W        W78573  29.615  37.761  11.554
 6958W        W78574  19.079  20.535  14.349
 6959W        W78575  41.476  34.566  12.528
 6960W        W78576  37.490  12.414  14.323
 6961W        W78577  28.133  43.376   3.750
 6962W        W78578  24.474  25.081  11.706
 6963W        W78579  40.560  25.711  12.746
 6964W        W78580   3.065  43.342   4.973
 6965W        W78581  43.064  19.113  12.504
 6966W        W78582  11.673  31.052   2.471
 6967W        W78583  21.962  44.227   2.193
 6968W        W78584  41.139  19.073   5.080
 6969W        W78585  39.174  21.812   0.472
 6970W        W78586  15.782  18.087   5.131
 6971W        W78587  25.414  28.987   0.308
 6972W        W78588  25.915   2.511  13.823
 6973W        W78589  19.447  11.504   2.789
 6974W        W78590  26.720   4.962  12.494
 6975W        W78591  43.007  17.219   0.303
 6976W        W78592  28.182  26.034   4.428
 6977W        W78593  27.296   3.315  11.050
 6978W        W78594   9.352  38.870   0.493
 6979W        W78595  23.695  37.320   1.301
 6980W        W78596  26.846  36.861  12.900
 6981W        W78597  39.247   8.924  11.997
 6982W        W78598  14.793  25.884  14.457
 6983W        W78599  21.766   4.711   3.119
 6984W        W78600  28.187  17.088   1.679
 6985W        W78601  42.031  41.034   2.027
 6986W        W78602  43.953  27.152   3.243
 6987W        W78603   4.836  43.943   1.931
 6988W        W78604  32.346  24.131   2.967
 6989W        W78605   2.809  18.154   2.266
 6990W        W78606  13.619  13.846  13.624
 6991W        W78607  22.503   7.145   0.715
 6992W        W78608  42.735  43.849  10.589
 6993W        W78609  19.979  20.339  10.874
 6994W        W78610   2.794   8.707  12.790
 6995W        W78611   8.859  14.516   1.540
 6996W        W78612  41.036  29.334   3.230
 6997W        W78613   9.456  15.740  13.503
 6998W        W78614  41.008  24.775  12.335
 6999W        W78615  29.117  44.798  13.406
 7000W        W78616   6.487  36.785   1.104
 7001W        W78617  18.856   7.717   0.410
 7002W        W78618   8.201   3.448   4.533
 7003W        W78619  27.096  33.586  11.498
 7004W        W78620  36.140  12.783  13.311
 7005W        W78621  25.034  34.822  11.541
 7006W        W78622  38.453   6.253  11.157
 7007W        W78623  29.348   1.427   0.163
 7008W        W78624   0.009  22.056   2.409
 7009W        W78625  43.718  18.736   3.580
 7010W        W78626  34.406  16.111  14.546
 7011W        W78627  10.719   5.100  13.022
 7012W        W78628  21.691  43.718  13.047
 7013W        W78629   9.288  25.209  13.361
 7014W        W78630  23.084  11.104  12.978
 7015W        W78631  18.442  37.794   0.218
 7016W        W78632  42.377   8.896   0.217
 7017W        W78633  22.522  44.774   1.373
 7018W        W78634   4.340  12.073  10.549
 7019W        W78635  27.033  16.335  12.097
 7020W        W78636  39.437  22.838  14.201
 7021W        W78637  10.881   2.404   3.543
 7022W        W78638   4.934   7.405  14.391
 7023W        W78639  19.708  24.726   1.270
 7024W        W78640   9.188  15.360   2.674
 7025W        W78641  37.495  31.455  10.948
 7026W        W78642  23.747  23.818   2.305
 7027W        W78643  42.954   3.345   0.490
 7028W        W78644   4.452   8.232   1.242
 7029W        W78645  29.951  15.984   1.836
 7030W        W78646  22.148  23.175  11.129
 7031W        W78647  28.124  44.835  11.682
 7032W        W78648  17.129  10.827   1.380
 7033W        W78649  19.503   4.774  14.831
 7034W        W78650  29.660  32.448  14.712
 7035W        W78651  42.502  39.231   1.680
 7036W        W78652  38.938  40.519  14.978
 7037W        W78653  30.174  41.727  11.634
 7038W        W78654  11.368  23.485   2.863
 7039W        W78655  43.941  40.373  10.534
 7040W        W78656   3.772  14.350  12.947
 7041W        W78657  29.289  11.636   0.911
 7042W        W78658  17.028  23.117   0.913
 7043W        W78659   8.804  16.740   3.041
 7044W        W78660  38.435  41.882   0.203
 7045W        W78661  14.834  33.104   2.155
 7046W        W78662  21.063  30.916   4.723
 7047W        W78663  41.538   4.755   5.207
 7048W        W78664   5.308  36.028  10.871
 7049W        W78665  38.873  43.857  12.862
 7050W        W78666  22.227  41.419  13.393
 7051W        W78667  36.885  32.380   4.088
 7052W        W78668  22.447  43.592   3.331
 7053W        W78669  36.728   0.422   4.386
 7054W        W78670   7.203  19.538  10.673
 7055W        W78671  20.087  25.117  13.402
 7056W        W78672  40.818   9.594   4.462
 7057W        W78673  21.070  30.709  14.399
 7058W        W78674  40.479  18.888   3.892
 7059W        W78675  23.014  36.842   1.858
 7060W        W78676  35.870  41.779  14.592
 7061W        W78677  10.312  12.674  11.938
 7062W        W78678  35.977  16.392   0.419
 7063W        W78679  17.798  34.019  14.911
 7064W        W78680  17.794  19.256   4.932
 7065W        W78681  42.658  31.670  10.939
 7066W        W78682   5.343  22.733   3.675
 7067W        W78683   3.513  15.190   2.823
 7068W        W78684  26.007  38.968   1.296
 7069W        W78685   7.010  25.015   1.674
 7070W        W78686   4.301  28.574   4.757
 7071W        W78687   6.984  20.826  13.795
 7072W        W78688   2.935   4.377  11.602
 7073W        W78689   2.457  41.050  12.567
 7074W        W78690  31.627   5.497   2.795
 7075W        W78691  17.043  12.624   3.245
 7076W        W78692  13.196   5.404   3.741
 7077W        W78693  14.768  22.074  13.399
 7078W        W78694  37.386  39.035   4.899
 7079W        W78695  39.143  32.588  12.065
 7080W        W78696  31.159   8.180  13.300
 7081W        W78697  39.659  12.110  11.551
 7082W        W78698  16.791   6.605   2.817
 7083W        W78699  41.913  33.201  13.824
 7084W        W78700  35.431  31.414   0.915
 7085W        W78701  25.189  22.167  13.402
 7086W        W78702  43.081  21.098  13.469
 7087W        W78703  29.407  18.254   2.280
 7088W        W78704  29.583  39.892  10.230
 7089W        W78705  14.433  44.786  14.426
 7090W        W78706  14.786  39.736   1.250
 7091W        W78707  25.761  39.815  12.918
 7092W        W78708   1.027  34.356   2.266
 7093W        W78709  27.373  43.428   0.441
 7094W        W78710  37.164  10.150   2.502
 7095W        W78711  19.036   1.785   3.367
 7096W        W78712  38.603  26.709  11.479
 7097W        W78713  19.291  41.309  14.854
 7098W        W78714  17.079   6.192  14.450
 7099W        W78715  24.945   8.349  14.394
 7100W        W78716  15.563   2.843   3.177
 7101W        W78717  26.396   8.848   3.970
 7102W        W78718  25.425  17.787   4.241
 7103W        W78719  16.267  24.593   0.455
 7104W        W78720   9.292   3.737  10.705
 7105W        W78721  11.784  35.905  14.519
 7106W        W78722   4.264   6.968  12.812
 7107W        W78723  13.769  31.467   4.152
 7108W        W78724  40.700  13.142  13.804
 7109W        W78725  29.608  24.244  11.709
 7110W        W78726   6.462  40.414  14.899
 7111W        W78727   1.435  32.980   1.392
 7112W        W78728  13.634  17.262   0.955
 7113W        W78729   9.757  15.386  10.436
 7114W        W78730  14.688  27.355  12.665
 7115W        W78731  35.367   1.483   3.198
 7116W        W78732  31.529  13.744  12.466
 7117W        W78733  29.361   3.249  14.514
 7118W        W78734  33.904  26.130  12.569
 7119W        W78735  43.002   9.143   2.244
 7120W        W78736  35.923  26.465  11.539
 7121W        W78737  22.788   4.009  11.186
 7122W        W78738  39.338  18.579  10.711
 7123W        W78739  19.318   5.415   2.450
 7124W        W78740  14.651   7.166   0.496
 7125W        W78741  37.980  10.825  13.582
 7126W        W78742   1.937   0.255   2.393
 7127W        W78743  11.724  16.927   0.356
 7128W        W78744  42.061  17.382   1.350
 7129W        W78745   0.677  40.592  11.164
 7130W        W78746  16.775   2.424   4.353
 7131W        W78747   6.839  44.276   0.577
 7132W        W78748   6.852  32.165   9.823
 7133W        W78749  29.018   5.912  12.808
 7134W        W78750  29.552   4.263  13.012
 7135W        W78751  38.126  34.202  11.575
 7136W        W78752  16.371  23.658   4.555
 7137W        W78753  32.151  41.568  13.865
 7138W        W78754  35.024   7.817   0.345
 7139W        W78755  20.956  37.591  13.210
 7140W        W78756  19.843  13.509  11.206
 7141W        W78757  22.555  25.046  10.072
 7142W        W78758  43.403  17.162   2.624
 7143W        W78759  26.015  22.689   1.530
 7144W        W78760  16.293  40.842  11.896
 7145W        W78761  11.717  27.894   1.403
 7146W        W78762   0.425  36.321   1.315
 7147W        W78763   3.765   0.902  14.364
 7148W        W78764  44.794  23.182  11.641
 7149W        W78765   0.181   2.267   4.135
 7150W        W78766  14.080  25.145   2.940
 7151W        W78767  40.449   1.672  12.649
 7152W        W78768  17.315   1.564   2.378
 7153W        W78769  34.068   4.318  10.986
 7154W        W78770  39.854   0.421  12.044
 7155W        W78771  16.495   1.728   1.070
 7156W        W78772  19.157  15.272   1.811
 7157W        W78773  38.363  23.735  14.343
 7158W        W78774  13.709  29.532  11.109
 7159W        W78775  25.642   8.297   2.671
 7160W        W78776   3.023  10.246  10.804
 7161W        W78777  42.660  26.212  14.456
 7162W        W78778  43.708  25.962   0.458
 7163W        W78779  28.084  43.928  14.605
 7164W        W78780  34.842   3.667   2.771
 7165W        W78781  28.659   0.992   0.671
 7166W        W78782   4.922  35.183  13.448
 7167W        W78783  12.528  31.451   3.629
 7168W        W78784  20.178  41.040  10.931
 7169W        W78785   9.121  14.738  13.318
 7170W        W78786  20.651   1.724  10.795
 7171W        W78787  39.592  12.347  14.103
 7172W        W78788  38.738  18.316  13.062
 7173W        W78789   6.522   9.101  10.668
 7174W        W78790  15.744   4.298   2.207
 7175W        W78791  15.782   4.135   3.615
 7176W        W78792  28.533  34.396  11.936
 7177W        W78793  25.904   2.670   1.663
 7178W        W78794  34.360   0.907  13.629
 7179W        W78795  14.540   6.900   0.026
 7180W        W78796  44.082  11.830  13.939
 7181W        W78797   3.531  18.811  11.543
 7182W        W78798  35.130  15.317  12.950
 7183W        W78799  13.821   2.418   3.313
 7184W        W78800  29.920  44.304  11.004
 7185W        W78801  36.587  27.483   3.685
 7186W        W78802  43.855  34.894  14.030
 7187W        W78803   5.835  14.088  14.814
 7188W        W78804   6.319  33.117   2.357
 7189W        W78805  36.913  23.175   1.660
 7190W        W78806  30.005  11.108   2.752
 7191W        W78807   5.696  21.046  14.836
 7192W        W78808  42.380  40.409  11.429
 7193W        W78809  12.010  21.199   0.190
 7194W        W78810   2.967   9.004  11.840
 7195W        W78811   5.932  42.849  14.316
 7196W        W78812   1.808  39.375  14.211
 7197W        W78813  24.138  23.141   4.111
 7198W        W78814  33.678  18.941  14.873
 7199W        W78815  27.562  24.856   0.790
 7200W        W78816  37.560  10.387   0.199
 7201W        W78817  27.759   7.192  12.882
 7202W        W78818   3.874  17.234  13.817
 7203W        W78819  20.187   6.001  11.844
 7204W        W78820  44.402   1.703  11.686
 7205W        W78821   0.179  22.498  12.354
 7206W        W78822  37.488  41.984   0.204
 7207W        W78823  28.097  37.804   0.882
 7208W        W78824  25.661  32.249   0.242
 7209W        W78825  37.304  18.538  13.809
 7210W        W78826  13.645  35.587   2.125
 7211W        W78827  27.285  36.085  14.795
 7212W        W78828  31.309  43.147   0.079
 7213W        W78829  36.489  33.133  13.042
 7214W        W78830  18.125  41.614  10.730
 7215W        W78831  26.912  36.802   2.660
 7216W        W78832  10.442  25.017   4.041
 7217W        W78833   0.292  29.784  11.575
 7218W        W78834  35.809   0.234  13.017
 7219W        W78835  36.905  11.840   3.705
 7220W        W78836   9.601  36.360   2.797
 7221W        W78837  12.107  13.750  14.395
 7222W        W78838   5.643   6.262  14.861
 7223W        W78839  23.521   2.942   3.217
 7224W        W78840  26.681   9.587  14.469
 7225W        W78841  16.842  13.758  14.336
 7226W        W78842  32.385  44.366  14.372
 7227W        W78843  12.771   4.324   4.450
 7228W        W78844  20.736   3.740  13.043
 7229W        W78845  33.571   3.264   5.249
 7230W        W78846  37.961  21.516   3.852
 7231W        W78847  20.317   6.388   0.964
 7232W        W78848  39.712  29.733   4.474
 7233W        W78849   1.974  24.224   3.624
 7234W        W78850  32.922  39.082  12.862
 7235W        W78851  41.795   3.205   0.976
 7236W        W78852  40.887  20.621   1.455
 7237W        W78853   9.713  21.581  13.460
 7238W        W78854  23.561  35.966   2.317
 7239W        W78855  25.719   1.731  10.528
 7240W        W78856  37.667  43.902   3.188
 7241W        W78857  13.765  19.012   0.373
 7242W        W78858   1.934  31.145   4.084
 7243W        W78859  21.568  30.950  10.774
 7244W        W78860  38.029   1.780  12.685
 7245W        W78861   3.853  41.303  10.809
 7246W        W78862  36.517  42.814  12.347
 7247W        W78863  33.376  10.310  11.675
 7248W        W78864  40.011  13.698   2.342
 7249W        W78865  39.537  12.212  12.078
 7250W        W78866  12.096  38.004  14.033
 7251W        W78867  21.242  32.021  10.833
 7252W        W78868   2.442  41.789   1.353
 7253W        W78869  37.091  30.726   3.249
 7254W        W78870   0.307  23.294  14.871
 7255W        W78871  38.791  41.648  14.435
 7256W        W78872  20.579  36.175   0.101
 7257W        W78873  15.934  34.509   2.789
 7258W        W78874   6.687   3.318   4.498
 7259W        W78875   2.258  24.123  12.122
 7260W        W78876  15.606  20.561   1.417
 7261W        W78877  34.156   6.158  14.514
 7262W        W78878  29.516  43.431   0.526
 7263W        W78879  32.595  41.666  11.652
 7264W        W78880  23.138   2.090  14.390
 7265W        W78881  37.877  21.741   1.959
 7266W        W78882  11.632   6.401   1.848
 7267W        W78883  23.369   0.123   4.227
 7268W        W78884  28.250  28.517   1.802
 7269W        W78885  42.421  14.912   4.511
 7270W        W78886  44.408  39.453   1.362
 7271W        W78887  12.086  35.380   4.665
 7272W        W78888   3.604  40.914   3.276
 7273W        W78889  30.381  34.347   1.287
 7274W        W78890  24.992  26.541  13.424
 7275W        W78891  25.425  42.356  11.634
 7276W        W78892  22.146  18.207   0.081
 7277W        W78893  16.319   8.693   3.153
 7278W        W78894  31.196   0.003   9.798
 7279W        W78895  16.653   3.721   2.679
 7280W        W78896  13.232  15.791  12.654
 7281W        W78897  44.666   0.741   3.165
 7282W        W78898   8.903  27.892   3.737
 7283W        W78899  10.420  40.446  11.861
 7284W        W78900  39.914   0.315   2.143
 7285W        W78901  38.438  39.243   2.569
 7286W        W78902   1.029  10.973  12.519
 7287W        W78903  10.179   1.611   3.271
 7288W        W78904   2.237   0.745   5.341
 7289W        W78905   7.313   4.903  11.223
 7290W        W78906  40.851  38.353   4.241
 7291W        W78907  35.864  35.472   0.419
 7292W        W78908  32.410  28.278  12.892
 7293W        W78909  35.506  19.609  13.249
 7294W        W78910  29.398  11.590  12.055
 7295W        W78911  37.270  44.122  12.039
 7296W        W78912   5.514  21.513  14.713
 7297W        W78913  20.245  34.263   3.386
 7298W        W78914  11.330  40.797   0.392
 7299W        W78915   0.956  30.085   3.789
 7300W        W78916  29.468  22.934  11.828
 7301W        W78917  42.072  35.350   3.352
 7302W        W78918  13.044  39.950   1.757
 7303W        W78919   9.667  32.551   3.401
 7304W        W78920   5.476  30.573   1.320
 7305W        W78921  34.148  20.197  11.150
 7306W        W78922  25.905   6.043  13.138
 7307W        W78923  23.549  14.120  13.012
 7308W        W78924  16.309  28.704  13.997
 7309W        W78925  21.485  37.492  13.187
 7310W        W78926   7.635  44.809   4.611
 7311W        W78927  12.688  41.729   4.147
 7312W        W78928  14.051  42.542   2.156
 7313W        W78929   5.858  29.460   2.997
 7314W        W78930  20.500   5.475  11.016
 7315W        W78931  29.963  28.753   1.908
 7316W        W78932  36.650  31.646  11.434
 7317W        W78933  32.745  33.086   0.411
 7318W        W78934  28.258   4.058  12.024
 7319W        W78935  10.191  14.713  14.246
 7320W        W78936  12.135  29.920  12.893
 7321W        W78937  18.171  35.619   4.882
 7322W        W78938  19.501  25.529  14.659
 7323W        W78939  21.051  13.696   1.823
 7324W        W78940   9.364  11.756   3.257
 7325W        W78941  20.629   4.420   3.373
 7326W        W78942   5.244  43.018   1.460
 7327W        W78943   4.451  10.887   2.617
 7328W        W78944   2.504  25.304   5.102
 7329W        W78945  43.867  11.364  14.997
 7330W        W78946  18.810   1.726  10.744
 7331W        W78947   8.882  27.284  11.553
 7332W        W78948  16.165   0.099  14.346
 7333W        W78949  37.083   8.568  13.831
 7334W        W78950  29.478  15.052   1.749
 7335W        W78951   1.431  12.784  12.008
 7336W        W78952  16.315   9.303  12.457
 7337W        W78953  39.928  18.190   3.981
 7338W        W78954   6.682   0.697  14.322
 7339W        W78955  43.770  42.269   3.371
 7340W        W78956   1.136   9.390   4.169
 7341W        W78957   3.306  41.718   1.226
 7342W        W78958  21.521   3.327   4.405
 7343W        W78959  39.747  30.935  10.747
 7344W        W78960  27.144  14.748  10.749
 7345W        W78961  10.610  17.794   2.249
 7346W        W78962  32.850  40.448   2.878
 7347W        W78963  10.306  25.669  14.749
 7348W        W78964   0.528  18.677  11.142
 7349W        W78965  31.736   7.385  13.485
 7350W        W78966  13.578  21.217  14.023
 7351W        W78967  35.878  25.932   0.876
 7352W        W78968  29.998   5.142   4.539
 7353W        W78969  24.796  17.212   2.941
 7354W        W78970   5.977  25.199   1.759
 7355W        W78971   1.810  19.495  13.780
 7356W        W78972  13.639  31.181   3.658
 7357W        W78973  36.108  32.271  13.088
 7358W        W78974  30.944   8.375  14.088
 7359W        W78975  27.063  22.249   2.694
 7360W        W78976  37.491  23.688   1.050
 7361W        W78977   6.391  18.256  14.862
 7362W        W78978   9.812  11.801   1.507
 7363W        W78979  13.732  16.028   3.212
 7364W        W78980  13.177  14.079   1.707
 7365W        W78981  36.763  37.440  12.976
 7366W        W78982  35.967  42.514   0.345
 7367W        W78983  21.974  23.697  12.403
 7368W        W78984  16.111   7.887  10.225
 7369W        W78985  35.114  18.315   1.860
 7370W        W78986  16.730  35.131  14.043
 7371W        W78987  35.668   3.231   2.157
 7372W        W78988  40.402  40.372   0.727
 7373W        W78989  40.684  21.879  11.122
 7374W        W78990  30.767  21.674   2.811
 7375W        W78991  38.313  15.716  10.896
 7376W        W78992  39.949  39.818  13.503
 7377W        W78993  15.220   0.677  12.079
 7378W        W78994  21.033  21.528   4.920
 7379W        W78995  39.483  10.394   5.021
 7380W        W78996  15.852  29.623  13.492
 7381W        W78997  35.334  26.665   2.348
 7382W        W78998  40.761  13.259  12.940
 7383W        W78999  26.586  28.420  13.893
 7384W        W79000  28.110  26.738  11.936
 7385W        W79001  36.909   2.220  10.667
 7386W        W79002  11.685  31.451  14.377
 7387W        W79003  33.651  11.803  10.754
 7388W        W79004   9.677   4.948  11.542
 7389W        W79005  10.736  44.269  11.831
 7390W        W79006  20.688  31.560   2.933
 7391W        W79007  40.363  25.095   3.217
 7392W        W79008  32.838  31.683  12.724
 7393W        W79009  28.952  38.319   1.768
 7394W        W79010  24.219   5.933   4.202
 7395W        W79011  14.427   9.683  11.568
 7396W        W79012  18.340  38.078   1.476
 7397W        W79013  18.340  18.878  13.739
 7398W        W79014  26.160  15.243  12.597
 7399W        W79015  24.834   1.071   3.934
 7400W        W79016  27.190   2.089   2.828
 7401W        W79017   2.600  28.928  10.718
 7402W        W79018  12.167  22.528   3.632
 7403W        W79019  33.128  24.772  14.351
 7404W        W79020  18.645   6.965  12.544
 7405W        W79021  18.817  15.531  10.271
 7406W        W79022  41.192  11.092   4.079
 7407W        W79023  42.723  28.814   2.455
 7408W        W79024  37.901  22.470  14.733
 7409W        W79025   2.948  15.610   3.716
 7410W        W79026  22.484  44.334  12.857
 7411W        W79027   9.059  11.220   1.268
 7412W        W79028   7.484  32.040  14.810
 7413W        W79029  14.301  26.967  12.915
 7414W        W79030   0.468  17.649   0.392
 7415W        W79031  43.432  38.960   5.159
 7416W        W79032  37.775  28.228   3.226
 7417W        W79033  12.922  31.085  14.430
 7418W        W79034  34.062  35.526   0.405
 7419W        W79035  34.141  25.372  11.493
 7420W        W79036  30.998  23.723  10.730
 7421W        W79037  17.088  10.899  10.690
 7422W        W79038  27.627  26.559  11.627
 7423W        W79039  14.982  43.939   1.448
 7424W        W79040  10.847  23.942   3.222
 7425W        W79041   4.774  40.896  11.569
 7426W        W79042  19.726   4.235  13.907
 7427W        W79043  29.877  43.157  12.469
 7428W        W79044  11.890  42.519  14.427
 7429W        W79045  10.252  17.968   4.155
 7430W        W79046   1.392  43.097  10.513
 7431W        W79047  38.929  11.611  14.970
 7432W        W79048  38.008  36.559   4.905
 7433W        W79049  24.767  36.921   4.583
 7434W        W79050   4.774  10.578   2.387
 7435W        W79051  42.943  27.991  14.501
 7436W        W79052  16.735  43.472  14.236
 7437W        W79053  43.774  35.901   2.633
 7438W        W79054  14.064  36.372  12.894
 7439W        W79055  37.358  16.782   0.407
 7440W        W79056  28.164  29.200   3.684
 7441W        W79057  36.261   3.084  11.631
 7442W        W79058  36.429  20.306   0.152
 7443W        W79059  34.629  27.022   4.749
 7444W        W79060   0.531   9.228  13.903
 7445W        W79061  33.495  11.456   3.326
 7446W        W79062  29.608  18.526  13.009
 7447W        W79063  10.603  16.673  13.509
 7448W        W79064  28.727  12.208   2.648
 7449W        W79065  24.754  42.635   2.659
 7450W        W79066  36.145  27.055  11.111
 7451W        W79067   4.354  30.443  13.854
 7452W        W79068  24.286  17.179  11.477
 7453W        W79069   8.739  16.118   3.707
 7454W        W79070   2.431  12.285   4.685
 7455W        W79071  28.530  24.560   2.099
 7456W        W79072  28.397  33.410  13.018
 7457W        W79073  18.330   2.659   4.117
 7458W        W79074  10.425   3.979   0.400
 7459W        W79075  25.561  27.933  13.916
 7460W        W79076  30.232  26.023   1.223
 7461W        W79077   2.660  27.186  13.821
 7462W        W79078   4.230  25.934   2.785
 7463W        W79079  15.005  16.374   0.958
 7464W        W79080  17.316  14.813  12.468
 7465W        W79081  27.535  40.594   1.925
 7466W        W79082   1.156   1.311   2.600
 7467W        W79083   8.378   4.895   4.866
 7468W        W79084  20.545  23.199  13.035
 7469W        W79085  25.439  21.174   4.103
 7470W        W79086  34.569  37.076  13.537
 7471W        W79087  35.315   8.548  11.948
 7472W        W79088  25.521   1.917   2.151
 7473W        W79089  41.789  17.054   4.137
 7474W        W79090  39.578   6.787   2.671
 7475W        W79091  10.668  39.049   1.131
 7476W        W79092   0.120  16.748  14.868
 7477W        W79093  43.964  27.802  11.230
 7478W        W79094   9.445   6.367   1.372
 7479W        W79095  15.569  22.378   2.231
 7480W        W79096  44.739  20.973   3.554
 7481W        W79097  11.310  17.157   1.402
 7482W        W79098  38.004   0.257   1.450
 7483W        W79099   7.234  26.758  12.794
 7484W        W79100   7.846  40.257   3.303
 7485W        W79101  34.403  24.685   3.935
 7486W        W79102  18.334   7.310   0.668
 7487W        W79103   9.161  10.624   0.862
 7488W        W79104  18.436   3.788   2.427
 7489W        W79105  11.117  21.569   1.385
 7490W        W79106  38.620  16.238  12.028
 7491W        W79107  16.638   4.762   1.973
 7492W        W79108   3.847  43.909   4.153
 7493W        W79109  17.553  29.499   1.949
 7494W        W79110  43.823  11.297   2.543
 7495W        W79111   6.837  28.975  14.299
 7496W        W79112  20.785  14.346  13.030
 7497W        W79113  10.642  23.411   1.319
 7498W        W79114  44.816  15.254  13.935
 7499W        W79115   4.742  19.552   3.192
 7500W        W79116   2.437  43.482   3.713
 7501W        W79117  27.900  15.883   3.787
 7502W        W79118  11.686   7.364  10.703
 7503W        W79119   7.876  34.476  13.373
 7504W        W79120  43.109   8.224  14.426
 7505W        W79121  18.221  28.945   3.201
 7506W        W79122  43.393  29.559   3.749
 7507W        W79123   7.912  25.901  11.116
 7508W        W79124  29.926  31.266   2.784
 7509W        W79125  44.237  24.331   1.895
 7510W        W79126  16.554  18.344   3.786
 7511W        W79127  42.366  20.201  12.054
 7512W        W79128  44.353  28.175  13.008
 7513W        W79129  41.464  18.458  12.998
 7514W        W79130   4.160  25.591   4.865
 7515W        W79131   6.363   9.603  10.721
 7516W        W79132  25.570  38.212   2.163
 7517W        W79133  16.631   4.950  14.647
 7518W        W79134  21.812  30.797  11.217
 7519W        W79135  32.909  10.193  10.394
 7520W        W79136  40.919   9.143  12.630
 7521W        W79137  30.447   6.402  12.502
 7522W        W79138  15.819  11.830   1.682
 7523W        W79139  11.945  39.857  14.840
 7524W        W79140  37.591  20.163   2.359
 7525W        W79141   9.002  11.332   3.613
 7526W        W79142  22.419  18.231  11.921
 7527W        W79143  40.462  34.082   4.061
 7528W        W79144   5.624   7.099   4.864
 7529W        W79145   2.661   0.354   0.929
 7530W        W79146  14.414  37.130   4.491
 7531W        W79147  16.730   6.211   3.730
 7532W        W79148  41.520  39.617   3.772
 7533W        W79149  39.371   8.692  13.409
 7534W        W79150  18.520  44.870   1.001
 7535W        W79151  34.468  22.132   1.891
 7536W        W79152   2.943  19.269   4.714
 7537W        W79153  25.737  41.968   1.879
 7538W        W79154  33.011  29.397   0.959
 7539W        W79155  39.339  26.251   3.126
 7540W        W79156  40.277   9.315   0.511
 7541W        W79157  35.077  17.503  11.073
 7542W        W79158  16.574  35.916   4.601
 7543W        W79159  33.351  32.444   3.174
 7544W        W79160  19.239  41.468  12.327
 7545W        W79161  14.517  32.539  11.432
 7546W        W79162  14.580  27.048  10.483
 7547W        W79163  44.044  18.415   3.902
 7548W        W79164   8.137  17.357  12.481
 7549W        W79165  40.568  35.658  12.591
 7550W        W79166   2.785  22.183  13.356
 7551W        W79167  21.690  11.409   0.336
 7552W        W79168  22.075  41.438   3.723
 7553W        W79169  40.390  17.099   2.274
 7554W        W79170   0.867  30.429   4.168
 7555W        W79171  35.343  25.130   2.191
 7556W        W79172  42.864  27.890   4.207
 7557W        W79173   4.586  40.439   0.402
 7558W        W79174   0.406  43.022   4.639
 7559W        W79175   6.361   4.757  14.516
 7560W        W79176  10.373  12.058   4.791
 7561W        W79177  40.887  40.963   0.819
 7562W        W79178  17.799  18.562   0.787
 7563W        W79179  29.212  32.346  11.720
 7564W        W79180  12.679  29.326  13.822
 7565W        W79181  25.742  36.572   2.181
 7566W        W79182   4.510   6.416   1.862
 7567W        W79183  24.038  13.814  11.888
 7568W        W79184   6.367  26.423   2.735
 7569W        W79185   3.736  31.762  11.666
 7570W        W79186  40.358  27.842  12.108
 7571W        W79187  17.475  29.511  14.940
 7572W        W79188  15.187  36.473   3.594
 7573W        W79189  10.952   7.888  13.405
 7574W        W79190  23.144  39.491  12.422
 7575W        W79191  28.120  22.536  11.413
 7576W        W79192  43.273  36.345   5.052
 7577W        W79193  33.382  25.496   3.243
 7578W        W79194  21.415  34.686  10.224
 7579W        W79195  42.343  25.355  13.999
 7580W        W79196  36.866   5.619  11.157
 7581W        W79197  35.566   9.595  10.601
 7582W        W79198  19.155  17.226   3.943
 7583W        W79199  37.423  16.805  11.637
 7584W        W79200   0.964  37.362  10.658
 7585W        W79201  36.508   9.644   0.410
 7586W        W79202  28.968  29.126   1.272
 7587W        W79203   0.561  40.740  11.646
 7588W        W79204  43.047  25.432   0.665
 7589W        W79205  29.191  25.053   2.674
 7590W        W79206  33.126  18.641  13.755
 7591W        W79207  11.150  38.892   1.259
 7592W        W79208  19.266  15.057   0.525
 7593W        W79209  30.013  13.785   3.238
 7594W        W79210  17.554  12.531   2.256
 7595W        W79211  43.926  27.751  13.091
 7596W        W79212  11.716   3.788   4.982
 7597W        W79213  42.500  18.797  10.606
 7598W        W79214  38.440  22.482   4.509
 7599W        W79215  43.352   0.569   3.392
 7600W        W79216   3.457  41.759  13.499
 7601W        W79217   0.766  43.379  14.345
 7602W        W79218  24.961  40.087  10.755
 7603W        W79219  38.780  20.479  12.945
 7604W        W79220   7.425  11.564   0.261
 7605W        W79221  43.909   7.549   3.647
 7606W        W79222  39.796   9.846  10.930
 7607W        W79223  25.712   6.485  12.454
 7608W        W79224  27.193  41.442  11.899
 7609W        W79225  26.603  19.270  14.491
 7610W        W79226   4.338  44.362   4.618
 7611W        W79227  30.938   4.730   0.927
 7612W        W79228  43.544  25.992  11.521
 7613W        W79229  20.811  31.410  14.852
 7614W        W79230  19.171   6.794  14.971
 7615W        W79231  27.566  12.907   2.385
 7616W        W79232   8.065  14.623   2.715
 7617W        W79233  10.165   9.984  10.654
 7618W        W79234  30.453  14.420  12.636
 7619W        W79235  28.981  14.989   3.706
 7620W        W79236  27.504  17.304   2.139
 7621W        W79237  42.142  31.016   3.373
 7622W        W79238   2.529  32.935   0.862
 7623W        W79239  22.515  31.726  10.226
 7624W        W79240  24.142  17.720  14.438
 7625W        W79241  43.759  10.410   0.965
 7626W        W79242  40.969  32.185   1.257
 7627W        W79243  28.192  44.600   2.827
 7628W        W79244  38.305  34.164   3.203
 7629W        W79245  31.865  40.481  13.459
 7630W        W79246  30.591  11.167   0.304
 7631W        W79247  40.046  23.624  10.712
 7632W        W79248   1.781  30.017  13.514
 7633W        W79249  17.502  18.567   1.216
 7634W        W79250  24.768  25.618  14.509
 7635W        W79251  13.900  29.463  14.384
 7636W        W79252  37.929  14.981  12.890
 7637W        W79253  29.063   8.937  13.967
 7638W        W79254   3.833   6.657   0.882
 7639W        W79255  15.577  31.982  14.956
 7640W        W79256  24.497  15.295   0.485
 7641W        W79257   1.429  44.358  14.928
 7642W        W79258  29.301  28.156  10.313
 7643W        W79259  30.268   1.747  11.056
 7644W        W79260  17.370  27.734  10.598
 7645W        W79261   3.906  22.705   2.812
 7646W        W79262  39.405  21.792  13.090
 7647W        W79263  42.408  19.242  13.760
 7648W        W79264  25.004  24.288  11.739
 7649W        W79265  36.659  42.909  11.861
 7650W        W79266  33.493  20.044   2.609
 7651W        W79267  12.789  14.999  11.554
 7652W        W79268   2.441  27.754  14.787
 7653W        W79269  14.824  30.580  14.368
 7654W        W79270  20.227   1.015  14.322
 7655W        W79271  18.121  41.509  10.227
 7656W        W79272  22.290  10.587  12.005
 7657W        W79273  39.584   3.365  11.864
 7658W        W79274  33.260   1.570  11.304
 7659W        W79275  13.706   9.424   0.368
 7660W        W79276  24.037  20.171   1.624
 7661W        W79277  39.455   7.198  14.525
 7662W        W79278   4.382  34.283   3.738
 7663W        W79279  29.153   3.305   1.044
 7664W        W79280  21.046   9.102   2.104
 7665W        W79281  19.720  43.335   3.178
 7666W        W79282  38.550  22.819   4.144
 7667W        W79283   2.925  27.128  11.989
 7668W        W79284  27.757  39.552  12.158
 7669W        W79285  16.885   2.294   2.798
 7670W        W79286  13.669  21.789  12.228
 7671W        W79287  17.097   6.313   1.392
 7672W        W79288   0.437   3.750   2.451
 7673W        W79289   1.305  18.055  12.371
 7674W        W79290   2.825  29.398  10.755
 7675W        W79291  23.744  21.784   3.098
 7676W        W79292   4.772   8.117   4.651
 7677W        W79293   5.901  21.238   4.402
 7678W        W79294  28.095  32.387   3.920
 7679W        W79295   5.180   1.426   0.111
 7680W        W79296  38.586  27.998   3.809
 7681W        W79297  15.329  42.514   2.739
 7682W        W79298  43.007  11.221   0.431
 7683W        W79299  18.434  33.016   4.547
 7684W        W79300  40.303   9.749  10.971
 7685W        W79301  10.795  43.150   3.668
 7686W        W79302  40.946   9.983  14.441
 7687W        W79303  31.182  16.165  11.949
 7688W        W79304  22.531  29.647   3.560
 7689W        W79305  11.773  28.543   2.779
 7690W        W79306  35.472  22.930   1.787
 7691W        W79307  22.419  21.502   3.142
 7692W        W79308  35.878  44.729   1.371
 7693W        W79309  20.184  31.969   0.882
 7694W        W79310  15.259  35.304   3.739
 7695W        W79311  41.937  24.261  11.083
 7696W        W79312  38.047  15.784  14.158
 7697W        W79313  11.949  27.266  14.868
 7698W        W79314  12.036   5.410   1.996
 7699W        W79315   5.954  13.836   1.911
 7700W        W79316  17.293   6.674  14.977
 7701W        W79317   9.912  26.543   4.583
 7702W        W79318  28.430   3.015   1.323
 7703W        W79319  33.801  18.101  10.619
 7704W        W79320   8.773  25.506   0.895
 7705W        W79321  19.943  34.499  11.177
 7706W        W79322   5.356  35.973   2.942
 7707W        W79323  27.564   9.627   3.056
 7708W        W79324  18.270  26.138   4.748
 7709W        W79325  17.161  22.281   1.272
 7710W        W79326   6.645   6.075   0.295
 7711W        W79327  38.414   1.594   4.589
 7712W        W79328  11.641  20.323  11.682
 7713W        W79329  32.399  22.970   4.457
 7714W        W79330   9.122  36.488  12.411
 7715W        W79331   1.255   8.299  14.360
 7716W        W79332  24.904  40.903  14.543
 7717W        W79333   9.120   1.029   1.678
 7718W        W79334   7.357   5.306  10.921
 7719W        W79335  43.017  29.906   3.833
 7720W        W79336   8.856   3.116  10.560
 7721W        W79337  12.229  19.138  11.103
 7722W        W79338   1.741  27.181   2.480
 7723W        W79339  36.982   1.487  11.354
 7724W        W79340  43.242  33.601  14.806
 7725W        W79341  17.475  33.003  13.390
 7726W        W79342  15.682  37.553   4.412
 7727W        W79343  28.547  41.388  10.538
 7728W        W79344  37.646  31.589  13.090
 7729W        W79345  25.115   9.464   2.753
 7730W        W79346  22.208   3.801   4.108
 7731W        W79347   3.416  28.532   0.916
 7732W        W79348   1.655  43.606  12.874
 7733W        W79349  35.373  12.183  14.966
 7734W        W79350  10.813   6.099  11.889
 7735W        W79351  23.835  24.747  11.089
 7736W        W79352  42.315   0.664   3.238
 7737W        W79353  44.918  20.053  11.230
 7738W        W79354  36.699   3.651   4.275
 7739W        W79355  19.535   3.289  13.126
 7740W        W79356  33.432  20.735  13.434
 7741W        W79357  12.769   8.466   0.277
 7742W        W79358  16.294  26.641   0.765
 7743W        W79359  31.874  28.436   3.446
 7744W        W79360  39.958   8.665  14.884
 7745W        W79361  13.777   8.676  13.896
 7746W        W79362  13.984   9.090   3.410
 7747W        W79363  32.986  41.859   4.713
 7748W        W79364  24.566  25.914   1.542
 7749W        W79365  36.436  10.847  12.626
 7750W        W79366  23.739  12.534   2.377
 7751W        W79367   0.243   3.562   4.579
 7752W        W79368  35.870  15.979  12.579
 7753W        W79369  29.475  44.885  11.721
 7754W        W79370  42.056   2.298   4.177
 7755W        W79371   3.898   9.777  14.835
 7756W        W79372  28.708  28.585  11.137
 7757W        W79373  24.599  20.088   4.400
 7758W        W79374  43.943  20.904   4.190
 7759W        W79375   0.979   5.180   0.385
 7760W        W79376  20.275  11.742  12.992
 7761W        W79377  36.452  10.376  14.379
 7762W        W79378  29.575  34.950   0.536
 7763W        W79379   7.352   2.875  12.322
 7764W        W79380  12.877  43.445  10.743
 7765W        W79381   8.184  44.346  14.982
 7766W        W79382  26.039  34.032  14.787
 7767W        W79383  20.409  42.886  10.131
 7768W        W79384  14.548  32.962   3.127
 7769W        W79385  30.884  31.732  14.835
 7770W        W79386  13.853  31.890   2.577
 7771W        W79387  21.268   0.837   1.309
 7772W        W79388  26.969  11.280   3.753
 7773W        W79389   1.498  23.254   1.854
 7774W        W79390  38.798  17.077  11.981
 7775W        W79391  12.493  29.385   4.329
 7776W        W79392  12.130  37.149   1.159
 7777W        W79393  11.209  25.491   2.855
 7778W        W79394  19.124  29.086   4.899
 7779W        W79395  30.591  22.830   0.165
 7780W        W79396  43.132  15.662   4.568
 7781W        W79397  10.705  15.239   0.716
 7782W        W79398  21.563  14.384   4.111
 7783W        W79399   8.521   1.366  13.580
 7784W        W79400   9.802   4.983  10.656
 7785W        W79401  31.518  36.430  13.392
 7786W        W79402  25.554  26.672  12.749
 7787W        W79403  10.596  26.135   0.945
 7788W        W79404  19.183  17.143  11.567
 7789W        W79405  35.422  42.745  14.491
 7790W        W79406  25.115   8.590  14.850
 7791W        W79407   7.980  37.563   1.852
 7792W        W79408  41.325  34.848  10.848
 7793W        W79409  31.903   6.580  11.974
 7794W        W79410  20.664  27.682  11.551
 7795W        W79411   9.623  13.094  12.940
 7796W        W79412  17.170  36.313  14.688
 7797W        W79413   4.237  32.479  14.793
 7798W        W79414  16.117   7.779  12.323
 7799W        W79415  30.446  38.059   1.658
 7800W        W79416  40.955  21.752  14.903
 7801W        W79417  18.825  13.675  11.122
 7802W        W79418  11.000   6.742  12.561
 7803W        W79419  23.991  25.555   3.748
 7804W        W79420   5.330  27.619  11.116
 7805W        W79421  18.778  22.240   0.366
 7806W        W79422  36.228   9.132  11.043
 7807W        W79423  18.240   3.771  13.526
 7808W        W79424  15.186  14.038   0.366
 7809W        W79425  37.408  15.062   4.979
 7810W        W79426  37.291  18.698   4.164
 7811W        W79427  13.967  12.824   3.261
 7812W        W79428  42.081   0.468  13.974
 7813W        W79429  30.078  32.954  10.463
 7814W        W79430  38.360   4.853  11.666
 7815W        W79431  22.393  23.682  12.085
 7816W        W79432  30.203  19.455  10.854
 7817W        W79433   9.413  13.678   0.771
 7818W        W79434  14.944  29.046   4.664
 7819W        W79435   9.934  35.929  14.783
 7820W        W79436  43.267  15.187   1.822
 7821W        W79437  44.160  29.233  11.871
 7822W        W79438   6.701  31.897   2.005
 7823W        W79439  29.512  13.584   2.105
 7824W        W79440   7.289  36.895  14.655
 7825W        W79441   4.791  44.117  11.943
 7826W        W79442  11.647   9.844   3.194
 7827W        W79443  43.482   9.842  11.612
 7828W        W79444  19.869  42.491   2.092
 7829W        W79445  37.992  30.842  11.576
 7830W        W79446  37.883   5.474   0.755
 7831W        W79447  38.375   9.250  14.503
 7832W        W79448   5.344  40.024  14.426
 7833W        W79449   3.276  15.357   2.358
 7834W        W79450  20.980   2.199   2.326
 7835W        W79451   0.954  38.356   4.869
 7836W        W79452  24.602  14.526  11.216
 7837W        W79453  16.927  12.719   1.325
 7838W        W79454  32.373  33.239   1.948
 7839W        W79455  35.475  28.111  10.560
 7840W        W79456  24.514  39.552   4.902
 7841W        W79457  29.894   4.745   4.237
 7842W        W79458   3.993   9.916   4.824
 7843W        W79459  37.976  17.002  12.477
 7844W        W79460  42.436   1.019  11.812
 7845W        W79461  42.930  42.582   3.312
 7846W        W79462   6.410  26.140   0.583
 7847W        W79463  10.894  43.317   0.946
 7848W        W79464  10.601   6.972   0.207
 7849W        W79465   2.693  11.635   3.238
 7850W        W79466  19.378  36.002   1.699
 7851W        W79467  35.212  41.028   3.046
 7852W        W79468   8.372  20.613  13.001
 7853W        W79469  40.383  31.090   0.957
 7854W        W79470  15.550  33.192   0.799
 7855W        W79471  25.115  12.888  12.064
 7856W        W79472  27.469  40.274  13.439
 7857W        W79473  20.183  13.109  11.201
 7858W        W79474   0.056  42.197  13.235
 7859W        W79475  21.067  36.111   4.573
 7860W        W79476  21.558  30.451   3.788
 7861W        W79477  35.099  11.245   1.982
 7862W        W79478  13.345  29.661   0.918
 7863W        W79479  14.681  21.256   0.823
 7864W        W79480  20.073  42.465  11.459
 7865W        W79481  42.440  26.958   4.304
 7866W        W79482   4.475  26.065  14.873
 7867W        W79483   5.457  14.772   0.706
 7868W        W79484  17.699  29.206   2.370
 7869W        W79485   5.971  39.562   2.580
 7870W        W79486   0.432  38.868   3.704
 7871W        W79487   4.798   3.739  11.091
 7872W        W79488  26.886   5.926  14.915
 7873W        W79489  20.733  13.885   2.196
 7874W        W79490  13.159   5.036  10.717
 7875W        W79491  11.684  23.032  11.180
 7876W        W79492   9.811  19.363  13.691
 7877W        W79493  33.778   1.339  13.486
 7878W        W79494   6.779  27.856   1.731
 7879W        W79495  34.382   9.254  12.519
 7880W        W79496  30.899  28.609  11.589
 7881W        W79497   9.801  15.352  14.445
 7882W        W79498   5.811   4.138  13.974
 7883W        W79499  23.727   8.826  12.458
 7884W        W79500  40.244  10.736  11.168
 7885W        W79501  11.088  43.497   4.436
 7886W        W79502  14.290  13.198   1.924
 7887W        W79503  16.207   1.712   0.361
 7888W        W79504  34.068  26.727  13.325
 7889W        W79505  38.996   8.731   4.254
 7890W        W79506  25.786  19.797   3.606
 7891W        W79507  44.580  19.781  10.326
 7892W        W79508  20.140  37.381   4.664
 7893W        W79509  43.489   9.369   0.410
 7894W        W79510   7.164  29.066   2.744
 7895W        W79511  16.207   6.143  10.104
 7896W        W79512  26.416  16.114   4.153
 7897W        W79513  22.112  14.777  12.817
 7898W        W79514  27.279   7.803  12.442
 7899W        W79515  16.649  18.164   5.279
 7900W        W79516   6.274  29.171   0.743
 7901W        W79517  15.913   2.875   4.078
 7902W        W79518  35.963  22.713   4.628
 7903W        W79519  17.840   5.254  11.128
 7904W        W79520   6.694  19.400   1.459
 7905W        W79521  18.287   5.808  11.498
 7906W        W79522  22.609  11.670  12.202
 7907W        W79523  29.745   4.009   4.339
 7908W        W79524  25.771  43.976  11.088
 7909W        W79525  40.018   4.990   3.683
 7910W        W79526   9.311  34.192   2.801
 7911W        W79527  32.152  41.514   1.351
 7912W        W79528  37.930   5.936   2.235
 7913W        W79529   5.850  44.402   3.512
 7914W        W79530  41.214  17.644   2.220
 7915W        W79531  13.570  35.427   2.638
 7916W        W79532  19.638  39.389  11.409
 7917W        W79533  17.035  42.434   2.729
 7918W        W79534  26.152  18.813  14.188
 7919W        W79535  37.649   6.816  11.736
 7920W        W79536   6.675  38.267  11.675
 7921W        W79537  39.146  32.182  11.403
 7922W        W79538  10.410  19.371   1.675
 7923W        W79539  31.593   0.254  10.045
 7924W        W79540  25.427  30.982   2.624
 7925W        W79541  22.704  30.433   1.438
 7926W        W79542  32.148  32.433  13.663
 7927W        W79543  37.737   6.707   1.195
 7928W        W79544  28.067  20.010   2.783
 7929W        W79545  26.236  10.218   0.193
 7930W        W79546   9.830  24.459   4.313
 7931W        W79547  42.421   7.121   3.699
 7932W        W79548  28.668  44.794   3.586
 7933W        W79549  15.891  11.653  12.559
 7934W        W79550  31.741  38.354   0.366
 7935W        W79551  43.280  17.604  14.538
 7936W        W79552  24.593  42.536   0.612
 7937W        W79553  41.656  42.966   5.056
 7938W        W79554  31.490  30.305   1.333
 7939W        W79555   3.277  25.193  10.705
 7940W        W79556  43.772   9.253  14.987
 7941W        W79557   4.812  21.579   3.591
 7942W        W79558  32.688  28.101   0.574
 7943W        W79559   3.803  10.247   2.867
 7944W        W79560  28.303   9.813  13.499
 7945W        W79561  39.335  10.478  10.937
 7946W        W79562  21.089   2.620  13.982
 7947W        W79563   9.810   9.257  12.210
 7948W        W79564   3.322   7.574   3.123
 7949W        W79565  27.327   8.760  10.769
 7950W        W79566   5.308  39.438   0.836
 7951W        W79567  12.130  26.690   0.351
 7952W        W79568  29.538  27.012   3.513
 7953W        W79569  35.823  21.713  13.742
 7954W        W79570  29.660  34.905   5.114
 7955W        W79571  26.717  18.539  13.954
 7956W        W79572  20.422  16.362   1.985
 7957W        W79573  31.597  27.151   0.347
 7958W        W79574   3.833  10.865   3.706
 7959W        W79575  14.797  15.728   4.641
 7960W        W79576  27.504  22.577  14.439
 7961W        W79577   3.348  18.774   2.310
 7962W        W79578   0.917  24.936   1.479
 7963W        W79579  12.447  30.605   2.393
 7964W        W79580  21.160  41.275   3.179
 7965W        W79581   1.326  24.713   9.761
 7966W        W79582  26.056   2.977  12.874
 7967W        W79583   7.458  42.812   3.359
 7968W        W79584   0.359  26.016   3.835
 7969W        W79585  40.824  17.187   4.090
 7970W        W79586   2.367  35.086   3.830
 7971W        W79587  25.728  41.528   2.235
 7972W        W79588  15.308  19.124   0.981
 7973W        W79589   9.405   3.422   5.147
 7974W        W79590   6.897   0.784   4.043
 7975W        W79591   8.669  22.391  14.964
 7976W        W79592  40.658  20.624  10.675
 7977W        W79593  42.661  14.356  10.942
 7978W        W79594   8.703  43.950   0.645
 7979W        W79595   6.832  44.060   4.464
 7980W        W79596  14.292  44.536  13.956
 7981W        W79597  28.842  43.436   4.779
 7982W        W79598  27.685  41.133  13.666
 7983W        W79599  14.204  39.417  10.637
 7984W        W79600  36.109  29.693   2.834
 7985W        W79601  36.220   3.391   4.998
 7986W        W79602  31.155  27.674   1.153
 7987W        W79603  15.365  19.450   5.075
 7988W        W79604  19.276  28.610   2.207
 7989W        W79605  24.636  33.734   3.894
 7990W        W79606  33.635  25.151  14.831
 7991W        W79607  44.709  20.077   3.368
 7992W        W79608  33.981  18.658   1.928
 7993W        W79609  18.273  40.533  12.530
 7994W        W79610   3.832  37.838  13.479
 7995W        W79611  26.701  15.631  14.343
 7996W        W79612  11.337  30.703   1.269
 7997W        W79613  26.030  40.780  13.115
 7998W        W79614   5.330   0.076   3.336
 7999W        W79615  18.140   1.480  11.638
 8000W        W79616   5.316  33.358   1.754
 8001W        W79617  17.713  19.994  13.630
 8002W        W79618  28.344  30.432  11.486
 8003W        W79619  17.885  12.600   0.280
 8004W        W79620   2.825  28.118   1.816
 8005W        W79621  39.408  29.240   4.398
 8006W        W79622  17.810   5.886  12.065
 8007W        W79623  40.478   6.869  11.581
 8008W        W79624  15.328  28.486  13.877
 8009W        W79625  27.963   3.627   3.296
 8010W        W79626  22.981   6.444   1.013
 8011W        W79627   9.828  35.593   2.179
 8012W        W79628  27.555  39.460   3.824
 8013W        W79629  11.860   5.320  13.386
 8014W        W79630  18.997  38.486  10.903
 8015W        W79631   7.998  33.995  13.206
 8016W        W79632  20.426   6.157   1.746
 8017W        W79633   0.818  43.804   0.897
 8018W        W79634   7.964  28.139   0.370
 8019W        W79635   5.797  37.514   1.964
 8020W        W79636   5.873  21.448  10.941
 8021W        W79637  36.019   2.224  10.996
 8022W        W79638  16.745  13.403  12.792
 8023W        W79639  27.732   4.259  12.628
 8024W        W79640   0.977   5.752   3.207
 8025W        W79641  31.227  16.514  14.210
 8026W        W79642  25.753  24.083   1.084
 8027W        W79643  29.382  25.652   1.688
 8028W        W79644  38.376  19.165  12.367
 8029W        W79645  12.362  19.630   3.639
 8030W        W79646  13.415  11.687   4.399
 8031W        W79647   6.732   3.739   1.021
 8032W        W79648  23.518  31.418   4.634
 8033W        W79649  17.930  33.780  10.660
 8034W        W79650   1.939  33.788  14.470
 8035W        W79651   1.876   6.683   0.507
 8036W        W79652  12.321   3.115  13.874
 8037W        W79653   2.467  43.297  12.464
 8038W        W79654  38.595   3.512  11.947
 8039W        W79655  27.216   2.921   5.059
 8040W        W79656  44.516  41.462   1.513
 8041W        W79657  30.115  12.699   1.339
 8042W        W79658  31.950  37.652  10.469
 8043W        W79659  41.591  41.067  10.739
 8044W        W79660  10.102  40.805   0.969
 8045W        W79661  27.696  30.485  13.569
 8046W        W79662  43.786  10.584   3.638
 8047W        W79663   2.196  26.646  11.434
 8048W        W79664  16.983  31.594  10.713
 8049W        W79665  18.500  27.014  10.748
 8050W        W79666  16.821  40.275  11.731
 8051W        W79667  30.601  34.930   4.108
 8052W        W79668  18.729  14.797  14.924
 8053W        W79669  15.286   2.295  11.503
 8054W        W79670   1.423   4.989  12.191
 8055W        W79671   3.040  29.273   4.963
 8056W        W79672   7.362  22.361  14.751
 8057W        W79673  18.364  23.681   0.821
 8058W        W79674  33.808  19.002   3.281
 8059W        W79675  38.995  14.371   3.617
 8060W        W79676  23.235  24.997   0.831
 8061W        W79677  23.361  15.604  12.271
 8062W        W79678  41.367  35.884  11.990
 8063W        W79679   2.910  13.639  10.592
 8064W        W79680   0.683  44.908  14.081
 8065W        W79681  26.980  33.941  14.189
 8066W        W79682  23.040  20.607   3.750
 8067W        W79683  26.289  35.345   0.499
 8068W        W79684  41.760  13.110  11.232
 8069W        W79685  14.194  20.229   5.303
 8070W        W79686  32.327   0.023  12.540
 8071W        W79687  15.245   6.787   4.594
 8072W        W79688  36.172  21.589   2.290
 8073W        W79689  25.497  39.645   2.346
 8074W        W79690  43.403   5.281  12.463
 8075W        W79691  20.686  41.038   1.668
 8076W        W79692  38.921   9.280   4.247
 8077W        W79693  33.858  41.592  12.137
 8078W        W79694  37.788  20.195   1.769
 8079W        W79695   0.443  30.903   3.122
 8080W        W79696  30.779   6.428   2.808
 8081W        W79697  27.062  44.514   4.616
 8082W        W79698  16.139  15.820   0.506
 8083W        W79699  15.046  34.893   1.730
 8084W        W79700  12.408  36.455   4.591
 8085W        W79701  13.780   3.650   4.212
 8086W        W79702  16.283  29.098   3.239
 8087W        W79703  33.517  27.663   4.564
 8088W        W79704  43.082  10.676   2.169
 8089W        W79705  36.917  22.995   2.792
 8090W        W79706  34.482   3.835   0.226
 8091W        W79707  33.443  27.126   1.260
 8092W        W79708   8.686  20.941   3.194
 8093W        W79709   2.814  39.257   4.591
 8094W        W79710  20.062  41.488   2.312
 8095W        W79711  25.257   3.210   3.639
 8096W        W79712  35.800  19.289  12.537
 8097W        W79713  29.184   7.433  13.877
 8098W        W79714  25.422   8.573  14.329
 8099W        W79715  37.370  44.839   2.132
 8100W        W79716  17.524  32.571   2.859
 8101W        W79717  31.276  40.657  10.432
 8102W        W79718  42.698  27.629   2.795
 8103W        W79719  43.491  36.266   3.340
 8104W        W79720   1.320  24.926  13.949
 8105W        W79721  24.120  35.925   4.049
 8106W        W79722  34.700  31.651  13.357
 8107W        W79723  37.437  16.637  12.499
 8108W        W79724  13.531   7.142   1.395
 8109W        W79725  12.566  18.856  11.701
 8110W        W79726  43.178  38.503   5.218
 8111W        W79727  39.763  10.657   4.668
 8112W        W79728  38.395  14.194   4.179
 8113W        W79729  27.914   0.147  11.313
 8114W        W79730  42.979   4.804  13.519
 8115W        W79731  31.811  16.174   2.330
 8116W        W79732  23.665  10.710  12.535
 8117W        W79733   3.153  29.204   2.786
 8118W        W79734  31.215  25.932   3.640
 8119W        W79735  42.578  28.648  11.566
 8120W        W79736  24.959  18.096  14.334
 8121W        W79737  37.425  42.320   1.025
 8122W        W79738   5.993  23.672  13.403
 8123W        W79739  13.045   8.184   4.073
 8124W        W79740  13.082  19.024  14.752
 8125W        W79741  18.129  10.315   0.771
 8126W        W79742   9.388  17.292   2.295
 8127W        W79743   4.261   8.893  13.016
 8128W        W79744  34.111  14.320  13.023
 8129W        W79745  30.505  32.090  10.583
 8130W        W79746  12.284  37.996   2.766
 8131W        W79747  40.395   1.693  11.171
 8132W        W79748   3.817  20.513  11.999
 8133W        W79749  38.837  12.189  14.325
 8134W        W79750   4.142  35.574  12.773
 8135W        W79751  32.573   6.960   2.775
 8136W        W79752  44.771  23.149   3.091
 8137W        W79753  27.493  44.064   3.671
 8138W        W79754   6.824  12.674   4.126
 8139W        W79755  37.517  41.092  13.598
 8140W        W79756   8.535   7.316  13.077
 8141W        W79757  43.436  14.556   1.231
 8142W        W79758   9.860  34.612  13.118
 8143W        W79759   9.119   5.904  11.523
 8144W        W79760  16.009  30.608   3.206
 8145W        W79761  25.190   2.420   2.282
 8146W        W79762  14.922   3.194  10.236
 8147W        W79763  20.533  19.192   2.327
 8148W        W79764   2.453  16.366  14.783
 8149W        W79765  12.058  17.330   3.787
 8150W        W79766   4.105  40.746   4.559
 8151W        W79767  33.450  22.095   0.804
 8152W        W79768  34.976  22.740   4.785
 8153W        W79769   9.672  21.484   3.382
 8154W        W79770  39.036   3.604  14.527
 8155W        W79771  12.416  26.456  10.628
 8156W        W79772  26.400  44.756   0.913
 8157W        W79773  31.943  41.483  12.185
 8158W        W79774  29.396  39.332  10.749
 8159W        W79775  10.784   2.234  13.828
 8160W        W79776  43.347  34.004  13.836
 8161W        W79777  15.173  19.560  11.662
 8162W        W79778  44.038  39.586   0.988
 8163W        W79779   0.418  43.028  14.513
 8164W        W79780  40.537   7.223   2.426
 8165W        W79781  15.052  21.728   4.552
 8166W        W79782  18.145  20.283   3.657
 8167W        W79783  10.316  38.571   4.515
 8168W        W79784  27.136  33.960   4.567
 8169W        W79785  22.747   1.384   4.730
 8170W        W79786  23.112   7.222   3.643
 8171W        W79787   7.492  35.305  13.852
 8172W        W79788  15.649   9.448   1.641
 8173W        W79789  40.361  20.189   0.443
 8174W        W79790  26.305  34.233  13.349
 8175W        W79791  31.809   4.738   1.877
 8176W        W79792  20.690  38.721   4.851
 8177W        W79793   1.673   7.809   1.146
 8178W        W79794   1.681  24.126   4.460
 8179W        W79795  40.374  36.418   4.621
 8180W        W79796  11.728   8.141  11.595
 8181W        W79797  41.962  40.414   1.801
 8182W        W79798  29.657  32.902  13.004
 8183W        W79799  30.186  11.390   0.544
 8184W        W79800  33.850  18.451  12.410
 8185W        W79801  38.044  11.005   3.556
 8186W        W79802   7.873  39.157   3.198
 8187W        W79803  29.112  27.378   0.724
 8188W        W79804  23.580  20.080   0.715
 8189W        W79805   3.327  12.144   0.770
 8190W        W79806  14.307  37.647   4.599
 8191W        W79807   9.051   1.285   3.807
 8192W        W79808  14.648  37.603  10.700
 8193W        W79809  11.698  32.486   1.244
 8194W        W79810  10.683  37.390   3.178
 8195W        W79811  41.910  20.769   0.608
 8196W        W79812  39.760   0.842  11.287
 8197W        W79813  16.886  36.576   4.133
 8198W        W79814   1.978  17.337   4.641
 8199W        W79815  17.075  14.005  13.563
 8200W        W79816  29.052  38.452  13.859
 8201W        W79817  23.650  12.082   1.445
 8202W        W79818  32.553  38.587   4.548
 8203W        W79819  44.403  34.946  13.878
 8204W        W79820   9.380  41.245  12.250
 8205W        W79821  25.534  19.555  11.512
 8206W        W79822   2.774  20.190  11.586
 8207W        W79823  28.832  15.196  12.418
 8208W        W79824  38.455  40.484   0.688
 8209W        W79825  22.003  32.159  12.565
 8210W        W79826  14.776  34.649   3.355
 8211W        W79827  35.347   7.379   0.216
 8212W        W79828   1.540  30.224  13.102
 8213W        W79829  33.721  42.957  10.656
 8214W        W79830   2.736   4.759   2.827
 8215W        W79831  12.620  20.600   1.639
 8216W        W79832  44.418  30.631  13.517
 8217W        W79833   4.736  12.406   1.059
 8218W        W79834  22.898  32.849  14.334
 8219W        W79835  17.178  19.957  14.241
 8220W        W79836  43.787  34.302   4.656
 8221W        W79837  27.024  39.487   0.689
 8222W        W79838  23.121  40.018  14.961
 8223W        W79839  34.227   2.410   4.660
 8224W        W79840  17.979  23.897   1.839
 8225W        W79841   5.828  17.643  12.351
 8226W        W79842   3.261   3.249  14.095
 8227W        W79843  41.478   5.668   3.772
 8228W        W79844  27.671  30.992  13.505
 8229W        W79845  20.257   9.703   0.941
 8230W        W79846  29.659  22.651   4.630
 8231W        W79847  31.449  39.493  13.426
 8232W        W79848   5.836  18.805   0.501
 8233W        W79849  38.364  30.919  13.565
 8234W        W79850  39.770  15.090   3.697
 8235W        W79851  39.429  30.175   4.469
 8236W        W79852  13.239   7.339   2.674
 8237W        W79853  43.946  18.169   2.464
 8238W        W79854   9.582  29.093  12.042
 8239W        W79855  29.489  10.447   3.753
 8240W        W79856   8.959   7.807   2.105
 8241W        W79857  20.543  17.074  12.439
 8242W        W79858  42.831  30.825  14.919
 8243W        W79859   2.767  12.585  14.210
 8244W        W79860   2.489  28.729  12.471
 8245W        W79861  21.112   6.698   4.984
 8246W        W79862  15.765  17.246   3.045
 8247W        W79863  36.905  40.886   0.323
 8248W        W79864   9.359  42.997  12.977
 8249W        W79865  11.017   6.880  11.623
 8250W        W79866  25.101  25.579  12.641
 8251W        W79867  14.530  13.650   0.757
 8252W        W79868   3.190  12.772  10.647
 8253W        W79869  18.836  34.586   3.652
 8254W        W79870  27.426  25.654  12.018
 8255W        W79871  14.515  40.022   3.484
 8256W        W79872  18.058  36.523   1.799
 8257W        W79873  13.935  32.245  14.174
 8258W        W79874   2.040   0.811  14.308
 8259W        W79875  19.779  39.350  13.405
 8260W        W79876   9.888  19.521  13.164
 8261W        W79877  18.356  43.124   4.605
 8262W        W79878  14.869  38.010   4.655
 8263W        W79879  16.593  22.747  14.707
 8264W        W79880  41.202  43.315  11.053
 8265W        W79881  11.797  35.515  12.517
 8266W        W79882  19.657   3.443  11.632
 8267W        W79883  29.732  17.006  13.082
 8268W        W79884  20.065  19.649   5.041
 8269W        W79885  28.168  35.316   2.754
 8270W        W79886  27.464  20.144  13.629
 8271W        W79887  23.990   9.309  13.482
 8272W        W79888  24.023  13.655  14.916
 8273W        W79889   0.803  34.556   4.549
 8274W        W79890  22.775  34.969  13.679
 8275W        W79891  17.271   4.379   2.388
 8276W        W79892  35.016  44.711   0.219
 8277W        W79893  41.954  13.859  11.613
 8278W        W79894  41.545  12.561  12.925
 8279W        W79895  28.193   3.931  14.024
 8280W        W79896  11.358  24.990   2.802
 8281W        W79897  36.757   9.412  12.960
 8282W        W79898   9.593  34.228   3.912
 8283W        W79899  21.581  36.054   4.664
 8284W        W79900  36.381   9.191  14.946
 8285W        W79901  44.019  10.678   4.499
 8286W        W79902  23.217  40.870  10.823
 8287W        W79903  24.750  10.311  14.974
 8288W        W79904   7.161  21.136  10.723
 8289W        W79905  27.617   3.123  11.387
 8290W        W79906   5.151  11.119  11.111
 8291W        W79907  31.026  12.376  14.841
 8292W        W79908  25.598  30.458   4.195
 8293W        W79909   6.345  19.021  13.801
 8294W        W79910  34.532  25.330  11.136
 8295W        W79911  42.743  38.016   4.619
 8296W        W79912  20.963  36.430   1.451
 8297W        W79913  32.909  30.210  12.728
 8298W        W79914  20.945  13.851  13.919
 8299W        W79915  41.455  43.307  10.595
 8300W        W79916  27.273  24.716   0.394
 8301W        W79917  16.738  11.437   0.572
 8302W        W79918  29.737  37.548  12.393
 8303W        W79919  15.082  40.300  11.075
 8304W        W79920  44.404  30.965   3.755
 8305W        W79921  14.784  26.414   2.918
 8306W        W79922  28.640  16.761   3.242
 8307W        W79923  17.915   4.760  11.206
 8308W        W79924  24.124   7.119  12.109
 8309W        W79925  40.528  35.390   0.484
 8310W        W79926   4.823   8.827   4.575
 8311W        W79927  28.280  21.108  13.381
 8312W        W79928  29.764  43.653   2.927
 8313W        W79929  44.820  14.966   2.204
 8314W        W79930  38.629  17.122   0.245
 8315W        W79931  14.637  44.585   4.308
 8316W        W79932  10.870  21.380   3.321
 8317W        W79933  26.249  32.975  12.460
 8318W        W79934   7.830  38.114   1.930
 8319W        W79935  44.779  36.047  14.736
 8320W        W79936  42.354  44.793   0.757
 8321W        W79937  16.840  27.899   4.661
 8322W        W79938  14.667  38.484  13.857
 8323W        W79939  34.960   4.686  10.714
 8324W        W79940  30.885  23.526  12.981
 8325W        W79941  14.242  33.512  14.428
 8326W        W79942  13.133  17.799  10.310
 8327W        W79943  41.266  17.021  12.094
 8328W        W79944  34.445   6.361  13.835
 8329W        W79945  33.991  22.174   2.808
 8330W        W79946   8.632  12.928  14.835
 8331W        W79947  10.658  21.538   2.611
 8332W        W79948  23.522  10.239   2.745
 8333W        W79949  25.994  32.933   1.776
 8334W        W79950  15.694  34.318   3.207
 8335W        W79951   4.928   9.742   2.134
 8336W        W79952  32.644   7.233   3.260
 8337W        W79953  35.173  15.045   4.192
 8338W        W79954  22.662  11.704   2.170
 8339W        W79955  22.940  21.767   4.329
 8340W        W79956  22.025  17.191  14.961
 8341W        W79957  24.967  16.021   3.356
 8342W        W79958  38.557   6.732   4.558
 8343W        W79959  13.180   8.176  11.519
 8344W        W79960  19.476  32.773   2.878
 8345W        W79961  42.349  37.063  12.032
 8346W        W79962   1.820  26.405   2.742
 8347W        W79963  21.209  19.686   4.173
 8348W        W79964  24.490  10.959  12.938
 8349W        W79965   9.730   1.985   2.344
 8350W        W79966  44.762  12.190   1.004
 8351W        W79967  22.613  24.947   1.619
 8352W        W79968  11.170   5.902  14.939
 8353W        W79969  17.713  11.334  13.263
 8354W        W79970   1.609   8.268  13.953
 8355W        W79971  37.958   0.194  13.539
 8356W        W79972   2.434   8.778   0.504
 8357W        W79973  35.214  37.942  12.016
 8358W        W79974  11.098  38.630  12.079
 8359W        W79975  38.545  18.429   3.864
 8360W        W79976   8.876  31.456  14.082
 8361W        W79977  12.741  25.225  10.697
 8362W        W79978  32.240  40.625  12.366
 8363W        W79979  32.568   8.674  10.771
 8364W        W79980   9.919  33.361   0.940
 8365W        W79981   0.423  24.031   3.721
 8366W        W79982  17.271  18.746   3.622
 8367W        W79983  29.596  41.264  12.093
 8368W        W79984  30.128  19.433  13.816
 8369W        W79985   1.475  43.803   3.608
 8370W        W79986  36.025  35.815   0.809
 8371W        W79987  37.132   9.419   0.408
 8372W        W79988  20.161  28.629   2.052
 8373W        W79989  43.298  41.049   3.593
 8374W        W79990  35.795   8.695  11.607
 8375W        W79991  16.289  10.811  11.719
 8376W        W79992  24.606  12.515   3.292
 8377W        W79993  10.852   9.523   2.245
 8378W        W79994  41.874   0.033   2.868
 8379W        W79995  37.051  36.386   0.239
 8380W        W79996  31.987  19.547  11.114
 8381W        W79997  32.866  14.315   1.287
 8382W        W79998   2.759  35.679  14.162
 8383W        W79999  24.504  16.276   3.337
 8384W        W80000  44.946  31.503  11.436
 8385W        W80001  37.065  37.519   1.168
 8386W        W80002  28.999   2.246  10.672
 8387W        W80003  27.615  35.100   0.732
 8388W        W80004  42.917  20.456  10.742
 8389W        W80005  18.703  27.111   3.257
 8390W        W80006  13.292  44.005   1.171
 8391W        W80007  13.465  28.685   0.362
 8392W        W80008  25.013  20.770  13.426
 8393W        W80009  37.877  30.525  12.406
 8394W        W80010   2.336  11.723  13.018
 8395W        W80011  23.236  37.370  13.512
 8396W        W80012   1.823  17.549   2.453
 8397W        W80013  44.837  35.579  10.347
 8398W        W80014   5.794  42.963  11.444
 8399W        W80015   0.025  37.551  10.594
 8400W        W80016   7.627  37.375   4.545
 8401W        W80017   7.734  27.596   1.372
 8402W        W80018  37.248  26.581   5.149
 8403W        W80019  23.655  16.429   4.519
 8404W        W80020  23.068   4.323   3.167
 8405W        W80021   4.460  40.485  11.552
 8406W        W80022  24.228  12.546  12.422
 8407W        W80023  44.989   6.850   2.252
 8408W        W80024  27.330   5.862   1.274
 8409W        W80025   1.382  25.411   1.023
 8410W        W80026  30.790   3.899   4.696
 8411W        W80027  29.636  40.458  12.101
 8412W        W80028  10.529  29.123  14.410
 8413W        W80029   6.284  14.938   2.685
 8414W        W80030  26.459   2.602  12.302
 8415W        W80031   5.290  27.955  12.094
 8416W        W80032  31.983   7.633  11.981
 8417W        W80033  33.939  11.353  11.260
 8418W        W80034  44.454  36.577   0.936
 8419W        W80035   6.423   8.963   3.884
 8420W        W80036   4.267   2.418  11.861
 8421W        W80037  36.199  35.330  13.484
 8422W        W80038  28.652  21.682  11.437
 8423W        W80039  44.825   9.665  10.975
 8424W        W80040  23.416   3.528   3.327
 8425W        W80041  16.209  22.036   1.501
 8426W        W80042  15.211  14.868  14.983
 8427W        W80043   4.253   1.126  10.510
 8428W        W80044   1.012  25.588  13.087
 8429W        W80045  36.621  17.821  11.927
 8430W        W80046  22.593  12.145  12.429
 8431W        W80047  15.223  16.135   1.390
 8432W        W80048   4.900  22.437   3.584
 8433W        W80049  21.310   2.488   1.878
 8434W        W80050  34.146  38.921  13.334
 8435W        W80051  33.639  31.155  14.801
 8436W        W80052   2.007  44.305   0.095
 8437W        W80053  44.048   6.906  12.341
 8438W        W80054  23.235   9.842   1.550
 8439W        W80055  29.075  37.236   0.825
 8440W        W80056  16.343   5.897  12.390
 8441W        W80057  32.206   4.295   0.842
 8442W        W80058  31.615  32.484  12.895
 8443W        W80059  21.401  30.967   0.237
 8444W        W80060  40.914  20.147  10.637
 8445W        W80061   3.385  34.942   0.252
 8446W        W80062  19.732  17.969   1.862
 8447W        W80063  22.174  20.605  10.978
 8448W        W80064   3.216   1.328   1.777
 8449W        W80065  40.997  15.312  11.604
 8450W        W80066   9.877  22.935   3.329
 8451W        W80067  15.030   2.752   9.986
 8452W        W80068   4.926   3.462   0.255
 8453W        W80069  24.500  43.988   3.780
 8454W        W80070  17.052   3.962   1.321
 8455W        W80071  20.669  39.504  10.563
 8456W        W80072  36.213  44.999   1.672
 8457W        W80073  24.676   3.714   0.739
 8458W        W80074  17.151  27.941  13.472
 8459W        W80075  43.286   4.806   3.225
 8460W        W80076  24.671  24.935   4.608
 8461W        W80077  31.989   9.845  14.097
 8462W        W80078  11.286  22.972  13.063
 8463W        W80079  16.747  29.717  13.816
 8464W        W80080  10.114  41.636   9.918
 8465W        W80081  26.663  39.323  14.783
 8466W        W80082  30.384  18.606  11.670
 8467W        W80083  20.138  26.137  10.652
 8468W        W80084  14.055  15.121   3.898
 8469W        W80085  21.568  14.972  14.549
 8470W        W80086  30.920  16.318  11.063
 8471W        W80087  11.636  26.748   3.795
 8472W        W80088   7.318  21.751   1.434
 8473W        W80089   7.852  22.216  13.572
 8474W        W80090  10.330   3.578   3.688
 8475W        W80091  37.568  40.527   1.712
 8476W        W80092   0.455   6.440   0.367
 8477W        W80093  11.616  10.614   3.333
 8478W        W80094   5.401  33.360   3.185
 8479W        W80095   0.433  24.087  12.977
 8480W        W80096  20.724  29.668  13.832
 8481W        W80097  25.273  28.018  11.529
 8482W        W80098   3.706  26.304  13.905
 8483W        W80099   3.334  28.638  12.066
 8484W        W80100   5.499  30.390   3.166
 8485W        W80101   9.314  44.383   0.792
 8486W        W80102  30.146  30.079  12.332
 8487W        W80103  35.217  10.732   3.057
 8488W        W80104  30.392  16.070  14.309
 8489W        W80105   1.430   3.256   2.404
 8490W        W80106  31.928  21.177   0.774
 8491W        W80107  34.597  35.152   3.627
 8492W        W80108  20.713  37.966   0.953
 8493W        W80109   1.934  27.390   4.132
 8494W        W80110   8.934  37.768   1.819
 8495W        W80111  40.358   5.313   3.377
 8496W        W80112  12.771  12.164   0.822
 8497W        W80113  40.279  30.529   1.039
 8498W        W80114  32.440  29.694   5.182
 8499W        W80115   6.908  26.305   2.927
 8500W        W80116  36.969  32.153   2.736
 8501W        W80117   8.155   5.668  14.288
 8502W        W80118  18.853   9.195  12.133
 8503W        W80119   1.518  12.364  10.752
 8504W        W80120   9.709  30.671   4.576
 8505W        W80121  18.541  43.465  14.394
 8506W        W80122  25.033  33.047   2.759
 8507W        W80123  34.567   4.202  11.714
 8508W        W80124  19.824  21.395   1.394
 8509W        W80125  29.888   6.410  10.579
 8510W        W80126  19.744  33.817   1.392
 8511W        W80127  17.801  38.898  12.336
 8512W        W80128  28.077  26.227  12.983
 8513W        W80129  23.179  15.721   0.107
 8514W        W80130  22.102  21.272   1.231
 8515W        W80131   3.931   8.810   1.491
 8516W        W80132   1.852  32.162   2.234
 8517W        W80133  12.559  32.325   0.904
 8518W        W80134   1.907  38.037   1.960
 8519W        W80135  34.474  21.483  11.641
 8520W        W80136  10.391  29.059  12.557
 8521W        W80137  15.998  15.591   3.404
 8522W        W80138  13.085   7.825   1.818
 8523W        W80139  19.984  34.193   4.183
 8524W        W80140  31.582  42.079   0.883
 8525W        W80141  17.996  33.547   0.993
 8526W        W80142  41.269  14.285   1.358
 8527W        W80143  37.886   3.304   3.810
 8528W        W80144  31.616  35.041   0.513
 8529W        W80145  28.607  10.259   5.021
 8530W        W80146  19.635  27.384   3.759
 8531W        W80147  37.372   9.292   4.302
 8532W        W80148  32.372  35.894  14.323
 8533W        W80149  27.983  12.072  14.509
 8534W        W80150  36.143  26.652  14.457
 8535W        W80151  18.949  20.092   0.736
 8536W        W80152   5.452  37.821  12.366
 8537W        W80153  22.591  38.801  13.915
 8538W        W80154  35.498   6.416   0.176
 8539W        W80155   4.842  22.588   1.857
 8540W        W80156  11.077  30.355  14.938
 8541W        W80157  23.929  18.173  14.229
 8542W        W80158  15.238  16.895   3.712
 8543W        W80159  22.099  35.841  11.540
 8544W        W80160  18.706  37.173   3.331
 8545W        W80161  24.040  19.885  11.655
 8546W        W80162  38.125   8.922  14.191
 8547W        W80163  15.655  27.973   4.633
 8548W        W80164  44.715  43.441  12.036
 8549W        W80165  22.231  28.739   1.774
 8550W        W80166  24.129  12.462  11.190
 8551W        W80167  40.027  20.493   1.955
 8552W        W80168   5.172  43.074  12.634
 8553W        W80169  35.012   8.304   2.600
 8554W        W80170  22.751  21.149  10.951
 8555W        W80171  11.043  33.104   1.369
 8556W        W80172  15.267  37.986  10.480
 8557W        W80173  28.393   0.475   1.930
 8558W        W80174  44.926  16.721  11.262
 8559W        W80175   3.364  15.863   2.442
 8560W        W80176  22.479  29.194   0.950
 8561W        W80177  16.000  39.430   4.021
 8562W        W80178  13.457  28.889  11.617
 8563W        W80179  41.881  40.425   0.705
 8564W        W80180  42.738  43.415  10.264
 8565W        W80181  35.126  32.045   0.075
 8566W        W80182  41.225  36.792  14.801
 8567W        W80183  34.692  32.294   1.851
 8568W        W80184  19.725  26.569  11.231
 8569W        W80185  32.879   9.052  11.593
 8570W        W80186  26.195   7.833  14.790
 8571W        W80187   5.921  31.068   4.281
 8572W        W80188   9.613  22.095  12.512
 8573W        W80189  29.356   9.234  14.879
 8574W        W80190   8.269  36.894   4.161
 8575W        W80191  19.753  41.454   4.849
 8576W        W80192  23.084  24.290   0.270
 8577W        W80193  41.313  15.285  12.048
 8578W        W80194  23.966  24.987  13.031
 8579W        W80195   9.708   2.210   4.882
 8580W        W80196  13.749   7.301  14.014
 8581W        W80197  37.592  18.552  10.308
 8582W        W80198  23.662   7.769  10.788
 8583W        W80199  44.266   3.492   0.077
 8584W        W80200  36.588  12.523  13.425
 8585W        W80201  12.434  36.556  14.817
 8586W        W80202  17.615  32.695   3.676
 8587W        W80203  38.817  23.633  14.065
 8588W        W80204   3.505   4.505   0.755
 8589W        W80205   0.485  38.446   4.668
 8590W        W80206   8.067  42.619   4.978
 8591W        W80207  43.979   4.886  12.104
 8592W        W80208  29.505  10.073  13.561
 8593W        W80209  19.428  28.383   0.915
 8594W        W80210  21.629  35.967  11.657
 8595W        W80211   5.760  22.566   2.342
 8596W        W80212  14.702  10.897   1.305
 8597W        W80213  17.249  27.006   1.454
 8598W        W80214  34.937  11.882  14.936
 8599W        W80215  35.011  25.173   4.194
 8600W        W80216  44.442   4.276   4.605
 8601W        W80217  25.874  32.166  11.528
 8602W        W80218  37.407  24.238   1.209
 8603W        W80219  33.580  29.239  13.993
 8604W        W80220   3.785  37.947   2.635
 8605W        W80221  15.700  28.484   1.178
 8606W        W80222  25.917  36.125   3.884
 8607W        W80223  10.825  16.141  11.526
 8608W        W80224  24.557  22.665   0.343
 8609W        W80225  24.551  40.427  10.673
 8610W        W80226  28.780  14.296   0.417
 8611W        W80227   3.792  39.775  12.427
 8612W        W80228  18.534  39.398  14.939
 8613W        W80229  22.762  11.262  10.269
 8614W        W80230  29.396  29.188  12.383
 8615W        W80231  27.063  29.539  11.470
 8616W        W80232   0.475  10.844  11.661
 8617W        W80233  34.023   7.978   3.333
 8618W        W80234  34.933  32.312  13.737
 8619W        W80235  40.622  20.059   0.884
 8620W        W80236  10.805  34.661  12.122
 8621W        W80237  12.292  12.202   3.808
 8622W        W80238  17.632  11.875  11.747
 8623W        W80239   1.792  36.446   3.253
 8624W        W80240  18.627  14.107   1.395
 8625W        W80241   4.683  44.968  14.051
 8626W        W80242  31.594  42.858  10.602
 8627W        W80243  27.374  40.430   0.194
 8628W        W80244   0.451  36.643  12.003
 8629W        W80245  27.154  12.308   1.396
 8630W        W80246  15.603  15.565  14.563
 8631W        W80247   7.899  43.524   3.690
 8632W        W80248  30.618  21.360   1.092
 8633W        W80249  44.082   6.390  12.859
 8634W        W80250  38.767  30.351   3.740
 8635W        W80251  12.305  21.342  14.364
 8636W        W80252  25.139  21.538  14.438
 8637W        W80253  29.836  36.611   4.242
 8638W        W80254   2.966  27.432  12.558
 8639W        W80255  16.331  22.991   5.020
 8640W        W80256  10.667  27.774  14.312
 8641W        W80257  37.517  29.093   2.185
 8642W        W80258   9.160  16.182  11.979
 8643W        W80259  39.621  41.090  14.964
 8644W        W80260  36.634  21.516   3.271
 8645W        W80261   9.688  38.849   4.728
 8646W        W80262  41.853  31.895   0.292
 8647W        W80263  30.088   3.251   2.690
 8648W        W80264  31.521  28.690  12.978
 8649W        W80265  21.615   0.034   2.456
 8650W        W80266  29.187  23.526   0.354
 8651W        W80267  20.615  41.309  12.090
 8652W        W80268  16.120   7.217  12.920
 8653W        W80269  19.526  14.915   4.158
 8654W        W80270   5.844  24.665   3.391
 8655W        W80271  26.043  42.782   1.242
 8656W        W80272  17.606  25.993  13.431
 8657W        W80273  31.485  31.475   2.796
 8658W        W80274  32.571  43.939   1.931
 8659W        W80275  14.057  19.573   2.894
 8660W        W80276  36.907  38.998  13.770
 8661W        W80277   8.929  39.421  11.594
 8662W        W80278   2.762  18.648  11.106
 8663W        W80279   9.864  17.071   2.275
 8664W        W80280   6.991  32.196  12.420
 8665W        W80281  23.245  33.869   3.072
 8666W        W80282  39.641   4.761   4.676
 8667W        W80283  28.593  41.035  11.339
 8668W        W80284  43.305  25.064  11.134
 8669W        W80285  39.096  37.473  13.393
 8670W        W80286  42.007  17.236   0.377
 8671W        W80287  30.356  15.656  13.529
 8672W        W80288  37.851  39.414   3.832
 8673W        W80289  23.243  28.561   4.205
 8674W        W80290  27.680  26.040  10.718
 8675W        W80291  14.385  12.040  13.605
 8676W        W80292  21.106   8.606  13.867
 8677W        W80293  41.979  32.107   2.689
 8678W        W80294  20.245  33.342  13.743
 8679W        W80295  33.070  38.284  14.481
 8680W        W80296  36.490   3.680  14.721
 8681W        W80297  13.905  33.470   4.132
 8682W        W80298  25.035  29.475  13.487
 8683W        W80299  23.522  18.652  11.154
 8684W        W80300  36.783   9.432   0.840
 8685W        W80301  12.248   2.283  10.958
 8686W        W80302  35.048  19.681  14.499
 8687W        W80303  33.302  31.270  10.955
 8688W        W80304  10.386  25.189   0.018
 8689W        W80305  43.386  10.368   1.371
 8690W        W80306  20.120  14.612   3.165
 8691W        W80307  31.006  17.981  11.798
 8692W        W80308   8.447   9.920   1.865
 8693W        W80309  30.155  35.100   1.383
 8694W        W80310  33.412   5.588   1.283
 8695W        W80311  22.512  11.175   3.203
 8696W        W80312  18.557  18.562   3.145
 8697W        W80313   1.148  28.158  12.408
 8698W        W80314  44.713  40.419   2.839
 8699W        W80315   0.302   5.337   2.664
 8700W        W80316  44.406   8.238   1.746
 8701W        W80317  39.084   4.474  14.703
 8702W        W80318  41.299  44.248   1.346
 8703W        W80319  22.224  18.125   2.368
 8704W        W80320  21.818  22.680   3.619
 8705W        W80321   5.240  30.115   1.343
 8706W        W80322  36.400   1.267   0.973
 8707W        W80323   4.296  40.927   2.175
 8708W        W80324  15.817  14.665  14.353
 8709W        W80325  13.749  18.108  11.492
 8710W        W80326  34.828  14.137  12.528
 8711W        W80327  32.827  44.765  13.388
 8712W        W80328  10.145  27.945   2.667
 8713W        W80329  42.428  42.543   4.670
 8714W        W80330  34.814   2.449   1.929
 8715W        W80331  38.918   8.495  14.200
 8716W        W80332  13.424   6.154   2.227
 8717W        W80333   9.133  44.892   0.900
 8718W        W80334   5.123   7.940  12.555
 8719W        W80335  15.171  28.190   4.600
 8720W        W80336  35.450   6.762   2.510
 8721W        W80337  26.709   2.885  13.850
 8722W        W80338  41.115  29.909  12.476
 8723W        W80339   2.891   5.087  12.588
 8724W        W80340  29.969  44.879   0.836
 8725W        W80341  27.498  40.323  14.712
 8726W        W80342  43.396  18.673  14.511
 8727W        W80343  25.783  44.372  13.522
 8728W        W80344  43.764  33.497   3.193
 8729W        W80345   9.388   1.690   3.714
 8730W        W80346  17.612  20.916   2.309
 8731W        W80347  40.695  31.954   2.612
 8732W        W80348  21.449  27.401  14.764
 8733W        W80349   5.157  28.986  12.049
 8734W        W80350  34.487  31.017   4.872
 8735W        W80351  42.836  14.701  11.258
 8736W        W80352  20.089   2.532  11.542
 8737W        W80353  23.324   4.735  11.154
 8738W        W80354  19.903  38.548   0.778
 8739W        W80355  18.388  43.449  10.689
 8740W        W80356  16.330   6.773   1.596
 8741W        W80357  35.429  30.385   0.711
 8742W        W80358  21.689  31.207  13.077
 8743W        W80359  13.803  16.281   1.623
 8744W        W80360  32.426  10.444  14.975
 8745W        W80361   0.957  35.418  11.209
 8746W        W80362  25.619  19.074  12.125
 8747W        W80363  12.258  13.543  13.561
 8748W        W80364   4.681  17.186   1.543
 8749W        W80365  31.057   5.361   1.664
 8750W        W80366  28.559  11.271  10.702
 8751W        W80367  30.345   1.881  13.510
 8752W        W80368  44.046  23.784  12.809
 8753W        W80369  30.256  36.701  12.532
 8754W        W80370  21.352   3.950   2.647
 8755W        W80371  26.420  39.806  13.841
 8756W        W80372  12.891   8.234  13.519
 8757W        W80373   0.229  39.098   3.248
 8758W        W80374   8.723  38.457  13.468
 8759W        W80375  18.863   1.805  12.869
 8760W        W80376  19.772  34.346   1.213
 8761W        W80377   3.318  42.928  11.949
 8762W        W80378  36.367  37.078   3.620
 8763W        W80379  13.765  39.823  13.178
 8764W        W80380  29.604   7.132  12.531
 8765W        W80381  13.105   5.507  14.452
 8766W        W80382  19.047   6.372  13.417
 8767W        W80383  33.056   8.901  12.439
 8768W        W80384  20.995  23.496  11.918
 8769W        W80385  16.026  29.152  10.454
 8770W        W80386  11.220  15.222  11.776
 8771W        W80387  42.503  39.947  11.626
 8772W        W80388   3.735  11.824  14.762
 8773W        W80389  29.854  25.258  13.390
 8774W        W80390  20.991   4.383   4.696
 8775W        W80391  19.610  29.168   2.029
 8776W        W80392  16.356  32.992  14.049
 8777W        W80393  28.644  35.877   2.361
 8778W        W80394  17.611  34.488   1.916
 8779W        W80395  29.006  16.266  12.430
 8780W        W80396  44.010  20.056   4.245
 8781W        W80397  37.750  11.593   5.042
 8782W        W80398  44.297   9.685   0.499
 8783W        W80399  18.804  24.386   3.227
 8784W        W80400   9.391  22.067   4.562
 8785W        W80401   6.989  44.960  14.902
 8786W        W80402   1.926  31.329  10.838
 8787W        W80403  16.347  15.646   5.547
 8788W        W80404   5.877   3.225   2.732
 8789W        W80405  21.087  15.124  14.504
 8790W        W80406   0.533  43.990  14.959
 8791W        W80407  12.663  41.795   1.954
 8792W        W80408   2.889  38.455  12.819
 8793W        W80409  40.424  33.689   1.942
 8794W        W80410  30.417  17.208   3.748
 8795W        W80411  39.888  29.998  14.549
 8796W        W80412  34.622  10.703  12.834
 8797W        W80413   4.342  38.582  14.319
 8798W        W80414  31.044  10.731   4.200
 8799W        W80415  25.060   5.221  12.516
 8800W        W80416  24.722  32.190   2.777
 8801W        W80417  16.861  41.162  10.337
 8802W        W80418  38.909  35.622  14.011
 8803W        W80419  41.928  42.022   4.820
 8804W        W80420  13.268   9.019  14.876
 8805W        W80421  19.488  14.382  13.442
 8806W        W80422  21.308  40.264  14.335
 8807W        W80423  36.993  19.425   1.770
 8808W        W80424  40.241  29.375  14.908
 8809W        W80425  33.910  18.620   1.409
 8810W        W80426   2.016  33.007   0.978
 8811W        W80427  33.868  20.309  14.762
 8812W        W80428  12.932   0.786   0.301
 8813W        W80429  35.157  33.760  11.084
 8814W        W80430  36.004  30.171   2.669
 8815W        W80431  40.494  27.663   4.346
 8816W        W80432   6.845  16.765  12.581
 8817W        W80433  40.311  26.695   2.290
 8818W        W80434  37.358  19.962   1.940
 8819W        W80435  15.716  41.602   1.695
 8820W        W80436  37.924   3.472  13.421
 8821W        W80437  14.946  26.709   4.680
 8822W        W80438   2.446  43.777   2.389
 8823W        W80439  40.024  24.539  11.560
 8824W        W80440  10.345   7.427  14.092
 8825W        W80441  12.480  40.420  12.891
 8826W        W80442  17.853  44.507   4.543
 8827W        W80443  28.342  13.182  11.739
 8828W        W80444  20.469  36.836   3.134
 8829W        W80445  22.138   1.819   4.155
 8830W        W80446  13.222  42.138   0.929
 8831W        W80447  36.589  41.282   0.921
 8832W        W80448  17.884  25.999   3.742
 8833W        W80449  26.790  31.421   4.612
 8834W        W80450  16.646   9.340  11.192
 8835W        W80451  17.016  15.368  13.857
 8836W        W80452  15.355  23.327   3.802
 8837W        W80453  34.335  38.827   1.166
 8838W        W80454  37.997   4.888  10.738
 8839W        W80455   3.881   1.746   0.945
 8840W        W80456   7.268  14.212  14.448
 8841W        W80457  21.028  28.453   4.563
 8842W        W80458  37.247  42.852  10.215
 8843W        W80459   2.995  42.021  14.402
 8844W        W80460  25.994  35.969   0.769
 8845W        W80461  22.627  31.657  11.613
 8846W        W80462  10.471  25.134   9.945
 8847W        W80463  41.345  38.354   1.649
 8848W        W80464  44.631  34.513  12.041
 8849W        W80465   8.667  22.848   2.840
 8850W        W80466  42.211  43.293  12.959
 8851W        W80467  44.717   7.126  13.404
 8852W        W80468   4.775  13.532   4.223
 8853W        W80469  24.447  31.571   0.466
 8854W        W80470   0.812  27.596  13.457
 8855W        W80471  10.808   1.356  14.266
 8856W        W80472  21.538  19.727  13.905
 8857W        W80473  26.180   1.733   2.816
 8858W        W80474  29.634  25.523   4.989
 8859W        W80475  43.057  11.650  10.989
 8860W        W80476  30.580  22.898  12.495
 8861W        W80477   0.849  26.957  14.309
 8862W        W80478  17.932   4.183  13.351
 8863W        W80479   1.400  14.165   0.852
 8864W        W80480   7.794  24.578  13.074
 8865W        W80481  36.071  40.878  13.472
 8866W        W80482   8.670  16.047   4.646
 8867W        W80483   7.413  23.714  13.010
 8868W        W80484  25.614  44.984   4.030
 8869W        W80485   6.712  11.904  13.293
 8870W        W80486  43.498  28.156  10.599
 8871W        W80487  37.400   7.047  14.459
 8872W        W80488   4.036  28.590   1.906
 8873W        W80489  36.447   8.112  14.041
 8874W        W80490  20.865  19.648   1.724
 8875W        W80491  29.872   3.319   1.682
 8876W        W80492  20.473  38.061  11.482
 8877W        W80493  31.788  23.490  10.229
 8878W        W80494  14.205  12.413  11.946
 8879W        W80495  31.110   4.940  12.507
 8880W        W80496  15.553  28.030   1.422
 8881W        W80497   9.203  13.732  12.298
 8882W        W80498   5.790  26.733  12.988
 8883W        W80499  26.704  32.977   9.811
 8884W        W80500  11.214  31.284   2.626
 8885W        W80501   4.360   2.577  14.446
 8886W        W80502  36.416  14.328   2.776
 8887W        W80503  42.813  10.940  12.535
 8888W        W80504  41.029  18.552   4.731
 8889W        W80505  35.417  23.743  13.895
 8890W        W80506  29.022  34.369   2.120
 8891W        W80507  33.665  25.376  13.779
 8892W        W80508  19.170  30.133  10.684
 8893W        W80509  32.337  36.965   0.818
 8894W        W80510   0.543  27.369  13.049
 8895W        W80511  28.076   1.376   2.717
 8896W        W80512  43.521   0.646   1.265
 8897W        W80513  17.301  41.416   3.608
 8898W        W80514  40.633  37.102  10.658
 8899W        W80515  39.106   8.313   1.679
 8900W        W80516  41.410  21.279   4.042
 8901W        W80517  39.315   5.779   4.555
 8902W        W80518   3.370  23.146  13.833
 8903W        W80519  24.258   5.992  10.768
 8904W        W80520  21.032  40.567  11.055
 8905W        W80521   9.128  19.931  12.100
 8906W        W80522  11.383   8.851  12.286
 8907W        W80523   7.073   1.911   1.962
 8908W        W80524   4.700  38.919  10.659
 8909W        W80525  18.374  20.419   3.141
 8910W        W80526  39.021  35.936   4.551
 8911W        W80527  24.227  43.984   4.245
 8912W        W80528   4.973  31.976   3.696
 8913W        W80529  10.126  21.500  14.924
 8914W        W80530  16.873  43.588  10.739
 8915W        W80531  35.927   6.961  11.555
 8916W        W80532   0.103  30.564  14.080
 8917W        W80533  17.725   9.127   0.894
 8918W        W80534  11.599   8.171   3.183
 8919W        W80535  14.803  10.586   1.844
 8920W        W80536   3.819  39.230  11.122
 8921W        W80537  42.654  38.263   3.813
 8922W        W80538  26.796  19.083  14.965
 8923W        W80539  37.622  13.007  14.224
 8924W        W80540  23.907   0.631   2.652
 8925W        W80541  11.567  24.435  11.077
 8926W        W80542  16.537  16.533   2.440
 8927W        W80543  17.748   9.924   0.433
 8928W        W80544   6.422  22.261  13.546
 8929W        W80545  15.872  18.097   3.286
 8930W        W80546  11.229  14.898  10.651
 8931W        W80547   4.493  42.551   5.023
 8932W        W80548   0.144   2.845   1.936
 8933W        W80549  25.052   1.317  11.940
 8934W        W80550  26.271   3.436  14.756
 8935W        W80551  36.302  28.490   0.420
 8936W        W80552   1.998   5.851  12.683
 8937W        W80553  35.182   0.007  13.986
 8938W        W80554   2.672  24.028   1.120
 8939W        W80555  15.620  40.429   0.486
 8940W        W80556  14.747   4.995   3.358
 8941W        W80557  38.015  24.947   1.458
 8942W        W80558  38.389  33.096   3.120
 8943W        W80559  22.483  20.872   1.211
 8944W        W80560  12.872  24.489   3.162
 8945W        W80561   7.365  21.744   0.072
 8946W        W80562  42.885  25.780  10.345
 8947W        W80563  32.046  24.644   3.372
 8948W        W80564   6.774  20.686   2.869
 8949W        W80565  16.884  30.919   4.829
 8950W        W80566  25.031  34.441   0.277
 8951W        W80567  22.639   8.776   1.688
 8952W        W80568  28.579  40.844  12.834
 8953W        W80569  27.101  35.594   3.395
 8954W        W80570  10.819  22.155   4.969
 8955W        W80571  28.464  24.517  12.511
 8956W        W80572  34.038  42.256   0.994
 8957W        W80573   0.098  23.742  10.657
 8958W        W80574   3.751  18.104  10.603
 8959W        W80575  44.155  26.941  10.402
 8960W        W80576   0.477  15.251   3.317
 8961W        W80577  36.657  41.315  11.024
 8962W        W80578  30.675  35.019   4.617
 8963W        W80579  10.075  37.042   3.141
 8964W        W80580  11.341  43.982  11.539
 8965W        W80581   9.313   0.013   1.405
 8966W        W80582   9.312  27.845   4.050
 8967W        W80583  42.068  12.435  13.481
 8968W        W80584   1.494   5.304   4.605
 8969W        W80585  10.794  30.576  12.323
 8970W        W80586  13.322  44.530   1.866
 8971W        W80587  26.716  40.555   1.320
 8972W        W80588   8.197  36.928  11.568
 8973W        W80589  27.609   3.443  13.275
 8974W        W80590  24.005  19.764   4.707
 8975W        W80591  40.760  25.258   2.336
 8976W        W80592  25.992   9.804  13.400
 8977W        W80593   0.489   3.685   4.167
 8978W        W80594  28.121  18.559  10.871
 8979W        W80595   0.370  39.854   2.608
 8980W        W80596  27.115  38.981  10.581
 8981W        W80597  32.136   4.163  11.088
 8982W        W80598  29.440  17.446  13.010
 8983W        W80599   2.973  19.245   3.745
 8984W        W80600   3.816  33.993   3.875
 8985W        W80601   8.330  28.892  10.377
 8986W        W80602  14.288  16.329  10.246
 8987W        W80603  11.239  20.973   4.706
 8988W        W80604  15.564  28.930   0.265
 8989W        W80605  26.465   0.867  12.383
 8990W        W80606  40.036   6.254   3.072
 8991W        W80607   3.974  13.625   1.792
 8992W        W80608  35.682  32.532   4.425
 8993W        W80609  43.498  18.560  10.230
 8994W        W80610  18.121  11.913  12.057
 8995W        W80611   1.943  44.999   1.320
 8996W        W80612  16.527  41.590   2.801
 8997W        W80613   8.327  22.253  13.832
 8998W        W80614  39.799  39.007  12.223
 8999W        W80615   8.716  33.996  11.546
 9000W        W80616  25.290  40.028   0.846
 9001W        W80617  43.403  41.910  12.551
 9002W        W80618  24.094  42.541  14.793
 9003W        W80619  43.230  28.002   1.898
 9004W        W80620  20.104  42.021   3.210
 9005W        W80621  10.642  10.420   2.582
 9006W        W80622  17.476  25.724  14.291
 9007W        W80623  12.193  40.919   1.480
 9008W        W80624  30.335  11.083   3.569
 9009W        W80625  24.424  21.083   4.139
 9010W        W80626   3.838  16.229   4.466
 9011W        W80627  23.171  27.556   3.084
 9012W        W80628   5.466   6.015  13.374
 9013W        W80629  17.750  17.239  14.562
 9014W        W80630  13.727  31.016   0.870
 9015W        W80631  20.088  37.009  11.574
 9016W        W80632   7.955   5.043  12.039
 9017W        W80633  43.072  30.371  14.782
 9018W        W80634  24.104  29.747  12.914
 9019W        W80635  14.262   7.687  10.834
 9020W        W80636  20.059   7.505   9.745
 9021W        W80637  27.921   7.429   1.155
 9022W        W80638  39.527  41.468   1.774
 9023W        W80639  39.370  27.255  12.221
 9024W        W80640  39.819  26.048   0.005
 9025W        W80641  25.708   2.231   3.663
 9026W        W80642  38.954  44.686   0.758
 9027W        W80643  11.313   2.010   1.849
 9028W        W80644  18.979   1.702  12.035
 9029W        W80645  18.586  21.361   0.793
 9030W        W80646  32.028  28.184  12.394
 9031W        W80647  43.783  41.848   3.008
 9032W        W80648  15.356  32.083  13.312
 9033W        W80649  19.382   8.592   3.267
 9034W        W80650  11.364   0.375   0.754
 9035W        W80651  31.072  26.186  14.897
 9036W        W80652  20.912   7.175  12.066
 9037W        W80653   1.399  12.751   4.689
 9038W        W80654  28.233  25.190  13.837
 9039W        W80655  18.751   2.997   4.075
 9040W        W80656  36.412   4.233  10.647
 9041W        W80657  39.196  15.981  11.358
 9042W        W80658  43.063  24.722   4.216
 9043W        W80659  36.966   8.743   0.306
 9044W        W80660   0.954  20.049  11.178
 9045W        W80661   4.506  12.628   2.987
 9046W        W80662   7.200   8.856  13.531
 9047W        W80663   6.385   4.016  13.893
 9048W        W80664   8.690  30.140  10.660
 9049W        W80665  44.161  31.551   3.309
 9050W        W80666  20.686  19.800   4.695
 9051W        W80667  12.617  14.931   2.530
 9052W        W80668  40.495  28.720   0.445
 9053W        W80669  39.583  12.489  13.596
 9054W        W80670  44.273   9.843  13.876
 9055W        W80671  28.575  42.758  14.975
 9056W        W80672  11.896  44.369   3.040
 9057W        W80673  15.945   7.915  12.826
 9058W        W80674   5.282  25.481   0.766
 9059W        W80675   4.314  18.542   3.721
 9060W        W80676  24.494   2.113  11.080
 9061W        W80677  35.211  24.696  13.384
 9062W        W80678  13.732   1.662   0.927
 9063W        W80679  41.302  34.704   0.972
 9064W        W80680  35.461  11.859   3.884
 9065W        W80681  13.041  41.520  12.896
 9066W        W80682  30.510  40.520  12.049
 9067W        W80683  44.152  40.830   1.000
 9068W        W80684  38.502  17.263   4.493
 9069W        W80685  10.740  22.676  11.892
 9070W        W80686  32.162  25.615  13.979
 9071W        W80687   0.256  18.633  12.160
 9072W        W80688   6.500   4.272  14.350
 9073W        W80689  17.068   1.853   3.258
 9074W        W80690  32.322   1.972  10.597
 9075W        W80691  16.556  18.099   1.197
 9076W        W80692   2.236  15.549   4.237
 9077W        W80693  36.540  14.381   1.436
 9078W        W80694  11.528  36.881   2.258
 9079W        W80695  18.835  16.055  11.715
 9080W        W80696   1.457  13.329   2.917
 9081W        W80697   5.338  30.498   1.812
 9082W        W80698  19.003  27.140   0.663
 9083W        W80699  44.025   9.814   3.210
 9084W        W80700  22.593  23.994  14.014
 9085W        W80701  13.845  32.217  11.057
 9086W        W80702  30.626  18.514   1.201
 9087W        W80703  26.453  13.293   4.528
 9088W        W80704  35.394  29.473   0.577
 9089W        W80705  11.683   5.000  11.175
 9090W        W80706  34.911  15.810   0.950
 9091W        W80707  26.161  41.716  12.730
 9092W        W80708  36.999   0.100  12.183
 9093W        W80709  35.991  35.295   3.626
 9094W        W80710  31.881  12.612   3.423
 9095W        W80711   4.795  15.368   3.649
 9096W        W80712   2.745   6.838  14.661
 9097W        W80713  26.984   2.826  14.328
 9098W        W80714  19.099   8.554   2.756
 9099W        W80715  37.692  33.376  14.509
 9100W        W80716  12.967  44.204  13.406
 9101W        W80717  18.577  11.685  14.022
 9102W        W80718   7.714  18.713   0.971
 9103W        W80719   0.830  40.995  12.051
 9104W        W80720  32.465  20.820   2.018
 9105W        W80721   7.854  38.773   4.600
 9106W        W80722   7.394  44.603   2.343
 9107W        W80723  27.931  16.045   4.978
 9108W        W80724  25.625   6.680   1.770
 9109W        W80725  28.467  29.389   1.137
 9110W        W80726  40.687  31.616  14.273
 9111W        W80727  42.007  13.335   2.561
 9112W        W80728  34.748  30.444   1.837
 9113W        W80729  26.493  24.279  13.579
 9114W        W80730  22.528  26.133  10.584
 9115W        W80731  22.809  36.923   2.790
 9116W        W80732  18.762  27.665  13.942
 9117W        W80733  31.157  34.915  12.033
 9118W        W80734  21.697  28.533  12.901
 9119W        W80735  13.195   0.901  14.829
 9120W        W80736  17.192  37.712  13.035
 9121W        W80737  35.901  21.706  12.806
 9122W        W80738   8.616  14.817   1.872
 9123W        W80739  30.491  26.500   3.117
 9124W        W80740  18.532   0.058  13.437
 9125W        W80741  21.527  23.849   2.168
 9126W        W80742  13.822  42.229   3.250
 9127W        W80743  18.003  26.565   4.606
 9128W        W80744  11.787  29.666   2.377
 9129W        W80745  19.295   0.367   0.527
 9130W        W80746  26.221  15.017   0.791
 9131W        W80747  28.176  35.699   1.433
 9132W        W80748   4.343   0.018  13.630
 9133W        W80749  38.574  13.076   3.516
 9134W        W80750  42.372  34.599  13.327
 9135W        W80751  28.025  10.574   3.099
 9136W        W80752  29.878  25.138   3.600
 9137W        W80753  27.188   2.388  11.205
 9138W        W80754  16.093  26.634   2.789
 9139W        W80755  28.307   9.189  14.743
 9140W        W80756   2.256  22.977   3.193
 9141W        W80757   9.893  17.003  11.988
 9142W        W80758  26.334  35.999  13.043
 9143W        W80759   1.420   2.165  11.175
 9144W        W80760   3.376  41.694   0.318
 9145W        W80761  24.872   3.913   4.651
 9146W        W80762  15.285  36.171  11.714
 9147W        W80763  15.774  35.500   0.943
 9148W        W80764  17.474   8.464   2.229
 9149W        W80765  33.866  32.479  11.397
 9150W        W80766   8.785  23.994   4.640
 9151W        W80767  33.114   2.655  12.891
 9152W        W80768  42.779  28.516  12.396
 9153W        W80769  24.160   5.699   0.303
 9154W        W80770  12.447  25.107   1.298
 9155W        W80771  11.596   7.211  13.107
 9156W        W80772   9.182  19.903  12.623
 9157W        W80773  14.046  22.296  11.704
 9158W        W80774  19.212  37.975  14.970
 9159W        W80775  26.821   8.905   1.319
 9160W        W80776  34.988  36.538  13.883
 9161W        W80777  24.612  13.988   1.814
 9162W        W80778   6.057  29.307   5.083
 9163W        W80779  40.834  14.306  14.744
 9164W        W80780  42.145   5.724  12.832
 9165W        W80781   7.968   3.686   2.320
 9166W        W80782  38.926  30.038   0.768
 9167W        W80783   2.265  32.163  11.189
 9168W        W80784  42.614  33.105   4.158
 9169W        W80785  10.666   0.916   4.506
 9170W        W80786  27.661  44.796   4.099
 9171W        W80787   6.515  18.697   1.809
 9172W        W80788   4.756  29.929   1.373
 9173W        W80789  30.649  31.658  12.357
 9174W        W80790  13.067  16.742  14.430
 9175W        W80791  41.405  26.465  10.101
 9176W        W80792  33.487  11.948  13.148
 9177W        W80793  31.284  18.179   2.763
 9178W        W80794   7.082   3.364   3.606
 9179W        W80795  15.236   7.464   2.218
 9180W        W80796  38.278   3.690   3.353
 9181W        W80797  44.333  20.143  12.606
 9182W        W80798   5.757  24.755   4.698
 9183W        W80799  40.451  40.582   4.602
 9184W        W80800  17.023   8.137  10.596
 9185W        W80801  36.245  16.775   3.951
 9186W        W80802  25.054  15.550   4.871
 9187W        W80803  11.838  32.062  14.330
 9188W        W80804   5.198  39.345   3.891
 9189W        W80805   2.930  40.943   4.390
 9190W        W80806  40.343   0.596  12.069
 9191W        W80807   4.885  36.838  14.807
 9192W        W80808  36.834  28.806  14.391
 9193W        W80809  40.411  41.532  14.470
 9194W        W80810   0.837  35.760   4.976
 9195W        W80811  34.319  34.173  13.146
 9196W        W80812  14.256  23.311   2.394
 9197W        W80813  29.200  21.757   0.946
 9198W        W80814  33.705  11.189   2.280
 9199W        W80815  32.487   0.554   2.832
 9200W        W80816   1.789  28.666  12.655
 9201W        W80817  27.726  38.498  10.641
 9202W        W80818  13.176  40.092  13.047
 9203W        W80819  38.797  32.089   0.347
 9204W        W80820  38.005  25.246   4.645
 9205W        W80821  23.773  22.079   3.691
 9206W        W80822   0.877   7.234   2.842
 9207W        W80823   2.989   6.920  11.911
 9208W        W80824  10.657  11.216   2.156
 9209W        W80825  18.241  23.499   4.252
 9210W        W80826  24.218   0.131  14.863
 9211W        W80827  44.349  40.507  14.283
 9212W        W80828  35.334  14.555   3.310
 9213W        W80829  31.560  28.641  10.625
 9214W        W80830  33.381  10.727  14.241
 9215W        W80831   6.785  31.715  12.897
 9216W        W80832  25.494  30.670  10.368
 9217W        W80833  14.408  17.585  14.962
 9218W        W80834   9.648  38.986  10.539
 9219W        W80835  12.378  10.264  14.434
 9220W        W80836  36.562   1.191   2.799
 9221W        W80837  15.098  28.429  10.965
 9222W        W80838  32.414  18.317   1.289
 9223W        W80839   0.002   4.365   1.919
 9224W        W80840  22.941  34.991   2.892
 9225W        W80841  15.057  29.037   2.806
 9226W        W80842  29.554  38.857   1.372
 9227W        W80843   0.717   7.873  12.059
 9228W        W80844  16.222  10.369   1.978
 9229W        W80845  17.516  16.253  14.386
 9230W        W80846  29.015  39.162  11.609
 9231W        W80847  27.979  18.700  12.335
 9232W        W80848   9.832  41.491   2.647
 9233W        W80849  44.071   0.270  12.456
 9234W        W80850  37.355  24.109   0.212
 9235W        W80851  18.822  32.564  14.759
 9236W        W80852  30.723  24.988   3.146
 9237W        W80853  24.068   4.723   1.912
 9238W        W80854  43.694  39.998   4.132
 9239W        W80855  34.349   5.649   1.748
 9240W        W80856  37.548  11.335  14.267
 9241W        W80857   1.540  19.952   1.502
 9242W        W80858  29.042   3.244  13.837
 9243W        W80859  25.385  42.707  12.364
 9244W        W80860   9.199  29.953   0.519
 9245W        W80861  27.012  35.451  11.028
 9246W        W80862   3.607  43.851  11.569
 9247W        W80863  18.510  28.447   2.907
 9248W        W80864   5.217  40.505  13.110
 9249W        W80865  26.582  39.777   1.611
 9250W        W80866  32.097  18.742   4.111
 9251W        W80867  25.916   0.885  12.491
 9252W        W80868  38.920  31.898   2.686
 9253W        W80869  16.892   8.112  11.091
 9254W        W80870  27.054  43.769  13.330
 9255W        W80871  13.997  43.780   1.775
 9256W        W80872   1.826   1.953   3.641
 9257W        W80873   2.783  18.996  13.313
 9258W        W80874  25.545  17.134   1.902
 9259W        W80875   1.768   0.377  12.644
 9260W        W80876  44.006  33.673   2.326
 9261W        W80877   3.448  27.615  11.535
 9262W        W80878  25.172  19.336   0.675
 9263W        W80879   6.599  39.467  13.484
 9264W        W80880  13.282  38.406  13.866
 9265W        W80881  29.545  37.439   0.912
 9266W        W80882  10.416  34.601   3.797
 9267W        W80883  42.158  40.210  14.552
 9268W        W80884   0.779  15.369  12.884
 9269W        W80885   8.871   0.815  10.525
 9270W        W80886  38.834   3.833  13.319
 9271W        W80887  17.220  44.716   1.315
 9272W        W80888  12.177  35.644  13.759
 9273W        W80889  41.570  26.750   3.666
 9274W        W80890   8.874  22.467  10.731
 9275W        W80891   2.334  18.612   2.137
 9276W        W80892  33.122   9.655   4.994
 9277W        W80893   4.641  24.886  11.118
 9278W        W80894   4.443  28.635   1.292
 9279W        W80895  37.206  21.696   2.512
 9280W        W80896  14.817  15.347   4.218
 9281W        W80897  34.516  14.591  13.839
 9282W        W80898  10.779  36.308  13.098
 9283W        W80899   2.818  35.003  11.922
 9284W        W80900  15.702  30.024  12.889
 9285W        W80901  34.719  41.471  12.093
 9286W        W80902  33.582  19.058  11.671
 9287W        W80903  27.953  19.465   2.736
 9288W        W80904  32.540   1.758  14.419
 9289W        W80905  14.580  14.218   1.659
 9290W        W80906  13.127  29.545  14.064
 9291W        W80907  31.900  38.723  11.920
 9292W        W80908  34.759  35.967  10.277
 9293W        W80909  34.710  35.216   4.848
 9294W        W80910  39.967  25.737   2.253
 9295W        W80911  33.366   4.443  12.867
 9296W        W80912  30.536   3.855  10.794
 9297W        W80913  26.208  39.289  12.429
 9298W        W80914  25.490  39.886   1.452
 9299W        W80915  35.074  40.181   4.529
 9300W        W80916  27.956  20.445   4.713
 9301W        W80917  44.999  28.487   2.819
 9302W        W80918  32.783  15.494   3.153
 9303W        W80919  37.454  33.810   1.755
 9304W        W80920   7.151  42.533  12.474
 9305W        W80921  23.274   5.499   1.328
 9306W        W80922  37.841  17.746   4.132
 9307W        W80923  12.873  22.780   0.590
 9308W        W80924  25.226  28.900   4.233
 9309W        W80925  24.710   5.913   4.393
 9310W        W80926  17.629  12.680   0.810
 9311W        W80927  35.093  15.311   0.011
 9312W        W80928  21.228  17.831  10.509
 9313W        W80929  27.864  27.128  13.925
 9314W        W80930  16.177   8.219  12.040
 9315W        W80931  35.163   9.284   2.207
 9316W        W80932  25.260  28.975  12.591
 9317W        W80933  30.058  22.193  14.726
 9318W        W80934  11.703  29.053   4.618
 9319W        W80935  41.233   3.879   0.925
 9320W        W80936  22.806   3.819   1.106
 9321W        W80937  26.124  37.031   3.365
 9322W        W80938  11.764  44.776   0.766
 9323W        W80939  36.051  22.293   3.325
 9324W        W80940  13.976   9.272  12.309
 9325W        W80941  26.798  28.788   3.385
 9326W        W80942   3.893   5.895  14.251
 9327W        W80943  23.800  38.971   4.636
 9328W        W80944  30.640   4.304   0.736
 9329W        W80945  21.078   9.791  13.572
 9330W        W80946   9.478  21.447  11.852
 9331W        W80947   6.921   6.321   1.501
 9332W        W80948  39.582  23.246  13.915
 9333W        W80949  41.157  11.493   3.355
 9334W        W80950   3.211  10.147  12.066
 9335W        W80951  11.882   4.729   4.888
 9336W        W80952  10.978  31.069  12.343
 9337W        W80953  43.484   4.830   4.639
 9338W        W80954  41.245  40.951   1.468
 9339W        W80955  17.099  24.957  13.076
 9340W        W80956  10.381  14.547   2.708
 9341W        W80957  18.127  42.050   2.134
 9342W        W80958  27.541  14.295  12.024
 9343W        W80959  13.501   6.769   4.355
 9344W        W80960  22.521  28.243  12.437
 9345W        W80961  11.843  41.289   1.361
 9346W        W80962  14.612   4.524   0.002
 9347W        W80963  37.717  13.186  10.122
 9348W        W80964  27.654  38.301  13.894
 9349W        W80965  24.624  31.959   1.449
 9350W        W80966  36.448  32.857   1.040
 9351W        W80967  30.929  14.326   1.313
 9352W        W80968  16.883  23.752   4.536
 9353W        W80969  38.124  33.045   0.834
 9354W        W80970  42.772  32.544   1.454
 9355W        W80971  20.357  17.321  11.043
 9356W        W80972  40.809  33.186   0.012
 9357W        W80973   3.325  39.531  12.453
 9358W        W80974  30.079   4.148  12.936
 9359W        W80975  15.500  13.181   4.241
 9360W        W80976  32.406  11.546   2.664
 9361W        W80977  13.695  18.697   3.327
 9362W        W80978  19.388  14.184  11.660
 9363W        W80979  28.510  33.343  11.157
 9364W        W80980  31.256  25.213  11.146
 9365W        W80981  29.600  17.543  13.952
 9366W        W80982  11.862  38.830  14.196
 9367W        W80983  43.314  15.822   3.847
 9368W        W80984  34.187  18.722  12.045
 9369W        W80985   0.778  25.228  12.802
 9370W        W80986  13.172  36.515   2.569
 9371W        W80987  42.337  12.639  12.642
 9372W        W80988  10.124  12.759  10.659
 9373W        W80989   4.872  43.060   1.903
 9374W        W80990  17.665  27.493  11.384
 9375W        W80991  38.832  24.873   3.988
 9376W        W80992  32.868  32.464   4.628
 9377W        W80993  34.773  34.813   3.296
 9378W        W80994  27.547  22.253   2.905
 9379W        W80995  12.822  25.075   4.874
 9380W        W80996  39.765  26.089   2.784
 9381W        W80997  19.295  15.547   4.183
 9382W        W80998   7.177  33.967   4.661
 9383W        W80999  12.937  11.133  13.558
 9384W        W81000  40.437   6.967   4.217
 9385W        W81001  11.648  33.369  12.827
 9386W        W81002  28.502   6.899  13.480
 9387W        W81003  11.735  35.678  10.743
 9388W        W81004  19.254  26.448   0.712
 9389W        W81005  25.266  24.077   3.805
 9390W        W81006   5.784  10.134   4.296
 9391W        W81007  40.069  10.864   4.272
 9392W        W81008   9.710  17.619   4.790
 9393W        W81009   4.925  18.003   4.840
 9394W        W81010  43.554  23.227  12.084
 9395W        W81011  34.492  26.599  11.628
 9396W        W81012  18.042  34.479   2.226
 9397W        W81013  31.975   8.966  11.551
 9398W        W81014   7.814   8.382  13.295
 9399W        W81015  32.407  30.664   4.839
 9400W        W81016  43.724   7.543  14.402
 9401W        W81017  12.839   1.765   1.940
 9402W        W81018  40.717  28.430   2.785
 9403W        W81019   1.209   4.839  10.755
 9404W        W81020   7.677  15.006   2.765
 9405W        W81021  18.121  42.103  10.579
 9406W        W81022  20.275  10.698  11.568
 9407W        W81023   8.101  38.962   2.759
 9408W        W81024  18.141  18.972   0.711
 9409W        W81025  33.417   1.482  12.286
 9410W        W81026   4.443  15.646   0.257
 9411W        W81027  25.044  21.899  14.845
 9412W        W81028  38.067  28.225   1.408
 9413W        W81029   8.588  43.677  13.416
 9414W        W81030  44.724   0.554   9.946
 9415W        W81031  14.817   4.885  11.128
 9416W        W81032  34.941  10.775  14.413
 9417W        W81033  22.007   6.134   4.128
 9418W        W81034  39.816   8.442  13.492
 9419W        W81035  25.164   8.704   0.941
 9420W        W81036   2.240  15.590  14.235
 9421W        W81037  44.910  16.173  12.457
 9422W        W81038  39.903  18.807  13.526
 9423W        W81039  30.802  11.372  11.840
 9424W        W81040  30.631  25.038   4.125
 9425W        W81041  28.444  37.445   4.971
 9426W        W81042  22.585   7.777   0.018
 9427W        W81043  37.493  27.339   3.423
 9428W        W81044  12.734  18.625   2.712
 9429W        W81045  25.551  10.243   4.136
 9430W        W81046  29.649  26.496   0.719
 9431W        W81047  29.197  38.002  11.830
 9432W        W81048  12.140  17.221  12.440
 9433W        W81049  20.016  14.771   2.683
 9434W        W81050  38.252  38.548  11.474
 9435W        W81051  16.505  12.386  14.499
 9436W        W81052   4.985   4.470  10.531
 9437W        W81053  16.539  38.116  14.789
 9438W        W81054  20.203   0.456   1.909
 9439W        W81055  41.038  21.735  12.350
 9440W        W81056  24.635  12.904  12.659
 9441W        W81057  22.312  25.003   1.191
 9442W        W81058  25.009  14.812  13.504
 9443W        W81059  29.728   2.897  12.011
 9444W        W81060  33.451   4.404  11.507
 9445W        W81061   5.864  42.935   0.805
 9446W        W81062  30.911  12.732   3.546
 9447W        W81063  12.513  39.022   4.072
 9448W        W81064  28.339  38.333   0.311
 9449W        W81065  12.254  40.314  12.058
 9450W        W81066  14.441  44.766   2.746
 9451W        W81067  13.258   2.011  13.577
 9452W        W81068  29.566  10.850   2.806
 9453W        W81069   4.560  43.499   5.062
 9454W        W81070  27.137  41.301  12.823
 9455W        W81071   7.230  37.913  12.874
 9456W        W81072   0.736   8.302   2.006
 9457W        W81073  35.243  36.450   2.627
 9458W        W81074   6.885   6.073  14.810
 9459W        W81075  26.571  24.162   3.077
 9460W        W81076  40.028  39.809  11.042
 9461W        W81077  34.476  13.641  11.740
 9462W        W81078  20.097  34.339  12.514
 9463W        W81079   7.100  37.073  13.496
 9464W        W81080  44.182  21.381   1.766
 9465W        W81081  25.208   7.728   3.998
 9466W        W81082   6.358  25.807   0.186
 9467W        W81083  32.516  33.548   0.509
 9468W        W81084  15.175  10.273  14.086
 9469W        W81085  33.592   1.285   0.303
 9470W        W81086  12.583  13.113  12.901
 9471W        W81087  44.436   0.303  11.575
 9472W        W81088  11.326   5.277  14.900
 9473W        W81089  37.309  12.750   3.353
 9474W        W81090  41.385  14.851   4.934
 9475W        W81091  11.359  28.753  13.490
 9476W        W81092   8.338  32.826   1.934
 9477W        W81093  34.651  26.192   1.354
 9478W        W81094   6.488   4.750   3.144
 9479W        W81095  30.121   4.151   2.652
 9480W        W81096  43.289   5.144   1.202
 9481W        W81097  33.168  13.357  12.950
 9482W        W81098  23.198  11.645   2.276
 9483W        W81099  12.291  28.452   2.691
 9484W        W81100  15.298   5.399   5.059
 9485W        W81101  24.820  19.666   4.137
 9486W        W81102  29.955  31.589   4.568
 9487W        W81103   6.640  34.565   0.974
 9488W        W81104   0.469  16.355   2.804
 9489W        W81105  21.683  37.353   2.273
 9490W        W81106  24.793  22.488   2.298
 9491W        W81107  26.988  29.069  14.285
 9492W        W81108  27.504   5.775   4.066
 9493W        W81109  14.388  17.614  10.929
 9494W        W81110  24.246   2.844   1.177
 9495W        W81111  10.881  27.017  12.540
 9496W        W81112   9.645  20.525   0.970
 9497W        W81113  19.508  20.930  14.373
 9498W        W81114   7.591  24.929  11.121
 9499W        W81115  23.688  37.612  11.571
 9500W        W81116  31.511  15.586  10.506
 9501W        W81117  43.804  29.938  13.865
 9502W        W81118  21.181  22.074   2.923
 9503W        W81119  38.028   0.403   1.966
 9504W        W81120  25.841  33.732  11.085
 9505W        W81121   6.662  10.842  14.379
 9506W        W81122  19.046  41.432   0.438
 9507W        W81123  41.369  15.257   1.855
 9508W        W81124  13.126  33.948   0.602
 9509W        W81125  30.361   6.412   4.171
 9510W        W81126   8.194  29.567   1.421
 9511W        W81127  22.575  14.681   3.318
 9512W        W81128  20.445  38.102   2.218
 9513W        W81129  34.962  26.434   3.744
 9514W        W81130   3.214  17.371   4.130
 9515W        W81131  13.736   5.391  13.520
 9516W        W81132  19.412   4.053   2.698
 9517W        W81133  12.673   0.674   0.734
 9518W        W81134  10.608   4.140  11.229
 9519W        W81135  12.171   7.172  10.587
 9520W        W81136  22.145  28.392   2.686
 9521W        W81137  16.142  25.603  14.803
 9522W        W81138  16.228  12.201   3.330
 9523W        W81139  31.693  40.799   0.969
 9524W        W81140   0.739  37.460   2.031
 9525W        W81141  35.099  16.772  13.977
 9526W        W81142  40.799   7.340  12.189
 9527W        W81143  28.041  18.638  11.827
 9528W        W81144  19.011  17.400  10.553
 9529W        W81145  37.801  12.035  12.208
 9530W        W81146   7.376  13.464  11.895
 9531W        W81147   5.692  36.129   1.742
 9532W        W81148  18.604  43.898  14.721
 9533W        W81149   7.378  10.201   1.749
 9534W        W81150  25.525  27.422   0.820
 9535W        W81151  12.342  40.834   2.493
 9536W        W81152   2.958  10.431   1.322
 9537W        W81153  16.361  41.512   0.841
 9538W        W81154  18.120  29.025  10.638
 9539W        W81155  29.563  44.961   0.490
 9540W        W81156  42.817  28.377   3.796
 9541W        W81157  27.572  24.729  14.955
 9542W        W81158  17.827  40.937  14.203
 9543W        W81159   8.713  43.760  12.399
 9544W        W81160  10.763   1.211   2.695
 9545W        W81161   4.274   1.908   1.283
 9546W        W81162  28.445  44.979   2.125
 9547W        W81163  37.474  32.856  13.391
 9548W        W81164  33.747  29.940  11.546
 9549W        W81165  36.015  27.310  11.973
 9550W        W81166  41.863  23.470  11.417
 9551W        W81167  30.891  43.163   1.663
 9552W        W81168   2.544  28.537  14.386
 9553W        W81169  30.964   5.578  12.136
 9554W        W81170  40.541  35.116  12.514
 9555W        W81171  30.477  32.883   2.728
 9556W        W81172  25.924   1.760   3.670
 9557W        W81173  12.684  27.542  10.753
 9558W        W81174   7.140  41.397  13.742
 9559W        W81175  41.798  20.144   1.980
 9560W        W81176  12.818  17.249  13.786
 9561W        W81177  43.241   1.028  12.104
 9562W        W81178  18.747  27.978   0.402
 9563W        W81179   5.743   2.403   4.046
 9564W        W81180  15.170  30.064  12.562
 9565W        W81181  20.313  13.484  13.421
 9566W        W81182   8.959   5.415  14.866
 9567W        W81183   8.602  38.307  14.750
 9568W        W81184   6.915   5.624  13.493
 9569W        W81185  13.217   9.141   0.386
 9570W        W81186  15.574  44.282  14.785
 9571W        W81187   5.624  31.355  13.964
 9572W        W81188   3.013  40.337   2.179
 9573W        W81189   6.836  24.694  14.795
 9574W        W81190  28.471  24.651  13.016
 9575W        W81191  26.059  33.782  13.297
 9576W        W81192  15.649  11.493  11.602
 9577W        W81193  14.756  43.982  12.369
 9578W        W81194   9.425  17.130   3.668
 9579W        W81195  14.343  28.571  12.744
 9580W        W81196  30.087   1.684  12.936
 9581W        W81197  21.057  24.562  12.004
 9582W        W81198   3.621  13.117   0.706
 9583W        W81199   9.778   8.293  14.502
 9584W        W81200   8.647  32.463  11.358
 9585W        W81201   5.821  19.314   4.550
 9586W        W81202  23.680   6.444   2.344
 9587W        W81203   6.849  33.107   2.104
 9588W        W81204  13.152  26.535  12.545
 9589W        W81205  33.975  29.406   2.675
 9590W        W81206  22.715  23.248   2.255
 9591W        W81207  14.838  16.781  11.931
 9592W        W81208   4.470  18.006   2.698
 9593W        W81209  40.431  15.140  13.969
 9594W        W81210   3.904  39.486   2.728
 9595W        W81211  10.278  37.775   0.489
 9596W        W81212  10.634  11.305   3.067
 9597W        W81213  32.613  15.674   3.619
 9598W        W81214   6.746  42.249   3.253
 9599W        W81215  26.410  23.906  12.044
 9600W        W81216  12.389  18.660  14.918
 9601W        W81217  17.280  23.310  11.841
 9602W        W81218   6.482  11.264  12.014
 9603W        W81219   8.430   4.475  11.526
 9604W        W81220  30.087  23.703  12.388
 9605W        W81221  22.834  37.305   4.159
 9606W        W81222  17.669  42.414  13.026
 9607W        W81223  15.075  20.006   1.018
 9608W        W81224  14.830  28.579   4.438
 9609W        W81225  26.025  35.614  11.075
 9610W        W81226  44.447  35.528  12.127
 9611W        W81227  40.651  19.264   3.596
 9612W        W81228  10.325  31.500  11.536
 9613W        W81229  25.277  35.404  13.957
 9614W        W81230   7.989  30.171   0.737
 9615W        W81231  40.269  28.534   4.858
 9616W        W81232  28.437  38.284   1.755
 9617W        W81233  37.281   7.591   1.944
 9618W        W81234  32.026  25.231   4.381
 9619W        W81235   3.232   5.860   3.550
 9620W        W81236  38.771   4.908   3.159
 9621W        W81237  40.466  11.658  10.859
 9622W        W81238  32.838   5.036  12.510
 9623W        W81239   5.244  14.263   1.926
 9624W        W81240  11.367  31.099   0.332
 9625W        W81241   5.662  10.219   0.999
 9626W        W81242  30.123  42.877  12.879
 9627W        W81243  16.795  17.555   0.290
 9628W        W81244  21.005   5.307   5.006
 9629W        W81245   6.072  12.517  13.130
 9630W        W81246   0.698  42.535   2.778
 9631W        W81247  28.647  38.435  11.145
 9632W        W81248  17.627  24.413   4.610
 9633W        W81249  16.422  39.757  13.779
 9634W        W81250  18.700  28.450   3.944
 9635W        W81251  26.311  36.562  10.725
 9636W        W81252  10.811   7.338   0.745
 9637W        W81253  18.941   8.135  13.371
 9638W        W81254  16.044   8.937   4.638
 9639W        W81255   6.379   1.964  14.748
 9640W        W81256   9.115   4.649  14.307
 9641W        W81257   7.884   1.673  12.951
 9642W        W81258  17.241  20.615   0.486
 9643W        W81259  25.817  13.129  14.927
 9644W        W81260  17.784  14.345  14.036
 9645W        W81261  15.263   1.695   0.264
 9646W        W81262   0.264  12.171   1.004
 9647W        W81263   7.762  32.729  10.445
 9648W        W81264  16.749   9.160   4.321
 9649W        W81265   3.753  43.488   9.830
 9650W        W81266   7.858  16.560  12.422
 9651W        W81267  14.719  40.306   0.501
 9652W        W81268  10.760   5.947   2.650
 9653W        W81269  40.837  24.494   2.808
 9654W        W81270  24.269  30.181   4.168
 9655W        W81271  28.369  41.402  13.346
 9656W        W81272  15.274  32.320   0.907
 9657W        W81273  33.252   8.997   1.409
 9658W        W81274   9.935  37.606  12.385
 9659W        W81275  15.076  37.016   0.369
 9660W        W81276  22.528  16.187   2.752
 9661W        W81277  19.146  19.597   3.799
 9662W        W81278  21.307  42.268  10.782
 9663W        W81279   6.158  16.370   0.461
 9664W        W81280   6.470  34.619  14.799
 9665W        W81281  11.097   2.901   1.884
 9666W        W81282  24.713  38.795   1.366
 9667W        W81283  16.680  32.278   1.219
 9668W        W81284   6.981  28.392  11.399
 9669W        W81285   0.844  40.442   1.397
 9670W        W81286   3.498  21.529   4.772
 9671W        W81287  13.980   9.575   3.253
 9672W        W81288   5.848   8.664  14.453
 9673W        W81289  32.097  11.330   4.752
 9674W        W81290  36.207  24.525   1.100
 9675W        W81291  26.853  27.048   0.024
 9676W        W81292   2.225  42.550  11.522
 9677W        W81293  19.644  13.660   3.814
 9678W        W81294  37.783  23.886   3.708
 9679W        W81295  35.047   3.780  12.397
 9680W        W81296  20.633  27.111   4.148
 9681W        W81297  20.068   3.968  13.547
 9682W        W81298   9.570  21.966  11.686
 9683W        W81299  17.169  22.496  11.552
 9684W        W81300  11.210  36.072  12.890
 9685W        W81301  11.715   8.881   1.326
 9686W        W81302  23.656   5.353  14.024
 9687W        W81303  38.022  31.679  10.755
 9688W        W81304  28.379  19.013  11.025
 9689W        W81305  40.448  17.181  13.058
 9690W        W81306   1.799  26.483   0.185
 9691W        W81307  39.924  10.560   3.844
 9692W        W81308  39.958  20.192  10.706
 9693W        W81309  30.123  35.952   2.402
 9694W        W81310   6.855  19.608  12.797
 9695W        W81311   9.342  42.622  12.035
 9696W        W81312  32.929   8.535   3.217
 9697W        W81313  43.444  33.883   0.794
 9698W        W81314  41.936   3.669  11.075
 9699W        W81315  28.594  20.449   0.849
 9700W        W81316   3.883  25.536   2.097
 9701W        W81317   6.107  25.205  14.408
 9702W        W81318  39.503  36.403   2.227
 9703W        W81319   4.849  34.673  11.581
 9704W        W81320  43.432  25.237   4.040
 9705W        W81321  29.632   6.643   3.827
 9706W        W81322   4.477   2.443   2.218
 9707W        W81323   7.867  11.851  14.398
 9708W        W81324   7.173  41.719   2.821
 9709W        W81325  36.486  27.707  10.649
 9710W        W81326  22.966  29.618   1.780
 9711W        W81327  12.144  25.046  13.822
 9712W        W81328  14.658  21.984  12.356
 9713W        W81329   1.108  40.274   2.243
 9714W        W81330  27.667  12.463  10.719
 9715W        W81331  31.494   7.184  13.066
 9716W        W81332  24.052  15.130   2.353
 9717W        W81333   4.807   6.303   0.934
 9718W        W81334  33.474  20.502  11.582
 9719W        W81335  33.672   1.717   1.970
 9720W        W81336  20.988  17.629  14.583
 9721W        W81337  39.441  26.476  11.397
 9722W        W81338  25.781  22.165  12.967
 9723W        W81339  21.615  24.619   2.739
 9724W        W81340  26.158   5.981  14.440
 9725W        W81341   6.887  31.036  12.597
 9726W        W81342   4.932  21.389   0.914
 9727W        W81343  15.366  36.819  11.195
 9728W        W81344  22.246   6.645   3.287
 9729W        W81345  13.016  43.098  12.941
 9730W        W81346  40.964   2.751   1.952
 9731W        W81347  43.341  15.526   1.241
 9732W        W81348  36.038  19.027  11.614
 9733W        W81349   6.771  38.986   1.913
 9734W        W81350  21.325  27.234  13.756
 9735W        W81351  42.389  21.519  10.941
 9736W        W81352  27.329  40.459  12.406
 9737W        W81353   6.178  21.040  10.773
 9738W        W81354  42.436  14.281   0.997
 9739W        W81355  34.475  37.941   3.688
 9740W        W81356  30.230  39.884   4.391
 9741W        W81357  21.201  31.349  10.364
 9742W        W81358  30.166  28.745   3.585
 9743W        W81359  35.104  43.039  13.354
 9744W        W81360  15.441  28.068   0.436
 9745W        W81361  35.163  19.798  12.873
 9746W        W81362   5.527  30.490  12.423
 9747W        W81363  27.590  11.301  14.285
 9748W        W81364  17.375  31.926   2.286
 9749W        W81365  32.059  39.557  14.000
 9750W        W81366   9.318   3.680  13.125
 9751W        W81367  35.406  18.162  14.795
 9752W        W81368  39.793  31.391   4.096
 9753W        W81369  34.653  44.988   4.079
 9754W        W81370  13.802  20.684   2.220
 9755W        W81371  42.467  17.233  12.687
 9756W        W81372   5.631   9.309   1.153
 9757W        W81373  35.281  31.014  10.644
 9758W        W81374  33.419  24.642  11.111
 9759W        W81375  17.876  37.863   1.554
 9760W        W81376   1.341  44.471   2.230
 9761W        W81377   0.761  37.653   2.865
 9762W        W81378  41.949  15.470   3.741
 9763W        W81379  10.236   8.002   4.083
 9764W        W81380   7.948   2.185  13.726
 9765W        W81381  42.478  18.546  12.863
 9766W        W81382  17.098   4.697  13.025
 9767W        W81383  22.489  27.198   1.966
 9768W        W81384   1.992  43.736   3.780
 9769W        W81385  29.092  43.059  12.019
 9770W        W81386  13.056  37.170  14.501
 9771W        W81387  32.196  34.830   4.542
 9772W        W81388  27.684  39.798   2.914
 9773W        W81389  16.230   2.772   3.645
 9774W        W81390   1.889  20.904   0.224
 9775W        W81391   3.174   0.073  12.050
 9776W        W81392   5.379  14.008  11.280
 9777W        W81393  11.264  25.098   4.507
 9778W        W81394  37.927   8.654   4.524
 9779W        W81395  17.292  42.369  14.832
 9780W        W81396  24.461  41.433  14.387
 9781W        W81397  32.600  41.177  14.679
 9782W        W81398  16.260   0.598   3.662
 9783W        W81399  34.842   6.866  10.764
 9784W        W81400  20.302  21.949   4.838
 9785W        W81401  31.563  40.070   1.243
 9786W        W81402  15.128   3.785  14.488
 9787W        W81403  24.330  29.688   3.308
 9788W        W81404  19.997   2.447   0.233
 9789W        W81405  44.221  14.708   3.255
 9790W        W81406  29.111  24.277  14.115
 9791W        W81407  28.953  23.705   3.361
 9792W        W81408   2.028   6.709  10.811
 9793W        W81409  28.633   6.294  10.955
 9794W        W81410  39.295  10.621   3.090
 9795W        W81411   7.242  28.003   1.985
 9796W        W81412  38.404   8.366  11.000
 9797W        W81413  23.736  36.616   2.689
 9798W        W81414   9.654   8.685  11.145
 9799W        W81415   3.276  16.227   4.784
 9800W        W81416  15.618  36.572  14.319
 9801W        W81417  39.571  15.842  12.980
 9802W        W81418   9.145  44.860   3.617
 9803W        W81419  28.453  12.626   2.444
 9804W        W81420  17.677  19.755  10.461
 9805W        W81421   5.567   6.370   3.898
 9806W        W81422  18.134  25.853  13.068
 9807W        W81423   0.514   2.927  10.673
 9808W        W81424  32.087  21.503  14.812
 9809W        W81425   3.810  16.163  14.576
 9810W        W81426   2.356  36.137   2.279
 9811W        W81427  32.242  28.776   9.871
 9812W        W81428  33.326  25.802   1.937
 9813W        W81429  28.650  24.687  14.804
 9814W        W81430  25.423  12.603   2.993
 9815W        W81431   7.742  13.256  12.837
 9816W        W81432  37.808  30.005  11.186
 9817W        W81433  18.196  31.053   0.892
 9818W        W81434   3.270  39.306  13.800
 9819W        W81435  20.164   2.976  13.146
 9820W        W81436   8.813  30.445   4.277
 9821W        W81437   3.947  20.290  12.876
 9822W        W81438  28.593  39.307   1.129
 9823W        W81439  32.680   7.051   1.789
 9824W        W81440  44.250  27.048  13.724
 9825W        W81441  30.702   9.331  10.727
 9826W        W81442  32.785  33.439   3.951
 9827W        W81443  33.432   1.302   1.784
 9828W        W81444   2.953   1.833  12.395
 9829W        W81445  23.203  10.222  11.588
 9830W        W81446  20.657  31.598  13.806
 9831W        W81447  10.878   6.379  11.463
 9832W        W81448   2.981  20.797  13.894
 9833W        W81449  14.241  34.995   4.317
 9834W        W81450   6.258  19.180   2.720
 9835W        W81451  39.720  42.806  14.944
 9836W        W81452   7.506  17.150   2.132
 9837W        W81453   4.028  43.539  10.968
 9838W        W81454  36.152  34.598  13.970
 9839W        W81455  11.375  24.633  13.313
 9840W        W81456   5.873  26.393  11.642
 9841W        W81457   0.248  15.049  14.351
 9842W        W81458   4.430  24.580   5.116
 9843W        W81459  25.110   1.564   2.211
 9844W        W81460  29.658  26.750  11.667
 9845W        W81461   0.405  32.205   0.225
 9846W        W81462  28.402   7.813  12.907
 9847W        W81463   1.298  18.688  10.679
 9848W        W81464  26.746  21.914  10.770
 9849W        W81465  39.846  23.149   0.863
 9850W        W81466  35.373  13.573  13.954
 9851W        W81467  34.850  28.242   0.494
 9852W        W81468  44.841  35.804  14.005
 9853W        W81469  18.449   0.917   1.823
 9854W        W81470   8.522  37.348   1.244
 9855W        W81471  37.378  31.710  12.630
 9856W        W81472   1.260  28.944  13.351
 9857W        W81473  19.810  14.679  14.870
 9858W        W81474  39.123  30.716   1.867
 9859W        W81475  32.788  22.908   2.596
 9860W        W81476  18.134  27.364   2.209
 9861W        W81477  32.002   4.051  12.939
 9862W        W81478  25.905   5.785  14.862
 9863W        W81479   5.256  41.514  14.273
 9864W        W81480  10.859  25.565  10.976
 9865W        W81481  28.704  38.381   2.259
 9866W        W81482  11.642   1.065  14.940
 9867W        W81483  39.391  39.497  11.941
 9868W        W81484  36.275  43.608  10.638
 9869W        W81485  43.977  31.835   3.706
 9870W        W81486  19.755  44.249  12.163
 9871W        W81487   3.679  16.250   1.082
 9872W        W81488  27.508  33.265  11.327
 9873W        W81489  34.091  36.614   4.520
 9874W        W81490   0.968  13.552   3.803
 9875W        W81491  26.745  44.544  12.489
 9876W        W81492  10.143  27.058  14.156
 9877W        W81493  26.109  36.177  10.409
 9878W        W81494   1.228  33.470   0.263
 9879W        W81495   2.737   4.921   0.693
 9880W        W81496   6.264  32.667   3.801
 9881W        W81497  19.866  14.327  13.027
 9882W        W81498   4.969  22.543   2.737
 9883W        W81499  16.081  23.580  12.192
 9884W        W81500  22.224  39.234  11.281
 9885W        W81501   2.906  11.189  14.103
 9886W        W81502  17.755  41.958  12.177
 9887W        W81503   0.989  17.298   1.247
 9888W        W81504  20.449  22.717   1.671
 9889W        W81505  10.852  41.120   1.241
 9890W        W81506   6.922  35.976  14.885
 9891W        W81507  34.045  40.066   4.611
 9892W        W81508  43.926   6.061  11.579
 9893W        W81509   5.260  32.953  13.694
 9894W        W81510   8.902  37.339   3.823
 9895W        W81511  23.785  42.777   3.758
 9896W        W81512  36.686  30.919   0.893
 9897W        W81513  30.167   9.383   1.131
 9898W        W81514  34.572  36.487   3.623
 9899W        W81515  14.118  23.289   3.268
 9900W        W81516  39.481   4.360  12.982
 9901W        W81517  35.546  36.788  12.442
 9902W        W81518   1.032  26.589  13.375
 9903W        W81519  23.250  33.911  10.468
 9904W        W81520  41.960  44.922  10.682
 9905W        W81521  41.472  15.215   3.585
 9906W        W81522   4.275  38.153  12.905
 9907W        W81523  27.633   0.085   3.677
 9908W        W81524  30.085  40.575  14.031
 9909W        W81525  35.795  22.966   2.692
 9910W        W81526  40.976  10.755   4.411
 9911W        W81527  35.815  42.288   1.752
 9912W        W81528  32.583   3.538  13.602
 9913W        W81529  21.047   0.304  12.581
 9914W        W81530  41.429   8.252  14.365
 9915W        W81531  11.402  36.088  13.775
 9916W        W81532   8.606  44.047   1.834
 9917W        W81533  37.912  28.133  11.647
 9918W        W81534  26.155  11.392  13.399
 9919W        W81535   9.063  22.131   2.393
 9920W        W81536   8.882  16.509   4.029
 9921W        W81537  33.358  10.135  14.816
 9922W        W81538  11.296  33.470  12.362
 9923W        W81539  10.835   3.774  13.952
 9924W        W81540  40.813  21.875  13.315
 9925W        W81541  38.938  23.267   2.502
 9926W        W81542  42.577  29.915   1.842
 9927W        W81543  21.702   2.347   0.022
 9928W        W81544  11.781  29.912  14.240
 9929W        W81545  36.557   8.668  13.363
 9930W        W81546  32.262  31.967   1.881
 9931W        W81547  36.828  12.383   0.268
 9932W        W81548  39.845  24.505   1.722
 9933W        W81549   9.407  25.115  10.294
 9934W        W81550  28.235   0.588  12.415
 9935W        W81551  19.150  33.714   4.881
 9936W        W81552  16.345   0.370  11.219
 9937W        W81553   5.548  13.415   0.963
 9938W        W81554  29.024  16.300   0.437
 9939W        W81555  37.955   4.811   0.476
 9940W        W81556  24.784   0.297   2.540
 9941W        W81557  28.031  14.061  13.155
 9942W        W81558  16.487  21.591   3.807
 9943W        W81559  13.518   3.251   1.837
 9944W        W81560  40.294  43.564   3.868
 9945W        W81561  11.201  31.669  12.073
 9946W        W81562  27.592  17.263   3.552
 9947W        W81563   2.605  16.571  13.430
 9948W        W81564  19.922  39.986   1.799
 9949W        W81565  32.906  21.139   4.513
 9950W        W81566  16.518   9.280   2.297
 9951W        W81567  36.152  11.290   4.732
 9952W        W81568  19.477  43.414  11.609
 9953W        W81569  23.065  17.396   3.372
 9954W        W81570  31.806  17.496   3.109
 9955W        W81571  35.228  23.434   3.360
 9956W        W81572   7.672  18.105   0.224
 9957W        W81573  41.756  24.943  13.330
 9958W        W81574  41.338  39.821  13.463
 9959W        W81575   9.938   0.522  10.469
 9960W        W81576  35.894  30.933   0.225
 9961W        W81577   7.162  33.825   3.737
 9962W        W81578  19.049  22.232  11.955
 9963W        W81579  24.590  10.807   4.279
 9964W        W81580  36.891  34.084  12.919
 9965W        W81581  25.637  13.630  14.884
 9966W        W81582  35.665  21.798   4.342
 9967W        W81583  32.273  21.632  11.621
 9968W        W81584  41.564  44.365  12.856
 9969W        W81585  17.466  11.129   3.216
 9970W        W81586   3.748  36.086   3.725
 9971W        W81587  19.128  33.960  12.951
 9972W        W81588  32.559   6.459   3.783
 9973W        W81589  19.624  20.907   1.232
 9974W        W81590  13.123   3.205   3.203
 9975W        W81591  43.383  10.846   4.689
 9976W        W81592  22.970   2.703  13.587
 9977W        W81593  30.985   2.867   4.537
 9978W        W81594  28.990   2.756   3.722
 9979W        W81595  25.319  34.526   1.168
 9980W        W81596  36.233  11.437   2.380
 9981W        W81597  31.950  26.644   1.222
 9982W        W81598  40.546  23.084   2.664
 9983W        W81599  26.953  32.456   3.195
 9984W        W81600  35.046   6.416   4.113
 9985W        W81601  17.075  40.099  14.363
 9986W        W81602  24.027  27.039   2.767
 9987W        W81603  44.112  24.590   0.364
 9988W        W81604  39.085   9.771  12.595
 9989W        W81605  43.827  17.824  11.557
 9990W        W81606  22.757   1.284   2.388
 9991W        W81607  28.527   3.822  13.551
 9992W        W81608  21.195  14.604  14.575
 9993W        W81609  37.711  30.051   2.927
 9994W        W81610  22.090  20.222  10.619
 9995W        W81611  31.831   7.976   2.728
 9996W        W81612   3.908  26.206  11.485
 9997W        W81613   6.770  24.243   3.613
 9998W        W81614  20.104  35.864  10.703
 9999W        W81615  12.045  21.603   2.808
10000W        W81616  22.242  36.845  14.252
10001W        W81617  19.800  37.341  12.809
10002W        W81618   6.872  25.553   2.320
10003W        W81619  42.026  19.493  12.543
10004W        W81620   3.744   7.644  13.000
10005W        W81621  20.722  31.379   3.944
10006W        W81622  15.829  15.128   5.070
10007W        W81623  22.508  43.085  11.551
10008W        W81624  35.232  38.624   3.697
10009W        W81625  18.078  38.939   3.748
10010W        W81626   0.641  42.894  12.899
10011W        W81627  27.584   3.989   3.406
10012W        W81628  18.572  15.637   1.547
10013W        W81629  23.811  40.017  12.972
10014W        W81630  42.786  40.211  11.210
10015W        W81631  24.400  43.994   0.003
10016W        W81632  10.171   7.164  11.622
10017W        W81633   6.255  35.847  11.102
10018W        W81634  20.037  31.302   0.242
10019W        W81635  20.890   5.293  14.813
10020W        W81636  24.173  28.469   0.791
10021W        W81637   9.084  25.960   0.954
10022W        W81638  41.778  37.493  10.470
10023W        W81639  30.507  41.320  11.640
10024W        W81640   6.438  39.557  14.008
10025W        W81641   4.412  34.874   1.201
10026W        W81642  26.342  34.657  11.877
10027W        W81643  29.966  37.860   2.808
10028W        W81644  44.775  24.480  14.531
10029W        W81645  17.748  29.739   2.361
10030W        W81646  17.403  39.783  12.117
10031W        W81647   5.117  42.897  14.002
10032W        W81648  19.954  26.664   0.055
10033W        W81649  14.961  37.910   2.459
10034W        W81650   8.848  16.167   2.136
10035W        W81651  15.802  16.520   4.791
10036W        W81652  23.592  27.951   4.597
10037W        W81653  17.067   6.877  11.030
10038W        W81654  44.202   8.979   2.310
10039W        W81655  12.822  36.906   2.469
10040W        W81656   0.043  19.001  13.387
10041W        W81657  21.605  15.359  11.582
10042W        W81658  10.408  11.651   5.107
10043W        W81659  20.106  13.383  12.516
10044W        W81660  14.245  39.000   3.317
10045W        W81661  11.226   5.863   2.990
10046W        W81662  34.904  35.907   1.807
10047W        W81663  11.100  32.930  10.402
10048W        W81664   1.903  18.213   4.699
10049W        W81665  15.462  29.696   5.038
10050W        W81666   5.892  13.625   0.024
10051W        W81667   8.073  25.024   0.015
10052W        W81668  32.352  30.602   4.318
10053W        W81669   7.198  38.552  13.472
10054W        W81670  27.500  33.076   1.867
10055W        W81671  32.156   2.203  13.828
10056W        W81672  27.582  41.151  14.158
10057W        W81673  36.446  25.884   2.805
10058W        W81674  10.299   4.541  12.532
10059W        W81675  32.368  42.457   3.874
10060W        W81676  41.142   9.819  10.759
10061W        W81677   8.653   8.672   1.735
10062W        W81678   7.681  44.438  14.868
10063W        W81679  12.605   6.159   2.759
10064W        W81680  29.041  43.805   3.732
10065W        W81681  38.407  39.074  13.898
10066W        W81682   7.692  33.446   4.706
10067W        W81683  13.448   8.864   1.115
10068W        W81684  30.697  28.934   2.898
10069W        W81685  36.596  19.795   3.297
10070W        W81686  29.064  32.805   4.161
10071W        W81687   2.456   2.600   2.240
10072W        W81688   2.959  12.795   1.189
10073W        W81689  32.149  17.755   1.904
10074W        W81690  10.397   3.719  12.973
10075W        W81691  34.460  34.392  11.144
10076W        W81692  41.726  18.699  14.493
10077W        W81693  19.653  25.487   2.395
10078W        W81694  38.970  42.800  12.429
10079W        W81695  21.323  36.861   1.456
10080W        W81696  42.988  32.950  13.725
10081W        W81697  33.890  10.899   4.106
10082W        W81698  43.418  32.428   3.262
10083W        W81699  16.486  25.664   2.594
10084W        W81700  22.899  24.482   0.865
10085W        W81701  21.943  41.211  14.901
10086W        W81702  11.133   7.160  14.360
10087W        W81703  41.373  43.893  12.655
10088W        W81704   5.698  33.066  13.436
10089W        W81705   2.050  27.588  12.085
10090W        W81706  32.492  14.688   3.313
10091W        W81707   1.256   2.235   2.682
10092W        W81708  17.127  15.135   4.382
10093W        W81709  41.904  17.400   5.229
10094W        W81710  41.809  10.931  13.541
10095W        W81711  40.456  42.989  14.247
10096W        W81712  39.545  26.507  12.903
10097W        W81713  25.179  11.804   0.041
10098W        W81714  10.352  33.519  12.345
10099W        W81715  16.633  19.257  13.433
10100W        W81716  16.491   6.907  14.330
10101W        W81717   8.751  11.363  13.814
10102W        W81718   5.198  10.516  11.925
10103W        W81719   3.878   5.563  13.389
10104W        W81720   6.914  23.558   0.224
10105W        W81721  16.603  38.820  13.407
10106W        W81722  10.234   3.334   2.726
10107W        W81723   8.562  33.687   4.467
10108W        W81724  39.053  14.207   1.842
10109W        W81725  11.669  31.532   0.354
10110W        W81726  43.764   7.776   4.616
10111W        W81727  33.946  34.410  11.222
10112W        W81728  22.473  41.799   3.797
10113W        W81729  15.061  15.825  12.451
10114W        W81730  22.496  31.920   3.149
10115W        W81731  16.066  14.814  10.608
10116W        W81732  27.194   1.406   1.738
10117W        W81733  35.884  42.349  13.958
10118W        W81734  35.142   4.607   4.617
10119W        W81735  29.731  13.386   0.345
10120W        W81736  12.669  37.971  14.934
10121W        W81737  17.586  15.798   1.696
10122W        W81738  35.455  27.581   1.712
10123W        W81739  17.807  21.800   2.354
10124W        W81740  39.141  37.059   2.891
10125W        W81741  14.767  44.895  14.914
10126W        W81742  17.659   3.206   5.023
10127W        W81743  36.404  43.502  14.945
10128W        W81744  22.713  31.881   1.407
10129W        W81745  11.559  38.519   0.482
10130W        W81746  26.296  21.596   2.897
10131W        W81747  33.496   2.776  14.288
10132W        W81748   2.177   5.165  13.081
10133W        W81749   9.636  32.993  14.702
10134W        W81750  42.710  36.108   4.844
10135W        W81751  38.373  35.904  11.465
10136W        W81752   0.168   6.818  13.607
10137W        W81753  13.802  18.488   0.429
10138W        W81754   9.952  23.266  13.856
10139W        W81755   4.086   4.528  13.345
10140W        W81756  29.037  40.267   2.865
10141W        W81757   5.383  34.937   0.794
10142W        W81758   6.749  39.508  14.798
10143W        W81759  14.144  16.022  12.934
10144W        W81760  32.964  24.592   3.193
10145W        W81761  27.614   0.385  13.925
10146W        W81762  12.565  17.570   2.001
10147W        W81763  43.541  13.412  10.693
10148W        W81764   2.808  20.681  11.921
10149W        W81765   2.552   7.890   0.982
10150W        W81766  11.585   0.788  11.092
10151W        W81767  22.728  31.199   0.107
10152W        W81768  28.622  37.913   0.993
10153W        W81769  41.471   8.723   0.723
10154W        W81770  20.458  34.421  11.156
10155W        W81771   7.324  29.341   4.605
10156W        W81772  32.031   3.905  14.748
10157W        W81773  41.953  26.238  13.843
10158W        W81774  39.148   0.977  13.127
10159W        W81775  20.534  31.484   1.171
10160W        W81776  39.136  28.178  14.981
10161W        W81777  39.503  31.511  12.446
10162W        W81778  19.662  42.074  12.944
10163W        W81779  26.149   1.026   3.213
10164W        W81780  18.554  44.342   3.674
10165W        W81781  27.956  18.981   2.921
10166W        W81782  27.587  19.261  13.497
10167W        W81783  29.008  20.671   4.184
10168W        W81784   9.414  11.842   4.190
10169W        W81785  24.050  43.928  12.461
10170W        W81786  27.474  19.487   0.767
10171W        W81787  36.193  38.930   2.236
10172W        W81788  34.919  20.049   2.803
10173W        W81789  33.287  32.560   4.946
10174W        W81790  22.019   6.217  12.504
10175W        W81791  24.263   6.531  10.734
10176W        W81792  21.592  27.335   2.365
10177W        W81793   2.214   9.809   4.398
10178W        W81794   1.415   0.344   4.452
10179W        W81795   8.925   5.859   4.874
10180W        W81796  13.316  33.808   2.028
10181W        W81797  38.423  28.781   3.453
10182W        W81798  22.111   3.201  12.508
10183W        W81799  17.136   4.298   3.426
10184W        W81800  40.569   4.135  14.163
10185W        W81801  20.260  23.802  12.334
10186W        W81802  32.440  17.564  13.296
10187W        W81803  43.987   7.300   4.571
10188W        W81804  16.971   5.707  10.300
10189W        W81805  27.146  43.868   1.338
10190W        W81806  37.362   4.285   4.614
10191W        W81807  16.382  15.856  11.992
10192W        W81808  41.902  15.208   0.211
10193W        W81809   5.344   1.521   1.116
10194W        W81810   6.604   4.134  13.435
10195W        W81811  36.373  17.705   3.772
10196W        W81812  43.008  36.577  12.180
10197W        W81813   6.629  15.324  13.563
10198W        W81814  44.590  15.060  13.514
10199W        W81815  39.336  44.924  14.257
10200W        W81816   3.862  41.835  14.548
10201W        W81817  23.496  15.104   3.258
10202W        W81818  21.558   1.644  14.435
10203W        W81819  41.760  22.845   0.027
10204W        W81820  18.888  41.222  12.601
10205W        W81821  26.992   1.298   3.535
10206W        W81822  43.483  16.204   0.726
10207W        W81823  27.597  27.013  13.129
10208W        W81824  10.093  43.249   3.000
10209W        W81825  11.195   5.943  11.588
10210W        W81826   8.438  15.471  11.959
10211W        W81827  33.546   2.807  10.888
10212W        W81828   5.413  30.082  13.027
10213W        W81829  19.328   4.106   1.376
10214W        W81830   1.718  25.519  14.159
10215W        W81831  16.769  24.497   0.398
10216W        W81832   7.687  43.853  11.533
10217W        W81833  33.935  42.120  12.016
10218W        W81834   1.134  38.645   4.444
10219W        W81835  19.109  36.296   3.608
10220W        W81836  42.445  16.060   3.230
10221W        W81837  26.583  42.782  14.031
10222W        W81838  19.177   1.164   0.479
10223W        W81839   5.982  40.945   1.621
10224W        W81840  29.820  26.747  14.848
10225W        W81841  38.709   6.266   4.218
10226W        W81842  17.348  44.232  11.580
10227W        W81843  42.780  28.042  11.570
10228W        W81844   3.948   9.759  12.868
10229W        W81845  33.782   0.271   0.792
10230W        W81846  28.065  23.216   3.600
10231W        W81847  27.905  33.791   3.874
10232W        W81848  15.243  27.753   0.791
10233W        W81849  18.009   3.458   1.666
10234W        W81850  24.650  32.395   4.798
10235W        W81851  41.279  10.670   4.861
10236W        W81852  37.671   4.636  13.481
10237W        W81853  14.368  37.344   3.175
10238W        W81854  14.311   6.450   2.186
10239W        W81855  24.993  11.655  13.052
10240W        W81856  25.967  36.588   2.637
10241W        W81857  37.424  24.099   0.720
10242W        W81858  24.769  25.344  11.052
10243W        W81859   4.405  10.742  14.443
10244W        W81860  30.712  44.711  14.809
10245W        W81861  10.385   1.011  11.644
10246W        W81862   1.987  18.799  12.476
10247W        W81863  20.615  10.720  13.495
10248W        W81864  33.509  24.939   2.372
10249W        W81865  29.287  24.105  12.282
10250W        W81866  26.857  43.756   1.743
10251W        W81867  39.353   3.195  10.960
10252W        W81868   7.860   2.350   0.017
10253W        W81869  13.127   9.619   2.301
10254W        W81870  14.421  20.154  10.639
10255W        W81871  30.825  24.248  13.397
10256W        W81872  25.709  41.525  12.979
10257W        W81873  38.875  20.649  11.574
10258W        W81874  37.979  38.113  11.569
10259W        W81875  14.614   4.920   2.863
10260W        W81876  40.477  32.115   3.048
10261W        W81877  20.650  42.279   4.608
10262W        W81878  21.056  26.883  11.586
10263W        W81879  35.489  15.909  14.844
10264W        W81880  10.671  38.821  11.350
10265W        W81881   8.147  34.122  13.693
10266W        W81882  23.013  37.463   0.002
10267W        W81883   8.265  29.667  14.542
10268W        W81884   7.669  38.037   1.430
10269W        W81885  16.931  14.373  12.689
10270W        W81886  28.990  23.700   4.661
10271W        W81887  30.571  17.063   2.220
10272W        W81888  33.439  37.922  12.398
10273W        W81889  31.465  30.381  11.468
10274W        W81890  24.255   6.308  11.583
10275W        W81891  30.745   1.848  11.199
10276W        W81892  16.270  43.476  12.984
10277W        W81893  30.940  30.627  12.660
10278W        W81894  13.088  44.448  12.181
10279W        W81895  11.816   1.003   3.549
10280W        W81896  38.880  12.852   4.901
10281W        W81897  43.398   7.764   3.425
10282W        W81898   9.112  33.348  11.084
10283W        W81899  22.733   6.341   4.632
10284W        W81900  24.959  41.340  11.168
10285W        W81901  22.251  36.309   3.675
10286W        W81902   5.311  43.896  11.967
10287W        W81903  19.798  42.019  11.561
10288W        W81904  13.293   0.065  10.889
10289W        W81905  37.256  31.290  11.898
10290W        W81906  32.527  16.730   0.657
10291W        W81907  44.957  39.464   1.402
10292W        W81908  13.043  42.962  14.276
10293W        W81909  40.553  27.149   1.619
10294W        W81910  13.231  28.686   0.823
10295W        W81911  22.950  21.765   0.934
10296W        W81912  11.381  23.756   0.804
10297W        W81913  18.180  33.663  14.943
10298W        W81914  33.316  15.357  13.513
10299W        W81915  40.816   5.852   4.554
10300W        W81916  19.203  26.556   4.578
10301W        W81917   1.944  42.251   0.731
10302W        W81918  38.566   2.921  12.859
10303W        W81919   8.847   2.467   5.088
10304W        W81920   1.841  40.978   0.041
10305W        W81921  19.933  37.011  13.370
10306W        W81922  14.823   8.284  11.171
10307W        W81923  18.840  24.349   2.222
10308W        W81924   9.172   8.163   1.805
10309W        W81925   7.291  13.163  10.744
10310W        W81926  22.095  31.628  14.270
10311W        W81927  21.892  17.574  13.315
10312W        W81928   1.735  12.571  13.333
10313W        W81929  20.257   9.662  14.639
10314W        W81930  18.242  26.342  12.929
10315W        W81931  21.581   0.312  12.279
10316W        W81932  44.238  11.181  11.518
10317W        W81933  39.745   7.745   4.865
10318W        W81934  22.136  19.101   2.802
10319W        W81935  31.906   1.693   0.080
10320W        W81936  26.152   0.394   1.449
10321W        W81937  39.885   7.919  11.993
10322W        W81938  20.185  24.319  10.510
10323W        W81939  40.945  36.153   4.022
10324W        W81940  11.852  43.068   9.845
10325W        W81941  33.929  15.693   1.831
10326W        W81942   0.373   0.898   2.669
10327W        W81943  21.123   9.838  14.453
10328W        W81944  34.145   4.397  14.335
10329W        W81945  28.940  19.867  13.440
10330W        W81946  41.390  22.628  13.743
10331W        W81947   2.303   7.675  11.935
10332W        W81948  43.729  36.971   2.501
10333W        W81949  35.659  14.738   1.050
10334W        W81950  17.027  23.667  12.118
10335W        W81951  27.058  13.365  11.020
10336W        W81952  37.414   6.928  13.057
10337W        W81953  44.804  22.981   1.158
10338W        W81954   5.710  17.530  10.324
10339W        W81955   8.889  32.163  14.464
10340W        W81956   1.772  26.716  11.140
10341W        W81957  44.411  12.358  12.106
10342W        W81958  10.362  43.839   4.171
10343W        W81959  43.391  38.154  10.648
10344W        W81960  30.519  30.530  14.489
10345W        W81961  18.805  44.898  14.504
10346W        W81962   8.854  13.817   2.808
10347W        W81963  21.195   3.247  11.425
10348W        W81964  25.951  38.228  10.604
10349W        W81965  17.177  14.279   1.225
10350W        W81966  42.603  32.575   4.597
10351W        W81967  22.408   1.425  14.081
10352W        W81968  19.679  10.615   0.818
10353W        W81969  28.110  21.552  12.094
10354W        W81970  36.844  12.830   3.107
10355W        W81971   6.821  20.048   3.336
10356W        W81972  37.919  34.659  12.414
10357W        W81973  31.609   9.246  10.722
10358W        W81974  11.231  24.094   0.407
10359W        W81975  30.453  33.133   0.559
10360W        W81976   6.421   5.362   2.484
10361W        W81977  32.097  43.523   3.689
10362W        W81978   4.032   7.385  14.657
10363W        W81979  43.463  32.165  10.297
10364W        W81980   5.713   2.783   1.870
10365W        W81981  13.044  32.111   4.321
10366W        W81982   5.562  37.802  11.866
10367W        W81983  37.978  25.707  12.612
10368W        W81984  43.245  15.114   2.729
10369W        W81985  34.964  31.535   1.349
10370W        W81986   2.801  16.409  13.933
10371W        W81987  35.531  40.267   0.379
10372W        W81988  15.859   0.131  13.794
10373W        W81989  27.195  20.780  13.784
10374W        W81990  18.679   2.386   1.862
10375W        W81991  39.060   7.459   2.324
10376W        W81992  25.161  26.990   2.692
10377W        W81993  36.940  44.090  12.434
10378W        W81994  16.144   4.523   5.062
10379W        W81995  16.746  20.753  11.196
10380W        W81996   4.037  11.324  10.398
10381W        W81997  31.507  37.915   0.201
10382W        W81998   7.177  12.590  11.446
10383W        W81999  39.448  20.084  11.491
10384W        W82000  27.441  33.957  14.936
10385W        W82001   8.448  13.656   1.986
10386W        W82002  43.321  41.894   1.834
10387W        W82003  24.679  39.570  13.455
10388W        W82004   5.926  42.882  12.939
10389W        W82005  12.324  14.853   4.155
10390W        W82006  28.150  27.469  14.717
10391W        W82007  28.989  12.695  12.059
10392W        W82008  12.363  19.226   1.743
10393W        W82009  21.679  17.210   1.295
10394W        W82010   4.245  13.566  13.899
10395W        W82011  30.004  39.277   1.771
10396W        W82012  22.605  31.524  14.280
10397W        W82013  27.937  11.309   4.068
10398W        W82014  17.241   7.180  14.875
10399W        W82015  44.873  29.112   1.303
10400W        W82016  17.650   1.978  11.103
10401W        W82017  34.185  35.881   2.253
10402W        W82018  33.616  39.025  12.470
10403W        W82019   7.206   5.737  10.680
10404W        W82020  30.652  31.700  11.436
10405W        W82021   4.472  30.791  14.557
10406W        W82022  11.142  44.300   2.731
10407W        W82023  34.118  15.922   2.249
10408W        W82024   8.330   0.481  13.941
10409W        W82025  21.986  19.087   2.297
10410W        W82026  36.979  31.655   2.908
10411W        W82027  38.574  41.262   0.877
10412W        W82028  11.199  38.067  14.096
10413W        W82029   9.592   5.945  14.495
10414W        W82030  44.562  24.786   1.266
10415W        W82031  23.584  10.745  11.217
10416W        W82032  20.065  23.888   3.131
10417W        W82033  40.779   1.400  11.338
10418W        W82034  20.273  15.354   1.870
10419W        W82035  10.631  10.813   4.819
10420W        W82036  30.391  19.049  13.591
10421W        W82037  38.849  21.242  13.344
10422W        W82038  17.964   1.036   2.879
10423W        W82039  12.845   9.845  10.734
10424W        W82040  13.306  25.252   5.057
10425W        W82041  28.538  23.556  13.340
10426W        W82042  35.064  32.381   3.808
10427W        W82043  21.988  23.714   1.388
10428W        W82044  16.146  36.934   4.579
10429W        W82045  31.651  12.672  13.686
10430W        W82046  18.885   3.610   3.433
10431W        W82047  14.282  20.528  12.877
10432W        W82048  28.610  38.944   3.410
10433W        W82049  43.214  31.140  11.105
10434W        W82050   3.275   2.732  14.126
10435W        W82051  20.514  40.644   1.262
10436W        W82052  40.910  40.448   0.896
10437W        W82053  28.608  12.120   4.735
10438W        W82054  28.196  17.847  12.516
10439W        W82055  25.660  11.799  14.725
10440W        W82056  44.966  18.238   2.367
10441W        W82057  25.740  26.743   3.653
10442W        W82058   2.775  36.630  11.300
10443W        W82059  24.627   8.333  13.932
10444W        W82060  22.723  23.645   3.776
10445W        W82061  33.080   2.713   2.189
10446W        W82062  38.543   1.202   3.245
10447W        W82063   6.368  24.424  12.412
10448W        W82064   3.055  32.400  13.175
10449W        W82065  42.023   9.464  12.263
10450W        W82066   4.653   3.885  13.516
10451W        W82067  19.561  34.168   0.768
10452W        W82068  31.147  20.999  14.029
10453W        W82069  16.640  13.616   4.218
10454W        W82070  25.764   2.397   2.095
10455W        W82071   6.666  38.699  12.003
10456W        W82072   5.161  43.538  12.866
10457W        W82073   5.386  11.218   3.639
10458W        W82074   7.701  24.148   4.055
10459W        W82075  20.743   2.543  14.716
10460W        W82076   8.888  28.155   4.187
10461W        W82077   9.642  37.463  11.872
10462W        W82078  32.044  14.594   1.707
10463W        W82079  28.671  11.203   4.737
10464W        W82080  43.229  11.778   9.983
10465W        W82081  23.989  25.035   0.385
10466W        W82082  28.966  32.982  14.678
10467W        W82083  29.783  14.620  11.076
10468W        W82084  13.612  27.333   2.713
10469W        W82085   7.612  30.140  14.023
10470W        W82086   3.672   9.555  11.556
10471W        W82087  42.807  41.588  10.943
10472W        W82088  39.989   5.113   4.481
10473W        W82089  35.346  36.867   0.906
10474W        W82090  38.996  24.064   0.884
10475W        W82091  44.647  26.648  11.217
10476W        W82092  24.561  11.288   3.803
10477W        W82093  24.101  29.502  12.066
10478W        W82094  24.538  43.957  13.973
10479W        W82095   4.924  13.848   1.820
10480W        W82096  26.614  35.847   2.892
10481W        W82097   2.915  30.565  12.831
10482W        W82098  33.385  15.034  10.755
10483W        W82099  39.989  28.594  11.161
10484W        W82100  13.146  14.025  13.470
10485W        W82101  15.512  41.510   0.358
10486W        W82102  15.834  40.010   2.275
10487W        W82103  41.530  15.305  11.576
10488W        W82104  16.857  44.368  14.444
10489W        W82105  24.140  11.329  14.531
10490W        W82106  14.457  31.772   4.946
10491W        W82107  39.958  43.418  10.325
10492W        W82108  41.647   4.763   4.708
10493W        W82109   6.279  43.868   1.606
10494W        W82110   0.358  32.685  14.971
10495W        W82111  40.566   9.177  11.262
10496W        W82112  18.201  10.898  14.848
10497W        W82113   9.897  14.328   2.727
10498W        W82114   8.840   6.256  13.530
10499W        W82115  27.384   7.246   3.475
10500W        W82116  32.879  29.240   3.808
10501W        W82117  17.247  17.830  13.865
10502W        W82118  16.619  27.987   2.900
10503W        W82119  21.094  21.621   2.725
10504W        W82120  34.983  33.809  13.811
10505W        W82121  13.692  37.329  12.344
10506W        W82122  43.253  26.050  13.017
10507W        W82123  31.699  32.943   3.266
10508W        W82124   7.219   3.791   0.176
10509W        W82125  29.311   4.737  14.962
10510W        W82126  17.881  39.553   1.344
10511W        W82127  30.211  16.747   0.453
10512W        W82128  12.644  26.613   0.689
10513W        W82129  10.203  21.085   2.308
10514W        W82130  37.792  12.112  12.763
10515W        W82131   7.750  32.405  11.402
10516W        W82132  21.168  14.143   0.040
10517W        W82133   2.402  31.838   2.242
10518W        W82134  18.750   2.211   3.433
10519W        W82135  19.411   2.685  13.893
10520W        W82136  28.829  19.703   0.459
10521W        W82137   6.688  42.812  12.525
10522W        W82138   2.975  25.193   9.729
10523W        W82139  40.969   8.514  14.492
10524W        W82140  22.478  25.516  14.320
10525W        W82141  41.283  33.677   1.534
10526W        W82142  16.228  34.154   0.362
10527W        W82143  37.295  20.639  14.426
10528W        W82144  11.262  41.434  13.922
10529W        W82145  21.525  33.445   3.610
10530W        W82146  15.323  44.332   1.705
10531W        W82147  30.532  18.502  13.968
10532W        W82148  24.034  35.188  12.708
10533W        W82149  25.942  43.752   2.291
10534W        W82150  12.753  22.480  14.760
10535W        W82151  36.067  36.857   2.440
10536W        W82152  19.500  39.459   4.760
10537W        W82153  43.802  42.368   2.440
10538W        W82154  39.670  42.428   2.352
10539W        W82155   3.445  36.063  11.034
10540W        W82156  11.603  24.039   2.507
10541W        W82157   6.654  37.182   0.820
10542W        W82158  39.670  43.802  13.487
10543W        W82159  41.633   8.258   0.872
10544W        W82160  28.495  44.374  12.891
10545W        W82161   8.347  25.337   4.990
10546W        W82162  31.536  31.389  10.659
10547W        W82163  43.348  21.332   1.422
10548W        W82164  13.275  30.469   3.269
10549W        W82165  21.540  36.861   3.138
10550W        W82166   6.389  22.135  11.033
10551W        W82167  23.232   6.718  14.965
10552W        W82168  21.289  16.674  12.621
10553W        W82169  35.417   2.792   1.986
10554W        W82170  26.465  18.605  12.535
10555W        W82171   8.800  25.691  14.916
10556W        W82172  30.115   1.000   0.061
10557W        W82173  11.634  15.867  12.437
10558W        W82174   1.998  38.454   0.820
10559W        W82175  37.893   2.808  13.419
10560W        W82176  31.191  13.804  11.111
10561W        W82177  24.041  31.817   0.786
10562W        W82178  14.205  17.794  12.927
10563W        W82179  22.188  20.867  12.078
10564W        W82180   8.714  29.021  11.666
10565W        W82181  11.733  29.498  11.563
10566W        W82182  32.168  18.248  13.060
10567W        W82183   0.354  21.306   4.876
10568W        W82184  13.792  36.685   0.973
10569W        W82185  18.458   2.895   2.295
10570W        W82186  32.257  13.619  11.065
10571W        W82187  15.359  27.704  11.449
10572W        W82188  43.726  11.807   0.237
10573W        W82189   7.385  23.931  14.948
10574W        W82190   3.939  36.145  10.729
10575W        W82191  29.375  19.127  10.745
10576W        W82192  33.906  26.534   4.541
10577W        W82193  31.133  32.391  12.490
10578W        W82194  34.170   4.654   4.502
10579W        W82195  16.422   0.520  12.576
10580W        W82196  40.628  39.869  10.344
10581W        W82197  11.819  38.787   2.256
10582W        W82198  43.941  13.835   1.135
10583W        W82199  40.357  10.343  14.902
10584W        W82200   1.335   2.969   4.293
10585W        W82201  35.326  12.438  12.944
10586W        W82202   6.673   6.772   4.564
10587W        W82203  24.873  25.564  13.106
10588W        W82204  42.714  10.355   1.489
10589W        W82205  27.927  43.830   3.844
10590W        W82206  16.243  30.247   2.285
10591W        W82207  29.554  20.970   2.237
10592W        W82208   8.294   1.567  11.528
10593W        W82209   0.855  44.952  12.380
10594W        W82210   9.539  28.942   2.192
10595W        W82211  36.921  35.351  11.649
10596W        W82212   4.405  44.178   4.151
10597W        W82213  23.976  16.389   4.110
10598W        W82214  14.718  14.592   2.033
10599W        W82215  31.548  14.850   3.357
10600W        W82216  41.313   4.770  14.965
10601W        W82217  38.890  12.594  11.451
10602W        W82218  19.985  30.331  10.350
10603W        W82219  24.008   1.787   3.747
10604W        W82220  22.224  23.235   1.380
10605W        W82221  32.954  39.749  11.480
10606W        W82222  32.562  30.653  13.964
10607W        W82223   2.696  20.613  13.420
10608W        W82224  21.778   7.638   1.732
10609W        W82225  34.078   3.500  14.045
10610W        W82226  37.964  36.255   1.862
10611W        W82227  33.766   7.514  12.854
10612W        W82228  14.700  15.590   1.654
10613W        W82229  28.828  32.084  11.477
10614W        W82230  40.644  42.443   4.736
10615W        W82231  26.936  14.820   1.994
10616W        W82232  19.855   0.274  13.535
10617W        W82233  37.572  44.220  12.916
10618W        W82234  40.455  38.977   3.462
10619W        W82235  19.007  34.460  11.600
10620W        W82236  23.198   5.250   3.353
10621W        W82237  17.687  14.109   2.115
10622W        W82238  29.805   3.758  13.822
10623W        W82239   2.174  10.285  10.038
10624W        W82240  20.615  20.059  14.431
10625W        W82241  30.069  26.061  10.727
10626W        W82242  30.577  41.584  12.086
10627W        W82243  42.327  37.784   0.703
10628W        W82244  14.274  35.257  11.641
10629W        W82245  20.526  15.639  10.483
10630W        W82246  36.420  11.830  11.186
10631W        W82247  29.529  22.221  14.531
10632W        W82248  19.642  44.714  11.943
10633W        W82249  11.292   3.332   4.189
10634W        W82250  22.067  29.186  12.469
10635W        W82251  11.779  42.044  11.380
10636W        W82252  38.416   7.402  11.602
10637W        W82253  15.027  18.977   1.398
10638W        W82254  15.463  38.816   4.508
10639W        W82255   6.841  26.443   4.786
10640W        W82256  21.150  15.869  11.079
10641W        W82257  25.479  26.635   4.632
10642W        W82258  41.949  22.666  10.169
10643W        W82259  19.363   9.094  12.031
10644W        W82260  38.080  26.073  13.571
10645W        W82261  36.277  22.614   1.875
10646W        W82262  29.413  38.493  13.484
10647W        W82263   7.114  22.676   0.895
10648W        W82264  31.767  10.804  11.129
10649W        W82265  13.854  41.479  13.350
10650W        W82266  25.981  27.951   3.847
10651W        W82267  13.149  41.093   1.783
10652W        W82268  28.591   2.009   1.899
10653W        W82269  31.902  31.777  11.927
10654W        W82270  14.197  23.086  10.678
10655W        W82271   8.684  35.603  14.431
10656W        W82272  31.667  30.605   0.949
10657W        W82273   0.307  19.565  14.058
10658W        W82274  33.071  29.941   2.365
10659W        W82275  21.837  11.140  13.410
10660W        W82276  37.911   5.754   2.731
10661W        W82277   1.819  36.971   3.201
10662W        W82278  44.525  22.260  11.654
10663W        W82279   9.809  33.555   0.445
10664W        W82280  40.293  29.045   4.529
10665W        W82281  33.395  19.746  12.415
10666W        W82282  26.378  24.977   4.594
10667W        W82283  28.894  14.692  11.589
10668W        W82284  27.486   6.731   3.444
10669W        W82285  10.826  18.529   3.144
10670W        W82286  33.504  40.869  12.474
10671W        W82287  38.346   7.573   2.762
10672W        W82288  15.635  43.278  12.673
10673W        W82289   9.591  42.930   1.758
10674W        W82290  24.507   9.334   4.421
10675W        W82291  20.071  29.729  14.571
10676W        W82292  41.274   9.320  14.086
10677W        W82293  35.669  13.567  14.909
10678W        W82294  15.293   7.290   0.770
10679W        W82295  31.222   1.495   3.304
10680W        W82296  21.337  19.835   3.689
10681W        W82297   8.475  34.512  13.842
10682W        W82298  33.601   4.126  10.669
10683W        W82299  44.347  31.845  14.821
10684W        W82300  32.978  24.122  13.395
10685W        W82301   8.887  38.862   3.127
10686W        W82302   1.031  10.651   5.029
10687W        W82303  32.460  17.558  11.924
10688W        W82304   9.255  44.976  14.314
10689W        W82305  11.930   7.813  13.020
10690W        W82306  40.617   3.157   3.668
10691W        W82307  10.563   7.189   3.876
10692W        W82308   2.322  33.548  11.202
10693W        W82309  12.112   1.468   4.307
10694W        W82310  33.409  36.620   0.062
10695W        W82311   4.172   4.098  13.651
10696W        W82312  22.050  19.718  10.745
10697W        W82313  17.549  36.912   1.329
10698W        W82314  43.201  12.450   2.774
10699W        W82315  42.715  21.310  12.585
10700W        W82316  33.585  36.553  14.578
10701W        W82317  30.720  43.185   2.150
10702W        W82318   3.776  26.039   4.107
10703W        W82319  15.694  15.356   4.229
10704W        W82320  20.741  20.303   4.704
10705W        W82321  27.038  14.222  11.946
10706W        W82322   8.267  20.169   0.367
10707W        W82323  25.622   5.903   1.134
10708W        W82324  33.155  37.535   0.935
10709W        W82325  23.516  11.115   4.520
10710W        W82326  41.819  14.257   0.249
10711W        W82327  11.624  16.034   1.822
10712W        W82328  22.093  23.432   2.832
10713W        W82329  30.180  39.487  12.842
10714W        W82330  36.356   6.465   4.650
10715W        W82331  29.192  23.832   1.850
10716W        W82332  36.378  12.677  13.865
10717W        W82333   4.705   6.944  14.448
10718W        W82334  32.901  24.943   4.255
10719W        W82335  44.389  30.049   3.750
10720W        W82336  43.912  38.754  10.945
10721W        W82337  12.037  39.225  12.601
10722W        W82338  44.236  42.997  14.555
10723W        W82339  37.579  36.295  14.287
10724W        W82340   2.631  42.713   3.816
10725W        W82341   5.719  16.790   3.768
10726W        W82342  13.772  18.972  11.564
10727W        W82343  10.483  17.955   4.988
10728W        W82344   7.120   8.117  11.539
10729W        W82345   2.688  43.354  14.051
10730W        W82346  35.423  26.633   3.633
10731W        W82347   0.898   8.776   2.201
10732W        W82348  26.564  34.615   4.391
10733W        W82349  13.319   3.201  11.903
10734W        W82350  42.305  25.209  11.061
10735W        W82351  42.517  36.544  12.037
10736W        W82352   3.973  14.107  14.986
10737W        W82353  33.798  37.097  12.963
10738W        W82354  28.566  41.635   0.521
10739W        W82355  14.131   6.780  10.266
10740W        W82356  28.891  20.769  13.605
10741W        W82357  20.975  24.965   2.742
10742W        W82358   8.605  21.776   4.158
10743W        W82359  15.047  13.378   1.458
10744W        W82360   5.352  27.956  10.675
10745W        W82361   3.193  10.398  13.822
10746W        W82362  21.320  15.185  11.980
10747W        W82363  13.337  25.661   3.219
10748W        W82364  13.142  40.423   2.391
10749W        W82365  22.698  30.667   0.040
10750W        W82366   7.885  31.229  12.359
10751W        W82367  26.605  40.992   2.278
10752W        W82368  27.512  14.641  10.375
10753W        W82369  40.368  38.397  13.882
10754W        W82370  21.576  35.019  12.874
10755W        W82371   0.936   5.018  12.018
10756W        W82372   6.549   2.298  13.291
10757W        W82373  28.976  43.380   4.289
10758W        W82374   8.174  44.274  11.158
10759W        W82375  11.729  39.566  14.466
10760W        W82376   9.848  31.497  12.164
10761W        W82377  11.261  17.763   3.136
10762W        W82378  24.954  33.409   1.443
10763W        W82379  27.709  31.462   4.205
10764W        W82380  44.016  40.341  13.894
10765W        W82381  40.916   1.285  14.917
10766W        W82382  16.663  12.685  14.086
10767W        W82383  26.454  25.589   5.244
10768W        W82384  14.532   2.967   3.333
10769W        W82385  43.064  35.343  12.808
10770W        W82386  13.529  21.453  10.614
10771W        W82387  28.430   1.073   3.685
10772W        W82388  21.500   0.376  14.729
10773W        W82389  34.531  11.208  12.862
10774W        W82390  34.699  37.020  14.506
10775W        W82391   1.228  30.844  10.991
10776W        W82392  16.696  31.659  13.989
10777W        W82393   5.923  37.800  13.537
10778W        W82394  24.744  18.760  12.726
10779W        W82395  43.065  30.517   4.394
10780W        W82396   1.916  20.991  12.008
10781W        W82397  34.461  44.764  12.013
10782W        W82398  13.718  33.054  10.633
10783W        W82399  12.301  39.466   3.858
10784W        W82400  29.728  19.592   3.095
10785W        W82401  35.675  32.383   4.930
10786W        W82402  10.599   5.840  11.493
10787W        W82403  44.216  43.513  12.112
10788W        W82404  15.131   1.722   2.706
10789W        W82405   9.907   8.279  11.348
10790W        W82406  29.091  31.536  13.873
10791W        W82407   1.970  30.920  12.640
10792W        W82408  39.520  12.798  11.050
10793W        W82409  33.648  16.305   3.120
10794W        W82410  38.397  35.876   2.848
10795W        W82411  22.262  20.782   1.775
10796W        W82412  33.262  39.601  11.886
10797W        W82413  26.350  27.632  11.346
10798W        W82414  20.677  10.394   1.328
10799W        W82415   4.400  30.460  14.973
10800W        W82416   7.619  19.723   4.045
10801W        W82417  16.803  31.566  11.504
10802W        W82418  17.321  42.918  10.140
10803W        W82419  33.140  43.260   2.915
10804W        W82420  40.747  13.190   0.883
10805W        W82421  11.318  30.194  11.708
10806W        W82422  43.825  26.698   4.644
10807W        W82423  31.064  38.524  13.134
10808W        W82424  10.691  15.631   1.054
10809W        W82425  11.687  17.523   5.000
10810W        W82426  28.689   3.763   2.873
10811W        W82427  43.908  30.663  14.283
10812W        W82428   1.078   4.726   3.640
10813W        W82429  14.953  18.709  14.455
10814W        W82430  22.403   4.421  12.045
10815W        W82431  43.014  24.608  14.202
10816W        W82432   3.385   5.748   4.011
10817W        W82433  13.266  21.054  12.660
10818W        W82434  42.085  29.544   0.824
10819W        W82435   5.293  30.137   2.233
10820W        W82436  14.259  22.816   0.893
10821W        W82437  31.588  20.188   3.812
10822W        W82438   3.664   6.776  14.541
10823W        W82439  17.957  27.954  12.051
10824W        W82440  30.699  16.525   1.857
10825W        W82441  31.618   0.745   1.169
10826W        W82442  36.019   1.055   3.875
10827W        W82443   5.370  27.966   3.406
10828W        W82444  22.294   4.775   3.083
10829W        W82445  31.447  32.142  11.135
10830W        W82446   3.436  25.842  11.489
10831W        W82447   2.453  38.306  12.569
10832W        W82448   0.018  33.005   1.717
10833W        W82449  33.959  25.432   4.591
10834W        W82450  18.689   6.513  10.833
10835W        W82451  26.074  23.675   1.192
10836W        W82452  26.215  18.187   2.626
10837W        W82453  14.780  31.348   1.862
10838W        W82454   6.214  26.857   4.598
10839W        W82455   4.558  30.580   2.247
10840W        W82456  17.537  27.162  12.671
10841W        W82457  21.518  18.954  14.765
10842W        W82458   2.804  29.921   4.155
10843W        W82459   9.648  10.992   4.152
10844W        W82460   7.953  12.100   1.357
10845W        W82461  17.498  27.001  13.990
10846W        W82462  27.582  15.579   0.453
10847W        W82463  39.331  37.314  13.841
10848W        W82464  33.982   2.537  12.308
10849W        W82465  19.837  28.079  14.513
10850W        W82466  26.722   5.956  13.035
10851W        W82467  17.616  32.919  13.889
10852W        W82468  30.393  29.508  12.492
10853W        W82469  24.454  26.505   2.269
10854W        W82470  30.169  26.296   0.270
10855W        W82471  31.900   1.174  10.793
10856W        W82472  22.276  18.714   4.121
10857W        W82473  11.567  43.435   1.773
10858W        W82474  37.598  23.236   0.757
10859W        W82475  15.510  19.860   0.691
10860W        W82476   3.177   3.270  12.875
10861W        W82477  21.264  25.694  11.050
10862W        W82478  28.722  26.741   4.774
10863W        W82479   6.742   7.795  12.737
10864W        W82480  28.707   4.618  12.526
10865W        W82481   3.811  31.118   2.330
10866W        W82482  44.463  22.701   1.411
10867W        W82483  11.246  35.116  13.980
10868W        W82484  23.535  15.139  10.730
10869W        W82485  14.085  10.130   2.772
10870W        W82486   8.602  16.297  14.815
10871W        W82487   7.824  26.924   0.877
10872W        W82488  27.666  18.225   3.836
10873W        W82489  33.240  23.567  10.404
10874W        W82490  26.686  23.207   0.921
10875W        W82491  12.360  24.560   3.265
10876W        W82492  13.367   6.727  12.980
10877W        W82493   3.907  34.933  12.462
10878W        W82494  27.393  30.550  10.486
10879W        W82495  20.242  14.106   2.259
10880W        W82496  42.486   8.595   1.549
10881W        W82497  11.241  13.843  12.078
10882W        W82498  39.941  24.517   1.211
10883W        W82499  27.457  23.338  14.858
10884W        W82500  44.342  22.208  14.916
10885W        W82501  13.060   8.333   1.897
10886W        W82502  37.536   6.466  14.501
10887W        W82503   9.347   7.387   1.262
10888W        W82504  23.661  42.479   0.450
10889W        W82505  36.820  42.164  13.917
10890W        W82506   5.430   2.258  14.537
10891W        W82507  30.428  33.578  10.973
10892W        W82508  12.880   0.099  10.568
10893W        W82509  36.513  15.038  13.436
10894W        W82510  29.403  16.302   2.225
10895W        W82511   0.009  23.453   1.207
10896W        W82512  20.271  14.337  13.707
10897W        W82513   4.428  16.888   0.928
10898W        W82514  16.082  16.799   2.108
10899W        W82515  19.746  12.720  12.829
10900W        W82516  44.891   5.191  12.417
10901W        W82517  20.971  28.627   2.258
10902W        W82518   8.491   0.870  12.948
10903W        W82519   0.326  23.529  11.084
10904W        W82520   1.856  27.999   2.894
10905W        W82521  26.463  26.438  13.822
10906W        W82522   9.682  26.470   0.682
10907W        W82523  37.054  40.086   2.303
10908W        W82524  24.593   5.494   4.695
10909W        W82525  15.004  41.757   0.876
10910W        W82526  38.576  14.458   0.804
10911W        W82527  25.057  32.040  13.416
10912W        W82528   1.190   7.031  11.191
10913W        W82529  10.767  43.289  11.885
10914W        W82530  10.241  35.859   3.727
10915W        W82531  37.339  42.370   0.513
10916W        W82532  29.395  26.237  12.472
10917W        W82533  13.115  12.446   3.199
10918W        W82534   9.902  37.602  10.619
10919W        W82535  27.700   9.456   3.715
10920W        W82536  29.539  34.271   1.692
10921W        W82537  41.277  33.379  13.206
10922W        W82538  41.563  23.580   0.894
10923W        W82539  40.770  19.737  11.565
10924W        W82540  22.214  14.125   0.482
10925W        W82541  12.175   7.171   0.355
10926W        W82542   9.141  26.613   1.924
10927W        W82543  35.908  25.689   1.800
10928W        W82544  20.380  21.741  12.026
10929W        W82545   8.659  38.266   1.609
10930W        W82546  38.294   6.799  11.054
10931W        W82547  29.864  33.137   1.905
10932W        W82548  39.857   0.781  10.781
10933W        W82549  33.382   6.257   4.365
10934W        W82550  17.701  15.004   3.727
10935W        W82551  27.070  15.422  13.985
10936W        W82552  20.103   2.074  14.435
10937W        W82553   0.331  39.000   4.626
10938W        W82554  42.886  18.526   2.332
10939W        W82555  29.425   9.581  12.091
10940W        W82556  28.762  36.680  10.663
10941W        W82557  36.265   1.826  12.149
10942W        W82558   2.891   9.373  11.101
10943W        W82559  15.198  32.430   2.787
10944W        W82560  15.105  33.551   2.046
10945W        W82561  25.620  24.727   4.192
10946W        W82562  19.613  42.372  14.311
10947W        W82563   8.854   8.884  10.650
10948W        W82564   8.271  43.891   1.409
10949W        W82565  42.949  35.007   4.561
10950W        W82566   3.462  12.173   4.563
10951W        W82567   5.777  25.168   0.872
10952W        W82568   0.718  41.276   0.774
10953W        W82569  43.908  42.484  13.896
10954W        W82570  15.092  30.022   2.432
10955W        W82571  30.706  23.572   4.167
10956W        W82572  28.013  11.051  11.550
10957W        W82573  16.307   3.162   4.358
10958W        W82574   4.430  39.633  14.318
10959W        W82575  25.477  27.671  10.721
10960W        W82576  18.791  32.949  13.973
10961W        W82577  35.942   0.789   1.390
10962W        W82578  33.357   4.458   4.585
10963W        W82579  28.574  14.857   4.723
10964W        W82580  24.711  15.629   3.652
10965W        W82581  15.653  33.453  13.838
10966W        W82582   7.793  38.643  10.466
10967W        W82583  43.118  22.543  10.718
10968W        W82584  32.077   0.224   5.096
10969W        W82585   4.670  20.450   1.770
10970W        W82586  24.744   1.866   1.436
10971W        W82587  19.147  32.102   2.034
10972W        W82588   7.276  15.735   4.624
10973W        W82589  39.541   9.652  14.862
10974W        W82590   4.190  20.472   3.572
10975W        W82591  37.773  12.812   2.299
10976W        W82592  16.991  17.032  11.190
10977W        W82593  40.682  37.954   4.710
10978W        W82594  42.368  41.600  10.688
10979W        W82595  28.144   1.385  11.979
10980W        W82596  39.603  17.187   4.683
10981W        W82597  33.510  11.189  13.356
10982W        W82598  23.066  10.637  11.296
10983W        W82599  12.093  18.096  12.506
10984W        W82600  33.442  26.061   4.596
10985W        W82601  14.771   5.506   3.496
10986W        W82602   5.196  40.062   1.861
10987W        W82603  36.321  30.956   0.514
10988W        W82604  15.711  22.121  11.581
10989W        W82605   0.876  39.341  12.433
10990W        W82606  34.429  28.930   0.908
10991W        W82607  34.667  34.125  14.369
10992W        W82608  38.026  10.156   2.348
10993W        W82609   9.926  26.036   2.710
10994W        W82610  28.580  40.403  13.992
10995W        W82611  33.813  44.424  12.048
10996W        W82612  27.896  32.542  12.205
10997W        W82613  40.596   3.490  11.899
10998W        W82614  31.179  28.545   4.482
10999W        W82615   4.736  27.063   1.985
11000W        W82616  29.933   2.608  13.973
11001W        W82617  24.999  12.706   0.021
11002W        W82618  23.140  41.051   0.381
11003W        W82619  41.411  25.048   0.241
11004W        W82620  29.638  27.655   4.237
11005W        W82621  15.886  38.140   4.997
11006W        W82622  41.084  23.811  10.665
11007W        W82623   7.238  26.798  14.754
11008W        W82624   2.403  36.583  13.071
11009W        W82625  15.688  15.390  10.748
11010W        W82626  19.207   5.680  11.467
11011W        W82627  28.160  32.067   3.078
11012W        W82628   2.737  19.280  10.680
11013W        W82629  23.264  35.607   4.493
11014W        W82630  22.148   1.762  13.427
11015W        W82631  42.420  25.094   4.051
11016W        W82632  41.231  16.733   2.408
11017W        W82633  31.064  18.279   1.327
11018W        W82634  20.812   4.014  11.143
11019W        W82635  19.319  15.192   4.578
11020W        W82636   3.111   0.801  14.427
11021W        W82637  35.013  40.864  14.882
11022W        W82638   0.815  38.058  12.809
11023W        W82639  15.850   4.213  14.287
11024W        W82640   2.648  39.468   0.314
11025W        W82641  32.633  12.369  13.793
11026W        W82642  18.004  37.767  14.929
11027W        W82643  38.852  28.175  14.529
11028W        W82644  10.265  30.716  10.689
11029W        W82645  44.710  41.777   3.130
11030W        W82646  26.392  16.187   3.348
11031W        W82647   0.094   8.189  12.819
11032W        W82648  31.982  41.900  10.734
11033W        W82649  13.643  28.588  13.323
11034W        W82650  36.368   7.621  13.931
11035W        W82651   7.089  11.522   0.676
11036W        W82652  29.212  35.861  11.504
11037W        W82653  18.317  18.120   1.807
11038W        W82654  30.648  41.893   2.789
11039W        W82655  21.050  21.629  14.770
11040W        W82656  21.480  22.565   0.072
11041W        W82657  13.755   2.749   1.917
11042W        W82658  32.352  10.403   1.795
11043W        W82659  26.066  29.247   1.824
11044W        W82660  16.688   8.998  12.226
11045W        W82661   1.671  26.456   1.218
11046W        W82662  34.562  27.057  13.328
11047W        W82663  15.543  16.318   0.935
11048W        W82664  37.010  36.193   1.516
11049W        W82665  38.606  37.987  14.027
11050W        W82666  44.761  30.033   4.450
11051W        W82667  24.093  43.722   1.710
11052W        W82668  12.662  42.373  14.005
11053W        W82669   2.752   8.333   3.952
11054W        W82670   0.016  44.547  12.831
11055W        W82671  10.414   5.864  10.659
11056W        W82672   5.613  27.949   0.985
11057W        W82673   3.280  35.512   4.746
11058W        W82674  42.602  36.584  13.714
11059W        W82675  42.270   5.382  13.624
11060W        W82676  18.313  19.450   3.016
11061W        W82677  10.943  21.077  13.054
11062W        W82678  27.089  13.171   2.466
11063W        W82679  23.007  44.560  14.745
11064W        W82680   6.747  21.640   3.956
11065W        W82681  13.325   7.455  11.124
11066W        W82682  36.909  38.229   1.727
11067W        W82683   4.500  36.647   0.565
11068W        W82684  28.191  11.851  11.110
11069W        W82685   6.619  32.635  13.120
11070W        W82686  12.980  33.594  12.461
11071W        W82687  37.164   9.727   5.134
11072W        W82688   3.293   7.815   1.783
11073W        W82689   2.573  36.528  10.850
11074W        W82690  34.614  43.881  14.310
11075W        W82691  29.589  10.772  13.723
11076W        W82692  34.120  31.530  12.706
11077W        W82693  25.690  27.888  13.024
11078W        W82694  40.438  13.325   0.458
11079W        W82695  14.171  42.472   2.663
11080W        W82696  35.102   9.295   0.381
11081W        W82697  17.944  43.450   4.620
11082W        W82698  35.619  14.851  13.385
11083W        W82699  36.953  15.716  11.586
11084W        W82700  35.587   8.061  12.982
11085W        W82701   4.007  40.880   4.067
11086W        W82702  41.072  40.349   2.816
11087W        W82703  29.437   3.666  11.494
11088W        W82704   0.815  35.114   1.138
11089W        W82705   6.951  16.383   1.717
11090W        W82706  10.337  26.962   0.157
11091W        W82707  38.544  41.890  10.765
11092W        W82708  16.729  28.890  13.785
11093W        W82709  17.577  25.054   0.722
11094W        W82710  21.975  16.282   3.613
11095W        W82711  11.708  31.766  11.040
11096W        W82712  38.795  12.097  11.420
11097W        W82713   4.177   2.283   2.620
11098W        W82714  34.143  30.208   2.350
11099W        W82715   7.426  18.243   4.113
11100W        W82716  17.890  42.867   4.614
11101W        W82717   0.237  29.050   1.911
11102W        W82718  22.129  12.389  11.164
11103W        W82719  13.809  27.883  12.976
11104W        W82720  36.974  31.472  13.448
11105W        W82721   4.457   6.710   0.851
11106W        W82722   7.179   5.461   3.162
11107W        W82723   2.681  38.424  13.283
11108W        W82724  40.873  33.860   2.738
11109W        W82725  34.164  35.041   0.279
11110W        W82726  37.604  29.214   3.474
11111W        W82727   3.848  13.797  11.713
11112W        W82728  27.959  10.448   0.313
11113W        W82729   6.041  30.115  14.455
11114W        W82730  23.132  22.154   3.091
11115W        W82731   0.503  37.071   0.365
11116W        W82732  20.078  32.938  11.594
11117W        W82733  36.927  25.680   3.077
11118W        W82734  28.896  29.884   9.659
11119W        W82735  43.398  21.528   0.937
11120W        W82736   8.196  29.154  14.823
11121W        W82737  13.019   0.766  13.443
11122W        W82738  39.074  35.990  13.675
11123W        W82739  37.555  41.858  14.348
11124W        W82740  14.270  34.509   3.228
11125W        W82741   1.409  17.212  10.686
11126W        W82742  21.606  14.349   3.259
11127W        W82743  29.450  22.647  10.732
11128W        W82744   5.437  18.021   2.753
11129W        W82745  12.807   1.384   3.719
11130W        W82746  14.212  35.888  12.939
11131W        W82747   6.121  42.691   9.996
11132W        W82748  13.792  11.646  11.917
11133W        W82749  18.569  27.666  14.433
11134W        W82750  33.718  27.034  11.142
11135W        W82751   0.190  30.530   2.845
11136W        W82752  39.057  15.225  12.439
11137W        W82753  39.860  39.074   4.313
11138W        W82754  22.196  36.541  11.975
11139W        W82755  11.065   8.900  14.783
11140W        W82756  25.705  38.392   4.588
11141W        W82757  14.322  27.998  11.528
11142W        W82758  20.651  44.294  12.613
11143W        W82759  21.523   0.829  11.450
11144W        W82760  16.242  40.832   3.931
11145W        W82761  19.567  14.193   0.953
11146W        W82762   6.004   5.458   2.849
11147W        W82763   7.133  26.225  12.008
11148W        W82764  24.118  42.290   0.264
11149W        W82765  37.150  33.589  12.067
11150W        W82766  21.745   0.162   4.136
11151W        W82767  14.637  32.983   4.030
11152W        W82768  22.464  33.422   1.883
11153W        W82769  37.865  38.422   2.896
11154W        W82770   4.706   8.325   2.351
11155W        W82771  13.339  34.629  14.448
11156W        W82772  40.107  34.319  10.562
11157W        W82773  19.090  27.111  12.143
11158W        W82774  28.214  31.859  14.737
11159W        W82775  39.314   1.975   3.110
11160W        W82776  11.550  43.499  14.986
11161W        W82777  13.592  25.203   3.185
11162W        W82778  12.323   7.562   3.127
11163W        W82779  44.782   3.203  12.104
11164W        W82780  12.725   3.385  11.177
11165W        W82781  23.931  25.466  14.450
11166W        W82782  13.245  18.166   1.021
11167W        W82783  17.708   0.921  14.903
11168W        W82784  37.583  14.064  10.149
11169W        W82785  25.796  21.339   2.082
11170W        W82786  24.231  40.001   0.864
11171W        W82787  38.671   6.624  13.791
11172W        W82788  23.283  23.219   1.256
11173W        W82789   1.723   4.229   1.729
11174W        W82790   5.926  36.334   1.317
11175W        W82791  15.676  31.123  11.426
11176W        W82792  41.098  22.264  14.958
11177W        W82793  43.328  34.903  10.611
11178W        W82794  16.669  30.303   0.007
11179W        W82795   9.424  35.587  11.455
11180W        W82796  26.029   8.287   1.770
11181W        W82797   7.307  15.360  12.893
11182W        W82798  22.328  31.169  10.608
11183W        W82799   1.320  26.655   3.362
11184W        W82800   2.744  35.994   4.470
11185W        W82801   6.235  28.620  14.982
11186W        W82802   2.486  13.736  13.103
11187W        W82803  12.148   8.402   4.980
11188W        W82804  24.788   6.127  12.478
11189W        W82805  42.407  44.916  13.788
11190W        W82806  17.749  12.706   2.701
11191W        W82807   5.325  16.145  12.836
11192W        W82808  17.624  31.455  14.886
11193W        W82809  44.894  11.268   0.922
11194W        W82810  29.176   0.990   0.974
11195W        W82811   9.906   6.429  12.836
11196W        W82812  37.485  35.768  10.427
11197W        W82813  38.208   9.390  13.457
11198W        W82814   3.978  23.051  14.908
11199W        W82815  12.273   3.665  13.975
11200W        W82816   6.275   0.525  11.946
11201W        W82817   6.784  34.785   4.556
11202W        W82818  12.129   3.244   3.590
11203W        W82819   3.672   5.200   3.200
11204W        W82820  44.874   5.483   3.697
11205W        W82821  36.059  31.594  11.525
11206W        W82822  22.282  10.218   2.684
11207W        W82823  37.990  39.362  12.097
11208W        W82824  31.581  44.035  12.104
11209W        W82825   8.364  41.321  12.939
11210W        W82826  17.951  38.830   2.399
11211W        W82827  43.911  29.942   1.855
11212W        W82828   1.843  30.676  14.722
11213W        W82829  27.634  44.296  11.072
11214W        W82830  11.842  12.649   0.829
11215W        W82831  15.850  14.182  11.119
11216W        W82832  32.103   0.996   3.288
11217W        W82833  44.871   8.609  14.470
11218W        W82834  29.120  22.188   1.222
11219W        W82835   7.901  19.747   3.624
11220W        W82836   1.756   0.924   5.207
11221W        W82837   0.546  22.060   0.415
11222W        W82838  36.771   8.381  14.749
11223W        W82839   6.450   0.409   4.130
11224W        W82840  43.755  33.100   1.779
11225W        W82841  33.096   3.190  12.664
11226W        W82842  26.796  22.237  12.068
11227W        W82843   3.744  39.486  13.995
11228W        W82844   6.810  40.929  11.230
11229W        W82845   4.329  41.967  14.771
11230W        W82846  36.022   7.607   4.080
11231W        W82847  29.324  40.506   0.419
11232W        W82848  39.235  25.020   3.693
11233W        W82849  37.567  32.871   3.638
11234W        W82850  42.378  16.268  13.934
11235W        W82851  25.145  13.820   2.992
11236W        W82852  40.394  17.068   0.347
11237W        W82853  27.458  31.202   0.199
11238W        W82854  27.998   0.501   0.215
11239W        W82855  18.233  25.255   4.568
11240W        W82856  35.605  32.129   3.407
11241W        W82857  31.590  41.531   1.992
11242W        W82858  41.446  25.616  13.092
11243W        W82859  25.473  13.570   2.665
11244W        W82860  11.296  26.210   4.579
11245W        W82861  28.424  31.456   1.119
11246W        W82862  23.699  14.096  11.577
11247W        W82863  24.792  17.206  11.537
11248W        W82864  39.346   1.894  11.826
11249W        W82865   3.202   5.451   4.372
11250W        W82866  42.771  34.631   2.618
11251W        W82867  15.078  25.640  12.066
11252W        W82868  43.014   1.698   3.615
11253W        W82869  12.678  12.251  12.890
11254W        W82870   1.193   5.665   0.381
11255W        W82871  36.405  29.924   2.456
11256W        W82872  11.688   0.753  12.949
11257W        W82873   9.855  26.651  13.918
11258W        W82874   9.414  14.181  14.466
11259W        W82875  38.952   5.201   0.273
11260W        W82876  15.262  42.032   2.468
11261W        W82877  33.029  42.531  13.132
11262W        W82878  10.390   1.304   0.748
11263W        W82879  37.420  21.284   0.477
11264W        W82880  25.897   4.816   3.312
11265W        W82881  34.008  24.637  13.255
11266W        W82882  29.459  13.308  12.521
11267W        W82883  16.527  23.697  11.974
11268W        W82884  38.985  36.978  13.195
11269W        W82885  36.094  10.185  11.161
11270W        W82886  23.068  39.468  13.799
11271W        W82887  30.469  19.576   2.680
11272W        W82888  14.276  21.086  10.840
11273W        W82889  19.324  42.259  14.927
11274W        W82890   9.373   3.889  13.633
11275W        W82891  22.660  23.946   1.530
11276W        W82892   4.254  36.801   3.155
11277W        W82893  28.065  44.938  10.854
11278W        W82894   6.067  15.851  14.319
11279W        W82895   8.373   9.311   0.106
11280W        W82896   1.281   0.809   3.782
11281W        W82897  23.169   3.368  10.811
11282W        W82898  22.652  41.441  12.471
11283W        W82899  44.955  13.693  12.802
11284W        W82900  10.832  35.853  11.047
11285W        W82901   6.276  36.381  12.202
11286W        W82902  31.910   4.491   0.485
11287W        W82903  22.221  18.163  10.795
11288W        W82904  18.770  13.768   3.211
11289W        W82905  10.050  18.762   4.129
11290W        W82906   3.528  32.363  11.445
11291W        W82907  32.093  15.448   2.774
11292W        W82908  26.045  34.599   4.482
11293W        W82909  40.205  28.597   2.854
11294W        W82910  29.947  43.298   0.251
11295W        W82911  10.694  31.226   1.474
11296W        W82912  27.891  15.004   3.393
11297W        W82913  34.448  44.404  11.459
11298W        W82914   5.849  25.155   3.222
11299W        W82915   1.336  43.879   1.078
11300W        W82916  32.625  24.971  11.777
11301W        W82917   1.524   2.164  12.454
11302W        W82918  16.552  27.483   2.737
11303W        W82919   9.734  37.295  13.454
11304W        W82920  13.583  34.374  10.741
11305W        W82921  38.531  30.428  13.373
11306W        W82922  25.200  19.401   0.161
11307W        W82923  41.590  25.622   1.055
11308W        W82924  28.044  44.723   2.335
11309W        W82925   4.591  29.992   0.873
11310W        W82926  25.232  39.013   4.582
11311W        W82927   3.428  10.320  12.498
11312W        W82928  38.507  26.902  12.379
11313W        W82929  33.639   8.832  11.195
11314W        W82930  42.353  13.687  12.880
11315W        W82931  18.104  36.495  13.203
11316W        W82932  42.359  39.285  10.523
11317W        W82933  30.926  35.825  14.375
11318W        W82934  13.223   0.339  12.160
11319W        W82935  34.705  44.505   4.285
11320W        W82936  24.468  41.225   3.171
11321W        W82937  31.505   1.900   3.579
11322W        W82938  21.019  43.571  12.013
11323W        W82939  23.239  11.760   1.347
11324W        W82940  28.698  12.720   3.420
11325W        W82941  27.238  27.125  10.670
11326W        W82942  18.215  18.917   2.894
11327W        W82943   8.965  12.706   3.863
11328W        W82944  37.873  34.785  14.060
11329W        W82945  36.073   4.337   3.115
11330W        W82946  18.276  17.553  12.507
11331W        W82947   5.851  35.342  13.641
11332W        W82948  22.157   0.830   0.356
11333W        W82949   6.370  43.257   2.357
11334W        W82950   4.239   2.325  10.967
11335W        W82951  30.132  39.481  11.409
11336W        W82952  39.647  27.721  14.396
11337W        W82953  35.298  13.207  14.915
11338W        W82954  23.561   7.825   2.332
11339W        W82955   2.197   6.247  11.643
11340W        W82956   4.332   3.321  10.801
11341W        W82957  32.432  32.522   2.718
11342W        W82958  35.856  17.642   2.207
11343W        W82959  24.097  29.491   4.694
11344W        W82960  38.130   4.204  12.460
11345W        W82961  14.289  37.632   5.122
11346W        W82962  39.373  15.158  10.739
11347W        W82963   6.601  11.753   2.755
11348W        W82964  44.880  34.775  11.221
11349W        W82965  25.204  24.592  10.933
11350W        W82966  24.328  31.739   2.310
11351W        W82967  33.463  14.822   0.322
11352W        W82968   0.438  41.059   0.085
11353W        W82969  27.951   1.446   4.558
11354W        W82970  28.666  36.769  13.344
11355W        W82971  18.140   0.797  12.972
11356W        W82972  11.013  28.288   2.431
11357W        W82973  36.928   5.407  12.194
11358W        W82974  17.662  10.276  12.111
11359W        W82975  25.076  23.178  13.570
11360W        W82976   1.484  29.596   1.528
11361W        W82977   9.828  43.481   0.150
11362W        W82978   9.481  42.749   3.217
11363W        W82979   1.060   2.284  14.006
11364W        W82980  29.236  28.247  12.017
11365W        W82981  21.837  25.629  12.407
11366W        W82982  16.779  23.217  12.027
11367W        W82983   1.773  38.419   3.638
11368W        W82984  39.380  28.655   4.262
11369W        W82985  13.219   2.215  11.838
11370W        W82986  20.557  14.147   1.798
11371W        W82987  33.515  11.237   4.325
11372W        W82988  43.970  31.952   0.752
11373W        W82989  38.714   1.190  12.915
11374W        W82990  41.715  20.171   2.490
11375W        W82991   1.209  44.536  11.597
11376W        W82992  20.133  20.971   1.350
11377W        W82993   3.901   8.489  13.395
11378W        W82994  42.221   9.211  14.346
11379W        W82995  17.034  27.207  12.880
11380W        W82996  43.506  14.835  11.547
11381W        W82997  10.826  22.169  13.964
11382W        W82998  29.415  15.922  13.404
11383W        W82999  12.202  17.063   0.516
11384W        W83000  23.719   8.903   1.378
11385W        W83001  37.425   7.549   0.453
11386W        W83002   8.360  29.868  13.499
11387W        W83003  28.936  14.347  12.906
11388W        W83004   0.442  30.080   2.766
11389W        W83005   2.389  12.176   4.175
11390W        W83006  19.335  35.046   1.722
11391W        W83007  35.932  15.874  14.006
11392W        W83008  38.232  23.385  13.373
11393W        W83009   7.615  23.075  14.583
11394W        W83010  33.605  42.976   3.034
11395W        W83011  17.165   1.851   0.297
11396W        W83012   4.632   0.466   2.948
11397W        W83013  11.306   1.479  14.966
11398W        W83014  16.792  10.961  11.952
11399W        W83015  11.120   4.436  12.423
11400W        W83016  35.333  12.174   1.816
11401W        W83017  22.538  18.778  10.682
11402W        W83018  41.611  21.721   4.237
11403W        W83019  18.587  39.437  10.652
11404W        W83020  11.131  34.375   3.245
11405W        W83021   6.346  31.650   2.284
11406W        W83022  14.756  32.061  11.610
11407W        W83023  32.039   5.936   4.586
11408W        W83024  41.031  20.986  14.403
11409W        W83025  41.018  31.426  10.765
11410W        W83026  40.203  23.540   2.292
11411W        W83027  20.228  22.847  11.835
11412W        W83028  11.897  42.956  12.498
11413W        W83029   5.765  37.521  10.931
11414W        W83030   8.093  39.452   1.579
11415W        W83031  35.643  31.701  13.265
11416W        W83032  41.883   2.384   4.676
11417W        W83033  40.982  38.038   0.523
11418W        W83034  21.491  33.292   4.546
11419W        W83035  43.428   4.014   2.198
11420W        W83036  16.342  27.040   0.440
11421W        W83037  12.212  12.725   4.536
11422W        W83038  18.152   0.991   2.252
11423W        W83039  41.205  16.141  12.064
11424W        W83040  27.198   9.469  14.521
11425W        W83041  41.336   6.744  12.531
11426W        W83042  38.121  26.946   0.913
11427W        W83043  42.513  41.369   2.691
11428W        W83044  24.929  17.743   2.030
11429W        W83045   1.437  44.079  12.895
11430W        W83046   5.089  17.173   4.298
11431W        W83047   8.407   0.329  12.980
11432W        W83048  31.261  20.603  12.522
11433W        W83049  23.940  24.599   3.705
11434W        W83050  44.202  34.130   3.800
11435W        W83051  12.348  21.051  14.807
11436W        W83052  29.755   7.879  14.466
11437W        W83053   5.698  24.453  14.001
11438W        W83054  44.613  40.726   4.662
11439W        W83055  11.183  17.960  13.034
11440W        W83056  43.732  26.174   3.458
11441W        W83057  41.882  10.008  13.917
11442W        W83058  36.541  10.820   3.707
11443W        W83059  34.127   3.243   1.806
11444W        W83060  38.187   2.937   4.035
11445W        W83061  17.051  15.097   3.301
11446W        W83062  14.179   6.327   1.678
11447W        W83063  36.620  17.231   0.390
11448W        W83064  26.371   6.494   4.364
11449W        W83065  38.448   5.325  13.342
11450W        W83066  10.184   8.689   3.139
11451W        W83067  17.506  28.607  13.468
11452W        W83068  15.991   1.739   1.271
11453W        W83069   4.405  19.938   5.008
11454W        W83070  38.371  26.322  10.614
11455W        W83071  27.439   2.758   4.632
11456W        W83072  41.877  36.994  11.470
11457W        W83073  35.444  23.947   4.551
11458W        W83074  21.089  18.121   3.670
11459W        W83075  37.040  16.817   0.827
11460W        W83076   5.343  34.152   2.808
11461W        W83077  33.395  26.490   0.943
11462W        W83078  41.010  17.127   4.555
11463W        W83079  16.315  16.558   4.611
11464W        W83080   8.169  29.061  11.917
11465W        W83081  43.993  38.594   0.074
11466W        W83082  37.885  11.694   0.937
11467W        W83083  23.728  43.555  10.675
11468W        W83084  14.939  27.963   4.999
11469W        W83085  20.538  32.372   1.002
11470W        W83086  12.235  44.715  14.999
11471W        W83087   4.941  41.763   4.023
11472W        W83088  15.679  25.720  10.694
11473W        W83089  17.319  43.954  14.728
11474W        W83090  18.813  24.203   2.728
11475W        W83091   0.156  16.800   3.645
11476W        W83092   0.227  29.464  10.664
11477W        W83093  38.197   8.819   3.043
11478W        W83094   0.287  44.460  14.913
11479W        W83095  11.912  34.176   2.596
11480W        W83096  39.800  27.194  11.893
11481W        W83097  23.527  19.796  11.650
11482W        W83098  19.902   3.754  10.241
11483W        W83099   9.690  29.872  13.046
11484W        W83100  22.964  36.789   0.871
11485W        W83101   7.396  14.810   4.658
11486W        W83102  32.618  25.126   5.003
11487W        W83103  40.804  36.693   3.316
11488W        W83104   8.582  43.640   1.030
11489W        W83105  41.616   9.324  13.620
11490W        W83106  30.698  12.270   0.574
11491W        W83107  27.742  32.960   4.199
11492W        W83108  27.088  26.051   3.305
11493W        W83109  41.135  11.739   1.823
11494W        W83110  40.349  20.094  10.377
11495W        W83111  44.559   2.354  10.732
11496W        W83112  40.027   1.757   1.691
11497W        W83113  24.593  30.627  14.381
11498W        W83114   9.292   2.804   4.404
11499W        W83115  26.586  15.290   2.387
11500W        W83116  26.238  16.319   1.719
11501W        W83117  15.582   6.597  10.510
11502W        W83118  20.288  26.037   3.433
11503W        W83119  12.646   9.318  12.472
11504W        W83120   4.156   0.331   1.019
11505W        W83121  24.437  42.789  11.620
11506W        W83122   6.262  39.293   2.195
11507W        W83123  43.892  29.759  14.689
11508W        W83124  37.449  28.042  10.737
11509W        W83125  38.186  42.909   1.206
11510W        W83126  17.034  31.953   1.900
11511W        W83127  31.905  24.905   1.811
11512W        W83128  37.470  18.151   1.957
11513W        W83129  38.575  27.664   4.520
11514W        W83130  23.776  42.024   3.236
11515W        W83131  34.471  15.686   1.226
11516W        W83132  28.839   5.735   1.603
11517W        W83133   1.921  13.814   0.303
11518W        W83134  44.313  44.343  14.811
11519W        W83135  22.084   7.849  11.683
11520W        W83136  36.802  42.378   2.063
11521W        W83137   4.265  11.888  14.761
11522W        W83138  10.649  16.589  12.179
11523W        W83139  32.668   6.203   1.427
11524W        W83140  10.373  15.265  13.320
11525W        W83141   4.374  14.796  14.870
11526W        W83142   6.904  18.915   1.517
11527W        W83143  26.565  25.034   3.355
11528W        W83144  23.405  28.756  14.739
11529W        W83145   9.627  35.128  12.504
11530W        W83146  39.411  44.307   2.131
11531W        W83147  22.603   7.133  10.437
11532W        W83148  15.859  29.110  13.479
11533W        W83149  25.112  36.711  11.188
11534W        W83150  11.337   5.963  11.096
11535W        W83151  42.219  32.194   4.478
11536W        W83152  43.956   3.836   0.303
11537W        W83153  30.731   9.696  11.526
11538W        W83154  30.013  21.645  14.751
11539W        W83155   9.929   4.479   0.412
11540W        W83156  12.742  37.643   0.421
11541W        W83157  43.423  32.847   4.587
11542W        W83158  27.735  21.719  10.631
11543W        W83159  17.239   7.312  12.537
11544W        W83160   2.422  34.059  13.461
11545W        W83161  12.869  32.537  14.832
11546W        W83162  31.002  10.778   4.719
11547W        W83163   8.348  39.428  12.682
11548W        W83164  31.767  31.067  13.862
11549W        W83165   0.042  38.349  11.132
11550W        W83166  22.042  39.853  13.424
11551W        W83167  42.782  38.935  12.901
11552W        W83168  19.287  42.332   3.326
11553W        W83169  13.130  23.225   0.521
11554W        W83170  34.051   4.040  12.421
11555W        W83171  33.984  15.112   0.384
11556W        W83172  10.877  27.425  10.792
11557W        W83173  37.573  35.120  11.152
11558W        W83174   4.604   1.252  12.014
11559W        W83175   7.129  10.360  11.569
11560W        W83176  40.127   2.388  13.268
11561W        W83177  41.043   3.504   3.225
11562W        W83178  42.369  37.918  14.302
11563W        W83179   5.483  21.727  10.719
11564W        W83180   2.320  37.970  13.021
11565W        W83181  18.319  44.671   4.828
11566W        W83182  12.911  39.410   3.147
11567W        W83183  39.412  37.376   1.464
11568W        W83184  39.080  36.985  14.491
11569W        W83185  12.792  35.450  14.680
11570W        W83186  29.070   4.461   1.250
11571W        W83187  24.051  28.113  13.947
11572W        W83188  39.019  31.443  12.654
11573W        W83189   5.503  40.780   0.255
11574W        W83190  29.245  26.096   3.509
11575W        W83191  12.093  27.997  11.269
11576W        W83192  42.143  13.168  10.898
11577W        W83193  32.505  43.289  13.027
11578W        W83194  44.856  15.794   4.867
11579W        W83195  13.738  29.002   2.184
11580W        W83196   1.233   1.288  10.330
11581W        W83197   7.012  28.057  13.304
11582W        W83198  22.011  13.688   4.067
11583W        W83199  29.898  22.186  13.737
11584W        W83200  27.227  16.103   4.478
11585W        W83201  32.659  35.966  11.859
11586W        W83202  33.649   7.839   2.408
11587W        W83203   8.665  16.778  14.972
11588W        W83204   6.213  22.558  14.517
11589W        W83205  37.918   2.835   3.586
11590W        W83206  24.912  44.784   1.935
11591W        W83207  31.054   4.036  13.549
11592W        W83208   0.429  37.529   3.514
11593W        W83209   8.872  12.697   1.920
11594W        W83210  28.085  37.589  10.956
11595W        W83211  40.116  26.950   1.859
11596W        W83212   0.164   4.382  14.195
11597W        W83213   0.460  18.245   0.863
11598W        W83214   7.299   7.854  13.762
11599W        W83215  13.775  44.793   0.234
11600W        W83216  17.082  11.867   4.476
11601W        W83217   6.227  33.239   4.688
11602W        W83218  18.705   4.865  11.525
11603W        W83219  24.956  29.531   4.481
11604W        W83220  28.579  25.421   3.351
11605W        W83221  11.335  12.598  11.129
11606W        W83222  36.808   4.346   1.060
11607W        W83223  18.915  31.458   3.660
11608W        W83224   6.880  34.622  11.005
11609W        W83225  10.233  31.641   2.645
11610W        W83226  36.298  34.885  12.734
11611W        W83227  44.761  34.025   2.087
11612W        W83228  19.473  20.150   3.285
11613W        W83229  44.773   2.033  14.373
11614W        W83230  37.073  32.911   1.930
11615W        W83231  18.206  28.055  11.143
11616W        W83232  10.013  19.780  12.324
11617W        W83233  23.288   9.192   4.704
11618W        W83234   9.838   6.207  11.339
11619W        W83235  20.187  38.905   2.440
11620W        W83236  44.905   0.780   4.011
11621W        W83237  32.950   1.164   4.115
11622W        W83238  24.523  39.658  14.860
11623W        W83239  22.710  22.418  10.636
11624W        W83240  30.244  28.050   0.252
11625W        W83241   5.765  24.750   1.916
11626W        W83242  43.978  11.029  14.591
11627W        W83243  21.587  26.064  10.637
11628W        W83244  18.379  17.918   1.309
11629W        W83245   8.366   0.470  14.820
11630W        W83246   7.361  11.642   1.454
11631W        W83247  14.548  39.945   1.697
11632W        W83248  30.167  17.211  12.898
11633W        W83249  12.380  29.196  12.445
11634W        W83250  39.762  29.409   2.910
11635W        W83251  38.569   2.181   0.759
11636W        W83252  12.150  35.944   3.886
11637W        W83253  34.436  27.511  13.565
11638W        W83254  32.820  23.083   0.310
11639W        W83255  36.081  31.506  10.632
11640W        W83256  39.091  13.156   3.418
11641W        W83257  11.161  24.575   0.931
11642W        W83258  26.662  27.588   1.809
11643W        W83259  40.006   7.276   0.412
11644W        W83260  42.435  40.643   4.159
11645W        W83261   7.928  39.994  10.486
11646W        W83262  38.528  42.751  14.986
11647W        W83263  42.465   3.817  12.115
11648W        W83264  26.124  23.644  14.225
11649W        W83265  37.035  21.989   0.939
11650W        W83266  19.157  38.513   4.932
11651W        W83267  28.550  20.641  12.550
11652W        W83268   1.011   8.414   3.352
11653W        W83269  35.183   4.213   0.106
11654W        W83270  15.067  17.089  10.235
11655W        W83271  35.425  18.137  12.804
11656W        W83272  13.299  42.355   2.346
11657W        W83273  18.723  30.116   0.525
11658W        W83274  32.914  30.459   4.700
11659W        W83275  34.624   4.704  11.784
11660W        W83276  42.865   5.911   1.750
11661W        W83277  34.414   4.370   0.189
11662W        W83278   4.211   4.676   0.528
11663W        W83279  16.437   9.959  11.293
11664W        W83280  14.737   0.968  11.965
11665W        W83281  17.387  12.755   0.291
11666W        W83282  26.884   2.487   5.116
11667W        W83283  24.917  28.180   3.232
11668W        W83284  13.440  29.554  12.429
11669W        W83285   7.703   1.743   3.313
11670W        W83286  22.136   1.255  10.414
11671W        W83287  22.531   6.303  12.479
11672W        W83288  25.659  12.707   0.784
11673W        W83289  30.087  36.789  13.314
11674W        W83290  32.238  32.252  13.003
11675W        W83291  33.508  14.301  14.525
11676W        W83292  18.169  11.328  10.763
11677W        W83293  43.917  28.681   3.040
11678W        W83294  35.815   6.884  14.533
11679W        W83295  18.571  10.769   4.409
11680W        W83296  22.145   1.542  12.975
11681W        W83297  12.764  41.288  10.763
11682W        W83298  14.606   0.337  14.578
11683W        W83299  19.253  10.982  13.051
11684W        W83300  13.311  24.250  14.730
11685W        W83301   3.358  37.013   1.718
11686W        W83302   1.598  25.319  10.023
11687W        W83303  12.150  42.492   0.394
11688W        W83304  21.134  42.796   0.793
11689W        W83305  22.232  36.092  11.108
11690W        W83306  20.591  39.361   2.317
11691W        W83307   5.329  14.210  12.986
11692W        W83308  38.297   9.729   3.354
11693W        W83309   4.520  25.065  13.482
11694W        W83310  22.575  13.138   2.338
11695W        W83311  15.818  43.406  14.229
11696W        W83312  27.689  13.465   3.285
11697W        W83313   9.385  31.093   5.039
11698W        W83314  30.383  22.629  12.913
11699W        W83315  41.818  33.276  12.444
11700W        W83316  10.074  34.157   0.370
11701W        W83317  19.484   9.654   0.540
11702W        W83318   2.375   6.062  11.176
11703W        W83319  30.255  44.033  12.902
11704W        W83320   6.134  17.542   4.938
11705W        W83321   2.334  28.123   1.618
11706W        W83322  39.858  34.783   0.236
11707W        W83323   2.791  21.751   2.508
11708W        W83324  24.005  44.704   1.981
11709W        W83325   0.786  12.551  14.435
11710W        W83326  29.586  36.639   2.239
11711W        W83327  40.955   7.083  11.499
11712W        W83328  29.489  33.008   0.882
11713W        W83329  38.568  23.749   3.882
11714W        W83330  25.680  15.003   0.839
11715W        W83331   7.381  34.988   4.438
11716W        W83332  18.957   4.749  11.946
11717W        W83333  39.497  15.590  13.425
11718W        W83334   7.197   2.681   2.775
11719W        W83335   5.698  26.579   0.999
11720W        W83336  20.952   9.054  14.808
11721W        W83337  19.113  21.549  10.912
11722W        W83338  25.191  29.179   1.303
11723W        W83339  15.191  37.870   4.262
11724W        W83340   5.661  16.191   0.450
11725W        W83341   7.968  24.363  14.348
11726W        W83342  19.682  15.094  10.678
11727W        W83343   9.799   3.956   3.838
11728W        W83344  12.690  32.324   1.403
11729W        W83345  34.893  14.096  13.439
11730W        W83346  27.994  43.997   0.105
11731W        W83347  10.236   7.281   2.583
11732W        W83348  26.269  17.985  12.103
11733W        W83349  20.538   8.819   1.885
11734W        W83350  36.143  14.647   1.200
11735W        W83351  25.671   7.707   1.912
11736W        W83352  22.264   8.736   0.481
11737W        W83353   8.383   0.941  10.772
11738W        W83354   2.837  28.056  10.773
11739W        W83355  15.696  33.496   5.429
11740W        W83356  24.714  28.467  12.009
11741W        W83357   8.672  27.078  12.481
11742W        W83358   8.247  14.898   4.577
11743W        W83359  28.063  37.559  12.471
11744W        W83360  23.977  35.808   3.131
11745W        W83361  41.206   3.557   4.183
11746W        W83362  44.247  26.457   4.475
11747W        W83363  27.858  13.204  13.110
11748W        W83364   8.611  24.126  12.797
11749W        W83365  39.257  29.230  10.707
11750W        W83366   9.824   4.850   0.789
11751W        W83367  22.512   4.693  10.786
11752W        W83368  24.204   4.948  14.782
11753W        W83369   7.041  30.822  12.026
11754W        W83370  17.534  36.920   4.398
11755W        W83371  35.327   4.305   1.250
11756W        W83372  26.751  17.529   2.679
11757W        W83373  26.477  14.796   2.266
11758W        W83374   2.190  33.015   2.759
11759W        W83375  21.694  34.459  12.789
11760W        W83376  18.314  24.554  14.338
11761W        W83377  40.766   9.501  14.435
11762W        W83378  14.602  26.360  12.378
11763W        W83379  16.274   8.296  14.847
11764W        W83380   3.924  28.190   3.747
11765W        W83381   0.483  24.745   4.815
11766W        W83382  39.230  14.861   2.198
11767W        W83383  16.979  18.814  11.439
11768W        W83384  36.394  13.687  12.573
11769W        W83385  29.206  23.229  12.668
11770W        W83386  40.987  37.119  13.965
11771W        W83387   3.891  14.871   4.676
11772W        W83388  11.148  23.964  12.152
11773W        W83389  30.396  43.912   0.742
11774W        W83390  18.176   9.851  14.793
11775W        W83391  36.402  15.704  14.652
11776W        W83392   3.485  21.963  10.998
11777W        W83393  25.239  21.099   4.578
11778W        W83394  17.841  41.928   1.719
11779W        W83395  18.091  16.668   0.140
11780W        W83396   6.456  44.528  13.449
11781W        W83397  42.115  17.999  10.831
11782W        W83398   7.261  29.408   3.239
11783W        W83399  43.119  21.604  11.504
11784W        W83400  41.997  41.917  14.000
11785W        W83401  36.820  11.386   0.288
11786W        W83402  17.099  31.510   2.189
11787W        W83403  42.759  25.087  11.971
11788W        W83404  33.424   7.321   3.501
11789W        W83405  26.503   7.891   3.779
11790W        W83406  44.023  37.976   5.458
11791W        W83407  25.750  24.892  13.497
11792W        W83408  35.080  37.469   3.336
11793W        W83409  26.009  12.133  14.075
11794W        W83410  35.093   3.276  12.585
11795W        W83411  16.387  18.099   1.705
11796W        W83412  44.912  31.529   2.700
11797W        W83413  19.921  20.219   2.314
11798W        W83414  44.508  25.166  10.749
11799W        W83415  15.325  34.851  14.898
11800W        W83416  34.277   8.431   0.390
11801W        W83417  12.812  15.419  11.895
11802W        W83418  10.870  14.293  13.481
11803W        W83419  21.763  38.626  14.788
11804W        W83420   4.446  43.335  11.739
11805W        W83421  35.513  23.467   1.842
11806W        W83422  39.500  28.676  11.924
11807W        W83423  10.289   2.826  12.695
11808W        W83424  22.765  32.034  12.980
11809W        W83425  31.044  35.526   2.284
11810W        W83426   8.817  19.024  12.582
11811W        W83427  11.247  33.788  14.231
11812W        W83428  14.005  32.437   1.373
11813W        W83429  32.395   7.183  10.713
11814W        W83430  34.240  23.113   2.757
11815W        W83431  39.913  15.401   4.073
11816W        W83432  34.556  16.681   2.158
11817W        W83433  25.521  42.989   2.323
11818W        W83434  36.455   8.749  12.341
11819W        W83435  22.679  24.683   4.738
11820W        W83436  33.446  13.225  11.369
11821W        W83437   9.247  19.355  12.579
11822W        W83438  11.712   1.808  10.677
11823W        W83439  28.899  37.139   5.078
11824W        W83440  35.707  29.418  14.519
11825W        W83441  30.695  17.676  14.998
11826W        W83442   6.504  39.044  10.722
11827W        W83443  26.141   5.713   0.355
11828W        W83444  43.856   1.835   3.846
11829W        W83445  42.128  10.150  11.662
11830W        W83446  39.891  32.363   2.449
11831W        W83447  17.256  19.302   0.989
11832W        W83448   0.932  18.526   2.089
11833W        W83449  12.204  40.884  13.773
11834W        W83450  30.091   7.343  12.544
11835W        W83451   3.633  20.640   1.837
11836W        W83452  25.601  43.688   4.607
11837W        W83453  25.637  19.230   0.410
11838W        W83454  12.300  39.594  13.386
11839W        W83455  42.801  11.642   0.201
11840W        W83456  30.987  15.806  12.815
11841W        W83457  26.905  35.059  10.580
11842W        W83458  37.052   5.541   1.240
11843W        W83459  35.279  32.098  11.628
11844W        W83460   8.367  14.134  13.590
11845W        W83461  37.781  44.922  10.560
11846W        W83462   7.404  15.743  11.154
11847W        W83463   5.555  12.098   0.425
11848W        W83464  32.463  15.882  12.503
11849W        W83465  23.018   2.985   3.319
11850W        W83466  28.200  41.779   4.463
11851W        W83467  22.829  28.956   2.408
11852W        W83468  12.879  40.852   2.228
11853W        W83469  34.970  13.570   0.382
11854W        W83470   1.373  21.068  10.275
11855W        W83471  24.435  27.364   3.731
11856W        W83472  23.988   5.888  11.707
11857W        W83473  14.297  23.697  13.939
11858W        W83474  40.357  30.344   1.534
11859W        W83475  31.985  20.190   2.141
11860W        W83476   1.722  21.251  14.874
11861W        W83477   2.859  38.426   4.140
11862W        W83478  20.692  28.260   3.738
11863W        W83479  15.801  35.497  12.976
11864W        W83480   0.765  26.935   5.046
11865W        W83481   6.896  36.847   1.884
11866W        W83482  43.484  32.377  10.861
11867W        W83483  11.127  44.467   1.198
11868W        W83484   1.882  30.494  10.405
11869W        W83485  34.408  41.972   0.809
11870W        W83486   0.525  41.112   3.884
11871W        W83487  21.961   8.910  14.800
11872W        W83488   4.698  13.746  12.505
11873W        W83489  42.218  44.011  14.610
11874W        W83490   2.828  21.252   3.257
11875W        W83491  22.719  11.608   1.302
11876W        W83492  12.107  37.120   3.155
11877W        W83493  14.512  16.616   5.203
11878W        W83494  15.664   6.022   4.141
11879W        W83495  33.572  22.537   1.324
11880W        W83496  18.487  37.993   3.899
11881W        W83497  42.442   3.751   3.161
11882W        W83498  19.756  24.172   1.797
11883W        W83499  22.615  19.019   3.772
11884W        W83500  36.165  21.108  11.970
11885W        W83501   3.185   6.729  14.352
11886W        W83502  13.807  24.740   3.131
11887W        W83503  28.459  10.393   2.775
11888W        W83504  15.465   0.283  12.301
11889W        W83505  14.154  21.291   2.409
11890W        W83506  16.166  40.969   1.361
11891W        W83507  30.046  11.696   1.903
11892W        W83508   1.805   4.804   2.929
11893W        W83509  37.418  39.100  13.876
11894W        W83510  29.065  40.328   1.852
11895W        W83511  24.118   0.536   4.230
11896W        W83512  20.247  20.996   5.001
11897W        W83513  26.514  21.555   2.374
11898W        W83514  42.733   0.290  11.973
11899W        W83515  12.290  13.097   4.158
11900W        W83516   8.878  36.598   0.637
11901W        W83517   1.811  22.776  11.500
11902W        W83518  40.822  39.350  13.041
11903W        W83519  14.109  31.461   2.610
11904W        W83520  28.218  42.422   0.241
11905W        W83521  26.465   7.027   1.306
11906W        W83522  30.996  20.265   3.214
11907W        W83523  37.388  35.442   1.929
11908W        W83524   0.778  10.291   4.697
11909W        W83525   6.941  32.603  13.563
11910W        W83526  14.460  23.047   2.788
11911W        W83527  32.338   4.745   0.650
11912W        W83528  25.644  23.605  14.840
11913W        W83529   3.539  38.581  12.628
11914W        W83530  41.726  21.519  14.337
11915W        W83531  43.764  27.691   1.363
11916W        W83532   0.426  17.288  13.602
11917W        W83533   5.708  10.874  13.360
11918W        W83534  14.321  19.640  10.667
11919W        W83535  43.614  33.401  11.646
11920W        W83536  30.944  35.467  13.959
11921W        W83537  29.170   0.995  14.820
11922W        W83538  30.183   3.519   0.288
11923W        W83539  16.086   6.351   1.339
11924W        W83540  27.643  14.620  10.872
11925W        W83541  31.788  43.454  13.776
11926W        W83542  32.452  19.005  14.039
11927W        W83543  28.588  31.149   2.136
11928W        W83544   1.810  28.848   4.103
11929W        W83545  20.228  19.604  12.092
11930W        W83546  37.381   9.155   3.808
11931W        W83547  20.661  37.060  14.916
11932W        W83548  30.792  25.192  14.964
11933W        W83549  26.035   3.810   0.454
11934W        W83550  31.342  11.341   3.656
11935W        W83551  20.604   6.735   0.569
11936W        W83552   8.772  34.544  11.562
11937W        W83553  30.366  27.987   3.172
11938W        W83554  22.434  22.224   5.000
11939W        W83555  41.421   7.296   4.499
11940W        W83556  10.104   4.227  10.299
11941W        W83557  36.803  41.903   2.377
11942W        W83558  27.584  44.001   3.169
11943W        W83559  15.250  28.662   4.808
11944W        W83560  23.037  39.102  14.910
11945W        W83561  41.323  39.864   1.267
11946W        W83562  24.795  20.591   2.196
11947W        W83563   4.281  23.545   4.185
11948W        W83564  22.811  37.021  12.077
11949W        W83565  40.005  20.936   2.283
11950W        W83566   8.319  14.533  10.718
11951W        W83567  41.980  17.997   3.759
11952W        W83568   2.556   6.815   1.244
11953W        W83569  25.253  23.649   1.714
11954W        W83570  35.126  38.026   2.303
11955W        W83571  34.325  39.810  12.595
11956W        W83572  12.208  28.913  11.915
11957W        W83573  39.652  44.455   2.622
11958W        W83574  36.435  15.184  11.022
11959W        W83575  17.473  39.369  13.028
11960W        W83576  17.790  28.970   4.560
11961W        W83577   0.476  44.328  13.895
11962W        W83578  17.616  10.330  11.610
11963W        W83579  30.096   4.207  13.845
11964W        W83580   8.789  21.156  11.327
11965W        W83581  42.229  35.897   4.768
11966W        W83582  33.351   3.860  13.554
11967W        W83583   9.717  28.544   1.636
11968W        W83584  30.141  20.242   1.736
11969W        W83585  29.029   5.327  12.869
11970W        W83586  22.015  42.914   3.608
11971W        W83587   8.449  44.814  12.818
11972W        W83588  32.992   4.647   3.722
11973W        W83589   1.178  20.219   3.343
11974W        W83590  34.542  15.847  12.158
11975W        W83591   2.692  34.178   2.441
11976W        W83592  28.490  36.074  11.956
11977W        W83593  20.791   2.904  12.477
11978W        W83594  19.290  41.896   2.698
11979W        W83595  31.560   6.543   3.712
11980W        W83596  29.554  39.828  10.744
11981W        W83597  13.904  17.522   4.416
11982W        W83598  25.078  34.042  11.009
11983W        W83599  10.607  21.771   4.144
11984W        W83600  38.354  22.942   0.340
11985W        W83601   9.007  34.020  13.197
11986W        W83602  10.053  41.488   3.164
11987W        W83603  17.036  19.284  11.097
11988W        W83604  29.200   5.050  11.529
11989W        W83605   9.835  36.459  13.333
11990W        W83606   3.827  30.501  12.365
11991W        W83607  19.193  36.435   3.131
11992W        W83608  40.625  16.733   3.212
11993W        W83609   6.347  37.910  11.391
11994W        W83610   0.720  11.678   4.992
11995W        W83611   5.690  33.509  10.761
11996W        W83612   0.475   4.369  11.563
11997W        W83613  16.305  43.254  14.467
11998W        W83614  35.509  35.096   0.534
11999W        W83615  24.178  23.009  14.517
12000W        W83616  37.523  19.504   0.689
12001W        W83617  33.108  26.300  13.399
12002W        W83618   8.371  28.629  11.678
12003W        W83619   8.164  14.232   0.400
12004W        W83620  11.609  25.770   1.812
12005W        W83621  10.817  32.047   4.158
12006W        W83622  24.623  43.869   1.026
12007W        W83623  18.182  29.537   0.796
12008W        W83624  20.221   5.370  13.004
12009W        W83625  23.001  30.962   1.172
12010W        W83626  23.484  34.817  13.159
12011W        W83627  21.031  14.683   1.767
12012W        W83628  24.849   7.831   0.953
12013W        W83629  31.772  12.748  10.286
12014W        W83630  43.329  15.693   0.757
12015W        W83631   7.426  10.345  11.124
12016W        W83632   3.704  34.492   3.124
12017W        W83633  13.908  23.768  13.592
12018W        W83634  12.381  28.062   0.883
12019W        W83635   0.753  18.311  11.497
12020W        W83636   5.105   7.049   4.105
12021W        W83637  11.647  25.617  13.478
12022W        W83638  22.639   8.953  13.709
12023W        W83639  28.949  44.972   2.232
12024W        W83640  32.033   2.986   1.255
12025W        W83641  32.556  41.525   4.984
12026W        W83642   2.600  20.858   2.459
12027W        W83643   2.969   6.331   0.260
12028W        W83644  40.063   2.279   4.432
12029W        W83645   7.959  21.229  13.323
12030W        W83646  14.089  17.044   0.886
12031W        W83647  44.571  23.783  10.697
12032W        W83648  43.462  25.507   0.322
12033W        W83649  34.844  41.824  13.739
12034W        W83650   4.678  36.130   0.263
12035W        W83651  43.128  14.605   3.986
12036W        W83652  10.209  15.199   0.544
12037W        W83653   1.215  20.806   0.262
12038W        W83654  11.797  35.268  11.085
12039W        W83655  23.251  26.414   2.745
12040W        W83656   6.300  26.496   3.642
12041W        W83657  26.373  38.934   2.225
12042W        W83658   9.263  33.197   3.666
12043W        W83659  27.458  15.147  11.871
12044W        W83660  16.560   8.615  12.571
12045W        W83661  33.905  24.163   2.642
12046W        W83662   0.551  24.367  11.523
12047W        W83663  34.078   7.035  14.929
12048W        W83664  33.437  32.071   1.410
12049W        W83665  13.049  37.914  11.019
12050W        W83666  42.733   6.292   2.951
12051W        W83667  12.077  43.407   2.783
12052W        W83668  16.742  30.587  10.750
12053W        W83669  40.337   5.754   4.414
12054W        W83670  35.592   1.810   0.937
12055W        W83671  27.646  36.401  12.888
12056W        W83672   8.418  36.447  14.775
12057W        W83673  18.445  23.463  11.192
12058W        W83674  11.460  23.995   9.957
12059W        W83675   1.836  23.337  11.970
12060W        W83676  12.102  28.214  12.473
12061W        W83677   5.434  38.737   0.255
12062W        W83678  35.942  15.854   0.413
12063W        W83679   5.690  17.056   1.167
12064W        W83680  33.419  31.558   1.240
12065W        W83681  15.210  42.152  12.456
12066W        W83682  35.897  32.935  13.766
12067W        W83683  20.621  28.844  14.433
12068W        W83684  32.025   1.879  11.036
12069W        W83685  16.685   2.895   3.424
12070W        W83686  11.893   7.708  11.059
12071W        W83687  35.516  21.218  12.930
12072W        W83688  38.396   8.572   0.964
12073W        W83689  19.540  41.825  12.059
12074W        W83690  22.535  15.182   4.095
12075W        W83691   0.464  31.373   3.347
12076W        W83692  39.101  38.778   9.990
12077W        W83693   9.396  36.450   3.376
12078W        W83694  44.945   6.173  14.005
12079W        W83695   1.576  29.008   0.306
12080W        W83696  42.476  31.582  13.543
12081W        W83697   0.848  28.925   1.382
12082W        W83698  34.041  27.235  13.355
12083W        W83699   1.518  37.950  14.312
12084W        W83700  31.867  35.658  12.446
12085W        W83701   8.193  29.609   4.076
12086W        W83702  30.534   3.807  14.983
12087W        W83703  29.120  32.964  12.322
12088W        W83704  41.876   7.179  11.124
12089W        W83705   9.206   5.447   4.737
12090W        W83706  27.415  38.663  14.315
12091W        W83707  13.243  23.754   4.241
12092W        W83708  42.640   6.258  13.326
12093W        W83709   9.328  44.142   2.206
12094W        W83710  13.260   9.898  11.115
12095W        W83711  32.665  37.369   0.819
12096W        W83712   7.924  17.978   4.652
12097W        W83713  33.045   9.888   3.426
12098W        W83714  41.424  35.339   1.601
12099W        W83715  28.272  42.054  12.790
12100W        W83716  21.785  34.868  13.423
12101W        W83717   9.509   3.408  13.829
12102W        W83718  12.767  20.216   5.277
12103W        W83719  20.847   0.622   2.208
12104W        W83720  27.574  16.566  12.458
12105W        W83721  36.035  28.845  13.369
12106W        W83722  25.108  22.244  12.509
12107W        W83723  16.583   6.329   1.440
12108W        W83724  23.523  17.155   3.116
12109W        W83725  28.614  32.894  10.884
12110W        W83726  34.542  33.428  13.851
12111W        W83727  14.532  20.314  14.057
12112W        W83728   0.007  42.042   3.684
12113W        W83729  42.569  13.138  10.617
12114W        W83730  22.004  22.135  12.521
12115W        W83731   5.208  39.731  11.283
12116W        W83732  28.559   7.679   0.232
12117W        W83733  22.549  15.430  13.899
12118W        W83734  15.284  44.872   4.339
12119W        W83735  33.369  31.610  12.572
12120W        W83736  17.980  13.121   3.830
12121W        W83737  14.196  11.557  13.581
12122W        W83738  22.383   5.010  14.359
12123W        W83739  20.695  38.282   2.915
12124W        W83740  21.680   7.555  10.741
12125W        W83741  29.359  32.460  13.892
12126W        W83742  43.349   9.301  12.577
12127W        W83743  13.264  21.594   2.238
12128W        W83744   3.155  16.231  12.257
12129W        W83745  32.250  26.996   3.611
12130W        W83746  22.718  25.420  13.822
12131W        W83747   0.190  31.602   3.717
12132W        W83748  17.371  36.431   4.246
12133W        W83749   7.791  13.806   0.873
12134W        W83750  11.918  26.000  11.581
12135W        W83751  30.917   1.597  11.640
12136W        W83752  16.571  37.359  13.315
12137W        W83753  35.767  25.252  14.476
12138W        W83754  17.008  34.812   3.456
12139W        W83755  40.983   0.862  13.093
12140W        W83756  30.581  19.310   0.929
12141W        W83757  37.372  40.944   3.832
12142W        W83758  34.204  42.859   2.344
12143W        W83759   7.563   4.877  13.819
12144W        W83760   9.176  25.167   0.997
12145W        W83761  16.632  32.583  13.486
12146W        W83762  30.044  34.679   0.510
12147W        W83763  42.195   1.993   1.409
12148W        W83764  15.291   9.904  11.728
12149W        W83765  30.920  35.101  10.779
12150W        W83766  37.940  17.244  12.025
12151W        W83767   5.988   1.940   3.956
12152W        W83768  12.650  43.960   1.824
12153W        W83769  39.606  30.500  12.119
12154W        W83770  31.712  22.058  12.771
12155W        W83771   0.812   7.368  11.062
12156W        W83772   5.215  19.132  13.939
12157W        W83773   2.704   6.158  11.583
12158W        W83774  24.932   2.802  14.485
12159W        W83775  20.980  28.190   5.018
12160W        W83776  38.272   5.118   0.781
12161W        W83777   4.196   1.404   2.779
12162W        W83778  34.422  24.105   4.101
12163W        W83779  31.883  31.974  13.761
12164W        W83780  21.801  42.591   2.456
12165W        W83781   9.735  41.636  14.855
12166W        W83782  43.071  41.333   4.085
12167W        W83783   7.878   7.453   3.273
12168W        W83784   7.967  21.594  10.405
12169W        W83785  40.908  37.092   1.656
12170W        W83786  34.698  18.614   0.961
12171W        W83787  32.530   7.208   0.039
12172W        W83788  44.999  18.240  13.940
12173W        W83789  31.131   5.188   1.090
12174W        W83790  12.235  12.593  14.026
12175W        W83791  44.929  26.673  13.013
12176W        W83792  24.705  26.229  13.100
12177W        W83793   3.819  24.548  12.853
12178W        W83794  22.228  35.977  14.695
12179W        W83795  42.872   3.042  13.030
12180W        W83796  41.252  25.869  10.826
12181W        W83797  38.190  15.824   5.039
12182W        W83798  30.039   5.719   3.099
12183W        W83799  41.066  12.690   2.690
12184W        W83800  32.906  15.223  10.774
12185W        W83801  17.886   0.385   0.411
12186W        W83802  31.384  29.421  12.739
12187W        W83803   2.459  35.032   4.334
12188W        W83804  20.570  42.983   2.394
12189W        W83805  43.882   1.302   0.220
12190W        W83806  23.261  22.675  11.546
12191W        W83807  22.575  34.468  13.875
12192W        W83808   9.732  43.909   0.414
12193W        W83809  30.752  28.093   0.282
12194W        W83810  34.633  40.867  13.266
12195W        W83811  40.532  32.986  10.930
12196W        W83812  22.147  40.396   4.136
12197W        W83813  32.668  13.251  13.030
12198W        W83814   2.752  35.693   0.537
12199W        W83815  44.283   4.770  12.955
12200W        W83816   1.450  24.165   1.969
12201W        W83817  29.554  17.705  10.709
12202W        W83818  36.410  40.526  11.570
12203W        W83819   3.686  19.049   0.412
12204W        W83820  12.684   3.453   1.431
12205W        W83821  40.393  24.816   1.259
12206W        W83822  13.042  29.008   4.385
12207W        W83823   2.764  42.913  13.794
12208W        W83824  11.940  21.578   3.675
12209W        W83825  40.277  23.024   3.110
12210W        W83826  20.912  12.188   2.788
12211W        W83827  43.739  28.472  12.382
12212W        W83828  31.968  14.643  14.258
12213W        W83829  17.827   3.316   4.547
12214W        W83830  22.468  34.124  11.601
12215W        W83831  12.909  38.281   2.349
12216W        W83832   5.254  12.096   4.087
12217W        W83833  34.932  13.844  13.914
12218W        W83834  22.720  36.354   1.399
12219W        W83835  40.774  14.789  14.965
12220W        W83836  41.581  14.141  12.491
12221W        W83837  29.822   7.129   3.632
12222W        W83838  32.537  13.212   3.162
12223W        W83839  33.999  33.400  11.995
12224W        W83840  32.083   8.488  14.836
12225W        W83841   6.468  19.645   1.059
12226W        W83842  20.586  36.359  13.725
12227W        W83843  26.128  32.884  13.826
12228W        W83844  31.466   7.173  10.702
12229W        W83845   5.688  30.887   3.041
12230W        W83846  37.796  11.507  11.430
12231W        W83847   3.323   2.849   2.192
12232W        W83848  27.292  16.019  13.075
12233W        W83849  18.248  30.902   2.334
12234W        W83850  26.386  25.487   1.249
12235W        W83851  16.289   2.248   4.371
12236W        W83852  11.921   1.003   0.369
12237W        W83853  34.629  13.393   1.876
12238W        W83854  40.537  32.014  13.793
12239W        W83855   1.683  33.020   1.862
12240W        W83856  26.271  23.119  10.716
12241W        W83857   6.198  33.189  13.937
12242W        W83858  38.401  13.605  13.122
12243W        W83859  40.513  12.686  10.224
12244W        W83860  21.492  39.341   4.587
12245W        W83861   4.347  34.058  14.020
12246W        W83862  35.114  21.127   1.583
12247W        W83863   3.281  43.584  14.800
12248W        W83864  44.957  16.357   1.002
12249W        W83865  15.738  23.574  11.270
12250W        W83866  12.896  24.043  11.099
12251W        W83867   7.781  16.734   2.193
12252W        W83868   6.786  10.744   4.667
12253W        W83869  10.360  34.454  11.870
12254W        W83870  41.770   8.159   3.169
12255W        W83871  15.092  18.184  11.057
12256W        W83872  36.139  12.845  14.281
12257W        W83873  20.000  40.029   0.335
12258W        W83874  30.796  38.861  10.119
12259W        W83875  28.952  10.337   1.162
12260W        W83876   0.431  35.885   2.976
12261W        W83877  39.614  17.546  11.557
12262W        W83878  23.988   4.244   4.117
12263W        W83879  38.044   3.591  12.932
12264W        W83880  42.225  37.398   4.186
12265W        W83881  33.118  36.454   1.932
12266W        W83882   8.201   5.578   2.274
12267W        W83883   0.836  44.208   2.272
12268W        W83884  10.672  39.454   0.802
12269W        W83885   6.049   4.107  12.626
12270W        W83886  10.330  44.461   1.623
12271W        W83887  19.353  39.858   3.488
12272W        W83888  35.732  17.118   4.828
12273W        W83889  37.776   1.317  12.564
12274W        W83890  11.945   8.602  11.672
12275W        W83891  11.218   0.869  11.451
12276W        W83892   2.548  16.678  11.180
12277W        W83893  34.250   0.586   4.117
12278W        W83894  38.835  33.070   3.379
12279W        W83895  20.683   5.892  14.431
12280W        W83896  15.669   6.707   2.357
12281W        W83897  20.051   0.492  11.486
12282W        W83898  15.845  12.872  11.581
12283W        W83899  22.528  13.222   4.592
12284W        W83900  23.136  17.022  14.042
12285W        W83901  42.978  39.981  10.393
12286W        W83902   4.385  18.708   0.509
12287W        W83903   6.705  26.538  13.935
12288W        W83904  42.861  16.338   3.450
12289W        W83905  27.875  19.861  11.551
12290W        W83906  17.461   2.859  10.161
12291W        W83907  17.173   3.209  11.062
12292W        W83908  43.715   3.139  13.295
12293W        W83909  21.769   4.416  13.777
12294W        W83910   2.548  33.457   0.797
12295W        W83911   5.235  35.985   1.538
12296W        W83912  10.684  15.105  10.960
12297W        W83913  17.419  34.924   1.699
12298W        W83914  12.254   3.969   0.983
12299W        W83915  21.561   0.258   0.631
12300W        W83916  35.435  26.672   4.609
12301W        W83917  41.457  35.039   4.147
12302W        W83918  31.397  42.926   0.978
12303W        W83919  24.166  26.577   0.975
12304W        W83920   0.154  23.041   0.329
12305W        W83921  35.080  35.407   3.584
12306W        W83922  31.854  42.558   3.919
12307W        W83923  18.747  14.756   3.260
12308W        W83924  27.170  41.822  10.739
12309W        W83925  21.178  21.276  11.657
12310W        W83926  11.904   8.721   0.864
12311W        W83927  14.139   4.551   3.387
12312W        W83928  32.606   2.743  13.006
12313W        W83929  10.190   8.177   3.150
12314W        W83930  37.813  23.167   3.481
12315W        W83931  32.215   7.561  14.819
12316W        W83932   8.919  16.708   1.269
12317W        W83933   4.248   4.868  10.742
12318W        W83934  11.180  15.681   4.559
12319W        W83935  25.233  25.099  11.070
12320W        W83936  32.110   9.903   1.806
12321W        W83937  39.186   5.135   1.701
12322W        W83938  21.760  43.830  10.515
12323W        W83939  22.982   0.985   1.635
12324W        W83940  20.675  34.164  10.712
12325W        W83941  44.539  12.281   0.075
12326W        W83942  30.625  37.475   3.655
12327W        W83943  44.440  32.042  13.396
12328W        W83944  27.420   1.073   3.712
12329W        W83945  23.990   4.722  13.825
12330W        W83946   1.178  38.807  11.545
12331W        W83947  15.300  10.653   2.826
12332W        W83948  39.651  32.700  12.061
12333W        W83949   6.346  40.996  13.444
12334W        W83950  11.685  16.922   5.003
12335W        W83951  14.536   1.954  11.167
12336W        W83952  32.836  33.974  13.888
12337W        W83953  44.013  23.262  12.828
12338W        W83954   4.940  23.814   4.984
12339W        W83955   0.306  11.892  10.640
12340W        W83956  22.067  20.119  12.568
12341W        W83957  19.357   7.326   0.735
12342W        W83958  16.473  26.019  14.837
12343W        W83959  36.905  27.383   1.724
12344W        W83960  44.773   1.505  12.105
12345W        W83961  36.447   9.468   4.139
12346W        W83962  31.842  19.649   0.231
12347W        W83963  36.279  14.171  11.410
12348W        W83964  12.677  11.311  14.920
12349W        W83965  24.510   9.488  13.415
12350W        W83966  21.690  39.380   3.552
12351W        W83967  44.944  24.131   4.574
12352W        W83968  23.637  22.316  14.420
12353W        W83969   9.911  25.360  14.877
12354W        W83970  27.424  21.175  14.556
12355W        W83971  41.809   5.881   1.714
12356W        W83972  44.204  10.785  11.127
12357W        W83973  32.604  39.033  13.269
12358W        W83974  22.243  25.220   0.718
12359W        W83975   9.222  42.833  11.608
12360W        W83976  32.361   2.890   3.762
12361W        W83977  17.636  40.708   2.323
12362W        W83978  38.855  20.824   4.719
12363W        W83979   1.204  39.328  12.885
12364W        W83980  21.300   3.333  10.931
12365W        W83981  30.577  21.806   3.740
12366W        W83982   4.762  25.924   1.319
12367W        W83983  30.769  18.391  11.983
12368W        W83984  30.572  39.851  14.938
12369W        W83985  13.232  26.120  11.544
12370W        W83986  40.130  36.499  12.907
12371W        W83987  38.298  32.213   0.300
12372W        W83988  24.798  31.501  10.401
12373W        W83989  29.062  40.373   3.359
12374W        W83990  22.715   4.773   1.262
12375W        W83991  21.606  22.237   3.799
12376W        W83992  13.249  11.767  14.996
12377W        W83993   6.867   2.324   1.721
12378W        W83994  29.958  13.001   3.620
12379W        W83995  38.944  22.368  13.496
12380W        W83996  35.407  16.219   2.071
12381W        W83997  42.877  13.988   1.883
12382W        W83998  36.525  38.393   1.362
12383W        W83999  14.725  39.347   2.100
12384W        W84000  26.505   0.946   2.760
12385W        W84001  44.094  15.189  13.313
12386W        W84002  24.199   8.867  12.673
12387W        W84003   3.239   5.815  10.979
12388W        W84004  32.379  34.691  14.957
12389W        W84005   2.802  44.812   2.131
12390W        W84006   1.155   4.222  14.552
12391W        W84007  12.376  21.760  13.063
12392W        W84008   4.684  37.668   4.617
12393W        W84009  32.466  10.078   4.937
12394W        W84010  44.216  26.576   4.978
12395W        W84011   6.329  12.043   3.118
12396W        W84012  18.458  11.394  11.690
12397W        W84013  43.677  38.383  11.244
12398W        W84014  28.563  34.576   2.773
12399W        W84015  22.047   2.911  13.807
12400W        W84016  28.061   6.654  13.570
12401W        W84017   6.198  10.088  14.259
12402W        W84018  37.830  11.660  13.464
12403W        W84019  33.997  37.533  12.188
12404W        W84020  23.813  41.225  10.140
12405W        W84021  40.042   4.295   5.033
12406W        W84022  12.636  44.476  14.127
12407W        W84023  38.783  33.323   4.928
12408W        W84024  25.101  30.522   0.944
12409W        W84025  38.912  25.692   2.565
12410W        W84026  30.076  37.976  14.942
12411W        W84027  41.151  28.898   3.959
12412W        W84028   3.244  36.923  10.854
12413W        W84029  27.715  20.947  11.095
12414W        W84030  23.026  37.907  14.246
12415W        W84031   2.368  25.538   1.389
12416W        W84032  28.491  37.402  13.697
12417W        W84033  21.659  30.862   1.194
12418W        W84034  17.712  11.391   3.602
12419W        W84035   8.390   2.478  13.736
12420W        W84036   9.710  32.715  14.271
12421W        W84037  43.973   8.419  14.431
12422W        W84038  34.357  13.140  11.511
12423W        W84039  11.835  12.628  14.389
12424W        W84040   3.743  33.079   9.968
12425W        W84041  35.540  23.612  11.769
12426W        W84042  20.272  39.460  14.602
12427W        W84043  42.499  41.934   2.907
12428W        W84044  25.348  34.647  14.025
12429W        W84045  10.508  44.038  10.072
12430W        W84046  43.033  41.405  14.754
12431W        W84047   6.667  32.217  12.827
12432W        W84048   6.696   1.880  12.462
12433W        W84049  42.357   9.189   2.886
12434W        W84050  34.485  31.135   3.810
12435W        W84051  44.507   7.122  12.148
12436W        W84052  27.734   2.074   1.756
12437W        W84053  19.815  30.489  13.524
12438W        W84054   4.475   1.775   0.184
12439W        W84055  18.681  10.137  14.031
12440W        W84056   1.438  10.796   1.525
12441W        W84057   3.370  39.171   4.943
12442W        W84058   1.704   5.204   2.060
12443W        W84059  17.806  44.332   2.310
12444W        W84060  43.152  37.688  12.260
12445W        W84061  38.430  34.545  12.191
12446W        W84062  28.916   9.669  12.069
12447W        W84063  41.902  12.664   4.905
12448W        W84064  30.588  20.566   1.673
12449W        W84065  25.029  13.803  13.361
12450W        W84066  16.649  42.274  11.578
12451W        W84067  12.634  21.179  10.635
12452W        W84068  20.232  27.747   1.968
12453W        W84069  23.531  43.346  12.017
12454W        W84070   4.599   4.351   5.385
12455W        W84071   5.364   0.887   4.162
12456W        W84072  38.520   9.146  14.999
12457W        W84073  13.542  35.294  14.048
12458W        W84074  26.937  13.154  10.590
12459W        W84075  36.539  18.186   4.570
12460W        W84076  23.948  33.324  14.288
12461W        W84077   1.395  23.118   0.943
12462W        W84078  20.377  38.319   0.771
12463W        W84079   8.462  43.957   4.222
12464W        W84080   1.675  24.714   2.378
12465W        W84081  43.536  27.569   4.701
12466W        W84082  37.246  32.997  13.855
12467W        W84083  35.906  24.274  10.723
12468W        W84084  29.410  18.747  12.506
12469W        W84085   2.936  13.056   4.412
12470W        W84086  36.985  28.596  12.450
12471W        W84087  44.981  34.921   1.817
12472W        W84088  18.654  13.871  12.511
12473W        W84089  20.570  16.180   3.893
12474W        W84090  13.383   1.426  10.697
12475W        W84091  39.905  16.250  12.982
12476W        W84092  21.958  30.517   0.440
12477W        W84093  36.984  21.401   1.771
12478W        W84094  14.456  22.475  14.375
12479W        W84095  16.253  26.992   1.398
12480W        W84096  16.355  37.537   1.194
12481W        W84097  13.292  31.033  13.561
12482W        W84098  22.274  26.526  13.139
12483W        W84099  20.091  41.794   3.992
12484W        W84100   2.759  30.863  10.572
12485W        W84101  38.248  27.657   2.055
12486W        W84102  20.146  25.173   3.287
12487W        W84103  38.470  14.089   2.757
12488W        W84104  25.677  24.578   2.209
12489W        W84105  15.240  10.126  11.216
12490W        W84106  20.242  11.229  12.469
12491W        W84107  24.205  28.108  11.682
12492W        W84108  13.180  36.845   3.635
12493W        W84109  36.903  25.746   3.581
12494W        W84110  14.389  11.971   5.069
12495W        W84111  22.643  39.246  12.098
12496W        W84112   8.175  39.876   0.704
12497W        W84113   9.488  28.081  10.664
12498W        W84114   0.565  28.653   4.279
12499W        W84115   2.297  34.272  13.985
12500W        W84116  36.351  22.691   2.742
12501W        W84117  43.778  42.615   0.685
12502W        W84118  34.446  37.705  10.904
12503W        W84119  19.540  44.973   2.346
12504W        W84120  20.933   1.452  11.859
12505W        W84121   5.362   0.335   1.677
12506W        W84122  35.622  38.539   2.826
12507W        W84123  31.086  17.064  11.647
12508W        W84124  15.238  17.876  14.744
12509W        W84125   3.179  41.551   1.695
12510W        W84126  30.731   0.908   3.985
12511W        W84127  28.096   9.780  14.557
12512W        W84128  41.854  27.260  13.973
12513W        W84129  34.903   5.790  12.090
12514W        W84130  11.916  17.720  10.908
12515W        W84131  18.878  14.598   4.054
12516W        W84132   1.874   5.912   1.826
12517W        W84133  24.196   7.134  12.965
12518W        W84134  35.600  38.994   3.744
12519W        W84135  28.424  30.192   0.447
12520W        W84136  18.158  17.818  10.886
12521W        W84137  38.774  26.241  12.881
12522W        W84138  16.596   9.666   4.479
12523W        W84139  20.609  28.590  13.832
12524W        W84140   1.765  36.136   1.049
12525W        W84141  17.818   6.197  12.846
12526W        W84142  24.578  15.268  14.497
12527W        W84143  23.150  22.200  12.704
12528W        W84144  13.234  43.119   1.847
12529W        W84145  44.261  30.238  11.032
12530W        W84146   5.897   2.556  12.457
12531W        W84147   6.490   1.274   0.967
12532W        W84148  33.576  40.459   2.163
12533W        W84149  37.352  33.150   4.288
12534W        W84150  35.585  39.589  13.002
12535W        W84151  16.073  26.804  13.718
12536W        W84152   2.235  27.191   1.710
12537W        W84153   5.960   8.285  12.957
12538W        W84154  15.860  16.728   0.728
12539W        W84155   1.353  28.165  14.250
12540W        W84156  33.903  37.560   4.232
12541W        W84157  44.755  39.940   1.418
12542W        W84158  27.266  39.008  12.854
12543W        W84159  31.453  30.765  13.504
12544W        W84160  25.126   9.623   1.263
12545W        W84161  41.846  10.696   1.379
12546W        W84162  14.621  10.344  12.519
12547W        W84163  35.267  35.005   3.323
12548W        W84164  39.524  24.510  11.701
12549W        W84165  16.722  22.589   0.361
12550W        W84166   6.475  42.923  12.069
12551W        W84167  12.607  38.482  12.172
12552W        W84168  37.407  22.280   4.124
12553W        W84169   0.754  16.823   3.678
12554W        W84170  15.506  37.487  12.268
12555W        W84171  27.542   1.279   2.674
12556W        W84172  17.196  10.581  13.400
12557W        W84173  37.653   1.935  13.199
12558W        W84174  34.454  43.043  14.996
12559W        W84175  10.653  21.900   3.314
12560W        W84176  27.520   3.801  12.873
12561W        W84177   5.453  21.320   4.178
12562W        W84178  21.600  42.719  12.802
12563W        W84179  21.629   3.204   0.963
12564W        W84180  38.517  10.980   1.307
12565W        W84181   4.354  25.592  11.427
12566W        W84182   5.608  32.814  11.279
12567W        W84183  39.334  30.996   1.426
12568W        W84184  23.380  26.192  14.612
12569W        W84185   6.754  42.892   0.227
12570W        W84186  10.367  20.528  13.926
12571W        W84187  14.831  28.566  14.458
12572W        W84188  41.032  39.818   0.789
12573W        W84189  13.859  16.039   0.116
12574W        W84190   5.444   0.275   0.291
12575W        W84191  16.964  27.179   2.889
12576W        W84192  16.904  42.576  12.830
12577W        W84193  13.779  22.309  12.154
12578W        W84194  39.762  41.921   2.445
12579W        W84195  11.304  16.014   3.153
12580W        W84196  23.552  10.738   3.657
12581W        W84197  42.678   9.673  13.921
12582W        W84198  21.860  19.662   0.787
12583W        W84199  16.236  31.194  11.301
12584W        W84200  19.015  36.141  13.049
12585W        W84201  20.392  40.695   2.694
12586W        W84202  33.971  13.127   3.620
12587W        W84203  16.200   9.891   1.768
12588W        W84204   5.470  17.391  13.170
12589W        W84205  38.264   5.504  12.834
12590W        W84206  19.003  38.821  11.682
12591W        W84207  25.015  29.156  10.524
12592W        W84208  26.133  16.198   2.219
12593W        W84209  30.618  29.410   1.474
12594W        W84210  34.929  33.398  13.486
12595W        W84211  41.506  37.869   4.170
12596W        W84212   4.210  38.337  12.027
12597W        W84213  19.441   3.804  11.960
12598W        W84214  39.098  44.069   3.649
12599W        W84215  17.928  12.811  13.020
12600W        W84216  12.165  28.144   1.365
12601W        W84217   3.760   0.762   3.777
12602W        W84218  32.939  41.558  14.855
12603W        W84219  34.132  11.906   1.925
12604W        W84220  44.509  16.078   0.835
12605W        W84221  39.883  12.918   4.949
12606W        W84222  27.989  27.200  13.404
12607W        W84223  11.178  22.489  14.786
12608W        W84224  32.642  29.631   2.223
12609W        W84225  27.734  28.662   0.962
12610W        W84226   4.342  32.202   0.812
12611W        W84227  18.847  40.996   1.631
12612W        W84228  41.496  31.218  11.154
12613W        W84229  35.870  11.480  14.827
12614W        W84230  41.898  30.444   0.334
12615W        W84231  30.166  13.285  14.511
12616W        W84232   6.871  22.506   1.357
12617W        W84233  27.462   2.264   2.300
12618W        W84234  16.127  11.783   3.706
12619W        W84235   4.220  41.906   0.291
12620W        W84236  21.624  21.624   2.735
12621W        W84237  36.057  31.026   3.274
12622W        W84238  40.520  32.296  14.209
12623W        W84239  19.868   8.677   0.391
12624W        W84240  39.556  38.316   1.493
12625W        W84241  23.201  22.272   1.595
12626W        W84242   7.797   2.335   0.936
12627W        W84243   0.966  13.896  13.931
12628W        W84244  20.869  36.633   0.139
12629W        W84245  35.083  43.295  12.897
12630W        W84246  29.234  20.277   1.891
12631W        W84247  29.003  15.127   1.964
12632W        W84248  11.802  29.019   2.573
12633W        W84249  22.724  36.360  11.125
12634W        W84250   6.758  32.122   0.978
12635W        W84251  23.175  12.913  11.411
12636W        W84252  11.950  27.449   1.486
12637W        W84253   4.238  25.980   3.391
12638W        W84254  34.054  13.617  14.397
12639W        W84255   1.012  43.895   1.889
12640W        W84256  22.134  33.206  11.940
12641W        W84257  27.005  24.500   2.918
12642W        W84258  14.861  35.913   0.456
12643W        W84259   0.198  22.970  12.599
12644W        W84260  12.239  14.468  13.118
12645W        W84261   0.243  15.286  12.958
12646W        W84262  31.987  10.440  12.394
12647W        W84263  20.110  15.851  14.636
12648W        W84264  19.862  22.673  11.523
12649W        W84265  30.655   6.261   4.581
12650W        W84266  36.080  41.665   0.062
12651W        W84267   9.790  37.174  14.424
12652W        W84268  17.885  16.167  12.633
12653W        W84269  27.256  44.330  10.712
12654W        W84270  37.249  21.197   1.339
12655W        W84271  24.666  28.072   4.500
12656W        W84272  23.692  15.429  12.603
12657W        W84273  15.277  12.697   2.634
12658W        W84274  24.241  36.408   3.930
12659W        W84275   2.870   6.270  11.102
12660W        W84276  23.340  34.375   4.177
12661W        W84277  23.639  22.252  12.506
12662W        W84278  11.265   2.022  12.375
12663W        W84279   1.460  24.766  13.124
12664W        W84280  44.601  24.082  11.483
12665W        W84281  18.103  25.071   2.428
12666W        W84282  27.248  21.908  12.867
12667W        W84283   2.712  25.840  13.407
12668W        W84284  44.337  17.889   0.184
12669W        W84285  28.231   7.665  11.963
12670W        W84286  30.637   8.083   1.281
12671W        W84287  25.533  23.048  13.126
12672W        W84288  23.209  35.169  14.858
12673W        W84289  25.459  14.952  11.544
12674W        W84290  36.506  41.690  11.914
12675W        W84291  15.210   7.660  13.323
12676W        W84292  35.421  38.002  10.367
12677W        W84293  22.669  40.530   1.315
12678W        W84294  27.860  15.563   1.667
12679W        W84295   9.336   2.236   2.832
12680W        W84296  38.006  40.564   1.376
12681W        W84297  18.705  18.705  14.041
12682W        W84298  14.602   2.821   1.407
12683W        W84299   5.773  44.527   0.662
12684W        W84300   5.362  15.231  11.312
12685W        W84301  39.539  41.554   0.764
12686W        W84302   6.249  16.787  10.744
12687W        W84303  31.166  14.664   0.996
12688W        W84304  32.338   7.980   2.802
12689W        W84305  32.611  38.457   0.244
12690W        W84306  41.079   4.865   2.791
12691W        W84307  34.936  28.336   3.926
12692W        W84308  43.285  33.571  10.409
12693W        W84309   5.283  36.768   3.695
12694W        W84310   9.863  31.422  13.171
12695W        W84311  16.198  36.342   1.896
12696W        W84312  40.267  39.474   0.908
12697W        W84313  17.017  29.494   1.978
12698W        W84314   0.379  42.318   3.923
12699W        W84315  28.492  40.155  13.541
12700W        W84316  21.517  36.431   1.284
12701W        W84317  10.807  35.323  11.673
12702W        W84318  23.268   4.399   4.583
12703W        W84319  23.852   6.790  10.521
12704W        W84320  42.046  43.513   3.682
12705W        W84321  21.444  44.333  11.990
12706W        W84322  32.919  32.552   4.105
12707W        W84323  26.240  32.404   0.869
12708W        W84324  44.731  29.617   1.401
12709W        W84325  11.924  15.638  12.047
12710W        W84326   8.919  31.975  13.969
12711W        W84327  29.982  36.042   4.563
12712W        W84328  35.626   8.490   0.427
12713W        W84329  41.615  32.148   4.309
12714W        W84330  32.910  38.885   0.385
12715W        W84331  39.541   7.403  12.591
12716W        W84332   7.576  11.991  10.377
12717W        W84333  19.045  40.883   4.039
12718W        W84334  44.332  22.462   0.942
12719W        W84335  18.858   0.403  10.939
12720W        W84336  26.422  17.208   0.435
12721W        W84337   1.375  11.096  11.630
12722W        W84338  33.324   5.713  14.412
12723W        W84339  21.279   0.301   2.162
12724W        W84340  16.215  21.658  10.828
12725W        W84341  43.690  27.440  13.456
12726W        W84342  11.074  41.034  11.541
12727W        W84343  22.613  41.283   3.723
12728W        W84344   7.216   6.032  12.024
12729W        W84345  12.822  20.161  13.280
12730W        W84346  27.953  30.080   0.181
12731W        W84347  22.657  33.914   2.402
12732W        W84348   4.051  19.231   2.592
12733W        W84349  15.349  40.025   3.736
12734W        W84350  41.060   9.986  13.569
12735W        W84351  44.459  12.783  14.813
12736W        W84352  34.976  39.766   2.909
12737W        W84353   2.017  39.009   4.255
12738W        W84354   6.783  10.190   3.969
12739W        W84355   9.912  43.202  14.294
12740W        W84356  34.579  39.075  13.619
12741W        W84357  41.744  31.080  11.724
12742W        W84358  41.385  41.747   4.576
12743W        W84359  26.198   8.296  12.953
12744W        W84360  25.957  37.751  13.576
12745W        W84361   4.870  43.099  11.882
12746W        W84362   6.871   2.189   4.490
12747W        W84363  40.295  26.518   3.228
12748W        W84364  38.548   8.569   2.723
12749W        W84365  24.143  35.779  14.712
12750W        W84366   1.849  14.782   2.309
12751W        W84367  24.329  30.386  11.978
12752W        W84368   8.286   8.930   1.435
12753W        W84369  11.433  34.957   1.359
12754W        W84370  13.675  19.872   2.764
12755W        W84371  17.167  21.609   0.259
12756W        W84372  39.363  29.758  10.634
12757W        W84373  39.804  44.889   2.406
12758W        W84374  12.031  14.926  11.678
12759W        W84375  10.234  35.372   3.568
12760W        W84376  41.432  27.139   0.286
12761W        W84377  32.286  39.974  14.191
12762W        W84378  14.566  28.885   2.778
12763W        W84379  35.502  35.824  14.274
12764W        W84380  29.009   8.873  12.716
12765W        W84381  23.511  41.385   4.302
12766W        W84382   9.939  20.511  14.538
12767W        W84383  27.207   6.742   0.898
12768W        W84384  33.381  27.666   2.834
12769W        W84385   2.839  34.811  14.277
12770W        W84386  12.573  16.056   2.686
12771W        W84387  35.000   0.136   3.340
12772W        W84388  22.547  34.821   4.616
12773W        W84389  35.314   4.883   3.617
12774W        W84390   1.403  10.574  11.632
12775W        W84391  26.545  25.595  10.786
12776W        W84392   1.470  16.437  12.830
12777W        W84393   9.775  38.190  14.282
12778W        W84394  27.949  39.406   1.758
12779W        W84395  19.511   1.959   3.749
12780W        W84396  42.109  41.088  10.800
12781W        W84397  26.595  44.392   2.593
12782W        W84398  34.072   8.211  12.547
12783W        W84399  16.287   7.523   3.692
12784W        W84400   5.644  19.664  10.723
12785W        W84401   3.766  24.665   0.791
12786W        W84402  43.249  12.287   4.165
12787W        W84403  33.001   5.518  12.342
12788W        W84404  38.056  39.353   0.842
12789W        W84405  22.170  44.373   2.707
12790W        W84406   0.675  24.783  11.249
12791W        W84407  32.164  19.005  13.552
12792W        W84408  32.517   3.848   2.718
12793W        W84409   5.208  10.756   4.352
12794W        W84410  38.079  12.865  11.567
12795W        W84411  16.297  12.250   3.842
12796W        W84412  18.029  30.536   0.859
12797W        W84413  32.167   3.561   2.136
12798W        W84414  18.001   8.808  13.739
12799W        W84415  10.595  30.975  13.172
12800W        W84416  36.042  30.917  13.632
12801W        W84417  41.030   8.636   1.330
12802W        W84418  29.536  37.516   4.419
12803W        W84419  39.949   9.109   4.315
12804W        W84420  18.027  14.555   0.506
12805W        W84421  33.932  15.897  11.505
12806W        W84422  19.789  11.400   1.299
12807W        W84423  30.754  29.618  10.786
12808W        W84424   0.050  43.350  10.731
12809W        W84425  19.186  29.334  12.211
12810W        W84426  19.438  21.197   2.336
12811W        W84427   0.046  32.932   1.214
12812W        W84428  30.339  14.396  10.859
12813W        W84429  10.765  42.049  14.339
12814W        W84430  19.691  13.324   0.013
12815W        W84431   3.897   5.282   4.565
12816W        W84432  29.746  39.825   4.610
12817W        W84433  37.314  44.997   3.686
12818W        W84434  44.530  27.491  13.916
12819W        W84435  33.001  18.571   2.254
12820W        W84436  30.085  44.497   1.278
12821W        W84437  26.618  43.453  13.791
12822W        W84438  42.695  18.229   2.784
12823W        W84439  20.088  17.995  13.065
12824W        W84440  31.306   2.414  14.017
12825W        W84441  19.139  22.404  14.408
12826W        W84442   2.698  28.607  13.887
12827W        W84443  15.344  25.414   0.940
12828W        W84444  29.475  36.312  12.946
12829W        W84445  40.618  10.974   4.055
12830W        W84446   4.933  42.113   0.941
12831W        W84447  28.610   4.812  13.423
12832W        W84448  16.542  14.334   3.824
12833W        W84449  23.618  37.712   4.260
12834W        W84450  13.226  30.589  13.263
12835W        W84451  13.854  20.395   1.715
12836W        W84452  35.539  40.827  11.495
12837W        W84453  41.260   9.644   0.873
12838W        W84454  44.227  34.470   1.668
12839W        W84455  27.551  20.950   2.667
12840W        W84456  31.103  24.515  14.297
12841W        W84457   4.809   7.945  11.217
12842W        W84458  43.573   5.113  14.453
12843W        W84459  29.151  34.938   2.581
12844W        W84460   8.149  12.599   1.315
12845W        W84461  38.730  13.806   1.939
12846W        W84462  43.545  41.390  14.847
12847W        W84463   8.724  32.105   3.331
12848W        W84464  30.423   9.281  11.630
12849W        W84465  15.725  24.985   3.438
12850W        W84466   9.653   4.357   0.862
12851W        W84467   6.464  39.919  10.763
12852W        W84468  35.979   6.333   2.827
12853W        W84469  29.845  12.337  10.806
12854W        W84470  35.820  13.735   3.410
12855W        W84471  35.890  22.401  11.562
12856W        W84472  36.062  27.394  13.917
12857W        W84473   6.825  44.478  11.599
12858W        W84474  26.056  24.109  12.380
12859W        W84475  40.811  24.964  10.584
12860W        W84476  39.974  20.127   3.218
12861W        W84477  27.542  11.802   0.312
12862W        W84478   6.063  22.278   4.040
12863W        W84479  15.353  34.132  12.580
12864W        W84480   3.375  27.744  12.419
12865W        W84481  20.861  29.575   4.148
12866W        W84482  41.768  38.291  11.966
12867W        W84483  10.441  36.110  12.445
12868W        W84484  10.498   9.916  12.051
12869W        W84485   0.300   1.203  14.517
12870W        W84486  40.409  12.149  10.709
12871W        W84487  39.280   9.192   1.361
12872W        W84488  27.534  16.392   5.004
12873W        W84489  40.860   1.900  10.728
12874W        W84490  31.813   1.223   4.818
12875W        W84491  15.822  36.524   2.422
12876W        W84492  33.296  31.433  10.012
12877W        W84493   1.012  27.677  11.983
12878W        W84494   1.417   9.161  12.150
12879W        W84495  17.732  21.748  10.751
12880W        W84496  36.465   1.689  11.689
12881W        W84497  43.196  44.158  10.066
12882W        W84498  25.930  21.774   3.663
12883W        W84499   8.228   3.228  14.682
12884W        W84500   7.531  37.364  13.555
12885W        W84501  41.495  15.506   2.311
12886W        W84502  29.671   9.977  12.934
12887W        W84503  27.780  40.869   2.294
12888W        W84504   3.229  29.580   3.147
12889W        W84505  27.413  41.334   1.374
12890W        W84506  30.864  27.970  14.360
12891W        W84507  38.085   4.678  13.816
12892W        W84508   7.682  39.653  14.377
12893W        W84509  19.163  44.807  10.609
12894W        W84510   6.305  16.317  14.486
12895W        W84511  17.351  34.971  14.911
12896W        W84512  31.624  24.030  11.487
12897W        W84513  21.289  17.133  12.932
12898W        W84514  31.012  11.379  13.924
12899W        W84515  20.906   4.751   3.664
12900W        W84516  41.250   2.186   1.314
12901W        W84517  11.870  26.761   1.654
12902W        W84518  13.388  41.883  11.099
12903W        W84519  42.888  17.711   3.611
12904W        W84520   0.466  25.084   1.695
12905W        W84521   9.736   7.332  14.492
12906W        W84522   1.714  39.350  12.868
12907W        W84523  13.622  21.720  13.884
12908W        W84524   7.689  40.392   1.389
12909W        W84525  27.917  20.660  13.310
12910W        W84526  22.721   4.771   4.276
12911W        W84527   0.145  10.621   3.408
12912W        W84528  32.417  25.749   3.575
12913W        W84529  27.018  24.175  14.280
12914W        W84530   8.955  23.027   0.820
12915W        W84531  38.848   1.430  10.319
12916W        W84532  41.883   0.961   4.579
12917W        W84533  37.600   3.173   1.325
12918W        W84534  26.311  13.212   3.612
12919W        W84535  15.943  18.093   0.493
12920W        W84536  41.284  32.961  14.994
12921W        W84537  44.382  17.001  14.388
12922W        W84538   4.193  13.405  10.979
12923W        W84539  38.110  22.009   0.363
12924W        W84540   0.452  35.044   2.488
12925W        W84541  17.373  21.055  12.565
12926W        W84542  40.379  11.155   9.961
12927W        W84543  16.285   1.925   2.633
12928W        W84544  37.460  23.005   4.710
12929W        W84545  28.521   9.883   2.746
12930W        W84546  39.549  42.385   1.522
12931W        W84547  11.600  40.960   0.836
12932W        W84548  12.868  33.516   2.215
12933W        W84549  21.127  16.665  11.679
12934W        W84550  20.453   7.402  12.104
12935W        W84551  43.795  14.836   0.959
12936W        W84552   1.029  37.042   2.245
12937W        W84553  40.956   2.953  11.009
12938W        W84554  16.296  26.542   4.088
12939W        W84555  29.736  11.746   0.610
12940W        W84556  42.695  12.233   2.746
12941W        W84557  40.128  30.854   3.125
12942W        W84558  32.362  23.037   1.654
12943W        W84559  16.101  38.735  11.111
12944W        W84560  43.795  32.781   1.352
12945W        W84561   8.708   9.713  13.161
12946W        W84562  43.352   2.290   4.939
12947W        W84563  30.093  44.293  13.342
12948W        W84564  16.549  21.701   4.633
12949W        W84565  37.654  28.970  11.926
12950W        W84566   3.049  24.623  11.497
12951W        W84567  38.548  14.432   3.122
12952W        W84568  33.471  25.710  14.122
12953W        W84569  44.412  25.501  13.011
12954W        W84570  15.581  10.753  14.057
12955W        W84571  42.919   2.516   4.541
12956W        W84572  14.237  41.271   4.941
12957W        W84573   0.630  33.584  10.708
12958W        W84574  24.179  33.319   4.725
12959W        W84575   8.352   9.740   0.448
12960W        W84576   4.246  34.160  12.919
12961W        W84577  15.557   6.367   4.609
12962W        W84578  44.269  39.995  14.292
12963W        W84579  38.590  22.674  10.935
12964W        W84580  24.564   5.206   3.135
12965W        W84581  26.870   3.738  14.227
12966W        W84582  27.040  13.349  10.139
12967W        W84583  32.987  26.569   3.461
12968W        W84584  26.219  37.442  10.855
12969W        W84585  39.481   7.723  13.416
12970W        W84586  10.022  31.087  11.595
12971W        W84587  20.744   5.516   4.526
12972W        W84588  42.476  17.806   1.858
12973W        W84589  20.220  44.943   3.212
12974W        W84590  35.794  24.581   0.824
12975W        W84591  36.533  30.407   5.153
12976W        W84592  16.616   6.410  14.339
12977W        W84593  34.499  12.796   3.887
12978W        W84594  30.949  40.569   0.982
12979W        W84595  26.169  26.953   2.698
12980W        W84596   6.627  27.684  14.913
12981W        W84597  32.609  41.441   0.653
12982W        W84598  36.564  40.829   4.143
12983W        W84599   1.759  18.800  12.959
12984W        W84600  25.980   6.144  11.119
12985W        W84601  27.716  32.118   2.789
12986W        W84602   1.256   8.119  13.544
12987W        W84603   3.768   4.609  12.488
12988W        W84604  32.129  26.438   0.442
12989W        W84605  37.969  13.330   4.222
12990W        W84606  19.637  37.109   2.687
12991W        W84607  18.384  37.876   3.226
12992W        W84608   4.158  21.271   1.401
12993W        W84609  25.257  22.187  11.604
12994W        W84610   0.937  20.449  13.849
12995W        W84611  44.306  18.474   0.789
12996W        W84612   5.386  43.437  10.778
12997W        W84613   4.944   4.798  10.066
12998W        W84614  37.313   4.415  11.906
12999W        W84615  35.423  43.048  11.666
13000W        W84616   2.454  34.088   3.241
13001W        W84617  32.966  18.017   4.459
13002W        W84618  27.668   4.239   1.341
13003W        W84619  11.584  43.800   2.190
13004W        W84620  27.888   2.268   3.258
13005W        W84621  32.127  15.499   1.529
13006W        W84622  26.276   6.935  14.618
13007W        W84623  18.641  35.802   2.852
13008W        W84624   6.492  37.922  14.819
13009W        W84625  41.852  39.810  12.010
13010W        W84626  35.092  39.958   1.440
13011W        W84627  18.994  29.125   2.877
13012W        W84628  18.831  41.827  11.457
13013W        W84629  31.017   3.373   4.767
13014W        W84630   4.653  38.761  14.959
13015W        W84631  43.416  24.982   1.900
13016W        W84632   1.204   8.002   1.237
13017W        W84633  17.490   5.184   3.927
13018W        W84634   0.904  23.011   9.820
13019W        W84635   8.651  17.753   0.889
13020W        W84636  39.501  17.180  12.973
13021W        W84637  23.469  15.148  12.989
13022W        W84638  40.133  21.286  13.419
13023W        W84639  22.575   5.833   3.675
13024W        W84640  28.965  24.659  12.885
13025W        W84641  29.848   1.841  13.385
13026W        W84642  25.080   7.390  11.146
13027W        W84643  41.548  38.920  14.133
13028W        W84644  44.355  40.989  14.961
13029W        W84645   7.213  31.209  13.541
13030W        W84646   1.331  31.904  14.278
13031W        W84647   7.700  44.843  12.452
13032W        W84648  12.128  30.114  12.385
13033W        W84649   0.991   0.924  10.653
13034W        W84650  18.220  12.169   1.330
13035W        W84651  25.157  30.127  11.497
13036W        W84652  10.865  26.680   1.346
13037W        W84653  40.358  27.052   3.644
13038W        W84654  27.494  16.023   4.050
13039W        W84655  40.897   0.510   3.167
13040W        W84656  41.325  36.964   0.792
13041W        W84657  36.443   5.137  13.091
13042W        W84658  36.780  21.160   1.120
13043W        W84659  34.499  12.862   3.371
13044W        W84660  34.305  32.410  12.184
13045W        W84661  31.339  44.488  14.934
13046W        W84662  14.136  37.561  11.059
13047W        W84663  28.645  35.826  11.166
13048W        W84664   4.759  26.534  14.675
13049W        W84665  22.832  21.209   2.854
13050W        W84666   8.689   8.394   4.962
13051W        W84667  36.123  33.969  13.846
13052W        W84668  40.495  23.197   0.062
13053W        W84669  12.275  21.312   2.076
13054W        W84670   2.092  26.623  11.997
13055W        W84671  24.291   4.875  13.457
13056W        W84672   1.977  36.480  12.484
13057W        W84673  23.906   1.705   1.912
13058W        W84674  24.540   1.289  10.607
13059W        W84675  14.886   4.995  14.875
13060W        W84676  21.626  22.436   2.282
13061W        W84677  33.631  30.075   2.395
13062W        W84678  31.205   2.821   0.275
13063W        W84679  20.117   8.322   1.219
13064W        W84680  21.118  17.536  14.061
13065W        W84681  42.529   0.290  11.516
13066W        W84682  10.278  28.676   0.876
13067W        W84683  21.454  12.100   4.516
13068W        W84684   9.614  10.812  12.392
13069W        W84685  10.914  22.174   4.292
13070W        W84686  12.774  10.717   1.791
13071W        W84687  26.723  30.404   5.029
13072W        W84688  31.593  40.323  11.759
13073W        W84689  39.860   5.590  11.069
13074W        W84690  12.209  19.517   1.305
13075W        W84691   5.720  35.534   1.720
13076W        W84692  23.960   3.352   4.090
13077W        W84693  40.084  14.600  10.451
13078W        W84694  43.279  33.600  13.458
13079W        W84695  25.098  11.708  14.023
13080W        W84696  34.364  14.231   0.054
13081W        W84697  16.223  21.435  14.770
13082W        W84698   5.126  14.384   2.412
13083W        W84699  14.876  30.676  11.676
13084W        W84700  29.826  35.940  13.019
13085W        W84701  27.939  40.323  14.282
13086W        W84702  19.250  28.641   1.323
13087W        W84703  28.574  14.601   1.758
13088W        W84704  11.663  11.239  13.843
13089W        W84705  27.269  20.053  14.924
13090W        W84706   3.917  31.233  11.618
13091W        W84707  12.306   4.640   0.279
13092W        W84708   5.587  26.120   1.253
13093W        W84709  38.497  43.965  13.332
13094W        W84710  23.744  11.367  11.192
13095W        W84711  32.526   3.806   4.699
13096W        W84712  37.874  43.693   3.704
13097W        W84713  20.635  20.802  14.754
13098W        W84714  44.275  15.184   2.726
13099W        W84715   7.355  14.846  13.005
13100W        W84716   1.663  11.629   4.581
13101W        W84717  37.433  31.943  14.391
13102W        W84718   1.969  17.267  10.720
13103W        W84719  25.193  30.996  11.085
13104W        W84720  17.843  18.071  11.779
13105W        W84721  26.593  12.642  14.759
13106W        W84722   5.404  21.360  11.591
13107W        W84723   0.081  15.760  13.796
13108W        W84724   2.995   8.367   2.923
13109W        W84725  37.338  14.199  11.461
13110W        W84726  32.821  43.756   0.710
13111W        W84727  41.518  22.498   2.125
13112W        W84728  18.736   5.318   2.278
13113W        W84729   0.741  11.360  13.255
13114W        W84730  14.855   2.821  12.062
13115W        W84731  19.050  20.015  11.109
13116W        W84732   5.688  17.245   2.543
13117W        W84733  12.228   3.901  14.425
13118W        W84734  28.127  30.888   1.675
13119W        W84735   2.767   3.894  11.669
13120W        W84736  27.555  33.466  14.842
13121W        W84737  11.518   0.598   4.371
13122W        W84738  11.793  34.232   4.358
13123W        W84739  35.474  34.547  14.921
13124W        W84740  21.160  18.366   1.680
13125W        W84741  23.654  25.173   3.698
13126W        W84742  14.155  32.802   2.808
13127W        W84743  23.969   8.227   1.874
13128W        W84744   8.641  29.326  14.551
13129W        W84745  16.258  39.576   3.584
13130W        W84746   0.597  14.242  14.058
13131W        W84747   8.946  34.516   1.901
13132W        W84748  33.856  24.941  14.415
13133W        W84749  36.312  34.083   2.231
13134W        W84750  44.933  27.641   3.967
13135W        W84751   4.393  12.596  10.651
13136W        W84752  26.939  27.144   3.164
13137W        W84753  15.309   4.464  10.656
13138W        W84754   6.653  26.145  11.155
13139W        W84755  16.632  25.281   4.436
13140W        W84756   3.353  16.171   4.256
13141W        W84757  18.674  21.958  13.366
13142W        W84758  37.578  25.019   0.531
13143W        W84759  30.919  43.043   0.462
13144W        W84760  25.217   3.918   4.271
13145W        W84761   3.289  14.876   0.859
13146W        W84762  36.501  31.705  14.442
13147W        W84763  17.962  37.355   3.627
13148W        W84764  14.316  22.986   1.437
13149W        W84765  36.766  36.968   0.916
13150W        W84766  17.167  29.984   2.252
13151W        W84767  25.739  13.939  11.473
13152W        W84768  23.499  44.213  11.500
13153W        W84769   0.363  38.570  10.486
13154W        W84770  10.301  32.875  13.449
13155W        W84771   3.860  24.602  11.133
13156W        W84772  38.885  32.458  12.495
13157W        W84773   8.620  32.826  12.551
13158W        W84774   6.336   0.673   3.162
13159W        W84775  19.183  42.401   0.915
13160W        W84776  33.722  11.506  10.343
13161W        W84777  38.307  12.023   2.697
13162W        W84778  25.229  39.723   0.422
13163W        W84779   2.959  33.483   0.447
13164W        W84780  13.308  25.090   0.084
13165W        W84781  29.699   8.625  12.103
13166W        W84782   2.292  32.381   1.343
13167W        W84783  12.337  40.500   1.760
13168W        W84784  38.722  17.327   5.181
13169W        W84785   8.600   0.707   0.795
13170W        W84786  16.461  11.262  13.191
13171W        W84787  38.507   0.199  10.685
13172W        W84788   7.123  35.981   2.558
13173W        W84789   9.902  30.595  13.575
13174W        W84790  22.447  38.968   2.723
13175W        W84791  24.125  11.105   0.845
13176W        W84792  36.521  27.548  11.157
13177W        W84793  36.359  29.760   3.309
13178W        W84794  36.756  14.196   4.221
13179W        W84795  15.276   1.241   4.645
13180W        W84796  22.177  37.293   2.500
13181W        W84797  25.388  34.755   0.703
13182W        W84798  38.794   7.756  12.987
13183W        W84799   5.285  26.186  13.924
13184W        W84800  37.475  17.626   4.579
13185W        W84801  24.205   5.828   4.717
13186W        W84802   5.216  20.827   4.114
13187W        W84803  41.828  17.544  11.750
13188W        W84804  12.240  35.525   2.656
13189W        W84805  31.966   7.947  10.683
13190W        W84806   4.773   6.519   0.465
13191W        W84807  16.150  21.062   2.475
13192W        W84808  26.489  19.230   0.872
13193W        W84809  38.418  33.016  10.578
13194W        W84810  11.493  23.024  13.544
13195W        W84811   6.180  20.247  12.602
13196W        W84812  42.857  37.868  14.856
13197W        W84813  17.713  41.564   2.799
13198W        W84814  41.017  28.250   4.988
13199W        W84815  40.015  38.667  13.608
13200W        W84816  29.067  20.697  14.079
13201W        W84817  16.846  26.414   3.198
13202W        W84818  15.765  16.302   1.412
13203W        W84819  37.362   5.364   3.897
13204W        W84820  10.424   7.450   1.704
13205W        W84821  22.938   8.302  14.321
13206W        W84822  29.871  24.664   3.835
13207W        W84823  21.850  15.183  11.998
13208W        W84824  29.699  35.754   1.451
13209W        W84825  33.744   6.297   0.776
13210W        W84826  14.683  35.138  12.337
13211W        W84827  32.177   2.156   0.858
13212W        W84828  32.582   7.599  13.413
13213W        W84829  15.572  27.171  10.526
13214W        W84830   5.905  42.927   2.734
13215W        W84831   0.701  39.994   4.428
13216W        W84832  38.603   6.781   0.060
13217W        W84833   1.122  35.990   3.660
13218W        W84834   6.244  34.847   4.643
13219W        W84835  32.405  41.997  13.998
13220W        W84836  29.831  13.306   2.412
13221W        W84837   4.754  20.748  11.364
13222W        W84838  15.037   4.387  11.066
13223W        W84839  30.604   7.342  13.331
13224W        W84840  37.310  41.969  13.909
13225W        W84841  44.690  31.944  12.936
13226W        W84842  35.533   0.520   0.454
13227W        W84843  33.818  21.277   1.747
13228W        W84844  13.121  21.170   4.676
13229W        W84845   9.903  37.839  11.070
13230W        W84846  30.003  42.787  10.941
13231W        W84847  33.380   4.509  10.228
13232W        W84848  20.912   1.171   2.360
13233W        W84849  20.643   3.546   4.867
13234W        W84850  26.516  31.180  12.409
13235W        W84851  10.101  18.328  12.493
13236W        W84852   0.379  14.835  12.422
13237W        W84853   6.041  22.144   2.313
13238W        W84854   6.453  28.271  11.603
13239W        W84855  30.912  12.766   1.799
13240W        W84856  18.507  40.769   1.287
13241W        W84857  24.997  17.120   2.446
13242W        W84858  35.702   7.705   2.073
13243W        W84859  27.898  17.631  11.041
13244W        W84860  27.492  37.082  10.701
13245W        W84861  25.620  10.623  13.430
13246W        W84862  31.895   4.545  12.905
13247W        W84863  33.547   4.195   2.413
13248W        W84864  32.655   8.932  14.804
13249W        W84865  19.750  10.125   4.691
13250W        W84866  23.665   5.660   0.975
13251W        W84867  32.320  39.302  12.033
13252W        W84868  19.151  42.099   4.670
13253W        W84869  40.426  15.792  13.133
13254W        W84870  31.697  44.205   4.177
13255W        W84871  37.818   1.982   1.303
13256W        W84872  41.708  42.369  13.922
13257W        W84873  37.586   5.716  14.968
13258W        W84874  26.948  15.889   1.066
13259W        W84875  33.794  22.600  11.729
13260W        W84876  14.371  41.927  14.240
13261W        W84877  12.329  41.421   0.230
13262W        W84878  37.453  31.313  13.499
13263W        W84879  21.533   4.831  10.384
13264W        W84880  24.073  42.029  14.750
13265W        W84881  29.000  26.976  11.094
13266W        W84882  18.723  44.573  13.334
13267W        W84883  18.573   3.730  10.539
13268W        W84884   3.926   8.951   1.980
13269W        W84885  15.370   4.780  11.141
13270W        W84886  41.442  39.367  11.480
13271W        W84887  35.971  42.503   4.034
13272W        W84888  19.243  25.105   2.423
13273W        W84889  10.106  31.007  13.363
13274W        W84890   2.853  43.892  14.830
13275W        W84891  34.623   9.686   1.573
13276W        W84892   6.644  33.454   1.734
13277W        W84893  14.772  39.373   4.680
13278W        W84894  34.630  38.009   2.134
13279W        W84895  28.615   5.908   3.338
13280W        W84896   4.773  13.283  12.718
13281W        W84897   2.379  44.509   4.749
13282W        W84898  27.689  10.759  12.379
13283W        W84899  18.290  15.642  12.546
13284W        W84900  24.191  24.542   0.365
13285W        W84901  39.291  12.119  12.651
13286W        W84902  43.406  16.588  13.514
13287W        W84903  35.112   6.839   3.838
13288W        W84904  42.678  19.102  14.682
13289W        W84905  21.520  40.812   3.665
13290W        W84906  34.508  13.297  11.001
13291W        W84907  10.889  30.357   1.239
13292W        W84908  22.923   0.463  11.119
13293W        W84909  26.503  11.721  12.441
13294W        W84910  31.241   3.678  14.368
13295W        W84911  42.049  27.302  12.481
13296W        W84912   3.524  32.620   1.321
13297W        W84913   6.883  23.717  14.750
13298W        W84914  42.479  18.101   2.332
13299W        W84915  41.521  42.085  12.165
13300W        W84916  18.214  34.484  12.255
13301W        W84917   9.206  28.440   2.894
13302W        W84918  44.027  12.086  13.485
13303W        W84919  25.071  34.995   1.046
13304W        W84920   0.285  27.583  14.457
13305W        W84921  20.669  21.849  13.975
13306W        W84922  19.152  19.257  12.883
13307W        W84923  39.774  28.088  12.605
13308W        W84924  32.202  34.458   0.408
13309W        W84925  41.580  20.198  11.621
13310W        W84926  17.532  24.997  10.479
13311W        W84927   6.935  23.688  14.258
13312W        W84928  42.644  10.432   3.751
13313W        W84929  39.018  37.739  13.833
13314W        W84930   6.038  39.345   1.261
13315W        W84931  37.316   9.175  11.194
13316W        W84932   5.361   1.796  14.795
13317W        W84933  34.141  15.619   3.757
13318W        W84934  18.451  21.326  12.082
13319W        W84935   3.857  23.573  11.601
13320W        W84936  11.946   2.886  14.959
13321W        W84937  19.663  19.719   3.050
13322W        W84938  44.198  15.048  14.392
13323W        W84939  31.958  11.114  14.968
13324W        W84940  23.279  38.671   1.355
13325W        W84941  20.952  37.429   2.858
13326W        W84942  25.669   7.772  14.853
13327W        W84943  12.837  27.559  14.520
13328W        W84944  22.015  16.812  10.776
13329W        W84945  36.602  10.764  13.997
13330W        W84946  29.618   0.428  13.040
13331W        W84947  25.273  25.500   4.224
13332W        W84948   2.681  12.211   2.007
13333W        W84949   1.759  18.461  13.933
13334W        W84950  38.555  19.018   2.918
13335W        W84951  30.130  16.798  11.731
13336W        W84952  12.725   1.704   0.843
13337W        W84953  20.187  35.978  12.498
13338W        W84954  17.246  32.786   2.458
13339W        W84955  23.239  13.423  13.568
13340W        W84956  21.005  14.752  14.106
13341W        W84957  12.861  15.781  13.901
13342W        W84958  31.768  13.802  11.149
13343W        W84959  15.926   4.986   4.588
13344W        W84960  11.143   8.797   2.679
13345W        W84961  32.992   6.970  14.878
13346W        W84962  41.592  16.590  14.851
13347W        W84963   5.782  20.752   4.539
13348W        W84964  35.868  10.125  11.632
13349W        W84965  42.476  38.462   4.663
13350W        W84966  43.982  42.141   0.702
13351W        W84967   5.716  44.297   1.133
13352W        W84968  13.758   5.039  11.342
13353W        W84969  31.376  22.225   4.921
13354W        W84970  25.024  25.209   3.307
13355W        W84971  37.858  44.911  14.382
13356W        W84972   2.741   5.241  13.929
13357W        W84973  13.021  35.332   3.241
13358W        W84974  40.428  11.265   3.672
13359W        W84975  25.690  17.060   2.942
13360W        W84976  14.118  30.703  12.717
13361W        W84977  20.571  36.407   2.853
13362W        W84978   1.354  10.569  12.496
13363W        W84979  40.915   5.620  13.989
13364W        W84980  39.820   3.708  13.539
13365W        W84981   6.816   5.541   1.873
13366W        W84982  25.942  26.168   0.649
13367W        W84983  35.493  25.496   3.397
13368W        W84984  18.369  13.197   1.050
13369W        W84985  10.672  29.305  12.900
13370W        W84986   3.983  31.949   3.589
13371W        W84987  37.412   5.901   1.426
13372W        W84988  20.737  35.435  11.202
13373W        W84989  33.993  14.519   3.044
13374W        W84990  11.376  34.859   3.410
13375W        W84991  35.659  39.905   3.895
13376W        W84992  40.790  32.075  10.686
13377W        W84993  29.539  22.372   0.445
13378W        W84994  23.169   2.181   3.777
13379W        W84995   8.618  38.971   2.702
13380W        W84996   6.367  11.514  11.551
13381W        W84997  29.367  26.950  13.899
13382W        W84998   8.577  26.001   0.966
13383W        W84999  29.627  25.622   2.127
13384W        W85000  17.374  17.302   5.096
13385W        W85001  25.987  13.817   4.333
13386W        W85002  26.436  44.500  11.486
13387W        W85003  11.574  41.928   0.763
13388W        W85004  12.705  23.595  14.417
13389W        W85005  39.373  14.624   4.536
13390W        W85006   2.361  37.036  12.017
13391W        W85007  30.157  34.033   2.902
13392W        W85008  29.903  18.766   0.277
13393W        W85009  34.227  11.277   2.331
13394W        W85010   2.514  32.414  14.753
13395W        W85011  23.144  13.576  14.935
13396W        W85012  29.422  25.611  11.041
13397W        W85013   9.690  38.880   4.197
13398W        W85014  32.421  15.338  12.462
13399W        W85015  24.966  38.589   1.763
13400W        W85016  37.451  31.823  13.510
13401W        W85017   1.929   1.713   0.921
13402W        W85018  13.874  43.763  11.974
13403W        W85019  13.174  30.942   1.325
13404W        W85020   8.734   4.749  11.873
13405W        W85021  23.274  22.618  12.386
13406W        W85022  34.612   1.458   2.670
13407W        W85023  34.810  12.809  12.337
13408W        W85024  20.031  35.495   1.220
13409W        W85025  26.154  27.784   2.978
13410W        W85026  12.865  40.874  14.464
13411W        W85027  24.600  30.387   2.224
13412W        W85028  39.763  21.082   3.137
13413W        W85029   5.735   2.517   3.079
13414W        W85030  20.823  23.537   3.554
13415W        W85031   1.403  34.820  14.013
13416W        W85032  19.504  26.385   2.170
13417W        W85033  33.406  36.242   1.549
13418W        W85034   5.734  32.284  13.982
13419W        W85035  13.889  38.418  11.363
13420W        W85036  28.691  42.805   1.346
13421W        W85037  14.746  10.332  13.800
13422W        W85038   1.986  40.026   4.622
13423W        W85039  30.055   0.138   0.382
13424W        W85040  10.229  40.599   0.381
13425W        W85041  42.434  40.750  10.527
13426W        W85042  16.272  43.010  11.575
13427W        W85043  42.348   8.758   4.496
13428W        W85044  22.871  11.459  12.607
13429W        W85045  20.201  39.130   3.517
13430W        W85046  21.117   1.057  14.340
13431W        W85047  29.539   6.327   0.469
13432W        W85048  20.198  12.053  13.422
13433W        W85049  33.027   4.741  13.716
13434W        W85050  25.398  40.863   0.412
13435W        W85051  36.289   1.038   5.037
13436W        W85052  24.459  43.014   0.413
13437W        W85053  11.323  22.039   3.865
13438W        W85054  11.862  37.095  10.720
13439W        W85055  17.512   9.359   2.203
13440W        W85056   6.325  14.329   1.803
13441W        W85057  22.623   5.922   2.828
13442W        W85058   1.925   1.310   3.271
13443W        W85059  26.210  30.821  10.662
13444W        W85060   3.998   9.302  12.406
13445W        W85061  21.282  26.723  10.668
13446W        W85062  27.403  40.416  12.926
13447W        W85063  40.784  35.138  11.630
13448W        W85064  20.072  36.898  10.688
13449W        W85065  28.109  23.743  12.028
13450W        W85066  15.117  39.456   2.436
13451W        W85067   9.812  32.014   4.122
13452W        W85068  26.542  12.860   2.205
13453W        W85069  30.968  17.103  12.439
13454W        W85070  28.476  25.588   3.818
13455W        W85071   9.758  39.562  13.088
13456W        W85072  36.454  17.244  14.496
13457W        W85073  31.498  41.116  14.700
13458W        W85074  36.478  37.756  14.431
13459W        W85075  34.130  18.033  11.004
13460W        W85076   1.581  25.823  11.343
13461W        W85077  42.979  20.563   2.298
13462W        W85078  13.940   8.068   1.557
13463W        W85079  16.287  20.654   1.619
13464W        W85080  30.409   8.247   1.726
13465W        W85081  40.435  43.275  11.758
13466W        W85082  33.028   9.761  14.904
13467W        W85083   5.242  17.226  11.971
13468W        W85084  28.342  43.116   0.271
13469W        W85085  20.003  10.329  11.882
13470W        W85086  35.568   5.495   1.788
13471W        W85087  27.345  26.399   4.160
13472W        W85088   8.653   1.537   2.422
13473W        W85089  26.258   1.817  13.427
13474W        W85090  34.199   2.516  10.436
13475W        W85091  11.340  35.290   3.100
13476W        W85092   3.320   3.955   4.611
13477W        W85093   9.608  41.784  12.866
13478W        W85094  28.022  18.831   4.746
13479W        W85095  24.838  35.586   0.235
13480W        W85096  36.986  37.294  14.910
13481W        W85097  41.268  13.408  12.980
13482W        W85098  26.942  27.753   1.412
13483W        W85099   4.237  14.540  12.992
13484W        W85100  11.399  34.521   4.595
13485W        W85101  18.627  31.939   2.806
13486W        W85102   8.777  17.691   3.671
13487W        W85103  33.227  16.271  13.368
13488W        W85104  36.460  35.056  11.397
13489W        W85105  18.125   2.907   0.366
13490W        W85106  21.118  28.475   1.448
13491W        W85107  25.003  35.352   3.260
13492W        W85108  15.317  42.420   3.267
13493W        W85109  31.976  35.376  10.993
13494W        W85110  18.102  32.435  10.655
13495W        W85111  10.764  14.615  10.782
13496W        W85112  10.340  22.737   3.141
13497W        W85113  27.702   2.474   0.886
13498W        W85114  25.211  26.900  13.086
13499W        W85115   6.714  13.269  11.578
13500W        W85116  41.560   2.970   3.846
13501W        W85117  26.423   5.658   1.839
13502W        W85118   3.922   3.766  14.041
13503W        W85119   1.763  44.674   2.458
13504W        W85120   7.926  18.299   1.758
13505W        W85121  11.453  31.633   1.264
13506W        W85122  21.529  14.724  14.071
13507W        W85123   5.045  24.017   4.043
13508W        W85124  16.793  26.126   3.820
13509W        W85125  13.574  40.528  10.978
13510W        W85126  36.527  21.952   4.223
13511W        W85127  17.583  41.059   2.825
13512W        W85128  34.708  17.763  14.101
13513W        W85129   8.680   9.367  10.524
13514W        W85130  32.265  32.067   5.046
13515W        W85131  34.734  26.421  10.681
13516W        W85132  27.445  19.976  14.448
13517W        W85133  43.776  26.261   2.950
13518W        W85134  27.472  39.840   2.413
13519W        W85135  12.210  17.185   4.420
13520W        W85136   2.607   4.232  14.919
13521W        W85137   7.188   3.363  12.511
13522W        W85138  29.413  26.427  14.821
13523W        W85139  20.286  37.579  11.512
13524W        W85140  21.536  38.019   4.171
13525W        W85141   9.415   1.952  12.073
13526W        W85142  32.865  13.928   4.486
13527W        W85143  39.288  10.195  11.799
13528W        W85144  36.108  37.482   1.242
13529W        W85145   6.045  37.051  12.999
13530W        W85146   3.850   8.206  11.592
13531W        W85147  11.173  26.640  11.584
13532W        W85148  13.591  20.153   4.909
13533W        W85149  14.284  10.600  13.828
13534W        W85150   2.975  28.850   0.882
13535W        W85151  11.887  34.920  14.610
13536W        W85152  19.161  34.001  14.838
13537W        W85153  14.253  30.882  12.218
13538W        W85154  39.401  38.895   4.449
13539W        W85155  26.519   3.183  12.995
13540W        W85156   7.839  16.720   1.690
13541W        W85157  23.652  11.765  13.755
13542W        W85158  30.843  36.499   3.536
13543W        W85159   6.343  13.634  13.524
13544W        W85160  30.098   2.272  12.008
13545W        W85161  32.965   8.894   3.806
13546W        W85162  18.304  13.829   4.821
13547W        W85163  23.066  36.981  13.843
13548W        W85164  11.914  18.033   4.319
13549W        W85165  34.443  23.775  14.900
13550W        W85166  41.934  38.857  14.967
13551W        W85167  32.462  20.322  10.995
13552W        W85168   7.675   7.819   2.918
13553W        W85169  26.904  29.302   3.419
13554W        W85170  31.793  13.245  13.293
13555W        W85171  22.301   3.235   1.681
13556W        W85172   8.828  43.983   2.298
13557W        W85173   3.745  18.260   2.681
13558W        W85174  31.548  18.023  14.899
13559W        W85175  35.206  30.519  13.910
13560W        W85176   3.275  21.021   3.462
13561W        W85177  18.803  21.785  12.058
13562W        W85178  10.910  30.780   1.558
13563W        W85179   4.988  16.705  13.411
13564W        W85180  18.953  36.656  12.952
13565W        W85181  11.873  14.298   0.398
13566W        W85182  23.520  33.896   4.093
13567W        W85183  27.502  25.005  11.587
13568W        W85184  10.952   9.865  12.299
13569W        W85185  28.542  42.479   2.392
13570W        W85186   5.700  42.868   1.710
13571W        W85187  11.167  14.313  11.891
13572W        W85188   7.293  33.900  13.904
13573W        W85189  35.475  26.288  11.301
13574W        W85190  11.704  37.993   1.924
13575W        W85191  27.970  39.878  10.257
13576W        W85192  19.136   7.749   3.288
13577W        W85193   5.892  21.527   1.665
13578W        W85194  38.602   7.695   0.439
13579W        W85195   0.155   1.359   3.456
13580W        W85196  25.578  24.112   2.456
13581W        W85197  16.492  17.062   2.328
13582W        W85198  40.535  41.301   1.721
13583W        W85199  37.257  13.221  13.898
13584W        W85200  16.046   0.893  13.390
13585W        W85201  11.871  33.647   2.921
13586W        W85202   4.317  12.457  11.196
13587W        W85203  22.384  28.968  12.046
13588W        W85204   3.432   0.901   0.776
13589W        W85205  27.427  11.199  12.395
13590W        W85206  30.802  22.890   3.873
13591W        W85207  13.122  14.860   2.629
13592W        W85208  22.440  25.435   3.401
13593W        W85209  29.983  29.430  10.272
13594W        W85210  25.542  34.926  11.478
13595W        W85211  18.819  34.113   1.265
13596W        W85212  17.619  42.339  13.527
13597W        W85213  26.137  32.065  12.920
13598W        W85214  19.237  20.634   3.370
13599W        W85215  37.338  41.128  12.126
13600W        W85216  13.118  22.123   2.399
13601W        W85217  27.195  39.850   1.415
13602W        W85218  18.547  37.685  11.210
13603W        W85219   1.837  31.093   3.574
13604W        W85220  19.024  28.622  12.695
13605W        W85221   7.292  32.873  14.790
13606W        W85222  27.043  33.341   0.016
13607W        W85223  20.860  43.994   0.358
13608W        W85224  18.429  43.795  11.062
13609W        W85225  23.089   0.229  10.681
13610W        W85226  29.082  42.763   1.684
13611W        W85227  26.710  10.691   1.328
13612W        W85228  30.681  26.545   5.070
13613W        W85229  21.066  18.828   1.423
13614W        W85230  25.862  41.367  13.854
13615W        W85231  23.112  31.675  11.421
13616W        W85232   3.097  38.362   2.237
13617W        W85233  25.459   8.594   0.259
13618W        W85234  19.003  14.768  13.958
13619W        W85235  13.548  41.911  13.335
13620W        W85236   4.140  32.602  13.134
13621W        W85237  36.893  19.585   1.281
13622W        W85238  44.280  28.387   4.756
13623W        W85239  44.776  33.397   4.611
13624W        W85240  11.239  36.625  14.383
13625W        W85241  20.346  31.131  11.397
13626W        W85242  13.698   5.304   4.419
13627W        W85243  20.062  40.021  12.478
13628W        W85244  23.658   8.333   2.842
13629W        W85245  32.529  11.536   1.262
13630W        W85246  21.400  31.930  11.568
13631W        W85247  21.341   3.104  11.889
13632W        W85248   9.412  36.115  14.796
13633W        W85249   4.014  29.532  14.364
13634W        W85250   7.648  17.183  12.465
13635W        W85251  23.417  26.850   0.504
13636W        W85252  33.742  44.505   3.113
13637W        W85253  22.570   7.640   4.126
13638W        W85254  18.059  25.586   0.752
13639W        W85255  18.464  25.165  13.162
13640W        W85256  21.773  27.826  11.200
13641W        W85257   1.202  44.777   0.168
13642W        W85258  23.921  44.121  14.807
13643W        W85259  32.553  36.583  13.512
13644W        W85260  36.520  27.896  12.582
13645W        W85261  17.775  31.049   3.711
13646W        W85262  32.969  32.154   3.793
13647W        W85263   7.651  10.333  11.591
13648W        W85264  36.831  39.125   0.481
13649W        W85265  41.272  43.916   4.672
13650W        W85266  19.036   1.360  14.013
13651W        W85267  22.493  41.786   1.900
13652W        W85268  33.082  20.621   3.241
13653W        W85269  43.564  24.014  14.265
13654W        W85270  13.015  43.743  14.187
13655W        W85271  22.784  30.470  12.068
13656W        W85272  37.103   2.955  13.910
13657W        W85273  30.960   7.004   2.469
13658W        W85274  14.858  13.428   2.814
13659W        W85275   0.212  40.572   0.805
13660W        W85276  19.882  33.072   1.431
13661W        W85277  39.520  21.533   0.228
13662W        W85278  22.292  34.217   2.175
13663W        W85279   8.459  40.314  14.336
13664W        W85280  10.354   0.853   1.470
13665W        W85281  14.198  13.526  13.797
13666W        W85282  23.143  20.062   1.021
13667W        W85283  36.936  34.080   1.420
13668W        W85284   8.835  16.691  14.041
13669W        W85285  25.067   5.404  13.031
13670W        W85286  34.389  16.092   3.682
13671W        W85287  43.355  35.364  12.081
13672W        W85288   6.177  31.966  11.955
13673W        W85289  27.127   4.236  13.584
13674W        W85290  30.144  11.145   0.009
13675W        W85291  39.954  21.520   3.351
13676W        W85292   4.887  14.149   2.830
13677W        W85293   2.319   7.114  14.833
13678W        W85294  11.794   0.007   1.227
13679W        W85295  22.112  40.852  14.561
13680W        W85296  29.555  25.458  13.031
13681W        W85297  14.707   7.702   0.475
13682W        W85298  26.614   3.497  12.498
13683W        W85299  26.607  33.478  13.788
13684W        W85300  22.765   0.035  12.370
13685W        W85301   4.238  15.416   0.699
13686W        W85302  16.987  26.537   4.585
13687W        W85303  37.384  35.009  14.247
13688W        W85304   9.061  14.707   4.861
13689W        W85305  41.028  27.435   0.731
13690W        W85306  33.039   6.473   3.185
13691W        W85307  32.687   2.233   4.538
13692W        W85308   6.150  33.638  12.169
13693W        W85309   4.719  31.363   2.875
13694W        W85310  39.889  38.166  13.832
13695W        W85311   5.705  21.163   4.888
13696W        W85312   4.448  20.510   1.006
13697W        W85313  13.559  21.446   4.763
13698W        W85314   2.317  35.861   1.834
13699W        W85315  12.823   5.479  14.886
13700W        W85316  31.369  24.033  11.029
13701W        W85317   2.859  28.778   2.719
13702W        W85318  31.418  23.995  12.384
13703W        W85319  28.688  17.824   3.581
13704W        W85320  30.930  10.750  14.269
13705W        W85321  17.206  24.516  12.527
13706W        W85322  28.982   6.902   3.109
13707W        W85323  20.579  32.871   2.210
13708W        W85324  30.979  16.042  14.268
13709W        W85325   6.950   7.626  14.854
13710W        W85326  27.759  27.495  13.021
13711W        W85327  30.702  21.425   4.120
13712W        W85328  14.759  30.263  10.613
13713W        W85329  26.478  36.841  12.459
13714W        W85330  28.538   7.372  13.288
13715W        W85331   9.539  24.745  13.400
13716W        W85332  24.737  15.049   2.749
13717W        W85333  35.857   5.339   3.569
13718W        W85334   6.406   0.892  11.050
13719W        W85335   6.889  14.057   3.959
13720W        W85336  19.242  24.445  11.161
13721W        W85337  22.252   1.867   2.730
13722W        W85338  34.171  18.541   4.153
13723W        W85339   5.592  28.288  13.141
13724W        W85340  13.168  14.196  12.981
13725W        W85341   6.089  37.859   0.200
13726W        W85342  35.051   3.728  13.908
13727W        W85343  23.134  33.540  12.657
13728W        W85344  40.432  40.044  13.445
13729W        W85345  17.343  25.699  13.777
13730W        W85346  24.737  27.077   1.916
13731W        W85347  35.696  37.772  13.877
13732W        W85348  16.767  44.321   3.396
13733W        W85349  13.686  14.769  13.029
13734W        W85350  18.106   3.985   3.604
13735W        W85351  16.285   4.659   4.190
13736W        W85352   2.485  20.632  11.518
13737W        W85353  15.623  27.937   3.654
13738W        W85354  32.351  10.270  11.648
13739W        W85355   2.474  34.275  11.561
13740W        W85356   1.029  18.093  11.131
13741W        W85357  42.747  11.289   4.907
13742W        W85358  34.995   8.679  12.336
13743W        W85359  34.944  13.761   4.787
13744W        W85360  26.503  12.266  12.925
13745W        W85361  25.568  15.786  12.679
13746W        W85362   5.620  38.105   3.292
13747W        W85363  13.283  28.573   3.241
13748W        W85364  26.463  35.482  11.348
13749W        W85365   8.677  30.447   0.121
13750W        W85366   4.253   7.556  13.159
13751W        W85367  37.816  11.614  12.512
13752W        W85368   9.157  28.297  13.501
13753W        W85369   5.854   0.902  11.906
13754W        W85370  19.984  27.265   0.780
13755W        W85371  33.750  22.323  14.374
13756W        W85372  27.087  18.343   4.056
13757W        W85373   8.842  35.840  13.976
13758W        W85374   6.782  17.494  10.731
13759W        W85375  41.893  43.578  14.434
13760W        W85376  11.352  43.565   3.395
13761W        W85377  28.037  10.871   1.441
13762W        W85378  36.073   7.788   1.266
13763W        W85379  15.191   3.360   5.303
13764W        W85380  16.528  30.485   0.964
13765W        W85381   3.170  33.848  11.582
13766W        W85382  12.556   2.446   2.873
13767W        W85383   0.730   6.981  11.995
13768W        W85384   3.980   6.697   3.046
13769W        W85385  33.375  29.959   3.249
13770W        W85386   3.667  35.207  12.095
13771W        W85387   0.606  12.083  14.535
13772W        W85388  37.246   5.678   4.659
13773W        W85389  40.478  34.930  14.216
13774W        W85390  26.438   5.364   0.678
13775W        W85391  14.721  44.175  10.342
13776W        W85392  12.074   2.420   3.009
13777W        W85393  43.594  27.540   0.773
13778W        W85394  41.958  28.974  11.046
13779W        W85395   7.594  31.954   3.163
13780W        W85396  27.359  14.326   2.197
13781W        W85397   7.585  28.079  10.163
13782W        W85398  35.871  31.141   3.760
13783W        W85399  17.760  37.666  13.860
13784W        W85400  33.199  37.094   1.268
13785W        W85401  34.430  40.417  13.383
13786W        W85402  14.523   5.342  12.381
13787W        W85403  30.732  36.087   3.246
13788W        W85404   5.114  17.098   1.163
13789W        W85405  41.822   3.913   4.786
13790W        W85406  20.819  12.656   4.076
13791W        W85407   2.692  10.286   4.427
13792W        W85408  17.598   1.739  13.404
13793W        W85409   9.251  33.103  10.639
13794W        W85410  33.609  15.678  14.315
13795W        W85411  15.688  30.183  12.378
13796W        W85412   3.269  36.154  11.612
13797W        W85413   2.431  40.085   1.994
13798W        W85414  35.037  32.584   2.970
13799W        W85415  21.654  22.693   2.735
13800W        W85416  43.738   2.964   0.087
13801W        W85417  37.005  35.448   2.297
13802W        W85418  34.467  29.354   2.228
13803W        W85419  15.846  13.345   0.428
13804W        W85420   0.109  33.138   3.180
13805W        W85421   6.423  19.771   5.106
13806W        W85422   4.359  12.025   0.966
13807W        W85423  25.329  14.053  10.250
13808W        W85424  39.479  15.348  12.954
13809W        W85425   8.400   4.937  13.535
13810W        W85426  41.717   0.520   4.785
13811W        W85427  30.728  16.855   0.428
13812W        W85428  14.302  19.053   0.791
13813W        W85429  25.095  12.322  10.755
13814W        W85430  19.105   2.871  14.276
13815W        W85431  43.540   9.397   4.019
13816W        W85432  34.518  21.315  10.346
13817W        W85433   7.679  29.647   4.110
13818W        W85434   0.303   8.966  11.594
13819W        W85435   4.184   3.575  13.583
13820W        W85436  22.112   7.923   4.148
13821W        W85437   3.041   4.016   4.155
13822W        W85438  33.883   4.881  13.389
13823W        W85439  26.941  26.125   0.947
13824W        W85440   8.325   1.834  10.721
13825W        W85441  33.929  39.794  10.462
13826W        W85442  30.179  44.258  11.956
13827W        W85443  12.201  20.655   3.356
13828W        W85444  27.112  43.269   0.002
13829W        W85445   9.087  14.216   1.889
13830W        W85446  20.848  18.151  10.648
13831W        W85447  17.088  41.527  11.384
13832W        W85448   5.136  20.249   3.797
13833W        W85449   5.698  41.357   1.746
13834W        W85450  25.964   9.369  12.487
13835W        W85451   8.243   2.116   4.352
13836W        W85452   3.239   6.913   2.276
13837W        W85453  20.769  15.153  13.830
13838W        W85454  36.994  18.254   2.224
13839W        W85455  11.677  29.133   3.576
13840W        W85456   7.446  20.260  12.977
13841W        W85457  17.578   9.377   0.434
13842W        W85458  31.876  41.575  14.739
13843W        W85459  16.010   9.171   2.295
13844W        W85460   4.911  22.039  13.745
13845W        W85461  23.057  21.016   4.675
13846W        W85462  23.538  29.136  13.760
13847W        W85463  36.820   6.460  11.529
13848W        W85464   3.518   4.904  12.068
13849W        W85465  10.679  33.682  13.528
13850W        W85466  12.143  14.022   2.732
13851W        W85467  14.838   6.348   5.379
13852W        W85468  19.286  44.218   2.337
13853W        W85469  40.028  10.199   3.429
13854W        W85470  27.201  24.385   2.435
13855W        W85471  38.399  26.799   4.123
13856W        W85472  22.694  15.111   4.578
13857W        W85473  39.093  43.288  12.287
13858W        W85474  21.634   7.630   0.858
13859W        W85475  40.542  20.620   0.209
13860W        W85476  32.024  21.276  13.042
13861W        W85477  37.422  34.015   1.277
13862W        W85478  22.485  11.321  14.302
13863W        W85479  24.799  18.532  14.070
13864W        W85480  38.508  38.395   1.623
13865W        W85481  19.460   8.598  12.769
13866W        W85482  30.788  18.589   3.110
13867W        W85483  32.843  21.121   3.144
13868W        W85484  26.615   3.947   0.624
13869W        W85485  32.637   4.483   1.988
13870W        W85486  31.117  29.601  11.757
13871W        W85487  27.072  42.808  11.443
13872W        W85488  13.579  41.443   1.649
13873W        W85489  21.774  32.287   3.802
13874W        W85490  15.051  18.420   0.291
13875W        W85491   5.647  10.113   0.495
13876W        W85492  23.538  33.658   1.856
13877W        W85493  41.980   1.118   2.671
13878W        W85494  39.978  42.802  14.450
13879W        W85495  42.193   7.385  12.639
13880W        W85496  27.412  15.820   4.863
13881W        W85497  28.662  38.736   1.907
13882W        W85498  29.100  15.270  10.088
13883W        W85499  28.075   5.675  14.782
13884W        W85500  12.888  18.626   0.043
13885W        W85501  10.225  41.037  12.595
13886W        W85502  16.730  29.524  11.952
13887W        W85503   8.193  24.275   0.212
13888W        W85504   2.277  44.792  12.409
13889W        W85505   2.723  20.164   3.321
13890W        W85506   4.276   8.024   3.589
13891W        W85507  38.055  14.931   3.399
13892W        W85508  20.175  35.511   2.686
13893W        W85509  21.094  44.965   4.916
13894W        W85510  40.773   4.155  11.971
13895W        W85511  34.246  29.366   3.566
13896W        W85512  33.277  23.027   4.231
13897W        W85513  42.794  21.299   2.709
13898W        W85514  14.714  29.300   1.457
13899W        W85515  19.180  12.770  11.613
13900W        W85516  44.338  33.638   3.748
13901W        W85517  37.402  14.565   1.169
13902W        W85518  31.471   9.183  11.648
13903W        W85519   6.328   3.132   4.162
13904W        W85520  43.219   4.371   3.710
13905W        W85521  41.334  38.462   4.427
13906W        W85522  42.044  21.212   5.086
13907W        W85523  22.275  20.546   2.259
13908W        W85524  28.482  33.544  10.257
13909W        W85525  29.453  14.974  13.606
13910W        W85526  26.006  20.306  11.378
13911W        W85527  38.771  42.484  11.329
13912W        W85528  24.167  21.160  12.515
13913W        W85529  44.476  43.865   2.656
13914W        W85530  17.293  44.472  10.521
13915W        W85531  26.297  34.789   9.850
13916W        W85532  22.827  17.551  14.792
13917W        W85533  44.432  14.523  14.426
13918W        W85534  29.708  39.187  11.573
13919W        W85535   5.914  26.964   2.949
13920W        W85536  32.350  17.193  11.084
13921W        W85537   8.336  14.634  12.033
13922W        W85538  19.002   4.252   3.769
13923W        W85539  39.865  38.616  14.085
13924W        W85540   4.162  14.254   2.214
13925W        W85541  36.879  27.011  11.620
13926W        W85542  40.405  33.626  11.576
13927W        W85543  42.286  23.991  13.884
13928W        W85544  21.831  40.374   1.707
13929W        W85545  17.729  22.428  13.349
13930W        W85546  21.515  16.610  12.003
13931W        W85547  11.812  15.554  11.085
13932W        W85548  39.051  35.291   2.853
13933W        W85549  27.154  21.980   3.155
13934W        W85550  38.276   5.694  12.347
13935W        W85551  43.097  11.244   1.960
13936W        W85552  35.595  17.134   2.866
13937W        W85553  39.511  37.561   2.756
13938W        W85554   7.643  36.259   3.159
13939W        W85555  13.620  39.950   4.559
13940W        W85556  34.153   3.524  12.426
13941W        W85557   4.918   6.162   5.517
13942W        W85558  13.099   7.873   3.665
13943W        W85559  23.159  33.573  14.054
13944W        W85560  40.620   3.075  12.840
13945W        W85561  36.354  20.225   4.039
13946W        W85562  39.077   3.756  14.037
13947W        W85563   7.723  37.709  14.513
13948W        W85564   2.349  13.084   1.329
13949W        W85565   8.876   9.823   4.889
13950W        W85566  12.892  11.093  13.058
13951W        W85567  11.283   3.187   3.252
13952W        W85568   1.331   5.574   2.880
13953W        W85569  43.771  30.987   1.745
13954W        W85570  30.657  23.071  12.997
13955W        W85571  11.704  29.644   1.820
13956W        W85572   9.643  40.080  10.747
13957W        W85573  36.480  28.491   4.565
13958W        W85574  35.152   8.284   0.582
13959W        W85575  26.122  15.883  10.884
13960W        W85576  11.244  39.478   2.005
13961W        W85577  23.940  28.065  14.920
13962W        W85578  38.368  19.317  14.087
13963W        W85579   9.377  26.102   4.173
13964W        W85580   6.653  43.991  10.865
13965W        W85581   0.853  22.452  11.617
13966W        W85582  43.929   5.182  12.516
13967W        W85583  44.813  28.225  12.119
13968W        W85584  31.827  42.524  12.483
13969W        W85585  36.562  33.495   4.298
13970W        W85586  28.581  21.686  10.427
13971W        W85587  16.561  41.965   3.583
13972W        W85588  19.554  37.002  11.575
13973W        W85589  44.646  32.032   5.112
13974W        W85590  15.574  27.208  12.518
13975W        W85591  42.918   3.543   3.322
13976W        W85592   3.818  40.554   0.944
13977W        W85593  21.073  27.048   3.229
13978W        W85594   4.864  38.030   1.167
13979W        W85595  29.595  13.423  10.704
13980W        W85596  26.628  20.099  13.890
13981W        W85597  24.362   2.264  12.943
13982W        W85598  33.887  22.502   0.791
13983W        W85599  28.186  24.045   1.277
13984W        W85600  15.562  12.109   4.180
13985W        W85601   6.005   3.002   2.255
13986W        W85602  36.471  17.802   1.452
13987W        W85603   3.371  30.555   4.607
13988W        W85604  26.019  19.520   3.232
13989W        W85605  44.318   5.526   0.060
13990W        W85606  29.160  33.459  11.641
13991W        W85607  18.755   1.085  13.664
13992W        W85608  41.307   0.818   4.578
13993W        W85609  28.735  41.051   1.911
13994W        W85610  15.543  18.142   4.296
13995W        W85611  34.552  10.223   5.155
13996W        W85612  29.332  38.938   4.658
13997W        W85613  36.545  34.451   3.359
13998W        W85614  32.943  10.633   4.297
13999W        W85615  33.895   7.067   1.412
14000W        W85616  17.269   9.081   4.180
14001W        W85617  26.989  12.569   0.384
14002W        W85618  37.546  32.910   1.678
14003W        W85619  28.566  40.274   3.146
14004W        W85620  44.457  39.522   4.204
14005W        W85621  36.924  44.434   3.212
14006W        W85622  32.137  16.672   3.275
14007W        W85623   4.506  11.722   3.555
14008W        W85624   9.815   7.562   2.731
14009W        W85625  27.555  40.530   0.671
14010W        W85626   7.918   3.952  12.873
14011W        W85627  37.332  33.339  14.891
14012W        W85628  40.193   0.168   0.895
14013W        W85629  19.349  16.104  13.934
14014W        W85630  40.025  41.207  14.328
14015W        W85631  17.389  18.186  13.515
14016W        W85632  13.663  36.344  14.519
14017W        W85633  12.080  28.412   3.175
14018W        W85634   9.560  35.231   0.924
14019W        W85635   1.907  28.526  11.230
14020W        W85636  22.942   4.743  13.783
14021W        W85637  20.097   6.963   4.664
14022W        W85638  16.805  32.902  11.087
14023W        W85639  31.934  30.645   5.080
14024W        W85640  17.265  13.868  14.028
14025W        W85641   6.260  42.082  11.163
14026W        W85642  27.206  41.935  14.285
14027W        W85643  17.031  27.377   1.087
14028W        W85644  24.547  23.918   4.611
14029W        W85645  31.578  36.614   4.800
14030W        W85646  31.623  38.634  14.956
14031W        W85647  24.550  35.950  14.997
14032W        W85648  28.894  34.748  12.121
14033W        W85649  21.211  40.035   0.639
14034W        W85650  32.396  10.629   2.342
14035W        W85651  21.184  14.547   1.270
14036W        W85652  31.956  25.306  14.374
14037W        W85653   7.702  17.396  10.703
14038W        W85654  35.813  29.850  14.233
14039W        W85655  34.747  36.728  11.145
14040W        W85656  26.941  38.423   1.802
14041W        W85657  19.193  18.197  14.758
14042W        W85658  43.677  28.451   0.270
14043W        W85659  35.912  31.833  12.836
14044W        W85660  20.274   2.980  11.583
14045W        W85661  22.003   0.941   0.838
14046W        W85662   0.477  16.490  13.935
14047W        W85663  33.043  38.496  13.974
14048W        W85664  25.253   9.060  14.861
14049W        W85665  14.548  38.079   5.141
14050W        W85666   7.733  28.656   2.230
14051W        W85667   3.975  12.351  13.840
14052W        W85668  22.692  14.691  11.069
14053W        W85669  19.612  16.414   4.170
14054W        W85670  39.736   9.913   2.663
14055W        W85671   7.685  43.556  14.933
14056W        W85672  11.244   8.517  10.972
14057W        W85673  27.015  22.558   4.013
14058W        W85674  19.434   5.097   2.844
14059W        W85675  39.431  34.085  13.563
14060W        W85676   7.603  15.735  13.460
14061W        W85677  30.790   7.928  11.539
14062W        W85678  24.578  30.155  13.575
14063W        W85679  30.490   3.392   4.096
14064W        W85680  27.749  15.085  11.094
14065W        W85681   4.332  21.633  14.230
14066W        W85682  12.236  40.434  10.662
14067W        W85683   0.490  13.614   0.380
14068W        W85684  25.470  36.301  12.834
14069W        W85685  31.503  44.385  14.445
14070W        W85686  24.635  25.762  12.486
14071W        W85687  39.534  36.945   1.852
14072W        W85688  37.651   0.754   2.009
14073W        W85689  34.270  27.400   3.040
14074W        W85690   6.759  15.826   4.647
14075W        W85691   1.272   4.972   0.794
14076W        W85692  43.269  27.976   5.378
14077W        W85693  24.498   9.140   3.538
14078W        W85694  26.977  23.011   3.185
14079W        W85695   5.724   2.355   0.373
14080W        W85696  40.513   0.035  12.379
14081W        W85697  11.760  40.075  11.366
14082W        W85698  33.026  19.557  13.367
14083W        W85699  35.938  36.041   4.702
14084W        W85700  35.651  25.054   0.702
14085W        W85701   9.783  30.117   4.017
14086W        W85702  33.622  38.398   0.226
14087W        W85703  29.561  31.629  11.980
14088W        W85704   9.126  42.260  14.910
14089W        W85705  22.744  28.121  13.465
14090W        W85706  22.716  13.859  14.852
14091W        W85707  18.259   0.702   3.856
14092W        W85708  10.315  43.731  14.566
14093W        W85709  40.922  20.943  10.279
14094W        W85710  32.412  20.353   4.817
14095W        W85711   5.896  31.780   0.864
14096W        W85712  29.181  42.855  13.970
14097W        W85713  24.328  24.619  10.985
14098W        W85714   8.748   2.881  11.486
14099W        W85715  10.382  26.112  10.511
14100W        W85716  35.425  40.063   4.926
14101W        W85717  17.022  41.471  14.330
14102W        W85718  22.556  18.487   3.708
14103W        W85719  23.749   2.593   0.715
14104W        W85720  42.834   8.652   0.965
14105W        W85721   0.696  23.517   4.476
14106W        W85722   1.540  34.862   3.867
14107W        W85723   4.838  33.824   0.759
14108W        W85724   5.685  22.147   0.333
14109W        W85725   2.968   7.604  10.807
14110W        W85726   5.577  14.128   1.255
14111W        W85727  13.917  44.744  14.233
14112W        W85728  37.338  36.301  12.657
14113W        W85729   0.352  18.665   3.652
14114W        W85730  11.097   2.565  10.654
14115W        W85731   3.780   0.750  11.997
14116W        W85732  12.701  25.546  11.139
14117W        W85733  29.608  40.052   1.820
14118W        W85734  19.159  12.783   0.019
14119W        W85735   5.255   9.901   3.776
14120W        W85736  15.215   3.653   2.874
14121W        W85737  43.498  34.284   5.085
14122W        W85738  16.303  27.712  11.507
14123W        W85739  33.804  30.109  13.849
14124W        W85740  19.216   1.708   4.203
14125W        W85741  32.125  42.950   0.508
14126W        W85742  24.622   8.717  12.400
14127W        W85743  37.133  36.190  13.847
14128W        W85744  27.673  29.726  10.720
14129W        W85745  19.725   2.508   1.971
14130W        W85746  22.216  40.192  14.366
14131W        W85747  30.327  12.441  14.461
14132W        W85748  19.224  10.434  13.079
14133W        W85749  38.365  13.684   9.823
14134W        W85750   9.827  25.172  13.318
14135W        W85751  11.372  39.381   1.453
14136W        W85752  30.224  29.617  10.753
14137W        W85753  14.252  40.377  10.665
14138W        W85754  27.180  12.275  11.458
14139W        W85755  16.715  11.667  13.387
14140W        W85756  24.585  33.787  11.114
14141W        W85757  17.377  35.233   1.264
14142W        W85758  34.128   8.112   2.252
14143W        W85759  18.570   2.809   4.530
14144W        W85760   8.987  39.437   3.756
14145W        W85761  14.789  15.657  13.528
14146W        W85762  21.974  31.965  13.852
14147W        W85763  31.523  28.263  14.540
14148W        W85764   6.191  27.948  10.765
14149W        W85765  22.471  33.019  11.610
14150W        W85766   3.832  32.199  13.063
14151W        W85767  20.462  22.411  14.808
14152W        W85768  42.063   1.977  11.669
14153W        W85769  38.808  19.783   1.923
14154W        W85770  23.931  37.912  12.005
14155W        W85771  28.691  43.701  11.291
14156W        W85772   4.568  13.927  10.170
14157W        W85773  13.776  16.355  13.820
14158W        W85774  23.243  26.466  11.999
14159W        W85775  11.430   2.781   2.322
14160W        W85776  31.394  23.187  13.415
14161W        W85777  16.528   1.428   2.766
14162W        W85778  19.737  10.073   1.341
14163W        W85779  27.083  15.572  11.232
14164W        W85780  17.043  27.675   2.783
14165W        W85781  11.523  14.851  11.617
14166W        W85782  10.365  41.784  11.099
14167W        W85783   7.403  32.679   1.019
14168W        W85784  16.854   5.688  13.829
14169W        W85785   5.693  36.800   2.608
14170W        W85786   2.379  34.341   4.980
14171W        W85787  41.781   9.582  12.955
14172W        W85788  30.987   6.409  13.583
14173W        W85789  30.308  19.584   0.554
14174W        W85790  13.738  15.386   1.797
14175W        W85791  10.356  42.710  11.077
14176W        W85792  22.104   5.612  11.582
14177W        W85793  30.985  38.044  12.920
14178W        W85794  16.190  22.762   3.387
14179W        W85795  43.788  23.028   4.240
14180W        W85796  17.781  37.357   1.274
14181W        W85797   5.721  25.677   0.982
14182W        W85798  35.591   4.288  11.616
14183W        W85799  38.829  19.728  13.596
14184W        W85800  14.074   8.724   2.109
14185W        W85801   6.344  12.281   0.845
14186W        W85802  40.240  44.416   1.225
14187W        W85803   3.300  15.161  13.938
14188W        W85804  13.504  11.553   2.266
14189W        W85805  23.099  40.277  11.377
14190W        W85806  15.244   5.197  13.463
14191W        W85807  21.020  10.974   0.364
14192W        W85808  18.509  33.696   3.865
14193W        W85809  12.570   8.334  13.974
14194W        W85810  39.110  42.327   0.017
14195W        W85811  42.905  20.524  14.488
14196W        W85812  38.412   2.235   2.358
14197W        W85813  13.726   0.396  11.396
14198W        W85814   2.391   4.362   2.865
14199W        W85815  36.072  14.126  11.885
14200W        W85816   5.868  29.423  11.242
14201W        W85817  30.951  33.136   3.658
14202W        W85818  42.965   7.594   3.178
14203W        W85819   7.270   2.196  14.334
14204W        W85820   1.781  25.604  10.488
14205W        W85821  32.689  30.299   5.496
14206W        W85822   6.738  17.154   1.377
14207W        W85823  39.467  16.497  10.707
14208W        W85824  27.238   9.260  12.994
14209W        W85825  25.151   8.657   1.458
14210W        W85826  32.338  23.974  14.063
14211W        W85827  23.055  41.295  14.512
14212W        W85828  42.527  15.108  11.466
14213W        W85829  25.703   4.257  12.336
14214W        W85830  43.953  12.830   3.180
14215W        W85831   9.418  12.536   9.931
14216W        W85832  40.909  43.720  14.383
14217W        W85833  39.921  32.581   4.511
14218W        W85834  23.667   4.413  12.512
14219W        W85835   1.377  26.612   3.885
14220W        W85836  10.812  43.562  14.411
14221W        W85837  17.910   6.321   4.234
14222W        W85838  15.472  13.792  14.883
14223W        W85839  42.883  41.852   0.012
14224W        W85840  12.132  14.033  10.725
14225W        W85841   3.329   1.251   4.117
14226W        W85842  27.592  36.188  14.288
14227W        W85843  16.148  36.343  11.315
14228W        W85844  41.381  32.689  10.844
14229W        W85845   7.443  17.389   0.919
14230W        W85846  39.452  11.622   4.544
14231W        W85847  37.581   5.771   3.637
14232W        W85848  41.272  36.560   4.173
14233W        W85849   1.208  10.232   4.420
14234W        W85850   1.346  22.702   0.133
14235W        W85851   7.327  24.514   4.708
14236W        W85852  11.687  33.786  12.521
14237W        W85853   4.722  13.235   0.380
14238W        W85854   3.833   8.256  14.795
14239W        W85855  16.592  30.506   2.934
14240W        W85856  43.524  15.493   4.274
14241W        W85857  41.719  28.844   9.867
14242W        W85858  12.222  31.063   3.786
14243W        W85859  43.915   0.424   2.612
14244W        W85860  36.905  35.069  14.496
14245W        W85861  37.552   4.335  12.880
14246W        W85862  26.429  14.272   2.244
14247W        W85863   1.331  34.983  13.523
14248W        W85864  35.318  40.066  11.982
14249W        W85865  24.470  25.419   4.649
14250W        W85866  40.448  36.608  11.568
14251W        W85867  34.766  16.763   2.741
14252W        W85868  35.849  37.464   0.006
14253W        W85869  13.701   0.368  10.392
14254W        W85870  40.419   7.733   1.249
14255W        W85871  42.087  41.014   4.333
14256W        W85872  11.867  10.368  10.850
14257W        W85873  27.521   8.872   2.448
14258W        W85874  29.435  14.813   0.332
14259W        W85875  25.458  40.904   3.164
14260W        W85876  40.358  29.362   2.334
14261W        W85877   0.982  33.546  14.231
14262W        W85878  28.182  18.471  13.959
14263W        W85879   7.898  35.522  12.929
14264W        W85880  42.878  31.698   2.767
14265W        W85881  23.709  18.120  13.176
14266W        W85882  26.768  17.144   0.864
14267W        W85883  15.598  43.798  12.479
14268W        W85884  43.912  29.576  10.551
14269W        W85885  22.756  32.089   2.715
14270W        W85886  34.806   6.407   1.778
14271W        W85887  10.757   6.104  13.312
14272W        W85888  41.883  31.088  12.220
14273W        W85889  34.013   1.764  12.903
14274W        W85890  17.649  39.840  10.770
14275W        W85891  19.287  35.287   2.738
14276W        W85892  31.929  41.937   3.372
14277W        W85893  14.105  27.337   0.735
14278W        W85894  25.878  39.185   3.749
14279W        W85895   3.418  10.555   1.047
14280W        W85896  32.116  28.001  14.900
14281W        W85897  16.946   8.929  11.022
14282W        W85898  10.583   9.288   4.573
14283W        W85899  24.686  44.768  14.607
14284W        W85900  33.444  21.789   0.018
14285W        W85901   8.835   9.470  13.637
14286W        W85902  28.395   8.217  11.049
14287W        W85903  26.453  38.732  11.171
14288W        W85904   9.685  13.169   0.263
14289W        W85905  18.982  34.609   4.625
14290W        W85906   7.565   2.144  12.579
14291W        W85907  16.099  44.764   3.769
14292W        W85908   0.560  29.115   0.901
14293W        W85909  32.780  30.479  11.324
14294W        W85910   8.643  28.201   4.987
14295W        W85911   6.378  33.664  14.986
14296W        W85912  39.362  37.045   3.362
14297W        W85913  21.736  33.947  12.074
14298W        W85914  19.683   5.285  12.128
14299W        W85915  24.347  28.170  13.050
14300W        W85916  14.601  30.157   2.407
14301W        W85917  39.994  17.129  12.808
14302W        W85918  38.772   6.290   1.872
14303W        W85919  40.103  37.125  11.202
14304W        W85920  31.669  37.469   4.579
14305W        W85921   0.416   5.194  11.095
14306W        W85922  13.683  29.632   4.580
14307W        W85923  21.692   9.890   3.687
14308W        W85924  31.580   3.330  12.677
14309W        W85925  37.257   0.782  14.002
14310W        W85926  35.882   9.515  12.876
14311W        W85927   3.469  20.083   4.703
14312W        W85928  39.293  15.507  11.572
14313W        W85929  27.407  44.751   0.953
14314W        W85930  25.861  16.959  14.133
14315W        W85931   5.554  35.076   3.668
14316W        W85932   4.452  21.112  11.922
14317W        W85933  22.009  33.021  14.460
14318W        W85934   9.626  40.323   4.612
14319W        W85935  44.742  40.488  11.634
14320W        W85936  33.898  42.449  12.459
14321W        W85937  32.793   6.225  11.623
14322W        W85938   4.756  12.349  11.431
14323W        W85939  24.002  42.286  10.710
14324W        W85940  35.166  19.682  11.962
14325W        W85941  27.455  24.173   2.843
14326W        W85942  18.156  25.476   1.257
14327W        W85943   9.281   6.475  13.881
14328W        W85944  38.018  19.279   1.773
14329W        W85945  38.057   6.931   2.212
14330W        W85946  37.023  39.818  13.155
14331W        W85947  39.719  30.835  11.560
14332W        W85948  40.613  19.755   3.719
14333W        W85949   3.732  10.877  11.623
14334W        W85950   2.166  27.267  14.035
14335W        W85951   8.740  28.420  12.796
14336W        W85952  25.530   4.452  11.483
14337W        W85953  14.798   5.795  13.988
14338W        W85954  25.201   2.389  12.258
14339W        W85955  10.697   7.334   4.737
14340W        W85956  21.102  31.133   3.639
14341W        W85957  15.613  13.285  12.850
14342W        W85958  44.453  30.661  11.256
14343W        W85959  34.433  12.404  10.733
14344W        W85960  40.107  39.862  11.565
14345W        W85961  26.928  14.272   4.252
14346W        W85962  30.952  20.100  10.349
14347W        W85963  17.559  12.721  14.782
14348W        W85964  11.159  44.067  12.097
14349W        W85965  14.364  40.001   2.197
14350W        W85966  18.829   6.995  11.022
14351W        W85967   1.267  27.890   2.220
14352W        W85968  34.424   4.138   0.649
14353W        W85969   1.465   6.462   0.746
14354W        W85970  24.245   2.049  13.532
14355W        W85971  29.926  42.062  14.766
14356W        W85972  24.207  41.472  11.649
14357W        W85973  11.673  14.104  12.004
14358W        W85974  15.072  29.123   1.832
14359W        W85975  33.478   6.188   2.129
14360W        W85976  34.626  36.566   0.270
14361W        W85977   2.268  42.859  10.784
14362W        W85978  42.069   1.485  10.793
14363W        W85979   7.057  37.960  11.443
14364W        W85980   2.697  39.825   0.717
14365W        W85981  27.031   6.679   1.831
14366W        W85982   1.331  20.742   4.387
14367W        W85983  31.045  18.240   4.738
14368W        W85984  31.436  28.866  11.488
14369W        W85985  21.124  23.450   3.086
14370W        W85986   0.172  39.551  12.949
14371W        W85987  13.001   5.282   0.319
14372W        W85988  42.362  40.398  13.270
14373W        W85989  39.234   2.649   2.719
14374W        W85990  36.093  24.602   4.550
14375W        W85991  14.619  14.536  10.780
14376W        W85992  19.210  17.544   4.884
14377W        W85993   9.030  44.373   1.823
14378W        W85994  20.282  41.328   0.027
14379W        W85995  23.014  41.419  10.733
14380W        W85996   5.995   0.755   1.392
14381W        W85997   6.217  12.384   2.719
14382W        W85998  11.352  42.735  13.746
14383W        W85999  17.159  44.079   4.705
14384W        W86000  43.362  24.239   3.141
14385W        W86001  29.702  26.909  10.745
14386W        W86002   0.199  33.563   0.243
14387W        W86003  39.454  27.024   2.297
14388W        W86004  37.684  43.398  12.580
14389W        W86005  23.185   4.331  12.807
14390W        W86006  25.556  22.441   0.290
14391W        W86007   0.711  33.095   3.742
14392W        W86008  42.377  37.866   3.660
14393W        W86009  34.895  14.859   3.325
14394W        W86010  26.041  17.133   0.077
14395W        W86011  24.045  36.771   0.902
14396W        W86012   3.722  44.374   3.999
14397W        W86013  41.983   5.559  14.054
14398W        W86014  24.094  41.984  13.842
14399W        W86015  33.434  35.196  13.338
14400W        W86016  32.137  34.571   3.790
14401W        W86017  32.425  22.243  11.048
14402W        W86018  41.401  12.044  12.791
14403W        W86019  25.967  25.155  11.504
14404W        W86020  37.996  11.227   5.325
14405W        W86021  18.599  42.826   2.322
14406W        W86022  18.702   0.291   2.663
14407W        W86023  17.180  20.535   3.957
14408W        W86024  17.303  24.956   2.536
14409W        W86025  14.359  36.967  12.010
14410W        W86026  39.075  33.491   0.379
14411W        W86027  33.989  29.459  14.332
14412W        W86028   5.802  40.251  13.762
14413W        W86029  35.314   5.409  14.954
14414W        W86030   6.784  34.857  13.587
14415W        W86031  41.532  15.759  11.960
14416W        W86032  14.529  42.379   0.534
14417W        W86033  24.170  12.675   2.131
14418W        W86034  31.436  24.438  13.861
14419W        W86035  14.492  18.679   4.676
14420W        W86036   3.565  37.550  14.987
14421W        W86037  40.280  26.245   1.016
14422W        W86038  31.682  11.327  12.822
14423W        W86039  37.625   1.677   1.769
14424W        W86040  24.144  38.122   2.212
14425W        W86041  14.584   7.190   1.328
14426W        W86042  24.012  37.286   3.495
14427W        W86043  14.115  37.628  12.573
14428W        W86044  16.256  41.877   3.170
14429W        W86045  44.258  39.295   4.641
14430W        W86046   7.099  38.798  13.034
14431W        W86047  13.693  33.966   1.683
14432W        W86048  18.587   2.534   4.951
14433W        W86049  15.360   0.139   3.899
14434W        W86050  20.729  39.003  12.963
14435W        W86051  42.524  17.165  11.208
14436W        W86052  26.940  31.857   3.061
14437W        W86053  25.915  28.933  11.464
14438W        W86054  36.557  11.200   5.058
14439W        W86055  27.697   2.663  12.892
14440W        W86056  15.903  43.337   4.094
14441W        W86057  19.007  16.610  13.033
14442W        W86058   9.197  24.732  11.593
14443W        W86059  17.710  35.311  12.065
14444W        W86060   3.104   0.446  10.286
14445W        W86061  19.706  18.548  12.436
14446W        W86062   0.909  24.179  14.856
14447W        W86063  28.094  44.113   3.017
14448W        W86064  12.677  35.598  11.064
14449W        W86065  35.935  22.175   2.332
14450W        W86066  18.776  27.604   2.897
14451W        W86067   3.973  37.776  12.477
14452W        W86068  35.053  38.380  10.400
14453W        W86069  36.621   5.709   3.356
14454W        W86070  36.724  12.217  11.029
14455W        W86071  22.602  17.884  10.590
14456W        W86072  19.775  33.806  11.684
14457W        W86073  17.191  11.790  12.650
14458W        W86074  26.469  21.700   1.837
14459W        W86075  24.057  38.809  14.719
14460W        W86076  33.424  13.512   2.156
14461W        W86077  18.545  27.661   0.799
14462W        W86078   4.352  29.932  13.926
14463W        W86079  17.718  44.741   1.427
14464W        W86080   0.060  28.738  12.834
14465W        W86081  15.712  21.959   0.068
14466W        W86082  11.598  36.587   1.810
14467W        W86083  40.060   4.509   1.151
14468W        W86084  20.653   4.945   5.132
14469W        W86085   4.956  14.096   9.822
14470W        W86086   5.848  27.997  12.802
14471W        W86087  39.096  35.837   3.731
14472W        W86088   2.776   7.218   2.338
14473W        W86089  23.535  42.547   1.954
14474W        W86090   9.418  20.028   4.607
14475W        W86091  10.346   2.362  14.083
14476W        W86092   0.900  39.573   4.183
14477W        W86093   6.841  37.940   0.194
14478W        W86094  34.937  35.817   3.099
14479W        W86095   7.441  39.494   3.180
14480W        W86096  26.315  23.575  13.701
14481W        W86097   0.037  42.481   0.066
14482W        W86098  37.828  18.310  12.970
14483W        W86099  31.823  25.558   2.942
14484W        W86100  16.153   5.461   3.775
14485W        W86101  12.392  30.563   3.818
14486W        W86102  31.236  30.331   0.884
14487W        W86103  20.717  19.639   3.189
14488W        W86104   8.164  14.300  14.037
14489W        W86105  24.947   7.231  13.350
14490W        W86106  13.694   1.245  13.020
14491W        W86107  19.237  21.493   4.021
14492W        W86108   8.481   6.874   3.654
14493W        W86109  42.287  14.583  12.175
14494W        W86110  10.374   6.460  14.038
14495W        W86111  33.663  21.746   0.482
14496W        W86112  25.956   7.415  12.489
14497W        W86113   8.338  42.076   4.014
14498W        W86114  18.487  10.305  10.223
14499W        W86115   6.216  30.303  11.460
14500W        W86116  21.879  28.884  11.964
14501W        W86117  16.846   7.284  10.190
14502W        W86118  35.886  12.446  14.587
14503W        W86119  37.562   2.585  11.854
14504W        W86120   7.738  12.686  13.935
14505W        W86121   8.895  19.732   4.743
14506W        W86122  12.087   4.488   9.549
14507W        W86123  15.274   7.918   4.110
14508W        W86124  25.007  17.172   0.221
14509W        W86125  42.458  30.407   3.167
14510W        W86126  40.498  27.910  13.424
14511W        W86127   4.595  30.465   4.289
14512W        W86128   7.414  32.108   0.319
14513W        W86129  39.904  13.851  12.879
14514W        W86130  11.958  39.922  13.921
14515W        W86131  28.892  18.332  10.577
14516W        W86132  29.427  31.908  12.979
14517W        W86133  37.582  10.904   0.388
14518W        W86134   3.800  22.711   3.858
14519W        W86135   3.915   7.618   3.785
14520W        W86136  21.988  41.057   1.368
14521W        W86137  30.489  33.381   2.945
14522W        W86138   4.220  25.877  10.686
14523W        W86139  15.613  14.980   5.512
14524W        W86140  27.837  41.892  13.043
14525W        W86141  42.797  13.751  14.865
14526W        W86142  12.052  41.939  14.983
14527W        W86143  13.334   9.876   1.847
14528W        W86144  31.558  37.489  13.453
14529W        W86145  19.194  20.601  13.841
14530W        W86146  12.716   2.622   2.016
14531W        W86147  39.879   4.388  13.947
14532W        W86148  20.601   9.209  11.564
14533W        W86149   5.732   4.635  13.956
14534W        W86150  33.975  15.547   2.772
14535W        W86151  44.763  20.120   1.936
14536W        W86152  34.094  30.615   3.229
14537W        W86153  33.590   0.243   4.499
14538W        W86154  27.300   9.689  10.453
14539W        W86155  12.747  21.367  12.902
14540W        W86156  40.519  25.782   0.945
14541W        W86157  20.239   2.244   3.140
14542W        W86158   4.712  12.172   3.424
14543W        W86159  30.387  42.470   1.831
14544W        W86160  12.277  30.395  13.081
14545W        W86161   7.685  18.339  11.666
14546W        W86162   5.260  37.403  11.153
14547W        W86163  18.554  23.008  11.482
14548W        W86164  36.982  37.578   2.181
14549W        W86165  13.565  43.025   3.746
14550W        W86166  12.088   5.368   1.481
14551W        W86167  43.533  19.038  11.616
14552W        W86168  39.496   4.382  11.486
14553W        W86169  20.952  15.893  10.607
14554W        W86170   4.231  11.104   0.797
14555W        W86171  32.565  35.582   4.293
14556W        W86172  29.910   9.771  13.375
14557W        W86173  26.458  14.612   1.285
14558W        W86174  36.830   5.033  10.219
14559W        W86175  21.748  39.268  11.955
14560W        W86176  36.700  22.178   1.287
14561W        W86177   5.762  34.309  11.168
14562W        W86178  14.894  40.885  11.213
14563W        W86179  27.723  28.246   0.672
14564W        W86180  38.070  43.905  10.697
14565W        W86181  26.229  37.321   0.257
14566W        W86182  12.805  20.258  12.219
14567W        W86183   6.251  32.499  11.070
14568W        W86184  33.795  37.918  13.952
14569W        W86185  25.736  41.114  11.096
14570W        W86186  41.559  30.076  11.375
14571W        W86187  20.624   1.317  14.425
14572W        W86188   2.771  18.409  13.718
14573W        W86189  30.650  42.108   4.781
14574W        W86190  38.018  18.795   1.501
14575W        W86191   9.739   7.908   3.355
14576W        W86192  27.452  38.141  14.357
14577W        W86193   3.720  13.977   2.298
14578W        W86194  40.742  11.434  13.161
14579W        W86195  30.404  33.257   3.459
14580W        W86196   3.878  29.023  14.444
14581W        W86197  12.251  22.950  11.396
14582W        W86198  22.757   4.363   4.646
14583W        W86199  26.133  26.147   4.849
14584W        W86200  35.408  19.215  12.900
14585W        W86201  33.523  11.959   3.221
14586W        W86202   7.885   0.541   0.422
14587W        W86203   1.257  18.082   4.836
14588W        W86204  15.614   7.865  12.367
14589W        W86205  34.330  41.782  13.749
14590W        W86206  11.622   9.318  11.994
14591W        W86207  38.929  28.589   4.554
14592W        W86208  31.541  19.683  11.909
14593W        W86209  13.232  41.613   0.769
14594W        W86210  12.213  34.596  12.971
14595W        W86211  16.117  15.687   2.927
14596W        W86212  13.553   0.272   0.966
14597W        W86213   2.924  23.186   1.463
14598W        W86214   6.654  27.705  10.748
14599W        W86215  40.429   2.252  14.457
14600W        W86216  35.890  38.412   2.406
14601W        W86217  41.369  23.277  13.293
14602W        W86218   8.367  21.699  14.334
14603W        W86219   3.768  16.691   0.333
14604W        W86220   0.296  44.076  11.584
14605W        W86221  44.561  20.520   3.743
14606W        W86222  36.574  40.777   3.317
14607W        W86223  29.445  31.292   1.246
14608W        W86224  38.656  24.645  12.038
14609W        W86225   3.174  22.494   2.320
14610W        W86226  31.719  30.619   0.035
14611W        W86227  40.066  34.427  11.440
14612W        W86228  12.238  44.960  12.673
14613W        W86229  42.690   7.181   4.162
14614W        W86230  11.106  30.661   0.403
14615W        W86231  35.839  35.030   3.216
14616W        W86232   1.822  12.811   1.709
14617W        W86233  43.626  32.957  14.429
14618W        W86234  22.625  19.704  13.455
14619W        W86235  14.791  14.320   0.148
14620W        W86236  34.104  24.994  12.905
14621W        W86237  41.065  10.179  10.369
14622W        W86238  24.922   8.294   3.219
14623W        W86239  14.204  38.337  10.586
14624W        W86240  32.927  30.643   0.334
14625W        W86241  43.250  41.934  11.331
14626W        W86242   5.795  18.486  12.040
14627W        W86243  16.297   6.842   3.124
14628W        W86244  11.703  23.518  11.602
14629W        W86245   2.630  19.551   4.384
14630W        W86246  16.100  42.577  12.604
14631W        W86247  32.817  24.162  13.877
14632W        W86248  20.325   8.844   1.335
14633W        W86249  28.233  42.488  11.949
14634W        W86250   2.852  19.182  14.690
14635W        W86251  12.148  43.446  12.548
14636W        W86252  10.984   5.389   2.210
14637W        W86253  38.250  20.434   1.792
14638W        W86254  38.487  22.952  13.161
14639W        W86255  11.686  20.707   4.660
14640W        W86256   9.678   9.874  13.019
14641W        W86257  40.026  29.434   3.336
14642W        W86258  26.421  26.102   0.808
14643W        W86259   0.929  35.514   3.608
14644W        W86260   1.544  23.901  13.900
14645W        W86261  42.797  40.459   5.054
14646W        W86262  43.066  33.112  10.309
14647W        W86263   4.860  24.115   0.831
14648W        W86264  27.873  43.519  12.499
14649W        W86265   4.381  20.514  13.155
14650W        W86266   8.245  27.600  14.611
14651W        W86267  29.903  29.542   0.897
14652W        W86268  34.045  31.035  10.937
14653W        W86269  34.820   7.795   1.769
14654W        W86270  32.542   4.815   4.542
14655W        W86271  38.376  30.663  12.460
14656W        W86272   3.387   8.788   0.980
14657W        W86273   2.523  14.701  13.022
14658W        W86274  43.533  40.253   1.249
14659W        W86275  38.021   2.327  13.257
14660W        W86276  22.567  30.963  13.602
14661W        W86277  21.552  39.175  13.944
14662W        W86278  24.271  15.396  12.049
14663W        W86279  14.223  37.425  11.562
14664W        W86280  40.601  20.597   0.713
14665W        W86281  20.240  39.770   2.751
14666W        W86282  38.319   2.725  12.443
14667W        W86283  23.680  40.554  13.164
14668W        W86284  22.157  32.608  11.562
14669W        W86285  22.780  28.598  13.928
14670W        W86286  28.265  34.998   4.452
14671W        W86287   5.450  17.471   3.359
14672W        W86288   0.663   7.282   5.149
14673W        W86289   1.499   1.237   3.547
14674W        W86290   2.818  28.871  11.189
14675W        W86291  18.105  11.049  13.450
14676W        W86292   1.008  14.287   0.540
14677W        W86293  31.576  35.803  12.854
14678W        W86294  10.341  31.891   4.310
14679W        W86295  21.046  31.776   4.233
14680W        W86296  41.790   5.895   0.890
14681W        W86297  43.020  24.789  10.796
14682W        W86298   3.924  34.231  14.832
14683W        W86299  38.457   0.467   1.674
14684W        W86300  17.333   6.832   2.373
14685W        W86301  11.977  40.456  12.996
14686W        W86302   7.160  43.992  11.529
14687W        W86303   1.368   3.816  14.791
14688W        W86304   1.189  28.544  14.914
14689W        W86305  11.061   7.174   5.064
14690W        W86306   7.659  42.394   4.131
14691W        W86307  23.617   2.714  13.928
14692W        W86308   4.194  42.942  11.472
14693W        W86309  29.477  11.961  10.774
14694W        W86310  21.291   6.286   2.335
14695W        W86311   2.799   3.702   3.378
14696W        W86312  18.620  23.627  14.881
14697W        W86313  26.149  13.527  14.901
14698W        W86314  11.603  32.910   3.119
14699W        W86315  14.798  16.142  13.698
14700W        W86316  22.198  13.572  12.104
14701W        W86317  26.246  12.745   3.280
14702W        W86318  10.273   0.290  14.872
14703W        W86319  17.663  34.381   4.852
14704W        W86320  25.212  11.965  11.163
14705W        W86321  35.416  20.009   2.672
14706W        W86322  38.029  40.276   4.186
14707W        W86323  13.132   5.893   4.566
14708W        W86324  42.328   4.538  14.260
14709W        W86325  29.922  17.236  11.907
14710W        W86326  15.436  42.851  13.922
14711W        W86327  39.046  22.610   0.883
14712W        W86328   7.362  27.237  12.993
14713W        W86329  21.704  10.771   4.635
14714W        W86330   7.335  30.806  11.575
14715W        W86331  36.475  17.031   2.602
14716W        W86332   6.841  36.605  14.760
14717W        W86333  18.621  33.418  14.882
14718W        W86334  21.330   5.405   1.507
14719W        W86335  27.497   1.244  13.076
14720W        W86336  24.922  35.934  14.311
14721W        W86337  40.029   8.394  12.115
14722W        W86338   0.807  30.154   4.649
14723W        W86339  28.555   7.668  12.436
14724W        W86340  33.026   1.946   0.367
14725W        W86341  25.066  38.351  10.622
14726W        W86342  40.361   3.524  12.899
14727W        W86343  41.895   0.561   3.729
14728W        W86344  37.665   1.693   0.441
14729W        W86345  21.547  19.237   4.820
14730W        W86346  39.498  27.792   3.260
14731W        W86347  44.264   4.991   0.954
14732W        W86348  21.389  20.706  14.124
14733W        W86349  18.540  20.736   2.022
14734W        W86350  28.501  31.996   1.955
14735W        W86351  22.071   1.746  14.342
14736W        W86352  22.595  20.723  11.725
14737W        W86353  30.064  18.846  13.916
14738W        W86354  10.104   0.204  10.897
14739W        W86355  20.776  24.596  12.486
14740W        W86356   6.187  25.653  13.347
14741W        W86357  33.480  20.506   1.199
14742W        W86358  28.815  39.006  12.990
14743W        W86359  18.946  42.670  11.908
14744W        W86360  24.865  38.879  12.734
14745W        W86361  18.173  20.796   4.549
14746W        W86362  19.996  15.618  12.973
14747W        W86363  25.451  36.834  11.553
14748W        W86364  27.932  15.029  14.010
14749W        W86365  21.725  39.599   2.565
14750W        W86366  38.020  31.039   0.939
14751W        W86367  17.260  23.696  12.603
14752W        W86368  23.091   0.418   2.761
14753W        W86369  42.742  33.491  13.515
14754W        W86370  28.542  22.947  14.453
14755W        W86371   8.226  16.655   3.399
14756W        W86372  40.059  15.127  11.572
14757W        W86373  31.956   4.197   4.545
14758W        W86374   1.408  38.091   0.725
14759W        W86375  22.304  38.067   3.793
14760W        W86376   0.896   5.229   3.285
14761W        W86377  40.855  35.616  12.992
14762W        W86378  37.326  26.437   3.338
14763W        W86379  15.063  22.628   4.544
14764W        W86380   4.977  39.473   2.835
14765W        W86381  38.250   5.470   1.576
14766W        W86382  38.979  30.128  10.717
14767W        W86383  34.440  22.815   3.834
14768W        W86384   7.679   7.264  10.442
14769W        W86385  40.083  42.791   4.104
14770W        W86386  11.810  40.396   2.675
14771W        W86387  11.257  18.388   1.830
14772W        W86388   8.710  26.471  11.233
14773W        W86389  21.455  28.494  13.408
14774W        W86390  42.255  36.403   1.590
14775W        W86391   7.712   7.936  11.545
14776W        W86392  14.324   7.097   5.454
14777W        W86393  32.311  23.847   9.907
14778W        W86394   6.468  37.653   0.997
14779W        W86395   7.195   6.338  13.945
14780W        W86396  35.880   2.370   0.449
14781W        W86397  40.367  29.429  13.567
14782W        W86398  37.958  33.915   4.164
14783W        W86399  31.390  19.514  13.435
14784W        W86400   6.330   5.474   1.693
14785W        W86401  17.038  18.864   1.172
14786W        W86402  42.507  25.176   0.821
14787W        W86403   7.806  14.871   1.876
14788W        W86404   9.097  14.589   0.271
14789W        W86405  39.164  19.207  11.967
14790W        W86406   3.543  22.640  14.917
14791W        W86407   8.751  10.640   4.539
14792W        W86408  22.372  16.130   0.427
14793W        W86409  30.595  42.342  14.510
14794W        W86410  35.332  15.768   4.167
14795W        W86411   5.711   9.777  14.059
14796W        W86412  13.201  18.145   0.073
14797W        W86413  44.639  24.659   0.351
14798W        W86414  33.104  41.797  11.602
14799W        W86415   1.047  15.263  13.326
14800W        W86416   6.593   8.237  11.672
14801W        W86417  20.240  40.358   5.063
14802W        W86418  22.314  26.659   4.675
14803W        W86419  28.731  10.892  14.036
14804W        W86420  27.431  32.089  14.529
14805W        W86421  18.136   1.659   2.817
14806W        W86422   2.323  11.091  14.977
14807W        W86423  21.605   3.051  10.314
14808W        W86424  31.645  44.921   5.037
14809W        W86425  14.356  29.470   3.253
14810W        W86426  24.761  43.515  13.396
14811W        W86427  27.129   3.077  10.625
14812W        W86428  24.259  38.861  13.435
14813W        W86429  17.908  23.178   2.267
14814W        W86430  19.961  14.775  12.046
14815W        W86431   7.672   1.318  14.904
14816W        W86432  12.159  39.238  14.437
14817W        W86433   7.768  16.693   3.174
14818W        W86434  20.753  39.577  12.896
14819W        W86435  43.496  37.059   0.930
14820W        W86436   8.199  27.295  12.568
14821W        W86437   8.858  27.553  13.876
14822W        W86438   0.954  18.095   1.789
14823W        W86439   8.820  13.590  10.955
14824W        W86440  39.046  28.396  12.031
14825W        W86441  38.312  24.562   2.904
14826W        W86442  28.841   8.991  13.181
14827W        W86443  42.699  28.306   2.496
14828W        W86444  21.698  14.862  11.568
14829W        W86445  21.713  20.247   2.830
14830W        W86446  23.219  24.509   3.604
14831W        W86447  43.941  36.587   0.341
14832W        W86448   1.638   5.483   1.636
14833W        W86449  17.831  30.103  14.330
14834W        W86450   4.328  39.937   3.668
14835W        W86451  32.743   4.944  12.004
14836W        W86452  22.960  14.631  14.188
14837W        W86453  37.792  27.202  13.491
14838W        W86454  30.935  18.414  13.001
14839W        W86455  15.753  14.693   3.861
14840W        W86456   8.566  32.516   1.583
14841W        W86457   5.491  27.691  13.038
14842W        W86458  19.780  11.703   3.137
14843W        W86459   1.316   1.836  13.949
14844W        W86460  17.517   6.428  14.568
14845W        W86461   2.330   6.667  12.081
14846W        W86462  26.868  32.032  11.447
14847W        W86463  16.990  19.780  11.306
14848W        W86464   7.771  19.266   2.848
14849W        W86465  35.478  18.102  13.807
14850W        W86466  12.583  13.576   0.283
14851W        W86467  32.851  42.986  11.100
14852W        W86468  17.816   8.995  11.950
14853W        W86469  36.222  25.462  13.801
14854W        W86470   7.346  18.058  10.420
14855W        W86471   1.546   8.788   1.020
14856W        W86472  27.989   3.256  14.483
14857W        W86473  19.324  34.139   1.382
14858W        W86474  23.593  27.484   4.367
14859W        W86475  20.729  15.123   4.854
14860W        W86476  27.662  13.886  10.055
14861W        W86477  15.842  33.939  13.843
14862W        W86478  21.095  24.866  11.534
14863W        W86479  12.126   0.239   3.819
14864W        W86480  30.729  26.470  13.307
14865W        W86481  15.059   7.587  11.240
14866W        W86482  27.937  37.917   3.859
14867W        W86483  35.447  37.821  12.527
14868W        W86484  29.970  23.488   1.388
14869W        W86485   8.902  15.615   3.651
14870W        W86486  33.715  11.624   5.240
14871W        W86487   7.153   8.943  11.163
14872W        W86488  39.298  30.653   4.677
14873W        W86489  31.676   5.281  10.781
14874W        W86490  10.692  15.802  14.309
14875W        W86491  10.265  40.410   1.262
14876W        W86492  42.355  42.220   0.818
14877W        W86493  29.520   1.359   0.671
14878W        W86494  29.864  20.426  10.655
14879W        W86495   7.412   2.054  13.831
14880W        W86496   4.966  11.422   4.977
14881W        W86497  32.219  42.258   2.970
14882W        W86498  16.822   3.111  10.673
14883W        W86499  38.615  38.883  10.743
14884W        W86500  33.617  18.198   4.967
14885W        W86501  25.505  36.429   3.833
14886W        W86502  35.010  21.683  14.302
14887W        W86503   3.809  25.629   0.775
14888W        W86504  32.147  22.245   1.348
14889W        W86505  21.779   8.205  14.976
14890W        W86506  16.411   2.344   3.088
14891W        W86507   3.001   3.237   3.281
14892W        W86508  35.934  12.026  11.143
14893W        W86509  36.834   5.343   3.924
14894W        W86510   5.708   2.213  11.595
14895W        W86511  28.990  18.653  13.473
14896W        W86512  41.496   4.215   1.254
14897W        W86513  43.830  23.980   4.241
14898W        W86514  18.587  19.981  11.922
14899W        W86515   2.430   1.963  12.412
14900W        W86516  22.118   7.333  11.644
14901W        W86517  37.050   7.281  11.913
14902W        W86518  34.014   8.857   3.449
14903W        W86519  10.358  30.017  11.478
14904W        W86520   9.942   0.268   4.633
14905W        W86521  13.736  42.455   4.614
14906W        W86522  18.200  28.546  14.922
14907W        W86523   0.048  39.219   3.693
14908W        W86524  43.504  25.455  11.491
14909W        W86525   2.127   1.592  14.757
14910W        W86526  28.435  10.134  14.346
14911W        W86527  10.198  14.654  11.993
14912W        W86528  26.417  13.153   0.824
14913W        W86529  28.875   9.042   4.210
14914W        W86530  32.523  18.388   2.313
14915W        W86531   0.304   1.742   4.182
14916W        W86532  44.324  37.132   0.914
14917W        W86533  36.853  21.595  14.445
14918W        W86534  29.511  22.862   0.286
14919W        W86535  40.725  23.195  11.245
14920W        W86536  13.207  35.111  14.563
14921W        W86537   7.249  21.739  10.980
14922W        W86538  28.058  13.742   0.362
14923W        W86539  41.864  10.332  14.835
14924W        W86540  38.970  41.341   4.107
14925W        W86541  19.542  13.010  11.897
14926W        W86542  32.067   7.159  11.109
14927W        W86543  10.864  42.463   2.804
14928W        W86544   3.772  29.166  11.497
14929W        W86545  34.155  30.262   0.630
14930W        W86546  39.821   5.287  13.873
14931W        W86547  28.586  30.324  10.510
14932W        W86548   8.123  36.878  14.399
14933W        W86549  38.019  16.614   2.797
14934W        W86550  17.708  16.893  13.523
14935W        W86551  20.683  40.081  14.839
14936W        W86552  44.269  23.205  11.664
14937W        W86553   4.950  39.550   4.604
14938W        W86554  17.766  36.016   1.802
14939W        W86555   9.823  13.645   0.440
14940W        W86556   7.476   3.956   2.278
14941W        W86557   0.923  32.368   2.635
14942W        W86558  18.738  13.047   1.404
14943W        W86559  36.476   3.780   4.746
14944W        W86560  11.708  11.831   2.722
14945W        W86561  35.430  16.313   0.411
14946W        W86562   5.541  37.782   3.703
14947W        W86563  32.967  18.908   0.160
14948W        W86564  36.860   1.332   1.759
14949W        W86565  21.449  34.744  12.435
14950W        W86566  18.090   1.639   4.233
14951W        W86567  13.798  21.551   3.223
14952W        W86568  14.290   0.966   2.239
14953W        W86569  17.783  36.820  12.866
14954W        W86570  32.491   8.249   3.260
14955W        W86571   2.072  37.482  13.923
14956W        W86572  44.918  43.282   0.467
14957W        W86573  35.933   6.828   2.351
14958W        W86574  43.004   2.457   1.865
14959W        W86575  34.381  22.608  12.605
14960W        W86576   4.643  32.943   3.622
14961W        W86577  34.030  44.032   1.326
14962W        W86578  11.903   9.843  10.782
14963W        W86579  31.664   2.178   4.657
14964W        W86580  32.335   6.516   0.815
14965W        W86581   9.763  23.043   1.341
14966W        W86582  11.223  10.842   0.834
14967W        W86583  13.156   2.660  12.500
14968W        W86584   9.364  39.905  11.145
14969W        W86585  44.871  14.853   0.326
14970W        W86586  28.735  29.185   2.195
14971W        W86587  44.773  26.193   2.211
14972W        W86588  33.435   9.138   1.870
14973W        W86589   0.347  22.542  12.869
14974W        W86590   1.381  33.862  10.439
14975W        W86591   7.187  38.321  11.062
14976W        W86592  24.936  36.323  14.986
14977W        W86593  40.356   3.202  13.298
14978W        W86594  31.977  11.392  10.588
14979W        W86595  19.868   0.885  12.854
14980W        W86596  29.420   7.232   1.612
14981W        W86597  37.611  18.295   3.331
14982W        W86598  34.354  19.068   3.241
14983W        W86599  36.847  16.738   0.334
14984W        W86600  11.964  38.368   3.687
14985W        W86601   8.634   8.168   1.863
14986W        W86602  28.058   6.928  11.542
14987W        W86603  40.511  42.964   0.532
14988W        W86604   0.332  13.928  12.568
14989W        W86605   8.367  36.488   4.842
14990W        W86606  42.469  35.500   3.090
14991W        W86607   0.606  34.980   3.710
14992W        W86608  14.857  32.036  11.096
14993W        W86609   6.914  25.689   1.284
14994W        W86610  37.491  15.591  11.665
14995W        W86611  36.429  36.985  12.821
14996W        W86612  21.577  24.016  14.683
14997W        W86613   3.156  21.234  10.596
14998W        W86614  24.993  10.635   0.311
14999W        W86615  38.249  17.480  13.101
15000W        W86616   0.657  37.358  11.658
15001W        W86617   8.825  11.911   4.161
15002W        W86618   4.793  20.826  14.399
15003W        W86619  30.552   0.300   0.411
15004W        W86620  33.363   5.914   0.877
15005W        W86621   1.246  16.638   3.455
15006W        W86622  40.376  35.352  12.949
15007W        W86623  35.475  41.435   4.617
15008W        W86624  39.892  44.546   3.792
15009W        W86625   9.696  17.376   1.880
15010W        W86626   9.667  18.514   0.210
15011W        W86627  41.829  24.587   3.497
15012W        W86628  33.513  35.030   0.863
15013W        W86629  38.972  35.106  13.150
15014W        W86630  20.159  27.692   0.985
15015W        W86631  39.087  37.885  12.888
15016W        W86632  30.403  32.163  12.024
15017W        W86633  36.053   7.323   2.189
15018W        W86634  25.430  13.530   3.684
15019W        W86635  32.512  12.743  13.134
15020W        W86636  28.964  20.118  12.441
15021W        W86637   8.650  19.518   2.093
15022W        W86638  18.777  26.064  14.292
15023W        W86639  25.201  18.112  14.797
15024W        W86640  26.145  41.298  11.317
15025W        W86641   9.250  40.423  10.701
15026W        W86642  32.133  21.007  13.945
15027W        W86643  38.353  16.269  11.144
15028W        W86644  26.487  40.984  11.531
15029W        W86645  41.130   3.265   3.740
15030W        W86646  38.511   7.871   1.263
15031W        W86647  21.711  32.651   1.835
15032W        W86648  10.076   4.866   4.072
15033W        W86649  26.120  43.260  12.864
15034W        W86650  31.386  16.270  14.864
15035W        W86651  37.020  42.332  11.865
15036W        W86652  36.514   4.026   3.933
15037W        W86653  34.642  36.987   3.795
15038W        W86654  33.958   0.879  13.294
15039W        W86655  38.781  19.266  13.800
15040W        W86656  32.991  11.603   0.971
15041W        W86657  19.234  44.720   3.160
15042W        W86658  20.752  27.070   1.471
15043W        W86659  12.915  17.701  11.543
15044W        W86660  10.886  10.256  10.680
15045W        W86661  40.301   1.849   3.104
15046W        W86662  29.099  30.390  13.321
15047W        W86663  32.894  25.143  14.617
15048W        W86664  42.085  22.564   0.962
15049W        W86665  43.797  34.532  14.453
15050W        W86666  21.012  25.415  12.565
15051W        W86667   5.838  37.280   2.812
15052W        W86668  44.530  24.020   4.858
15053W        W86669  24.595  19.227   1.207
15054W        W86670  13.770  26.543   5.034
15055W        W86671   7.868  44.342   4.649
15056W        W86672  34.875  24.865   3.801
15057W        W86673  28.034  35.997   4.626
15058W        W86674  36.899   3.196   2.925
15059W        W86675  33.402  17.395  14.352
15060W        W86676  27.658  24.309  13.896
15061W        W86677  23.105   3.003   1.299
15062W        W86678   1.748  26.601   0.721
15063W        W86679   8.507   2.370  12.419
15064W        W86680  38.333  33.874  11.168
15065W        W86681  35.982  44.547   2.327
15066W        W86682  27.748  40.442   3.864
15067W        W86683  29.854   2.017   4.012
15068W        W86684   5.998  12.291  12.678
15069W        W86685   2.746  42.479  14.321
15070W        W86686  15.319  12.562   3.605
15071W        W86687  17.120  42.951  10.629
15072W        W86688  11.365  40.599   2.904
15073W        W86689  28.940   0.598  14.244
15074W        W86690   6.307  37.198  12.464
15075W        W86691  25.585  23.590  11.886
15076W        W86692  24.014  37.604  10.217
15077W        W86693  31.131  27.676  13.756
15078W        W86694   1.422  24.558   4.554
15079W        W86695  37.400  26.011  11.996
15080W        W86696  40.298  12.709  11.550
15081W        W86697   6.531  10.435   1.248
15082W        W86698  33.326  27.675   1.941
15083W        W86699  18.157  44.035  14.970
15084W        W86700   3.339  26.896  12.192
15085W        W86701  26.114   2.170   1.753
15086W        W86702   6.809   9.857   1.889
15087W        W86703  19.725  17.875   3.215
15088W        W86704   3.896  30.149   0.125
15089W        W86705   7.929  30.965   0.352
15090W        W86706  32.365  29.156   5.113
15091W        W86707  19.049   1.190   4.288
15092W        W86708   5.685  20.386  11.709
15093W        W86709  21.152  44.951   0.734
15094W        W86710  20.215  34.930   1.853
15095W        W86711  18.785  11.328   3.617
15096W        W86712  17.632   2.973   0.902
15097W        W86713   5.500   0.569   3.348
15098W        W86714  26.990   4.332  11.550
15099W        W86715  25.069  32.470   0.987
15100W        W86716   5.993   2.757   4.326
15101W        W86717  11.695  21.694  12.494
15102W        W86718  44.697  38.557   4.098
15103W        W86719  20.772  33.065   4.101
15104W        W86720  25.425  43.576   0.759
15105W        W86721  21.235  10.444  12.269
15106W        W86722  42.326  26.564   1.490
15107W        W86723  13.677  29.004  13.626
15108W        W86724  36.900  37.085  10.620
15109W        W86725  15.174  23.062  14.506
15110W        W86726  30.825  20.475   2.648
15111W        W86727  44.700  26.162   3.138
15112W        W86728  29.502  34.482   0.290
15113W        W86729  37.667   0.431   3.181
15114W        W86730  22.188  34.431  14.536
15115W        W86731  16.253  25.613   4.943
15116W        W86732  36.991  42.659   3.568
15117W        W86733  42.000  34.819  14.356
15118W        W86734  37.416  10.350   4.635
15119W        W86735  40.391  29.999  12.009
15120W        W86736  25.556   6.066   2.733
15121W        W86737  34.279  34.367   4.679
15122W        W86738  24.484   0.960  13.402
15123W        W86739  25.848  36.963   1.792
15124W        W86740  16.314  33.592   4.265
15125W        W86741  23.456  15.763  13.577
15126W        W86742  22.635   6.722   1.392
15127W        W86743   4.773  11.617   2.123
15128W        W86744  32.365   0.911   4.831
15129W        W86745  43.033  40.124   2.379
15130W        W86746  18.001  30.004   1.421
15131W        W86747  40.454  17.665  11.177
15132W        W86748  36.097  24.453  13.357
15133W        W86749  22.129   4.565  11.548
15134W        W86750  29.332  23.592   3.723
15135W        W86751   2.902  30.729  12.346
15136W        W86752  32.892   4.168  13.781
15137W        W86753   5.172  18.023  10.741
15138W        W86754   7.673   3.448  14.289
15139W        W86755  31.452  43.443  12.846
15140W        W86756  20.168  32.150   3.320
15141W        W86757  15.896  39.428  14.652
15142W        W86758  40.321  25.723  11.378
15143W        W86759  21.279  39.510   1.890
15144W        W86760  28.457  32.410   3.571
15145W        W86761  29.760   2.187   3.076
15146W        W86762  24.418  44.749   0.570
15147W        W86763  37.509  24.543   3.153
15148W        W86764  14.009   6.773   0.048
15149W        W86765  25.158  10.497   2.599
15150W        W86766  26.029  44.256   2.737
15151W        W86767  28.629  32.363  10.646
15152W        W86768  11.453  15.045   3.195
15153W        W86769  20.694  39.558  13.797
15154W        W86770  20.058  35.430   0.702
15155W        W86771  18.556  38.367  10.642
15156W        W86772  42.814  14.552  12.143
15157W        W86773  43.773  42.752   3.037
15158W        W86774  33.844  14.124  13.441
15159W        W86775   4.622  39.866   4.286
15160W        W86776  14.402   0.277   2.749
15161W        W86777  15.848  10.602   2.807
15162W        W86778  22.291   1.116  12.135
15163W        W86779   3.842  17.358   1.783
15164W        W86780  21.002  30.471  11.976
15165W        W86781  26.755  16.783  10.708
15166W        W86782  23.149  33.618  14.945
15167W        W86783   4.557  20.658   3.257
15168W        W86784  25.612   5.650  12.406
15169W        W86785   6.250   8.240  13.655
15170W        W86786  40.242   6.771   4.653
15171W        W86787   1.465  41.795  14.379
15172W        W86788  29.878  10.297  13.275
15173W        W86789   8.067  19.569   4.259
15174W        W86790   7.335  24.357  12.403
15175W        W86791  34.577   1.753   1.261
15176W        W86792  28.535  39.200   0.256
15177W        W86793  42.262  35.545   0.092
15178W        W86794  17.818  18.138   3.049
15179W        W86795  13.227  13.666   4.141
15180W        W86796   2.460  15.924  12.340
15181W        W86797  17.996  43.455   1.219
15182W        W86798  13.652  24.543  11.657
15183W        W86799  40.710  20.210  13.159
15184W        W86800  41.436  20.574   3.311
15185W        W86801  11.109  19.551  12.535
15186W        W86802  13.149  33.553  11.254
15187W        W86803  32.957  29.888   0.757
15188W        W86804   0.756  27.188   2.349
15189W        W86805  25.179  29.451   0.152
15190W        W86806  32.080  11.356   1.466
15191W        W86807  10.212   7.084   1.360
15192W        W86808  33.323  34.035  11.928
15193W        W86809   1.759   5.903  14.446
15194W        W86810   6.368  11.324   3.893
15195W        W86811   0.002   0.031   3.655
15196W        W86812   4.388  42.229  13.790
15197W        W86813  28.337  18.777  13.559
15198W        W86814  43.323  43.049  11.171
15199W        W86815  17.644  29.099  13.348
15200W        W86816   6.481   6.306   2.822
15201W        W86817  41.588  43.252  13.930
15202W        W86818   3.653   0.290  13.289
15203W        W86819   7.785  37.119   2.612
15204W        W86820   8.349  11.696  14.283
15205W        W86821   5.751  17.060  11.625
15206W        W86822  37.357  26.836   3.667
15207W        W86823  26.995   1.434  10.758
15208W        W86824  20.611   5.040   1.021
15209W        W86825  22.318  18.330  13.028
15210W        W86826   2.708  12.132  14.514
15211W        W86827  24.726  22.027   3.927
15212W        W86828  30.413  33.146  11.267
15213W        W86829  30.375   2.397  14.397
15214W        W86830  42.592  14.523  12.617
15215W        W86831  37.922  17.336   1.080
15216W        W86832  31.382  35.501  13.661
15217W        W86833  20.642  25.225   1.283
15218W        W86834  23.557  25.502  10.763
15219W        W86835  44.569  10.347  10.309
15220W        W86836  38.984  27.116   3.425
15221W        W86837  30.059  25.907  14.408
15222W        W86838  30.716  27.576   3.135
15223W        W86839   1.570  18.004  14.474
15224W        W86840   4.653  27.868  13.192
15225W        W86841  41.996  38.617   2.386
15226W        W86842  14.698  20.758  14.211
15227W        W86843  22.080  39.221  14.003
15228W        W86844  40.802  35.907   1.794
15229W        W86845   0.096  30.048   1.304
15230W        W86846  44.313  38.559   0.491
15231W        W86847   2.360  36.391   4.544
15232W        W86848  43.521  33.372   4.494
15233W        W86849  26.247  30.008   0.847
15234W        W86850   0.020   7.683  11.073
15235W        W86851  14.767   5.720   2.237
15236W        W86852  27.275  44.422   3.243
15237W        W86853   1.388   2.087   0.106
15238W        W86854  28.846  25.448   2.551
15239W        W86855  40.450  34.500   4.426
15240W        W86856  34.611  22.974   2.202
15241W        W86857  43.975  24.588  12.133
15242W        W86858  30.718  16.305  12.908
15243W        W86859  40.577   2.254   5.141
15244W        W86860  28.054  16.239  10.457
15245W        W86861  15.126  30.514   0.876
15246W        W86862  27.894  38.908   2.215
15247W        W86863   5.651  23.893  12.526
15248W        W86864   2.194  19.270  11.481
15249W        W86865  26.271   1.991  12.941
15250W        W86866  23.015  30.938  14.727
15251W        W86867  12.455  13.807   0.716
15252W        W86868   1.494  15.096   3.275
15253W        W86869  41.927  12.771   4.290
15254W        W86870  28.087   5.045   4.559
15255W        W86871   8.666  35.350  11.137
15256W        W86872   6.151  23.991  11.642
15257W        W86873   4.232  29.974  14.801
15258W        W86874   2.333  20.495   3.391
15259W        W86875  25.346  22.909  14.997
15260W        W86876  43.870   7.848   3.237
15261W        W86877  27.708   4.891   0.655
15262W        W86878  31.321  17.681   3.147
15263W        W86879  22.547  24.699  12.891
15264W        W86880  27.488  17.251  10.526
15265W        W86881   4.504  41.756  13.920
15266W        W86882   8.230  18.504   1.262
15267W        W86883  29.468  15.186   2.268
15268W        W86884  16.979   0.401  11.401
15269W        W86885  42.556  42.493   3.650
15270W        W86886  34.290  14.133   1.364
15271W        W86887  14.741  44.248  11.029
15272W        W86888  12.694  36.030  11.713
15273W        W86889  31.443  32.990   4.564
15274W        W86890  28.732  25.113  13.741
15275W        W86891  35.639  40.847  14.469
15276W        W86892   3.298  42.442   3.108
15277W        W86893  12.792  41.411  13.436
15278W        W86894  18.657  33.920   4.826
15279W        W86895  23.026  44.029  13.460
15280W        W86896  29.864  29.049  14.460
15281W        W86897   8.346   9.211  13.691
15282W        W86898  36.451  35.939   4.574
15283W        W86899  36.452   6.873   1.275
15284W        W86900   6.246  27.791  11.563
15285W        W86901  34.556  35.942  10.756
15286W        W86902  13.285  16.749   2.165
15287W        W86903  34.363  41.754   0.337
15288W        W86904  40.246  38.001   3.764
15289W        W86905  19.315  19.182  14.386
15290W        W86906  11.128   7.284   2.729
15291W        W86907  25.149  20.760  11.502
15292W        W86908  20.302  10.376  14.946
15293W        W86909   3.278  24.752   3.954
15294W        W86910  23.704   3.234   4.530
15295W        W86911  34.195  25.477   2.905
15296W        W86912  16.075   1.388   1.742
15297W        W86913  20.119  40.249  11.999
15298W        W86914   0.908  15.837  13.046
15299W        W86915  30.392   9.352   0.655
15300W        W86916  13.406  44.576  14.164
15301W        W86917  28.101   1.236   1.784
15302W        W86918  36.734  14.520  12.568
15303W        W86919   4.417  30.100   2.773
15304W        W86920   8.208  26.572  10.376
15305W        W86921  24.493  25.203   3.355
15306W        W86922  24.287  43.012  11.189
15307W        W86923  28.553  42.427   3.314
15308W        W86924  33.999  28.988   1.212
15309W        W86925   6.103  23.423   2.735
15310W        W86926  25.772   9.670   1.910
15311W        W86927   1.246   7.893  12.025
15312W        W86928  43.723  23.495   0.342
15313W        W86929  22.200   9.967  10.805
15314W        W86930   9.659   1.589   4.156
15315W        W86931  34.383  30.039   4.636
15316W        W86932  24.591  37.221   1.208
15317W        W86933  17.135   0.799   5.037
15318W        W86934  15.554  28.025  12.125
15319W        W86935  15.293  10.700   2.038
15320W        W86936  21.223  15.680   1.337
15321W        W86937  16.282   3.483  10.354
15322W        W86938  14.605  37.544  13.445
15323W        W86939  11.956  23.519  12.926
15324W        W86940  28.223  31.120   0.748
15325W        W86941  31.657   7.919   1.380
15326W        W86942  38.288   8.301   2.248
15327W        W86943  14.563  13.431   4.193
15328W        W86944  43.696  23.726  11.210
15329W        W86945   7.783  13.927  13.995
15330W        W86946  15.293  38.487   3.699
15331W        W86947  21.478  19.773   2.695
15332W        W86948  37.137   4.399  14.322
15333W        W86949   2.751  17.049   1.125
15334W        W86950  21.136  43.557   3.653
15335W        W86951   4.022  25.131   0.774
15336W        W86952   6.358   5.143  10.114
15337W        W86953  15.544  14.865   0.391
15338W        W86954  13.638  30.676   1.261
15339W        W86955   5.223  32.999  10.712
15340W        W86956  34.947  30.337  13.501
15341W        W86957  40.880  36.318  13.413
15342W        W86958  19.524  31.102   3.168
15343W        W86959  28.530  29.108  12.370
15344W        W86960  31.936   5.340  11.924
15345W        W86961  18.244  44.980  12.428
15346W        W86962  13.271  11.264   3.601
15347W        W86963   2.722  36.822   3.187
15348W        W86964   0.006  37.903   5.095
15349W        W86965   1.821  21.104   3.055
15350W        W86966  38.035   7.928   3.281
15351W        W86967  32.547  12.342  14.976
15352W        W86968   2.071  16.033   4.249
15353W        W86969   1.800  42.351   4.032
15354W        W86970  16.542  18.749  13.517
15355W        W86971  13.135   0.424   0.660
15356W        W86972   2.913   4.752   4.737
15357W        W86973  21.735  33.497  11.834
15358W        W86974  38.352  16.384   4.150
15359W        W86975  30.954  37.147  12.137
15360W        W86976  40.619  42.868  11.507
15361W        W86977   5.924  15.383  14.099
15362W        W86978  36.320  26.677   2.303
15363W        W86979  34.433  12.757   1.432
15364W        W86980  17.773  16.693   2.727
15365W        W86981  29.660  28.188  14.531
15366W        W86982   8.230   5.067   2.349
15367W        W86983  37.826  19.528   4.567
15368W        W86984  23.720  11.712   4.683
15369W        W86985   9.117  10.700   2.735
15370W        W86986   1.528  42.277   1.820
15371W        W86987  17.924  19.767   4.618
15372W        W86988  11.237  21.296   2.900
15373W        W86989   9.242  14.021  13.093
15374W        W86990  12.740  22.481   1.946
15375W        W86991  39.611  21.789  14.795
15376W        W86992  27.928  15.209   2.925
15377W        W86993  27.649  20.223   4.053
15378W        W86994   2.233  24.103   0.403
15379W        W86995  13.409  39.989  14.983
15380W        W86996  24.899  18.085   2.436
15381W        W86997  21.671   9.762   0.353
15382W        W86998  16.754  27.110  12.084
15383W        W86999   8.404  18.152  12.991
15384W        W87000  32.985  11.106  12.618
15385W        W87001   1.257  29.566  10.804
15386W        W87002   2.512  41.293  11.100
15387W        W87003  26.150  23.594  14.763
15388W        W87004  39.941  21.082   4.160
15389W        W87005   0.051  34.014   1.667
15390W        W87006   9.779  39.105  14.498
15391W        W87007   6.378  33.071  12.939
15392W        W87008  30.910  22.391  14.434
15393W        W87009  14.416  23.169  12.078
15394W        W87010  19.588  24.727  14.895
15395W        W87011  21.547  24.991  10.652
15396W        W87012  24.639  16.099   3.846
15397W        W87013  13.988  17.355  13.044
15398W        W87014  16.313  14.792   3.012
15399W        W87015  16.134  21.958  14.752
15400W        W87016  23.583  39.447   2.155
15401W        W87017   3.074  15.222  10.710
15402W        W87018  27.182   4.965  14.783
15403W        W87019  11.600   8.307  14.071
15404W        W87020   4.663  15.794  14.527
15405W        W87021  20.747  18.955   4.321
15406W        W87022  39.828  23.185   4.843
15407W        W87023  25.667   0.377   2.120
15408W        W87024  32.276  22.171  13.441
15409W        W87025  16.618  25.153  12.407
15410W        W87026  31.159  12.482  11.078
15411W        W87027  42.445  34.193  14.817
15412W        W87028  11.676  20.304  10.650
15413W        W87029   1.268  43.855  12.076
15414W        W87030  40.022  44.899   1.832
15415W        W87031   3.511   1.887   0.021
15416W        W87032  21.940  36.866   2.298
15417W        W87033  26.988   4.222  14.084
15418W        W87034   4.141  10.236   4.254
15419W        W87035   1.229  44.424  10.673
15420W        W87036  17.794   8.152  11.197
15421W        W87037  26.580  33.382  11.547
15422W        W87038  42.961  25.142  13.525
15423W        W87039  42.482  19.229   0.712
15424W        W87040   3.315  43.468  11.736
15425W        W87041  19.261  14.385  14.210
15426W        W87042  44.391  12.853   1.802
15427W        W87043  17.805  13.449  11.608
15428W        W87044  42.343  30.964   3.848
15429W        W87045  36.582   1.479   2.303
15430W        W87046  44.288  42.042  12.494
15431W        W87047   6.360  43.462   1.897
15432W        W87048   3.691  28.888  11.057
15433W        W87049  35.002  38.614  12.391
15434W        W87050   1.963  30.162  14.824
15435W        W87051  25.029  25.955   1.308
15436W        W87052  11.327  42.538   3.495
15437W        W87053  20.771  31.946   1.172
15438W        W87054   5.927   0.304   2.303
15439W        W87055   3.791  10.863   0.876
15440W        W87056  34.821   9.856  10.726
15441W        W87057  36.535   8.759   2.026
15442W        W87058  39.973  14.763  12.523
15443W        W87059  24.547  24.336  11.977
15444W        W87060   1.786   5.357  12.131
15445W        W87061  14.247  16.541  13.081
15446W        W87062   0.344   0.919  11.488
15447W        W87063  38.811  37.796   3.972
15448W        W87064  43.115  37.483   3.838
15449W        W87065  19.648  19.300  13.951
15450W        W87066  38.535   4.287   2.752
15451W        W87067  19.336  21.983   1.386
15452W        W87068  27.498  24.755  14.133
15453W        W87069  34.008   4.987   1.518
15454W        W87070  28.768  11.727   0.903
15455W        W87071  22.794  21.684  12.018
15456W        W87072  29.405   3.743   4.636
15457W        W87073  44.800   6.688  11.078
15458W        W87074  12.223  19.243   3.963
15459W        W87075  30.090  39.652  14.893
15460W        W87076  10.308  42.902  10.602
15461W        W87077  41.386  25.711  11.972
15462W        W87078  38.459  35.579  14.959
15463W        W87079  42.742  18.776  11.387
15464W        W87080  20.503  44.035  13.632
15465W        W87081   3.723  33.203   3.486
15466W        W87082  32.626  33.643  13.133
15467W        W87083  16.588  27.046  13.065
15468W        W87084  31.922  31.933   2.304
15469W        W87085  16.398  22.036   2.380
15470W        W87086  44.964  39.289   0.921
15471W        W87087  41.284   5.229   0.689
15472W        W87088   4.631  14.068  14.380
15473W        W87089  28.348  13.440  11.265
15474W        W87090  20.181  14.806  14.498
15475W        W87091  44.913   2.226  10.334
15476W        W87092  23.521   6.873   4.867
15477W        W87093  12.674  22.153  11.513
15478W        W87094  19.246   3.725  13.053
15479W        W87095  40.878   4.713  11.325
15480W        W87096  40.219  38.854   3.947
15481W        W87097  16.822  34.949   0.002
15482W        W87098  39.895  18.983  12.679
15483W        W87099  39.798  10.598  10.704
15484W        W87100  15.645  31.663   3.932
15485W        W87101  37.071  29.499  11.659
15486W        W87102  42.355  20.014  11.215
15487W        W87103   1.833  14.827  13.525
15488W        W87104   0.344  39.217  14.243
15489W        W87105   9.445  14.084  12.617
15490W        W87106  35.674  23.751   1.431
15491W        W87107   8.522  37.343   4.184
15492W        W87108  18.653  31.154   0.650
15493W        W87109  15.772  26.239   2.820
15494W        W87110  24.832  31.932   2.329
15495W        W87111  30.307  24.178   4.394
15496W        W87112  15.183  31.944  10.691
15497W        W87113  15.011  25.082  13.347
15498W        W87114  14.035  41.746   4.268
15499W        W87115   3.390  10.613   1.554
15500W        W87116   5.780  22.460   3.662
15501W        W87117  12.352   5.481  13.330
15502W        W87118  13.616  41.507  14.295
15503W        W87119  34.997  44.738  11.308
15504W        W87120  36.320  12.894   1.263
15505W        W87121  39.867  34.800   2.160
15506W        W87122  25.175  24.051  11.288
15507W        W87123  11.385  12.030   3.658
15508W        W87124  27.569  10.229  14.031
15509W        W87125  37.941  15.264   3.799
15510W        W87126  23.407  31.446  13.981
15511W        W87127   0.732   5.901   2.773
15512W        W87128   7.382  24.614   4.109
15513W        W87129   7.360   6.232   1.844
15514W        W87130  31.032  30.923   4.375
15515W        W87131  24.582  36.647   2.381
15516W        W87132  14.292  18.500  14.891
15517W        W87133  38.051   5.698  10.727
15518W        W87134  18.516  26.538  14.336
15519W        W87135   6.978  44.550   1.994
15520W        W87136  29.227  27.521   1.821
15521W        W87137   1.915  32.082  11.979
15522W        W87138  35.826  21.187   0.061
15523W        W87139   9.010  37.377   4.319
15524W        W87140  33.070  22.772  13.996
15525W        W87141   1.489   2.268  13.720
15526W        W87142  18.859  25.250  11.066
15527W        W87143  37.864   8.778  13.787
15528W        W87144  24.343  35.440   0.107
15529W        W87145  23.768   4.462  11.124
15530W        W87146  18.312  15.225  14.814
15531W        W87147  23.908  30.867   2.787
15532W        W87148  24.080  37.848  13.628
15533W        W87149  21.230   2.788  12.827
15534W        W87150  36.561   0.214  11.932
15535W        W87151  33.566  43.523   2.801
15536W        W87152  43.423  33.051  13.972
15537W        W87153  25.389  12.635   4.350
15538W        W87154   4.702  34.612  14.326
15539W        W87155  14.676  44.407   3.772
15540W        W87156  14.282  38.045   1.335
15541W        W87157   7.748  18.312  10.215
15542W        W87158  11.043  37.756   3.145
15543W        W87159   1.009  22.985   5.159
15544W        W87160  20.534   1.486   2.115
15545W        W87161  33.089  29.659  11.197
15546W        W87162   4.922  21.632   3.092
15547W        W87163  15.678   8.515   1.011
15548W        W87164  16.087   5.984   5.604
15549W        W87165   2.966  36.061  13.325
15550W        W87166  26.134  32.073   1.288
15551W        W87167  11.865   4.837   4.391
15552W        W87168  42.278  26.727  11.314
15553W        W87169  32.092   2.993   2.192
15554W        W87170   3.795  16.627  10.848
15555W        W87171  39.840   5.968   2.670
15556W        W87172  37.585  28.474   4.655
15557W        W87173  38.550   2.477   0.326
15558W        W87174   2.988  25.544  14.177
15559W        W87175  37.833   7.616   4.602
15560W        W87176  31.628   8.294   1.009
15561W        W87177  28.683  37.531   3.896
15562W        W87178  39.505   8.422  12.074
15563W        W87179   6.263  33.312   0.353
15564W        W87180   6.780  27.686  13.583
15565W        W87181  41.559  17.082  11.656
15566W        W87182  41.284  35.044  11.764
15567W        W87183  37.154  33.926  12.479
15568W        W87184  32.902  15.413  14.363
15569W        W87185   2.168  25.789  14.130
15570W        W87186  39.576  19.262  11.047
15571W        W87187   8.746  23.641   0.225
15572W        W87188  40.881  40.258  14.953
15573W        W87189  19.490  30.108  12.032
15574W        W87190  37.903   8.878   1.687
15575W        W87191  34.505  21.588   4.586
15576W        W87192  43.931   3.195   0.980
15577W        W87193  38.552  20.241   1.404
15578W        W87194  42.116  26.633  13.080
15579W        W87195  23.663  35.097   1.740
15580W        W87196  23.997  44.096   3.800
15581W        W87197  44.442  43.002   4.720
15582W        W87198  14.321  40.417   1.893
15583W        W87199  24.493  39.547   0.964
15584W        W87200  28.630   9.970   0.267
15585W        W87201   9.486  23.049  13.998
15586W        W87202  15.593  15.686   0.099
15587W        W87203  15.809  15.196   3.762
15588W        W87204  20.458   6.372   4.181
15589W        W87205  14.281   1.352  14.409
15590W        W87206  43.603   0.070   0.309
15591W        W87207   1.994  43.271  14.880
15592W        W87208  13.090  30.421  10.281
15593W        W87209  40.938  18.060   0.960
15594W        W87210   0.975  27.498  10.577
15595W        W87211  23.981  18.221   0.749
15596W        W87212  36.813  28.936  10.597
15597W        W87213  36.494  22.626   0.055
15598W        W87214  32.018  19.995  13.878
15599W        W87215  19.195  28.912   1.792
15600W        W87216  15.064  12.143  11.522
15601W        W87217  19.699  12.161  14.987
15602W        W87218   5.765  44.823   3.207
15603W        W87219  24.195  21.151  14.889
15604W        W87220  31.772  21.807  11.639
15605W        W87221  14.407  15.644  13.194
15606W        W87222   2.437  26.165  13.116
15607W        W87223  34.488  26.300   3.988
15608W        W87224  21.579  15.765  13.017
15609W        W87225   0.212   8.711   4.122
15610W        W87226  39.117  16.203  11.826
15611W        W87227  38.590   9.200  12.149
15612W        W87228  18.824  39.983   4.288
15613W        W87229  37.820  13.929   5.239
15614W        W87230  25.569   2.836   0.398
15615W        W87231  23.985  27.179   4.590
15616W        W87232  19.465   8.275   1.985
15617W        W87233  44.792  37.723   3.447
15618W        W87234   8.282  26.523  11.633
15619W        W87235   3.342  40.288  14.052
15620W        W87236   5.937  35.872   4.608
15621W        W87237  22.271  24.576   3.312
15622W        W87238  31.481   1.552   5.063
15623W        W87239  40.298  14.664  14.817
15624W        W87240  24.238   4.815  11.196
15625W        W87241  18.290  43.500  13.473
15626W        W87242  27.704  12.895   1.776
15627W        W87243  36.097  17.299   2.856
15628W        W87244  10.474  23.132   0.891
15629W        W87245  10.087  40.532   3.197
15630W        W87246   4.280  36.940   2.083
15631W        W87247  34.192  22.610   3.063
15632W        W87248   2.476   3.466  10.768
15633W        W87249  36.167  19.765  12.836
15634W        W87250   0.067   9.743  12.781
15635W        W87251  22.180   8.072   4.691
15636W        W87252  44.900  23.924   2.144
15637W        W87253  32.363  13.056  11.043
15638W        W87254  44.052  43.921   1.717
15639W        W87255  35.051  22.601   0.335
15640W        W87256  26.175  11.696  13.839
15641W        W87257  15.002  21.301  12.037
15642W        W87258  17.302   1.371   3.270
15643W        W87259   9.630  11.250   3.077
15644W        W87260  11.877  30.115   3.302
15645W        W87261   8.802  14.705  12.446
15646W        W87262  43.123  20.576  12.977
15647W        W87263   4.354  42.352   0.577
15648W        W87264  39.752  36.164  11.117
15649W        W87265  10.629  44.265   2.842
15650W        W87266  34.891  12.198   2.737
15651W        W87267  38.067   4.936  11.246
15652W        W87268  30.134  23.318   3.351
15653W        W87269  25.670  28.474  14.032
15654W        W87270  34.490  14.666   4.618
15655W        W87271  13.610  18.977   5.095
15656W        W87272   8.863   6.454   2.632
15657W        W87273  28.651  34.100  12.382
15658W        W87274  15.780   1.072   4.946
15659W        W87275  13.245  24.385  13.458
15660W        W87276  21.152  20.008   4.603
15661W        W87277  30.007  27.123   4.428
15662W        W87278   9.970   9.416  13.087
15663W        W87279  40.628  25.916   4.332
15664W        W87280  35.567  30.617   2.189
15665W        W87281  18.792  30.388   3.983
15666W        W87282   1.364  18.083   2.700
15667W        W87283   9.542  36.924   3.281
15668W        W87284  24.429  14.784  14.411
15669W        W87285  22.267  16.086  12.028
15670W        W87286  32.215   9.252   3.193
15671W        W87287  31.115  28.388  12.895
15672W        W87288   9.310  24.500  11.140
15673W        W87289  20.595  44.453   0.448
15674W        W87290  25.093  17.847  11.645
15675W        W87291  24.891  34.471   1.455
15676W        W87292  29.041   5.254   1.696
15677W        W87293  26.707   4.692  10.463
15678W        W87294   3.496  33.144  11.058
15679W        W87295  22.164  34.429   0.490
15680W        W87296  19.197  36.464   4.608
15681W        W87297  14.539  22.974   4.121
15682W        W87298  35.974  18.031   3.144
15683W        W87299  11.911  25.958   4.140
15684W        W87300  24.795  19.087  12.003
15685W        W87301   3.865  35.014   0.485
15686W        W87302  26.250  18.339  13.875
15687W        W87303  39.982  38.583   4.394
15688W        W87304  30.180  20.651  12.566
15689W        W87305  10.067  22.548  10.718
15690W        W87306   3.923  12.775  13.555
15691W        W87307   4.419  30.300  14.417
15692W        W87308  13.729  35.276   4.960
15693W        W87309  17.028  18.345   1.159
15694W        W87310  25.329  32.397   4.189
15695W        W87311  27.055  19.181   0.696
15696W        W87312  14.045  11.325  11.606
15697W        W87313  12.831  10.634  12.859
15698W        W87314  13.285  32.098  12.197
15699W        W87315   6.284  31.450   1.167
15700W        W87316  35.576  34.903  10.759
15701W        W87317  39.866   6.978   1.715
15702W        W87318  22.894  36.925   3.691
15703W        W87319   5.876   2.993   0.044
15704W        W87320  34.116  35.132  10.686
15705W        W87321  16.830  25.172   2.360
15706W        W87322   3.317  44.953  13.543
15707W        W87323  40.882  24.860  13.949
15708W        W87324  22.726   3.371   0.372
15709W        W87325  33.585  35.996  11.084
15710W        W87326  29.164   6.121  14.180
15711W        W87327  29.442  12.608  10.207
15712W        W87328  44.325  25.637  14.938
15713W        W87329  17.366  17.630   9.666
15714W        W87330   0.727   1.995   1.844
15715W        W87331   1.594  37.764   1.625
15716W        W87332  14.851  40.995   1.474
15717W        W87333  44.324  31.909  11.897
15718W        W87334  34.331  37.169  13.079
15719W        W87335  11.787  18.061  11.250
15720W        W87336  11.260  27.889   3.353
15721W        W87337  14.378  26.906  13.923
15722W        W87338  29.565  22.207   2.888
15723W        W87339  28.614  16.248  12.980
15724W        W87340  32.693  29.479  13.529
15725W        W87341  12.896  23.759  11.529
15726W        W87342   7.913  44.853  14.609
15727W        W87343  26.936  41.792  11.609
15728W        W87344  22.144  18.483  13.486
15729W        W87345  28.124  18.064   2.084
15730W        W87346  20.308  28.023  13.087
15731W        W87347  33.072  44.971   0.435
15732W        W87348  32.585  42.748  13.004
15733W        W87349   1.806   1.727  11.543
15734W        W87350  36.351  34.544   2.442
15735W        W87351  14.535  43.162  13.901
15736W        W87352   9.873  20.891  12.007
15737W        W87353   3.210   3.450  14.561
15738W        W87354  11.456  24.935  11.897
15739W        W87355   1.077  19.096  13.939
15740W        W87356  31.069  34.972   3.685
15741W        W87357  39.841  24.502  10.739
15742W        W87358   4.173  43.104  13.435
15743W        W87359  27.880  40.588  13.066
15744W        W87360  22.269   3.873  11.162
15745W        W87361  13.110  29.514   1.733
15746W        W87362  43.550  11.837  11.771
15747W        W87363  17.564  38.831  14.441
15748W        W87364  13.831   8.367  13.464
15749W        W87365  13.878   5.383   3.467
15750W        W87366   8.264  39.419   2.572
15751W        W87367   7.674  25.250   1.318
15752W        W87368  31.071  25.089   2.753
15753W        W87369  32.166  41.112  11.062
15754W        W87370  17.044  26.854   1.014
15755W        W87371   6.392  37.455   0.023
15756W        W87372  10.425  36.125  11.205
15757W        W87373  38.339  25.207  13.391
15758W        W87374  44.779   2.388   2.543
15759W        W87375  38.355  44.860   2.454
15760W        W87376  23.987  31.103   1.389
15761W        W87377  29.545  21.918  11.895
15762W        W87378  20.270  20.836  11.074
15763W        W87379  28.002   8.623  12.958
15764W        W87380  30.638  11.119  11.081
15765W        W87381  28.050  31.047   3.454
15766W        W87382  25.304  40.500  10.680
15767W        W87383  32.507   0.871   1.255
15768W        W87384   1.331  15.964   1.148
15769W        W87385  43.527   0.492  13.708
15770W        W87386  37.830  40.110   4.709
15771W        W87387   0.503  20.804  11.491
15772W        W87388  12.572  43.455   1.876
15773W        W87389  34.110  10.009   2.959
15774W        W87390  27.437  32.396  12.015
15775W        W87391   8.146  13.555  11.612
15776W        W87392   6.224  21.682  11.242
15777W        W87393  29.118  31.420  11.831
15778W        W87394   1.385  29.401   2.200
15779W        W87395   5.853  27.123  13.314
15780W        W87396  24.708  22.007   3.389
15781W        W87397   8.678  15.248   1.432
15782W        W87398  18.538  18.702   2.075
15783W        W87399  44.967  25.554  12.940
15784W        W87400  17.030  19.174  13.812
15785W        W87401  40.632  33.684   4.885
15786W        W87402  15.533   0.175   1.266
15787W        W87403  18.371  38.527   0.860
15788W        W87404  26.817  24.999   2.889
15789W        W87405  40.290  30.922  14.736
15790W        W87406  33.608   5.204   3.265
15791W        W87407  15.029  32.920   2.856
15792W        W87408  25.533  32.759   2.667
15793W        W87409  10.708  20.129  14.106
15794W        W87410   2.411  40.079  12.623
15795W        W87411   0.325  11.096  12.982
15796W        W87412  30.856   2.220  11.526
15797W        W87413  37.829  11.182   2.181
15798W        W87414  11.511  27.948  13.671
15799W        W87415  38.819  40.623   2.843
15800W        W87416  14.842  25.934  12.539
15801W        W87417  43.664  41.222  13.937
15802W        W87418  40.666  22.678   3.022
15803W        W87419  27.467   0.999  14.057
15804W        W87420  41.924  29.935   0.516
15805W        W87421  25.150  10.826  12.147
15806W        W87422  24.910  10.624  13.120
15807W        W87423  23.648  29.598   3.896
15808W        W87424  43.580   7.266  13.997
15809W        W87425   9.902  33.938  11.210
15810W        W87426  27.696   8.132   2.654
15811W        W87427  12.569  19.113   1.294
15812W        W87428  15.271  33.387  11.729
15813W        W87429  24.937  21.668  13.419
15814W        W87430  34.646   9.261   3.680
15815W        W87431  26.214   4.767  10.528
15816W        W87432  13.234  11.891   2.546
15817W        W87433   0.646  19.675   3.781
15818W        W87434  34.808  25.548  14.231
15819W        W87435   3.883  14.839   4.155
15820W        W87436  13.105  20.698  14.537
15821W        W87437   6.603  37.639  12.331
15822W        W87438  31.507   3.371   3.868
15823W        W87439   8.736  40.754   0.598
15824W        W87440  14.305   3.282  14.508
15825W        W87441  11.874  41.956  12.466
15826W        W87442  19.007   3.281  13.110
15827W        W87443  36.907  24.647  12.826
15828W        W87444  21.057  37.891   0.548
15829W        W87445  23.090  43.573   1.420
15830W        W87446  26.308  42.332  10.363
15831W        W87447  29.611   4.781   4.686
15832W        W87448   6.990  43.344   0.352
15833W        W87449   6.923  14.603  13.059
15834W        W87450  16.182   0.903   1.904
15835W        W87451  22.990  32.979   2.126
15836W        W87452   0.575  38.234  14.498
15837W        W87453  38.552   2.965   4.439
15838W        W87454  25.011  14.591   0.207
15839W        W87455  14.755  21.264   4.550
15840W        W87456  14.613  18.013  10.248
15841W        W87457  37.325  37.651   3.234
15842W        W87458  16.244  26.209  12.867
15843W        W87459   0.210  30.142  11.930
15844W        W87460  25.361   6.859  12.912
15845W        W87461  38.036   9.305  14.970
15846W        W87462  35.185   7.500   2.042
15847W        W87463  33.801  40.427   0.380
15848W        W87464  27.173  26.428   2.900
15849W        W87465  30.647   7.099   3.450
15850W        W87466  40.550  12.686   2.606
15851W        W87467   1.946  10.748   4.109
15852W        W87468  24.686  20.949  14.926
15853W        W87469  44.177  42.370   3.631
15854W        W87470  24.969  17.754   2.874
15855W        W87471   5.125  43.984   3.723
15856W        W87472   6.876  43.316   2.151
15857W        W87473  25.066  15.366   1.478
15858W        W87474  24.571  34.079   1.378
15859W        W87475  14.142  33.873   0.785
15860W        W87476  14.789  30.637   2.351
15861W        W87477   0.077   8.699  11.212
15862W        W87478   3.539   6.286  14.403
15863W        W87479   0.910  32.492  13.832
15864W        W87480   6.115   2.683   3.388
15865W        W87481  15.522  30.191   0.306
15866W        W87482  40.777  30.537  12.994
15867W        W87483  25.706  30.097  13.977
15868W        W87484  40.364  14.250  11.126
15869W        W87485  12.350  17.634   4.153
15870W        W87486  17.724   2.427  12.950
15871W        W87487  12.029  14.415   4.178
15872W        W87488  21.510   5.168   4.111
15873W        W87489  41.209  12.180  11.093
15874W        W87490  24.999  43.423  11.902
15875W        W87491  31.641  39.285  12.964
15876W        W87492   7.837   6.051   2.612
15877W        W87493  21.568  21.477  13.567
15878W        W87494  36.101  11.468   1.589
15879W        W87495   8.853  32.596   2.021
15880W        W87496  19.163  25.201  13.306
15881W        W87497  10.638  20.101   2.745
15882W        W87498  31.382  40.377   4.220
15883W        W87499  37.423  25.530   3.182
15884W        W87500   5.640  42.878  10.127
15885W        W87501  30.877  10.837  12.973
15886W        W87502  10.667  25.908  12.612
15887W        W87503  16.869  14.747   2.230
15888W        W87504  36.271   2.238   1.872
15889W        W87505   9.826  16.217   2.682
15890W        W87506  10.389  12.096   2.639
15891W        W87507  10.403  36.479  11.663
15892W        W87508  40.592  38.684  12.432
15893W        W87509  34.896  29.112  13.862
15894W        W87510  28.447  22.237  11.122
15895W        W87511  13.897  14.628   0.067
15896W        W87512   4.256  38.134   2.895
15897W        W87513  32.051  35.394   1.790
15898W        W87514  43.863  18.594  14.806
15899W        W87515  10.745  38.986  13.369
15900W        W87516  14.778  32.480   0.874
15901W        W87517   7.926   0.131   1.305
15902W        W87518  41.936  42.498   0.743
15903W        W87519  27.976  40.838   0.579
15904W        W87520  35.375  24.186   4.098
15905W        W87521  36.174  38.116   0.191
15906W        W87522   7.879  22.759   3.753
15907W        W87523  19.568  30.683   4.578
15908W        W87524   6.838  13.849  10.484
15909W        W87525  32.522  27.375   1.337
15910W        W87526   1.255  25.525  12.088
15911W        W87527   5.865   8.601  12.567
15912W        W87528  15.564  15.361   9.836
15913W        W87529  12.307   4.691  10.570
15914W        W87530  35.184  20.322   0.357
15915W        W87531  20.238   2.308   4.725
15916W        W87532  28.695   2.340   1.189
15917W        W87533  41.991   3.715  14.776
15918W        W87534  20.152  17.862   2.882
15919W        W87535   3.280  30.065  14.516
15920W        W87536   0.246  37.513  13.856
15921W        W87537  43.326  32.764   2.881
15922W        W87538  34.252  16.907  13.187
15923W        W87539  40.740  18.769   4.328
15924W        W87540  13.242  26.723   2.432
15925W        W87541  22.212  21.622  12.678
15926W        W87542   1.272  14.647   3.169
15927W        W87543  10.191  15.741   4.748
15928W        W87544  36.421  23.923  13.018
15929W        W87545  23.383  31.410   0.402
15930W        W87546  22.963  42.033   0.306
15931W        W87547  21.808   3.230  11.719
15932W        W87548  41.320  36.121   4.463
15933W        W87549  27.151  29.099   2.459
15934W        W87550  10.060   9.142   1.030
15935W        W87551   8.694  11.108   2.539
15936W        W87552   7.203  14.814   3.637
15937W        W87553   0.706   8.535   4.157
15938W        W87554   3.437  10.829   4.489
15939W        W87555   3.911  37.780  11.236
15940W        W87556   2.461  21.695  10.701
15941W        W87557  12.234  10.161   2.519
15942W        W87558  41.390   2.843   0.918
15943W        W87559  21.201  35.749   1.882
15944W        W87560  14.773  25.124  10.784
15945W        W87561  11.744  32.677  14.739
15946W        W87562   7.842  18.411   4.907
15947W        W87563   3.520  12.360  10.766
15948W        W87564  10.522  21.044  12.623
15949W        W87565  10.724  33.124   1.807
15950W        W87566  27.067   4.037   2.144
15951W        W87567  34.449   6.797  14.126
15952W        W87568  22.774  18.135   4.784
15953W        W87569  42.775  25.108   4.421
15954W        W87570  32.547   5.426   2.765
15955W        W87571  22.080  26.432  14.461
15956W        W87572  35.342  35.781  11.501
15957W        W87573  16.770   4.471   4.183
15958W        W87574   3.663  16.612  14.356
15959W        W87575  21.081  13.266   2.916
15960W        W87576  34.432   5.866   3.265
15961W        W87577  23.323  14.303   1.841
15962W        W87578  20.227   3.716   1.805
15963W        W87579  39.364  38.815  14.787
15964W        W87580  11.718  18.014   2.676
15965W        W87581  10.685  43.777   4.593
15966W        W87582  14.644  28.558   3.175
15967W        W87583  30.658  15.721  14.974
15968W        W87584  18.523  30.460  11.254
15969W        W87585   2.996  15.341   3.243
15970W        W87586  15.247  30.443   2.781
15971W        W87587  21.699   9.107   1.893
15972W        W87588  12.915  14.135  14.378
15973W        W87589   2.228  19.599  11.075
15974W        W87590   7.239  27.659  12.591
15975W        W87591   8.484   9.803  14.940
15976W        W87592  18.135  20.009   1.772
15977W        W87593  38.010  44.538   4.061
15978W        W87594  18.667  42.167  11.111
15979W        W87595  11.101   0.401   0.308
15980W        W87596  15.178   4.466   4.690
15981W        W87597  42.932  42.465  10.655
15982W        W87598  24.072  16.578   2.254
15983W        W87599  22.131   0.143   1.403
15984W        W87600  10.283  10.837  10.785
15985W        W87601  31.931  19.742   3.802
15986W        W87602  19.023  27.881   1.734
15987W        W87603  11.913  17.243  11.162
15988W        W87604  32.662  18.408  12.829
15989W        W87605   4.743  11.175   0.744
15990W        W87606  23.012  32.829  13.348
15991W        W87607   1.431  11.031  14.816
15992W        W87608   9.145  12.113   2.231
15993W        W87609   9.164  34.882  13.419
15994W        W87610   0.084  19.265  14.911
15995W        W87611  34.867   2.711  13.284
15996W        W87612   0.784  12.619   0.292
15997W        W87613  44.730   6.341  14.885
15998W        W87614  22.546  41.070  12.848
15999W        W87615  36.102  10.682   0.484
16000W        W87616  29.126  29.392  12.937
16001W        W87617  12.164  40.810   0.981
16002W        W87618   6.634  34.751   0.296
16003W        W87619  16.175   0.709   2.385
16004W        W87620  26.637  40.098  14.231
16005W        W87621  22.634  34.219   0.415
16006W        W87622  19.766   4.154   4.127
16007W        W87623   8.803  35.892   2.342
16008W        W87624  29.663   3.362  13.003
16009W        W87625  40.676  15.804  14.988
16010W        W87626  37.606  31.615  11.678
16011W        W87627  33.850  40.699  11.655
16012W        W87628  20.720  20.004  12.421
16013W        W87629  31.638   4.806   0.150
16014W        W87630  18.145  18.828   0.215
16015W        W87631  42.975  43.256  11.529
16016W        W87632  39.012  23.193  13.890
16017W        W87633  33.087  20.793  11.427
16018W        W87634  19.398  28.266   3.642
16019W        W87635  19.192  20.295   0.319
16020W        W87636  31.024  16.002   2.878
16021W        W87637  39.137  11.126  10.314
16022W        W87638  30.545  40.487   2.950
16023W        W87639  12.288  34.707  14.378
16024W        W87640   8.398   3.844  13.606
16025W        W87641  11.790  43.101   3.842
16026W        W87642  34.462  28.252   4.152
16027W        W87643  18.076   2.868  13.499
16028W        W87644   0.813  29.645   2.178
16029W        W87645  43.642   5.897   0.392
16030W        W87646  19.056  35.663  14.282
16031W        W87647  24.786  32.389   0.291
16032W        W87648  14.375  25.340   1.266
16033W        W87649  20.979   9.651   0.291
16034W        W87650  19.650   4.957  11.736
16035W        W87651   1.069  28.686   4.228
16036W        W87652  23.435   3.411   5.060
16037W        W87653   5.564   5.080  13.482
16038W        W87654  42.194  12.301   2.656
16039W        W87655  13.673  31.161   2.211
16040W        W87656  29.590   6.278   3.437
16041W        W87657  23.307  28.036   0.920
16042W        W87658  11.794   2.043  13.312
16043W        W87659   9.768  17.782   4.300
16044W        W87660  37.531  33.564  11.725
16045W        W87661  29.177  29.586  13.637
16046W        W87662  20.336  15.149  12.055
16047W        W87663  44.936  41.841   0.394
16048W        W87664   7.865  24.642  11.462
16049W        W87665  31.100  19.148   1.653
16050W        W87666  40.567   5.650  11.063
16051W        W87667   2.545   4.920   1.664
16052W        W87668  30.395   4.887   1.372
16053W        W87669  38.872  20.749   3.335
16054W        W87670  28.446   3.850   0.083
16055W        W87671  29.701  22.527  14.928
16056W        W87672  15.558  10.203   2.688
16057W        W87673  11.143  23.527  11.797
16058W        W87674  15.795  19.635  13.807
16059W        W87675   6.901  34.458  11.479
16060W        W87676  20.197  39.488  11.176
16061W        W87677  18.333   7.840   1.842
16062W        W87678  26.015  13.373   4.878
16063W        W87679  24.027  11.200  12.900
16064W        W87680  16.196  29.008   4.041
16065W        W87681   3.514   1.836  10.544
16066W        W87682  30.312  25.673   2.833
16067W        W87683   6.415   7.880  14.012
16068W        W87684   0.015  34.909   4.311
16069W        W87685  20.585   1.504   2.626
16070W        W87686  33.613   2.486  11.681
16071W        W87687   2.518  28.922  10.192
16072W        W87688  26.627  41.793   1.931
16073W        W87689   7.743  20.821  13.553
16074W        W87690  25.656  34.917   1.938
16075W        W87691  38.262  28.162   3.417
16076W        W87692   3.319  39.781  13.970
16077W        W87693  22.480  12.763   1.921
16078W        W87694  25.207  27.133   2.198
16079W        W87695  42.451  16.224   1.004
16080W        W87696  44.326  39.463  14.822
16081W        W87697  31.794  18.246   2.682
16082W        W87698  32.286  33.220  10.998
16083W        W87699  21.757  23.654  14.316
16084W        W87700   1.001  14.766   3.681
16085W        W87701  25.134  27.478  14.349
16086W        W87702  28.704   1.337  11.417
16087W        W87703  23.624  13.773   4.470
16088W        W87704   4.622   8.415  11.209
16089W        W87705  31.810  18.530   3.162
16090W        W87706  27.145  21.872   0.008
16091W        W87707  28.383  36.072   0.691
16092W        W87708  21.329  38.659   0.982
16093W        W87709  44.544  16.410   2.168
16094W        W87710  11.577  22.428   2.362
16095W        W87711  15.674  41.337   4.803
16096W        W87712  25.999  22.283   3.689
16097W        W87713  14.626  27.688   3.803
16098W        W87714  28.057  42.051   1.368
16099W        W87715  11.331  27.425  11.063
16100W        W87716  12.248  27.021   4.584
16101W        W87717  16.743   1.273   4.550
16102W        W87718  15.724  32.099  11.803
16103W        W87719   5.487  20.564  14.796
16104W        W87720  22.489  40.997   1.507
16105W        W87721   0.735   2.265  13.165
16106W        W87722   0.500  27.039   3.714
16107W        W87723  17.529  35.783  11.582
16108W        W87724  18.082   5.678  12.527
16109W        W87725  17.469  32.604   4.493
16110W        W87726  17.335  10.761  12.937
16111W        W87727  33.154   6.982   2.316
16112W        W87728  42.348  17.116   4.122
16113W        W87729  25.979  32.511   4.066
16114W        W87730  19.566  10.883  12.386
16115W        W87731  39.783  28.233   3.005
16116W        W87732   4.315  14.935   0.824
16117W        W87733  10.143  36.288  12.066
16118W        W87734  31.161  28.573   1.235
16119W        W87735  43.910   7.698  12.758
16120W        W87736  42.453   9.656  14.404
16121W        W87737  31.569  40.040  13.462
16122W        W87738  38.017  39.872  11.317
16123W        W87739  19.774  27.159  14.373
16124W        W87740  20.479   5.268  11.479
16125W        W87741  19.190  33.367   0.592
16126W        W87742   7.221  26.219   2.156
16127W        W87743  27.648   5.642   4.535
16128W        W87744  23.118  32.127  10.978
16129W        W87745  43.555  12.374   4.591
16130W        W87746  26.233  37.128   1.449
16131W        W87747  33.294  21.381   1.759
16132W        W87748   2.731  40.400  11.150
16133W        W87749   6.343   3.009  10.984
16134W        W87750   3.319  36.690  14.835
16135W        W87751  11.139  26.139  12.704
16136W        W87752  42.552   2.379   1.037
16137W        W87753  29.551  29.729   4.647
16138W        W87754  15.142  12.153  14.223
16139W        W87755   6.713  14.650   2.737
16140W        W87756  22.132  12.067   3.001
16141W        W87757  15.138  11.167   2.800
16142W        W87758  33.934  21.494  12.337
16143W        W87759  43.049  28.463  10.803
16144W        W87760   7.265   1.735  13.451
16145W        W87761  14.158  14.046  14.473
16146W        W87762  40.930  19.771   3.261
16147W        W87763  41.769  24.063   3.785
16148W        W87764  23.681  34.596  11.473
16149W        W87765   2.144   9.180  12.253
16150W        W87766  41.563  35.270  11.029
16151W        W87767   0.923  22.676  14.810
16152W        W87768  16.040  42.013   3.656
16153W        W87769  32.401  31.957   4.081
16154W        W87770   6.107  25.463  12.416
16155W        W87771   4.743  38.799   0.897
16156W        W87772  37.934  40.791   3.791
16157W        W87773  31.117   4.177   1.871
16158W        W87774  35.428  42.513  11.709
16159W        W87775  44.797  36.008   0.728
16160W        W87776   0.159  26.448   3.119
16161W        W87777   5.727  22.808  14.525
16162W        W87778  32.577  37.308  14.495
16163W        W87779  32.281  14.227  10.381
16164W        W87780  16.588  24.080  11.006
16165W        W87781  38.170  20.581  13.851
16166W        W87782  31.937  44.195  13.267
16167W        W87783  12.796   3.039  12.377
16168W        W87784  20.053  28.977   2.757
16169W        W87785  11.352  31.056  14.494
16170W        W87786  43.868  13.178   0.566
16171W        W87787   9.353  18.242   1.894
16172W        W87788  35.804  14.332  11.504
16173W        W87789  19.565  12.308  11.996
16174W        W87790  22.537  12.804  10.338
16175W        W87791   3.762  21.273   3.586
16176W        W87792  30.581  39.760  11.567
16177W        W87793  13.626  13.208  12.935
16178W        W87794  41.746   3.946   0.829
16179W        W87795  21.264  21.033   4.409
16180W        W87796  27.949   7.778   1.555
16181W        W87797  10.898  34.628   4.609
16182W        W87798  41.588  38.936   4.676
16183W        W87799  18.712  19.339  14.834
16184W        W87800   9.087  16.681  11.993
16185W        W87801  42.416   4.477  11.067
16186W        W87802  44.849  34.321  12.907
16187W        W87803  14.286  29.664   0.693
16188W        W87804   1.758  14.106  14.363
16189W        W87805  23.868  40.348  14.011
16190W        W87806  25.507  14.242   2.249
16191W        W87807   8.144  17.801   0.838
16192W        W87808  21.651  26.030   0.973
16193W        W87809  44.536  20.792   4.174
16194W        W87810  44.178  12.117  14.352
16195W        W87811  26.742  19.552   1.209
16196W        W87812  22.028   6.604  13.341
16197W        W87813   8.589  11.931   2.726
16198W        W87814  35.075  25.466  11.554
16199W        W87815  10.637  11.371   0.565
16200W        W87816  39.547  42.438   3.617
16201W        W87817  31.557   6.317   4.174
16202W        W87818  39.368  13.517   2.624
16203W        W87819  17.497  16.355  13.499
16204W        W87820  29.011  24.652   4.915
16205W        W87821  13.135  43.886  10.828
16206W        W87822   7.156  25.887   3.151
16207W        W87823  24.694   5.730   3.364
16208W        W87824   7.852  14.492   2.234
16209W        W87825  13.726  29.003  14.140
16210W        W87826  13.818  11.173  13.529
16211W        W87827   8.125  23.121  14.526
16212W        W87828  13.189   4.882   1.442
16213W        W87829   5.424  12.845  10.725
16214W        W87830   7.451  19.682  11.546
16215W        W87831  19.031  31.490   4.679
16216W        W87832   5.089  36.986  12.909
16217W        W87833  18.022  25.910  11.046
16218W        W87834  23.948  29.996   4.571
16219W        W87835  24.632   5.918   0.408
16220W        W87836  15.674   8.169   0.476
16221W        W87837  23.299  12.721   3.214
16222W        W87838  22.466  27.037   4.998
16223W        W87839  13.137  16.260   2.310
16224W        W87840   9.413  10.067  11.103
16225W        W87841  29.054  11.393   2.343
16226W        W87842  15.571  30.580  11.281
16227W        W87843   8.677  25.165  11.038
16228W        W87844   3.984  19.390   4.776
16229W        W87845  10.164  17.182   1.822
16230W        W87846  24.391  26.615  10.699
16231W        W87847   1.065   8.759   0.808
16232W        W87848  33.623   4.668   3.265
16233W        W87849  24.345  21.312  12.061
16234W        W87850   5.877  32.646   1.695
16235W        W87851  44.334  13.725  10.918
16236W        W87852  10.257  17.763  12.603
16237W        W87853  39.087  22.644  11.675
16238W        W87854  13.117  32.110   3.763
16239W        W87855   9.594  31.076  13.477
16240W        W87856  26.774  32.894   2.260
16241W        W87857  33.468   4.946   2.843
16242W        W87858  15.139  35.657   2.243
16243W        W87859   9.296  23.758   4.535
16244W        W87860  12.692  36.698  10.523
16245W        W87861  37.393  34.114   3.327
16246W        W87862  24.112  22.524   0.943
16247W        W87863  31.419   2.869   2.640
16248W        W87864  34.501   5.275   2.407
16249W        W87865  44.455  10.190   3.248
16250W        W87866  29.673  17.855  13.555
16251W        W87867  23.654  21.113  14.893
16252W        W87868  41.868  40.275  13.125
16253W        W87869  39.739   1.871  12.144
16254W        W87870  37.342   3.977   2.646
16255W        W87871  10.660  34.894   4.192
16256W        W87872  21.812  36.858  13.318
16257W        W87873  19.655   8.717  11.850
16258W        W87874  44.788  27.900  13.005
16259W        W87875  40.371  10.747   3.647
16260W        W87876  33.987  36.748  13.971
16261W        W87877  14.857   8.759  13.835
16262W        W87878  22.004  44.536  12.854
16263W        W87879   3.763   2.289  10.472
16264W        W87880  13.638   5.908  13.488
16265W        W87881  42.664  41.531   1.364
16266W        W87882  41.973   0.967  12.042
16267W        W87883   3.295  32.421  14.744
16268W        W87884   0.809  28.196  13.667
16269W        W87885   4.950  14.070  14.788
16270W        W87886  25.622  13.233  14.094
16271W        W87887   5.436  15.727   1.325
16272W        W87888   2.036  12.241  11.568
16273W        W87889  13.881  15.321   2.666
16274W        W87890   1.535   0.446  11.275
16275W        W87891   5.661   5.645   4.169
16276W        W87892  25.667  26.627  11.468
16277W        W87893   0.551  29.335  11.496
16278W        W87894  42.309   8.772   2.014
16279W        W87895  39.344   0.920   1.854
16280W        W87896  38.676  25.578  13.928
16281W        W87897   4.978  20.588  13.959
16282W        W87898  27.941  17.190   2.613
16283W        W87899  33.355  39.445   2.143
16284W        W87900   2.315  16.512   0.282
16285W        W87901  31.167   5.803  11.331
16286W        W87902  14.731  28.637   0.508
16287W        W87903  31.328  25.183   3.753
16288W        W87904  40.804  21.741  11.601
16289W        W87905  40.927   0.280  14.779
16290W        W87906  39.950  38.480  11.152
16291W        W87907  13.403  13.768  14.898
16292W        W87908  21.263  14.674   4.775
16293W        W87909  31.971  33.803   2.509
16294W        W87910  35.653  30.488   1.681
16295W        W87911  27.846  27.078  14.888
16296W        W87912   3.746  40.453   4.793
16297W        W87913  28.226  26.924  10.333
16298W        W87914  43.761  44.303  12.185
16299W        W87915   8.314  31.648  12.049
16300W        W87916  41.072  38.922   4.684
16301W        W87917  19.607  19.630  10.352
16302W        W87918  17.139   2.223  10.766
16303W        W87919  22.299  32.934  13.748
16304W        W87920   7.865  19.483  11.141
16305W        W87921  11.445   1.533   2.008
16306W        W87922   0.987  29.054  12.352
16307W        W87923  38.423  33.985  14.385
16308W        W87924  31.416  25.687  12.615
16309W        W87925   9.383  40.607  13.493
16310W        W87926  31.747  34.489  12.386
16311W        W87927  37.387  14.533   5.062
16312W        W87928   6.121   8.309  14.152
16313W        W87929  31.994  22.414  11.911
16314W        W87930   4.635  26.030   1.808
16315W        W87931  10.225  17.773  14.874
16316W        W87932  30.181   9.915  12.369
16317W        W87933   7.160  40.511   3.678
16318W        W87934   9.818  38.473  12.150
16319W        W87935  32.233   6.802  13.683
16320W        W87936  16.592  36.616  12.862
16321W        W87937   7.363  28.528   1.863
16322W        W87938  43.459  36.325   4.161
16323W        W87939  26.239   0.250  14.840
16324W        W87940   2.672  33.845  11.399
16325W        W87941  15.231  44.928   4.937
16326W        W87942   6.264   4.872  10.770
16327W        W87943  38.134  35.892   2.248
16328W        W87944  41.992  42.722   3.990
16329W        W87945  19.493  37.881  13.988
16330W        W87946  36.443  14.002  10.492
16331W        W87947  40.050   9.860   2.239
16332W        W87948  16.647   0.029  12.095
16333W        W87949   5.421  32.641   4.023
16334W        W87950   4.535  42.307   0.110
16335W        W87951  13.220  39.588   9.918
16336W        W87952  38.201  24.451   0.124
16337W        W87953  41.218  34.931   4.589
16338W        W87954  36.337  14.718  11.304
16339W        W87955  24.688  21.616  11.188
16340W        W87956  24.817  29.760  13.858
16341W        W87957  38.892  11.094  10.760
16342W        W87958  14.793  22.080  14.321
16343W        W87959   0.500  37.872   0.263
16344W        W87960  41.474  25.689   0.493
16345W        W87961  18.136  36.350  13.722
16346W        W87962  37.014  11.000   3.759
16347W        W87963   6.525  32.688   2.097
16348W        W87964  24.401  34.574   1.249
16349W        W87965  32.848   1.684  14.840
16350W        W87966  29.033  39.505  13.317
16351W        W87967  42.868   2.496   3.191
16352W        W87968   4.715  44.179   2.796
16353W        W87969   7.691  24.172   0.299
16354W        W87970  11.776  14.611  12.052
16355W        W87971  19.672  34.627  13.818
16356W        W87972  23.660   9.933  12.118
16357W        W87973  40.907   3.004   2.393
16358W        W87974  19.126  30.982  13.423
16359W        W87975  31.469   0.579   2.669
16360W        W87976  32.862  32.070   4.287
16361W        W87977  18.490  17.801   0.821
16362W        W87978  41.540   2.778  12.950
16363W        W87979  40.716  35.850   4.979
16364W        W87980  37.057  41.046   2.779
16365W        W87981  15.819  24.534  12.417
16366W        W87982  23.649  18.530  14.486
16367W        W87983   9.075   8.418  13.777
16368W        W87984  20.175   3.355   4.949
16369W        W87985  38.849  27.152   1.411
16370W        W87986   8.449  17.170   5.064
16371W        W87987   3.391  32.625  10.950
16372W        W87988  17.259  18.721   4.144
16373W        W87989  23.246  41.948  13.938
16374W        W87990  38.373  19.596   0.771
16375W        W87991  25.130   4.158  11.619
16376W        W87992  16.213  40.737  10.426
16377W        W87993   1.436   5.999   2.439
16378W        W87994   5.812   5.502   0.461
16379W        W87995  22.574   6.712  14.005
16380W        W87996  43.914  31.985  11.499
16381W        W87997  34.615  44.533   1.847
16382W        W87998   8.695  34.825  11.127
16383W        W87999  26.695   4.408   4.893
16384W        W88000   9.832   9.692  10.394
16385W        W88001  23.731  41.889  12.958
16386W        W88002  10.924   2.907  12.065
16387W        W88003  39.663  19.131  11.887
16388W        W88004  15.850  26.611  10.036
16389W        W88005   3.147   9.524  11.530
16390W        W88006   0.409  32.909  11.921
16391W        W88007   3.318  44.034   2.869
16392W        W88008  23.531  13.218  13.133
16393W        W88009  31.152  15.477   3.671
16394W        W88010  20.451  17.277   0.852
16395W        W88011  29.210  23.287   1.791
16396W        W88012   5.891  42.846   4.156
16397W        W88013   0.306  40.160   3.644
16398W        W88014  33.902   6.698  12.337
16399W        W88015  37.496  38.080   3.675
16400W        W88016  39.986  44.868   1.310
16401W        W88017  36.387  33.942   3.157
16402W        W88018  25.908   1.679   1.826
16403W        W88019  12.833  38.461  13.504
16404W        W88020  17.488  33.593   1.919
16405W        W88021  31.351  17.594   3.665
16406W        W88022  34.422   0.423  13.444
16407W        W88023  33.148  41.977   1.204
16408W        W88024  26.098  38.783  11.540
16409W        W88025  32.709  16.616   4.115
16410W        W88026   1.743  29.964  14.391
16411W        W88027  28.540  31.189   2.647
16412W        W88028  11.400   4.370   3.216
16413W        W88029   0.182  39.918  13.394
16414W        W88030  38.262  16.570  14.126
16415W        W88031  23.188  40.448   4.070
16416W        W88032  13.729  38.102  13.949
16417W        W88033   5.952  12.909  10.772
16418W        W88034  43.598  44.064   1.940
16419W        W88035  41.969  35.305   2.302
16420W        W88036   0.182  36.511  12.409
16421W        W88037  43.961  13.389   1.413
16422W        W88038   1.261  22.585   4.947
16423W        W88039  18.961  39.751  10.853
16424W        W88040  34.420   0.597  12.635
16425W        W88041  35.546  10.783  13.826
16426W        W88042  36.942  25.139  12.142
16427W        W88043  43.675  27.255  12.984
16428W        W88044  31.359  40.858  12.535
16429W        W88045  42.223  42.379  14.000
16430W        W88046  23.257  26.970   3.843
16431W        W88047   2.908  19.054  12.410
16432W        W88048  19.745  24.356  13.468
16433W        W88049  21.851  32.588  12.372
16434W        W88050  22.530   5.024  11.190
16435W        W88051  38.497  36.501  14.501
16436W        W88052  13.073   7.169   2.210
16437W        W88053   8.781   6.882  10.585
16438W        W88054   5.419   3.252  12.740
16439W        W88055  43.343  35.213   3.574
16440W        W88056  27.420  11.233   4.085
16441W        W88057   6.914  43.984  13.366
16442W        W88058  37.813   0.242   4.579
16443W        W88059  35.578   1.304  14.850
16444W        W88060  24.974   6.384  11.146
16445W        W88061  30.137  25.774  14.916
16446W        W88062  19.136  44.438  12.457
16447W        W88063  35.651   9.411  12.043
16448W        W88064  31.985  29.702  10.122
16449W        W88065  10.631  12.077  12.896
16450W        W88066  34.245   4.663   1.882
16451W        W88067  12.543  12.826  11.159
16452W        W88068  43.485  34.057  10.336
16453W        W88069  15.471  21.010   2.796
16454W        W88070   4.343  24.713   2.422
16455W        W88071  38.113   6.512  12.492
16456W        W88072   9.307  11.387  14.520
16457W        W88073  30.029   5.946   2.636
16458W        W88074   6.838  41.914  12.364
16459W        W88075  27.964  33.969   4.852
16460W        W88076  14.356  41.616  12.388
16461W        W88077  15.510  18.360   0.505
16462W        W88078  39.889   7.083  11.956
16463W        W88079  29.855  39.987  12.062
16464W        W88080  30.071  10.132  13.725
16465W        W88081   2.731  23.119   0.423
16466W        W88082  33.355   7.827   1.010
16467W        W88083   2.989  34.286  11.440
16468W        W88084  22.488  29.709   0.038
16469W        W88085  38.010  26.749   4.601
16470W        W88086   4.704  43.832  10.174
16471W        W88087  17.812   4.437  10.722
16472W        W88088  35.416  41.888  14.321
16473W        W88089  40.286  36.110   0.536
16474W        W88090  31.338  18.538  14.263
16475W        W88091  19.766   0.715  14.371
16476W        W88092  22.089   9.678  14.189
16477W        W88093  32.898  11.591   0.457
16478W        W88094   8.158  12.652  14.235
16479W        W88095   2.412   9.618   3.385
16480W        W88096  23.388  35.487   2.374
16481W        W88097  22.561  10.086   0.842
16482W        W88098  24.053   3.440   0.918
16483W        W88099   8.222  15.128   2.745
16484W        W88100  10.854  38.460  14.097
16485W        W88101  22.217  42.730   3.162
16486W        W88102  42.932  28.511   0.241
16487W        W88103   5.330  37.475  10.641
16488W        W88104  40.124   6.736  13.789
16489W        W88105  17.164  19.598   1.910
16490W        W88106  26.732  37.422   4.991
16491W        W88107  15.955  37.964   1.786
16492W        W88108  36.455  21.473  12.195
16493W        W88109  40.779  25.999  10.965
16494W        W88110  27.180  27.569   1.872
16495W        W88111  44.900  37.565   2.446
16496W        W88112  23.989   0.837   0.806
16497W        W88113  39.354  32.675  12.515
16498W        W88114  27.413  38.205   0.369
16499W        W88115  35.172  20.163  14.311
16500W        W88116  16.359  17.819   0.316
16501W        W88117   7.569  30.864  13.337
16502W        W88118  42.420  27.773  13.353
16503W        W88119  14.251   0.517   3.173
16504W        W88120  12.881  24.440   1.900
16505W        W88121  34.129   9.917   4.820
16506W        W88122  44.997  30.545  13.425
16507W        W88123  24.575  14.535  10.712
16508W        W88124   6.786  18.480  14.475
16509W        W88125  35.471  26.489  12.703
16510W        W88126  18.220  44.781   3.708
16511W        W88127  20.925   0.035   3.878
16512W        W88128   2.494  30.427  13.087
16513W        W88129  32.105  27.019   2.602
16514W        W88130   0.546  25.202  11.566
16515W        W88131  27.456  12.927   4.145
16516W        W88132  29.194  13.955   3.758
16517W        W88133  35.000  21.228  12.995
16518W        W88134  28.166  32.060   0.227
16519W        W88135  23.256   2.549   3.424
16520W        W88136   4.686  37.051   3.303
16521W        W88137  24.400  29.104  12.193
16522W        W88138  21.256   0.465  13.530
16523W        W88139  37.016   3.878  14.357
16524W        W88140  36.837  24.046  11.491
16525W        W88141  19.402  22.416   1.082
16526W        W88142  16.261  43.441   2.256
16527W        W88143   6.289  12.917   1.539
16528W        W88144  11.161  24.618   3.748
16529W        W88145  23.346  17.539  14.896
16530W        W88146  33.918   9.491   4.419
16531W        W88147  26.579   1.862   3.304
16532W        W88148  41.113   0.416   0.945
16533W        W88149  21.666  41.846   3.173
16534W        W88150  25.533  42.453   3.992
16535W        W88151   6.481  21.683  10.292
16536W        W88152   0.534  29.084   4.611
16537W        W88153   0.515   7.009   2.300
16538W        W88154   2.177  24.077   4.610
16539W        W88155  20.265   0.388  10.977
16540W        W88156   2.511  20.700   0.776
16541W        W88157  13.383  14.285  11.104
16542W        W88158  26.950  23.493  14.831
16543W        W88159  16.680  23.288   3.142
16544W        W88160  30.099   5.358   3.659
16545W        W88161   6.769  44.785   0.936
16546W        W88162  40.986   7.391  13.206
16547W        W88163  29.498   1.763   1.445
16548W        W88164   5.277  35.326  14.372
16549W        W88165  37.079  22.294   0.521
16550W        W88166  17.277  41.562  10.443
16551W        W88167   3.738  23.272   0.789
16552W        W88168  20.125  11.899  10.702
16553W        W88169  26.277  39.404   1.406
16554W        W88170  37.550  44.724  12.814
16555W        W88171  23.641  26.741  11.154
16556W        W88172  30.403  37.337  13.881
16557W        W88173  17.902  23.264   4.599
16558W        W88174  29.011   1.825   1.673
16559W        W88175  37.156   4.009  12.943
16560W        W88176  26.565  16.398  10.414
16561W        W88177   3.251  34.932  10.655
16562W        W88178  40.177  43.836  13.444
16563W        W88179  12.236  43.335   3.792
16564W        W88180   5.665  31.569   0.404
16565W        W88181   5.258   1.019   1.095
16566W        W88182  13.847  13.291  11.087
16567W        W88183  30.847  10.245   0.774
16568W        W88184  39.892  30.336  11.550
16569W        W88185  30.158  28.233   1.865
16570W        W88186  16.496  16.061   0.906
16571W        W88187  18.524  11.813   3.679
16572W        W88188  43.024   1.258  13.360
16573W        W88189  24.004   0.226   1.894
16574W        W88190  41.958  37.606   3.753
16575W        W88191  28.594  16.577  12.537
16576W        W88192  39.008  40.820   4.613
16577W        W88193  16.487  10.836   3.173
16578W        W88194  15.060  21.560  10.702
16579W        W88195  36.523  10.293   3.619
16580W        W88196  39.059   1.695  13.523
16581W        W88197  42.720  18.819   3.115
16582W        W88198   3.283  36.524  11.227
16583W        W88199  21.003  22.210   0.849
16584W        W88200   2.197  43.078   4.657
16585W        W88201  38.335   1.014   4.470
16586W        W88202   4.428   2.008   3.604
16587W        W88203  31.470  11.250  13.750
16588W        W88204  10.112  33.398   1.775
16589W        W88205  27.517  42.024  12.144
16590W        W88206  20.090  10.703   2.914
16591W        W88207  22.684  25.787  11.904
16592W        W88208  34.064  13.687  11.440
16593W        W88209  39.079  40.963  11.741
16594W        W88210  40.759  27.143  12.388
16595W        W88211  25.089   4.461   3.381
16596W        W88212  16.577  20.666  13.006
16597W        W88213   6.154  43.284   4.088
16598W        W88214   8.898  26.004  12.976
16599W        W88215   6.284  30.403  13.746
16600W        W88216  29.283   8.760  11.752
16601W        W88217  37.960  24.754   3.248
16602W        W88218  18.540  15.844   2.007
16603W        W88219   9.162  41.967  13.585
16604W        W88220  34.929  12.838  14.859
16605W        W88221  25.528  41.464  12.061
16606W        W88222  26.748  39.529  12.379
16607W        W88223  43.745  26.884  12.202
16608W        W88224   8.101  42.423   0.478
16609W        W88225  20.990   5.193   4.045
16610W        W88226  25.026  26.652   1.756
16611W        W88227  28.397  39.382  10.677
16612W        W88228  40.228  11.916   4.252
16613W        W88229   6.615  32.361   0.036
16614W        W88230  28.785  42.147   3.668
16615W        W88231  37.372  22.974   3.645
16616W        W88232   7.844  31.569   3.374
16617W        W88233  27.087  32.574  13.476
16618W        W88234  43.286   5.118   4.251
16619W        W88235  13.799   4.590  11.594
16620W        W88236  44.834   4.877   1.945
16621W        W88237  31.633   1.522   1.933
16622W        W88238  24.435  22.246   2.717
16623W        W88239  13.166  37.620   1.803
16624W        W88240  37.556  19.617  13.021
16625W        W88241  29.497  33.750  12.073
16626W        W88242  16.572  15.071  11.441
16627W        W88243  10.079  19.047  13.356
16628W        W88244   4.009  34.427   4.073
16629W        W88245   5.578   3.227   0.889
16630W        W88246  19.118   0.323   4.830
16631W        W88247  41.319   6.112   0.414
16632W        W88248  22.419  31.969   2.314
16633W        W88249  30.477  17.981  12.240
16634W        W88250  15.190  38.230  11.257
16635W        W88251   8.106  39.599   0.266
16636W        W88252  15.367  31.565  13.423
16637W        W88253  13.264  11.720   3.880
16638W        W88254  33.774  33.027  14.415
16639W        W88255   9.236  27.856  13.248
16640W        W88256  35.861  13.514  11.073
16641W        W88257  20.677   2.280   1.342
16642W        W88258  36.461  18.346   2.341
16643W        W88259  26.054  34.660  10.370
16644W        W88260   4.189  24.105  10.608
16645W        W88261  25.972  24.464   0.788
16646W        W88262  17.168   7.066  10.553
16647W        W88263   5.757   7.545  12.520
16648W        W88264  24.187  19.517   0.352
16649W        W88265  11.379  25.920  11.465
16650W        W88266   7.952  37.563   2.805
16651W        W88267  15.183  29.456   0.256
16652W        W88268  25.289  26.585  12.342
16653W        W88269  20.625  44.530  14.946
16654W        W88270   3.222   6.132  12.891
16655W        W88271  28.987   6.971   3.641
16656W        W88272  22.315  22.718   1.318
16657W        W88273  34.079  35.005   3.742
16658W        W88274  10.695  42.528   1.390
16659W        W88275   4.683  30.026   3.635
16660W        W88276  13.533  22.789   3.698
16661W        W88277   9.413  27.221   0.470
16662W        W88278  23.621  21.480   1.127
16663W        W88279  24.068  17.778  12.990
16664W        W88280  16.093  29.893   1.490
16665W        W88281  40.070  32.692   3.803
16666W        W88282  29.850  26.926  14.053
16667W        W88283  42.240  21.888   2.199
16668W        W88284  39.506  38.443   4.230
16669W        W88285  43.208  39.125  14.865
16670W        W88286   6.658  37.653   4.767
16671W        W88287  27.549  36.158   1.887
16672W        W88288  16.535  33.423  12.352
16673W        W88289  24.606  40.066  13.628
16674W        W88290   4.946  42.090   5.002
16675W        W88291  32.154  40.735   1.731
16676W        W88292  21.673  41.868  10.679
16677W        W88293  15.599  31.951  12.772
16678W        W88294  20.141   1.803   1.829
16679W        W88295  17.226   4.651   0.248
16680W        W88296  33.219   5.470   1.978
16681W        W88297  36.075   9.381   3.645
16682W        W88298  30.121  10.888   0.448
16683W        W88299  44.324  19.209   2.968
16684W        W88300  29.129  35.115  11.230
16685W        W88301   5.175  33.313  12.819
16686W        W88302  21.175   2.860   4.388
16687W        W88303  10.703  34.976  14.561
16688W        W88304   7.402   4.704  13.349
16689W        W88305  34.956  20.128   1.765
16690W        W88306  12.156  14.262  11.912
16691W        W88307  22.384  35.505  13.066
16692W        W88308  39.010  29.920   2.722
16693W        W88309   6.225   6.771  13.493
16694W        W88310   7.911   0.257  14.958
16695W        W88311   4.262  34.503   0.854
16696W        W88312  17.500   5.399  10.769
16697W        W88313  33.215  24.803   0.523
16698W        W88314  36.657  28.983  13.950
16699W        W88315  18.969  41.726  13.322
16700W        W88316   5.608   9.885  11.561
16701W        W88317  39.174  16.768  13.044
16702W        W88318  40.951  20.321  12.663
16703W        W88319  27.142  44.856  10.737
16704W        W88320  44.442  28.507  14.229
16705W        W88321  26.732  17.081  13.816
16706W        W88322   5.292  36.482  14.852
16707W        W88323   9.781   3.882   2.164
16708W        W88324  10.172  26.126   4.842
16709W        W88325  26.985  15.049   3.598
16710W        W88326  15.655   4.852   4.109
16711W        W88327  33.064  23.567   3.370
16712W        W88328  29.610  12.315   4.622
16713W        W88329  37.975   2.502   2.312
16714W        W88330  16.290  44.002  13.027
16715W        W88331  15.856  43.482   4.569
16716W        W88332  32.173  43.767   3.239
16717W        W88333  42.514  25.180   3.540
16718W        W88334   4.966   3.859   2.373
16719W        W88335  13.053   3.732  10.418
16720W        W88336  10.892  23.112   4.229
16721W        W88337  35.441  21.165  14.380
16722W        W88338  23.913  30.584  13.790
16723W        W88339  40.052  10.687   1.552
16724W        W88340   9.831  41.954  10.380
16725W        W88341   1.784  32.243   1.245
16726W        W88342  21.648  13.057   2.303
16727W        W88343   3.264   9.415   3.641
16728W        W88344   4.470  29.048   3.539
16729W        W88345  31.945  25.998   3.739
16730W        W88346  33.674   0.373  12.826
16731W        W88347  10.062  31.201  10.725
16732W        W88348  10.140  30.486   4.796
16733W        W88349  22.309   3.956   3.642
16734W        W88350  24.766   5.303   1.306
16735W        W88351  29.361   8.870   1.231
16736W        W88352  20.904  10.358  11.884
16737W        W88353  32.672   4.002   4.169
16738W        W88354  22.092  19.159   4.777
16739W        W88355   5.177  26.443   4.043
16740W        W88356   9.177   5.096  11.148
16741W        W88357  13.680  44.937  11.192
16742W        W88358   9.816  24.617  10.910
16743W        W88359  24.042  31.958   0.286
16744W        W88360  24.057   8.936  14.408
16745W        W88361   9.087  32.120   4.618
16746W        W88362  38.936  17.791   0.690
16747W        W88363  17.777  22.792  10.713
16748W        W88364  18.379   0.640   0.440
16749W        W88365  12.732  44.831  12.441
16750W        W88366  16.015  18.668  13.520
16751W        W88367   5.741   1.716   1.382
16752W        W88368  38.483  17.255   2.265
16753W        W88369  11.943   6.777   4.006
16754W        W88370  15.589  44.065   3.208
16755W        W88371  38.400  13.269  11.426
16756W        W88372   5.719  14.082   0.341
16757W        W88373  44.656  27.762   1.898
16758W        W88374  36.846  11.309  13.100
16759W        W88375  37.668  17.469  13.359
16760W        W88376  34.596  28.060  12.382
16761W        W88377  21.672  20.252   3.741
16762W        W88378  23.520  43.214  11.527
16763W        W88379  27.049   9.847   2.703
16764W        W88380  34.722   0.236   5.330
16765W        W88381  22.706  33.849   3.362
16766W        W88382  32.180   4.024   1.273
16767W        W88383  11.258  32.591   3.415
16768W        W88384  33.880  37.010  11.570
16769W        W88385  14.061  39.825   1.818
16770W        W88386  43.704   3.922   1.719
16771W        W88387  17.817  23.983   2.741
16772W        W88388   7.629   5.837  11.643
16773W        W88389   6.235   5.987  10.455
16774W        W88390  22.212   0.455  13.971
16775W        W88391   3.473  42.237  14.474
16776W        W88392  42.445  13.535   2.303
16777W        W88393  20.208  31.988   5.017
16778W        W88394   4.844  38.817  11.612
16779W        W88395  21.697   1.851  14.897
16780W        W88396  30.465  31.976  12.965
16781W        W88397  10.048  32.162   4.614
16782W        W88398  38.551  23.773  13.417
16783W        W88399  11.619  24.241  14.319
16784W        W88400  20.986  16.323   3.584
16785W        W88401   1.386  13.566  13.873
16786W        W88402  37.387  41.712  10.933
16787W        W88403  17.353   5.735   3.218
16788W        W88404  10.727   1.586   5.259
16789W        W88405  23.524  35.336  11.234
16790W        W88406   3.709   3.808   3.622
16791W        W88407   6.762  35.660  11.013
16792W        W88408   7.840  19.997   2.260
16793W        W88409  37.333  43.239   1.047
16794W        W88410  22.097  24.691  14.378
16795W        W88411  42.104  36.258  11.993
16796W        W88412  37.570  20.742  14.883
16797W        W88413  10.625  12.747  14.390
16798W        W88414  23.090  27.965   3.703
16799W        W88415  31.289   2.804  12.302
16800W        W88416   4.804  11.656   4.031
16801W        W88417  30.980   8.158  11.106
16802W        W88418  25.591  42.551  14.721
16803W        W88419  43.393   4.304   1.019
16804W        W88420  15.725  30.715  12.243
16805W        W88421  29.818  35.091  13.380
16806W        W88422  22.242  28.638  14.039
16807W        W88423  10.925   3.859   3.685
16808W        W88424  22.980  17.845  14.372
16809W        W88425  28.973  39.129  14.987
16810W        W88426  29.458  15.378   4.627
16811W        W88427  15.731   3.394   0.747
16812W        W88428   9.611  11.231   2.179
16813W        W88429  41.579  33.966  14.127
16814W        W88430  17.003  43.959   0.832
16815W        W88431   7.228  27.620  14.504
16816W        W88432  17.626  16.858   1.930
16817W        W88433  21.502  44.833  12.058
16818W        W88434   7.276  31.735  13.382
16819W        W88435  33.886  20.141   4.067
16820W        W88436  42.215  20.066   2.309
16821W        W88437  12.883  32.577  12.923
16822W        W88438  38.865  26.643   1.358
16823W        W88439  23.173  27.535  12.875
16824W        W88440  36.118  28.388   0.899
16825W        W88441  28.437  26.883   4.324
16826W        W88442  24.998   7.765   0.463
16827W        W88443  19.715   1.240  10.661
16828W        W88444  10.667  19.817   4.173
16829W        W88445  23.281  44.097   2.262
16830W        W88446  31.868  13.656  13.908
16831W        W88447  16.162  44.548   0.790
16832W        W88448  31.023  10.684   2.650
16833W        W88449  12.127  10.799  11.135
16834W        W88450  27.486  12.073   3.696
16835W        W88451  35.516  23.129  12.678
16836W        W88452   8.818  30.903  14.879
16837W        W88453  35.413  40.599  13.001
16838W        W88454   6.776  17.040  10.434
16839W        W88455  19.753  15.084  11.715
16840W        W88456  22.225  24.162  13.125
16841W        W88457   1.916   2.389  11.186
16842W        W88458  13.075   6.195  14.012
16843W        W88459   6.379   2.477  14.669
16844W        W88460   7.085  37.528   3.075
16845W        W88461  13.586   4.444   9.978
16846W        W88462  22.129  33.051   0.931
16847W        W88463  26.174   6.396  11.545
16848W        W88464   1.958   9.837   0.351
16849W        W88465  16.048  35.143   3.162
16850W        W88466  20.822  26.761   3.766
16851W        W88467   7.976  25.057   4.598
16852W        W88468  32.597   5.377  10.745
16853W        W88469  34.116  13.601   1.494
16854W        W88470  36.627  43.029  14.974
16855W        W88471  10.722  12.832  11.655
16856W        W88472  38.408  15.251   3.556
16857W        W88473   9.920  23.039  14.964
16858W        W88474  43.655  23.071  13.162
16859W        W88475  31.722  21.552  12.686
16860W        W88476  16.264  10.765  11.219
16861W        W88477   9.279   7.624   3.394
16862W        W88478  38.876  19.263  14.979
16863W        W88479  29.446  18.779   3.652
16864W        W88480  10.437  19.279   0.739
16865W        W88481  20.250  29.219  14.433
16866W        W88482   7.000   5.241   4.561
16867W        W88483  44.757  23.275  13.356
16868W        W88484  43.366  26.483  12.403
16869W        W88485  17.339  21.075   0.696
16870W        W88486  33.408  29.056  10.158
16871W        W88487  17.188  42.348  13.218
16872W        W88488  26.223  13.361  12.419
16873W        W88489  27.081  29.066  11.223
16874W        W88490   6.147   7.796   2.831
16875W        W88491  37.989  36.908  12.238
16876W        W88492  33.017   5.677   2.712
16877W        W88493  22.058   2.163  11.153
16878W        W88494   0.425  13.031   0.879
16879W        W88495  18.239  11.588   4.099
16880W        W88496   2.753  37.025  10.983
16881W        W88497  34.491  29.701  11.556
16882W        W88498  25.706  10.898  10.708
16883W        W88499  11.081  44.481  10.619
16884W        W88500   8.475  33.180   2.757
16885W        W88501   1.492  30.021  10.676
16886W        W88502  29.193   4.730   1.733
16887W        W88503  27.784  23.601  14.420
16888W        W88504  42.480  37.798   2.234
16889W        W88505   7.784  15.662   4.572
16890W        W88506  16.825  14.962  13.464
16891W        W88507  13.885   0.231   1.884
16892W        W88508  22.220  23.189   2.376
16893W        W88509   5.416  18.524   2.648
16894W        W88510  13.455   1.160   1.164
16895W        W88511  38.156  34.584   4.523
16896W        W88512  18.925  38.773   9.909
16897W        W88513  21.048  37.523  11.159
16898W        W88514  40.294  32.345  12.536
16899W        W88515  35.433  10.749  11.369
16900W        W88516  14.776  17.122  11.546
16901W        W88517   8.177  38.059   2.724
16902W        W88518  20.724  39.014  10.703
16903W        W88519  41.993   3.389   3.185
16904W        W88520   0.061  30.475  12.900
16905W        W88521  28.974  21.603   3.183
16906W        W88522  12.148   8.688   1.512
16907W        W88523  13.500  37.061   4.309
16908W        W88524  38.445  44.603  14.940
16909W        W88525   1.846  37.713   4.602
16910W        W88526  12.609   0.005  13.278
16911W        W88527  17.238  16.362  13.970
16912W        W88528  37.075  39.043  11.456
16913W        W88529  35.931  37.383  12.019
16914W        W88530  27.485  15.704  12.662
16915W        W88531  29.026  44.467   1.366
16916W        W88532   3.723  41.066   0.960
16917W        W88533  18.342   7.783   0.407
16918W        W88534  42.773  31.220   3.678
16919W        W88535  27.795  38.457   1.172
16920W        W88536  29.141   6.461   3.723
16921W        W88537  17.617  30.764  13.774
16922W        W88538   3.222  11.401   3.834
16923W        W88539   4.278  10.140   1.082
16924W        W88540  29.942  41.370  10.924
16925W        W88541   5.845  25.154  14.878
16926W        W88542  14.744  27.777  12.244
16927W        W88543  39.281  42.340   0.521
16928W        W88544   8.269   3.413   1.592
16929W        W88545  13.219  19.881   3.314
16930W        W88546  42.280  32.963  14.519
16931W        W88547  29.646   1.803  10.396
16932W        W88548  21.183   8.120  12.022
16933W        W88549  30.933  12.820  12.002
16934W        W88550  34.604  44.486  14.953
16935W        W88551  32.494  26.345   0.089
16936W        W88552  27.136  20.984   4.397
16937W        W88553  15.527  33.093   2.727
16938W        W88554   7.721  17.500   0.040
16939W        W88555  10.167  20.616   0.948
16940W        W88556  42.355  38.913   0.681
16941W        W88557  31.054   7.760  12.375
16942W        W88558   1.374  36.075  11.982
16943W        W88559   2.634  13.547   2.141
16944W        W88560  16.425  35.106   0.311
16945W        W88561  27.848   9.608  10.441
16946W        W88562  13.650   2.958   1.444
16947W        W88563   2.193  11.177   2.864
16948W        W88564  27.255  14.217  10.081
16949W        W88565   1.832  25.720  13.696
16950W        W88566  23.672  30.000  13.858
16951W        W88567  10.839  44.722  13.242
16952W        W88568  43.447  15.043   1.333
16953W        W88569  31.114  40.507  11.708
16954W        W88570   2.931  12.118  12.138
16955W        W88571  39.212  21.187   4.352
16956W        W88572  31.951  27.160  14.301
16957W        W88573  21.999  16.519  12.116
16958W        W88574   7.255  11.113   2.880
16959W        W88575  43.171   8.891  10.780
16960W        W88576  15.142  15.717  11.591
16961W        W88577  41.434  23.100   3.875
16962W        W88578  36.245  34.624  10.061
16963W        W88579  37.609  22.942  13.814
16964W        W88580  43.986   2.413  13.810
16965W        W88581   1.977   1.341  11.135
16966W        W88582   8.171  40.332   1.132
16967W        W88583  26.018  24.857   2.479
16968W        W88584  34.803  11.162  13.936
16969W        W88585  11.797   9.954  12.591
16970W        W88586   2.924  28.626   3.232
16971W        W88587  44.549   0.141  12.386
16972W        W88588   5.699  12.700   4.353
16973W        W88589  37.232  34.793  12.493
16974W        W88590  32.972  39.838  14.438
16975W        W88591  12.911  16.633  12.792
16976W        W88592  30.529  44.853  12.988
16977W        W88593  22.503   5.861  10.229
16978W        W88594  42.426  16.969  14.477
16979W        W88595   9.758  33.889  14.569
16980W        W88596  18.532  40.884   3.330
16981W        W88597  13.810   8.865   0.713
16982W        W88598  12.371  10.281  13.483
16983W        W88599  44.577  28.640  12.951
16984W        W88600  26.180  21.080   4.863
16985W        W88601  21.097  17.362  10.720
16986W        W88602  10.498   8.599  12.159
16987W        W88603   8.817  19.504  11.599
16988W        W88604   1.824   1.227  14.524
16989W        W88605  19.595  10.110  12.868
16990W        W88606  31.379  17.320  14.061
16991W        W88607  38.419  12.537  14.051
16992W        W88608   7.809  33.007  11.172
16993W        W88609  23.496  32.875  11.963
16994W        W88610   7.808  35.837  12.014
16995W        W88611   6.834  41.746   4.588
16996W        W88612  17.274  33.867   3.086
16997W        W88613  31.652   8.923  11.134
16998W        W88614  18.028  33.684   1.891
16999W        W88615  21.521  12.295  11.859
17000W        W88616  35.529  27.640   0.270
17001W        W88617   1.010  24.616   3.685
17002W        W88618  23.893  40.939   2.403
17003W        W88619  10.683  43.446   4.074
17004W        W88620  38.451  31.738   0.506
17005W        W88621  39.323  36.271   1.323
17006W        W88622  16.338   0.045   2.901
17007W        W88623  16.351   6.205   0.041
17008W        W88624  13.112  30.465  11.961
17009W        W88625   9.241   2.234   3.657
17010W        W88626  32.663  21.058  11.567
17011W        W88627  37.454  16.865   2.163
17012W        W88628   5.569  10.398   1.987
17013W        W88629  31.625  34.865   1.017
17014W        W88630  29.026  42.534   2.651
17015W        W88631  34.760   9.387  12.039
17016W        W88632   4.580  37.094  13.387
17017W        W88633  10.761  27.243  13.016
17018W        W88634  36.908  43.973  14.343
17019W        W88635   6.229   5.438  11.572
17020W        W88636   5.502  10.670   1.307
17021W        W88637   0.366  13.219  12.439
17022W        W88638  27.692   5.458   3.224
17023W        W88639  41.412  16.770  14.008
17024W        W88640   7.476  22.027  11.365
17025W        W88641  31.352   1.317   1.263
17026W        W88642   2.854  25.086   1.718
17027W        W88643  28.088  42.426  14.228
17028W        W88644  23.001  17.518   1.203
17029W        W88645  38.940   1.049  10.690
17030W        W88646  21.812  24.558  13.887
17031W        W88647  27.171  18.609  12.895
17032W        W88648  37.396  41.830   4.596
17033W        W88649  37.595  24.638   4.079
17034W        W88650  44.430  43.799  10.621
17035W        W88651  18.101   4.800   1.429
17036W        W88652  35.331  31.992  10.769
17037W        W88653  33.143  22.491  13.558
17038W        W88654  42.510  22.204   1.840
17039W        W88655  13.506   5.462  10.642
17040W        W88656   8.872   5.549  10.636
17041W        W88657  40.785   9.816   0.969
17042W        W88658  12.140   8.197  12.164
17043W        W88659   5.622  31.642  13.508
17044W        W88660   1.737   3.693   1.788
17045W        W88661  21.172  33.395   4.167
17046W        W88662   3.120  44.018   0.955
17047W        W88663  31.178  38.402  12.626
17048W        W88664  41.724  32.776  14.751
17049W        W88665  40.061  14.246  13.187
17050W        W88666  15.683  30.914   4.203
17051W        W88667  31.138  35.600  14.794
17052W        W88668  14.239  15.041  13.996
17053W        W88669   5.629   6.839  12.933
17054W        W88670  26.943  11.167  12.523
17055W        W88671   3.445  44.398  12.345
17056W        W88672  11.149  19.648   4.231
17057W        W88673  18.011   1.334  12.967
17058W        W88674  12.184   6.315  13.570
17059W        W88675  21.133   6.136   3.710
17060W        W88676  28.103  22.677  12.391
17061W        W88677  38.076  37.081   0.406
17062W        W88678  28.525  29.940   1.388
17063W        W88679   1.665   9.865   2.225
17064W        W88680  33.969   6.824   4.570
17065W        W88681  24.175  33.045   3.255
17066W        W88682  28.625  41.860  13.133
17067W        W88683  22.106  39.583  11.655
17068W        W88684  32.426  34.078   2.175
17069W        W88685  30.901  38.636   3.806
17070W        W88686   7.571  16.262  13.319
17071W        W88687   8.491   6.740   2.897
17072W        W88688  35.956  18.564   4.034
17073W        W88689  37.571  25.208   1.428
17074W        W88690  28.098   2.322   0.565
17075W        W88691  24.410  14.832   3.120
17076W        W88692  40.923   9.262   3.123
17077W        W88693  12.827  11.037   4.819
17078W        W88694  30.425  33.071  13.522
17079W        W88695  41.226  33.923   1.044
17080W        W88696  34.401  39.020   3.334
17081W        W88697  11.596  18.147   1.213
17082W        W88698  36.193   8.587  11.934
17083W        W88699  24.202   3.186  14.643
17084W        W88700  34.873  24.690   3.319
17085W        W88701  27.320  23.256  13.990
17086W        W88702  31.927   0.748  11.122
17087W        W88703  15.322  13.064  11.625
17088W        W88704  23.758  33.600  13.451
17089W        W88705  31.133  27.088   1.941
17090W        W88706  31.649  26.639  11.046
17091W        W88707  34.020  34.964   1.316
17092W        W88708  17.723  37.943   2.116
17093W        W88709   6.879  22.144   4.112
17094W        W88710  36.899   0.104  11.134
17095W        W88711  18.696   3.925   0.570
17096W        W88712  29.572  35.045   3.743
17097W        W88713  31.697  25.638  12.151
17098W        W88714   4.804  39.047   3.761
17099W        W88715   9.207  26.654  10.583
17100W        W88716  41.250  26.532  12.554
17101W        W88717  20.581  19.599  10.565
17102W        W88718   2.567  30.584   3.150
17103W        W88719  37.309  30.185  13.763
17104W        W88720  42.031  39.481  10.136
17105W        W88721  44.980  36.872   3.606
17106W        W88722  18.249  14.602  11.079
17107W        W88723  32.068  39.804   4.494
17108W        W88724  24.970  23.687   3.895
17109W        W88725   0.779  34.837   0.692
17110W        W88726  13.637  40.443   3.133
17111W        W88727  16.912   0.126   0.326
17112W        W88728  22.546  30.189  10.044
17113W        W88729   5.258  24.643   1.938
17114W        W88730  14.636  43.711  13.866
17115W        W88731   1.606  42.824   3.849
17116W        W88732   4.905  13.582  14.996
17117W        W88733  34.970  20.301  12.646
17118W        W88734   7.305  34.832  13.925
17119W        W88735   6.223  42.767   2.352
17120W        W88736  17.482  30.486   0.807
17121W        W88737   8.852   4.925   3.159
17122W        W88738  37.229   4.482  10.399
17123W        W88739   5.224  41.380   3.716
17124W        W88740   3.355  37.568   2.428
17125W        W88741  36.964  19.276  11.188
17126W        W88742   0.058  20.533   3.651
17127W        W88743  44.281  34.850  13.385
17128W        W88744  28.750  21.132   0.018
17129W        W88745  44.157  19.223   1.931
17130W        W88746  40.830  15.104  12.108
17131W        W88747  43.825  35.525  11.887
17132W        W88748  32.408  13.843   3.778
17133W        W88749  43.420  10.278   2.293
17134W        W88750  24.293   2.102  10.236
17135W        W88751   5.482  37.546  13.459
17136W        W88752  25.623  41.821  13.948
17137W        W88753  30.713  17.716   3.274
17138W        W88754  40.997  16.165   1.239
17139W        W88755  22.101  14.356   2.324
17140W        W88756  27.523  39.514  14.537
17141W        W88757   5.564  43.862  10.416
17142W        W88758  22.901  28.604  13.423
17143W        W88759   9.844  26.244   1.391
17144W        W88760   7.577   0.449  12.845
17145W        W88761   7.923  35.485   2.657
17146W        W88762  32.153   4.190  12.399
17147W        W88763  28.998  25.874  12.233
17148W        W88764   0.765  10.757   3.901
17149W        W88765  44.247  42.611   0.422
17150W        W88766  24.239  30.923   4.529
17151W        W88767  18.649  27.929  13.462
17152W        W88768  33.519  25.717   3.715
17153W        W88769  31.484   1.452   3.817
17154W        W88770  23.730  41.870  11.244
17155W        W88771  10.135  10.529   2.622
17156W        W88772  31.134   6.739  12.301
17157W        W88773   0.134  28.818   0.931
17158W        W88774  36.501  29.166  13.269
17159W        W88775  35.339  31.008  12.457
17160W        W88776  27.614  11.793  14.801
17161W        W88777  32.821  37.324  10.904
17162W        W88778   7.876  13.166  14.955
17163W        W88779  42.567  23.813   1.107
17164W        W88780   4.702  23.593  13.910
17165W        W88781  31.453  26.845   0.772
17166W        W88782  13.198  42.358   1.435
17167W        W88783  32.171  40.196   1.841
17168W        W88784  18.022  16.849  13.099
17169W        W88785  18.555  40.890  13.376
17170W        W88786  39.543  32.364  12.930
17171W        W88787  29.154  33.297   4.065
17172W        W88788   1.747  23.407  13.966
17173W        W88789  26.924   4.673  13.796
17174W        W88790  38.171  35.096  12.466
17175W        W88791  40.482  10.139   2.123
17176W        W88792   8.573  10.051  14.454
17177W        W88793  11.175  36.297   3.684
17178W        W88794  30.642   0.038  14.406
17179W        W88795   7.749   1.676  13.751
17180W        W88796  42.781   8.927   1.835
17181W        W88797  35.901  20.254   1.839
17182W        W88798  17.756  11.112   0.672
17183W        W88799  38.891  16.174   0.378
17184W        W88800  19.678  16.669  10.736
17185W        W88801   9.192  26.958   4.627
17186W        W88802  24.925  12.122  12.427
17187W        W88803  34.838  17.849  13.228
17188W        W88804  21.852  24.474  14.844
17189W        W88805  22.935  32.114   4.021
17190W        W88806  11.380  25.710  13.902
17191W        W88807  37.527   5.851  14.092
17192W        W88808  27.713  16.656   0.304
17193W        W88809  43.088  35.314   4.959
17194W        W88810  27.420  19.656  11.555
17195W        W88811   7.798  23.889  14.320
17196W        W88812   3.270  41.976  14.882
17197W        W88813   6.853  32.650  12.655
17198W        W88814  15.882  27.089  11.988
17199W        W88815  42.539  20.581  13.831
17200W        W88816  35.604   6.940   0.460
17201W        W88817  18.062  12.123  11.600
17202W        W88818  10.793  26.582   0.824
17203W        W88819  31.723  43.905   4.923
17204W        W88820  32.929   3.766   3.616
17205W        W88821  34.736  28.302  12.863
17206W        W88822  38.700  31.123   0.283
17207W        W88823  27.411  43.328  10.555
17208W        W88824  12.957   1.347   1.212
17209W        W88825  37.777  33.637  14.973
17210W        W88826  43.785  13.703   0.658
17211W        W88827  32.183  25.525   0.347
17212W        W88828   9.396   6.838   0.676
17213W        W88829  34.753  44.394  14.276
17214W        W88830  44.357  17.608   1.385
17215W        W88831  14.369  35.122   1.412
17216W        W88832   3.323   4.030   0.839
17217W        W88833   2.357  24.498  14.717
17218W        W88834  33.081  38.007   0.731
17219W        W88835  43.342  34.963  12.478
17220W        W88836  22.780  38.103   1.005
17221W        W88837   7.413  16.980   3.385
17222W        W88838  10.848  12.835   3.328
17223W        W88839   5.504  12.160   1.296
17224W        W88840  17.219  18.937  12.401
17225W        W88841  26.153  29.889   3.897
17226W        W88842   3.359  32.503  10.412
17227W        W88843   3.121   4.264  14.846
17228W        W88844   0.874  25.173   3.324
17229W        W88845  15.365  29.632  12.822
17230W        W88846  37.472  15.362  14.409
17231W        W88847  28.399  39.819   2.336
17232W        W88848   3.851  25.487   3.920
17233W        W88849  32.640  13.167  14.847
17234W        W88850  20.046  17.505  14.206
17235W        W88851  33.103  32.357  13.974
17236W        W88852  42.477   0.454  12.492
17237W        W88853  26.576  23.724   0.941
17238W        W88854  35.240  16.988   1.723
17239W        W88855  26.971  21.695  11.201
17240W        W88856  12.764  44.778   3.209
17241W        W88857  13.271  22.280  12.982
17242W        W88858  19.485  38.902   4.078
17243W        W88859  33.966  36.093   0.827
17244W        W88860  21.944  36.373  14.034
17245W        W88861  43.328  37.534   0.877
17246W        W88862  10.541   6.889  12.413
17247W        W88863  30.412  22.636   4.080
17248W        W88864  16.685  30.512   3.438
17249W        W88865   4.622  36.357   1.694
17250W        W88866   6.642  29.941   3.738
17251W        W88867  16.999  39.587  12.988
17252W        W88868   6.598  16.334  12.129
17253W        W88869  33.954  36.960   1.206
17254W        W88870  35.077  17.056  11.347
17255W        W88871  25.908   4.331  10.600
17256W        W88872  41.002  35.371  12.514
17257W        W88873  42.875   0.816   3.633
17258W        W88874  14.232  34.967  14.599
17259W        W88875  23.931  27.536  13.468
17260W        W88876  37.705   9.750  10.268
17261W        W88877  32.074  35.705   2.254
17262W        W88878  26.520  42.855  10.257
17263W        W88879  24.103  16.790  12.099
17264W        W88880   2.251  20.230  10.733
17265W        W88881  10.710  25.527   2.577
17266W        W88882  41.551   7.840   2.834
17267W        W88883  12.290  32.814   4.575
17268W        W88884  43.222  26.505   4.081
17269W        W88885  37.310   5.785  14.536
17270W        W88886  15.007  40.580   4.280
17271W        W88887  34.537  37.077   1.812
17272W        W88888  13.375  11.370   1.801
17273W        W88889  34.101  30.607   1.030
17274W        W88890   8.385  34.959  14.795
17275W        W88891  10.785  26.923  10.693
17276W        W88892  32.462  41.046   1.402
17277W        W88893   1.667   8.340   1.264
17278W        W88894  42.746  25.490  14.700
17279W        W88895   4.047  17.344   3.140
17280W        W88896  29.576  36.418   0.812
17281W        W88897  40.351  40.283  14.766
17282W        W88898  19.201  30.908   0.421
17283W        W88899   9.839   8.498  13.320
17284W        W88900  38.804  18.089  11.742
17285W        W88901  13.940  37.059   3.263
17286W        W88902  38.891   4.449  14.234
17287W        W88903  40.534   3.504   3.285
17288W        W88904  16.576  17.243  14.002
17289W        W88905  38.249  43.395   1.913
17290W        W88906  30.394  30.611  13.427
17291W        W88907  14.815   9.782   0.734
17292W        W88908  25.655  38.947   0.434
17293W        W88909  31.673  11.174  10.230
17294W        W88910  33.434   3.424   1.077
17295W        W88911   2.953  42.434  13.841
17296W        W88912  34.981  17.550  12.040
17297W        W88913  36.904  34.551   0.793
17298W        W88914  38.871   1.970   2.342
17299W        W88915  14.587  36.417  11.139
17300W        W88916  13.174  24.896   3.324
17301W        W88917  44.506  34.369   0.258
17302W        W88918   8.760   3.119  13.557
17303W        W88919  43.279  14.054  13.006
17304W        W88920  19.251   3.316  14.842
17305W        W88921  32.570  14.068  14.340
17306W        W88922  34.989  10.599  11.128
17307W        W88923   1.352  16.331   0.788
17308W        W88924   9.689  15.909   4.658
17309W        W88925  14.587  21.605  14.272
17310W        W88926  30.650  20.617   4.136
17311W        W88927  20.479  16.491   1.174
17312W        W88928  31.837  29.206  13.834
17313W        W88929  37.345   7.388   0.947
17314W        W88930  20.050  26.969  13.965
17315W        W88931  41.645   3.827  14.395
17316W        W88932  15.296  14.832   3.697
17317W        W88933  32.214  17.777   3.294
17318W        W88934  19.223  37.890   2.718
17319W        W88935   8.866  13.491  12.623
17320W        W88936  30.685   0.056   4.342
17321W        W88937  26.430   9.792  14.897
17322W        W88938   8.169  29.844  14.030
17323W        W88939  23.735  26.639  12.106
17324W        W88940   5.461  25.973   0.657
17325W        W88941   7.074  16.150   2.153
17326W        W88942  40.330  22.070   1.233
17327W        W88943  39.026  17.341   3.493
17328W        W88944  43.768  25.221  13.131
17329W        W88945  13.721   6.828   9.512
17330W        W88946  38.315   8.726   3.618
17331W        W88947  25.233  24.509  10.437
17332W        W88948  41.026   7.355   4.842
17333W        W88949  28.236  28.524   2.695
17334W        W88950   6.857  13.397   4.735
17335W        W88951   1.932   8.859   0.231
17336W        W88952  12.187   3.656   4.164
17337W        W88953  14.324  12.754   3.673
17338W        W88954   6.770   2.770  11.166
17339W        W88955   3.952  14.193   3.173
17340W        W88956  35.002  31.723   0.874
17341W        W88957  41.202  39.004   5.175
17342W        W88958  22.564  37.118   0.892
17343W        W88959   8.357   5.808  13.827
17344W        W88960  12.658  37.845  12.999
17345W        W88961  18.186  21.516  10.465
17346W        W88962   2.951  44.820  12.968
17347W        W88963  40.031  35.213   0.489
17348W        W88964  12.918  17.706  14.000
17349W        W88965  30.299   9.108   4.756
17350W        W88966  13.536  27.949  14.326
17351W        W88967  41.798   8.986  10.803
17352W        W88968  28.002   1.066  12.358
17353W        W88969  18.963  10.381   3.538
17354W        W88970   8.251  43.352  11.168
17355W        W88971   7.194   0.828   2.412
17356W        W88972  38.544  11.678   3.827
17357W        W88973   0.457  12.529  14.842
17358W        W88974  33.665  24.684  13.626
17359W        W88975  14.832   4.480   2.700
17360W        W88976  25.507   2.482  13.501
17361W        W88977   1.012  38.420   2.315
17362W        W88978   9.645  41.391   0.327
17363W        W88979  22.703  35.848  11.135
17364W        W88980   2.920  25.372  11.058
17365W        W88981  25.435   0.842   1.954
17366W        W88982  34.361   7.759   0.878
17367W        W88983  26.152  25.629   0.804
17368W        W88984  19.137   4.656  10.550
17369W        W88985   4.184  25.365  10.459
17370W        W88986   6.642  17.532   2.320
17371W        W88987  35.387  24.082   0.048
17372W        W88988  31.073  25.526  11.498
17373W        W88989  13.301   2.398   4.606
17374W        W88990  19.311  22.603  13.958
17375W        W88991  10.275  39.291   3.685
17376W        W88992  31.164  36.819  12.514
17377W        W88993  39.622  35.358   3.296
17378W        W88994  42.005  23.060   3.713
17379W        W88995  14.942  19.536  11.097
17380W        W88996  12.234  24.520  13.851
17381W        W88997  39.511   4.296  14.936
17382W        W88998   7.253  41.007   3.519
17383W        W88999  44.532  28.042  12.529
17384W        W89000  30.983   2.015  14.075
17385W        W89001  19.096  14.131   1.698
17386W        W89002  32.575   5.950   2.818
17387W        W89003  42.923  10.227   0.475
17388W        W89004  41.007  30.117   4.797
17389W        W89005  26.228  41.857   4.778
17390W        W89006  40.492  11.526   1.301
17391W        W89007   3.419  33.400   0.687
17392W        W89008  16.490  20.615   5.140
17393W        W89009  19.046  13.333  10.586
17394W        W89010   1.739  28.858  14.837
17395W        W89011  29.473  41.336   0.062
17396W        W89012   6.435  23.099   3.651
17397W        W89013   2.943  41.091  13.959
17398W        W89014  39.348  31.625   2.749
17399W        W89015   0.903  30.524  10.702
17400W        W89016   5.692  10.807  11.508
17401W        W89017   8.781  36.365  11.980
17402W        W89018  28.883  11.574  12.046
17403W        W89019  39.937  29.243   1.225
17404W        W89020  15.258  31.324   3.330
17405W        W89021  19.547  15.465   0.759
17406W        W89022  31.220  43.222  10.687
17407W        W89023   4.392  13.582  12.896
17408W        W89024  22.515   7.372   4.557
17409W        W89025   1.871  15.849  14.518
17410W        W89026  21.628  21.022  11.573
17411W        W89027   7.228  42.038   3.253
17412W        W89028  35.142   7.813   1.355
17413W        W89029   9.607   2.918   1.961
17414W        W89030  15.172  33.121   0.422
17415W        W89031   9.805  19.952  10.749
17416W        W89032  24.646  15.044  12.089
17417W        W89033  36.399   5.651  14.056
17418W        W89034  25.108   7.729   2.296
17419W        W89035  38.895   0.770   1.628
17420W        W89036  43.855   3.268  11.839
17421W        W89037  13.228  30.313   4.415
17422W        W89038  22.036   8.913   4.066
17423W        W89039  32.403  44.041  13.974
17424W        W89040  34.590  16.224   0.870
17425W        W89041   2.446  20.894  14.449
17426W        W89042  39.485  10.990   4.068
17427W        W89043   4.726  33.516  11.217
17428W        W89044  14.708  16.742   2.417
17429W        W89045   9.960   4.372  12.952
17430W        W89046  12.436  41.189   0.722
17431W        W89047  22.628   9.566  14.918
17432W        W89048  18.078  36.236  14.978
17433W        W89049  44.402  10.440  10.786
17434W        W89050  21.572  39.516   0.584
17435W        W89051  15.198  29.379  10.755
17436W        W89052   4.383  28.156   2.306
17437W        W89053   9.543  12.900  13.422
17438W        W89054   2.812   5.649   2.809
17439W        W89055  12.798  14.314   1.992
17440W        W89056  24.154  13.312  12.028
17441W        W89057  43.437   3.772   4.801
17442W        W89058  36.701  38.901   2.275
17443W        W89059  39.034  18.560  12.480
17444W        W89060  13.252  22.610  14.751
17445W        W89061   7.866  32.974   4.073
17446W        W89062  44.007  17.889  10.716
17447W        W89063  27.108   5.731  13.354
17448W        W89064  23.999  27.814  11.281
17449W        W89065  21.596  22.158  13.788
17450W        W89066  32.433  27.734   2.013
17451W        W89067  34.014  11.142   0.768
17452W        W89068   8.621   9.753  14.006
17453W        W89069   3.646  31.521   3.697
17454W        W89070   5.748  29.308  14.740
17455W        W89071  40.805  42.090  13.363
17456W        W89072  31.256  30.797   2.276
17457W        W89073   7.080  34.397  13.022
17458W        W89074  35.586  26.293   2.659
17459W        W89075   1.855   5.386   3.663
17460W        W89076  10.316  41.060  12.087
17461W        W89077  20.743  20.142   1.366
17462W        W89078  33.866  29.947  10.367
17463W        W89079  18.788   0.419  14.374
17464W        W89080  25.426   6.391  10.303
17465W        W89081  20.678  28.302   1.244
17466W        W89082  44.560   6.827   2.838
17467W        W89083  42.464  42.909   3.347
17468W        W89084  19.528  11.203   3.213
17469W        W89085  15.262  28.566  14.911
17470W        W89086  15.627  43.521   3.145
17471W        W89087  16.374   2.183   1.287
17472W        W89088  16.653  17.559  12.481
17473W        W89089   3.206  19.247  13.147
17474W        W89090   8.631  41.066   4.019
17475W        W89091   1.837   9.077   2.888
17476W        W89092  14.855  19.848  14.831
17477W        W89093  39.325  18.690  14.397
17478W        W89094  15.310  17.142  11.567
17479W        W89095  34.692  42.035   2.676
17480W        W89096  44.368  41.722  14.003
17481W        W89097  40.773  38.732  14.000
17482W        W89098  35.014   5.438   3.234
17483W        W89099  10.411  26.976  12.781
17484W        W89100  33.694   2.411   4.555
17485W        W89101  34.450  34.601   0.791
17486W        W89102   6.509  11.911   1.296
17487W        W89103  39.001  16.320   2.743
17488W        W89104  17.644   6.302  12.351
17489W        W89105   9.607  38.229   2.479
17490W        W89106  13.387  43.807  11.624
17491W        W89107   2.817  30.441  10.864
17492W        W89108  18.807  37.474  12.563
17493W        W89109   6.248  11.675  13.393
17494W        W89110  14.890   8.163   2.515
17495W        W89111   3.749   7.102   4.318
17496W        W89112   0.866  19.007   4.522
17497W        W89113   8.671  26.510   1.730
17498W        W89114  33.050  14.105  13.853
17499W        W89115  14.933  32.528   4.850
17500W        W89116   6.599  40.074  13.919
17501W        W89117  34.776  35.502   4.002
17502W        W89118  25.749  36.601   0.364
17503W        W89119  37.887   0.021  12.090
17504W        W89120  41.714  13.328  14.837
17505W        W89121  43.223  44.899   4.139
17506W        W89122  20.108  42.545   1.205
17507W        W89123   8.131  18.312  12.525
17508W        W89124  13.896   0.254  13.474
17509W        W89125   4.890  42.817   2.356
17510W        W89126  20.463  11.090  11.860
17511W        W89127  44.327   9.408  13.593
17512W        W89128  42.652  22.668   2.708
17513W        W89129  21.204   8.630  11.146
17514W        W89130   4.422  35.007   1.716
17515W        W89131  42.420   9.108   4.877
17516W        W89132  10.879  26.280   2.408
17517W        W89133  30.542  13.192  12.042
17518W        W89134  13.596  10.708  13.544
17519W        W89135   8.187  40.498  11.394
17520W        W89136  14.372   2.911   4.161
17521W        W89137  21.586  31.449   3.836
17522W        W89138   9.310  30.179   3.867
17523W        W89139  13.841  41.502  10.677
17524W        W89140  26.255   7.148  12.847
17525W        W89141  28.297   7.777  13.484
17526W        W89142  20.927   3.456   2.611
17527W        W89143  25.348  36.428  10.821
17528W        W89144  27.013  21.789   2.474
17529W        W89145  44.009  18.667  10.393
17530W        W89146  33.024   6.200   2.701
17531W        W89147   9.598  27.555   1.761
17532W        W89148  31.152  11.279   3.189
17533W        W89149  41.084  42.769  13.784
17534W        W89150  43.863  40.707   2.820
17535W        W89151   1.274  18.866   0.889
17536W        W89152  39.831  13.097  11.547
17537W        W89153  39.769  33.082   3.622
17538W        W89154  41.068  24.686   4.648
17539W        W89155  17.308  42.633   3.764
17540W        W89156  31.752  29.071  12.743
17541W        W89157  36.512  25.253  13.399
17542W        W89158  23.211  32.109  12.692
17543W        W89159  33.677  35.992   3.766
17544W        W89160   3.157  12.680  14.873
17545W        W89161  12.249  24.954   2.734
17546W        W89162   8.717   6.030   2.910
17547W        W89163  37.368   6.002  12.880
17548W        W89164   4.222   5.441   3.296
17549W        W89165  37.547  39.975  11.671
17550W        W89166   4.641  19.385   4.168
17551W        W89167  26.237  17.071   0.914
17552W        W89168   2.410  21.644  12.540
17553W        W89169  31.121   4.890  10.236
17554W        W89170  42.577  27.102  14.735
17555W        W89171  13.018  12.257  10.624
17556W        W89172   9.305  15.874   2.161
17557W        W89173  17.854  23.710   0.539
17558W        W89174  43.315   5.457   2.808
17559W        W89175   1.225  10.927  13.911
17560W        W89176  16.810  31.881  10.298
17561W        W89177   5.798  41.663   4.632
17562W        W89178   4.285   8.110   2.636
17563W        W89179  17.689  36.121  10.650
17564W        W89180  33.485  36.263  12.829
17565W        W89181  23.074  44.844  12.765
17566W        W89182   4.845   2.400  14.512
17567W        W89183  44.996  19.040   0.805
17568W        W89184  16.782   3.606  10.518
17569W        W89185   1.936  27.847  14.938
17570W        W89186  30.500  40.528   0.705
17571W        W89187  24.913  39.536   4.561
17572W        W89188  44.934  22.269   3.608
17573W        W89189   5.904  11.263  11.569
17574W        W89190  31.838   6.851   4.694
17575W        W89191   2.711   4.994   3.287
17576W        W89192  34.586  43.347  13.009
17577W        W89193   7.770  23.190  13.726
17578W        W89194  35.891  10.379   1.057
17579W        W89195  34.407  16.823  12.331
17580W        W89196  25.726   2.187  11.692
17581W        W89197  43.927  13.155  11.989
17582W        W89198   2.193  28.228   2.122
17583W        W89199  14.611  20.181   0.766
17584W        W89200  31.157  11.045  13.393
17585W        W89201  44.200   9.372   0.898
17586W        W89202   0.531  17.554  10.397
17587W        W89203  26.721  31.489   4.112
17588W        W89204   5.983  19.812  12.081
17589W        W89205  30.456  21.841   0.983
17590W        W89206  19.769  36.911   4.666
17591W        W89207  36.582   9.100  10.651
17592W        W89208  40.315  21.013   9.993
17593W        W89209  26.418  36.772  11.509
17594W        W89210  16.090  15.572   5.099
17595W        W89211  23.158  29.977  12.977
17596W        W89212  19.064  20.052   4.122
17597W        W89213  40.681  14.722   3.827
17598W        W89214   2.437  40.495  11.561
17599W        W89215  40.784  13.784  14.732
17600W        W89216  32.741   6.893   0.825
17601W        W89217   2.518  25.482  14.433
17602W        W89218   1.299  11.614   3.814
17603W        W89219  30.159  21.082  14.475
17604W        W89220  37.026  19.602  13.055
17605W        W89221  12.061  16.587   1.712
17606W        W89222  30.984  20.177  12.388
17607W        W89223  22.266  23.638   0.956
17608W        W89224  29.738  35.073   4.609
17609W        W89225  21.704  23.869  11.987
17610W        W89226  13.218   8.280   0.990
17611W        W89227  29.673  38.774  12.949
17612W        W89228  30.476  32.117  11.112
17613W        W89229  20.714  13.351   4.578
17614W        W89230  44.990  21.002   3.072
17615W        W89231  19.282  19.672  14.205
17616W        W89232   0.969  15.061   3.257
17617W        W89233  23.623  32.087   0.962
17618W        W89234  13.840  29.386   3.257
17619W        W89235  14.696  10.808  13.569
17620W        W89236  44.190  41.519  10.710
17621W        W89237  19.975  22.205   3.828
17622W        W89238  33.983  12.758   1.702
17623W        W89239  31.844  41.393  10.773
17624W        W89240  10.041  18.379   3.301
17625W        W89241  32.459  35.068   4.161
17626W        W89242   0.901  12.819  12.029
17627W        W89243  26.971  22.728  11.956
17628W        W89244  30.866  26.677  14.921
17629W        W89245   5.474  24.604   0.974
17630W        W89246  26.902  23.209  11.774
17631W        W89247  20.700  25.546  13.394
17632W        W89248  44.348  27.421  10.445
17633W        W89249  19.506  31.441   1.244
17634W        W89250  29.588  25.287  10.679
17635W        W89251  11.574  24.982   4.049
17636W        W89252  30.444   1.200   3.680
17637W        W89253  16.803  17.355   4.635
17638W        W89254  33.014  13.270  13.458
17639W        W89255  32.006   4.446  11.562
17640W        W89256  28.386  30.725   0.350
17641W        W89257  44.270   9.857   2.308
17642W        W89258  41.268  34.403  14.209
17643W        W89259  24.263  11.266  11.548
17644W        W89260   5.801  31.531  14.476
17645W        W89261   3.368  22.289   4.304
17646W        W89262  22.123  19.571   0.350
17647W        W89263  21.416  44.015   1.610
17648W        W89264  19.177  12.291   2.533
17649W        W89265  42.222  33.160  11.902
17650W        W89266  33.560  44.246   1.383
17651W        W89267   2.650  18.221  12.827
17652W        W89268  15.599   1.945   3.307
17653W        W89269   0.222   2.853   0.490
17654W        W89270  18.649  30.108  11.571
17655W        W89271  14.773  35.988   3.341
17656W        W89272   2.270  25.153  13.896
17657W        W89273  21.369   9.067  10.326
17658W        W89274  38.967  35.780   2.759
17659W        W89275   3.816   9.618  10.646
17660W        W89276  33.975   5.941   2.297
17661W        W89277  13.461  36.850  14.583
17662W        W89278   7.938  32.042   3.601
17663W        W89279  12.630  17.655  12.999
17664W        W89280  26.977   1.025  14.866
17665W        W89281  36.078  13.259   3.366
17666W        W89282  10.739  29.885  10.565
17667W        W89283  30.876  33.129  11.501
17668W        W89284  41.366  13.923  12.909
17669W        W89285   3.751  13.339   2.759
17670W        W89286  15.535  16.104   4.594
17671W        W89287   1.968  34.330  14.478
17672W        W89288  28.510  11.651   4.482
17673W        W89289  33.876   6.380   3.719
17674W        W89290  27.966  33.701  13.624
17675W        W89291  29.038  21.938  11.599
17676W        W89292  38.227  44.770  10.811
17677W        W89293  31.425  34.322  14.257
17678W        W89294  38.787  36.362  11.156
17679W        W89295  13.898  31.114   1.366
17680W        W89296  25.002   3.721   0.311
17681W        W89297  13.465   9.276  14.481
17682W        W89298  42.544   1.192   0.540
17683W        W89299  35.032  39.486   3.895
17684W        W89300  41.489  35.879  12.874
17685W        W89301  14.800  42.233  12.000
17686W        W89302  13.067  27.076  13.456
17687W        W89303  19.114  30.828   4.829
17688W        W89304  23.563  19.046   1.438
17689W        W89305  39.350  41.864   0.315
17690W        W89306  21.964  19.827   3.607
17691W        W89307   6.839  43.418   1.279
17692W        W89308   3.740  39.020   1.321
17693W        W89309  16.796  24.391  11.422
17694W        W89310  15.270  25.102   2.638
17695W        W89311  31.972  14.910  10.738
17696W        W89312  44.011  35.391   1.652
17697W        W89313   6.817  38.262   3.535
17698W        W89314  28.193  13.801   4.188
17699W        W89315   7.439  12.263   3.562
17700W        W89316  28.200  42.283   4.540
17701W        W89317  24.192   9.805  11.514
17702W        W89318  38.812  37.973  12.461
17703W        W89319  31.691  24.770  10.768
17704W        W89320  15.931  20.726   2.842
17705W        W89321   1.752  11.727   0.179
17706W        W89322   4.411   3.512   0.369
17707W        W89323   1.466  15.595   3.304
17708W        W89324   9.274   4.201   2.323
17709W        W89325  17.757  19.257   2.939
17710W        W89326  18.674  37.555   2.055
17711W        W89327  43.868  35.553  10.978
17712W        W89328   0.825  11.487   1.377
17713W        W89329  36.588  11.401  14.419
17714W        W89330  29.127  28.015  12.482
17715W        W89331  22.834  29.604   5.077
17716W        W89332  22.576  31.914  12.034
17717W        W89333   3.413  34.331   1.431
17718W        W89334  14.105  21.369  12.968
17719W        W89335   1.946  39.857   2.427
17720W        W89336  44.016  25.583  14.484
17721W        W89337  14.733   9.197   0.229
17722W        W89338   0.846   2.541  13.588
17723W        W89339  36.489   6.176  14.929
17724W        W89340   1.441  22.526   3.646
17725W        W89341  16.516   3.503   0.708
17726W        W89342  13.416  15.568  13.355
17727W        W89343  17.483  24.765   3.718
17728W        W89344  26.110  17.570   4.877
17729W        W89345  26.052  29.434  14.614
17730W        W89346  31.307  24.155  13.470
17731W        W89347  16.493  14.550  11.445
17732W        W89348   9.852  20.033  14.801
17733W        W89349  26.140  41.108   0.023
17734W        W89350  32.691  37.244  12.588
17735W        W89351  23.747   5.478   3.121
17736W        W89352  44.980  10.135   3.797
17737W        W89353  24.030  32.625  12.137
17738W        W89354  24.147   5.745   3.307
17739W        W89355  24.943  14.863  14.378
17740W        W89356  31.396  28.950  13.672
17741W        W89357  31.984   3.778   2.827
17742W        W89358  12.193  35.825   1.011
17743W        W89359  28.908  26.752   2.207
17744W        W89360  29.934  20.487   2.291
17745W        W89361  39.058  25.801  13.017
17746W        W89362  28.015   6.260  10.223
17747W        W89363  11.780  29.880   1.365
17748W        W89364  25.562  14.816   2.319
17749W        W89365  16.623   6.890  11.662
17750W        W89366  36.890  28.668   1.259
17751W        W89367  32.303  20.283  10.518
17752W        W89368  21.367  43.969   0.391
17753W        W89369  41.738  36.900  13.463
17754W        W89370  20.450  42.833   3.700
17755W        W89371  40.489  26.696  12.404
17756W        W89372  15.072  30.627   1.372
17757W        W89373  37.901  31.950   3.218
17758W        W89374  26.738  35.793  13.883
17759W        W89375  42.873  29.518  10.702
17760W        W89376  37.932  15.241   0.827
17761W        W89377  32.502  42.567   1.756
17762W        W89378  23.176  17.750   2.148
17763W        W89379  42.035  24.170   2.258
17764W        W89380  40.174  16.535   1.295
17765W        W89381  22.015   2.838  10.582
17766W        W89382  28.089   1.936  11.725
17767W        W89383  14.256  15.863   3.275
17768W        W89384  16.668  38.903  11.593
17769W        W89385   5.652   5.862   1.303
17770W        W89386  10.455   6.441  13.538
17771W        W89387  11.749  42.588   3.770
17772W        W89388  22.020  35.950   2.297
17773W        W89389  33.502  37.856   0.462
17774W        W89390  26.642  42.839  11.141
17775W        W89391  35.010  39.503  14.680
17776W        W89392  38.081   0.057   3.272
17777W        W89393  37.445  38.622   3.142
17778W        W89394  11.165  41.382  10.913
17779W        W89395  42.795   8.322   4.123
17780W        W89396  16.105  31.067   3.448
17781W        W89397  35.145  42.704  14.954
17782W        W89398   9.452  20.736  14.312
17783W        W89399  41.580  16.718  13.510
17784W        W89400   2.033  15.260  12.070
17785W        W89401  25.138  40.401  13.043
17786W        W89402  12.683  16.064   4.328
17787W        W89403  15.284  22.257   3.651
17788W        W89404  34.965  21.053   4.417
17789W        W89405  29.271  23.697  11.997
17790W        W89406  30.481  43.194   1.340
17791W        W89407  31.989  22.663   4.313
17792W        W89408   9.092  25.005   2.339
17793W        W89409  16.678  44.018  11.725
17794W        W89410  23.557  20.489  13.826
17795W        W89411  33.494  17.121  11.593
17796W        W89412  38.983  30.057  14.420
17797W        W89413  39.939  35.066  12.961
17798W        W89414  38.640  36.143  12.372
17799W        W89415  31.144  41.764   4.589
17800W        W89416  28.110  25.257   3.567
17801W        W89417  22.728  33.479   4.262
17802W        W89418  35.515  13.404  11.906
17803W        W89419  36.985  17.328  10.594
17804W        W89420  35.059  41.799  14.680
17805W        W89421  17.506  16.896   9.631
17806W        W89422  34.042   9.863  10.834
17807W        W89423  28.168  10.617  11.351
17808W        W89424  32.179  44.336   4.121
17809W        W89425  22.607  22.124   3.767
17810W        W89426   0.024   4.252   3.298
17811W        W89427  37.493  39.514  10.749
17812W        W89428  23.463  32.617  13.437
17813W        W89429   5.165   1.456  13.959
17814W        W89430  31.194  11.306  12.963
17815W        W89431  40.391  42.289   1.875
17816W        W89432  44.253  26.727  12.504
17817W        W89433  12.766  15.204   1.808
17818W        W89434   5.730  14.651  11.893
17819W        W89435  30.569   6.254   2.329
17820W        W89436  11.417  13.651  13.832
17821W        W89437  15.171  22.228   1.305
17822W        W89438  22.953  34.138   0.807
17823W        W89439  31.807   4.347  12.032
17824W        W89440  44.470  38.584  14.915
17825W        W89441  22.179  41.406   2.123
17826W        W89442  27.608  13.663  14.013
17827W        W89443  35.664  13.308   3.694
17828W        W89444  27.643   1.309  14.907
17829W        W89445  36.558  11.730  13.135
17830W        W89446   1.464  18.240   4.413
17831W        W89447  21.057  10.129   3.243
17832W        W89448  25.505  39.312  13.805
17833W        W89449  16.881   0.387   4.849
17834W        W89450  12.146  25.890  14.852
17835W        W89451   0.546  11.526  14.854
17836W        W89452  27.154  29.628   4.312
17837W        W89453  42.308  35.340   5.296
17838W        W89454  38.686  20.297   4.537
17839W        W89455  10.575  31.077  11.453
17840W        W89456  20.689   8.415  11.217
17841W        W89457   7.216  28.452   2.353
17842W        W89458  30.652  42.465   0.025
17843W        W89459  17.206  15.916   2.890
17844W        W89460  16.789  41.502   3.718
17845W        W89461  37.723  34.443   1.189
17846W        W89462  10.281  36.587   0.133
17847W        W89463  18.035  21.829  14.786
17848W        W89464   7.823  13.237   3.868
17849W        W89465  12.653   3.045  11.882
17850W        W89466   6.209  10.316   9.995
17851W        W89467  40.888  32.640  10.793
17852W        W89468   4.331   3.947  11.643
17853W        W89469  16.816  25.962   2.903
17854W        W89470  20.805  29.572  10.676
17855W        W89471  44.503   8.329  12.170
17856W        W89472   7.548   7.198  12.954
17857W        W89473  10.753  20.271   0.110
17858W        W89474   7.254  16.205  14.919
17859W        W89475  22.204  27.822  14.947
17860W        W89476  15.819  39.391  10.641
17861W        W89477   5.658  11.160  11.113
17862W        W89478  29.663  14.488  13.234
17863W        W89479  13.638  41.268   1.175
17864W        W89480  33.895  38.784  14.949
17865W        W89481  24.120  34.175  10.008
17866W        W89482  13.715  44.593  12.335
17867W        W89483  40.292  33.326  12.993
17868W        W89484   3.438  40.928  13.854
17869W        W89485  22.890   2.937  10.781
17870W        W89486  14.068  12.336  11.452
17871W        W89487  34.204   4.120  14.778
17872W        W89488  28.865  32.389   3.249
17873W        W89489  28.215  29.519  14.045
17874W        W89490   4.762  29.997  12.926
17875W        W89491   6.334   7.832  11.513
17876W        W89492  42.473  21.976   3.251
17877W        W89493  19.589  41.877   1.306
17878W        W89494  35.292  33.480   4.518
17879W        W89495  27.615  29.448   1.275
17880W        W89496  15.318  16.625  11.016
17881W        W89497  32.089  10.222  13.775
17882W        W89498  17.227  28.255  13.895
17883W        W89499  22.649  41.264   1.930
17884W        W89500  40.895  19.274   3.146
17885W        W89501  12.342  20.145   2.631
17886W        W89502   0.299  39.339   0.280
17887W        W89503  11.694  42.493  11.599
17888W        W89504  39.497  16.106  14.436
17889W        W89505  21.779  37.074   2.741
17890W        W89506  27.563  22.778   2.845
17891W        W89507  24.111  38.640   2.257
17892W        W89508  40.775  40.594   0.414
17893W        W89509  25.613  35.916   3.056
17894W        W89510  35.813  38.915  11.144
17895W        W89511  33.934  16.414  11.513
17896W        W89512  15.179  13.602  13.420
17897W        W89513  30.600  41.556   1.866
17898W        W89514  43.195   6.284   0.776
17899W        W89515  38.569  10.601   5.206
17900W        W89516   8.804   3.712  11.938
17901W        W89517   2.278  34.551  10.753
17902W        W89518  41.542  31.438  10.688
17903W        W89519  35.433   8.355  12.442
17904W        W89520  18.506   0.756  10.777
17905W        W89521  37.320  35.051  11.597
17906W        W89522  42.825  34.938  10.459
17907W        W89523  22.080  29.210   1.968
17908W        W89524   1.569  27.336  12.871
17909W        W89525   5.959  20.307  12.133
17910W        W89526   7.278  38.125   4.291
17911W        W89527  42.545   4.744  10.648
17912W        W89528   3.368  14.804  10.688
17913W        W89529  35.431  30.101   1.995
17914W        W89530  17.078   1.985   2.162
17915W        W89531   8.197  18.587  13.448
17916W        W89532   0.071  41.650  13.058
17917W        W89533   0.702  13.709   4.209
17918W        W89534   2.948  43.890   1.722
17919W        W89535  31.594  35.444   2.306
17920W        W89536  30.400  30.959   1.313
17921W        W89537   0.008  39.966  11.958
17922W        W89538  32.546  28.161   4.128
17923W        W89539  36.372  12.829   2.864
17924W        W89540  30.157  40.045   3.910
17925W        W89541  18.762  27.010  13.509
17926W        W89542  38.971  37.470  14.304
17927W        W89543  13.145  31.263  12.184
17928W        W89544   1.463  43.587  10.444
17929W        W89545  26.421  30.964   1.399
17930W        W89546  23.994  26.613   1.919
17931W        W89547  42.785   0.786  13.334
17932W        W89548  25.716  25.277  11.071
17933W        W89549  16.173  11.804  13.449
17934W        W89550  23.266  22.048  14.628
17935W        W89551  12.580  22.981   1.839
17936W        W89552  12.078  32.113   0.880
17937W        W89553  18.455   4.702  11.995
17938W        W89554  12.409  24.494  14.978
17939W        W89555   0.339  35.151  11.846
17940W        W89556  21.172   4.944   1.300
17941W        W89557  29.067  42.061  14.361
17942W        W89558   8.426  35.559  13.971
17943W        W89559  37.217   4.625   4.999
17944W        W89560  44.816   4.575   2.365
17945W        W89561  43.734  44.485  12.674
17946W        W89562  19.348  32.164  12.801
17947W        W89563  34.411  32.236  10.720
17948W        W89564   7.232   4.357   1.372
17949W        W89565   5.224   3.897  12.584
17950W        W89566  35.175  21.122  11.639
17951W        W89567  25.717   6.807   3.167
17952W        W89568  12.703  16.322  13.184
17953W        W89569   8.353   8.688  10.678
17954W        W89570  39.117   9.218   5.118
17955W        W89571  36.892  18.384  14.916
17956W        W89572  36.438  21.749   1.354
17957W        W89573  12.685  31.095   2.247
17958W        W89574  40.265   3.298   0.458
17959W        W89575  38.917  28.996   1.733
17960W        W89576  20.723  25.508  11.832
17961W        W89577  38.813  33.964   1.044
17962W        W89578  44.958  25.104  13.329
17963W        W89579  21.626  32.361  11.981
17964W        W89580  41.072  43.426   4.675
17965W        W89581  41.531  13.388   4.485
17966W        W89582  20.103  22.348  12.691
17967W        W89583  30.320  21.669  11.585
17968W        W89584   3.265  44.920  14.401
17969W        W89585  26.958  18.761  12.436
17970W        W89586  27.057   5.583  11.962
17971W        W89587  23.337  44.889   3.585
17972W        W89588  29.493  13.580   0.746
17973W        W89589  13.183  16.967   1.056
17974W        W89590  13.018  10.206   3.180
17975W        W89591  37.656  18.203   0.324
17976W        W89592   4.695  38.379  13.280
17977W        W89593  29.446  21.717  10.549
17978W        W89594  15.656  23.410   1.633
17979W        W89595   7.289   6.430  13.419
17980W        W89596  29.706   3.959   2.902
17981W        W89597  28.243  32.787   1.240
17982W        W89598   2.641  37.513   2.571
17983W        W89599  26.598   0.464  13.892
17984W        W89600   2.866  42.281   0.784
17985W        W89601  29.025  28.458   2.314
17986W        W89602  36.394  19.696  10.173
17987W        W89603  13.750   6.885  12.641
17988W        W89604  17.082  19.237  14.957
17989W        W89605   3.703  18.532  12.419
17990W        W89606  22.683   1.479  13.194
17991W        W89607  39.843  21.993   3.902
17992W        W89608  44.321  13.658  12.508
17993W        W89609  22.700  10.339   1.753
17994W        W89610  37.262   7.911   0.916
17995W        W89611   2.894  40.763  12.505
17996W        W89612  15.726  28.809   5.010
17997W        W89613  12.317  13.237   2.648
17998W        W89614  39.352  40.153  12.881
17999W        W89615  22.321  13.358   3.706
18000W        W89616  37.954  29.042   3.836
18001W        W89617  35.606  24.674  11.557
18002W        W89618  13.747  16.102  12.488
18003W        W89619   3.274  16.618  12.964
18004W        W89620  38.338   3.906   0.241
18005W        W89621  11.260  27.390   3.326
18006W        W89622  23.014  41.103  13.117
18007W        W89623  29.254  20.209  12.023
18008W        W89624  34.888  20.728  12.912
18009W        W89625  29.173   3.757  11.930
18010W        W89626  41.127  19.029   3.553
18011W        W89627  25.161  38.353  12.838
18012W        W89628   6.015  40.984   2.612
18013W        W89629  41.893  19.246  12.985
18014W        W89630   1.972  25.539   3.300
18015W        W89631  41.854  26.080  14.748
18016W        W89632  41.089   3.150   0.030
18017W        W89633  28.150  19.674   1.434
18018W        W89634  28.961  29.985   2.208
18019W        W89635  38.884  34.409   3.875
18020W        W89636  44.089   6.662   2.737
18021W        W89637  21.745   2.746  11.513
18022W        W89638  19.039  14.695   1.726
18023W        W89639  24.586  22.489   3.169
18024W        W89640  23.564   9.943   3.205
18025W        W89641  38.974  16.184  14.362
18026W        W89642  13.272  16.298  10.512
18027W        W89643  19.197  36.847  14.786
18028W        W89644  14.694  29.658   2.392
18029W        W89645  40.981  18.760   3.131
18030W        W89646  10.856  31.946  14.290
18031W        W89647   6.316  19.656  12.450
18032W        W89648  43.744  36.025   4.599
18033W        W89649  23.682  43.851  12.097
18034W        W89650   1.422  42.771   0.333
18035W        W89651   3.368  12.699   1.873
18036W        W89652  10.839   2.742  11.576
18037W        W89653   1.808  20.208  13.059
18038W        W89654  33.030  35.487  11.030
18039W        W89655  24.483  15.243  12.939
18040W        W89656  16.841  24.811   4.293
18041W        W89657   8.086  15.553  13.525
18042W        W89658  32.046  37.938   1.275
18043W        W89659  23.538   7.904   3.265
18044W        W89660  35.040   3.218  13.938
18045W        W89661   3.438   3.787   2.640
18046W        W89662  20.952  10.859  10.632
18047W        W89663  17.802  18.100   1.926
18048W        W89664  35.067  24.535   0.272
18049W        W89665  17.776  26.122  14.448
18050W        W89666  37.435  41.746   3.144
18051W        W89667  12.753  35.474   2.457
18052W        W89668  39.811  31.494   3.267
18053W        W89669  31.846  14.163   3.230
18054W        W89670  16.773  33.808   1.327
18055W        W89671   9.875  34.533  11.674
18056W        W89672  23.109  22.227   3.635
18057W        W89673  13.507  35.094  13.149
18058W        W89674  22.029  13.176  11.530
18059W        W89675  44.929  30.380   4.774
18060W        W89676   6.126  31.720   2.787
18061W        W89677  25.539  44.798  14.253
18062W        W89678  22.389  23.567   1.753
18063W        W89679  33.041  17.958   0.755
18064W        W89680  21.857   3.867   2.758
18065W        W89681  27.552   0.707   0.648
18066W        W89682  12.817  43.762  11.612
18067W        W89683  43.900   6.946   0.860
18068W        W89684  27.052  26.071   3.824
18069W        W89685  36.547  15.489   4.510
18070W        W89686  19.695  42.519   0.252
18071W        W89687  18.715  41.679  12.451
18072W        W89688   3.270  18.305   4.093
18073W        W89689  38.036  13.057   4.638
18074W        W89690  42.121   6.223  13.534
18075W        W89691   6.766  12.740   1.561
18076W        W89692  29.625  20.107  13.942
18077W        W89693  16.319  19.327   0.980
18078W        W89694  33.789   8.299   4.130
18079W        W89695  20.807   9.843   4.431
18080W        W89696  14.542  17.015   2.817
18081W        W89697  26.717  17.317   5.064
18082W        W89698  32.275  10.214   4.489
18083W        W89699  13.865  12.388  13.576
18084W        W89700   7.881   3.160   1.374
18085W        W89701  20.514  32.879  14.511
18086W        W89702  27.869  41.426  13.288
18087W        W89703  22.578  22.130   2.909
18088W        W89704  16.184  14.293   2.822
18089W        W89705  21.249  25.794   1.454
18090W        W89706  33.455   5.987  14.928
18091W        W89707  22.132  28.574   0.411
18092W        W89708  27.273  25.245  14.316
18093W        W89709  11.029   8.393  14.786
18094W        W89710  40.036  10.063   3.919
18095W        W89711  24.144   9.789  12.472
18096W        W89712  11.775  40.445   0.872
18097W        W89713  14.832   2.403   1.179
18098W        W89714  26.671  17.259   1.362
18099W        W89715  27.188  24.664   1.995
18100W        W89716  28.505  34.302  14.275
18101W        W89717  38.033   0.756  10.698
18102W        W89718   0.288  26.707   5.017
18103W        W89719   7.624  31.438  14.337
18104W        W89720  23.034   1.760  10.687
18105W        W89721  14.417  20.012   4.185
18106W        W89722  42.798  18.170  12.642
18107W        W89723  27.564  16.832   1.892
18108W        W89724  40.862  25.746  14.263
18109W        W89725  42.610  42.530  11.045
18110W        W89726  11.757  37.908   2.820
18111W        W89727   6.033  40.599   0.147
18112W        W89728  13.199  41.330   0.315
18113W        W89729   0.106   6.204  10.963
18114W        W89730  17.113  32.588  14.615
18115W        W89731  24.235  19.930  12.143
18116W        W89732   3.526  42.037   4.684
18117W        W89733  13.196  21.758   1.230
18118W        W89734  40.104  26.589   3.728
18119W        W89735  14.707  13.720  13.791
18120W        W89736  40.304  13.088   0.007
18121W        W89737  10.799  40.895  13.311
18122W        W89738  39.337  16.579  13.537
18123W        W89739  13.142  36.638   0.403
18124W        W89740  27.134  38.171   3.043
18125W        W89741  34.355  38.788  14.121
18126W        W89742  18.725  12.034   1.512
18127W        W89743  33.392  14.729  14.267
18128W        W89744  44.251   5.912  14.499
18129W        W89745   3.304  28.363   4.705
18130W        W89746  24.472  33.477   3.125
18131W        W89747  39.142  41.914  13.131
18132W        W89748  41.196  20.725  14.895
18133W        W89749  15.746  29.124  14.405
18134W        W89750  37.549  17.203   0.112
18135W        W89751  28.069   7.899  11.523
18136W        W89752  23.174  36.827  10.614
18137W        W89753  41.803  21.541  11.590
18138W        W89754   2.467   5.362   0.933
18139W        W89755  27.072  12.697  11.700
18140W        W89756  36.500   0.389   3.920
18141W        W89757  41.920  19.282  11.178
18142W        W89758  13.099  15.414  12.322
18143W        W89759  14.016   2.890  14.322
18144W        W89760  30.217  20.126  14.335
18145W        W89761  13.171  42.252   3.663
18146W        W89762  38.353  29.479   2.998
18147W        W89763  42.624  44.820  11.810
18148W        W89764   2.780  44.361  14.593
18149W        W89765  33.525  28.236   0.477
18150W        W89766  43.044  26.036   4.654
18151W        W89767  32.747  20.004  13.390
18152W        W89768   0.903   7.354   0.868
18153W        W89769  28.061  24.641   1.884
18154W        W89770  12.741  28.007   4.620
18155W        W89771  39.010   0.862  12.098
18156W        W89772   6.413  32.065  13.271
18157W        W89773  35.124  44.775   4.160
18158W        W89774  32.410  42.839   0.927
18159W        W89775  23.550   8.854  11.981
18160W        W89776  44.842  21.538  10.535
18161W        W89777   4.945  40.819   2.022
18162W        W89778  44.041  41.115  12.407
18163W        W89779  18.786   9.254   0.519
18164W        W89780  41.815  16.045  11.099
18165W        W89781   2.780  10.645  10.557
18166W        W89782  29.066   7.144  14.283
18167W        W89783  33.513  44.812   1.297
18168W        W89784  39.601  32.076   4.547
18169W        W89785  43.536   8.244   4.696
18170W        W89786  42.944  14.813  14.950
18171W        W89787   7.308  21.684   3.213
18172W        W89788  17.300  36.438   2.432
18173W        W89789   2.601   3.329   3.686
18174W        W89790  36.846  25.090   0.139
18175W        W89791  36.273  11.572  13.538
18176W        W89792  21.493   6.148  10.534
18177W        W89793   0.262  42.766  13.951
18178W        W89794  12.558  10.893  11.580
18179W        W89795  25.044  42.931  12.660
18180W        W89796  21.074  43.979  12.415
18181W        W89797  18.603  14.256   3.196
18182W        W89798  44.488  28.081  11.127
18183W        W89799   1.863  13.210  13.291
18184W        W89800  41.003  35.064  14.237
18185W        W89801  43.011  13.097  11.925
18186W        W89802  20.215  24.980  14.381
18187W        W89803  12.856  16.524   1.382
18188W        W89804  20.132   3.214   1.975
18189W        W89805  40.251  41.514   2.773
18190W        W89806  16.246  17.532   1.208
18191W        W89807  13.764  41.425   4.686
18192W        W89808  16.119  28.672   0.321
18193W        W89809   2.469  19.090  11.087
18194W        W89810   9.216  31.556   2.621
18195W        W89811  44.981  34.570  11.676
18196W        W89812  38.003  15.528  11.440
18197W        W89813  20.066  39.447   2.378
18198W        W89814   0.247   3.865  12.096
18199W        W89815  36.938  24.691  11.877
18200W        W89816  12.028  26.958  14.460
18201W        W89817  35.601  13.160   1.963
18202W        W89818  22.970  39.820   0.453
18203W        W89819  36.131  26.226  10.651
18204W        W89820  27.120   6.891   3.119
18205W        W89821  21.415  27.677  11.616
18206W        W89822   4.198  30.162   2.303
18207W        W89823  43.232   9.598  11.214
18208W        W89824  20.711  32.147   4.124
18209W        W89825  34.448   8.658  13.633
18210W        W89826  37.753  16.713  12.917
18211W        W89827  19.208   4.181   1.878
18212W        W89828   9.499  30.052  11.687
18213W        W89829  31.487  37.527  11.225
18214W        W89830   5.476  15.338  13.875
18215W        W89831  23.072  36.973   2.361
18216W        W89832   5.368  11.411  14.825
18217W        W89833  34.316  32.910   0.829
18218W        W89834  29.200  16.801   0.363
18219W        W89835  27.054  36.321  11.141
18220W        W89836  25.739  30.306   4.671
18221W        W89837  43.826  20.550  10.756
18222W        W89838  30.368  12.204   2.325
18223W        W89839  37.458  39.099   4.029
18224W        W89840  35.954  32.798  10.481
18225W        W89841  20.154  13.119   3.744
18226W        W89842  23.545  27.207  12.546
18227W        W89843  36.128   3.674  11.061
18228W        W89844   0.889   0.245   3.168
18229W        W89845   7.322   3.830   3.587
18230W        W89846  31.013  30.473  14.294
18231W        W89847  16.714  17.540   2.357
18232W        W89848  39.753   0.291   1.134
18233W        W89849  18.871  23.650   3.772
18234W        W89850   6.252  22.305  14.061
18235W        W89851   2.520  28.568   1.897
18236W        W89852  20.507  42.760   4.500
18237W        W89853  36.689  16.133  14.731
18238W        W89854  29.983  16.356  14.496
18239W        W89855   1.888   1.283  12.140
18240W        W89856  20.536  10.139   0.870
18241W        W89857  20.225  15.301   4.644
18242W        W89858  33.426  24.405   1.484
18243W        W89859  26.628  40.821   2.762
18244W        W89860  19.158  38.444  12.784
18245W        W89861  23.294  31.739  13.574
18246W        W89862  16.282  26.374   2.385
18247W        W89863   2.516  12.914   3.651
18248W        W89864  32.351  39.393   4.211
18249W        W89865  22.235  16.348   2.254
18250W        W89866  19.120  30.193  12.464
18251W        W89867  19.617   4.150   2.223
18252W        W89868   6.463  35.830   4.596
18253W        W89869   4.962   6.284  13.360
18254W        W89870   5.195  33.515  11.433
18255W        W89871   6.514  23.542  13.522
18256W        W89872  20.620  36.171  11.523
18257W        W89873  28.509   2.236  11.943
18258W        W89874  34.379   5.499   2.853
18259W        W89875  17.270  37.090  11.739
18260W        W89876  25.240   2.769   1.482
18261W        W89877  29.022  22.463  11.514
18262W        W89878  17.996   5.672  10.690
18263W        W89879  37.815  40.725  13.373
18264W        W89880   1.859  25.101   4.671
18265W        W89881  29.956  29.220   4.305
18266W        W89882  35.527  21.437  10.031
18267W        W89883  28.923  29.460  10.112
18268W        W89884  17.643  20.333   0.884
18269W        W89885   3.680   2.225   3.689
18270W        W89886  27.900  16.791   5.012
18271W        W89887   7.992  41.816  14.365
18272W        W89888  34.919  37.200   0.867
18273W        W89889  16.154  17.473   4.917
18274W        W89890  11.168   1.400   4.040
18275W        W89891  37.280   6.917   1.213
18276W        W89892  38.976  19.547  10.003
18277W        W89893  27.849  19.558   4.626
18278W        W89894  20.696  33.332   1.937
18279W        W89895  20.886  21.592  11.989
18280W        W89896  44.878  43.901  11.848
18281W        W89897   0.884  13.102  10.790
18282W        W89898  36.655  41.897   4.233
18283W        W89899  29.493  21.531   3.187
18284W        W89900  40.708  43.312   2.883
18285W        W89901  28.403  11.801   2.661
18286W        W89902  25.442  37.002  14.009
18287W        W89903  24.782  30.868   4.499
18288W        W89904   2.089  25.651  10.088
18289W        W89905  33.535  44.388  10.317
18290W        W89906  31.894   2.196   0.299
18291W        W89907  29.612  30.529   0.901
18292W        W89908   1.931  43.808  14.880
18293W        W89909  36.418   2.550   1.205
18294W        W89910   5.333  20.025   2.420
18295W        W89911   9.091  11.060  12.991
18296W        W89912   8.841  20.449   3.123
18297W        W89913  19.289   8.596  12.199
18298W        W89914  35.806   0.170  13.560
18299W        W89915  40.373  16.749   2.701
18300W        W89916  39.950  29.026  14.646
18301W        W89917  42.939   5.316   0.004
18302W        W89918  38.937  25.906  14.491
18303W        W89919  24.027  19.131  14.494
18304W        W89920  27.229  35.358  14.857
18305W        W89921  35.994  24.110  14.472
18306W        W89922   5.243  32.943   1.016
18307W        W89923   3.992   4.329   0.866
18308W        W89924  41.789  17.944  12.614
18309W        W89925  16.101  14.813   1.665
18310W        W89926  20.952  28.433  13.448
18311W        W89927  16.158   0.509  10.773
18312W        W89928  26.011  34.400   0.462
18313W        W89929  26.388  26.109  13.406
18314W        W89930  40.508  41.961   4.494
18315W        W89931  13.846   3.253   5.023
18316W        W89932  24.141   0.909  12.794
18317W        W89933   1.516  14.787   3.689
18318W        W89934  27.328  29.380   3.711
18319W        W89935  25.730  13.417  11.523
18320W        W89936  11.343  22.968   3.633
18321W        W89937  18.126  43.719   1.908
18322W        W89938  37.463  13.038   1.063
18323W        W89939  25.089  12.639  12.519
18324W        W89940  10.274  36.201   3.309
18325W        W89941  15.662  11.694  13.560
18326W        W89942  14.931  29.440   4.110
18327W        W89943  32.916  38.919  12.025
18328W        W89944  15.123  31.903  13.821
18329W        W89945  11.119  22.203   2.171
18330W        W89946  43.910   0.962   2.610
18331W        W89947   7.120  40.048  14.137
18332W        W89948  42.056  20.037  11.650
18333W        W89949  31.021  39.732   0.314
18334W        W89950  28.966  31.065  14.028
18335W        W89951  41.306  33.662   0.574
18336W        W89952  43.294  33.325   3.008
18337W        W89953  12.823  37.008   0.762
18338W        W89954  23.991  34.529  10.734
18339W        W89955  17.840  37.011   1.778
18340W        W89956  22.617  30.172  14.809
18341W        W89957   1.714  26.816  12.798
18342W        W89958  38.227  18.889   0.437
18343W        W89959  35.034  27.548   1.266
18344W        W89960  35.111  34.886  10.518
18345W        W89961   5.383  42.821   4.145
18346W        W89962  13.122  30.526  11.165
18347W        W89963  43.892  14.996   3.612
18348W        W89964  12.443  14.429  10.607
18349W        W89965   5.315  21.706   3.442
18350W        W89966  28.866  43.365  12.380
18351W        W89967   7.498   3.692  10.696
18352W        W89968  16.567  13.915   1.210
18353W        W89969  16.510  19.107  13.918
18354W        W89970   6.235  19.664   0.040
18355W        W89971  15.182   8.137  13.765
18356W        W89972   7.182  24.238  11.515
18357W        W89973  12.284  23.062   3.614
18358W        W89974  15.933  21.084  11.593
18359W        W89975  30.663   8.301  10.712
18360W        W89976  26.656  16.779   1.681
18361W        W89977  33.957  32.882  11.984
18362W        W89978  38.465  16.250   2.063
18363W        W89979  19.437  39.076  12.574
18364W        W89980  38.717  27.948   3.313
18365W        W89981  14.613   0.581   5.115
18366W        W89982  44.225  12.680   4.089
18367W        W89983  21.325  18.265  10.937
18368W        W89984  43.919  34.884   1.743
18369W        W89985  28.138  44.015  10.228
18370W        W89986  41.478  17.594   4.939
18371W        W89987  13.577  24.983  10.939
18372W        W89988  18.540  26.158   1.815
18373W        W89989  33.639  26.348   0.506
18374W        W89990  41.753  12.826  10.775
18375W        W89991  15.148  24.186  12.095
18376W        W89992   7.882  42.565  12.963
18377W        W89993   8.176  18.277  11.506
18378W        W89994  31.874  20.921  11.081
18379W        W89995  38.965  20.704  13.383
18380W        W89996  42.077   1.199  11.235
18381W        W89997   8.961  19.884   1.824
18382W        W89998  25.261   4.397  13.014
18383W        W89999  10.996  31.608   2.238
18384W        W90000  36.842  32.368   0.511
18385W        W90001  26.542   5.189  10.578
18386W        W90002  20.036  43.191  13.837
18387W        W90003   7.924  30.960   4.483
18388W        W90004   3.101  15.163  12.605
18389W        W90005   0.789  16.743   4.687
18390W        W90006  34.781  36.462  11.979
18391W        W90007  31.326   4.009  13.980
18392W        W90008  33.419  18.427   1.263
18393W        W90009  44.827  16.595   3.266
18394W        W90010  23.702  33.095   0.666
18395W        W90011  34.305  26.943   0.948
18396W        W90012  12.930  23.129   2.796
18397W        W90013   2.630   2.422   2.704
18398W        W90014  11.848  28.176  14.730
18399W        W90015  11.306  30.936   4.006
18400W        W90016  44.309   6.326   3.648
18401W        W90017  29.124  30.562   1.686
18402W        W90018  13.481   3.227   4.271
18403W        W90019  29.727  37.510  12.900
18404W        W90020  13.619  28.493  11.355
18405W        W90021  15.280  25.132   3.676
18406W        W90022  22.619  29.851   2.278
18407W        W90023   5.170  21.914  12.414
18408W        W90024  20.248  29.603  14.106
18409W        W90025  44.440  30.516   3.495
18410W        W90026  27.240  32.551   3.638
18411W        W90027  41.778   9.225  14.093
18412W        W90028   8.303  21.742   1.940
18413W        W90029  26.065   7.652  13.907
18414W        W90030  35.067   5.381   2.352
18415W        W90031  28.156   0.692  13.371
18416W        W90032  15.756  14.338   2.495
18417W        W90033   2.830  11.246  13.602
18418W        W90034  26.122  19.210   1.695
18419W        W90035   2.549  17.196  13.299
18420W        W90036   5.223   8.969   2.205
18421W        W90037  25.774  28.174  13.491
18422W        W90038  44.571  28.947  10.605
18423W        W90039   2.064  25.188  14.378
18424W        W90040   3.317  31.571   2.701
18425W        W90041   9.776   8.121   3.862
18426W        W90042  40.865   5.407  10.714
18427W        W90043  42.124  25.955   3.356
18428W        W90044  13.490  13.217  11.472
18429W        W90045  43.794  14.780  13.490
18430W        W90046  37.533   4.190   3.183
18431W        W90047  38.175  29.446   1.766
18432W        W90048   3.744  32.664  12.805
18433W        W90049  27.778  44.483   3.155
18434W        W90050  11.786  15.409   2.912
18435W        W90051  13.782  17.058  10.269
18436W        W90052   3.979   4.413  10.799
18437W        W90053   8.228  28.758   2.016
18438W        W90054  36.473   6.102   4.304
18439W        W90055  43.764   8.912   3.282
18440W        W90056  34.294  30.604  11.604
18441W        W90057   5.302  23.638   3.791
18442W        W90058  39.420  27.531   0.917
18443W        W90059  34.384  27.896  11.923
18444W        W90060  27.441  28.011   3.203
18445W        W90061  26.325  15.090   0.053
18446W        W90062  41.829  19.206  14.545
18447W        W90063  38.054  22.933  13.495
18448W        W90064   9.103   6.759   4.869
18449W        W90065   2.076   5.034  13.569
18450W        W90066   8.343   1.296   0.301
18451W        W90067   6.331  26.446   0.162
18452W        W90068  10.827   8.197  11.685
18453W        W90069  39.402   7.909   4.113
18454W        W90070  29.571  18.630  13.913
18455W        W90071  15.761  22.245   4.983
18456W        W90072  25.252  33.047  13.384
18457W        W90073   2.856  22.181   1.733
18458W        W90074  14.177   0.384  10.154
18459W        W90075   6.699  12.116   3.756
18460W        W90076  11.420  11.606  12.954
18461W        W90077  10.233  24.196  11.495
18462W        W90078  12.298  40.304   0.887
18463W        W90079   7.910  11.255   0.874
18464W        W90080   4.332   6.277  11.943
18465W        W90081  41.372   3.900  13.970
18466W        W90082  33.279   1.873  10.629
18467W        W90083   3.976   1.463   2.291
18468W        W90084  37.468  29.451   2.599
18469W        W90085  11.603   0.271  14.441
18470W        W90086  20.077  28.787  11.056
18471W        W90087  10.991  29.533   4.165
18472W        W90088  27.365  11.419   1.855
18473W        W90089   6.138  32.297  12.322
18474W        W90090  24.775   8.783   3.300
18475W        W90091  26.653  29.125   2.607
18476W        W90092   7.889   7.862  12.007
18477W        W90093   8.581  28.583   4.060
18478W        W90094  38.816  13.036   2.176
18479W        W90095  41.105  22.564  12.817
18480W        W90096  25.316  20.334  12.164
18481W        W90097  19.747  21.151   0.285
18482W        W90098  32.534  33.998   2.681
18483W        W90099  16.988  10.331   3.721
18484W        W90100   0.452   9.402  14.847
18485W        W90101  19.275   0.704  11.931
18486W        W90102  41.361  24.736   4.229
18487W        W90103  31.612  31.681   4.107
18488W        W90104  41.112  43.941   2.187
18489W        W90105  35.319   5.854   4.631
18490W        W90106   8.942   3.725  14.954
18491W        W90107   7.493   6.404  14.392
18492W        W90108  33.586  15.336   1.985
18493W        W90109  43.858  20.728   3.391
18494W        W90110  11.816   2.563   3.595
18495W        W90111  31.590  28.285   2.685
18496W        W90112   8.245  19.777   1.803
18497W        W90113  26.447  41.390   0.974
18498W        W90114  20.726  21.770   4.566
18499W        W90115  36.316   8.672  10.714
18500W        W90116  21.972  13.200  10.735
18501W        W90117   5.447  31.518   2.016
18502W        W90118  29.245  28.414   0.832
18503W        W90119  37.314   4.263  14.978
18504W        W90120   4.578  26.324   2.711
18505W        W90121  33.356   0.718  11.197
18506W        W90122  31.783  33.881  11.342
18507W        W90123  30.029  33.528   1.619
18508W        W90124  17.839  42.818  12.373
18509W        W90125  32.240  34.560  12.541
18510W        W90126  39.034  22.604   4.164
18511W        W90127  24.240   4.173   3.174
18512W        W90128   9.190  30.370   0.243
18513W        W90129  34.139  24.124  14.088
18514W        W90130  44.300  43.208  13.204
18515W        W90131  40.175  37.952   4.700
18516W        W90132  39.628   8.590   3.140
18517W        W90133   2.489  17.684  12.119
18518W        W90134  18.640  20.286  10.964
18519W        W90135  33.121  28.250   3.707
18520W        W90136  17.481  43.051  13.724
18521W        W90137  21.736  36.997   4.638
18522W        W90138   4.626  35.832   3.509
18523W        W90139  31.217  44.751  12.437
18524W        W90140  27.440  41.386  10.880
18525W        W90141  22.272   8.671  14.411
18526W        W90142  25.563   7.708  13.964
18527W        W90143  38.376  34.694  14.922
18528W        W90144  13.149  30.120   3.929
18529W        W90145  10.862  27.695   4.711
18530W        W90146  38.135  36.746   1.763
18531W        W90147  13.763  22.921   3.252
18532W        W90148  32.460  29.681   3.198
18533W        W90149  12.113  16.992  13.350
18534W        W90150   2.735  38.760   4.713
18535W        W90151  42.947  25.741  10.852
18536W        W90152  14.698  29.969  12.309
18537W        W90153  26.517  40.059  13.319
18538W        W90154   6.029  34.877  14.588
18539W        W90155  43.336  34.899  13.408
18540W        W90156  22.677  39.260   1.674
18541W        W90157   9.317  41.777   4.224
18542W        W90158  21.247   7.841  11.592
18543W        W90159   6.640  27.427  11.640
18544W        W90160  10.476  28.241  14.325
18545W        W90161  33.343  25.257  12.607
18546W        W90162  17.194  31.650   2.714
18547W        W90163  20.188   5.271  14.405
18548W        W90164  43.391   4.855  13.882
18549W        W90165   9.921  32.353  11.534
18550W        W90166   6.411  41.795   0.748
18551W        W90167   5.751  28.611  10.899
18552W        W90168  14.836  31.678  14.236
18553W        W90169  14.768  29.781   1.256
18554W        W90170  24.126  22.473  14.449
18555W        W90171  34.881   1.677  12.062
18556W        W90172  30.880  34.399   0.417
18557W        W90173   4.868   1.733   3.632
18558W        W90174  40.321  38.958   0.731
18559W        W90175  37.823  35.005   2.418
18560W        W90176  42.099  16.606   0.921
18561W        W90177   9.218  29.052   3.296
18562W        W90178  41.156  34.717   2.398
18563W        W90179  37.366  13.314  11.577
18564W        W90180  31.821  36.603   0.443
18565W        W90181  20.029  35.654  13.272
18566W        W90182   1.821  20.245  12.545
18567W        W90183  31.506  33.940  13.421
18568W        W90184  43.446  37.326   2.283
18569W        W90185   8.857   7.256  12.697
18570W        W90186   5.453   2.945   2.305
18571W        W90187  23.718  23.628  13.025
18572W        W90188  28.516  36.402  14.719
18573W        W90189  15.794  22.284   2.713
18574W        W90190  17.044   9.592   4.227
18575W        W90191   7.900  14.838   3.218
18576W        W90192  10.766  17.311  14.341
18577W        W90193   6.949  18.387   1.652
18578W        W90194  28.956   1.364   4.331
18579W        W90195  14.148   9.543  11.183
18580W        W90196   7.156  42.886  10.766
18581W        W90197  28.434  44.349  13.938
18582W        W90198   5.914   1.436   0.283
18583W        W90199  30.440  29.029   4.078
18584W        W90200  34.619  39.364   3.621
18585W        W90201  31.290  36.457   3.779
18586W        W90202  10.366  14.747   0.804
18587W        W90203  12.373  30.545  10.691
18588W        W90204  43.338  10.212   4.390
18589W        W90205   3.944   0.895  14.944
18590W        W90206   7.624   6.767  10.558
18591W        W90207  35.772   0.283  11.959
18592W        W90208   9.648  20.150   3.669
18593W        W90209   3.449  21.762   4.309
18594W        W90210  26.078  32.167  14.274
18595W        W90211  38.012  37.577   1.231
18596W        W90212   8.424  33.012  13.043
18597W        W90213  34.467  36.623  13.786
18598W        W90214   5.414  11.643   3.348
18599W        W90215  15.194  14.150  11.539
18600W        W90216  23.159   6.167  13.214
18601W        W90217  30.896   6.846   3.084
18602W        W90218  35.931  31.395  11.974
18603W        W90219  25.531   8.436   1.705
18604W        W90220   7.157   4.135  14.786
18605W        W90221   0.192  40.426  11.372
18606W        W90222  25.569  39.011   1.596
18607W        W90223  23.080  23.209   1.754
18608W        W90224  31.104  29.906   4.507
18609W        W90225  13.023   4.675  11.935
18610W        W90226   5.367  33.536  12.404
18611W        W90227  25.024   8.848  11.158
18612W        W90228  25.463   9.350   0.913
18613W        W90229   9.481  19.288   1.740
18614W        W90230  38.461   8.598  13.056
18615W        W90231  36.783  36.914   1.443
18616W        W90232  30.097  12.780   3.168
18617W        W90233   4.747  38.434  11.997
18618W        W90234  37.385  44.346   4.925
18619W        W90235  44.464  43.420  13.640
18620W        W90236  38.959  36.339   3.640
18621W        W90237   4.810  30.048   4.630
18622W        W90238  14.328  43.894   2.581
18623W        W90239   0.378  25.701  11.733
18624W        W90240   3.521  30.508  14.409
18625W        W90241   8.265   7.740  14.726
18626W        W90242  41.903  42.553  14.403
18627W        W90243  35.638   3.363   0.155
18628W        W90244  43.787  34.633   2.645
18629W        W90245  43.424  23.880   1.332
18630W        W90246  18.811  43.116   3.604
18631W        W90247   7.826  44.099  12.872
18632W        W90248  24.721  27.961  12.135
18633W        W90249  21.334  32.335   2.024
18634W        W90250  15.155   8.097   1.243
18635W        W90251   2.617   1.915  11.919
18636W        W90252  36.727  23.975   1.438
18637W        W90253   0.116  27.955   4.820
18638W        W90254   0.994  20.770  12.458
18639W        W90255  22.951  44.993  11.375
18640W        W90256  32.062  19.820   2.629
18641W        W90257  27.047   5.863  11.529
18642W        W90258  20.633  11.236  13.908
18643W        W90259  23.926   7.393  13.356
18644W        W90260  28.080  27.660   2.200
18645W        W90261  44.493  16.461  11.508
18646W        W90262  19.108  14.124   1.176
18647W        W90263  36.100  14.220  14.513
18648W        W90264   0.249  40.334   2.793
18649W        W90265  19.044   4.914  13.585
18650W        W90266   4.888  39.870  14.237
18651W        W90267  18.155  33.872  13.108
18652W        W90268   4.031  42.055   4.586
18653W        W90269  13.619  29.207   3.724
18654W        W90270  10.661  27.467  14.706
18655W        W90271  10.867  34.535   1.657
18656W        W90272  42.087  16.932  12.493
18657W        W90273  17.160  13.348   1.954
18658W        W90274  17.595  35.572  13.507
18659W        W90275   9.235  16.264  12.957
18660W        W90276  36.902  30.155  11.114
18661W        W90277  36.884  24.519  13.780
18662W        W90278  29.403  33.987  13.556
18663W        W90279  24.782   4.175  13.061
18664W        W90280   5.339  40.296  13.970
18665W        W90281  16.097  32.172   3.175
18666W        W90282  23.973  11.713  13.009
18667W        W90283   5.825  43.362  11.092
18668W        W90284  36.473  42.694   3.296
18669W        W90285  38.061  26.216   2.841
18670W        W90286   7.901  23.267  11.548
18671W        W90287  26.469  21.725  11.592
18672W        W90288  12.224  26.099   2.176
18673W        W90289  40.715  35.587   0.976
18674W        W90290  13.232  20.086  13.722
18675W        W90291  14.581  18.553  10.292
18676W        W90292  34.158  40.752  12.138
18677W        W90293   4.662  37.411  11.846
18678W        W90294   5.145  36.821   4.748
18679W        W90295  41.602   8.079  12.569
18680W        W90296  27.063  29.990  11.169
18681W        W90297  37.760   7.858  13.809
18682W        W90298   3.521  21.231  11.921
18683W        W90299  40.166  35.683   0.245
18684W        W90300   0.566   4.116  12.966
18685W        W90301   5.871  22.790  13.131
18686W        W90302  14.861  33.913   1.555
18687W        W90303  37.053  39.015   0.927
18688W        W90304  31.633   9.797   1.938
18689W        W90305  16.180  24.412   2.453
18690W        W90306   7.690  13.982   5.096
18691W        W90307  10.131  37.283   0.516
18692W        W90308   1.848  19.532   3.240
18693W        W90309  44.247  42.815   3.878
18694W        W90310  38.743  10.752   1.718
18695W        W90311   3.969   1.884  10.781
18696W        W90312  29.530  14.139  10.228
18697W        W90313   8.258  28.488   4.764
18698W        W90314  26.914  18.683   3.235
18699W        W90315  40.974   9.729  13.999
18700W        W90316   4.289  26.692   1.387
18701W        W90317  43.975   5.696  12.459
18702W        W90318   2.262  32.704   0.321
18703W        W90319  18.764  15.807  13.471
18704W        W90320  42.982  36.811  13.975
18705W        W90321  24.609  43.224   2.689
18706W        W90322  20.264   5.258   2.377
18707W        W90323   8.018  26.172  10.688
18708W        W90324  39.975  22.159  14.274
18709W        W90325  26.250  40.072  10.688
18710W        W90326  23.617   1.867  14.316
18711W        W90327   0.917   8.352  11.979
18712W        W90328  15.199  37.688  11.408
18713W        W90329  35.734  39.911  12.566
18714W        W90330  28.168   3.357   4.615
18715W        W90331   9.478   0.385   4.817
18716W        W90332  30.490   2.300   2.330
18717W        W90333  34.951  37.444  13.420
18718W        W90334   1.970   0.003   3.755
18719W        W90335   2.082  44.513   5.199
18720W        W90336  24.030  32.222  11.806
18721W        W90337  26.504  24.506  13.120
18722W        W90338  35.102  11.877  11.534
18723W        W90339  13.008   6.370  13.139
18724W        W90340  33.202  27.550   1.437
18725W        W90341  35.361  33.633   2.309
18726W        W90342  41.285  36.048  11.111
18727W        W90343  19.590   9.221   3.683
18728W        W90344  17.312  26.760   4.053
18729W        W90345   4.796  11.345   0.264
18730W        W90346  38.443  11.686  13.466
18731W        W90347   5.817  21.944   3.692
18732W        W90348  21.559   0.877  13.419
18733W        W90349  17.823   9.661  12.502
18734W        W90350   4.956  23.622   0.504
18735W        W90351  16.586  24.255   2.726
18736W        W90352  39.987  10.689  12.538
18737W        W90353  10.649  36.340   4.321
18738W        W90354   4.146  32.330   4.082
18739W        W90355  39.901  31.348   0.599
18740W        W90356  35.248  26.524  10.679
18741W        W90357  41.235  35.518   1.032
18742W        W90358   0.871   3.917   0.012
18743W        W90359  19.377  11.005  11.554
18744W        W90360   6.498  34.024   3.354
18745W        W90361  13.877  31.489  10.521
18746W        W90362  36.815   1.426   0.716
18747W        W90363   3.423  22.119   4.823
18748W        W90364  32.360  11.439  14.871
18749W        W90365  42.470   9.255  12.000
18750W        W90366  33.446   2.835   4.369
18751W        W90367  41.664  22.666   5.199
18752W        W90368  43.174   2.746  12.321
18753W        W90369  40.285  42.493  10.691
18754W        W90370  33.037  31.034  11.402
18755W        W90371  28.955  28.002   2.609
18756W        W90372  35.616  41.051  12.083
18757W        W90373  18.201  14.222   2.219
18758W        W90374   2.100  35.387   1.841
18759W        W90375   5.521   0.506  13.933
18760W        W90376  44.047  41.124  11.028
18761W        W90377  19.320  40.580   0.375
18762W        W90378  31.543   7.943   3.186
18763W        W90379  37.451   1.146   4.606
18764W        W90380   9.987  19.071   1.662
18765W        W90381   4.205  37.286  12.417
18766W        W90382  16.863  18.545   5.599
18767W        W90383  40.451  41.101  12.101
18768W        W90384  40.607  13.418   1.345
18769W        W90385  12.925   1.061   5.006
18770W        W90386  15.898  37.351   2.853
18771W        W90387  22.360   3.247  14.236
18772W        W90388  35.122  34.839  13.949
18773W        W90389  26.260  43.474  14.649
18774W        W90390  24.475  23.958   2.003
18775W        W90391  19.230  40.007  12.096
18776W        W90392  28.632  16.082  11.600
18777W        W90393  24.487  20.096   1.365
18778W        W90394   1.718  30.463  10.922
18779W        W90395  23.513  23.533   2.702
18780W        W90396  20.776   2.884  14.314
18781W        W90397  17.565  30.910   4.154
18782W        W90398  28.729   2.708  12.869
18783W        W90399  37.299  40.006   0.282
18784W        W90400  12.877  32.045  12.545
18785W        W90401   9.278   4.302  12.487
18786W        W90402  10.657  19.223   2.874
18787W        W90403   8.894   3.780  11.118
18788W        W90404  43.884  39.031   1.763
18789W        W90405  24.321  39.018   3.685
18790W        W90406   0.464  20.214  12.872
18791W        W90407  18.332   2.700  13.083
18792W        W90408  40.031   2.252   2.877
18793W        W90409   2.126   8.173  14.014
18794W        W90410  26.255  34.030   3.282
18795W        W90411   8.803  27.136  14.780
18796W        W90412  17.909   4.925   1.910
18797W        W90413   0.023  33.481   2.798
18798W        W90414  40.722  29.829  11.268
18799W        W90415  35.379   2.001   4.094
18800W        W90416   9.613   1.714  12.625
18801W        W90417  22.216  22.662  14.777
18802W        W90418   7.871  22.191   0.923
18803W        W90419  21.938  21.084  13.555
18804W        W90420  38.082  14.132  14.244
18805W        W90421  40.159   4.834  10.549
18806W        W90422  40.812  10.281   1.282
18807W        W90423  27.994   6.795  12.060
18808W        W90424  17.134  23.404  14.150
18809W        W90425  37.992  42.425  12.996
18810W        W90426  17.787  32.194  13.263
18811W        W90427  15.294  26.161   4.993
18812W        W90428  37.827  24.468   1.402
18813W        W90429  26.255   8.743  11.853
18814W        W90430   3.335  37.008  13.936
18815W        W90431  19.343  25.617  14.154
18816W        W90432   3.769  39.357  12.118
18817W        W90433  29.243   0.922  13.913
18818W        W90434   2.228   5.337  13.941
18819W        W90435   8.814  42.516  14.513
18820W        W90436  20.372  14.571  13.268
18821W        W90437  37.821  18.097  13.829
18822W        W90438  30.827  31.120  14.132
18823W        W90439  25.895  43.085  14.501
18824W        W90440  24.138  22.719   3.815
18825W        W90441  18.122  43.173  13.030
18826W        W90442  37.837  21.652  14.052
18827W        W90443  26.736  20.650  11.112
18828W        W90444  21.054  21.447   0.318
18829W        W90445  36.903   9.394   3.720
18830W        W90446   8.258  12.094  13.504
18831W        W90447  28.775  39.827  12.999
18832W        W90448  36.201  14.224  13.216
18833W        W90449  24.566  40.112   2.630
18834W        W90450   9.678  19.751  12.718
18835W        W90451  37.273  25.436   5.231
18836W        W90452   9.915  34.381   0.824
18837W        W90453  17.548  25.628   3.959
18838W        W90454  31.117  41.832   0.307
18839W        W90455  32.080  16.708  13.848
18840W        W90456  14.566  31.119  10.600
18841W        W90457  32.507  15.533  10.837
18842W        W90458  21.659   1.296  11.589
18843W        W90459  34.594  23.329  13.655
18844W        W90460  28.945  41.837   3.246
18845W        W90461  32.413   8.038  14.993
18846W        W90462  24.563   0.230  13.886
18847W        W90463  39.315  29.194  12.865
18848W        W90464  32.141  27.681  11.620
18849W        W90465  26.776  42.342   0.152
18850W        W90466  14.824  17.351  13.387
18851W        W90467   3.812  43.510   2.387
18852W        W90468  24.588   5.864  13.610
18853W        W90469  30.534  31.113   0.368
18854W        W90470  29.122  27.573   4.266
18855W        W90471  33.712  16.800   4.040
18856W        W90472  25.498   6.424  14.812
18857W        W90473   1.039   7.839   0.785
18858W        W90474  15.496  28.695  13.431
18859W        W90475  43.912  43.803  14.784
18860W        W90476  18.717  37.991  14.826
18861W        W90477  44.453  12.122   0.588
18862W        W90478   7.987   4.000   1.029
18863W        W90479  28.955  15.710  11.469
18864W        W90480  24.551  20.690  13.615
18865W        W90481  37.053   3.391  13.621
18866W        W90482  26.721   2.287  11.448
18867W        W90483  31.067  41.973   0.834
18868W        W90484  27.569  44.803  11.151
18869W        W90485  37.567  34.106   0.331
18870W        W90486  16.323  30.313   1.761
18871W        W90487  10.406   8.679   2.260
18872W        W90488  17.291   3.652  14.986
18873W        W90489  13.686  10.385   0.874
18874W        W90490  37.907  13.385   2.768
18875W        W90491  32.863  44.916  13.876
18876W        W90492  43.027   1.004  12.918
18877W        W90493  11.837  36.334   3.149
18878W        W90494   1.778  37.190   4.603
18879W        W90495  21.086   7.886  12.485
18880W        W90496  22.503  13.267  11.652
18881W        W90497  24.959  34.333  13.883
18882W        W90498  35.111  12.812  10.332
18883W        W90499   8.792  24.354   5.046
18884W        W90500  26.141  29.073   0.864
18885W        W90501  25.155  23.236  12.570
18886W        W90502   5.802  40.735   3.344
18887W        W90503  30.491   2.415  12.319
18888W        W90504  36.580  31.200  11.195
18889W        W90505  18.851  38.532   1.983
18890W        W90506  32.944  12.703  14.999
18891W        W90507  39.490   2.915   1.931
18892W        W90508  31.083  17.630   4.122
18893W        W90509   2.478  18.526  14.493
18894W        W90510  16.947  25.075  12.022
18895W        W90511  15.770  35.971  12.518
18896W        W90512  10.086  41.106   0.531
18897W        W90513   8.513   6.057  14.273
18898W        W90514  25.989  24.359   2.628
18899W        W90515  23.984  35.483   1.556
18900W        W90516  21.754  28.164  14.643
18901W        W90517  43.578   6.552   0.397
18902W        W90518   6.183   2.986  13.005
18903W        W90519  25.194  12.787  10.491
18904W        W90520  34.382  44.832   4.513
18905W        W90521  25.207   7.455   1.871
18906W        W90522   1.793  19.116   0.486
18907W        W90523  14.078  17.771   3.301
18908W        W90524   4.925  41.585  13.033
18909W        W90525  32.411  28.521  14.153
18910W        W90526  11.315  23.523   1.656
18911W        W90527  42.953  21.982   4.132
18912W        W90528   3.618  35.723  12.118
18913W        W90529  30.646  23.702   1.663
18914W        W90530   8.838   4.516   4.119
18915W        W90531  32.583  31.443  13.134
18916W        W90532  35.867  41.574   3.893
18917W        W90533  29.222   0.890   5.048
18918W        W90534  15.729  22.292  12.442
18919W        W90535  30.060  26.539   3.400
18920W        W90536  14.109   4.379   0.151
18921W        W90537  43.693  16.706   2.438
18922W        W90538   3.233   2.719  11.278
18923W        W90539  35.822  23.504  12.328
18924W        W90540  16.749  36.962  11.875
18925W        W90541  20.969   8.219   2.885
18926W        W90542  41.736  14.643  13.516
18927W        W90543  11.386   4.260   3.740
18928W        W90544  42.070  29.722  12.504
18929W        W90545  38.541   3.442  12.909
18930W        W90546  44.974  24.496   1.285
18931W        W90547   3.608  42.721  10.532
18932W        W90548   1.386  12.094   4.735
18933W        W90549  44.381  13.195   4.052
18934W        W90550  38.541  10.458   1.286
18935W        W90551  25.921  31.757  10.492
18936W        W90552  33.724  37.540  12.657
18937W        W90553  28.218  16.074  14.845
18938W        W90554  35.472  39.598   1.234
18939W        W90555  37.831   0.794  14.876
18940W        W90556  11.783  24.720  13.616
18941W        W90557  27.023   1.606   0.721
18942W        W90558   7.683  26.860  12.000
18943W        W90559  29.714   7.898   1.283
18944W        W90560  25.270  18.170  13.013
18945W        W90561   2.219  28.932   2.647
18946W        W90562  17.634   2.749  12.495
18947W        W90563   4.847  35.631  12.517
18948W        W90564  33.102  20.146  12.600
18949W        W90565  27.873  27.671   1.332
18950W        W90566  18.951  22.098   0.995
18951W        W90567   8.179   4.799   1.835
18952W        W90568   1.296   0.302   2.729
18953W        W90569  15.339   8.616  13.651
18954W        W90570  28.079  23.703   2.694
18955W        W90571  30.951  37.922   2.394
18956W        W90572  43.026  11.207   1.435
18957W        W90573  39.204  31.045  12.389
18958W        W90574  32.061   1.667  14.595
18959W        W90575   2.640  12.153   1.500
18960W        W90576  10.213  41.331  11.367
18961W        W90577  15.143  27.650   4.598
18962W        W90578  38.441  25.703  13.486
18963W        W90579  10.638   1.354   0.284
18964W        W90580  31.901  42.049  13.814
18965W        W90581  39.832  18.861  10.834
18966W        W90582  36.281  15.375  12.099
18967W        W90583   2.996  16.940  13.428
18968W        W90584   4.949  15.286  10.743
18969W        W90585  44.279  15.727   9.940
18970W        W90586  21.548  33.621   0.853
18971W        W90587  15.701  38.792   3.646
18972W        W90588  22.078   7.204  10.605
18973W        W90589  33.184  18.299  11.323
18974W        W90590   4.043  13.839  10.184
18975W        W90591  31.568  24.283  10.618
18976W        W90592  39.739   5.154  11.375
18977W        W90593  26.443  28.949  10.654
18978W        W90594  27.267   2.366   1.823
18979W        W90595  12.647  36.425   2.634
18980W        W90596  12.780  38.959  12.289
18981W        W90597  18.804  28.973  12.337
18982W        W90598  17.740  26.949  13.534
18983W        W90599  28.849   3.601   4.174
18984W        W90600  29.080   9.640   0.212
18985W        W90601  43.004  34.215  11.401
18986W        W90602  42.394   8.267  11.894
18987W        W90603  23.703  36.867  12.095
18988W        W90604  17.435   9.326   3.442
18989W        W90605  13.145  10.826   3.302
18990W        W90606  31.423  38.789  12.856
18991W        W90607  19.798  44.716  11.452
18992W        W90608  43.425   7.276   3.641
18993W        W90609  10.989  42.983   2.218
18994W        W90610  19.634   5.257  10.886
18995W        W90611  32.209   9.912   3.879
18996W        W90612   0.427   7.539  11.355
18997W        W90613  15.338   7.840   2.573
18998W        W90614  29.452  32.667   0.473
18999W        W90615  43.469   2.887   1.003
19000W        W90616  11.443  11.264  14.966
19001W        W90617  12.944  29.982  11.977
19002W        W90618   4.244  28.550   3.483
19003W        W90619   8.514  13.057  14.330
19004W        W90620  16.774  39.404   3.652
19005W        W90621  27.147  15.831   3.164
19006W        W90622  18.780  44.660   1.395
19007W        W90623  34.711  19.947  11.968
19008W        W90624   6.552  32.469   3.351
19009W        W90625  14.006  31.937   3.956
19010W        W90626  11.459  19.702  12.095
19011W        W90627   4.423  23.043   5.011
19012W        W90628  22.270  21.216  11.112
19013W        W90629  28.239   2.957   4.261
19014W        W90630  35.526  41.313   2.550
19015W        W90631  23.737  15.185  12.150
19016W        W90632  16.693  19.568   1.639
19017W        W90633  28.186  12.623  13.343
19018W        W90634  36.873  18.128   1.365
19019W        W90635  33.319   6.417   1.011
19020W        W90636  17.456  18.517   4.568
19021W        W90637  29.451  21.360   1.347
19022W        W90638  21.995  41.447   0.768
19023W        W90639  11.501   9.121  14.572
19024W        W90640  30.901  23.305   4.677
19025W        W90641  24.838   4.350   4.359
19026W        W90642   9.568  44.888   4.652
19027W        W90643  35.862  11.667   4.520
19028W        W90644   8.575  26.671  14.877
19029W        W90645   6.124  23.717  13.883
19030W        W90646   0.647  33.421  11.591
19031W        W90647  30.083  44.830  14.834
19032W        W90648  40.820  28.027  11.242
19033W        W90649  42.446  23.480  13.893
19034W        W90650  16.598   5.541   1.682
19035W        W90651  44.261   7.907  12.344
19036W        W90652  37.587   4.938  12.546
19037W        W90653  15.031  16.720   5.208
19038W        W90654   1.420  40.036   1.709
19039W        W90655  14.715  41.443  14.560
19040W        W90656   5.849  14.605   0.336
19041W        W90657   0.967  26.410   1.745
19042W        W90658  41.892   9.626  14.397
19043W        W90659   9.608  40.069  11.636
19044W        W90660  22.003  18.074  14.078
19045W        W90661   0.816  17.851  10.725
19046W        W90662   0.012  29.968  12.405
19047W        W90663   9.139  36.356   1.646
19048W        W90664  31.622  37.422  14.273
19049W        W90665  30.525  41.966  14.092
19050W        W90666  38.523   4.850  10.705
19051W        W90667   3.218  40.095   0.894
19052W        W90668  26.174  41.344  14.561
19053W        W90669  27.591  22.195   3.407
19054W        W90670  10.906  10.817  11.922
19055W        W90671  34.557   8.291  12.848
19056W        W90672   6.122   5.197  13.347
19057W        W90673  44.871   0.044  12.788
19058W        W90674   5.218   9.671  11.874
19059W        W90675  11.925  29.378  14.232
19060W        W90676  19.201  35.526  11.683
19061W        W90677  30.335  42.782  11.605
19062W        W90678  18.753  11.048   2.733
19063W        W90679  34.665   4.334  14.334
19064W        W90680  42.099  27.106  14.430
19065W        W90681  19.766  42.919  13.084
19066W        W90682  28.184  31.104  10.681
19067W        W90683  40.352   2.024  14.919
19068W        W90684  36.478  13.822  12.079
19069W        W90685  37.850  17.797   0.767
19070W        W90686  24.261   1.040   0.421
19071W        W90687  19.291   7.857   2.246
19072W        W90688   7.704  24.336   1.758
19073W        W90689  24.516   4.629  12.932
19074W        W90690  33.353  44.838  14.005
19075W        W90691  32.165  34.399   0.946
19076W        W90692   5.830  22.658   0.429
19077W        W90693   2.832   6.215   3.706
19078W        W90694  43.609   7.342   3.163
19079W        W90695  43.795  12.701   3.651
19080W        W90696  17.076  18.987  13.335
19081W        W90697   2.767  26.238  12.140
19082W        W90698   1.379  42.498  13.946
19083W        W90699  29.648  35.417  10.843
19084W        W90700  39.070  27.360   1.895
19085W        W90701  35.886  31.176  12.875
19086W        W90702  41.135  24.241   2.436
19087W        W90703  34.050  41.650   4.090
19088W        W90704  11.052  38.554  14.570
19089W        W90705  44.926   5.701   2.366
19090W        W90706  24.443  41.864   1.267
19091W        W90707  27.364  16.891   4.976
19092W        W90708  24.066  24.058   4.467
19093W        W90709   8.647  44.802   3.655
19094W        W90710  19.777  35.146   2.648
19095W        W90711  20.551  39.114  12.473
19096W        W90712  31.565  43.064  14.644
19097W        W90713  26.033  18.122  11.138
19098W        W90714  18.785  11.983  14.437
19099W        W90715  41.863  38.460   0.291
19100W        W90716  39.328  29.518  12.425
19101W        W90717  23.751  36.938  14.532
19102W        W90718  21.691  29.540  10.679
19103W        W90719   8.185  11.595   2.716
19104W        W90720  23.826   5.410  11.500
19105W        W90721   5.925  33.116  11.584
19106W        W90722  36.365   0.403   3.409
19107W        W90723  23.733  19.136   1.925
19108W        W90724  31.438  23.240  10.539
19109W        W90725   0.985  43.463   4.108
19110W        W90726  39.692  17.725   2.370
19111W        W90727  26.583  19.127  12.534
19112W        W90728  29.486  20.575  12.315
19113W        W90729  29.884  33.919   1.939
19114W        W90730  29.946  32.065   2.387
19115W        W90731  27.173  38.447  13.399
19116W        W90732  35.812  22.317  12.444
19117W        W90733  17.679  38.817   1.332
19118W        W90734  34.536   2.743   1.604
19119W        W90735  27.215  11.345  11.115
19120W        W90736   4.276   2.164  10.456
19121W        W90737  42.742   7.746   1.307
19122W        W90738  11.148  19.509   1.259
19123W        W90739  17.065   4.773  10.099
19124W        W90740  14.279   9.753  14.469
19125W        W90741  23.139   5.749  12.881
19126W        W90742  12.615   8.826  11.576
19127W        W90743  27.678  36.511   2.288
19128W        W90744  38.548  42.417   2.718
19129W        W90745  30.374   6.844  13.692
19130W        W90746  40.337  15.631  14.141
19131W        W90747   3.468   7.492   4.933
19132W        W90748  10.863  25.106   2.841
19133W        W90749  37.323  35.671   3.288
19134W        W90750  29.696  29.055  10.949
19135W        W90751  39.856  25.573   4.538
19136W        W90752  44.480  40.021   2.600
19137W        W90753   9.106  37.632  11.034
19138W        W90754  24.661  39.792  12.341
19139W        W90755  18.488  40.467   3.657
19140W        W90756  22.540  43.465  13.391
19141W        W90757  34.788  44.334   2.885
19142W        W90758  17.149   3.498  14.411
19143W        W90759   3.416   6.183   0.500
19144W        W90760   3.284  15.453  12.200
19145W        W90761  36.590  14.326  14.358
19146W        W90762  22.068  18.078  14.593
19147W        W90763   9.595   2.969  12.032
19148W        W90764   2.061  36.591  10.770
19149W        W90765  28.111  31.396  14.924
19150W        W90766  41.783  17.157   1.783
19151W        W90767  44.303  19.593  12.882
19152W        W90768  17.969  30.414  13.929
19153W        W90769  22.182  14.329   3.769
19154W        W90770  37.934   2.484  10.673
19155W        W90771  14.168  37.343   1.664
19156W        W90772  14.253  38.588  11.038
19157W        W90773   0.344  38.414   4.090
19158W        W90774  41.043   8.363   1.824
19159W        W90775  37.078   7.950   0.440
19160W        W90776  26.228  19.267   4.019
19161W        W90777   8.401  32.443   4.002
19162W        W90778  38.687  15.652   5.062
19163W        W90779  15.967  11.332   0.782
19164W        W90780  22.247  35.571   4.424
19165W        W90781  35.596  20.580  10.598
19166W        W90782  30.927  36.014  13.017
19167W        W90783   9.186   1.642  11.652
19168W        W90784  36.766  31.227  11.709
19169W        W90785   2.856  30.848  13.846
19170W        W90786  21.477  10.216  14.350
19171W        W90787  18.084  11.636  11.420
19172W        W90788  24.554  23.642   1.187
19173W        W90789  11.648   3.352  11.468
19174W        W90790  38.890  15.668  10.157
19175W        W90791  29.675  11.665  12.488
19176W        W90792  31.394  40.443  12.200
19177W        W90793  37.989  28.175   4.807
19178W        W90794  43.531  25.245   5.054
19179W        W90795  23.567  23.442   0.253
19180W        W90796  42.739  11.164   4.131
19181W        W90797  33.352  42.327   1.619
19182W        W90798   6.745   9.776   4.271
19183W        W90799  36.610  27.717   3.239
19184W        W90800   1.674   6.239  11.633
19185W        W90801   4.896  38.588   2.888
19186W        W90802  17.218   2.225  11.260
19187W        W90803  11.549  26.226  12.415
19188W        W90804  25.585   8.093   0.253
19189W        W90805  43.029  31.587  12.109
19190W        W90806   5.240   9.769  12.385
19191W        W90807  41.570  27.888   9.816
19192W        W90808  11.399  17.617  13.918
19193W        W90809  33.582  23.048   2.151
19194W        W90810  43.411  38.413   9.742
19195W        W90811   4.805  36.328  14.797
19196W        W90812  28.101   2.463  12.585
19197W        W90813  38.952   4.547  11.107
19198W        W90814  36.896  10.106   5.365
19199W        W90815   9.585   0.766   3.254
19200W        W90816   6.454   7.814  10.948
19201W        W90817  21.778  37.937   4.643
19202W        W90818   4.026  12.326  13.296
19203W        W90819  13.679  16.202   4.226
19204W        W90820  15.030  36.162  12.921
19205W        W90821  10.608  30.280   0.185
19206W        W90822  28.177  28.607  12.007
19207W        W90823  16.298  40.738  14.595
19208W        W90824  21.554  22.500   3.199
19209W        W90825   6.815  12.686  11.032
19210W        W90826   5.616  32.098   1.475
19211W        W90827  43.454   1.427   3.761
19212W        W90828  27.085  30.124   4.285
19213W        W90829  38.658  44.548  12.042
19214W        W90830  28.433   7.788   2.739
19215W        W90831  21.311   9.491   0.659
19216W        W90832  15.164  16.246   2.338
19217W        W90833  30.111  41.383   1.207
19218W        W90834  40.989   1.261   1.215
19219W        W90835  21.671  29.969   2.248
19220W        W90836  24.235  39.962   4.670
19221W        W90837  38.365  29.535  11.985
19222W        W90838  26.487  17.642   0.122
19223W        W90839   7.793  22.700  12.124
19224W        W90840  41.544  19.780  14.782
19225W        W90841   7.291  37.901  12.346
19226W        W90842  27.684  24.253  13.118
19227W        W90843   0.914   3.025   2.871
19228W        W90844  18.755  14.375   2.362
19229W        W90845  21.975  39.761   0.365
19230W        W90846  43.824  10.785  12.378
19231W        W90847  17.584  29.437  13.927
19232W        W90848  20.217  11.789   3.390
19233W        W90849  41.607  26.959  14.374
19234W        W90850   3.913  18.339   4.739
19235W        W90851  16.119  13.816  12.484
19236W        W90852  15.911  10.179   1.276
19237W        W90853  28.065  37.392  11.607
19238W        W90854  24.195  42.853  12.962
19239W        W90855  35.419  42.623  11.210
19240W        W90856  32.941   2.428  10.094
19241W        W90857  13.250  27.508  10.573
19242W        W90858  28.465  19.869  10.944
19243W        W90859  40.406   5.990  11.998
19244W        W90860  38.819  16.537   2.331
19245W        W90861   7.331  22.245  10.914
19246W        W90862  16.059  24.591  11.959
19247W        W90863   6.263  32.191   2.119
19248W        W90864  13.238  14.765  10.943
19249W        W90865  22.316  37.894   4.659
19250W        W90866  38.939  36.529   0.244
19251W        W90867   4.930  22.683  10.675
19252W        W90868  22.995  28.907   1.503
19253W        W90869  26.018  20.170   0.307
19254W        W90870   0.211  24.652  13.502
19255W        W90871  34.059  27.665  14.809
19256W        W90872  13.098  33.433  12.934
19257W        W90873  30.189  23.544   1.857
19258W        W90874  43.459  21.300  14.289
19259W        W90875   1.424  23.484  11.626
19260W        W90876   9.491  26.321   3.735
19261W        W90877  13.129  38.951  14.939
19262W        W90878  33.056  37.313  13.372
19263W        W90879  42.984  31.992   2.231
19264W        W90880   6.338  24.148  10.314
19265W        W90881  20.695   0.799  14.470
19266W        W90882  40.512  20.124   4.685
19267W        W90883  16.163  24.676   4.877
19268W        W90884  25.539  41.960   1.320
19269W        W90885   2.990   6.604   3.390
19270W        W90886  28.252  42.889   2.181
19271W        W90887  37.691  41.784  12.911
19272W        W90888  10.930  11.143  14.789
19273W        W90889   8.374  23.224   3.202
19274W        W90890  26.053   5.142  11.249
19275W        W90891  34.521   7.889   3.057
19276W        W90892   0.367  36.314  13.367
19277W        W90893  21.200   2.225   1.395
19278W        W90894  40.402  28.133   3.546
19279W        W90895  23.044  14.239  12.902
19280W        W90896  21.407  27.479  11.100
19281W        W90897  21.136   5.600  14.424
19282W        W90898  25.427  31.958   0.768
19283W        W90899   7.961   3.335  13.828
19284W        W90900   4.773  34.664  12.502
19285W        W90901  14.750   7.274   2.263
19286W        W90902  31.979  26.831   0.748
19287W        W90903  30.138  26.017  11.668
19288W        W90904  23.742  26.471  11.596
19289W        W90905   2.045  31.631  10.444
19290W        W90906  28.379  14.603  11.489
19291W        W90907  40.613   7.719  12.509
19292W        W90908  37.442  30.238  12.414
19293W        W90909  26.907  38.936  11.041
19294W        W90910  22.064  38.252  12.792
19295W        W90911  40.383  11.208  12.867
19296W        W90912  29.674  23.323   0.459
19297W        W90913   1.971  30.120   3.949
19298W        W90914   6.399  19.189  10.789
19299W        W90915  40.296  33.442  14.814
19300W        W90916   8.949  19.264   0.884
19301W        W90917  36.420   9.685  11.040
19302W        W90918   8.025   0.991  11.143
19303W        W90919  35.438  35.463  12.884
19304W        W90920  11.076   2.503  14.922
19305W        W90921  11.027  42.837   5.107
19306W        W90922  23.957   9.237   3.334
19307W        W90923  15.367   3.268  10.466
19308W        W90924  19.052   7.694  12.185
19309W        W90925   0.015  27.977   0.631
19310W        W90926  11.771  28.931  11.619
19311W        W90927  15.405  39.368  14.442
19312W        W90928  22.694   5.156  12.047
19313W        W90929  16.770   1.184  14.493
19314W        W90930  32.699  17.720  14.032
19315W        W90931  21.483  13.945   1.175
19316W        W90932  39.053  41.160  10.838
19317W        W90933   9.811  30.619   4.060
19318W        W90934  16.644  38.763  10.244
19319W        W90935   8.369  29.044   4.008
19320W        W90936  24.424  33.706   2.666
19321W        W90937   3.333   8.470  14.855
19322W        W90938  39.833  20.282  13.449
19323W        W90939  29.592  31.210  13.314
19324W        W90940  10.617  16.244   1.757
19325W        W90941  13.285  20.959  11.620
19326W        W90942  32.417  36.987  11.513
19327W        W90943  40.411   6.317   0.479
19328W        W90944  36.067  38.935  11.586
19329W        W90945  33.716  39.328  10.501
19330W        W90946   4.818   4.928  14.936
19331W        W90947  24.838  33.344  11.149
19332W        W90948  39.558  15.793   2.407
19333W        W90949  14.095  13.508  12.980
19334W        W90950  29.133  28.889   3.823
19335W        W90951  23.034  21.551   0.420
19336W        W90952  12.064  44.903   2.200
19337W        W90953   5.469  29.552  14.362
19338W        W90954  44.515  31.421  10.454
19339W        W90955  27.195  40.959  12.446
19340W        W90956  36.087  39.027   3.603
19341W        W90957   4.718  10.402   2.863
19342W        W90958  28.527  25.377   1.439
19343W        W90959  44.584  11.628   3.268
19344W        W90960  14.812  13.749   1.738
19345W        W90961  12.823  11.809  11.586
19346W        W90962  30.681  14.339  10.130
19347W        W90963  34.951  40.255   2.745
19348W        W90964  35.076  11.291  10.313
19349W        W90965  30.862  28.188   3.140
19350W        W90966  35.730  27.705   2.696
19351W        W90967  15.322  10.126  14.878
19352W        W90968  35.912  26.444   0.858
19353W        W90969  15.077  22.341  12.071
19354W        W90970  23.554  37.303  12.941
19355W        W90971   4.425  19.189  10.349
19356W        W90972  28.314   6.288   3.198
19357W        W90973  17.168  37.218  14.983
19358W        W90974  13.874  36.116  13.295
19359W        W90975   0.936  34.028  10.722
19360W        W90976  43.515  22.229  14.737
19361W        W90977  26.584  38.784   1.772
19362W        W90978  21.372  37.508  10.775
19363W        W90979   2.288  20.543   1.734
19364W        W90980  41.778   8.732  13.953
19365W        W90981  14.753  43.684   4.512
19366W        W90982  33.522  27.645  12.914
19367W        W90983  30.873   9.182  12.457
19368W        W90984  29.118   7.844  11.875
19369W        W90985  37.966  36.052   4.705
19370W        W90986  29.897   1.359  10.367
19371W        W90987  29.658  25.220  12.585
19372W        W90988  42.534  11.336   1.627
19373W        W90989  35.974  41.298   3.413
19374W        W90990  29.648  20.281  11.094
19375W        W90991  14.314   1.781   3.612
19376W        W90992  12.216  38.593   4.226
19377W        W90993  32.921  39.566   3.081
19378W        W90994   8.635   7.354  10.746
19379W        W90995  13.278  25.424  13.443
19380W        W90996  25.702   5.145  14.249
19381W        W90997  21.602   9.219  12.185
19382W        W90998  43.122   4.687   2.746
19383W        W90999  32.300  10.559   1.315
19384W        W91000  33.204   9.744  11.098
19385W        W91001  13.705  10.352  10.326
19386W        W91002  19.089   5.316   3.882
19387W        W91003  17.168  33.732   5.352
19388W        W91004  29.062  26.415   5.091
19389W        W91005  19.968  33.563  12.859
19390W        W91006  35.048  21.036   1.087
19391W        W91007  13.740   0.462  12.041
19392W        W91008  13.907  23.375  10.370
19393W        W91009  42.286  15.674  14.863
19394W        W91010  33.237  25.103   1.938
19395W        W91011  12.730  30.093   3.104
19396W        W91012  13.885  32.001  13.388
19397W        W91013  39.816  23.993  10.998
19398W        W91014  35.516  22.103  11.185
19399W        W91015  42.565  14.093  14.542
19400W        W91016  23.822  21.899  10.700
19401W        W91017  28.085  32.976  13.019
19402W        W91018   0.470   9.325  12.071
19403W        W91019  31.169  20.547   4.197
19404W        W91020  39.599  14.114  12.563
19405W        W91021  26.532  29.962  11.600
19406W        W91022  34.858   9.110  12.987
19407W        W91023  13.933  39.413   3.222
19408W        W91024  35.184  22.480  14.301
19409W        W91025   1.544  37.803  13.448
19410W        W91026  13.871  32.648   3.678
19411W        W91027  34.929  40.071   1.953
19412W        W91028  10.209  34.118  14.457
19413W        W91029  27.677  29.373  12.877
19414W        W91030  27.195  13.592   0.722
19415W        W91031  19.578  27.751   2.348
19416W        W91032  21.714  39.960   0.800
19417W        W91033  40.503  41.014  14.520
19418W        W91034  43.043  29.969  11.567
19419W        W91035  39.406  39.463   1.636
19420W        W91036   0.055  12.803  13.939
19421W        W91037  33.567  27.987  13.354
19422W        W91038  41.829  16.709  14.326
19423W        W91039  33.588  33.024  10.597
19424W        W91040   1.418  34.281   1.077
19425W        W91041  16.135  29.445  10.874
19426W        W91042  31.642  38.871   1.889
19427W        W91043  29.688  42.315   4.876
19428W        W91044   7.091  17.254  11.136
19429W        W91045  32.651  23.837  11.861
19430W        W91046  27.759   3.315   0.844
19431W        W91047  20.209  27.231   1.865
19432W        W91048  43.439  37.054   2.933
19433W        W91049  27.556  29.034   2.887
19434W        W91050  24.292   0.698  13.847
19435W        W91051  16.661  31.847   3.869
19436W        W91052   2.462  23.796   2.831
19437W        W91053   0.927  24.303  12.912
19438W        W91054  24.571  24.094  11.515
19439W        W91055  29.141  32.578   2.369
19440W        W91056  19.098  40.983  12.179
19441W        W91057  24.132  36.279  12.985
19442W        W91058  33.133  13.810  13.422
19443W        W91059   8.247   9.863   2.327
19444W        W91060   3.249   9.177  14.403
19445W        W91061   7.198  18.716   4.105
19446W        W91062  42.910  20.554  13.465
19447W        W91063   1.248   8.675  14.789
19448W        W91064  11.660  27.513   1.065
19449W        W91065  38.383  44.979  13.296
19450W        W91066   9.209   5.700   0.224
19451W        W91067  17.774   0.700   3.698
19452W        W91068  37.374  20.500   2.029
19453W        W91069  17.326  16.738   4.136
19454W        W91070  13.644   2.256  11.537
19455W        W91071  29.369  18.230   4.282
19456W        W91072  17.246  21.736  12.968
19457W        W91073  25.290   1.277   3.156
19458W        W91074   9.903  40.569   3.703
19459W        W91075  42.529  10.694   4.187
19460W        W91076  25.940  28.562   0.044
19461W        W91077   7.396  15.719   1.680
19462W        W91078  38.078  31.042   4.734
19463W        W91079   5.788  15.985   2.179
19464W        W91080   9.232  16.816  14.891
19465W        W91081   2.852  41.285  11.645
19466W        W91082  42.530  23.712  11.990
19467W        W91083  40.740  29.652   4.748
19468W        W91084  21.256  13.130  11.150
19469W        W91085  19.821  19.323  11.969
19470W        W91086  24.078  14.106   2.298
19471W        W91087  28.111  23.899   4.550
19472W        W91088  20.603  39.109   1.257
19473W        W91089   0.739   3.264  13.052
19474W        W91090  29.940  32.488  11.170
19475W        W91091   0.391   9.317   3.113
19476W        W91092  24.506   7.300   2.383
19477W        W91093  16.136  33.915  11.365
19478W        W91094  16.408  23.787   1.341
19479W        W91095   4.472  32.362   4.521
19480W        W91096  24.075  36.119  12.489
19481W        W91097  44.228  28.583  13.330
19482W        W91098  39.698  24.631  13.563
19483W        W91099  33.272   1.860   3.558
19484W        W91100  10.813  24.578  10.603
19485W        W91101  41.104  26.072   0.425
19486W        W91102  38.612  28.128   2.128
19487W        W91103  34.401  43.742   4.072
19488W        W91104  13.775  43.259   3.353
19489W        W91105  30.573  44.233   1.162
19490W        W91106  21.058  34.968  12.680
19491W        W91107  10.154  12.484   0.943
19492W        W91108  20.844  42.568   4.136
19493W        W91109  23.702  23.590  11.259
19494W        W91110  40.330  31.692  11.473
19495W        W91111   0.498  18.403   2.342
19496W        W91112   3.202  21.592   0.830
19497W        W91113  32.426  22.756   3.778
19498W        W91114  36.045  43.509  14.530
19499W        W91115  27.646  16.463  10.692
19500W        W91116  36.826  15.417  14.387
19501W        W91117  32.532  32.212   3.160
19502W        W91118  18.713  17.307  12.360
19503W        W91119  30.594  12.867   0.338
19504W        W91120  32.192  20.835   2.790
19505W        W91121  17.557  10.142   0.881
19506W        W91122  12.221  40.112  11.070
19507W        W91123   7.492  37.734   1.853
19508W        W91124  24.234  31.886  10.023
19509W        W91125  26.925  38.316  14.302
19510W        W91126  18.658  34.716  14.311
19511W        W91127   0.803   8.754   5.021
19512W        W91128  37.750   7.801   0.834
19513W        W91129  36.555  19.176   3.912
19514W        W91130   2.306  17.619   2.679
19515W        W91131  25.723   8.228  12.746
19516W        W91132  11.852   4.956   1.761
19517W        W91133   2.235  20.334  13.356
19518W        W91134   1.994  27.938  11.124
19519W        W91135  15.255   4.907   1.771
19520W        W91136  19.123  33.955   4.042
19521W        W91137  22.278   0.247   4.156
19522W        W91138  39.297  23.882  12.417
19523W        W91139  31.994  24.788  11.205
19524W        W91140  39.789   9.208   1.429
19525W        W91141   5.851  32.879   4.592
19526W        W91142  22.725  33.630  11.573
19527W        W91143  24.242  41.383   3.621
19528W        W91144  28.970  32.034  13.790
19529W        W91145  25.957  29.016   0.348
19530W        W91146  29.243  39.630   4.642
19531W        W91147  11.894   2.019   0.380
19532W        W91148   0.323   4.296  12.466
19533W        W91149  28.144  33.350  11.598
19534W        W91150  20.086  42.432   4.618
19535W        W91151  33.657  19.766   4.577
19536W        W91152  19.043  44.687  12.006
19537W        W91153   3.313  39.378   3.946
19538W        W91154  14.351  19.129  12.903
19539W        W91155  40.776  19.716  13.381
19540W        W91156  21.286  12.684   2.246
19541W        W91157  21.309   4.575  13.603
19542W        W91158  17.827  15.123   0.008
19543W        W91159  40.292  20.542  14.727
19544W        W91160  26.751  23.802   1.836
19545W        W91161  44.782  25.643   4.472
19546W        W91162   7.884  44.401   2.372
19547W        W91163  11.684  23.189  12.625
19548W        W91164   1.335   2.209   0.976
19549W        W91165   1.651   2.185   4.451
19550W        W91166  39.861   3.929   3.661
19551W        W91167  22.092  26.227  10.306
19552W        W91168  23.760  15.213   2.815
19553W        W91169   4.164  41.962   1.392
19554W        W91170   5.241   4.909   3.776
19555W        W91171   6.789   5.759   2.352
19556W        W91172  33.070  19.454   1.912
19557W        W91173  10.897  39.982   2.376
19558W        W91174  20.447  26.904  12.676
19559W        W91175   3.516  16.122  13.418
19560W        W91176  25.147   4.327  13.532
19561W        W91177   0.978  33.565  12.891
19562W        W91178  12.614  23.471  12.100
19563W        W91179  20.095  16.260  11.874
19564W        W91180  11.264   6.362  12.066
19565W        W91181  13.591  26.409   3.768
19566W        W91182  12.461   6.164   0.454
19567W        W91183  11.038  42.964  11.581
19568W        W91184  38.933  33.058   2.857
19569W        W91185  34.912  24.539  12.836
19570W        W91186  30.053   2.397  10.665
19571W        W91187   2.009  38.237  11.065
19572W        W91188  24.333  28.414  10.505
19573W        W91189  33.781   3.221  14.910
19574W        W91190  13.172  15.756  10.635
19575W        W91191  43.843  24.502  14.397
19576W        W91192   5.033  20.873   2.370
19577W        W91193  29.962  13.559  13.513
19578W        W91194   3.807   5.646  12.499
19579W        W91195  39.262  35.460  12.400
19580W        W91196  37.540   1.253   2.083
19581W        W91197   9.382  44.981  12.367
19582W        W91198  21.114  44.779  14.833
19583W        W91199  36.594  26.301  14.218
19584W        W91200  13.066   8.900  13.320
19585W        W91201  13.086   0.836  12.518
19586W        W91202  43.344  34.001  11.097
19587W        W91203   8.189  11.443   1.825
19588W        W91204  16.352  38.775   1.814
19589W        W91205  32.364   3.349   3.462
19590W        W91206  38.497  41.805  13.957
19591W        W91207   1.800   5.774   2.763
19592W        W91208  22.588  30.062   0.395
19593W        W91209  29.965   9.569  12.045
19594W        W91210   2.287  15.277  11.131
19595W        W91211   8.312  38.824  10.435
19596W        W91212   2.904  15.345   0.373
19597W        W91213  17.145   3.726  13.100
19598W        W91214   1.697  30.565   2.622
19599W        W91215  26.771  27.214   4.961
19600W        W91216  13.635  42.016   3.685
19601W        W91217  18.171  38.820   4.657
19602W        W91218  32.371  21.688   2.443
19603W        W91219  39.389  34.517   3.837
19604W        W91220  42.375  41.962  11.643
19605W        W91221   0.103  14.778  12.898
19606W        W91222  18.694  33.838   4.321
19607W        W91223  43.046  23.852  12.009
19608W        W91224  20.178  18.047   4.465
19609W        W91225  42.869  16.789   1.265
19610W        W91226  28.417  18.762   3.401
19611W        W91227  21.266  36.586   3.467
19612W        W91228  21.358  21.534  13.019
19613W        W91229  26.081  20.586   4.081
19614W        W91230  35.279  32.627  11.918
19615W        W91231  31.073   2.649  13.556
19616W        W91232  24.514  26.077   3.418
19617W        W91233  41.955  40.600  11.578
19618W        W91234  13.645  26.928   3.767
19619W        W91235  23.523   4.882   4.661
19620W        W91236  19.249  25.252  12.808
19621W        W91237  37.635  39.337  13.457
19622W        W91238  15.293   8.420   0.219
19623W        W91239   4.168  28.076  14.260
19624W        W91240  16.328  39.986   1.330
19625W        W91241   6.730  19.153  11.987
19626W        W91242  39.469  28.837   4.735
19627W        W91243  35.804   2.953   4.383
19628W        W91244  14.657  15.081   0.859
19629W        W91245  29.747  20.265   3.604
19630W        W91246  12.714   5.788   2.380
19631W        W91247  35.982  22.799  10.523
19632W        W91248   7.497  24.422  11.152
19633W        W91249  22.022   2.921   0.370
19634W        W91250   9.875  34.054  13.060
19635W        W91251  41.514  33.928  10.875
19636W        W91252   7.038  14.126  12.943
19637W        W91253  12.225  24.623   4.489
19638W        W91254  26.673   0.184   3.695
19639W        W91255   9.881  43.935  14.865
19640W        W91256   0.536  20.676   3.559
19641W        W91257  41.007  12.603   0.849
19642W        W91258  13.065  38.711  11.575
19643W        W91259   1.001  19.299   1.039
19644W        W91260  41.836  14.292   2.246
19645W        W91261  23.752  19.194  14.953
19646W        W91262  23.660  42.236  14.962
19647W        W91263  10.984   3.370  12.325
19648W        W91264  29.051  11.743   0.462
19649W        W91265  26.046   0.742  11.043
19650W        W91266  17.608  26.038   4.256
19651W        W91267  43.208  30.513   1.338
19652W        W91268  16.598  20.807   1.203
19653W        W91269  11.240  14.571   3.121
19654W        W91270  28.192   0.197  14.848
19655W        W91271  44.478  29.537   9.872
19656W        W91272  40.314  21.755  13.456
19657W        W91273  13.258   4.215   3.272
19658W        W91274  10.188   4.493  11.146
19659W        W91275  16.320  11.384   2.408
19660W        W91276  43.979  39.842   2.819
19661W        W91277  14.805  28.494  13.929
19662W        W91278  37.281  27.349  11.511
19663W        W91279  40.431   7.435  10.761
19664W        W91280  30.164  17.586  11.557
19665W        W91281  13.587  44.783  12.794
19666W        W91282   9.844  25.027   5.083
19667W        W91283   2.048  20.695  12.420
19668W        W91284  18.590  19.067   3.262
19669W        W91285  33.469  41.611  10.781
19670W        W91286  29.570   7.745   4.694
19671W        W91287  16.113  10.740  14.015
19672W        W91288  32.342  21.129   0.262
19673W        W91289  16.556  27.127   0.939
19674W        W91290  28.629   4.426   0.859
19675W        W91291  38.419  21.972   0.791
19676W        W91292  20.102  36.572  13.646
19677W        W91293  39.088  32.180   3.077
19678W        W91294  13.647  25.519  12.160
19679W        W91295  28.987  12.766   1.667
19680W        W91296  13.897  25.442  12.624
19681W        W91297  17.309  32.110  14.526
19682W        W91298  43.296  11.914   4.546
19683W        W91299   6.031  12.196  11.139
19684W        W91300  31.593  21.779  11.156
19685W        W91301   2.813  40.495   3.825
19686W        W91302  19.863   4.262  10.387
19687W        W91303  26.930   9.551   1.682
19688W        W91304  13.828  32.016  14.619
19689W        W91305  32.406  22.546  11.655
19690W        W91306   8.445  23.597  13.522
19691W        W91307  32.556   0.725   3.329
19692W        W91308  33.976  37.144   0.730
19693W        W91309  40.102  37.999  11.248
19694W        W91310  21.134  15.782  13.276
19695W        W91311   7.321  44.894   2.786
19696W        W91312   8.630  33.587  14.399
19697W        W91313  43.870  24.735   0.878
19698W        W91314  26.208  31.995   1.817
19699W        W91315   3.735   3.774  14.544
19700W        W91316   5.886  39.454   4.638
19701W        W91317  43.999   0.550  13.907
19702W        W91318  37.822   6.260   3.613
19703W        W91319   0.329  37.628  12.048
19704W        W91320  35.959  17.562  11.043
19705W        W91321   3.280  27.834  14.360
19706W        W91322  34.423   0.744   3.390
19707W        W91323  40.890   8.708   4.385
19708W        W91324  30.465   5.795  12.071
19709W        W91325  32.135  12.076   0.247
19710W        W91326  25.508  33.245   2.825
19711W        W91327  37.488   4.222   0.474
19712W        W91328  17.487  39.488   2.954
19713W        W91329  35.186  23.105  14.879
19714W        W91330  35.541  43.843  11.140
19715W        W91331  22.687  14.333   1.192
19716W        W91332  41.020  14.779   2.441
19717W        W91333  21.155  38.867   4.993
19718W        W91334  12.321  29.027   1.412
19719W        W91335   5.437   8.318  12.800
19720W        W91336  41.957  13.138   4.629
19721W        W91337  23.652  28.053  12.502
19722W        W91338  22.966  17.661  13.441
19723W        W91339  16.955  19.195  10.607
19724W        W91340  38.950  38.892  11.163
19725W        W91341  32.186  20.080   3.068
19726W        W91342  11.200  38.121  12.063
19727W        W91343  38.764   1.799  12.235
19728W        W91344  41.919  25.184  13.776
19729W        W91345   2.114  18.351  10.166
19730W        W91346  39.320  12.384  10.751
19731W        W91347  17.843  13.548  14.704
19732W        W91348  18.712   9.174   3.323
19733W        W91349  28.227  23.720  10.216
19734W        W91350  11.560  43.007  12.931
19735W        W91351  28.597  17.444   2.598
19736W        W91352  19.697   2.359  13.181
19737W        W91353   4.383   5.201   3.734
19738W        W91354  23.103  33.332  14.502
19739W        W91355   1.815  13.703   4.373
19740W        W91356   7.630  23.606   2.119
19741W        W91357   1.956  15.697   4.666
19742W        W91358  30.729  29.541  12.109
19743W        W91359   7.809  31.108   3.143
19744W        W91360  12.160  20.298   1.729
19745W        W91361  16.683   0.882   4.171
19746W        W91362  20.121  28.136   2.921
19747W        W91363  28.158  25.910  13.381
19748W        W91364  32.310  31.112  13.874
19749W        W91365  23.464  27.687  13.278
19750W        W91366   3.029  29.350  13.446
19751W        W91367  44.857  29.679   0.496
19752W        W91368  23.178  43.749  10.731
19753W        W91369  40.020  29.043   0.288
19754W        W91370   2.485   3.468  11.538
19755W        W91371  32.958  23.521   2.489
19756W        W91372  31.420   6.852  14.281
19757W        W91373   2.753  22.205   2.257
19758W        W91374  11.827  24.730  11.414
19759W        W91375   6.769   3.481  11.651
19760W        W91376   7.857  41.030  11.719
19761W        W91377  13.531  39.476   2.394
19762W        W91378   8.494  25.707   5.327
19763W        W91379  31.159  18.633   0.695
19764W        W91380   4.067   2.147  14.473
19765W        W91381  29.081  37.601  14.781
19766W        W91382  10.163   7.458   4.043
19767W        W91383  34.758  41.387  11.144
19768W        W91384  38.149   0.562   3.388
19769W        W91385  22.962  23.487   2.685
19770W        W91386  39.045  15.273   1.913
19771W        W91387   4.671  37.523   3.537
19772W        W91388   8.644  42.769  10.212
19773W        W91389  14.704  31.587   0.367
19774W        W91390  15.592  24.758   1.711
19775W        W91391  23.099  37.087  12.952
19776W        W91392  27.528  21.661   0.814
19777W        W91393  28.193  27.659  13.734
19778W        W91394   6.979  13.667   1.889
19779W        W91395  32.901  20.201   4.056
19780W        W91396  19.734   6.291  11.940
19781W        W91397  26.872  37.016  11.543
19782W        W91398   0.700  37.933   4.669
19783W        W91399  30.876  42.270   4.030
19784W        W91400  31.268  35.018  10.409
19785W        W91401  11.939   5.456  12.474
19786W        W91402  25.237   8.140  10.756
19787W        W91403  39.503  19.143   1.182
19788W        W91404  10.879  27.504  13.933
19789W        W91405  16.156  22.465  14.861
19790W        W91406   5.655  31.049   0.386
19791W        W91407  33.619  31.493   4.066
19792W        W91408  30.860   5.748  14.784
19793W        W91409  22.577  22.645   2.824
19794W        W91410  12.312  29.855   4.163
19795W        W91411  18.368  13.214   3.438
19796W        W91412  44.967  12.423   2.357
19797W        W91413  18.249  43.908   3.623
19798W        W91414  15.239  28.192   1.873
19799W        W91415   6.367   9.668   2.647
19800W        W91416  16.915  22.150   2.230
19801W        W91417  13.202  22.923  11.635
19802W        W91418  20.670  13.432  12.867
19803W        W91419  24.007  36.964  14.039
19804W        W91420  40.934  34.518  10.931
19805W        W91421  29.155   1.206  11.600
19806W        W91422   1.366  38.073   3.073
19807W        W91423  28.394   2.909  10.728
19808W        W91424  25.248  37.405   2.371
19809W        W91425   1.380  18.993  11.099
19810W        W91426  30.703  13.666  11.796
19811W        W91427   9.301   9.965   3.607
19812W        W91428  43.079  16.722   2.594
19813W        W91429  26.520  16.172   5.053
19814W        W91430  13.645  27.953   0.269
19815W        W91431   7.596  34.472   1.199
19816W        W91432   6.844   2.169   2.348
19817W        W91433  28.282   6.177  14.737
19818W        W91434  41.365  28.528  12.518
19819W        W91435  30.520  36.022  11.019
19820W        W91436  25.192  43.084   3.304
19821W        W91437  16.785  35.102  11.536
19822W        W91438  21.980  14.540  11.847
19823W        W91439  44.022  18.427  10.843
19824W        W91440   9.072  41.647   0.553
19825W        W91441  15.833  35.972   1.690
19826W        W91442  16.081  10.338  11.476
19827W        W91443   2.392  31.445  11.881
19828W        W91444   0.087  37.587   4.278
19829W        W91445  44.673   2.412   4.125
19830W        W91446  32.037  22.008   3.423
19831W        W91447   9.546  18.681   3.991
19832W        W91448   2.259  38.633  14.464
19833W        W91449  22.572  37.445   4.607
19834W        W91450  12.155  28.541  11.521
19835W        W91451  31.146   7.236   2.876
19836W        W91452  43.978   0.206  10.674
19837W        W91453  28.998  33.578  14.427
19838W        W91454  23.225  12.802  14.422
19839W        W91455  14.335  27.515  12.084
19840W        W91456  32.174  43.817  12.714
19841W        W91457   9.361   7.170  13.336
19842W        W91458  17.574   4.839  13.373
19843W        W91459  11.329  29.005   4.977
19844W        W91460  42.505  12.297   3.624
19845W        W91461  25.771  20.243   4.759
19846W        W91462  39.009  11.570  10.608
19847W        W91463  44.032   7.306  12.021
19848W        W91464   4.747  14.593   4.981
19849W        W91465  20.619  27.737  12.762
19850W        W91466  37.382  39.983   4.485
19851W        W91467  42.539  16.354   0.521
19852W        W91468  12.598   9.797   3.188
19853W        W91469  29.925  33.600  11.109
19854W        W91470  18.852  30.924  12.995
19855W        W91471  33.839  40.464   3.164
19856W        W91472  10.703  24.253   0.421
19857W        W91473  23.197  11.628  11.142
19858W        W91474   3.708  19.344  13.085
19859W        W91475   0.878  37.543   0.068
19860W        W91476  37.108  24.148   2.105
19861W        W91477  23.121   9.433   0.250
19862W        W91478  15.295   1.371  13.441
19863W        W91479  30.437  28.185   4.429
19864W        W91480   8.737   6.337   4.789
19865W        W91481  27.918  17.000  14.795
19866W        W91482  41.962  20.182  14.451
19867W        W91483  32.971  44.810  12.261
19868W        W91484  24.292  19.698  11.197
19869W        W91485  13.132   4.197   0.257
19870W        W91486  28.544  26.430  10.666
19871W        W91487  35.082  22.996   3.115
19872W        W91488  23.454  35.540   1.477
19873W        W91489  10.871  27.110   3.145
19874W        W91490  39.408  41.115   2.196
19875W        W91491  40.998   2.446   3.268
19876W        W91492   0.072   9.284  10.743
19877W        W91493  41.851  19.814   3.177
19878W        W91494   6.793   9.232  12.629
19879W        W91495  30.025  42.001  14.249
19880W        W91496  40.813  39.261   4.407
19881W        W91497  42.547  10.629  13.784
19882W        W91498  35.218  36.319   1.754
19883W        W91499  16.179  32.871  13.485
19884W        W91500  28.861  36.117   1.960
19885W        W91501  16.633  15.255  12.315
19886W        W91502   0.895  24.018  13.354
19887W        W91503  37.388   7.256  11.531
19888W        W91504   9.253  10.575  12.870
19889W        W91505  28.032  15.721   2.956
19890W        W91506  32.517  33.574   4.920
19891W        W91507  33.514   1.773   0.502
19892W        W91508  38.212  15.940   2.382
19893W        W91509  21.041  36.829   3.863
19894W        W91510   0.255   5.116  14.732
19895W        W91511  24.144  15.718   0.280
19896W        W91512   6.505   7.752   1.829
19897W        W91513  21.434  10.562   0.674
19898W        W91514  10.244   9.737   0.557
19899W        W91515   3.815  31.887  12.649
19900W        W91516   2.382  27.099  10.645
19901W        W91517  35.956  39.289   4.898
19902W        W91518  21.253  14.784  12.505
19903W        W91519  18.980  41.050  13.097
19904W        W91520  36.939   5.318   1.930
19905W        W91521  38.187   0.988  13.092
19906W        W91522   0.934  26.483  12.871
19907W        W91523   8.314   5.871   0.793
19908W        W91524  20.186   6.884   0.860
19909W        W91525   9.972  13.894  11.716
19910W        W91526   7.395  16.032  14.269
19911W        W91527  18.348   1.862   4.614
19912W        W91528   2.424  11.428  11.209
19913W        W91529  37.530  43.104  12.082
19914W        W91530   8.304  31.341  11.592
19915W        W91531  32.535  19.979  13.860
19916W        W91532  21.989  15.196  11.262
19917W        W91533  26.813  40.185  11.152
19918W        W91534   0.889  31.610  14.087
19919W        W91535  10.134   7.437   0.988
19920W        W91536  17.232   8.281   3.953
19921W        W91537  28.454  14.820   1.278
19922W        W91538  39.503  34.964   4.068
19923W        W91539  39.269   5.396  11.541
19924W        W91540   3.303   2.191  14.011
19925W        W91541  44.494  16.610   4.222
19926W        W91542  33.971  13.316  13.942
19927W        W91543  44.481  12.848  11.077
19928W        W91544   1.895  12.330   4.052
19929W        W91545   3.319  19.136   3.357
19930W        W91546  43.033  28.030   2.820
19931W        W91547  24.457   5.858  14.928
19932W        W91548  32.709  25.582   0.413
19933W        W91549  22.112  33.019  14.977
19934W        W91550  30.567   4.287  12.769
19935W        W91551  34.805  37.580  11.313
19936W        W91552  38.911  18.814  14.719
19937W        W91553  44.896  28.537  11.563
19938W        W91554  12.843   9.656   4.498
19939W        W91555  20.603  25.054  10.651
19940W        W91556  27.204  44.943   2.808
19941W        W91557  35.751  12.755  11.529
19942W        W91558   3.326   7.313   4.081
19943W        W91559  18.214  19.094  12.809
19944W        W91560  25.621  39.006  10.764
19945W        W91561   7.859   6.797  12.821
19946W        W91562  15.796  11.096   4.102
19947W        W91563  22.736  28.232  12.941
19948W        W91564  33.990  33.614   4.247
19949W        W91565  44.965  41.347  13.457
19950W        W91566  41.971  30.970   0.480
19951W        W91567  35.460  16.106   3.396
19952W        W91568  13.872  37.146  11.274
19953W        W91569   5.337  20.639   1.181
19954W        W91570  16.522  43.828  11.213
19955W        W91571  24.018   7.668  12.094
19956W        W91572  36.051  19.585  14.971
19957W        W91573  22.316  38.380  10.949
19958W        W91574  11.166   0.205   2.679
19959W        W91575  33.285  36.296  11.359
19960W        W91576  18.736  28.637   1.751
19961W        W91577  22.008  40.459  11.867
19962W        W91578  31.026  44.838  10.770
19963W        W91579  41.009  18.316   0.446
19964W        W91580   0.535  39.048  10.359
19965W        W91581   0.831  35.294   0.418
19966W        W91582   2.226  16.077  11.904
19967W        W91583  21.364  14.837   2.776
19968W        W91584   3.391   7.870   0.856
19969W        W91585  32.574   9.643  13.422
19970W        W91586  21.207   8.629   5.008
19971W        W91587  13.805  34.433  14.271
19972W        W91588  30.876   0.206   0.861
19973W        W91589  21.694   5.335   3.648
19974W        W91590  19.504  15.699  12.969
19975W        W91591  27.475  32.707   4.622
19976W        W91592  10.388  40.360   3.631
19977W        W91593  30.496  21.588  13.526
19978W        W91594  12.410  19.343   4.447
19979W        W91595  30.159  34.051  14.009
19980W        W91596  25.555  40.482   0.754
19981W        W91597  30.883   6.894   0.735
19982W        W91598  15.138  43.076  10.613
19983W        W91599  29.170  16.145   2.840
19984W        W91600  29.113  13.837  10.902
19985W        W91601   0.258  36.607  11.091
19986W        W91602  24.730  18.191   1.397
19987W        W91603  23.180  18.376   3.388
19988W        W91604  39.243   2.458  13.955
19989W        W91605  16.040   0.249   2.184
19990W        W91606   7.846   6.857  11.807
19991W        W91607   6.409  29.923  13.476
19992W        W91608  19.468   2.759   2.410
19993W        W91609  10.862  31.568  10.492
19994W        W91610  25.001  26.734  14.834
19995W        W91611  29.783  30.329  11.119
19996W        W91612  17.033  22.987  11.529
19997W        W91613   3.172  27.073   4.519
19998W        W91614  35.474  43.490   1.413
19999W        W91615  32.438  11.254   3.734
20000W        W91616   0.833  15.299   0.729
20001W        W91617   1.673  24.693  13.591
20002W        W91618  14.275   0.713  12.110
20003W        W91619   0.368  13.877   2.773
20004W        W91620  36.349   1.476  10.664
20005W        W91621  44.716   3.533   0.320
20006W        W91622  40.107  23.608  14.440
20007W        W91623  38.848  24.472   3.142
20008W        W91624  15.737  42.803  12.889
20009W        W91625   2.696  17.755   0.327
20010W        W91626  26.489  35.951  14.309
20011W        W91627  11.267  16.325   2.725
20012W        W91628  34.035   8.684   4.355
20013W        W91629  23.487  16.173  13.249
20014W        W91630   1.009  24.769   4.176
20015W        W91631  26.505   9.311  10.698
20016W        W91632  19.916  32.332  13.991
20017W        W91633  42.829  14.057  11.925
20018W        W91634  44.027   8.217  11.532
20019W        W91635  20.614  35.211  14.908
20020W        W91636  43.819  41.438   4.122
20021W        W91637   8.586  12.095  10.594
20022W        W91638   2.589  29.555  14.799
20023W        W91639  36.683  38.819  12.805
20024W        W91640  42.285  23.924  14.878
20025W        W91641  15.821  36.869  14.697
20026W        W91642  34.951  33.045  11.916
20027W        W91643  27.313  33.564   4.915
20028W        W91644  36.287   5.463   2.743
20029W        W91645  40.074  17.548  12.487
20030W        W91646  44.539   1.892  13.393
20031W        W91647  17.289   8.813   1.290
20032W        W91648   1.799   3.671   4.041
20033W        W91649  10.223  28.237   3.078
20034W        W91650  25.498  12.449  12.987
20035W        W91651   1.208   7.430   0.402
20036W        W91652  31.950   5.265   0.076
20037W        W91653  44.959   2.741  11.974
20038W        W91654   8.684  44.734  13.446
20039W        W91655  32.658  15.839  11.213
20040W        W91656  18.940  33.978   1.938
20041W        W91657  42.935  19.666   1.334
20042W        W91658   3.516  23.092  11.950
20043W        W91659  24.176  31.984   1.752
20044W        W91660   0.945  10.739  11.494
20045W        W91661   0.936  28.421   1.157
20046W        W91662  24.513  13.826   2.283
20047W        W91663  13.422   6.237   1.132
20048W        W91664  33.150  18.831  12.014
20049W        W91665  33.066  44.293  10.051
20050W        W91666  17.271  25.117   5.072
20051W        W91667  10.194  19.725  11.512
20052W        W91668  26.259  20.225   0.772
20053W        W91669   5.838  16.197  10.611
20054W        W91670  11.548  39.231   2.369
20055W        W91671  25.648  18.117  11.606
20056W        W91672  31.527  18.932   3.388
20057W        W91673  29.022  41.165  10.694
20058W        W91674  34.801   2.283   0.440
20059W        W91675  15.657  15.175  14.967
20060W        W91676   7.844   5.775  13.568
20061W        W91677   3.807  20.991  14.744
20062W        W91678  33.366  19.095   0.847
20063W        W91679  37.530  26.226  14.509
20064W        W91680  12.692  31.061  14.900
20065W        W91681  18.759  41.617   3.543
20066W        W91682  13.331  10.149   0.553
20067W        W91683  38.906   6.261  11.378
20068W        W91684  37.983   1.475   2.339
20069W        W91685  13.654  33.060   0.761
20070W        W91686   1.199   7.251   1.747
20071W        W91687   4.622  30.692   0.427
20072W        W91688  44.786  42.847  10.709
20073W        W91689  26.519  24.960  14.404
20074W        W91690  26.672  34.597  13.449
20075W        W91691   2.055  29.663  14.887
20076W        W91692  34.857   5.467   4.416
20077W        W91693  15.339  13.114  12.440
20078W        W91694  22.884  43.591  11.459
20079W        W91695  32.163  44.207   5.045
20080W        W91696   0.049  36.367  10.694
20081W        W91697  19.248  12.209  12.417
20082W        W91698  33.154   9.344   3.630
20083W        W91699   0.714  32.456  13.355
20084W        W91700  44.567  24.524   4.661
20085W        W91701  43.701   9.893   4.151
20086W        W91702  34.473  17.579   4.061
20087W        W91703   0.225  19.093  10.462
20088W        W91704   6.253  19.165   1.718
20089W        W91705  18.643  33.126   2.329
20090W        W91706  14.343   1.482  11.624
20091W        W91707   0.263  26.993   2.222
20092W        W91708   7.234  15.764   5.147
20093W        W91709  26.034  42.778  10.449
20094W        W91710  25.149   0.770  12.858
20095W        W91711  28.025  15.506   3.445
20096W        W91712  31.410  28.077   1.349
20097W        W91713  13.127  14.554   4.024
20098W        W91714  20.464  37.379   2.729
20099W        W91715  13.322  40.838   3.634
20100W        W91716  40.465  43.262   0.974
20101W        W91717  36.199  30.900   1.039
20102W        W91718  24.203   3.839  12.057
20103W        W91719  39.238  11.758  10.175
20104W        W91720  41.220  29.558  12.843
20105W        W91721  22.758  27.817  10.327
20106W        W91722  25.725  20.590   0.377
20107W        W91723   5.924   0.792  10.922
20108W        W91724   3.224  33.458   2.358
20109W        W91725   2.479  33.550   0.265
20110W        W91726  35.887  23.543   1.000
20111W        W91727  21.349  13.655   3.774
20112W        W91728   5.414  31.145   4.257
20113W        W91729  38.034  35.305  14.121
20114W        W91730  25.635  38.734  11.205
20115W        W91731  38.584   0.502  12.380
20116W        W91732  20.588  23.291   4.770
20117W        W91733  35.015  27.988  14.050
20118W        W91734  28.496  26.450   2.335
20119W        W91735  31.815   5.727  10.488
20120W        W91736  31.053   0.952   1.980
20121W        W91737   0.462  42.433   1.494
20122W        W91738  25.604   0.327   3.193
20123W        W91739   4.104   5.397  14.996
20124W        W91740   8.090  26.559  12.984
20125W        W91741  25.508  24.549   1.177
20126W        W91742  40.693   1.653   2.449
20127W        W91743   4.394  27.650  11.140
20128W        W91744  13.920  12.035  11.037
20129W        W91745  10.864  43.359   4.985
20130W        W91746  14.225   6.354   3.653
20131W        W91747  21.498  12.693  12.622
20132W        W91748  24.662  41.845  11.673
20133W        W91749   9.373  24.657   1.643
20134W        W91750   3.110  43.538  12.185
20135W        W91751  43.343  42.426  12.636
20136W        W91752   3.252   2.507  13.609
20137W        W91753  28.241  41.344   3.679
20138W        W91754  21.231  20.609   2.261
20139W        W91755  35.018  40.326  14.097
20140W        W91756  25.431  38.683   1.975
20141W        W91757  21.046  13.086   3.391
20142W        W91758  27.000  21.472   4.719
20143W        W91759   2.525  20.615   3.912
20144W        W91760  25.650  18.742  14.353
20145W        W91761  35.573   9.771  12.470
20146W        W91762  14.605  24.576  12.160
20147W        W91763   9.687  28.092  13.131
20148W        W91764  10.133  36.098  14.317
20149W        W91765  39.287  32.774   4.094
20150W        W91766  40.517  30.847  11.115
20151W        W91767  40.892  18.567   1.866
20152W        W91768   5.727  20.011  12.556
20153W        W91769  37.645  37.047  11.651
20154W        W91770  40.886  26.946   0.965
20155W        W91771   6.110  38.645   0.178
20156W        W91772   1.369  30.875  14.904
20157W        W91773  42.390  38.539  11.046
20158W        W91774  43.204  13.555  13.092
20159W        W91775  14.462  39.919  14.792
20160W        W91776   9.381  13.619  11.006
20161W        W91777  23.408   4.668  14.272
20162W        W91778  41.822  27.960   0.002
20163W        W91779  12.714  16.034   1.322
20164W        W91780  26.944  13.142   0.871
20165W        W91781   3.292  26.570   1.772
20166W        W91782   4.516  14.928   1.858
20167W        W91783   7.160   3.855   0.684
20168W        W91784  14.201  20.346   0.303
20169W        W91785   3.384   1.178  12.811
20170W        W91786  25.006  38.411   3.259
20171W        W91787   1.444  35.629   0.703
20172W        W91788   3.935  27.691  14.015
20173W        W91789  15.814  22.717   3.015
20174W        W91790  14.828  16.239   5.004
20175W        W91791   5.245  10.423  12.944
20176W        W91792   1.928   6.158   4.132
20177W        W91793  16.071  23.578  10.406
20178W        W91794  21.181  33.167  11.142
20179W        W91795  32.106  42.801   2.658
20180W        W91796  37.082  28.413  10.701
20181W        W91797  35.442  10.236   1.261
20182W        W91798  31.078  36.041   1.346
20183W        W91799  22.114   7.231  13.506
20184W        W91800  18.721  33.312   1.413
20185W        W91801  37.781  28.522  12.731
20186W        W91802  44.040  21.175  13.045
20187W        W91803   5.734   8.279   1.955
20188W        W91804   9.779  24.245  11.236
20189W        W91805  26.068   1.624   4.677
20190W        W91806  16.594  14.572   2.629
20191W        W91807   9.671   6.292   0.830
20192W        W91808  12.622  27.284   2.749
20193W        W91809  22.037  31.155  14.528
20194W        W91810  36.208  38.925  14.265
20195W        W91811  15.332  20.726   0.539
20196W        W91812   6.748   9.792  13.492
20197W        W91813   4.932  25.945   2.796
20198W        W91814   2.421   4.365  11.630
20199W        W91815  44.610  39.499   3.708
20200W        W91816  39.888  42.407   3.222
20201W        W91817  39.079  10.296   3.821
20202W        W91818   1.269  33.308  13.847
20203W        W91819  13.659  26.043   1.882
20204W        W91820  15.704  39.675   3.253
20205W        W91821  15.757  39.050   3.207
20206W        W91822  34.870  16.034   0.472
20207W        W91823  42.941  26.929   4.174
20208W        W91824   2.223  38.299  14.866
20209W        W91825  26.746  13.354   2.114
20210W        W91826   0.444   3.871  11.633
20211W        W91827  44.754  24.661  12.558
20212W        W91828  40.611  40.629   2.453
20213W        W91829  27.561  24.662  13.426
20214W        W91830  16.127   0.905  11.364
20215W        W91831   0.291  18.540  13.051
20216W        W91832  42.561  37.863   3.170
20217W        W91833   5.298  38.867   2.184
20218W        W91834   8.886  29.961   4.059
20219W        W91835  25.221   0.064   2.251
20220W        W91836   4.261  16.201  14.860
20221W        W91837  22.020  40.027   1.230
20222W        W91838  42.578   3.700  13.907
20223W        W91839  22.772   0.721   3.062
20224W        W91840  36.946  14.507   3.418
20225W        W91841  17.773  21.565  11.278
20226W        W91842  41.793  26.785  11.602
20227W        W91843  12.198  21.810   2.346
20228W        W91844  41.263  43.109   3.670
20229W        W91845  10.399  34.599  14.793
20230W        W91846   6.251  36.001   2.990
20231W        W91847  43.394   9.709  10.729
20232W        W91848   6.804   1.462   1.459
20233W        W91849  40.425  10.087   4.980
20234W        W91850  29.445  27.246  13.485
20235W        W91851   5.161   6.157  14.718
20236W        W91852   4.381   6.155   0.499
20237W        W91853  24.969  11.125  13.011
20238W        W91854  20.505   4.191   1.895
20239W        W91855  36.783   5.321   0.846
20240W        W91856   6.957   5.999   2.801
20241W        W91857  30.970  21.102  11.037
20242W        W91858   2.951  43.363  10.280
20243W        W91859  14.688  23.457  11.696
20244W        W91860  19.156  28.831   0.763
20245W        W91861  21.723  37.361   3.299
20246W        W91862   8.331  30.524   0.507
20247W        W91863  43.866  34.202   0.850
20248W        W91864  37.571  25.424   2.270
20249W        W91865  41.280  15.229   2.705
20250W        W91866   5.464   6.401   1.946
20251W        W91867  16.733  18.158   3.296
20252W        W91868  21.630  23.102  13.520
20253W        W91869   9.060  17.866  12.473
20254W        W91870  25.061  22.626   4.075
20255W        W91871  20.607  32.812   2.741
20256W        W91872  38.295  26.127   4.607
20257W        W91873  27.035  42.788   3.261
20258W        W91874  26.331  13.764   4.729
20259W        W91875  18.708  42.707  12.395
20260W        W91876  26.207  44.755   2.728
20261W        W91877  16.826  21.367  13.405
20262W        W91878  19.616  12.609   1.836
20263W        W91879  35.492   9.465   1.796
20264W        W91880  24.945  18.464  10.857
20265W        W91881  15.322  26.058   3.575
20266W        W91882  18.824  14.186  12.892
20267W        W91883  39.344  14.206   3.186
20268W        W91884  11.325  29.356   3.267
20269W        W91885  44.354   3.848   3.287
20270W        W91886  39.430  21.258   1.153
20271W        W91887  21.737   9.357   4.746
20272W        W91888  38.417   7.632  12.640
20273W        W91889  22.586  25.858  14.838
20274W        W91890  24.642  27.085  12.272
20275W        W91891  34.026  14.249   0.876
20276W        W91892  44.449   8.411   2.769
20277W        W91893  37.788  22.817  14.329
20278W        W91894  35.492   9.954  11.981
20279W        W91895   9.210   8.189  12.042
20280W        W91896   4.979  35.013   3.653
20281W        W91897  39.516  32.922   3.204
20282W        W91898  36.645  24.013   2.859
20283W        W91899  18.091  20.715  14.773
20284W        W91900  36.040   1.711  11.027
20285W        W91901   5.703  42.652  11.854
20286W        W91902  22.736  11.069  11.191
20287W        W91903  27.967  20.226   2.211
20288W        W91904   2.572  37.991  11.652
20289W        W91905  44.163  21.747   0.419
20290W        W91906  24.896  19.573  12.891
20291W        W91907  30.412  17.858   0.417
20292W        W91908  28.115  16.310   0.446
20293W        W91909  21.096  42.541   3.667
20294W        W91910  24.507  28.354   1.204
20295W        W91911   2.897  33.645   1.930
20296W        W91912  35.683  14.279  12.839
20297W        W91913  15.833  43.837  14.965
20298W        W91914   7.234  16.490   3.233
20299W        W91915  43.721  29.223  13.903
20300W        W91916  19.356  44.916  14.484
20301W        W91917  19.654  44.510  14.678
20302W        W91918   0.725  17.997   4.040
20303W        W91919  29.493   2.682   1.079
20304W        W91920  25.586  41.437   1.221
20305W        W91921  16.805  34.457   1.235
20306W        W91922  34.794  32.719   0.727
20307W        W91923  43.301  29.175   4.083
20308W        W91924  36.323  40.706  13.976
20309W        W91925   1.039  34.324  14.459
20310W        W91926  12.010  31.513   3.597
20311W        W91927  12.175  44.356   3.702
20312W        W91928  34.846   5.865  14.331
20313W        W91929  12.172  40.337  11.552
20314W        W91930   0.509  36.670   1.715
20315W        W91931  31.633  23.704   4.118
20316W        W91932  30.735  41.525  12.577
20317W        W91933  11.833  25.202  11.620
20318W        W91934   7.899  36.503   0.449
20319W        W91935  40.436  29.111  14.494
20320W        W91936  34.407  41.519  12.610
20321W        W91937  28.691   4.186   2.243
20322W        W91938  11.459  14.689  13.761
20323W        W91939   1.523  11.222   0.298
20324W        W91940  12.645  10.716  13.337
20325W        W91941  10.759  35.830   5.244
20326W        W91942   1.848  33.021  14.993
20327W        W91943  33.961  32.737   2.194
20328W        W91944  12.886  19.082   0.353
20329W        W91945  39.749  11.965   0.518
20330W        W91946  12.308   1.919   2.208
20331W        W91947  29.067   3.373   2.989
20332W        W91948  26.776  10.076   4.662
20333W        W91949  41.359  38.520  12.192
20334W        W91950  14.793  23.898  14.016
20335W        W91951  36.043  44.890   4.048
20336W        W91952   2.978  22.353  10.297
20337W        W91953  33.564  20.179   1.588
20338W        W91954  21.705  25.413  11.944
20339W        W91955   1.336   4.903   3.190
20340W        W91956  39.516  38.920   2.317
20341W        W91957  28.159  29.080   2.428
20342W        W91958  44.181   1.121   4.638
20343W        W91959   1.011   9.926   0.416
20344W        W91960  17.227  35.185   2.730
20345W        W91961  42.544  43.952   0.444
20346W        W91962  28.242  11.422   0.366
20347W        W91963  13.218  40.915   2.627
20348W        W91964   5.817  18.669   4.388
20349W        W91965  26.100  33.123   4.763
20350W        W91966   2.972   3.394  11.614
20351W        W91967  19.081   3.751  10.646
20352W        W91968  14.335  13.981  12.962
20353W        W91969  31.129  20.088   0.265
20354W        W91970  32.488  28.137  10.680
20355W        W91971  14.360  28.409   1.836
20356W        W91972  13.343  12.513  13.484
20357W        W91973  32.978  33.903   2.196
20358W        W91974  10.449  25.223   1.786
20359W        W91975  14.377  42.539  11.885
20360W        W91976  10.982  35.396   1.766
20361W        W91977   5.269  33.701   3.548
20362W        W91978  22.443   2.498  12.080
20363W        W91979  32.978   3.391  11.633
20364W        W91980  19.661  16.833  13.463
20365W        W91981  11.895   6.238   3.301
20366W        W91982   7.747  13.875  10.718
20367W        W91983  11.745  20.802   3.127
20368W        W91984  10.928  35.623   2.999
20369W        W91985  24.103  24.690  13.823
20370W        W91986  36.917  18.504   0.428
20371W        W91987   9.839  13.758  11.240
20372W        W91988  35.928  32.363  12.054
20373W        W91989  39.894   9.824  12.922
20374W        W91990  16.320  10.911  12.218
20375W        W91991   2.951   7.168   3.684
20376W        W91992  15.585  22.479  11.962
20377W        W91993  34.601  25.937  10.768
20378W        W91994  38.274  33.108  13.931
20379W        W91995  39.293  27.526   3.660
20380W        W91996  35.155   3.773  10.480
20381W        W91997  35.772  12.180  12.816
20382W        W91998  44.879  13.744   3.089
20383W        W91999   0.781  14.286   3.692
20384W        W92000   9.429   5.393  11.507
20385W        W92001  14.584  13.958   4.025
20386W        W92002  24.191  16.594   1.726
20387W        W92003  35.602  36.405   0.189
20388W        W92004  36.869   5.046  11.826
20389W        W92005  29.717   9.743  12.478
20390W        W92006  26.891  12.115  10.614
20391W        W92007  42.027  31.549  12.400
20392W        W92008  20.743   5.823   1.968
20393W        W92009  40.130   5.974   4.008
20394W        W92010  16.346  36.067   0.411
20395W        W92011  22.537  14.628   4.167
20396W        W92012  11.719  33.413   4.696
20397W        W92013   1.003   4.915   2.734
20398W        W92014   7.275  22.024  12.805
20399W        W92015  18.929  31.417   4.173
20400W        W92016  23.421   0.771   1.816
20401W        W92017   6.653  21.124  10.584
20402W        W92018   6.641  13.597   1.418
20403W        W92019  32.796  32.004  14.248
20404W        W92020  17.223   2.159  14.385
20405W        W92021  18.283  17.164   2.965
20406W        W92022   0.783  14.103  12.866
20407W        W92023   5.268  13.957   4.811
20408W        W92024  39.377  40.377  11.489
20409W        W92025  12.191  11.197  13.784
20410W        W92026  41.377  29.880  14.529
20411W        W92027  28.631  33.106   2.928
20412W        W92028   2.878   2.774  12.420
20413W        W92029  36.037  30.718   2.009
20414W        W92030  38.380   0.336  14.367
20415W        W92031   4.898  15.611   2.716
20416W        W92032  23.509  24.749   3.964
20417W        W92033   6.228  15.147   0.408
20418W        W92034  28.058  21.013   2.793
20419W        W92035  15.665   3.002   1.916
20420W        W92036  15.547   2.450  14.842
20421W        W92037   6.896  37.313   3.875
20422W        W92038   5.187  20.428   0.183
20423W        W92039   6.304  12.880  14.964
20424W        W92040   9.241  27.441   3.704
20425W        W92041  27.970   5.256   1.467
20426W        W92042  29.681  16.704  11.461
20427W        W92043  37.779  24.224  11.722
20428W        W92044  27.883  30.603   4.572
20429W        W92045  31.999   8.658  11.986
20430W        W92046   2.848  18.293  14.213
20431W        W92047  39.454  18.311   0.263
20432W        W92048  31.560  41.294   3.826
20433W        W92049  41.059  38.855   2.371
20434W        W92050  16.794  43.458   3.167
20435W        W92051  43.509  24.687  13.042
20436W        W92052  16.858  20.450   3.348
20437W        W92053   2.296  28.988   2.129
20438W        W92054   6.359   7.728  13.522
20439W        W92055  31.150  29.643  10.432
20440W        W92056  44.931  40.288   1.104
20441W        W92057  25.420  17.599  10.924
20442W        W92058  14.351  34.720  11.634
20443W        W92059  30.486  35.310  11.657
20444W        W92060  24.784  27.542  12.452
20445W        W92061  10.872  20.311   1.423
20446W        W92062   8.819   8.331   3.376
20447W        W92063  24.032  11.516   5.045
20448W        W92064  14.703  43.647   3.282
20449W        W92065  14.200  32.244  12.462
20450W        W92066  37.303   5.175   3.294
20451W        W92067   0.888  16.809  13.886
20452W        W92068  14.596  30.876  12.592
20453W        W92069  36.986   6.028  14.852
20454W        W92070   5.921   7.977  13.360
20455W        W92071   9.909  23.440   1.687
20456W        W92072  20.130  15.710  14.114
20457W        W92073  13.974  26.540   0.954
20458W        W92074  27.127  12.699  13.477
20459W        W92075  43.418  43.076  12.080
20460W        W92076  20.233  13.377   2.736
20461W        W92077  37.129  33.575   4.985
20462W        W92078  30.421  13.223  12.607
20463W        W92079  10.563  28.965  10.754
20464W        W92080  43.998  21.034  10.628
20465W        W92081   2.964  23.634  12.406
20466W        W92082   6.960  25.152  11.480
20467W        W92083   0.329  29.516   4.928
20468W        W92084   7.457  44.382  12.546
20469W        W92085   0.736   6.741   2.883
20470W        W92086  27.056   4.976   1.243
20471W        W92087  34.466  17.199   4.401
20472W        W92088  30.957  27.014   5.077
20473W        W92089  23.636  28.949  11.561
20474W        W92090  34.007  42.047   4.452
20475W        W92091   8.861  21.711   2.174
20476W        W92092  17.777  16.562   0.970
20477W        W92093  33.974  39.302   1.492
20478W        W92094   7.093  25.311  12.355
20479W        W92095  18.571  13.464  10.716
20480W        W92096  26.486  23.276   3.202
20481W        W92097  26.445  16.610  11.529
20482W        W92098   9.294  13.154  14.895
20483W        W92099  26.426   3.335   3.306
20484W        W92100  22.782  17.741  12.451
20485W        W92101  19.094  41.842   4.210
20486W        W92102  10.330  10.718  11.269
20487W        W92103  41.020  27.213   2.343
20488W        W92104   2.944  26.257  13.204
20489W        W92105  11.356   7.220   1.685
20490W        W92106   9.060   1.849  12.943
20491W        W92107  43.967  20.036   5.184
20492W        W92108  10.640   6.366  10.621
20493W        W92109  17.848  41.305   0.965
20494W        W92110  29.997  34.381  11.587
20495W        W92111  39.023   1.794   3.739
20496W        W92112  42.442  24.583   1.191
20497W        W92113  31.170  36.138  14.874
20498W        W92114  39.014  30.469   3.304
20499W        W92115   3.406  44.895   0.757
20500W        W92116  28.209  41.466   2.822
20501W        W92117  39.744  29.873   3.231
20502W        W92118  27.706   8.304  13.271
20503W        W92119  42.180  27.499   3.703
20504W        W92120  20.677  27.952  13.481
20505W        W92121  27.067   7.445   4.938
20506W        W92122  24.349  30.347   0.779
20507W        W92123  25.552  33.143  10.445
20508W        W92124  28.242  27.562   1.708
20509W        W92125  24.237  42.148   3.431
20510W        W92126  38.874   3.428  11.047
20511W        W92127  37.826  34.397   3.249
20512W        W92128   8.795   1.302  14.985
20513W        W92129  31.666  34.944  11.984
20514W        W92130  34.233  43.517  14.210
20515W        W92131   2.796   6.878  11.104
20516W        W92132  43.293  24.016  14.874
20517W        W92133   8.058  29.014  13.479
20518W        W92134  25.625  11.208   2.763
20519W        W92135  25.086  17.503   4.603
20520W        W92136  18.145   8.769   3.727
20521W        W92137  42.259   4.764   1.722
20522W        W92138  15.059   3.721   0.376
20523W        W92139  42.517  31.616  12.244
20524W        W92140  16.285  25.734   0.775
20525W        W92141  36.232  27.162  14.393
20526W        W92142  28.396   5.016  12.975
20527W        W92143  12.855  41.012  11.217
20528W        W92144  43.442  32.358   4.846
20529W        W92145  12.674  32.805   0.764
20530W        W92146  40.232  35.422   0.905
20531W        W92147  28.783  25.117  11.091
20532W        W92148  34.938  19.374  13.038
20533W        W92149  33.996  33.936   4.679
20534W        W92150  35.392  13.214  14.405
20535W        W92151  18.236  14.112   3.638
20536W        W92152  33.838   8.251   0.058
20537W        W92153  29.963   5.488  10.801
20538W        W92154  16.216  33.653  14.447
20539W        W92155  42.092  21.995  14.854
20540W        W92156  12.795  15.537   1.417
20541W        W92157  32.603   3.041  13.448
20542W        W92158   6.386  12.887   2.743
20543W        W92159  20.988  19.183   3.268
20544W        W92160  30.879  13.114   3.941
20545W        W92161  44.307  40.310   4.653
20546W        W92162   8.798  43.893  14.252
20547W        W92163  31.792  12.320  14.428
20548W        W92164   8.129  21.766  14.790
20549W        W92165  29.855  34.296   1.266
20550W        W92166  19.650  28.886  11.294
20551W        W92167  33.479  43.873  13.833
20552W        W92168   4.189  38.907  10.678
20553W        W92169  36.452  37.712  11.144
20554W        W92170  40.424  33.581  13.493
20555W        W92171  29.156  17.804   3.382
20556W        W92172   4.691  43.299  13.456
20557W        W92173  10.744  30.888   1.039
20558W        W92174   0.157   5.665   0.294
20559W        W92175   5.895  32.300   3.739
20560W        W92176  33.605   3.255   4.626
20561W        W92177  32.462  32.764  11.188
20562W        W92178  22.549   8.055   0.963
20563W        W92179  37.562  30.314   4.255
20564W        W92180  11.829  29.597   3.330
20565W        W92181  36.318  20.189   3.506
20566W        W92182  25.958  23.888  11.043
20567W        W92183  31.460  12.369  13.285
20568W        W92184  43.213  11.328  12.592
20569W        W92185  17.639  15.868   0.319
20570W        W92186  31.079  22.305  11.959
20571W        W92187  24.323   2.277  11.532
20572W        W92188  27.963   2.671   0.217
20573W        W92189  28.538   5.490  13.006
20574W        W92190   8.482  29.165   2.249
20575W        W92191  35.072   5.506  11.318
20576W        W92192  40.989  27.441   1.870
20577W        W92193   7.816  30.160  10.469
20578W        W92194  10.760  28.677  14.375
20579W        W92195  13.584  29.008   4.215
20580W        W92196   4.718   5.896  14.626
20581W        W92197  20.498  14.649  12.084
20582W        W92198   6.802  25.115   4.611
20583W        W92199   0.947  42.198   4.568
20584W        W92200  39.590  12.195  14.991
20585W        W92201  21.793  44.365   1.717
20586W        W92202  41.439   7.282  11.406
20587W        W92203   7.401   2.282  10.804
20588W        W92204   0.768  36.613   0.398
20589W        W92205   4.341  28.030   0.589
20590W        W92206  10.266   5.332   4.649
20591W        W92207  24.030  31.401   4.528
20592W        W92208  12.089  14.114  14.960
20593W        W92209   9.664   2.540   1.143
20594W        W92210  42.944   7.883  12.462
20595W        W92211  29.425  25.557  13.963
20596W        W92212  16.336  30.518  13.391
20597W        W92213  25.163  23.801  14.838
20598W        W92214   1.870   0.690  10.189
20599W        W92215  11.053  38.516   2.752
20600W        W92216  18.495  32.527  12.906
20601W        W92217  36.530  39.584  10.735
20602W        W92218  43.376  39.284   0.347
20603W        W92219  25.562  42.498   2.644
20604W        W92220  40.134   0.227  11.447
20605W        W92221   3.454  25.519  12.852
20606W        W92222  23.683  19.728  12.468
20607W        W92223   6.648  26.921   2.181
20608W        W92224  39.260  37.545   3.234
20609W        W92225  16.810  16.866  13.041
20610W        W92226  11.250   5.717   1.929
20611W        W92227   0.300  25.767   0.348
20612W        W92228  44.361  33.965  13.854
20613W        W92229   9.783  23.517  11.562
20614W        W92230  41.478   6.439  13.932
20615W        W92231  37.091  44.100  11.034
20616W        W92232  24.101   5.371  11.028
20617W        W92233  43.318  39.576   1.275
20618W        W92234   9.776  21.149  14.392
20619W        W92235  20.090  17.589  11.848
20620W        W92236  31.972  18.747  12.445
20621W        W92237  35.455  14.338  11.118
20622W        W92238   4.332  29.874   4.180
20623W        W92239  43.986  42.284  11.577
20624W        W92240  34.081  26.003  10.689
20625W        W92241  32.753   9.840  11.349
20626W        W92242   1.226  20.146  10.745
20627W        W92243  38.730  38.597  10.313
20628W        W92244  10.682   4.820   1.313
20629W        W92245  14.277  27.899   1.944
20630W        W92246  24.728  42.778  13.951
20631W        W92247  37.296  13.942   5.113
20632W        W92248  18.247  25.053  14.504
20633W        W92249  23.302   1.866   4.165
20634W        W92250  42.761  29.630  11.852
20635W        W92251  32.189  11.577  13.535
20636W        W92252  30.902   7.358   2.093
20637W        W92253  17.237  11.650   2.340
20638W        W92254  38.618  43.297   0.966
20639W        W92255  34.781   6.789  14.517
20640W        W92256  20.685  22.618  11.106
20641W        W92257  24.387  41.880   2.411
20642W        W92258  18.362  17.768  11.721
20643W        W92259  11.766   3.724   0.949
20644W        W92260  18.172  35.603   4.370
20645W        W92261  12.483  21.629   1.723
20646W        W92262  19.555  14.700   0.309
20647W        W92263   8.964  34.422  12.032
20648W        W92264  13.678   5.806   1.326
20649W        W92265   8.803   5.444   4.394
20650W        W92266  37.236  23.087  12.172
20651W        W92267  30.929  29.637   4.925
20652W        W92268   3.692  28.149   4.218
20653W        W92269  39.313  31.847   1.769
20654W        W92270   2.322  19.107  11.942
20655W        W92271  38.976  12.084  13.403
20656W        W92272  22.808  10.614  12.110
20657W        W92273  22.754   1.853   4.980
20658W        W92274  25.524  44.943   3.535
20659W        W92275  38.434  15.077  13.949
20660W        W92276  16.489  35.445  10.723
20661W        W92277  24.039  19.104  13.246
20662W        W92278  40.359  24.076   0.272
20663W        W92279   9.484   4.940   4.043
20664W        W92280  12.576  21.439  11.070
20665W        W92281  21.377  29.632   4.072
20666W        W92282  39.484   4.006   0.853
20667W        W92283  23.082   9.733   3.279
20668W        W92284  13.788  38.900  11.190
20669W        W92285   0.017  34.854  12.113
20670W        W92286  12.346  23.037   1.202
20671W        W92287  19.672  44.818  10.452
20672W        W92288  34.477  33.269   1.297
20673W        W92289  21.214  38.275  11.861
20674W        W92290  43.061  43.857   0.313
20675W        W92291  25.254  29.869   4.178
20676W        W92292  25.069   4.849  12.876
20677W        W92293  43.056  33.438  13.917
20678W        W92294  39.274  17.257  11.100
20679W        W92295  13.999  19.253  12.453
20680W        W92296  12.184  44.913  14.508
20681W        W92297  27.051  19.807   0.758
20682W        W92298  11.864  18.871   3.787
20683W        W92299  14.091  36.120   0.037
20684W        W92300  18.189  31.895   3.944
20685W        W92301   5.154  38.620  12.989
20686W        W92302   4.825  31.076   2.042
20687W        W92303  39.043   5.443  13.319
20688W        W92304   0.701  11.702  13.951
20689W        W92305  12.747  40.589   2.694
20690W        W92306  34.556  16.623  14.683
20691W        W92307  26.088  19.124  11.970
20692W        W92308   5.764   5.566  13.442
20693W        W92309  17.536  43.815  11.355
20694W        W92310  35.042  21.075  13.587
20695W        W92311  42.108  21.215   0.793
20696W        W92312  40.528  35.547   3.335
20697W        W92313   1.454   9.275   1.285
20698W        W92314  16.259   7.279  12.387
20699W        W92315  12.814  28.534   4.420
20700W        W92316  38.558  23.591   2.415
20701W        W92317   8.285   1.993   0.984
20702W        W92318  35.315  13.098   1.477
20703W        W92319  28.545   5.100  10.327
20704W        W92320  24.909  28.925  13.560
20705W        W92321   3.957  43.273   1.328
20706W        W92322   9.895   3.526   3.370
20707W        W92323  19.020  34.883  11.915
20708W        W92324  24.576   8.456  11.962
20709W        W92325  40.598  30.167   0.713
20710W        W92326  38.026  39.805  11.813
20711W        W92327  41.470  15.001   2.274
20712W        W92328  31.310  27.763  14.575
20713W        W92329  35.386   4.183  10.713
20714W        W92330  25.742   9.184   2.148
20715W        W92331  37.012  16.072  11.215
20716W        W92332  20.173  29.469   2.738
20717W        W92333  39.846  19.181   3.216
20718W        W92334  19.185  14.553  14.820
20719W        W92335  36.530   6.608  13.988
20720W        W92336   7.864  43.585  12.816
20721W        W92337  33.556  21.005  13.878
20722W        W92338  15.218  41.400  14.919
20723W        W92339   5.251  26.556   1.320
20724W        W92340  26.004  20.350  12.757
20725W        W92341  11.220  13.652   1.337
20726W        W92342  14.833  15.742   9.735
20727W        W92343  10.743  15.321   2.763
20728W        W92344  40.490  33.149   3.065
20729W        W92345  18.049  42.473  11.625
20730W        W92346  33.313  28.481  11.197
20731W        W92347  37.045  18.692  10.623
20732W        W92348  26.033  43.323  11.829
20733W        W92349   1.895   8.166  13.533
20734W        W92350  27.413  27.392  11.997
20735W        W92351   8.759  22.120   0.476
20736W        W92352  21.483   6.333  11.894
20737W        W92353  33.554   4.891  13.788
20738W        W92354   2.703  12.563  10.417
20739W        W92355  13.423   4.233  13.777
20740W        W92356  23.909   2.324  10.533
20741W        W92357  24.521  35.934  12.683
20742W        W92358   4.263   0.971  13.262
20743W        W92359  22.313  14.154   1.508
20744W        W92360   8.803  36.334  10.791
20745W        W92361  34.402  24.498   3.246
20746W        W92362   7.885  30.113  14.863
20747W        W92363  43.423  34.871   3.129
20748W        W92364   2.774   0.013  11.098
20749W        W92365  40.642  36.397  11.988
20750W        W92366  12.096   5.166  13.904
20751W        W92367  19.689  38.195  11.959
20752W        W92368  26.637  39.602   4.551
20753W        W92369  27.561   5.941   2.182
20754W        W92370  13.283   7.309   0.893
20755W        W92371  44.885  42.050   0.946
20756W        W92372   9.828  21.477  10.634
20757W        W92373  19.127  34.788  14.102
20758W        W92374  31.402  25.176  10.664
20759W        W92375  38.353  10.165   4.504
20760W        W92376  43.429  36.538   1.748
20761W        W92377  11.190   5.493   4.520
20762W        W92378  29.135  17.813  12.425
20763W        W92379  13.573  33.999  14.730
20764W        W92380   3.442  23.713  14.883
20765W        W92381  38.242  38.411   2.059
20766W        W92382  41.272  20.759   4.241
20767W        W92383  18.548  28.746   4.922
20768W        W92384  13.129  26.970  10.411
20769W        W92385   6.907  25.987  13.079
20770W        W92386  24.091  12.322   0.378
20771W        W92387  25.028  34.309  11.531
20772W        W92388  40.816  43.692  11.123
20773W        W92389  38.010   6.010  14.865
20774W        W92390  29.749  11.119   1.865
20775W        W92391  21.757  38.605  12.550
20776W        W92392  15.086  21.068  11.439
20777W        W92393  19.170   7.455   4.530
20778W        W92394   9.701  44.064   4.783
20779W        W92395  35.108  37.078  12.450
20780W        W92396  21.033  22.531   3.142
20781W        W92397  23.488  43.323  13.177
20782W        W92398   9.200   1.892  13.432
20783W        W92399  13.116  43.528  11.218
20784W        W92400  10.316  22.175  10.418
20785W        W92401  39.188  18.540   4.967
20786W        W92402  18.517  42.457  10.700
20787W        W92403  34.366  30.106  13.833
20788W        W92404  19.439  32.368  13.835
20789W        W92405  36.467   6.139  10.728
20790W        W92406   4.383  42.709   2.235
20791W        W92407  15.874   0.471  12.574
20792W        W92408  25.505  43.389   2.718
20793W        W92409   6.494  27.588  14.029
20794W        W92410   0.837  16.981  13.392
20795W        W92411  28.644  42.815  14.001
20796W        W92412  33.594   2.260   2.691
20797W        W92413  11.289   6.886  13.868
20798W        W92414  38.767   8.752   1.919
20799W        W92415  38.193  30.399  13.764
20800W        W92416   7.910  44.856   4.153
20801W        W92417  11.787  36.605  12.616
20802W        W92418  37.459  10.591  13.475
20803W        W92419  15.863   9.813  11.553
20804W        W92420  16.219  30.491  10.721
20805W        W92421  42.843  41.051   1.390
20806W        W92422  44.352  21.757   3.296
20807W        W92423  25.664  17.691   0.704
20808W        W92424   7.895  21.269   1.870
20809W        W92425  28.565  37.293  13.218
20810W        W92426  10.759  10.673  10.981
20811W        W92427  26.914  20.979  14.955
20812W        W92428  40.575  36.602  10.432
20813W        W92429  42.419  19.353  11.817
20814W        W92430  20.208  23.622   2.321
20815W        W92431   8.981   8.711   3.681
20816W        W92432   3.753  22.029  13.387
20817W        W92433  19.351  38.386   2.785
20818W        W92434   0.691  40.398   0.871
20819W        W92435  21.684  36.395  13.557
20820W        W92436  14.289  39.780   2.657
20821W        W92437  36.987   9.343   1.484
20822W        W92438  32.188  25.711  12.242
20823W        W92439  38.878  30.798  13.416
20824W        W92440  29.286  30.564   4.210
20825W        W92441  44.291  21.620  12.966
20826W        W92442  43.532  31.194   3.238
20827W        W92443  28.174  38.460   2.162
20828W        W92444  20.526  33.965  13.396
20829W        W92445  10.727  37.403   1.281
20830W        W92446  14.630  31.545  11.214
20831W        W92447  41.579   2.077   2.668
20832W        W92448  41.057  35.328   3.310
20833W        W92449  32.260  37.544   2.888
20834W        W92450  15.140   4.514  11.534
20835W        W92451  17.036   4.666  12.096
20836W        W92452  29.217  39.748  13.785
20837W        W92453  32.057  43.834  11.232
20838W        W92454  39.894  44.368  11.514
20839W        W92455  28.561  15.283   1.067
20840W        W92456  40.884   2.420  12.423
20841W        W92457   4.237  14.436   0.895
20842W        W92458  32.595  25.489  12.435
20843W        W92459  13.704  20.251  13.523
20844W        W92460  33.909   4.168   4.505
20845W        W92461  27.336   8.796   1.376
20846W        W92462  44.976  12.053   3.794
20847W        W92463  38.059  31.344  11.661
20848W        W92464  31.430   9.089  13.764
20849W        W92465  16.532  31.448   0.479
20850W        W92466  42.826  10.401   4.510
20851W        W92467   1.330  31.235   1.940
20852W        W92468  23.229  44.920   3.043
20853W        W92469  25.967   5.183   4.143
20854W        W92470  12.239  22.529   4.597
20855W        W92471  20.205  39.828   1.405
20856W        W92472   1.708  31.561   3.857
20857W        W92473  21.181  34.637   4.527
20858W        W92474  13.943  43.546  14.847
20859W        W92475  28.061  18.961  14.062
20860W        W92476  12.936   9.030  11.243
20861W        W92477  26.615  24.789  12.695
20862W        W92478  33.607   8.710   0.074
20863W        W92479  38.026  13.306  13.345
20864W        W92480  38.749  40.805  11.034
20865W        W92481  26.117  13.811  14.454
20866W        W92482   5.710  23.728   0.707
20867W        W92483  28.786  31.520  14.301
20868W        W92484  36.108  13.045  11.202
20869W        W92485   7.661  22.495   2.830
20870W        W92486  29.496  14.088   0.877
20871W        W92487  29.049  30.458   3.740
20872W        W92488   5.110  16.604  12.901
20873W        W92489   5.300  26.627  12.295
20874W        W92490  19.054  10.739  13.465
20875W        W92491   9.314  39.414  12.845
20876W        W92492  28.331   3.450   4.138
20877W        W92493   6.347  34.929  13.075
20878W        W92494   2.991  32.176   3.784
20879W        W92495  31.221  39.910   2.139
20880W        W92496  32.052   6.535   3.956
20881W        W92497  44.841  22.548   2.486
20882W        W92498  37.863  39.902  10.825
20883W        W92499  38.783  24.106   2.195
20884W        W92500  30.364  24.327  13.207
20885W        W92501  42.274   0.864  13.440
20886W        W92502  39.335  27.056  10.691
20887W        W92503   0.737   1.845  11.330
20888W        W92504  33.535  30.691  11.989
20889W        W92505  44.527  36.131  13.326
20890W        W92506   2.620   0.842  14.202
20891W        W92507  29.234  31.738   9.871
20892W        W92508  12.617  31.605  13.318
20893W        W92509  11.222   3.883   3.259
20894W        W92510   3.939  22.918   1.720
20895W        W92511   2.100   8.373   0.388
20896W        W92512  17.422  27.431   3.044
20897W        W92513  43.715  28.985   2.670
20898W        W92514  28.449  28.162  13.622
20899W        W92515  34.050  16.409   2.360
20900W        W92516  14.761  24.340  13.300
20901W        W92517  12.082  31.711   0.090
20902W        W92518  42.988   3.870   3.871
20903W        W92519  14.307   7.353   0.878
20904W        W92520  17.336  31.575   0.348
20905W        W92521  33.758  29.637  14.803
20906W        W92522  32.631   9.261  11.985
20907W        W92523  42.284   8.348   4.149
20908W        W92524  15.601  30.918   2.026
20909W        W92525   9.231  29.161  11.659
20910W        W92526   0.092  17.784  14.210
20911W        W92527  35.171  24.210   2.322
20912W        W92528  16.624  41.979  10.806
20913W        W92529  32.886  38.765   1.466
20914W        W92530  16.694   1.253  10.862
20915W        W92531  43.801  16.155  14.053
20916W        W92532  31.001  21.556  13.359
20917W        W92533  38.105  14.155   4.600
20918W        W92534  11.271  16.062   2.251
20919W        W92535  11.348  11.241   1.371
20920W        W92536   5.254  36.428   3.290
20921W        W92537  21.550   1.177   4.089
20922W        W92538   0.344  18.137   4.356
20923W        W92539   2.217  23.590  12.993
20924W        W92540  27.212  16.564   3.734
20925W        W92541  14.294  19.615  11.651
20926W        W92542   0.283  22.696  14.520
20927W        W92543  30.466  17.247  14.786
20928W        W92544  40.016  23.229   2.709
20929W        W92545  10.920  20.922   3.064
20930W        W92546  26.003  26.523  10.558
20931W        W92547  20.005  11.013   1.579
20932W        W92548  41.073  39.390   0.469
20933W        W92549  13.196  15.067  11.890
20934W        W92550   6.238   4.529  11.190
20935W        W92551  12.740  18.837   2.214
20936W        W92552  12.512  44.011   2.326
20937W        W92553  15.836  26.040   0.881
20938W        W92554  27.196  13.618  14.314
20939W        W92555  30.567  29.074  11.399
20940W        W92556  43.956  26.460   2.474
20941W        W92557   6.458   2.429   1.176
20942W        W92558  22.649  39.913  14.255
20943W        W92559  21.203  38.129   1.020
20944W        W92560  20.908  15.572   4.659
20945W        W92561  15.176   4.651   3.236
20946W        W92562  18.391  33.143   3.263
20947W        W92563   7.370  44.970  13.844
20948W        W92564  18.428   5.163   2.728
20949W        W92565  29.652  32.081   4.174
20950W        W92566  36.467  39.763   4.104
20951W        W92567  22.062  30.906  13.764
20952W        W92568  28.042  13.724   1.682
20953W        W92569  41.607  26.560   2.674
20954W        W92570  33.936  37.675  11.137
20955W        W92571  15.859  40.322   0.951
20956W        W92572  21.090   9.950  12.150
20957W        W92573  22.291  37.024   1.331
20958W        W92574  34.163  23.496   3.342
20959W        W92575  22.507  43.970   2.740
20960W        W92576   1.289  25.997  12.280
20961W        W92577  39.293  30.711  13.097
20962W        W92578  27.440   6.183   3.728
20963W        W92579  39.309  35.469  11.507
20964W        W92580  32.201  27.618  10.316
20965W        W92581   2.622  29.006   1.248
20966W        W92582  37.860  34.335  13.737
20967W        W92583  29.342  29.017  14.445
20968W        W92584  21.032  44.072  11.913
20969W        W92585   5.929  16.810  12.544
20970W        W92586  19.784   6.710  11.199
20971W        W92587   0.824  42.655  12.481
20972W        W92588  15.894  15.170  10.252
20973W        W92589  27.954  33.025  11.998
20974W        W92590  13.116  29.535   3.107
20975W        W92591  13.063   3.022   0.900
20976W        W92592  16.497  30.728   4.358
20977W        W92593  16.542  21.665  14.075
20978W        W92594  35.868  40.952  13.964
20979W        W92595  36.079   1.336  14.753
20980W        W92596  23.964  44.021  13.863
20981W        W92597   8.559  27.425   1.793
20982W        W92598  28.521  17.907   3.085
20983W        W92599  38.959  15.309  12.930
20984W        W92600  12.218   6.408   0.912
20985W        W92601   1.175  24.110  12.482
20986W        W92602  44.452  33.631   5.054
20987W        W92603   7.848  11.590   1.278
20988W        W92604  15.902  32.111   0.343
20989W        W92605  43.704  41.326  10.692
20990W        W92606   6.263  35.324  11.117
20991W        W92607  16.243  41.069   0.599
20992W        W92608  16.071   4.525   2.869
20993W        W92609  35.508  24.960   1.674
20994W        W92610  22.744  37.343   2.227
20995W        W92611  27.413  44.580   1.735
20996W        W92612  27.898  10.278  11.078
20997W        W92613  30.016  19.481  11.956
20998W        W92614  39.752  32.723  13.267
20999W        W92615   3.802   1.451  13.012
21000W        W92616  37.761   8.129   3.672
21001W        W92617   6.964   7.202   4.677
21002W        W92618  19.056  39.811  14.346
21003W        W92619   0.544   3.160   3.249
21004W        W92620  12.230   9.168   2.499
21005W        W92621  35.922  28.528   3.396
21006W        W92622   5.796  26.006  13.862
21007W        W92623  11.133  12.135  14.717
21008W        W92624  27.193  29.175  12.710
21009W        W92625  30.135  14.145   2.612
21010W        W92626  20.657  16.270   0.298
21011W        W92627  21.316  14.830   0.862
21012W        W92628  35.472  14.852  11.114
21013W        W92629  20.698  17.142  13.763
21014W        W92630  24.433  40.887  14.309
21015W        W92631  31.449  37.773  13.896
21016W        W92632   9.842   3.947   1.140
21017W        W92633   2.713  27.878   0.769
21018W        W92634  44.966  36.031   2.303
21019W        W92635  20.850  38.954  14.516
21020W        W92636   0.501  25.202   1.177
21021W        W92637  41.405  32.845   1.204
21022W        W92638  28.109  29.021   0.907
21023W        W92639  13.385   9.505  14.961
21024W        W92640  31.241  28.932   4.812
21025W        W92641  38.237  14.026  10.218
21026W        W92642  31.861  28.643  10.204
21027W        W92643   7.172   5.268  14.863
21028W        W92644   2.734  34.868   3.046
21029W        W92645  11.729  27.480  10.569
21030W        W92646   7.137  32.637  13.093
21031W        W92647  29.095   2.938  13.369
21032W        W92648  20.832  15.355  12.031
21033W        W92649  33.109  32.058  12.503
21034W        W92650   9.888  36.838   1.346
21035W        W92651  39.912  32.309  13.541
21036W        W92652  39.980  11.626   1.222
21037W        W92653   4.230  39.087   2.518
21038W        W92654  25.483   9.135   4.752
21039W        W92655   0.325   0.260   3.247
21040W        W92656  36.275   8.613   3.680
21041W        W92657  42.852  15.893   0.937
21042W        W92658  17.745   8.018   2.241
21043W        W92659  37.012  39.972   0.771
21044W        W92660  36.992  21.110   3.220
21045W        W92661  42.603  34.002   1.901
21046W        W92662  24.654  22.296  14.712
21047W        W92663   4.948   3.479  12.776
21048W        W92664  44.012   4.995   2.912
21049W        W92665  38.821   3.725  12.368
21050W        W92666  10.133  42.758  13.449
21051W        W92667  20.546   4.869  10.688
21052W        W92668  41.323  22.996  11.098
21053W        W92669   4.074  38.309   2.418
21054W        W92670   3.715   1.396   0.036
21055W        W92671  25.667  31.912  12.724
21056W        W92672  39.608  24.412   2.281
21057W        W92673  10.592  41.975   2.920
21058W        W92674  24.482   7.135  12.526
21059W        W92675  18.623   4.259  14.206
21060W        W92676  31.578  31.812   1.274
21061W        W92677  19.845  29.808  11.148
21062W        W92678   0.418  41.330  12.288
21063W        W92679   0.256   9.257  12.539
21064W        W92680  26.524   6.035   4.211
21065W        W92681  26.700  24.660   4.322
21066W        W92682  17.667  15.027   2.704
21067W        W92683  31.263  36.631  14.751
21068W        W92684  30.945   5.743  13.852
21069W        W92685  39.284  32.541  13.438
21070W        W92686   1.296  19.523  11.982
21071W        W92687  37.465  17.052  10.479
21072W        W92688  38.486  37.018  14.394
21073W        W92689   2.718  15.536  11.573
21074W        W92690  38.917   2.475   1.283
21075W        W92691  24.085  26.974   3.738
21076W        W92692  40.622  19.479  12.512
21077W        W92693  21.793  10.647  14.360
21078W        W92694   5.969   5.716   3.747
21079W        W92695  16.222  11.801   0.841
21080W        W92696  32.149  11.361  13.074
21081W        W92697  15.303   8.338  14.684
21082W        W92698   7.797  32.067   2.711
21083W        W92699  19.520  14.872   2.627
21084W        W92700   7.639   1.962   2.510
21085W        W92701  13.857  17.545   2.626
21086W        W92702  15.185  17.787  13.293
21087W        W92703  22.463  34.918   5.162
21088W        W92704  26.117  30.667   4.633
21089W        W92705  13.024  28.160  14.295
21090W        W92706  27.264  36.439   4.125
21091W        W92707  20.525  10.654   0.896
21092W        W92708  38.150   8.876   4.097
21093W        W92709  43.833   0.729  13.353
21094W        W92710  19.233  30.081   2.382
21095W        W92711   8.755   9.176   4.071
21096W        W92712  20.594  42.817  11.145
21097W        W92713  36.363   7.619  13.038
21098W        W92714  21.722  36.259  12.570
21099W        W92715  14.888   6.834   3.672
21100W        W92716  39.922   7.644   2.384
21101W        W92717  15.002  27.991  11.236
21102W        W92718  39.251   5.352  10.503
21103W        W92719  37.427  23.674  14.938
21104W        W92720  17.331   0.373   2.848
21105W        W92721  27.732  15.291  12.916
21106W        W92722   7.112  14.322   2.864
21107W        W92723  14.767   2.928  10.675
21108W        W92724  26.570  35.555   0.084
21109W        W92725  35.459  40.338  14.408
21110W        W92726  14.805  36.885   3.629
21111W        W92727  22.644  43.327  12.861
21112W        W92728   8.281  39.537   4.730
21113W        W92729  44.266   2.952  12.910
21114W        W92730  34.420  30.717  10.749
21115W        W92731   5.679  44.832  13.321
21116W        W92732  23.630  21.554  13.942
21117W        W92733   8.784  25.680  12.226
21118W        W92734  13.461   6.302  10.240
21119W        W92735  41.422  35.355  14.065
21120W        W92736  24.495  35.451   1.589
21121W        W92737  31.417  44.450   9.611
21122W        W92738  12.260  26.403  11.120
21123W        W92739  29.167  33.975  12.493
21124W        W92740   7.813  41.386   0.479
21125W        W92741  43.521  22.214   3.318
21126W        W92742  28.950  10.658   0.065
21127W        W92743  44.844  43.894  11.348
21128W        W92744  18.260  17.854   3.732
21129W        W92745  42.179  14.960   3.717
21130W        W92746  42.807  20.250  11.214
21131W        W92747  15.117  34.918   0.794
21132W        W92748  36.380  44.750   2.669
21133W        W92749  26.554  14.745   3.585
21134W        W92750  15.746  41.310   2.145
21135W        W92751  11.223  20.519  12.108
21136W        W92752  32.133  21.782  11.114
21137W        W92753  19.551  31.034   0.060
21138W        W92754  15.784  26.560   4.104
21139W        W92755   8.345  42.716  14.373
21140W        W92756  38.901  40.293   0.943
21141W        W92757   5.991  14.163   3.846
21142W        W92758  25.510  39.277  12.042
21143W        W92759  16.521   3.498  12.715
21144W        W92760  38.647   8.955   3.937
21145W        W92761  35.539   4.823   1.214
21146W        W92762  17.806  31.931  11.202
21147W        W92763  29.542  39.540   0.733
21148W        W92764  36.658  33.621  12.932
21149W        W92765  34.881  27.642   3.054
21150W        W92766  24.396   2.413  10.670
21151W        W92767  34.192  39.297   1.977
21152W        W92768  28.999  15.593   4.539
21153W        W92769   3.728  19.542   2.349
21154W        W92770   4.749   2.516   1.325
21155W        W92771   3.201  22.288  12.504
21156W        W92772  43.210  33.709   2.644
21157W        W92773  24.029  32.538   3.619
21158W        W92774  44.639  41.300  14.153
21159W        W92775  32.955   2.484  11.790
21160W        W92776  10.728  44.443  11.002
21161W        W92777  28.774  14.819  10.225
21162W        W92778  33.650  14.755   3.352
21163W        W92779  19.260  39.354  11.050
21164W        W92780   9.418  44.810  11.868
21165W        W92781  18.865  41.962   1.769
21166W        W92782   6.438   5.941   3.682
21167W        W92783   1.834   6.923  11.244
21168W        W92784  38.752   5.266  12.914
21169W        W92785  12.287  21.571  14.891
21170W        W92786  22.611   9.272   1.887
21171W        W92787  38.385  28.011  11.856
21172W        W92788  12.593  23.120   3.189
21173W        W92789  19.265  42.517   1.430
21174W        W92790  17.975  12.109   0.446
21175W        W92791  25.618  16.848   0.233
21176W        W92792  28.181  38.912   1.786
21177W        W92793  27.383  42.142  13.831
21178W        W92794  43.606  14.246  11.275
21179W        W92795  27.552  37.274  14.067
21180W        W92796  37.906   0.931  11.670
21181W        W92797  37.802  30.314  12.883
21182W        W92798  10.250  30.641  13.975
21183W        W92799  27.435  44.083   1.827
21184W        W92800  18.068   2.243   0.009
21185W        W92801  38.175  23.194  12.522
21186W        W92802  14.643  17.684   1.758
21187W        W92803  37.384  41.330   4.668
21188W        W92804   2.861  10.944  12.390
21189W        W92805  36.506  25.318  14.262
21190W        W92806  18.720  35.326  12.992
21191W        W92807  18.257   0.774   4.884
21192W        W92808  18.909   4.464  13.283
21193W        W92809  19.314   5.913   4.563
21194W        W92810  30.405  39.496  13.310
21195W        W92811  44.399   9.375   3.565
21196W        W92812  28.662  33.434   4.194
21197W        W92813  15.284   8.673  12.110
21198W        W92814  10.732  18.126  10.808
21199W        W92815  21.068  19.764   1.249
21200W        W92816  22.767  20.448   1.154
21201W        W92817  12.691  18.386  11.072
21202W        W92818  23.767  30.918   0.852
21203W        W92819   4.611  41.373   4.151
21204W        W92820  15.828  33.871  10.558
21205W        W92821  26.016  37.797   0.329
21206W        W92822   8.723  41.372   3.594
21207W        W92823  42.068  44.516   3.749
21208W        W92824   1.900  10.795   4.633
21209W        W92825   1.479  34.614  14.485
21210W        W92826  27.549  28.125  14.230
21211W        W92827  12.599  29.506   2.875
21212W        W92828  33.967  33.961   3.677
21213W        W92829  14.553  23.573   4.603
21214W        W92830  25.098  22.868   1.287
21215W        W92831  24.183  14.622   2.248
21216W        W92832  13.288  16.947  11.875
21217W        W92833  13.826  21.635  11.435
21218W        W92834  39.435  32.590   2.304
21219W        W92835  11.727   7.132  13.615
21220W        W92836  38.403  39.956   0.899
21221W        W92837  12.764  23.737   2.426
21222W        W92838   8.473  40.732   1.730
21223W        W92839  34.348  11.024   1.489
21224W        W92840   2.276  22.122   5.639
21225W        W92841  13.763   3.708   1.870
21226W        W92842  32.846  12.780   3.078
21227W        W92843  11.818  14.883   0.927
21228W        W92844  30.846   5.297  14.139
21229W        W92845   8.385  28.896  13.869
21230W        W92846   7.782   6.247   3.345
21231W        W92847  36.004  24.068   4.672
21232W        W92848  11.127  32.068   4.599
21233W        W92849  32.200  11.759   4.368
21234W        W92850   3.228  39.830   1.351
21235W        W92851  23.870  35.160   2.932
21236W        W92852  10.479  33.696   0.934
21237W        W92853   7.149  10.599   2.945
21238W        W92854  22.135  37.905   0.806
21239W        W92855  32.342  28.444  10.262
21240W        W92856   5.802  42.631   4.986
21241W        W92857  12.151  35.443   3.762
21242W        W92858  33.626  35.289  14.237
21243W        W92859   6.148   9.211   1.673
21244W        W92860   8.932  44.864   4.123
21245W        W92861  33.229  33.583   3.758
21246W        W92862   5.308   2.208   2.785
21247W        W92863  29.971  38.622  14.981
21248W        W92864  13.181   0.054  11.392
21249W        W92865  29.115  29.654   5.456
21250W        W92866   4.998  21.467   1.674
21251W        W92867  40.762  10.675   2.875
21252W        W92868  40.178  15.855   4.107
21253W        W92869   9.658   7.649   0.813
21254W        W92870  35.881  27.050  11.537
21255W        W92871  23.026   6.497  14.104
21256W        W92872  35.359  15.348  11.137
21257W        W92873  34.440   2.735  11.393
21258W        W92874  14.744  30.920   2.783
21259W        W92875  42.338   2.352  14.553
21260W        W92876  10.798  38.042  10.853
21261W        W92877  22.091   8.042   1.671
21262W        W92878  20.988  44.525  14.376
21263W        W92879  41.320  15.339   4.085
21264W        W92880  38.709   1.895  14.099
21265W        W92881  24.153   6.240   0.371
21266W        W92882  30.919  26.243   2.394
21267W        W92883   4.791  16.845   2.833
21268W        W92884  34.996  31.658  11.570
21269W        W92885   8.742  34.440   2.897
21270W        W92886  18.369  42.009  14.490
21271W        W92887  22.748  41.966   0.827
21272W        W92888  24.693  11.634   2.850
21273W        W92889   0.363  11.859  11.172
21274W        W92890   2.704  35.518  12.010
21275W        W92891   6.446   8.865   1.951
21276W        W92892  36.890  26.621   0.932
21277W        W92893  30.417  32.651  11.089
21278W        W92894  10.727  28.126   3.207
21279W        W92895  14.424   2.028  12.518
21280W        W92896  28.574  13.752  12.591
21281W        W92897  27.041  18.790  11.925
21282W        W92898  19.254  13.183   1.291
21283W        W92899   1.800  27.904   3.746
21284W        W92900  17.123  27.050  11.038
21285W        W92901  34.230  33.176  14.241
21286W        W92902  26.478  25.200  11.491
21287W        W92903  29.616  32.866   0.014
21288W        W92904   1.438  29.555  14.297
21289W        W92905  29.645  27.781  10.148
21290W        W92906  14.408   7.283   1.818
21291W        W92907  35.039  14.652  12.443
21292W        W92908  33.933  44.917   2.183
21293W        W92909  44.383  27.634  12.846
21294W        W92910  31.639  21.089   1.240
21295W        W92911  44.336  41.554   2.820
21296W        W92912  26.426   1.751   1.816
21297W        W92913  13.754  11.754   1.304
21298W        W92914  35.472   7.226  11.635
21299W        W92915  31.370  12.793   0.875
21300W        W92916  24.715  30.921  14.836
21301W        W92917  22.830  19.739  11.185
21302W        W92918  42.271  23.230  14.318
21303W        W92919  32.181   6.894   4.297
21304W        W92920  18.314  19.532   4.079
21305W        W92921  21.841   5.246  10.462
21306W        W92922  24.568   9.096  11.310
21307W        W92923  37.059  13.240   3.850
21308W        W92924  22.697  13.148  11.197
21309W        W92925   0.712   5.880   3.623
21310W        W92926   9.182  35.983  11.682
21311W        W92927  40.371   6.228  12.665
21312W        W92928   7.406  29.135   0.326
21313W        W92929  27.469  20.188  11.575
21314W        W92930  29.512  35.631   3.812
21315W        W92931  17.374  43.557   4.041
21316W        W92932   5.575  21.585  13.319
21317W        W92933  36.238  37.811  13.791
21318W        W92934   2.760  40.070   1.158
21319W        W92935  12.366  36.710   1.308
21320W        W92936  36.915  40.394  11.592
21321W        W92937  23.942  10.834   4.294
21322W        W92938   6.889   0.440  13.426
21323W        W92939  10.684  24.013  14.462
21324W        W92940  14.120  13.251   0.038
21325W        W92941  19.347  40.309   1.870
21326W        W92942   1.409   2.859  10.620
21327W        W92943  28.485  41.400  14.534
21328W        W92944  38.896  15.832  12.709
21329W        W92945  10.740  24.517   2.169
21330W        W92946  30.173   0.330  13.044
21331W        W92947  15.594   1.300   0.824
21332W        W92948  40.499  14.155  12.969
21333W        W92949  33.180  28.814  13.931
21334W        W92950  37.017   2.380  11.927
21335W        W92951   4.080  37.976  10.750
21336W        W92952  37.999  26.975  11.055
21337W        W92953  34.694  17.513   0.885
21338W        W92954  17.129   4.641  10.649
21339W        W92955  41.873   7.299  13.065
21340W        W92956  27.907  29.889  12.888
21341W        W92957   6.921  32.711   0.328
21342W        W92958  24.397  37.170   4.311
21343W        W92959  15.287  15.304   0.363
21344W        W92960  38.910   4.705  11.640
21345W        W92961  41.548  32.836  13.113
21346W        W92962  27.622  28.853  12.843
21347W        W92963  37.120  10.742   1.311
21348W        W92964  37.407   9.873   0.332
21349W        W92965  14.174   5.919  13.457
21350W        W92966   0.403  35.929   4.054
21351W        W92967   5.836  29.259   1.212
21352W        W92968   7.006  19.716  11.853
21353W        W92969  38.534  22.275  14.452
21354W        W92970  10.777  36.812  12.961
21355W        W92971  26.447  31.634  12.992
21356W        W92972   0.805   6.811  10.748
21357W        W92973  38.396  23.101  11.221
21358W        W92974  31.445  17.107   0.004
21359W        W92975  35.024  21.641  10.933
21360W        W92976   6.827  24.749  12.224
21361W        W92977  34.139  35.640  10.633
21362W        W92978  33.952  18.657   0.480
21363W        W92979  20.674  31.907  13.243
21364W        W92980  16.861  20.878   0.755
21365W        W92981  39.959  14.806   0.923
21366W        W92982   3.162  10.136   3.174
21367W        W92983  44.267   8.466   5.047
21368W        W92984  42.880   2.679   3.696
21369W        W92985   5.472  17.532  14.105
21370W        W92986  10.645   0.394  12.190
21371W        W92987   0.601  37.873   5.520
21372W        W92988  41.081  41.106  10.769
21373W        W92989  14.354  35.481   2.736
21374W        W92990  16.266  19.580  13.606
21375W        W92991  37.593  23.355  12.879
21376W        W92992  17.646   1.483  12.006
21377W        W92993  14.262  17.257   0.434
21378W        W92994  21.616  35.538  13.910
21379W        W92995  12.578  22.704   0.192
21380W        W92996  15.121   1.523  12.981
21381W        W92997  28.619  35.850  14.730
21382W        W92998  25.460  22.962   4.897
21383W        W92999  33.590   0.808   0.508
21384W        W93000   2.352  17.254   1.422
21385W        W93001  11.405  14.253  14.435
21386W        W93002  24.446  37.387   3.836
21387W        W93003  40.613   2.745  14.460
21388W        W93004  28.730  31.315   0.710
21389W        W93005   0.663  25.573  12.148
21390W        W93006   6.405  23.307   1.373
21391W        W93007  20.524  19.591   0.414
21392W        W93008  40.517   9.240  14.806
21393W        W93009  14.905   0.331   1.974
21394W        W93010  24.931  42.476  11.629
21395W        W93011  43.106  39.850   0.870
21396W        W93012   4.885  36.627  12.591
21397W        W93013   2.695  11.392   3.726
21398W        W93014  19.607  35.587   0.940
21399W        W93015  40.501  37.257   2.734
21400W        W93016  12.121  12.672  12.647
21401W        W93017   3.206  42.051   1.779
21402W        W93018  43.892   6.555  11.575
21403W        W93019  14.639  31.850   1.887
21404W        W93020  33.939  39.527   3.294
21405W        W93021  27.294  27.588  13.262
21406W        W93022   5.338  23.588   4.292
21407W        W93023   9.623  25.741  12.066
21408W        W93024  40.484  28.392  12.047
21409W        W93025  19.709  31.581  13.313
21410W        W93026  43.439  27.983   1.012
21411W        W93027   9.335  33.609  14.942
21412W        W93028  41.474  11.841   1.337
21413W        W93029   4.460  29.841   3.216
21414W        W93030  27.970  37.329  12.949
21415W        W93031  37.666  17.657  14.829
21416W        W93032  21.566  10.954  13.806
21417W        W93033  18.223   0.984  11.656
21418W        W93034  43.000  26.740   2.331
21419W        W93035   4.751   4.766  12.569
21420W        W93036  21.280  26.136   3.880
21421W        W93037  37.018  35.903   0.024
21422W        W93038  35.780   5.221   2.714
21423W        W93039  26.117   0.916  10.551
21424W        W93040  18.075  31.665  13.948
21425W        W93041  33.394  16.179  14.340
21426W        W93042  40.753  44.702   4.369
21427W        W93043   0.779  22.938   1.511
21428W        W93044   7.304   2.275   4.798
21429W        W93045  20.939  39.043   0.872
21430W        W93046  19.262  38.238   1.890
21431W        W93047  18.694  38.463  12.555
21432W        W93048  39.413  10.032   0.184
21433W        W93049  33.431  16.697  10.719
21434W        W93050   3.963  22.564   0.259
21435W        W93051  17.694  41.946   1.224
21436W        W93052  30.555  11.264  13.703
21437W        W93053  13.833   6.698   1.402
21438W        W93054  10.634  38.647  11.827
21439W        W93055   8.950  11.433  13.330
21440W        W93056  44.978  22.894  13.060
21441W        W93057  32.024   6.013   2.278
21442W        W93058  36.573  33.892  14.518
21443W        W93059  23.951  43.379  11.206
21444W        W93060  35.625  29.701  12.476
21445W        W93061   6.946  39.621   3.272
21446W        W93062  10.945  24.576  13.619
21447W        W93063  44.118   8.548  11.919
21448W        W93064  36.542  29.882  10.876
21449W        W93065  23.148  10.714   4.814
21450W        W93066  38.371  16.108  13.907
21451W        W93067  25.963  33.550   0.009
21452W        W93068  33.463  33.887   0.585
21453W        W93069  36.456  15.339   3.317
21454W        W93070  32.887  23.724  11.174
21455W        W93071  34.890  16.884  12.545
21456W        W93072  32.992  16.168   1.612
21457W        W93073  35.202   5.929  12.479
21458W        W93074  32.366  26.184   1.862
21459W        W93075   7.250  37.754   0.454
21460W        W93076  38.620   0.774   3.559
21461W        W93077  23.290  36.581   3.777
21462W        W93078  14.837  34.349   3.810
21463W        W93079  25.082  12.810  10.988
21464W        W93080  36.974   2.727   1.530
21465W        W93081  40.998  10.729  13.849
21466W        W93082  29.862  15.549   4.955
21467W        W93083  38.129  36.449   4.404
21468W        W93084  29.803  20.090   4.148
21469W        W93085  33.867  27.008  13.983
21470W        W93086  13.326   0.795  12.974
21471W        W93087  18.268  19.318   0.360
21472W        W93088   2.379  18.769   4.118
21473W        W93089  24.174   2.694  14.778
21474W        W93090  26.238  36.402   2.212
21475W        W93091  38.988  26.933  12.111
21476W        W93092  14.432  35.922   1.906
21477W        W93093  36.150  41.303  11.007
21478W        W93094  20.192   9.677   2.727
21479W        W93095  37.013  11.703  11.902
21480W        W93096  10.859  42.044   4.231
21481W        W93097  36.623  15.361  12.924
21482W        W93098  15.804  33.232  10.663
21483W        W93099  38.806   5.131   0.779
21484W        W93100  32.972  37.849  14.215
21485W        W93101  21.483   1.838  13.064
21486W        W93102  13.419  11.876  11.109
21487W        W93103   6.644  40.849  11.698
21488W        W93104  43.060  25.781   1.868
21489W        W93105   6.662   8.078  14.837
21490W        W93106  12.586  33.014  14.935
21491W        W93107  44.482  23.679   2.397
21492W        W93108  36.944  41.794  14.275
21493W        W93109  42.244  24.957  12.735
21494W        W93110  19.604  16.304  11.101
21495W        W93111  28.307  19.629   0.499
21496W        W93112  25.737  42.652   4.431
21497W        W93113  43.998  44.733   2.381
21498W        W93114  21.383  44.787  10.692
21499W        W93115  25.295  29.214   2.269
21500W        W93116  15.630  14.675  12.849
21501W        W93117  22.570  13.637  13.155
21502W        W93118   9.510  31.634   3.776
21503W        W93119  33.589  12.738  10.554
21504W        W93120  15.637  38.602   2.376
21505W        W93121  34.614  10.147  11.093
21506W        W93122  33.520  38.561   3.224
21507W        W93123  43.735  42.910   2.539
21508W        W93124  40.922  35.519   1.460
21509W        W93125  18.273   4.134  10.710
21510W        W93126  32.610  21.702  10.958
21511W        W93127  42.451  17.750  13.419
21512W        W93128  37.461  12.494  13.384
21513W        W93129  41.450  41.689   1.844
21514W        W93130  23.690  43.229  13.916
21515W        W93131  31.100  27.727   0.146
21516W        W93132  37.520  12.314   2.108
21517W        W93133  33.162  33.116   1.248
21518W        W93134  38.806  36.411  13.877
21519W        W93135  17.173   2.954   3.273
21520W        W93136  25.984   2.252  13.369
21521W        W93137  35.786  44.967  14.897
21522W        W93138  31.007  17.958   2.384
21523W        W93139  40.458  26.741   4.096
21524W        W93140   1.957  39.823  12.687
21525W        W93141  28.407  18.616   4.427
21526W        W93142  30.963  29.602  14.794
21527W        W93143  20.134   7.612  11.088
21528W        W93144  11.911  41.690   0.419
21529W        W93145  23.608  19.766  13.340
21530W        W93146   0.801  22.964  11.475
21531W        W93147   0.306  23.107  11.621
21532W        W93148  13.902  23.300  12.073
21533W        W93149  16.507  29.074   0.470
21534W        W93150  39.325  21.545  14.411
21535W        W93151  24.681  23.025   3.186
21536W        W93152  23.066  19.605  10.721
21537W        W93153  43.476  42.102   1.399
21538W        W93154  12.932  25.372   3.344
21539W        W93155  16.177  20.216   3.776
21540W        W93156  35.543  39.780   2.222
21541W        W93157  17.843  17.492  11.807
21542W        W93158  41.413  29.032   4.412
21543W        W93159  40.243  43.973  14.973
21544W        W93160  33.396  18.966  12.968
21545W        W93161  38.626  21.567  14.992
21546W        W93162  10.723  44.787  11.743
21547W        W93163  44.700  44.984   1.844
21548W        W93164  40.976  17.571   3.720
21549W        W93165  24.248  12.294   1.767
21550W        W93166  18.243  44.345   9.823
21551W        W93167  24.250   4.170  12.934
21552W        W93168   5.509   1.866   4.167
21553W        W93169  10.832   4.411   2.477
21554W        W93170   9.310  40.470  13.991
21555W        W93171  19.216  24.086   0.944
21556W        W93172  12.516   4.810  11.940
21557W        W93173  17.377  23.560   3.572
21558W        W93174  13.161  41.278   3.404
21559W        W93175  21.479  39.068  14.721
21560W        W93176   8.231  24.216  10.723
21561W        W93177  38.527  43.829   4.472
21562W        W93178  43.162  35.354   4.227
21563W        W93179  30.436  43.250  13.962
21564W        W93180  30.081  30.381   0.736
21565W        W93181   8.799  28.196  11.171
21566W        W93182  20.313   3.098   3.337
21567W        W93183  36.936   6.999  12.869
21568W        W93184  25.061  44.721   3.410
21569W        W93185   6.345   6.392   4.329
21570W        W93186  21.331  18.497  13.106
21571W        W93187  24.603  36.329   1.572
21572W        W93188  16.306  15.339   3.759
21573W        W93189   4.225  34.308  11.908
21574W        W93190  27.728  31.907  13.528
21575W        W93191  12.874  14.427   2.513
21576W        W93192  17.264  23.126  13.289
21577W        W93193  17.465  33.065  12.388
21578W        W93194  40.138  32.084   4.586
21579W        W93195  35.945  11.815  12.482
21580W        W93196   6.306  31.532  11.042
21581W        W93197   1.726  43.078  12.998
21582W        W93198  17.445  42.387   2.408
21583W        W93199  11.143   1.026   4.959
21584W        W93200  16.806  20.227   2.889
21585W        W93201  18.210  32.348   9.973
21586W        W93202  12.811  20.760   0.797
21587W        W93203  34.438   8.211   1.803
21588W        W93204  27.317  43.897  12.854
21589W        W93205  42.356  15.448  14.376
21590W        W93206  20.727  16.344  11.824
21591W        W93207   5.277   6.370   0.703
21592W        W93208   5.728   1.515   3.110
21593W        W93209  16.062  33.914   4.615
21594W        W93210  34.889   9.174  12.480
21595W        W93211  19.812   3.204   3.282
21596W        W93212   9.634  16.213  14.762
21597W        W93213  39.878  15.746  14.393
21598W        W93214  26.696  27.764   0.267
21599W        W93215  32.147  11.399   1.991
21600W        W93216  44.337   2.715  11.070
21601W        W93217  34.658  20.181  11.156
21602W        W93218  11.248  19.237  12.076
21603W        W93219  32.672  17.789  12.418
21604W        W93220  13.343  12.369  12.260
21605W        W93221  36.648  38.044   2.134
21606W        W93222  13.577   6.623  14.808
21607W        W93223  29.672  32.197   3.638
21608W        W93224  31.424  29.381  11.402
21609W        W93225  10.949   6.754  14.899
21610W        W93226  10.341  38.990  14.386
21611W        W93227  29.347   5.531   4.209
21612W        W93228  42.868  37.793   0.814
21613W        W93229  37.084  32.985  12.431
21614W        W93230  10.917  44.038   1.422
21615W        W93231  17.204   7.895   3.580
21616W        W93232  17.252  22.073  10.728
21617W        W93233   9.718  36.380   4.195
21618W        W93234  24.774   2.363   0.507
21619W        W93235  15.148  19.239   0.358
21620W        W93236  38.732  32.655  12.946
21621W        W93237  17.120  11.821  11.636
21622W        W93238  33.325   7.439   2.465
21623W        W93239  33.990   0.084   1.268
21624W        W93240  25.668  13.606   0.402
21625W        W93241   6.777  41.312  14.554
21626W        W93242  31.907  37.816  11.351
21627W        W93243  29.896  22.699   2.360
21628W        W93244  18.526  14.664  11.899
21629W        W93245  25.905  13.826   2.307
21630W        W93246  19.105   8.138   1.239
21631W        W93247  39.930  24.256   3.250
21632W        W93248  37.747  39.992   3.147
21633W        W93249  31.845  10.446   1.861
21634W        W93250  13.903  11.920  13.803
21635W        W93251  21.348  29.722   1.296
21636W        W93252  40.711   3.443  11.053
21637W        W93253   9.153   1.323   2.393
21638W        W93254  11.338  23.557  12.712
21639W        W93255  35.598  34.351   2.838
21640W        W93256   2.525  21.534  10.224
21641W        W93257  19.257  12.694  12.620
21642W        W93258  15.564  19.192   9.677
21643W        W93259  35.361  34.878   4.256
21644W        W93260  15.574  28.543   3.288
21645W        W93261  14.295   5.414   2.238
21646W        W93262  40.720  13.021   2.961
21647W        W93263   9.634   6.307   3.203
21648W        W93264  33.970  25.120  10.488
21649W        W93265  23.063  20.354  14.649
21650W        W93266   8.422  43.672  13.935
21651W        W93267   6.693   6.355  13.949
21652W        W93268  40.748  23.877   2.318
21653W        W93269   1.791  18.352  11.507
21654W        W93270   8.870  27.375   4.635
21655W        W93271  38.059  30.755  10.700
21656W        W93272  30.348  22.489  13.793
21657W        W93273   3.929  17.818   4.831
21658W        W93274  13.948   7.850   3.650
21659W        W93275  36.300  41.653   3.589
21660W        W93276  39.992   8.848   3.441
21661W        W93277   3.468  13.739   1.820
21662W        W93278   2.748   6.772  13.329
21663W        W93279  31.872  27.963  11.943
21664W        W93280   5.914   7.083  14.132
21665W        W93281  22.174  32.454  10.676
21666W        W93282  17.328  14.161  13.097
21667W        W93283  43.009  38.147   3.123
21668W        W93284  43.085  16.931   0.800
21669W        W93285  29.924   2.524   1.335
21670W        W93286  32.196  12.807  14.562
21671W        W93287   2.006  27.138  11.375
21672W        W93288  12.436  21.959  12.355
21673W        W93289  29.428  37.187   5.101
21674W        W93290  40.542  20.158  14.475
21675W        W93291  24.761  21.793  12.926
21676W        W93292  15.967   5.555  12.382
21677W        W93293  17.606  19.812  14.504
21678W        W93294   6.427  18.287   0.896
21679W        W93295  20.054  11.666   0.200
21680W        W93296   4.943   4.818  10.932
21681W        W93297  28.088  43.507   1.460
21682W        W93298  37.125  22.406  12.906
21683W        W93299  16.784   3.808  14.965
21684W        W93300   7.951  31.703  13.817
21685W        W93301  29.144  25.844  13.450
21686W        W93302   9.189   6.333   4.056
21687W        W93303  19.657  38.122  14.417
21688W        W93304   2.251  15.095   2.189
21689W        W93305  23.052  13.662   2.352
21690W        W93306  17.728  20.636   2.737
21691W        W93307  25.791   4.751  12.223
21692W        W93308  44.246  29.011   2.708
21693W        W93309  37.626   0.431  10.749
21694W        W93310  30.497  31.931   1.306
21695W        W93311  21.091  22.089  13.832
21696W        W93312   7.758   5.178   3.833
21697W        W93313   5.316  10.657   4.848
21698W        W93314  36.393  26.602   0.737
21699W        W93315  24.422  18.355  10.601
21700W        W93316   2.315  19.518  12.936
21701W        W93317  36.999  41.454   3.110
21702W        W93318  13.327  15.563  13.866
21703W        W93319  41.948  39.061  12.486
21704W        W93320  14.707  20.231   1.722
21705W        W93321  29.226  34.530  13.048
21706W        W93322  24.285  32.991  14.527
21707W        W93323  33.111  25.424   4.181
21708W        W93324  41.302  25.942   2.360
21709W        W93325  37.485  39.161  12.163
21710W        W93326  28.409  36.919   1.028
21711W        W93327  26.469  36.621  13.554
21712W        W93328  42.508   8.159   2.749
21713W        W93329  18.927  24.294   4.013
21714W        W93330  37.903  19.296  13.235
21715W        W93331  42.439   8.744  12.119
21716W        W93332  31.487  24.192   3.933
21717W        W93333  34.047  10.877  12.168
21718W        W93334  31.899  32.888  10.918
21719W        W93335   7.409  35.842   1.301
21720W        W93336   0.060  38.956   5.052
21721W        W93337  16.577  40.025  12.950
21722W        W93338   9.639   8.183   4.456
21723W        W93339  31.083   0.734  13.489
21724W        W93340  23.173  13.540  10.564
21725W        W93341   6.832  17.564  14.324
21726W        W93342   4.759  28.505  14.375
21727W        W93343   9.729  17.001  14.804
21728W        W93344  24.570  32.362  10.996
21729W        W93345  42.532  32.103  13.565
21730W        W93346  19.541  39.597   2.292
21731W        W93347   9.270   2.555  13.998
21732W        W93348  38.639  44.800  13.715
21733W        W93349   2.235  14.003   2.652
21734W        W93350  17.194   8.657  10.668
21735W        W93351   7.424   1.398   3.682
21736W        W93352   9.124  17.117  12.989
21737W        W93353  21.199   6.824  10.858
21738W        W93354  27.044  11.647  10.730
21739W        W93355  18.234  27.024  14.528
21740W        W93356  10.421  17.688   0.330
21741W        W93357  30.415   8.392   0.344
21742W        W93358  38.985  26.429  14.404
21743W        W93359  26.486  42.567   2.396
21744W        W93360   5.751  14.171  13.274
21745W        W93361  18.235  10.379  13.896
21746W        W93362  28.451  25.526  12.986
21747W        W93363  30.432  31.955  14.050
21748W        W93364  37.872  15.173   4.748
21749W        W93365   1.876  14.305  11.891
21750W        W93366  20.718  34.832   1.144
21751W        W93367  23.885  38.022   4.596
21752W        W93368  18.187  16.557   4.513
21753W        W93369  43.657   0.335  14.832
21754W        W93370   3.224  16.104  12.994
21755W        W93371  27.975  35.984  11.903
21756W        W93372  35.944  41.279  14.740
21757W        W93373   7.428  39.011  11.720
21758W        W93374   6.386  36.108   0.512
21759W        W93375   6.732  36.851  11.698
21760W        W93376  27.248  38.021   1.786
21761W        W93377  21.626   9.712  14.420
21762W        W93378  16.476  12.320   0.417
21763W        W93379  35.320  15.805   2.870
21764W        W93380  34.758  40.973   1.518
21765W        W93381  27.879  22.651   1.113
21766W        W93382  40.746  31.842   1.853
21767W        W93383  12.732  38.143  12.573
21768W        W93384  24.010  44.996   2.445
21769W        W93385  23.853  26.686   0.238
21770W        W93386  24.134  39.152   2.270
21771W        W93387  15.303  24.551  12.402
21772W        W93388   9.341  35.035   3.284
21773W        W93389  41.499  37.895  13.272
21774W        W93390  43.367  43.221   4.238
21775W        W93391  42.805  13.692   4.592
21776W        W93392   9.920  26.101   3.510
21777W        W93393  44.526  27.166   3.659
21778W        W93394   7.138  13.307   0.465
21779W        W93395  19.840  29.899  13.860
21780W        W93396  36.189  14.704  14.353
21781W        W93397  30.149   2.162  13.115
21782W        W93398   1.999   8.765   1.277
21783W        W93399   6.082  38.909  12.937
21784W        W93400  11.852  28.855   1.261
21785W        W93401  25.448  23.521  13.407
21786W        W93402  15.611   3.001  13.487
21787W        W93403   8.901   5.932   9.832
21788W        W93404  25.561  28.250   5.008
21789W        W93405  27.985  14.267   5.072
21790W        W93406  29.375  17.176  10.162
21791W        W93407   3.815   8.572   4.577
21792W        W93408   4.264  26.413   1.854
21793W        W93409  33.525  44.258  12.881
21794W        W93410  26.926  11.200  13.830
21795W        W93411  25.679   3.645  13.010
21796W        W93412  14.474  17.577   3.579
21797W        W93413  22.533  40.258  11.992
21798W        W93414  44.249  17.263  12.454
21799W        W93415   4.450  10.312   3.837
21800W        W93416  10.832   0.987   4.013
21801W        W93417  27.145   3.838   0.721
21802W        W93418  16.974  11.450  11.978
21803W        W93419   7.328  10.701   1.449
21804W        W93420  19.094  10.299  10.284
21805W        W93421   7.396  30.177  13.553
21806W        W93422  36.837  12.139  14.835
21807W        W93423  43.377   0.029  10.657
21808W        W93424   5.325  34.989  13.207
21809W        W93425  24.124  34.472   2.154
21810W        W93426  13.788   8.376   2.374
21811W        W93427  19.725  40.307   4.062
21812W        W93428   5.376  20.168  13.949
21813W        W93429  36.920  42.316  13.426
21814W        W93430  29.210  29.633  12.083
21815W        W93431  27.547   6.736  12.517
21816W        W93432  38.906  24.973   0.639
21817W        W93433  39.485  14.598   0.896
21818W        W93434   6.705  43.508  13.385
21819W        W93435  16.888   6.897  13.447
21820W        W93436  16.267  34.911   2.359
21821W        W93437   9.583  18.429   3.537
21822W        W93438   9.191  19.550   2.134
21823W        W93439  36.768  32.290  13.005
21824W        W93440  13.013  44.050   2.182
21825W        W93441  18.455   4.900  13.120
21826W        W93442   9.631  37.497  14.815
21827W        W93443  28.429  23.249  12.876
21828W        W93444  44.905  29.428   4.123
21829W        W93445  12.933  26.031  14.467
21830W        W93446  39.458   2.792   3.520
21831W        W93447   0.441  10.699   0.499
21832W        W93448  28.579  26.867  12.535
21833W        W93449  21.225  22.765  14.381
21834W        W93450  16.096  22.580   4.723
21835W        W93451   6.236   0.992   0.566
21836W        W93452  15.355  21.092  12.411
21837W        W93453  27.209  14.703  12.072
21838W        W93454  21.053  21.303  13.382
21839W        W93455  42.727  33.676   2.862
21840W        W93456  32.640  21.563   4.054
21841W        W93457   3.945  14.625  11.217
21842W        W93458  43.922  36.128   2.189
21843W        W93459  39.526  29.902   1.433
21844W        W93460  40.125   8.989  11.116
21845W        W93461  39.628  34.914   3.579
21846W        W93462  26.973  32.796  11.932
21847W        W93463  34.660  11.391  11.939
21848W        W93464  22.771  12.596   3.264
21849W        W93465  23.650  26.931  10.600
21850W        W93466  44.015  39.536   1.732
21851W        W93467  21.200  35.533   0.554
21852W        W93468  19.747  41.431   1.899
21853W        W93469  37.284  28.278  13.897
21854W        W93470  41.791  44.332   0.423
21855W        W93471  37.471  42.590  11.963
21856W        W93472  18.917  43.916   4.940
21857W        W93473  44.341  36.917  12.731
21858W        W93474  21.742   1.863   2.686
21859W        W93475  32.428   6.319   4.706
21860W        W93476  10.833   9.559  11.918
21861W        W93477  40.527  30.817   4.172
21862W        W93478  24.686  11.370  12.643
21863W        W93479   9.272  36.594   2.442
21864W        W93480  42.820  32.026  12.375
21865W        W93481   5.670  43.714  13.962
21866W        W93482  28.799  15.925   9.777
21867W        W93483  22.362  27.915   4.100
21868W        W93484  12.409  14.330   5.195
21869W        W93485  26.394  33.170  12.010
21870W        W93486  39.287  37.387   2.001
21871W        W93487  10.776  33.995   3.174
21872W        W93488  36.977  29.420   0.852
21873W        W93489  40.550   7.893   4.525
21874W        W93490  27.955  16.917   4.244
21875W        W93491  17.345  24.914  11.740
21876W        W93492  44.471   9.938  10.637
21877W        W93493  43.936  23.127   1.411
21878W        W93494  28.475  42.522  12.926
21879W        W93495  25.538  25.407  14.963
21880W        W93496  19.270   2.325  13.518
21881W        W93497  24.063   9.449  14.376
21882W        W93498  35.932  31.784   3.170
21883W        W93499  34.912  28.905  14.531
21884W        W93500  33.187  24.024   2.455
21885W        W93501   0.345  26.253  14.827
21886W        W93502   8.848  30.968   2.714
21887W        W93503  23.780  44.608  11.603
21888W        W93504   3.618  12.613  14.568
21889W        W93505  42.846  28.172   3.308
21890W        W93506  17.007  44.906  12.957
21891W        W93507   3.955  14.757  12.616
21892W        W93508  22.748   4.645   2.239
21893W        W93509  18.520  16.663  12.863
21894W        W93510   2.126   8.494  10.263
21895W        W93511  23.755  13.762   2.580
21896W        W93512   2.993  19.841  14.808
21897W        W93513   2.648  21.326  14.652
21898W        W93514  44.482   5.973   2.274
21899W        W93515  12.161   9.062  11.680
21900W        W93516  13.640  33.029  14.840
21901W        W93517   3.810  36.044  14.742
21902W        W93518  40.149  13.731   4.135
21903W        W93519  13.774  38.303   1.943
21904W        W93520  32.874  43.014  14.989
21905W        W93521  41.316   5.833   1.860
21906W        W93522  26.005  22.544   4.683
21907W        W93523  26.041  28.485  11.715
21908W        W93524  27.167   5.338   3.367
21909W        W93525  31.583  13.258   0.735
21910W        W93526  16.114  40.452   1.400
21911W        W93527  34.001  27.442   4.547
21912W        W93528  36.419  41.569   1.488
21913W        W93529  25.193   6.609  10.740
21914W        W93530  37.697  32.407   3.436
21915W        W93531  31.954   2.242  13.337
21916W        W93532   0.419  11.776   1.292
21917W        W93533  33.142  34.597   3.786
21918W        W93534  22.155  23.026  12.261
21919W        W93535  31.525  30.562  13.963
21920W        W93536   8.879   6.675   1.787
21921W        W93537  31.095  26.602  12.688
21922W        W93538  13.599  10.897   4.378
21923W        W93539  30.694  30.347   3.646
21924W        W93540  23.205  36.167  14.927
21925W        W93541  21.587  21.088  10.629
21926W        W93542   6.452  40.351  11.570
21927W        W93543  30.024  40.375   2.934
21928W        W93544  22.251   4.603   2.517
21929W        W93545   1.897  40.888  11.863
21930W        W93546  44.535   6.815  14.390
21931W        W93547  27.478  22.575   0.739
21932W        W93548  15.741  32.588  12.050
21933W        W93549  42.548  12.894  11.927
21934W        W93550  12.264  14.031  12.824
21935W        W93551   7.812  10.669   1.229
21936W        W93552   0.278   6.680   1.842
21937W        W93553  11.364  29.416   1.013
21938W        W93554  23.766  39.017  14.338
21939W        W93555  14.186  27.368   2.047
21940W        W93556  25.066  37.027  14.878
21941W        W93557  19.427  27.137  12.562
21942W        W93558  14.935   4.298   5.747
21943W        W93559  27.437  16.805  14.859
21944W        W93560  16.654  35.699   1.518
21945W        W93561  33.722  31.576  13.976
21946W        W93562  38.885   6.179  10.865
21947W        W93563  38.411  17.419  11.991
21948W        W93564   5.885  11.388   3.679
21949W        W93565  36.061  39.549   0.984
21950W        W93566  21.466  25.112   2.685
21951W        W93567  16.184  15.717  10.194
21952W        W93568  18.583  41.924   4.241
21953W        W93569  14.042   1.742  13.428
21954W        W93570  18.587  27.952   3.777
21955W        W93571  26.492  39.255  12.009
21956W        W93572   2.491   7.356  10.714
21957W        W93573  36.024   4.014  11.641
21958W        W93574  11.088  26.750   3.738
21959W        W93575  24.552  25.603  14.987
21960W        W93576   9.869  39.994  11.204
21961W        W93577  11.743   6.227  14.725
21962W        W93578  28.359  15.613   1.837
21963W        W93579  10.129  20.721  12.458
21964W        W93580  12.231  13.131   2.162
21965W        W93581  10.826  21.288  12.178
21966W        W93582  14.074  14.633   3.260
21967W        W93583  28.395  43.822   2.732
21968W        W93584  44.857   2.308  13.341
21969W        W93585  16.220   4.454   2.393
21970W        W93586  29.978   6.438   1.203
21971W        W93587  36.879  18.179  13.184
21972W        W93588   7.865  10.069  11.152
21973W        W93589  22.630  20.882   4.967
21974W        W93590   0.472  28.600   1.927
21975W        W93591  38.996   4.886  13.455
21976W        W93592  16.254  24.645  12.885
21977W        W93593  22.658   3.904   0.611
21978W        W93594  31.501  43.856   9.666
21979W        W93595   8.219  17.020   1.471
21980W        W93596  33.773  34.368   4.555
21981W        W93597  25.150  37.610   0.949
21982W        W93598  28.566  28.952   2.738
21983W        W93599  33.475  31.919  10.128
21984W        W93600  30.004   1.190   2.738
21985W        W93601  41.021   6.352   3.759
21986W        W93602  28.973  34.645  14.532
21987W        W93603  43.760   3.789  12.619
21988W        W93604   4.781  14.637   2.724
21989W        W93605  42.018  13.834   2.387
21990W        W93606   3.773  22.464  12.517
21991W        W93607   1.795  11.843   2.374
21992W        W93608  42.457  36.254  10.675
21993W        W93609  11.843  17.788  14.878
21994W        W93610  39.545  13.309   9.905
21995W        W93611  10.193  23.363  11.274
21996W        W93612  43.387  40.686  12.357
21997W        W93613  21.284  42.548  12.141
21998W        W93614  29.915   6.813  12.249
21999W        W93615   3.691  44.840   0.276
22000W        W93616  21.245  26.730   1.940
22001W        W93617  11.711  11.626   0.699
22002W        W93618  41.808  44.845  13.085
22003W        W93619  11.167  37.541   0.937
22004W        W93620  15.515  38.923  14.194
22005W        W93621  30.947   4.508   2.252
22006W        W93622  11.730   0.790   3.069
22007W        W93623  33.467  17.305   3.254
22008W        W93624  18.487  28.253  11.895
22009W        W93625   5.162   0.350  10.205
22010W        W93626  36.749   0.090  13.345
22011W        W93627  29.392  43.881   0.270
22012W        W93628  21.534   6.797   1.671
22013W        W93629   3.394  39.383   2.911
22014W        W93630   9.787   9.111  12.711
22015W        W93631  23.038  26.132  10.736
22016W        W93632  20.235  30.155  14.345
22017W        W93633  43.060  32.154   4.051
22018W        W93634   5.115   5.886   2.232
22019W        W93635   6.128  34.984   1.935
22020W        W93636  38.296  33.583  12.961
22021W        W93637  29.505  34.242  11.401
22022W        W93638  42.450  13.144   2.706
22023W        W93639  13.559  40.554   1.306
22024W        W93640  19.704  18.274  11.974
22025W        W93641  41.333  11.352   1.511
22026W        W93642  28.671  32.448   0.892
22027W        W93643  20.105  33.422  11.759
22028W        W93644  16.115  41.254   1.793
22029W        W93645  14.115  23.490   1.428
22030W        W93646  31.078  22.632  12.382
22031W        W93647   9.654  40.919  11.390
22032W        W93648  14.122  28.646   2.719
22033W        W93649  43.225  42.723   5.245
22034W        W93650  21.696  39.092   1.864
22035W        W93651  20.307  21.553   3.170
22036W        W93652  27.091  32.299  12.819
22037W        W93653  40.471  13.637  10.640
22038W        W93654  31.026  10.350  10.929
22039W        W93655  42.331   5.916  13.911
22040W        W93656  23.100  35.498   2.800
22041W        W93657  36.965  34.485   2.577
22042W        W93658  16.073  21.673  14.312
22043W        W93659   7.359  34.931   4.960
22044W        W93660   6.722  20.084   0.997
22045W        W93661  18.561  28.111   1.669
22046W        W93662  13.005  26.698  12.064
22047W        W93663   6.430   2.009  12.884
22048W        W93664  22.369  31.187   0.479
22049W        W93665  34.980  21.231  10.613
22050W        W93666   9.805   8.760   4.603
22051W        W93667  19.794  13.447  12.100
22052W        W93668  22.586  35.002   3.262
22053W        W93669   9.444  34.317   1.819
22054W        W93670  14.303  21.522   1.101
22055W        W93671  35.662  13.122   1.083
22056W        W93672  11.647  15.552   3.754
22057W        W93673  19.616  29.608  12.051
22058W        W93674  39.885   8.440   4.941
22059W        W93675  19.534   8.194   0.481
22060W        W93676  25.022  42.688  10.800
22061W        W93677   7.291  32.397  11.646
22062W        W93678   5.413  43.260   0.111
22063W        W93679  24.150  11.872   1.332
22064W        W93680  18.394  15.234  10.548
22065W        W93681  20.007  44.988   2.665
22066W        W93682  20.122  27.307   4.608
22067W        W93683   4.321  26.878  12.341
22068W        W93684  13.869   7.290  13.497
22069W        W93685  28.104  37.075  14.789
22070W        W93686   0.238  27.710   1.050
22071W        W93687  18.307  11.192  11.234
22072W        W93688  13.153  36.815   4.655
22073W        W93689  29.104   9.183  12.002
22074W        W93690   2.374  10.292   2.508
22075W        W93691  14.057  14.175   1.645
22076W        W93692  18.607  41.936  10.607
22077W        W93693  28.955  28.545  10.301
22078W        W93694  10.577  13.754  12.545
22079W        W93695  15.306  16.590   4.138
22080W        W93696  36.095  10.640   1.958
22081W        W93697  21.505  35.829   2.363
22082W        W93698  40.712  20.812  14.771
22083W        W93699   7.880  37.554   1.280
22084W        W93700   8.420  17.258   0.090
22085W        W93701  35.087  14.641   3.768
22086W        W93702   8.721  14.229  11.529
22087W        W93703  23.717  13.883  12.565
22088W        W93704  11.260   8.391   4.633
22089W        W93705  36.375   1.945   4.213
22090W        W93706  43.978   0.048  11.554
22091W        W93707  14.238  23.629  11.506
22092W        W93708  36.275  35.293   4.051
22093W        W93709   2.383  12.722   9.450
22094W        W93710  20.005  20.784  10.606
22095W        W93711   5.454  16.632   1.337
22096W        W93712   7.113  31.470  14.266
22097W        W93713  41.927  34.031   2.757
22098W        W93714  18.027  10.279   2.213
22099W        W93715   8.876   7.857  10.701
22100W        W93716  27.428  34.119  14.441
22101W        W93717  10.737   9.691  14.957
22102W        W93718  25.570  22.014  14.944
22103W        W93719  38.094  38.609   3.324
22104W        W93720  21.708  32.699   0.030
22105W        W93721  39.467  41.905  10.854
22106W        W93722  13.827  38.319  13.113
22107W        W93723  34.301   8.812   2.992
22108W        W93724  38.173   1.994   0.444
22109W        W93725  24.164  31.202  13.076
22110W        W93726  11.836  36.409   1.302
22111W        W93727  11.056  39.414   2.817
22112W        W93728   2.450  29.511   1.272
22113W        W93729  38.280  20.276  10.750
22114W        W93730   6.975  11.786   1.137
22115W        W93731  43.637  25.276  10.587
22116W        W93732  25.441  10.841   1.313
22117W        W93733  13.607   4.191   5.396
22118W        W93734   0.499  38.474  10.973
22119W        W93735  32.354  30.432   1.449
22120W        W93736   8.815  41.352  12.368
22121W        W93737  20.213  38.632   3.374
22122W        W93738  15.569   3.112   5.564
22123W        W93739  42.693   6.137  12.059
22124W        W93740   4.350  39.135  14.472
22125W        W93741  19.746   2.419   4.611
22126W        W93742  35.925  21.397  11.508
22127W        W93743  40.019   2.201   0.301
22128W        W93744  24.184  19.810   2.447
22129W        W93745  18.792  13.738  14.842
22130W        W93746   2.666   1.864   3.406
22131W        W93747  32.587  23.170  13.466
22132W        W93748   4.588   0.826   3.357
22133W        W93749  43.937  40.480   2.002
22134W        W93750  34.850   5.742   2.689
22135W        W93751  40.670  18.943   4.830
22136W        W93752   0.258  17.281   2.894
22137W        W93753  20.245   3.069  10.698
22138W        W93754  37.337   3.321   0.494
22139W        W93755  31.113   8.452  12.873
22140W        W93756   5.960  14.985   2.250
22141W        W93757  11.389   6.996   4.174
22142W        W93758  24.884  26.031  13.533
22143W        W93759  17.235  34.888  10.730
22144W        W93760   5.193  11.403   1.843
22145W        W93761   2.678   8.157  12.991
22146W        W93762  36.091  32.539   4.122
22147W        W93763  22.472   3.730  10.369
22148W        W93764  36.929  26.511   3.673
22149W        W93765  22.577   5.682   2.357
22150W        W93766   9.217  27.683   0.476
22151W        W93767  23.251  26.026   1.065
22152W        W93768  40.064  16.798  13.511
22153W        W93769   7.881  29.170   4.034
22154W        W93770   3.438  19.771   1.656
22155W        W93771  11.227  15.404   1.453
22156W        W93772  11.482  35.145   2.636
22157W        W93773  12.866  22.069  14.339
22158W        W93774  27.222  19.464   3.428
22159W        W93775  35.543  23.284  14.541
22160W        W93776  22.835   7.842  10.153
22161W        W93777  42.318  11.543  11.181
22162W        W93778  39.219  43.128   1.148
22163W        W93779  16.681  11.806  10.810
22164W        W93780  16.831   6.924  12.131
22165W        W93781   0.951  28.723   2.633
22166W        W93782  23.065   2.885  11.561
22167W        W93783   2.412   1.421   3.038
22168W        W93784  40.783  25.800  13.751
22169W        W93785  21.706   5.475   2.802
22170W        W93786   8.766   3.616  10.652
22171W        W93787  27.223  16.058   3.620
22172W        W93788  36.448  42.381  14.995
22173W        W93789   7.541   0.095  11.095
22174W        W93790  32.672   7.290   4.644
22175W        W93791  39.762   6.333  14.929
22176W        W93792  31.145  42.359  11.624
22177W        W93793  32.144   2.429  14.369
22178W        W93794   3.275  25.402   1.756
22179W        W93795  31.096  26.560   1.964
22180W        W93796  26.658  14.273   3.790
22181W        W93797   7.162  42.267  12.026
22182W        W93798  27.712   3.752  13.929
22183W        W93799  19.739  22.627   2.714
22184W        W93800  30.362   1.818   4.039
22185W        W93801  27.898  31.527   0.389
22186W        W93802   7.087  24.744   0.372
22187W        W93803  33.094  17.832  14.394
22188W        W93804  20.025  31.675  12.139
22189W        W93805  14.250  30.205  14.843
22190W        W93806  27.962  27.124   4.503
22191W        W93807  36.875  17.670   0.401
22192W        W93808   0.549   4.840   1.385
22193W        W93809   1.367  30.193   1.837
22194W        W93810   4.713  18.610  11.118
22195W        W93811  15.604  39.539   2.283
22196W        W93812  20.215  30.104   4.967
22197W        W93813  43.244   0.444  12.035
22198W        W93814  44.012  34.911   9.864
22199W        W93815  43.288  34.573   2.661
22200W        W93816   0.064  10.201   1.567
22201W        W93817  34.316  20.698   0.937
22202W        W93818  19.872  15.614   1.612
22203W        W93819   2.684  12.687   2.689
22204W        W93820  11.903   0.231  10.852
22205W        W93821  36.569  20.921  12.249
22206W        W93822  43.115  10.293   1.816
22207W        W93823   1.527  34.524  13.605
22208W        W93824  42.047  42.066   3.090
22209W        W93825  22.631  42.816   2.815
22210W        W93826   0.417  18.748   0.746
22211W        W93827  43.054   6.109   2.176
22212W        W93828  27.028  31.345   1.982
22213W        W93829  20.820  30.673  13.792
22214W        W93830  22.782  33.372  13.752
22215W        W93831  25.624  42.032  10.941
22216W        W93832  11.822  43.654   1.281
22217W        W93833  10.768   3.267  13.294
22218W        W93834  12.802  35.120   4.508
22219W        W93835  23.103  10.804   3.352
22220W        W93836  10.717   7.979   4.272
22221W        W93837  22.827  26.695  12.324
22222W        W93838  41.767  15.153  13.682
22223W        W93839  22.905  11.869  10.773
22224W        W93840  26.004  30.152   2.933
22225W        W93841  19.340  42.334   4.217
22226W        W93842  17.128   3.237  13.374
22227W        W93843   9.946  34.723  12.580
22228W        W93844  14.179  31.554  13.472
22229W        W93845  15.598  26.156   4.399
22230W        W93846  23.772  27.091  11.513
22231W        W93847  12.232   3.655   5.039
22232W        W93848  26.601  25.615  14.932
22233W        W93849   9.381  11.643   1.260
22234W        W93850  41.009  23.488  12.989
22235W        W93851  19.118  18.301  13.768
22236W        W93852   6.284  35.621  13.518
22237W        W93853  35.834  26.750   1.747
22238W        W93854  23.079  30.519  14.386
22239W        W93855  40.499   3.019  12.171
22240W        W93856   7.512  38.787   3.105
22241W        W93857   6.640  16.260  14.085
22242W        W93858  36.128  28.059   2.265
22243W        W93859   6.259   0.548  12.784
22244W        W93860  29.092  23.908  13.751
22245W        W93861  13.622  32.343   2.657
22246W        W93862  35.083  13.661  12.393
22247W        W93863  27.814  26.731  11.122
22248W        W93864  17.572  30.208   3.266
22249W        W93865  31.061  22.934   3.050
22250W        W93866  17.617  34.606   0.797
22251W        W93867  13.205  37.947   4.650
22252W        W93868  23.793  11.475   4.235
22253W        W93869  40.400  26.099  10.613
22254W        W93870  41.383  22.510  11.206
22255W        W93871  21.633  20.386  12.667
22256W        W93872  38.940  44.158   4.612
22257W        W93873   3.786  41.584   4.630
22258W        W93874  30.298  42.046   0.124
22259W        W93875   6.443  30.134  11.032
22260W        W93876  12.267  13.513  11.568
22261W        W93877  24.628  40.513  13.349
22262W        W93878  27.929   1.610  12.387
22263W        W93879  41.850  18.885   3.381
22264W        W93880  26.617  39.197   2.812
22265W        W93881   8.804  36.807   4.896
22266W        W93882   2.764  26.588   3.469
22267W        W93883  32.404  34.491   1.428
22268W        W93884   6.679  24.700   3.366
22269W        W93885  38.907  37.072   4.607
22270W        W93886   9.780   4.348   2.364
22271W        W93887  33.443  21.001  12.974
22272W        W93888   4.827  33.308   1.888
22273W        W93889  16.917  30.718   0.233
22274W        W93890  43.702   0.961   3.415
22275W        W93891  27.058  10.685   2.258
22276W        W93892  43.955  20.662  13.811
22277W        W93893  28.638  38.032   2.972
22278W        W93894   1.777  10.703  10.804
22279W        W93895  35.569  39.987   4.422
22280W        W93896  12.165  38.934   4.643
22281W        W93897  39.383  15.620  14.595
22282W        W93898  24.950  36.775  13.903
22283W        W93899  32.490  34.566   1.956
22284W        W93900  36.041   0.543  13.994
22285W        W93901  43.532  35.168  13.008
22286W        W93902  37.885  28.475   2.231
22287W        W93903  14.920  13.231   2.346
22288W        W93904   0.044  24.450   2.767
22289W        W93905  42.945   0.264  12.429
22290W        W93906   7.978   7.968   3.313
22291W        W93907  31.199  11.110   2.368
22292W        W93908   8.807  28.913   3.726
22293W        W93909   5.701  12.660   4.882
22294W        W93910   2.741  34.468   3.471
22295W        W93911  16.721  19.570   5.312
22296W        W93912  17.739  44.282  14.766
22297W        W93913  29.123  43.715  14.025
22298W        W93914  10.160  17.154   2.704
22299W        W93915   5.753  33.603  13.468
22300W        W93916  35.778  31.499   4.777
22301W        W93917  38.775   7.648   1.663
22302W        W93918  28.576  14.590  13.868
22303W        W93919   4.442  44.273   0.303
22304W        W93920  35.484  16.318  14.498
22305W        W93921  20.497  35.202   0.851
22306W        W93922  17.244  17.740  13.302
22307W        W93923  28.011   4.211   3.239
22308W        W93924  28.441   3.328  13.707
22309W        W93925  41.409   1.442  12.561
22310W        W93926  24.453   5.386  13.370
22311W        W93927  18.764  44.464   4.662
22312W        W93928   0.798   4.941  13.931
22313W        W93929   3.178   4.490  12.032
22314W        W93930  24.193  40.114   2.264
22315W        W93931  44.717  43.144  14.707
22316W        W93932  33.337  35.078  11.067
22317W        W93933   6.486  16.529  11.139
22318W        W93934  42.290  15.035  11.939
22319W        W93935  11.169  28.882   3.345
22320W        W93936  18.087  43.759  13.087
22321W        W93937  16.558  32.147  13.885
22322W        W93938  35.515  12.410  11.808
22323W        W93939   6.446  43.807  13.041
22324W        W93940  36.278  17.766   1.933
22325W        W93941   2.261   8.270   4.143
22326W        W93942  34.995   7.920   2.264
22327W        W93943  25.197  42.242   4.932
22328W        W93944  15.678   8.517   1.932
22329W        W93945  36.150  44.821  12.969
22330W        W93946  26.967   3.343  12.142
22331W        W93947   3.398   0.823   2.225
22332W        W93948  25.460   6.654  12.041
22333W        W93949  17.233   5.948   1.015
22334W        W93950  30.910  30.441  12.169
22335W        W93951   8.393  24.325   4.725
22336W        W93952  33.885  39.910  14.360
22337W        W93953  30.226  27.187   1.786
22338W        W93954  31.094  30.420   4.610
22339W        W93955  16.353  27.624  14.604
22340W        W93956  13.322  14.089  13.964
22341W        W93957   4.990  23.120   0.980
22342W        W93958   3.204   8.649  11.527
22343W        W93959  33.558  41.758   4.179
22344W        W93960  43.712  14.740   3.153
22345W        W93961  35.424  20.549  12.444
22346W        W93962  13.474  13.528   0.839
22347W        W93963  27.476   6.236  14.420
22348W        W93964  12.625  40.380   2.231
22349W        W93965  22.026  16.816   2.177
22350W        W93966   9.880  11.238   2.628
22351W        W93967  42.286   5.248   4.394
22352W        W93968  23.716   3.755  12.092
22353W        W93969  32.468  28.938  11.956
22354W        W93970  23.752  16.770  11.142
22355W        W93971  13.708  27.520   4.637
22356W        W93972   2.192  34.471   1.739
22357W        W93973   1.993  35.040  12.374
22358W        W93974   4.823  14.621  12.241
22359W        W93975   4.008  19.654  11.642
22360W        W93976  25.556   3.351   1.855
22361W        W93977   7.811  25.292   3.755
22362W        W93978   9.669  36.058  11.527
22363W        W93979  21.654  44.306  10.692
22364W        W93980  22.708  26.700  12.867
22365W        W93981  40.422  14.316   3.535
22366W        W93982  37.816   2.235  13.722
22367W        W93983  39.696  28.174  11.264
22368W        W93984  44.930   7.672  11.590
22369W        W93985  15.187  43.973   4.356
22370W        W93986   4.917  22.619  14.615
22371W        W93987   1.743   4.065  11.270
22372W        W93988  33.209  41.886  13.302
22373W        W93989  19.333  29.664  10.865
22374W        W93990   9.196  28.890  13.537
22375W        W93991  17.308  32.926   4.062
22376W        W93992  24.544  17.648  11.428
22377W        W93993  24.590  24.251   3.212
22378W        W93994  30.193  40.343  12.814
22379W        W93995  23.201  17.365   4.275
22380W        W93996  44.097  34.086   2.003
22381W        W93997  36.867  39.203  12.464
22382W        W93998  18.159  22.161   3.172
22383W        W93999  21.613  43.544   0.243
22384W        W94000  34.374  42.834   4.524
22385W        W94001  24.190  23.365  13.588
22386W        W94002  16.813  40.081  13.893
22387W        W94003  11.694  31.465  13.372
22388W        W94004  43.304   7.705   4.868
22389W        W94005  37.573  39.560   0.317
22390W        W94006  16.272  11.690  12.956
22391W        W94007  32.811  24.738   2.685
22392W        W94008  36.614  19.246   2.481
22393W        W94009  11.324  29.206  11.711
22394W        W94010  42.988  11.936  13.470
22395W        W94011  18.080  21.293   4.608
22396W        W94012  25.900  25.601  12.173
22397W        W94013  34.458  13.126  13.245
22398W        W94014   6.448   9.825  13.027
22399W        W94015  34.635  43.595  13.869
22400W        W94016  16.334  17.094  12.490
22401W        W94017  40.309   1.432   3.810
22402W        W94018  13.256  30.079   2.911
22403W        W94019  30.242   2.832  12.054
22404W        W94020  28.151  36.445  11.997
22405W        W94021  29.693  35.522   4.862
22406W        W94022  31.605   2.410  12.533
22407W        W94023  18.419  18.576   1.570
22408W        W94024  37.490  33.842   0.803
22409W        W94025  24.735  19.076   1.714
22410W        W94026   6.444  38.783   2.264
22411W        W94027  14.743   8.646   1.737
22412W        W94028   0.225   4.921   0.454
22413W        W94029  29.378  27.668   4.686
22414W        W94030  22.796   2.914   0.834
22415W        W94031   4.029   6.124  12.497
22416W        W94032  20.819  28.126  13.033
22417W        W94033  34.910  25.550  13.323
22418W        W94034  38.262  41.550   1.348
22419W        W94035   9.802  33.965   3.535
22420W        W94036  30.954  27.916   5.029
22421W        W94037  18.828  32.488  11.074
22422W        W94038   5.317  42.416  12.096
22423W        W94039   9.655  13.572   3.830
22424W        W94040  36.840   7.819   3.767
22425W        W94041  12.386   8.184  12.633
22426W        W94042  17.061  31.081  11.589
22427W        W94043  31.722  10.326   0.628
22428W        W94044   4.725  20.058  13.295
22429W        W94045   4.264   9.693  10.885
22430W        W94046   1.117   5.428   4.278
22431W        W94047  13.324   1.662   2.215
22432W        W94048  34.521  37.489  14.365
22433W        W94049   8.105  20.680  14.705
22434W        W94050  12.288  40.781   4.665
22435W        W94051   7.639  22.012  14.505
22436W        W94052  16.112  39.522   2.234
22437W        W94053  12.842  39.522  13.571
22438W        W94054  36.314  19.039  14.440
22439W        W94055  28.672  26.201   0.343
22440W        W94056  15.308  29.110   2.341
22441W        W94057  42.992  29.245  11.125
22442W        W94058  26.059  38.734   2.614
22443W        W94059  34.155  38.347   2.671
22444W        W94060  30.328  21.688  10.700
22445W        W94061  21.122  38.591   9.943
22446W        W94062  41.803  25.712   4.602
22447W        W94063  23.558  33.387   4.124
22448W        W94064  19.542   1.772   3.269
22449W        W94065  33.119  15.551  11.096
22450W        W94066  37.281  12.864  12.485
22451W        W94067  33.798  41.126  14.426
22452W        W94068  37.999  33.001   4.564
22453W        W94069  41.405  16.229   3.686
22454W        W94070  39.947  25.680   1.307
22455W        W94071  17.693   5.626   4.677
22456W        W94072   1.275   9.165   3.694
22457W        W94073   1.909  24.288  14.892
22458W        W94074  22.221  34.181  12.071
22459W        W94075  34.573   8.700  14.582
22460W        W94076  25.129  35.425   2.426
22461W        W94077  22.996  23.965  13.703
22462W        W94078  23.612  24.857  12.467
22463W        W94079  37.684  30.471   0.313
22464W        W94080  38.550   5.786   4.000
22465W        W94081  10.651   4.925  11.829
22466W        W94082  36.898  33.064  14.769
22467W        W94083  26.005  10.621   0.440
22468W        W94084  36.324  32.860  14.059
22469W        W94085  28.701   8.451  10.711
22470W        W94086  11.178  23.164  11.113
22471W        W94087  18.143  40.101  10.747
22472W        W94088  11.480  26.694   4.654
22473W        W94089  34.060  17.179  12.435
22474W        W94090  27.891  14.346  11.229
22475W        W94091  37.983  23.710   5.081
22476W        W94092  11.357  20.815   2.739
22477W        W94093  17.341   0.468  12.396
22478W        W94094  16.354   3.361   2.947
22479W        W94095   6.412  43.755   3.212
22480W        W94096  18.103   1.754  12.101
22481W        W94097  34.677  34.518   2.896
22482W        W94098  33.535   7.332  13.792
22483W        W94099  16.816  23.491  11.605
22484W        W94100  31.013   8.945   1.209
22485W        W94101  25.243  39.841  13.014
22486W        W94102  36.912  34.165  14.789
22487W        W94103  11.246  33.543  13.760
22488W        W94104  28.388  44.497   1.676
22489W        W94105  34.590  43.948  11.628
22490W        W94106  36.068  34.176   2.720
22491W        W94107  26.290  12.937  14.463
22492W        W94108   5.291  25.499  14.252
22493W        W94109  28.978  19.362  13.678
22494W        W94110  43.858  33.744  11.944
22495W        W94111  41.618  36.575   2.825
22496W        W94112  12.599  17.751   3.219
22497W        W94113   1.727   4.039   3.633
22498W        W94114  23.270  28.833  12.436
22499W        W94115  26.767  12.126  11.134
22500W        W94116  32.087  36.835   3.923
22501W        W94117   6.302  37.493  12.920
22502W        W94118  25.096  16.404  11.149
22503W        W94119  23.121  24.700  12.518
22504W        W94120  20.652  18.575  13.322
22505W        W94121  25.669  44.825  11.356
22506W        W94122  40.684  30.591   2.725
22507W        W94123  12.224  32.987  12.459
22508W        W94124  27.609  29.191  11.572
22509W        W94125  10.364  44.988   1.282
22510W        W94126   9.311   6.866  10.685
22511W        W94127  44.721  10.242   1.155
22512W        W94128  39.960   5.511   3.657
22513W        W94129   9.730  14.543   4.194
22514W        W94130   9.948  24.014   3.220
22515W        W94131  36.363  31.075  10.744
22516W        W94132  43.298  31.404  13.320
22517W        W94133  25.901  37.433  11.264
22518W        W94134  32.981  18.306   3.643
22519W        W94135  44.053  19.315  13.312
22520W        W94136   3.672   7.204   2.305
22521W        W94137   4.592  35.412  13.096
22522W        W94138  23.043  43.964   2.716
22523W        W94139  36.403  43.352  12.021
22524W        W94140  15.583  34.052  14.691
22525W        W94141   1.562  31.523  14.505
22526W        W94142  10.064  30.179  13.881
22527W        W94143   0.514  28.104   3.436
22528W        W94144   0.711  43.533  12.167
22529W        W94145   9.117  42.875  13.412
22530W        W94146  27.127   4.440   4.529
22531W        W94147  17.890  43.792  10.980
22532W        W94148  31.127  24.599   2.900
22533W        W94149  39.987   2.656   2.181
22534W        W94150  19.327  22.596   1.914
22535W        W94151  36.993   8.378   0.742
22536W        W94152  22.911  12.613  14.048
22537W        W94153  29.005  12.564  13.872
22538W        W94154  22.979  34.438   1.726
22539W        W94155  44.489  44.209  13.950
22540W        W94156  21.766  15.282   2.871
22541W        W94157  38.440  38.974  11.229
22542W        W94158  38.532   1.800   3.877
22543W        W94159  12.771  37.977  11.465
22544W        W94160   7.823   7.261  12.485
22545W        W94161  36.404  13.134   4.316
22546W        W94162  33.079   8.349   4.514
22547W        W94163  41.539  12.358  11.949
22548W        W94164  26.209  28.468  13.499
22549W        W94165  10.107  34.620   4.226
22550W        W94166  32.709  26.640  14.374
22551W        W94167   0.973  12.171   4.062
22552W        W94168  11.617  30.612   0.265
22553W        W94169  28.039   0.914   0.542
22554W        W94170  22.577   2.201  11.269
22555W        W94171   9.869  19.252  14.215
22556W        W94172  29.146  12.278  10.501
22557W        W94173  43.011  21.470  12.094
22558W        W94174   1.358  28.638   4.681
22559W        W94175  25.051  13.416   3.342
22560W        W94176   5.259  31.989   1.855
22561W        W94177  26.616  39.033  11.561
22562W        W94178  38.169  44.183   2.847
22563W        W94179  32.933  21.232  13.062
22564W        W94180  17.620  24.067  14.454
22565W        W94181   0.983  12.699  13.980
22566W        W94182  25.683  15.261  10.541
22567W        W94183  40.516   0.067  14.206
22568W        W94184  29.813  28.349   3.672
22569W        W94185  21.199  32.718  12.134
22570W        W94186  13.273  37.717   0.240
22571W        W94187  30.490   5.295   2.490
22572W        W94188  33.236   5.329  11.331
22573W        W94189  26.472  15.815  12.937
22574W        W94190  30.850  31.881  11.902
22575W        W94191  21.179  30.956  11.851
22576W        W94192  23.191  36.564  14.602
22577W        W94193  22.598  32.298   5.322
22578W        W94194  10.234  36.835  10.645
22579W        W94195  34.588   9.225   1.340
22580W        W94196   7.387   5.204   2.755
22581W        W94197  33.224  22.698   4.734
22582W        W94198  44.738  41.539  10.799
22583W        W94199  28.540   4.313  14.839
22584W        W94200  27.883  39.308  11.639
22585W        W94201  38.526   5.427   0.446
22586W        W94202  39.642  28.920  10.522
22587W        W94203  39.426  12.787   3.326
22588W        W94204  10.777  10.855   2.831
22589W        W94205   2.716  19.653   3.015
22590W        W94206  38.646   4.009   3.181
22591W        W94207   5.839  18.610   0.002
22592W        W94208  36.012  36.085   2.837
22593W        W94209  38.044  20.173  11.229
22594W        W94210  30.291  44.437   4.972
22595W        W94211  15.908   8.289  12.484
22596W        W94212  12.914  29.221  14.663
22597W        W94213  39.921  35.830   0.790
22598W        W94214  42.888  41.314   0.923
22599W        W94215  34.965  32.011  12.026
22600W        W94216  32.197   2.344  11.197
22601W        W94217  21.605   9.560   2.805
22602W        W94218  16.071   7.831  14.825
22603W        W94219   1.877  25.236  10.846
22604W        W94220  21.489   8.236  14.071
22605W        W94221  30.928  37.895  10.443
22606W        W94222   0.822  16.825  10.801
22607W        W94223  26.295  19.623   3.656
22608W        W94224  25.962   9.306   1.109
22609W        W94225  32.609  36.089   2.649
22610W        W94226   0.770  31.985   0.545
22611W        W94227  29.091  21.780   2.307
22612W        W94228  23.802   5.222   2.660
22613W        W94229  10.017   8.395  11.997
22614W        W94230  29.989  22.320   4.210
22615W        W94231  19.318  15.276   3.750
22616W        W94232  33.509  19.681   1.736
22617W        W94233  37.309   5.037   1.696
22618W        W94234  23.398  29.752   0.334
22619W        W94235  27.986  18.333   4.573
22620W        W94236  29.381  37.028   1.843
22621W        W94237   2.816   1.331   1.016
22622W        W94238  32.075  34.657   5.043
22623W        W94239  17.684  39.817   3.876
22624W        W94240   4.231  10.735  12.526
22625W        W94241  28.169   3.568  12.102
22626W        W94242  36.136   9.685  14.855
22627W        W94243   2.172   8.176  13.088
22628W        W94244   6.925   2.174   0.662
22629W        W94245  36.180  37.823  12.061
22630W        W94246  28.677  35.058   3.671
22631W        W94247  23.290  41.746  11.482
22632W        W94248  27.191  29.910   4.769
22633W        W94249   0.472  35.525   0.011
22634W        W94250   9.708  13.280   0.896
22635W        W94251   2.801  32.507  12.153
22636W        W94252  34.962  28.793   4.762
22637W        W94253  26.503  21.051  14.227
22638W        W94254   4.970  19.041   1.307
22639W        W94255   7.211  12.790  14.731
22640W        W94256  13.256  12.668   3.877
22641W        W94257  10.533   5.181   2.293
22642W        W94258  17.250  44.997   9.784
22643W        W94259  16.492  43.884   3.225
22644W        W94260  40.410  26.323  11.079
22645W        W94261  25.154  33.584   3.747
22646W        W94262  19.547  42.858   3.312
22647W        W94263   4.916  26.916   4.003
22648W        W94264  13.182   2.940   2.733
22649W        W94265  15.511   0.895  13.417
22650W        W94266  40.504   3.615  14.131
22651W        W94267   8.066  41.030   3.111
22652W        W94268  23.619  10.090   0.755
22653W        W94269  40.640  31.345  12.420
22654W        W94270   9.280  35.698   2.231
22655W        W94271  11.242  44.911  11.514
22656W        W94272   6.460  37.507  14.489
22657W        W94273  17.040  44.307  13.975
22658W        W94274  39.613  33.897  14.509
22659W        W94275  23.582  35.432  12.280
22660W        W94276  43.239  18.657   0.845
22661W        W94277  20.580  21.082  13.372
22662W        W94278  15.421  31.012   1.531
22663W        W94279  36.478  35.870  12.921
22664W        W94280  13.151  44.221  10.431
22665W        W94281  13.396  11.397   1.153
22666W        W94282  10.927  15.603   3.179
22667W        W94283  19.687  34.078   0.251
22668W        W94284  26.915  35.576  10.536
22669W        W94285  10.704  29.844  13.981
22670W        W94286  18.106   6.236   3.348
22671W        W94287  43.074  34.890   4.029
22672W        W94288   9.680  16.276  10.908
22673W        W94289  35.834  28.779  12.066
22674W        W94290  24.616   0.290   4.870
22675W        W94291  25.300  15.605  10.534
22676W        W94292  33.172  19.236   3.806
22677W        W94293  14.145  30.239  12.942
22678W        W94294   6.722  21.737   0.824
22679W        W94295  11.631   4.022   2.287
22680W        W94296  16.145  34.386  11.127
22681W        W94297  27.525   1.537   0.944
22682W        W94298   9.241   9.798  13.820
22683W        W94299  32.462   5.727   2.324
22684W        W94300  37.113   3.918  12.045
22685W        W94301  29.676  34.851  12.459
22686W        W94302  13.047  16.207   2.857
22687W        W94303  21.004  12.090  13.975
22688W        W94304  36.199   8.910  14.179
22689W        W94305  30.982  11.245   4.035
22690W        W94306  13.612  12.320  11.771
22691W        W94307  10.967  36.095   2.139
22692W        W94308  18.897  17.983  10.512
22693W        W94309  23.907  41.216   4.578
22694W        W94310  42.881  39.117   2.088
22695W        W94311  20.376  19.245   3.948
22696W        W94312  25.453  34.024  11.347
22697W        W94313  42.509  41.008   2.289
22698W        W94314  36.583  13.268   3.614
22699W        W94315   0.582  27.196  11.511
22700W        W94316  37.618  21.516  12.961
22701W        W94317  23.099   2.172  13.591
22702W        W94318   7.443  44.947  12.896
22703W        W94319  27.521  21.620  13.227
22704W        W94320   7.052  33.959  12.417
22705W        W94321  35.590  40.893  12.610
22706W        W94322  20.811  10.883  14.380
22707W        W94323  20.290  29.738   3.189
22708W        W94324  17.075  13.798  10.723
22709W        W94325   0.808   9.273   1.826
22710W        W94326  26.099  36.991   3.873
22711W        W94327   5.393   8.145   1.310
22712W        W94328  37.087   5.493  14.891
22713W        W94329  44.804  18.698   2.128
22714W        W94330   7.748  15.586   2.684
22715W        W94331  21.658   3.864   0.104
22716W        W94332  37.120  43.873  10.557
22717W        W94333  23.022   6.406  11.083
22718W        W94334  35.364   6.423   1.718
22719W        W94335  32.953  37.692   3.257
22720W        W94336  21.505  28.851  11.112
22721W        W94337  17.583  37.742   3.726
22722W        W94338   9.897  30.497  11.009
22723W        W94339  29.150   4.781   3.194
22724W        W94340  20.708   5.803  14.988
22725W        W94341  12.297   4.228   3.245
22726W        W94342  36.517  32.681   3.891
22727W        W94343  31.530  38.546  10.968
22728W        W94344  43.376  41.741  13.031
22729W        W94345  15.135  17.217   5.015
22730W        W94346  14.156  36.740  13.864
22731W        W94347  17.583  18.679  10.686
22732W        W94348  11.737   9.796   0.331
22733W        W94349  16.298  27.225  11.715
22734W        W94350  28.670  37.531  10.156
22735W        W94351   3.902   7.699   0.909
22736W        W94352  32.696  22.596   4.665
22737W        W94353  23.490  34.434   1.401
22738W        W94354  25.116  11.846   2.360
22739W        W94355  15.152  21.466   0.664
22740W        W94356   4.272  43.399   2.726
22741W        W94357   5.356  26.497   1.844
22742W        W94358   5.240  14.124   3.235
22743W        W94359  22.864  44.157   1.876
22744W        W94360  37.988  16.263   1.776
22745W        W94361  22.279   6.664   4.096
22746W        W94362  21.258  27.877   2.780
22747W        W94363  12.061  26.223  12.566
22748W        W94364  35.769  28.540  13.965
22749W        W94365  44.366   4.031  11.986
22750W        W94366  11.791  42.968   1.827
22751W        W94367  15.859  40.600  11.565
22752W        W94368  28.639  12.617  14.921
22753W        W94369  20.026  20.770  12.418
22754W        W94370  15.776   1.886  13.069
22755W        W94371  25.044   5.270  13.568
22756W        W94372  32.135   0.211  14.253
22757W        W94373  11.512  33.849   2.598
22758W        W94374  10.764  23.576  13.521
22759W        W94375  11.220  23.620  11.308
22760W        W94376  33.107  23.881  11.616
22761W        W94377  39.571  13.589  12.434
22762W        W94378   9.889  11.300   1.707
22763W        W94379  39.586  40.095  11.117
22764W        W94380   7.114  33.947   0.743
22765W        W94381   8.883  32.424   0.777
22766W        W94382  25.850  22.538   1.986
22767W        W94383   7.593  12.376   2.242
22768W        W94384  34.123   6.141   0.480
22769W        W94385  20.116  40.586   3.826
22770W        W94386   1.338   6.362   3.324
22771W        W94387  38.185  16.559  13.176
22772W        W94388  42.290  32.004  11.587
22773W        W94389  22.564   7.547   1.017
22774W        W94390  14.253  19.218  11.990
22775W        W94391  33.464  27.466  14.329
22776W        W94392  28.089  29.647   3.928
22777W        W94393   4.552  30.131  13.403
22778W        W94394  34.057   3.910   1.434
22779W        W94395  10.735  10.818   1.797
22780W        W94396  44.727  28.540   1.204
22781W        W94397   4.145  44.982  12.368
22782W        W94398  36.365  31.963  10.692
22783W        W94399  36.112  36.040  11.973
22784W        W94400  40.687  44.879   0.246
22785W        W94401  37.372  18.030  13.021
22786W        W94402  29.903   5.643  13.288
22787W        W94403   2.624  41.515  12.194
22788W        W94404  39.851  15.721  10.932
22789W        W94405  24.457  20.799  12.098
22790W        W94406   9.872  20.375  12.063
22791W        W94407  27.177  18.205  11.895
22792W        W94408  39.473  39.927  13.310
22793W        W94409  13.165  41.414   2.886
22794W        W94410  41.595  27.919   2.791
22795W        W94411  25.924   3.008   2.069
22796W        W94412  33.731  15.835  12.019
22797W        W94413  15.221  41.458  11.714
22798W        W94414   4.428  26.044   2.280
22799W        W94415  31.313   8.032   2.684
22800W        W94416  40.280  24.730  14.868
22801W        W94417  36.318  34.412  13.369
22802W        W94418  42.248  23.048  10.872
22803W        W94419  16.317  35.600  13.013
22804W        W94420  26.519  42.056   2.416
22805W        W94421  28.933   4.186   4.162
22806W        W94422  16.763  29.414   3.274
22807W        W94423  10.385  13.895   3.771
22808W        W94424   4.835  28.258   4.107
22809W        W94425  36.304  13.734   4.926
22810W        W94426  32.438   5.171   4.902
22811W        W94427  15.317  32.892  11.949
22812W        W94428  24.151  42.573  13.379
22813W        W94429  19.832   2.064   5.000
22814W        W94430  40.781  12.224   2.762
22815W        W94431  34.280  24.949   2.999
22816W        W94432  17.064   3.507   2.392
22817W        W94433  34.352  24.131  11.940
22818W        W94434  19.294  16.687  11.207
22819W        W94435  13.308  44.891   4.457
22820W        W94436  29.258  37.919   4.670
22821W        W94437  40.302  42.524  14.053
22822W        W94438   3.982  43.445  10.285
22823W        W94439  25.927  21.094  10.622
22824W        W94440   8.235  25.473   3.294
22825W        W94441  21.973  13.517   3.100
22826W        W94442   7.376  41.108   3.045
22827W        W94443  14.576  35.543  12.008
22828W        W94444   1.952   5.510  13.460
22829W        W94445  19.060  29.838  12.088
22830W        W94446  15.664   5.459   3.225
22831W        W94447  42.317  11.195   2.622
22832W        W94448  15.677   6.539   4.139
22833W        W94449  25.720  44.334  14.383
22834W        W94450  20.030  16.141   3.354
22835W        W94451  30.576  31.655   1.753
22836W        W94452  41.213  32.346  10.490
22837W        W94453  10.452  31.475   3.123
22838W        W94454   0.915   6.915   4.882
22839W        W94455  34.880  18.057   1.413
22840W        W94456  31.558  42.104   4.616
22841W        W94457  21.019   4.382  11.395
22842W        W94458  19.004  36.200   0.367
22843W        W94459  43.238  20.103   1.328
22844W        W94460  26.921  10.325  12.540
22845W        W94461  35.942  16.498  12.569
22846W        W94462  39.068  13.075  13.397
22847W        W94463  14.888  26.102  11.997
22848W        W94464   6.778   1.283   0.176
22849W        W94465  40.053  37.879   0.212
22850W        W94466  41.848  43.751  12.394
22851W        W94467  25.616  40.554  12.853
22852W        W94468  35.334  27.657  14.317
22853W        W94469  44.054  11.867  14.805
22854W        W94470  29.051  14.045  10.025
22855W        W94471  44.290  21.306  14.937
22856W        W94472  15.200  33.944  11.710
22857W        W94473  10.766   4.378  11.969
22858W        W94474  10.451  39.739   2.404
22859W        W94475  41.031  18.877   2.244
22860W        W94476  22.512  37.997   3.285
22861W        W94477   2.411  23.822   4.217
22862W        W94478  23.976  12.737   1.669
22863W        W94479  42.037  29.964  11.157
22864W        W94480  10.182  33.696   4.609
22865W        W94481  18.846  44.932  11.586
22866W        W94482  34.115  15.027   2.642
22867W        W94483  19.551  40.792  12.013
22868W        W94484   8.732  10.308   4.936
22869W        W94485  23.157  12.663  10.965
22870W        W94486  41.759  21.069   2.155
22871W        W94487   7.736   5.930   1.680
22872W        W94488  14.668   5.691  13.483
22873W        W94489  13.184   6.373   1.850
22874W        W94490  40.965   8.768  14.945
22875W        W94491   4.966  22.742  13.096
22876W        W94492  18.982  32.868  13.479
22877W        W94493  26.137  12.921   4.688
22878W        W94494  20.194  29.047  12.423
22879W        W94495  43.357  20.777  10.662
22880W        W94496  34.816  31.916  10.744
22881W        W94497  17.404  39.905  13.003
22882W        W94498  16.694  40.586  11.195
22883W        W94499  36.925   4.150  10.707
22884W        W94500   0.314   0.768   0.389
22885W        W94501  24.645  44.875   3.645
22886W        W94502   0.759  34.607   1.227
22887W        W94503  42.875  16.303   2.881
22888W        W94504  35.243   0.545  11.450
22889W        W94505  34.545  18.782  13.899
22890W        W94506   9.146  44.020  10.584
22891W        W94507  15.636  19.237   0.559
22892W        W94508  16.875  33.656  10.744
22893W        W94509  43.812  37.970   2.515
22894W        W94510   5.645  17.837   0.991
22895W        W94511  24.109  16.674   4.523
22896W        W94512   1.893  35.623   4.235
22897W        W94513  22.731  25.413   1.429
22898W        W94514  16.593  44.509  10.019
22899W        W94515  36.287  35.800   0.347
22900W        W94516  18.822  44.431   0.887
22901W        W94517  39.126  22.171   1.746
22902W        W94518   2.814  13.881  13.751
22903W        W94519  34.437   1.957  12.120
22904W        W94520  29.895  10.634   1.754
22905W        W94521  19.816  18.347   0.918
22906W        W94522  10.976  15.290  11.335
22907W        W94523  15.204  38.090  11.734
22908W        W94524  32.648  36.519   4.711
22909W        W94525   9.221  43.328   1.751
22910W        W94526  35.482  38.005   1.709
22911W        W94527  22.226  34.637   2.835
22912W        W94528  23.510  22.614  12.932
22913W        W94529  26.710  39.257   4.139
22914W        W94530   9.332  13.599   2.622
22915W        W94531   6.698  10.302  14.370
22916W        W94532  15.233  18.065  13.805
22917W        W94533  15.072  35.473   1.480
22918W        W94534  35.689  18.193  11.426
22919W        W94535  34.077  38.094   4.570
22920W        W94536  23.246  35.611   3.663
22921W        W94537  27.105   1.791   4.622
22922W        W94538   0.846   9.831   4.355
22923W        W94539   8.666  24.699  12.721
22924W        W94540  16.058  19.340  10.924
22925W        W94541  10.402  13.814   0.806
22926W        W94542  12.944   1.567  11.548
22927W        W94543  20.179   5.961   4.354
22928W        W94544   6.895  26.594   1.344
22929W        W94545  39.385  14.224   1.344
22930W        W94546  21.519  14.753  10.719
22931W        W94547  18.058   3.889   4.945
22932W        W94548  18.720  33.658   0.392
22933W        W94549  29.044  17.299  12.324
22934W        W94550  16.022  18.997   5.543
22935W        W94551  21.048   0.044  10.984
22936W        W94552  41.391  18.538  11.927
22937W        W94553   0.274   1.895   2.791
22938W        W94554  20.250  23.839  10.988
22939W        W94555  14.837  16.622  13.861
22940W        W94556  38.533  26.201   1.290
22941W        W94557  40.292   0.521   1.867
22942W        W94558  21.974  41.977   1.395
22943W        W94559  33.781  16.665  13.149
22944W        W94560  24.720  15.575   2.790
22945W        W94561   7.383  31.078   4.385
22946W        W94562  23.605   6.653   2.825
22947W        W94563  24.435  40.058  11.042
22948W        W94564  43.360   9.906   0.349
22949W        W94565  13.496  16.853  10.671
22950W        W94566  33.500   0.671   3.509
22951W        W94567  36.588  12.446   1.673
22952W        W94568  18.256   6.184  14.842
22953W        W94569  28.882  15.703   5.031
22954W        W94570  32.905  39.070  14.905
22955W        W94571   1.087  35.669   4.536
22956W        W94572  15.740  17.783   3.784
22957W        W94573  18.358  33.951   2.721
22958W        W94574  22.924  34.050  11.374
22959W        W94575  19.244  43.543   1.593
22960W        W94576  36.075  29.482  12.541
22961W        W94577  29.062  36.064  14.529
22962W        W94578  28.617  31.037  13.253
22963W        W94579   5.313  25.589   4.637
22964W        W94580  39.444  14.714  11.030
22965W        W94581  33.522  35.255  12.805
22966W        W94582  17.991   0.855  10.797
22967W        W94583  33.595  22.292  13.389
22968W        W94584  13.533  15.040   1.442
22969W        W94585  27.278  20.718   0.346
22970W        W94586  40.269  12.257   2.691
22971W        W94587  21.699  37.110  14.844
22972W        W94588   2.361   8.345   0.826
22973W        W94589  25.095  35.832  14.822
22974W        W94590  44.355   3.946  14.246
22975W        W94591   2.741  10.269  14.817
22976W        W94592  28.727  14.711   4.270
22977W        W94593  24.059   8.678   5.008
22978W        W94594  44.278  30.113   4.274
22979W        W94595  36.541  17.172  13.104
22980W        W94596  32.378  32.897  14.903
22981W        W94597  33.854  20.957   3.083
22982W        W94598  17.550  29.729   1.265
22983W        W94599   0.601  22.679   5.470
22984W        W94600  13.526  28.744   1.252
22985W        W94601  40.851  14.093  13.323
22986W        W94602   1.260  27.955  10.569
22987W        W94603  31.566   5.452   3.696
22988W        W94604  44.914   5.346  14.445
22989W        W94605  37.189   3.421   4.910
22990W        W94606  29.940  37.019   4.912
22991W        W94607  27.599  37.133   1.507
22992W        W94608  29.544  16.476   3.189
22993W        W94609  11.304  44.437  14.849
22994W        W94610  23.524  44.484  11.062
22995W        W94611  21.650  18.588  10.697
22996W        W94612  26.477  22.750   0.795
22997W        W94613  32.572   5.223  14.395
22998W        W94614   7.058  33.415  10.281
22999W        W94615  31.622  42.362  13.478
23000W        W94616  36.480   7.192  12.149
23001W        W94617  16.767  32.774   1.326
23002W        W94618  41.313   3.175   2.924
23003W        W94619   0.150   5.912  13.355
23004W        W94620  36.192  19.080   1.648
23005W        W94621  31.024  30.639   9.560
23006W        W94622  40.405  26.696   1.305
23007W        W94623  42.760  25.570  13.752
23008W        W94624  31.611  21.203  12.328
23009W        W94625   2.234  39.384  12.898
23010W        W94626  40.928   0.618   2.290
23011W        W94627  28.538   6.957  14.790
23012W        W94628  39.384  37.027  12.885
23013W        W94629  44.836  27.651   2.393
23014W        W94630  19.601  42.947   2.359
23015W        W94631  35.936  37.630  12.484
23016W        W94632  21.040   9.416  10.646
23017W        W94633  17.796  41.089  11.850
23018W        W94634   6.851  41.286  12.076
23019W        W94635   8.795  32.065   1.805
23020W        W94636  34.131  13.653  13.489
23021W        W94637  30.683  13.357  14.570
23022W        W94638  22.883   7.745   3.728
23023W        W94639  34.091  18.953  14.552
23024W        W94640  25.138  11.757   4.369
23025W        W94641  21.288  24.201   4.128
23026W        W94642   8.412   6.236  11.696
23027W        W94643   0.114  35.396  14.377
23028W        W94644  33.428   8.834  10.202
23029W        W94645  33.655  36.115  13.280
23030W        W94646  40.964  33.490   0.929
23031W        W94647  13.310  44.069  13.908
23032W        W94648   1.150  12.736  11.566
23033W        W94649  15.068  30.772  13.841
23034W        W94650  40.285   1.017  13.903
23035W        W94651  11.416  13.845   4.541
23036W        W94652  35.014   0.623  13.026
23037W        W94653  33.332  44.955  10.520
23038W        W94654   2.247   3.947   0.262
23039W        W94655  14.553  20.583  13.342
23040W        W94656  13.817  18.696  14.950
23041W        W94657  12.765  30.134  14.761
23042W        W94658  42.762  30.633  12.024
23043W        W94659  13.668  29.105  12.052
23044W        W94660  44.576   2.698  11.608
23045W        W94661  25.230  31.592  14.396
23046W        W94662   5.155  15.861  11.569
23047W        W94663  42.950  21.442   0.722
23048W        W94664  37.779  43.090   0.789
23049W        W94665  13.676  10.528  13.049
23050W        W94666  36.072  17.826  10.625
23051W        W94667  44.875  27.442  11.605
23052W        W94668  11.448   1.183  11.831
23053W        W94669  41.268  17.157   2.719
23054W        W94670  29.141   2.877   0.767
23055W        W94671  25.255  38.205   2.776
23056W        W94672   6.193  43.443  14.739
23057W        W94673  10.524  18.292   3.492
23058W        W94674  38.595   5.305   2.258
23059W        W94675   7.186  40.526  14.392
23060W        W94676  43.829  22.473  13.899
23061W        W94677  13.115  34.184  14.500
23062W        W94678  13.164  24.407  11.524
23063W        W94679   0.648   2.974   1.859
23064W        W94680  44.335  17.067  13.388
23065W        W94681   7.708  10.958   4.044
23066W        W94682   2.902  26.037   4.576
23067W        W94683   8.582  44.312  14.446
23068W        W94684  32.185  15.199  11.975
23069W        W94685   0.201  33.106   3.700
23070W        W94686   3.197  44.791   3.274
23071W        W94687  30.857  18.830  11.670
23072W        W94688  12.367  44.354   0.970
23073W        W94689   0.937  42.379   2.310
23074W        W94690  22.120  15.113   4.548
23075W        W94691  33.445  15.819   0.308
23076W        W94692  40.837  35.093   2.190
23077W        W94693  38.631   2.186  13.221
23078W        W94694  29.166  32.266   2.813
23079W        W94695  20.090  22.058   4.370
23080W        W94696   8.659  25.629  11.260
23081W        W94697  18.017  34.472  10.751
23082W        W94698  27.753  12.949   3.212
23083W        W94699  33.572  33.046   3.945
23084W        W94700  21.767   6.570  11.538
23085W        W94701  29.588   8.405   1.272
23086W        W94702  26.529  20.906   1.403
23087W        W94703   7.319  18.477   3.651
23088W        W94704  40.404  28.053   1.648
23089W        W94705  44.491  14.108   3.153
23090W        W94706  15.200   5.382   2.166
23091W        W94707  41.810  34.402   3.108
23092W        W94708  15.206   6.921  10.618
23093W        W94709   3.487   9.671  12.016
23094W        W94710  28.031   5.815   9.443
23095W        W94711  22.531  36.127  12.023
23096W        W94712  23.373  21.181  12.548
23097W        W94713   8.771  22.637  14.493
23098W        W94714  11.609   4.057  10.784
23099W        W94715  17.579  33.214   3.672
23100W        W94716  20.815   0.903   4.588
23101W        W94717   3.914  26.776   3.473
23102W        W94718  42.891  36.145  11.876
23103W        W94719  30.879  30.580  10.083
23104W        W94720  20.136  19.047  13.886
23105W        W94721  23.565  36.767   4.222
23106W        W94722   9.782   4.774   2.637
23107W        W94723   5.713  27.021   4.701
23108W        W94724  19.111   8.912   0.774
23109W        W94725   8.198  21.128  10.528
23110W        W94726   0.362   8.322   1.215
23111W        W94727  41.004  38.794  11.043
23112W        W94728  24.535   1.516  14.793
23113W        W94729   2.299  20.575   4.818
23114W        W94730  33.452  13.206   1.243
23115W        W94731  33.046  17.141  12.856
23116W        W94732  14.144  41.326  11.059
23117W        W94733  29.233  34.038   2.561
23118W        W94734  30.051  31.161   0.529
23119W        W94735  10.200  20.518   3.246
23120W        W94736  23.187  13.591   3.655
23121W        W94737  35.630  29.050  13.137
23122W        W94738   2.492  15.242   1.733
23123W        W94739  33.186  32.059   4.730
23124W        W94740  23.170   1.268  14.799
23125W        W94741   0.065  10.678   4.678
23126W        W94742  31.244  41.844  11.494
23127W        W94743   7.430   6.254   2.838
23128W        W94744  10.674  32.814  11.340
23129W        W94745  13.956  39.022   0.512
23130W        W94746   0.252   8.216   4.174
23131W        W94747  29.425  22.260   4.330
23132W        W94748  16.812  42.549  14.898
23133W        W94749  20.086  22.999  13.060
23134W        W94750  20.019   4.385   2.441
23135W        W94751  33.955  21.283  10.304
23136W        W94752  15.290  33.843   0.077
23137W        W94753  14.339  40.203  14.355
23138W        W94754  13.621   0.733   1.444
23139W        W94755  34.579  19.043  11.894
23140W        W94756  28.166   9.614  13.041
23141W        W94757  32.847  21.469   0.838
23142W        W94758  12.634  18.126   2.870
23143W        W94759  12.414  15.243  13.503
23144W        W94760  26.676   7.790  11.543
23145W        W94761  44.519  21.938  10.311
23146W        W94762  21.781  36.345   4.251
23147W        W94763  44.681  21.781   0.562
23148W        W94764  10.813   5.613  14.121
23149W        W94765  35.325  20.822   0.334
23150W        W94766  19.521   1.373   0.158
23151W        W94767   1.505   7.028   1.398
23152W        W94768  21.008  19.956  10.675
23153W        W94769  37.031   0.416   1.755
23154W        W94770  13.508  24.067   1.869
23155W        W94771  38.995   8.929   0.009
23156W        W94772   9.201  44.348   4.418
23157W        W94773  32.216   8.369  12.362
23158W        W94774   6.370   1.474   4.642
23159W        W94775  16.597  19.560  14.858
23160W        W94776   6.161  24.281   0.208
23161W        W94777   6.151   4.238   4.307
23162W        W94778   5.019   4.375   3.619
23163W        W94779  23.488  31.130   3.783
23164W        W94780   5.389  41.967  10.684
23165W        W94781  43.411  17.962  14.189
23166W        W94782   8.372  33.614  13.713
23167W        W94783  35.172  40.923  11.820
23168W        W94784  21.270  24.086  14.264
23169W        W94785   1.880  37.958  13.854
23170W        W94786  28.076  11.082   2.291
23171W        W94787  13.205  32.295   1.688
23172W        W94788  34.828  38.992   0.423
23173W        W94789   6.133  27.285  11.603
23174W        W94790  43.491  18.815   2.675
23175W        W94791  43.427  37.621  13.063
23176W        W94792  20.613  19.802  13.954
23177W        W94793  44.455  13.150  12.493
23178W        W94794  30.607  24.565   1.895
23179W        W94795  20.472  25.617  11.376
23180W        W94796  15.327   1.173   0.313
23181W        W94797   7.865  41.946   4.262
23182W        W94798  44.475   7.953  11.530
23183W        W94799   8.426  44.293  11.585
23184W        W94800  44.783  36.848  11.890
23185W        W94801  42.353  23.765  14.348
23186W        W94802  16.167  15.512  12.372
23187W        W94803  32.616  20.297  14.231
23188W        W94804   6.456  36.757   1.623
23189W        W94805  41.432  21.710   4.713
23190W        W94806  27.563   4.821   1.292
23191W        W94807  28.024  26.601  13.980
23192W        W94808  36.910   6.524   0.015
23193W        W94809  25.015   3.654  11.624
23194W        W94810  24.075  19.608  13.436
23195W        W94811   4.503  34.076   3.264
23196W        W94812  30.694  15.862  11.015
23197W        W94813   5.237  42.251   2.799
23198W        W94814  26.190  43.106  13.820
23199W        W94815  21.699  29.690  12.156
23200W        W94816  43.223  27.975   4.612
23201W        W94817  31.713  37.574  11.758
23202W        W94818  26.461   1.207   0.074
23203W        W94819  31.857   5.634  12.352
23204W        W94820   5.735  39.864   4.374
23205W        W94821  44.968  17.260  14.882
23206W        W94822  26.427   1.996  12.064
23207W        W94823  10.870  16.372  13.189
23208W        W94824  20.501  17.140  14.695
23209W        W94825  40.302  15.831  12.135
23210W        W94826  33.577  42.082   2.677
23211W        W94827  16.628  27.893  14.960
23212W        W94828   4.853  24.423  11.208
23213W        W94829   3.533  43.086   2.493
23214W        W94830  30.602  11.264  14.775
23215W        W94831  31.203  13.167   3.555
23216W        W94832   8.510  44.740  11.183
23217W        W94833  13.844  16.870  13.101
23218W        W94834  36.055   3.452  13.413
23219W        W94835  31.494  42.403   1.275
23220W        W94836   2.514  22.474   0.013
23221W        W94837   3.199  27.427   3.657
23222W        W94838   6.689  32.011  14.179
23223W        W94839  22.449  26.354  14.892
23224W        W94840  41.579   7.139   1.304
23225W        W94841   0.402   2.172  11.127
23226W        W94842  22.634  30.613   4.087
23227W        W94843  20.933  16.299   1.932
23228W        W94844  22.753  17.680   0.749
23229W        W94845  34.364  18.326   1.375
23230W        W94846  37.032  16.075  11.934
23231W        W94847   1.988  19.166   3.625
23232W        W94848  35.537  21.657  14.320
23233W        W94849  38.646   7.785   2.397
23234W        W94850  27.573   1.836   4.383
23235W        W94851  24.756  42.547  12.472
23236W        W94852   8.706  44.423   4.273
23237W        W94853   5.064  26.222  13.101
23238W        W94854  42.296  17.309   1.804
23239W        W94855  12.102   5.724  14.196
23240W        W94856  40.888  23.817  11.661
23241W        W94857   7.884  31.529   2.840
23242W        W94858  10.212  37.086   4.360
23243W        W94859  33.407  40.016   3.859
23244W        W94860  16.088  22.985  14.832
23245W        W94861  38.585  25.530  12.990
23246W        W94862   4.359   1.255  14.450
23247W        W94863   2.265  12.853   0.414
23248W        W94864  20.227  12.656   3.492
23249W        W94865  42.754   3.894   5.082
23250W        W94866  44.434  15.150   4.153
23251W        W94867  17.071  33.891   1.836
23252W        W94868  37.870  44.061   2.402
23253W        W94869  27.736  10.201   2.232
23254W        W94870   3.755  28.599   4.778
23255W        W94871  31.128   8.794  11.885
23256W        W94872  21.843  36.951  12.008
23257W        W94873   7.605  13.631  14.984
23258W        W94874  44.054  41.418  14.933
23259W        W94875   3.340   2.409  12.173
23260W        W94876  27.568  34.254   0.348
23261W        W94877   8.644  24.735  12.105
23262W        W94878  42.936  26.658   3.383
23263W        W94879  27.543  26.671   1.365
23264W        W94880  13.295  42.346  13.512
23265W        W94881  28.781  13.241   0.319
23266W        W94882   7.318  16.766  13.873
23267W        W94883   4.935  12.670   2.696
23268W        W94884  29.083  36.754   0.677
23269W        W94885  14.875  14.764   3.966
23270W        W94886  15.684  25.577   0.047
23271W        W94887  35.194  37.043   0.433
23272W        W94888  16.192  13.320   1.879
23273W        W94889  31.979  15.841  14.429
23274W        W94890  26.684  30.312  11.975
23275W        W94891  13.676  18.861  14.112
23276W        W94892   8.933  13.264   2.719
23277W        W94893   0.339   8.228  13.254
23278W        W94894  35.436  36.922   2.685
23279W        W94895  10.616   0.792  14.939
23280W        W94896  36.953  24.564   0.224
23281W        W94897  40.898  32.953  13.746
23282W        W94898  20.217   5.645  12.230
23283W        W94899  18.423  39.062   2.523
23284W        W94900   0.887   2.634  12.843
23285W        W94901  40.414  37.662  12.507
23286W        W94902  25.247  28.779  13.942
23287W        W94903  33.026  21.555  12.387
23288W        W94904  25.542  42.731  10.666
23289W        W94905  43.509  35.590  14.866
23290W        W94906  25.479   0.445   3.732
23291W        W94907  42.889  30.503   2.908
23292W        W94908  29.329  18.017   2.736
23293W        W94909  15.261  30.487   2.249
23294W        W94910  20.605  34.210  12.506
23295W        W94911  28.115  13.812   2.343
23296W        W94912  41.792  38.546  13.764
23297W        W94913   1.913  22.237   2.185
23298W        W94914   2.518   1.047  12.894
23299W        W94915   6.863  43.650   1.764
23300W        W94916  24.681   2.819  11.585
23301W        W94917   4.027  39.726  11.166
23302W        W94918  28.893  37.140  10.417
23303W        W94919  43.970  37.004  12.407
23304W        W94920  15.285  14.934  11.942
23305W        W94921  38.843  17.826  13.899
23306W        W94922   7.173  21.173  14.537
23307W        W94923  31.035  31.078  13.440
23308W        W94924  42.346   5.392   1.249
23309W        W94925   6.677  42.849  13.935
23310W        W94926  27.134  19.070  13.832
23311W        W94927  25.862  17.798   3.422
23312W        W94928  15.162  23.256   0.007
23313W        W94929  43.016  40.817   4.123
23314W        W94930  17.078  25.191   0.479
23315W        W94931  21.137  13.631  14.339
23316W        W94932  42.486  20.482   2.422
23317W        W94933  27.755  20.170  14.072
23318W        W94934  35.455   0.031   1.362
23319W        W94935  32.977  33.811   0.829
23320W        W94936  37.282  20.570  12.946
23321W        W94937  26.583  13.197  11.203
23322W        W94938  37.878  15.116  12.397
23323W        W94939  25.286  14.278   4.330
23324W        W94940   5.632  32.498   0.356
23325W        W94941  14.175  27.347  13.750
23326W        W94942   3.301  13.557  12.918
23327W        W94943   1.358  41.101  12.671
23328W        W94944  14.018   8.775  14.855
23329W        W94945   0.742  42.918  13.404
23330W        W94946  42.608  30.996  13.018
23331W        W94947  37.935   2.464   1.374
23332W        W94948  15.394  30.079   4.495
23333W        W94949   9.285  32.962   0.472
23334W        W94950  14.067  22.797   3.664
23335W        W94951  18.791  23.714  10.910
23336W        W94952   0.981  17.611   0.562
23337W        W94953  42.533   7.273  11.585
23338W        W94954  11.342   5.375  11.236
23339W        W94955  40.038  29.058   2.608
23340W        W94956  12.624   8.779  10.947
23341W        W94957  28.483  10.474   0.300
23342W        W94958  10.321  39.449   1.178
23343W        W94959  27.717   6.247  12.357
23344W        W94960  27.357  19.231  11.937
23345W        W94961   8.735  24.957   0.394
23346W        W94962  37.061  44.615  11.045
23347W        W94963  24.536   9.735   1.972
23348W        W94964  28.044  31.517   4.642
23349W        W94965  30.808  39.670  12.038
23350W        W94966  32.377   5.708  14.556
23351W        W94967  33.711   1.736   2.752
23352W        W94968   6.325  17.640   2.740
23353W        W94969   4.000  33.109  11.108
23354W        W94970  44.334  28.098  10.074
23355W        W94971  15.962  42.653   4.680
23356W        W94972  13.390   3.295  11.223
23357W        W94973  28.616  25.050   2.803
23358W        W94974  28.957  30.998  12.043
23359W        W94975  12.120  31.526   2.660
23360W        W94976  39.813  27.740   2.861
23361W        W94977  15.407  17.557  12.362
23362W        W94978  31.709  38.936  10.660
23363W        W94979  29.430   2.704   4.598
23364W        W94980   4.432   6.312  13.323
23365W        W94981  25.702   0.824   4.150
23366W        W94982   3.723  10.274  14.863
23367W        W94983  15.083  31.296  10.605
23368W        W94984   4.894  18.542   2.277
23369W        W94985   3.784  42.994  10.100
23370W        W94986  22.622  36.418   2.777
23371W        W94987  29.822  29.702   4.117
23372W        W94988  26.942  44.010   4.620
23373W        W94989  23.694  26.024   0.450
23374W        W94990  34.050   9.246   3.137
23375W        W94991  44.938  19.062  12.511
23376W        W94992  35.922  16.678   2.206
23377W        W94993  35.370  10.412  10.647
23378W        W94994   0.523  34.478   2.334
23379W        W94995  23.541  43.382   1.256
23380W        W94996  30.863   4.184   3.212
23381W        W94997  43.971  39.231  10.741
23382W        W94998  44.364   3.684  10.767
23383W        W94999   0.691  33.992  12.182
23384W        W95000  20.295  12.656   4.022
23385W        W95001  22.997  35.121   4.543
23386W        W95002  39.257  23.095  10.627
23387W        W95003  10.291  38.918   2.411
23388W        W95004  44.694  43.825  13.188
23389W        W95005  16.787  18.497  12.155
23390W        W95006  28.352  32.490   0.481
23391W        W95007   3.386   0.436   4.633
23392W        W95008  10.395  32.115   3.853
23393W        W95009  38.288  34.867  14.389
23394W        W95010   5.697   8.823  10.584
23395W        W95011  15.540  43.343  13.725
23396W        W95012   7.286  10.162   2.655
23397W        W95013  14.603   5.848  12.480
23398W        W95014  32.903  34.065  12.904
23399W        W95015  20.493  30.372  12.040
23400W        W95016   7.734  31.607  10.815
23401W        W95017  40.163  20.621  10.468
23402W        W95018  28.359   8.334   4.137
23403W        W95019  44.751  13.225  14.068
23404W        W95020  31.181  20.218  12.885
23405W        W95021  34.919  13.632   3.598
23406W        W95022  24.728   4.873   0.686
23407W        W95023   3.829  33.988  14.389
23408W        W95024  34.339  19.898   1.231
23409W        W95025   3.882  24.898  14.363
23410W        W95026  23.094  17.068  14.901
23411W        W95027  39.324  24.711  10.532
23412W        W95028  14.220  17.740  11.942
23413W        W95029   7.695  31.088   1.673
23414W        W95030  15.345  20.660   3.666
23415W        W95031   2.912  32.701  14.962
23416W        W95032  28.192  17.360  12.671
23417W        W95033  19.746   4.190  12.697
23418W        W95034   5.759  33.401   1.452
23419W        W95035  11.076   2.305   4.566
23420W        W95036  43.524  24.774  12.020
23421W        W95037   0.254  36.791   3.179
23422W        W95038  42.559  29.330   0.869
23423W        W95039  40.007   2.251   1.852
23424W        W95040  36.533  44.295   0.389
23425W        W95041  14.321  42.415  13.332
23426W        W95042  36.787   6.161   3.523
23427W        W95043  25.247  40.957  10.453
23428W        W95044  14.423  33.033  11.263
23429W        W95045  32.903  17.098   4.320
23430W        W95046  30.385  20.820  12.109
23431W        W95047  44.534  20.246  13.066
23432W        W95048  22.428  34.857  12.757
23433W        W95049  34.971  41.765  12.908
23434W        W95050  42.281  44.955  12.769
23435W        W95051  41.304  10.726   2.834
23436W        W95052  29.499  11.628  13.495
23437W        W95053  32.076  15.072   0.853
23438W        W95054   1.497  38.584   0.948
23439W        W95055  25.292  27.986  13.473
23440W        W95056  44.329  28.018  12.024
23441W        W95057  26.460  14.603   0.316
23442W        W95058  25.534  14.073   0.194
23443W        W95059  15.319  30.649   3.691
23444W        W95060  17.814  44.281  13.312
23445W        W95061  40.898  17.592  12.928
23446W        W95062  15.508  36.319   0.919
23447W        W95063  39.111  26.581   3.687
23448W        W95064  37.598  33.051  12.403
23449W        W95065  29.539  32.943  10.640
23450W        W95066  12.666  35.203  12.468
23451W        W95067  20.631  39.849   3.548
23452W        W95068  22.285  11.887  10.972
23453W        W95069  32.373  26.522   0.914
23454W        W95070  44.740   6.625  13.424
23455W        W95071   8.258  18.701   3.190
23456W        W95072  29.509  27.844   2.715
23457W        W95073   2.195  34.418  13.121
23458W        W95074   3.093  16.421  13.412
23459W        W95075  26.720  12.471   1.849
23460W        W95076  35.011  24.723  12.022
23461W        W95077   9.406  12.728  11.262
23462W        W95078  44.226  20.211  11.574
23463W        W95079  13.393  25.930  12.392
23464W        W95080   3.178  30.484   1.906
23465W        W95081  25.615   0.334  11.490
23466W        W95082  43.371   5.919  14.833
23467W        W95083  42.392  36.838   3.325
23468W        W95084  22.625   1.418  10.670
23469W        W95085  24.052   0.899   3.519
23470W        W95086  24.063  15.416  11.579
23471W        W95087  26.674  44.675   3.656
23472W        W95088  20.765  11.662   2.782
23473W        W95089   4.936  36.469   4.001
23474W        W95090  21.232  37.881  12.871
23475W        W95091   3.824  28.458   2.887
23476W        W95092  32.047  40.860  11.496
23477W        W95093  44.936  14.254  12.938
23478W        W95094   0.021  37.598   1.098
23479W        W95095  35.530  30.598  10.864
23480W        W95096   7.637   9.818  13.939
23481W        W95097   6.309  10.116  10.630
23482W        W95098  27.234  40.562   2.602
23483W        W95099  36.347  43.175   0.890
23484W        W95100   6.801  22.776   1.927
23485W        W95101  44.501  37.081  12.261
23486W        W95102   3.339   4.443   2.406
23487W        W95103  28.032  39.833  14.410
23488W        W95104   7.852   0.183   4.936
23489W        W95105   3.200  31.329   2.245
23490W        W95106  25.402  25.480  12.186
23491W        W95107   8.939   7.462  13.348
23492W        W95108  16.509  38.489   3.069
23493W        W95109  21.534  26.446  14.556
23494W        W95110  23.107  25.465   2.801
23495W        W95111  42.906  30.354  10.296
23496W        W95112  42.865  24.250   2.007
23497W        W95113  23.589  30.521  14.548
23498W        W95114  31.318  16.276   2.557
23499W        W95115   2.714  43.466   9.836
23500W        W95116  36.007  14.287  10.629
23501W        W95117  13.801  30.173   1.222
23502W        W95118  40.863  26.207  12.183
23503W        W95119   8.706  34.433   3.396
23504W        W95120  33.562  26.697   1.800
23505W        W95121  39.896  15.012  12.979
23506W        W95122  21.075   9.966  11.623
23507W        W95123  14.885  37.268   3.276
23508W        W95124  39.460  30.284  10.768
23509W        W95125  16.979  32.910  13.301
23510W        W95126  17.694  23.686   2.232
23511W        W95127  21.133   7.183   4.832
23512W        W95128  36.553  22.646   1.451
23513W        W95129   1.764   5.337   3.089
23514W        W95130  29.574  23.114   4.376
23515W        W95131   4.530  23.711  13.453
23516W        W95132  38.491  10.243   1.752
23517W        W95133   5.397   0.478  13.045
23518W        W95134  23.276  29.569  14.380
23519W        W95135   9.307   4.005   3.484
23520W        W95136  38.645   5.413   3.115
23521W        W95137  21.980  19.792  12.953
23522W        W95138   7.186  35.410  14.912
23523W        W95139  27.254   0.987  13.434
23524W        W95140  11.816   1.361   1.677
23525W        W95141  32.976  28.073   3.222
23526W        W95142   4.397  36.432   2.199
23527W        W95143  31.032  40.490   3.446
23528W        W95144  37.979  41.061  14.263
23529W        W95145  14.666   0.719   3.405
23530W        W95146   2.034  37.674  13.427
23531W        W95147   2.738  41.715   3.128
23532W        W95148  41.635  13.604  11.253
23533W        W95149  40.396  33.320   0.292
23534W        W95150  12.498  20.537  13.379
23535W        W95151  22.319   1.857   0.774
23536W        W95152  21.984  20.115   2.406
23537W        W95153  14.764  31.156   3.232
23538W        W95154   2.860  23.754  14.849
23539W        W95155   1.957  24.708  11.489
23540W        W95156  41.945  32.070   2.125
23541W        W95157   1.792  11.078   1.268
23542W        W95158  35.606   1.743   2.802
23543W        W95159  20.139  40.080  13.399
23544W        W95160  15.838  10.942  11.010
23545W        W95161  16.592  10.800   1.320
23546W        W95162   2.699  33.010   2.693
23547W        W95163  27.858   7.274  11.901
23548W        W95164  16.125  14.513   4.138
23549W        W95165  43.031  26.007  11.612
23550W        W95166  13.250  10.353  12.822
23551W        W95167  43.601  35.261   4.996
23552W        W95168  18.332  24.003  11.104
23553W        W95169  27.502  12.305  14.310
23554W        W95170  15.534   2.890   4.493
23555W        W95171  10.076  41.953  13.040
23556W        W95172  30.703  37.325   2.749
23557W        W95173  34.292  19.214  13.773
23558W        W95174  23.158  30.657   3.238
23559W        W95175   9.452  10.116  14.743
23560W        W95176  17.821  19.672   0.350
23561W        W95177  30.636  24.462   0.971
23562W        W95178  41.790   6.403  14.415
23563W        W95179  42.056  27.775  11.768
23564W        W95180  33.890  27.018   1.492
23565W        W95181   5.812  33.305   2.377
23566W        W95182  39.013  31.152  13.076
23567W        W95183  37.388  40.333  14.754
23568W        W95184  43.764  20.216  11.863
23569W        W95185   3.656   6.310  14.910
23570W        W95186   1.235   6.697   1.760
23571W        W95187   7.300  31.714   1.183
23572W        W95188  21.289  39.261   3.246
23573W        W95189  44.174  28.164  11.529
23574W        W95190   3.726   6.019   3.712
23575W        W95191  42.959  14.095   4.878
23576W        W95192  17.300   6.501  13.563
23577W        W95193  23.613  15.385  13.895
23578W        W95194  20.278  26.631  10.524
23579W        W95195  10.897  42.297   3.292
23580W        W95196  36.461   7.879   4.125
23581W        W95197  33.057  20.256   1.423
23582W        W95198  17.118  33.671   0.597
23583W        W95199  41.427  10.723   1.711
23584W        W95200  30.547   9.501   4.162
23585W        W95201   3.296  31.789   4.347
23586W        W95202  26.320   8.976   1.266
23587W        W95203  29.718  19.630  11.530
23588W        W95204  19.500  22.260  12.787
23589W        W95205  24.509  19.505   2.175
23590W        W95206  39.394   2.505  12.992
23591W        W95207   1.629  38.560   4.608
23592W        W95208  11.014  13.664   2.797
23593W        W95209  13.062  19.247  13.402
23594W        W95210  10.282  21.204  11.447
23595W        W95211  35.424  26.461   1.873
23596W        W95212   2.429  25.544  12.456
23597W        W95213  30.424  26.449   2.614
23598W        W95214  14.153   2.788   3.676
23599W        W95215  12.770  40.563   0.251
23600W        W95216  25.758  20.778   3.257
23601W        W95217  35.164  32.556  14.951
23602W        W95218  40.040  39.013  14.416
23603W        W95219  39.920  19.525   4.303
23604W        W95220  42.282  39.992  11.162
23605W        W95221  13.049  17.923  12.093
23606W        W95222  28.230  27.614   3.117
23607W        W95223  16.758   0.748   3.666
23608W        W95224  29.196  28.648   2.831
23609W        W95225   4.895   5.003   0.652
23610W        W95226  10.399  36.938  11.944
23611W        W95227  28.917  28.167   1.152
23612W        W95228  13.824   4.910   0.382
23613W        W95229  30.658  27.427   1.887
23614W        W95230  19.059  22.444   1.483
23615W        W95231  28.040   4.735   3.247
23616W        W95232  27.310   5.843   3.311
23617W        W95233  43.092  18.511  12.902
23618W        W95234  38.021  24.741  14.719
23619W        W95235  35.212  13.106   0.839
23620W        W95236   4.904  41.843  12.576
23621W        W95237  34.971  27.456  11.528
23622W        W95238   0.843   2.808  12.360
23623W        W95239  43.560  34.586   0.295
23624W        W95240   8.380  27.128   2.718
23625W        W95241  41.561   1.322  14.368
23626W        W95242  39.102  41.010  14.922
23627W        W95243  30.697  15.702   3.750
23628W        W95244  21.973  30.847   2.748
23629W        W95245  17.302  21.879   2.483
23630W        W95246  25.660   5.430  11.070
23631W        W95247  30.643  30.130   5.344
23632W        W95248  37.089  41.417   0.799
23633W        W95249  24.643   0.768  10.789
23634W        W95250  28.980   4.304   2.649
23635W        W95251  18.026  42.762   3.200
23636W        W95252  16.477  33.604  11.589
23637W        W95253  15.193  26.205  14.441
23638W        W95254  44.378  16.949  11.584
23639W        W95255  11.812  28.201   1.835
23640W        W95256  14.394  36.748   4.066
23641W        W95257   6.420  31.534   3.201
23642W        W95258  16.666  17.775   2.841
23643W        W95259  17.565  12.677  12.089
23644W        W95260  22.475   2.715   2.285
23645W        W95261  43.303   5.538  11.133
23646W        W95262  42.499   5.427  14.110
23647W        W95263   9.913  23.800  12.026
23648W        W95264  32.394  18.439  12.352
23649W        W95265  27.877  21.320   5.017
23650W        W95266   6.068  22.211   3.313
23651W        W95267   0.992  17.817   3.629
23652W        W95268  13.597  34.634  12.952
23653W        W95269  27.725  17.272  12.919
23654W        W95270  36.971  26.533  11.483
23655W        W95271  31.689  34.960  12.976
23656W        W95272  35.183   9.311   3.087
23657W        W95273   0.020  22.290  14.353
23658W        W95274   2.932  15.803  11.169
23659W        W95275  29.410   8.573   2.651
23660W        W95276   2.147  21.111   4.827
23661W        W95277  44.291  10.164   0.313
23662W        W95278  39.571  25.751  11.891
23663W        W95279   6.125  16.468   3.762
23664W        W95280  14.118  44.951   2.233
23665W        W95281  40.753  43.417   0.259
23666W        W95282  17.641  17.708   0.230
23667W        W95283  16.268   5.917  11.372
23668W        W95284  12.908   6.396   1.415
23669W        W95285  35.960  44.486  14.265
23670W        W95286  23.215  14.597   3.786
23671W        W95287  15.639  36.930   0.622
23672W        W95288  29.446  18.637  11.664
23673W        W95289  19.141  29.845   0.641
23674W        W95290  26.173  10.118  12.927
23675W        W95291  20.647  12.888   3.651
23676W        W95292  39.609  39.824  10.681
23677W        W95293  29.442  31.661   0.165
23678W        W95294  28.123  20.948   4.718
23679W        W95295  40.570  30.061   2.785
23680W        W95296  19.737  38.481   3.151
23681W        W95297  33.456  37.542  13.116
23682W        W95298  28.220  14.748   2.141
23683W        W95299   7.793  42.230   1.889
23684W        W95300   7.889   8.247   1.309
23685W        W95301   9.591   1.768   0.941
23686W        W95302   5.430  39.834  10.831
23687W        W95303  31.026   8.427  11.532
23688W        W95304   7.836  11.342   3.703
23689W        W95305  26.484  10.121   2.648
23690W        W95306   5.746  13.353  14.604
23691W        W95307  38.786  41.578   1.222
23692W        W95308  38.227  27.089  14.215
23693W        W95309   7.935  42.275  11.578
23694W        W95310  39.330  24.760   3.231
23695W        W95311  33.060  27.512   0.057
23696W        W95312  40.855  23.099  13.307
23697W        W95313  23.211  11.726   3.824
23698W        W95314  27.388  15.616   4.367
23699W        W95315  13.695  42.444  12.597
23700W        W95316  21.564  14.266   0.359
23701W        W95317  41.435  18.574   3.292
23702W        W95318   8.865  12.135   4.633
23703W        W95319  18.277  28.501   1.494
23704W        W95320   7.251  15.354   0.212
23705W        W95321  29.610  14.242  13.727
23706W        W95322  21.144  21.802  13.406
23707W        W95323  17.186  15.672   0.518
23708W        W95324  39.936  20.988  11.207
23709W        W95325  25.020  29.073  11.028
23710W        W95326  27.924  12.238   4.087
23711W        W95327  21.182  34.055   3.535
23712W        W95328  41.814  20.064  13.966
23713W        W95329   9.901   8.743  11.585
23714W        W95330  16.155   9.174   3.847
23715W        W95331  11.270  33.640  14.764
23716W        W95332  42.786  29.214  14.491
23717W        W95333  10.840   0.285   0.753
23718W        W95334  36.044  27.961  13.323
23719W        W95335   3.138  36.692  11.680
23720W        W95336  31.084  12.222   2.642
23721W        W95337   6.856   7.070   4.175
23722W        W95338  38.965  43.436  11.249
23723W        W95339  15.581  21.580  10.851
23724W        W95340  39.995   5.111  13.380
23725W        W95341   2.533   8.824   4.165
23726W        W95342  18.763  31.723  14.375
23727W        W95343  19.077  28.390   0.489
23728W        W95344  41.854   0.376   3.250
23729W        W95345   4.182  15.947   0.717
23730W        W95346  15.329   8.592   5.026
23731W        W95347  13.830  42.306  13.504
23732W        W95348  36.943  23.327   3.199
23733W        W95349  20.438  17.764  13.445
23734W        W95350  24.647  23.333  13.309
23735W        W95351  12.071  19.018   1.275
23736W        W95352   7.854   0.850  10.647
23737W        W95353  16.146   0.594  14.484
23738W        W95354  23.986  21.611  13.568
23739W        W95355  18.247   7.557  11.967
23740W        W95356  19.598  18.612   0.394
23741W        W95357  39.890   5.889  14.257
23742W        W95358   7.629  21.571   2.776
23743W        W95359   5.968  12.162  11.982
23744W        W95360  36.467   3.285   0.048
23745W        W95361   1.737  28.881  13.520
23746W        W95362  42.912  29.003   4.836
23747W        W95363   0.800  34.268   4.104
23748W        W95364  23.663  31.870  14.582
23749W        W95365  44.491  36.751   3.691
23750W        W95366  23.640  26.428  10.290
23751W        W95367  27.994  42.198   3.256
23752W        W95368  38.892   3.493   4.157
23753W        W95369  33.935  19.382   2.326
23754W        W95370  10.628  11.747   4.340
23755W        W95371  14.843  34.528  13.365
23756W        W95372  25.950   9.629   0.010
23757W        W95373  44.089  37.984  12.532
23758W        W95374   4.912  30.421   3.884
23759W        W95375  28.525  16.716   1.026
23760W        W95376  40.417  27.003  13.101
23761W        W95377   8.506  23.506  10.760
23762W        W95378   8.931  32.986  12.938
23763W        W95379  37.496  20.914   4.846
23764W        W95380  38.058  41.325   0.925
23765W        W95381  32.973  14.862   4.578
23766W        W95382  15.162  37.093   2.363
23767W        W95383  40.930   8.209  14.053
23768W        W95384   0.231   3.300   2.277
23769W        W95385  38.465  26.044   3.667
23770W        W95386   6.277  27.217  14.361
23771W        W95387  27.964  16.736  13.444
23772W        W95388  38.160  41.321  14.993
23773W        W95389  41.348  36.062   3.705
23774W        W95390  42.965  24.443  11.198
23775W        W95391  16.108   6.008  10.771
23776W        W95392  44.177  13.383   2.737
23777W        W95393  15.163  30.902   4.148
23778W        W95394  25.633  30.845   4.639
23779W        W95395  20.155  19.743   2.244
23780W        W95396   8.901  35.084   0.284
23781W        W95397  31.524  26.296  12.724
23782W        W95398   5.623  17.825  11.508
23783W        W95399  38.079   8.420   0.536
23784W        W95400   4.393  39.972   2.367
23785W        W95401  41.875  40.885  11.984
23786W        W95402  11.589  12.723   1.778
23787W        W95403  21.914   1.491   2.368
23788W        W95404  27.621   5.860  11.043
23789W        W95405  26.942  16.291  14.522
23790W        W95406  15.056  12.947  12.041
23791W        W95407  11.720   2.212  12.492
23792W        W95408  11.826  24.698   3.143
23793W        W95409  14.707  41.836   2.977
23794W        W95410  34.093  24.316   1.275
23795W        W95411  24.550  39.393   1.997
23796W        W95412  32.575  42.965   2.942
23797W        W95413  38.850  27.760  14.842
23798W        W95414  30.404  35.053  10.720
23799W        W95415  18.681   0.463   1.688
23800W        W95416  30.925  36.016  10.655
23801W        W95417  39.755  43.927   0.900
23802W        W95418  35.850   8.919   3.594
23803W        W95419  32.664  42.907   0.455
23804W        W95420   3.925  21.563   3.173
23805W        W95421  11.332  30.942  13.996
23806W        W95422  31.643  41.965  11.139
23807W        W95423  20.572  43.835  12.313
23808W        W95424   0.406  44.255   4.433
23809W        W95425  29.476  32.263  11.256
23810W        W95426  24.993  27.787  10.574
23811W        W95427  18.864   4.388  13.778
23812W        W95428  33.618   5.858   0.426
23813W        W95429  32.923  35.106  10.714
23814W        W95430  42.906  15.132  12.063
23815W        W95431  33.384   8.287  14.778
23816W        W95432  42.709  22.132   3.703
23817W        W95433  28.661  11.579  11.120
23818W        W95434  40.250   5.275  11.260
23819W        W95435  41.309  42.448  10.596
23820W        W95436  21.991  29.022  10.606
23821W        W95437  12.903  43.015   2.695
23822W        W95438  43.350  17.199  14.232
23823W        W95439   1.279   3.720   0.282
23824W        W95440  11.784  28.047   4.593
23825W        W95441  24.763  41.605  13.455
23826W        W95442  10.715  32.422   0.678
23827W        W95443  31.294  11.564   4.329
23828W        W95444  18.039  27.523   0.821
23829W        W95445   2.036  14.835   0.362
23830W        W95446  17.939  21.090  11.168
23831W        W95447   3.616  32.205  10.727
23832W        W95448  42.526  10.789   0.246
23833W        W95449  41.566   5.952  11.062
23834W        W95450  29.638   7.682  13.963
23835W        W95451   6.443  13.744  12.778
23836W        W95452  24.563  39.293   1.443
23837W        W95453  17.611  24.957   4.675
23838W        W95454   2.283  30.542   0.007
23839W        W95455  16.381  29.987   0.475
23840W        W95456  44.664  21.019   1.668
23841W        W95457   5.727  23.096  10.633
23842W        W95458  28.736  10.075   2.321
23843W        W95459  31.890  41.961  12.802
23844W        W95460  29.110  12.243   4.879
23845W        W95461  18.244  14.636   3.265
23846W        W95462  25.700   3.748  11.030
23847W        W95463   2.432  11.734   1.291
23848W        W95464  30.443   8.632   3.267
23849W        W95465   7.893  34.369  11.875
23850W        W95466  20.647   6.764   1.082
23851W        W95467  44.906  16.174  11.559
23852W        W95468  19.360   0.784  12.826
23853W        W95469   4.369  29.109   4.942
23854W        W95470   6.081  20.062   1.189
23855W        W95471  21.859  12.299  13.825
23856W        W95472  19.456  33.554  11.984
23857W        W95473   3.888  36.510   4.723
23858W        W95474  37.901   7.233  11.536
23859W        W95475   9.835  30.139   4.526
23860W        W95476  14.171  14.861  13.487
23861W        W95477   4.412  11.785  12.002
23862W        W95478   5.428  37.882  10.332
23863W        W95479  34.185  23.304   1.371
23864W        W95480  33.300  43.316   1.344
23865W        W95481  38.517  13.409  10.460
23866W        W95482  27.027   2.058  14.770
23867W        W95483  20.679   4.926   2.294
23868W        W95484   5.939   7.755  13.835
23869W        W95485  13.112  34.018  11.508
23870W        W95486  16.509  41.251   4.805
23871W        W95487  27.885   0.900   1.437
23872W        W95488   8.812  42.473  11.017
23873W        W95489  30.107  12.538  13.524
23874W        W95490   1.519  12.634   3.846
23875W        W95491  32.594  27.712  14.789
23876W        W95492  10.686  35.605   3.640
23877W        W95493   9.380  23.141  12.610
23878W        W95494  10.289  20.120   0.252
23879W        W95495  37.108  28.408   1.705
23880W        W95496  43.542   6.944   1.384
23881W        W95497   9.260  39.118  12.417
23882W        W95498  44.166  12.884   2.719
23883W        W95499  40.648   2.450  14.875
23884W        W95500  37.472  42.360   3.823
23885W        W95501  20.566   2.207   4.087
23886W        W95502  16.045   0.277   1.310
23887W        W95503   9.165  21.315   3.402
23888W        W95504  37.852  13.447   3.301
23889W        W95505  39.647  35.163  12.568
23890W        W95506  42.405  12.502   4.410
23891W        W95507   7.330  22.256   1.250
23892W        W95508  43.996  43.060  11.976
23893W        W95509  43.650  17.758  13.073
23894W        W95510   6.921   1.437  11.600
23895W        W95511  29.542  10.637   3.279
23896W        W95512  16.654   5.312  13.108
23897W        W95513  39.716   4.793   3.256
23898W        W95514  33.899   4.173   2.816
23899W        W95515   0.513  40.791  12.529
23900W        W95516   4.130  40.587  13.416
23901W        W95517   3.206  17.590   0.467
23902W        W95518  34.924  10.857   1.683
23903W        W95519  31.057  14.855  13.059
23904W        W95520  16.685  39.549   2.199
23905W        W95521  35.569  44.605  10.488
23906W        W95522  16.536  11.290  11.536
23907W        W95523  24.576   5.397   0.440
23908W        W95524   4.724   3.479  12.099
23909W        W95525  23.370  16.737  11.531
23910W        W95526  17.241  10.555   4.105
23911W        W95527  28.430  33.900   0.488
23912W        W95528  40.246  15.836  11.626
23913W        W95529   0.361  30.165   1.728
23914W        W95530  36.890  31.623   5.220
23915W        W95531  10.380  19.240  14.363
23916W        W95532  37.216  39.962   1.239
23917W        W95533  21.188  14.332  13.852
23918W        W95534   0.612   8.484  12.917
23919W        W95535   3.238  28.672   3.640
23920W        W95536  29.937   2.585  12.393
23921W        W95537  43.956  10.112  12.105
23922W        W95538  12.112  17.197   4.920
23923W        W95539  39.013  30.959   3.165
23924W        W95540  33.437   9.408   4.603
23925W        W95541  38.968   3.936   2.214
23926W        W95542  23.779   7.310   1.592
23927W        W95543  12.336  13.555  13.050
23928W        W95544  40.628   8.932  10.390
23929W        W95545   0.013  15.583   1.409
23930W        W95546   6.902  12.250   1.446
23931W        W95547  33.571  11.421   0.885
23932W        W95548  31.426  13.719   4.843
23933W        W95549  27.495   0.270   1.245
23934W        W95550  25.544  18.079  10.195
23935W        W95551  12.348  19.109  13.829
23936W        W95552  13.800  27.523  10.619
23937W        W95553  43.750  13.751  14.846
23938W        W95554  39.252  10.197  14.277
23939W        W95555  16.541  25.555   3.092
23940W        W95556  12.354  15.699  13.965
23941W        W95557   0.937   9.758   1.747
23942W        W95558  41.942   0.433  10.658
23943W        W95559  20.056  17.222   0.539
23944W        W95560  21.105  17.822  11.010
23945W        W95561  22.195  39.742   2.385
23946W        W95562  32.013  19.049   4.519
23947W        W95563  32.560  28.936  10.252
23948W        W95564  36.129  16.850   4.537
23949W        W95565   4.496  12.116   1.449
23950W        W95566  21.175  20.242  12.456
23951W        W95567  18.548  32.819   1.335
23952W        W95568   5.390  35.079  13.709
23953W        W95569  20.802  11.261  14.891
23954W        W95570  12.502  34.597  11.783
23955W        W95571   1.462  12.677  13.807
23956W        W95572  19.217   8.815   2.113
23957W        W95573  26.060  39.283   3.276
23958W        W95574  32.665   5.927  12.433
23959W        W95575  18.633   2.731  12.507
23960W        W95576  30.492  30.922  10.141
23961W        W95577  23.983   0.295  12.013
23962W        W95578  33.043  39.115   1.850
23963W        W95579  24.731  28.440  11.021
23964W        W95580  42.313  16.077   2.360
23965W        W95581  42.538  39.102  11.943
23966W        W95582  39.117  21.714  14.952
23967W        W95583  28.214  31.679  13.458
23968W        W95584  32.187  38.837  13.597
23969W        W95585  44.505  22.256   3.298
23970W        W95586  15.834  16.265   0.470
23971W        W95587   7.237   7.607  11.523
23972W        W95588   5.230   4.924  11.717
23973W        W95589  42.388  27.254   1.029
23974W        W95590  42.585   9.885   1.297
23975W        W95591  20.373  22.297   3.508
23976W        W95592  40.571   4.342   2.328
23977W        W95593  24.733  43.867  11.943
23978W        W95594  20.119  32.522   0.744
23979W        W95595  14.139   2.424  12.335
23980W        W95596  22.300  17.119  14.479
23981W        W95597  38.853   1.257  14.345
23982W        W95598  29.052  18.206  12.033
23983W        W95599   2.716   1.741   4.328
23984W        W95600  30.001   4.849   3.750
23985W        W95601  33.454  38.133   1.951
23986W        W95602  10.306   7.147   0.603
23987W        W95603  38.342  39.463  11.370
23988W        W95604  37.799  39.655  12.542
23989W        W95605   6.963   8.380   3.919
23990W        W95606  18.562  19.354   1.405
23991W        W95607  32.344   5.661   4.129
23992W        W95608  26.647   7.258  14.164
23993W        W95609   3.438  22.426   3.648
23994W        W95610  21.869  21.522   3.196
23995W        W95611  29.202  27.739  13.332
23996W        W95612   7.793  33.002  14.883
23997W        W95613   2.729  20.266  12.970
23998W        W95614  44.182  40.470   3.765
23999W        W95615   1.903  32.561   2.626
24000W        W95616  35.573  37.350  10.712
24001W        W95617  18.126  23.250   1.002
24002W        W95618  42.035  13.862  12.505
24003W        W95619  10.409  18.154   1.928
24004W        W95620  15.909  15.149  14.502
24005W        W95621  18.080  16.719   3.159
24006W        W95622  12.599  29.639   1.872
24007W        W95623  35.182  35.573  13.355
24008W        W95624  43.129  13.226   5.231
24009W        W95625  39.475  34.067  11.153
24010W        W95626   1.886  24.750  14.602
24011W        W95627  44.054  11.767  12.652
24012W        W95628  33.395  27.205  13.882
24013W        W95629   8.941  39.907   0.367
24014W        W95630  31.906  17.287   1.819
24015W        W95631  33.036  35.052  14.516
24016W        W95632  30.988   9.426   1.389
24017W        W95633  21.133   5.158   0.703
24018W        W95634  33.836  25.982  14.396
24019W        W95635  20.576  24.448  14.808
24020W        W95636   2.925  19.207  14.174
24021W        W95637  36.856  23.162   0.341
24022W        W95638  35.100  35.768  14.703
24023W        W95639   3.176  16.189   1.237
24024W        W95640  44.800  11.740  13.961
24025W        W95641  20.453  35.353  13.365
24026W        W95642  34.610  41.171  14.827
24027W        W95643  32.895  23.093  12.180
24028W        W95644  21.431  24.950   1.820
24029W        W95645  26.394  23.821   2.190
24030W        W95646  22.012  22.547   0.308
24031W        W95647  37.692   7.089   4.625
24032W        W95648  41.982  28.461   1.861
24033W        W95649   5.232  24.042   3.047
24034W        W95650  19.678  35.121  10.658
24035W        W95651   0.388  19.040   3.157
24036W        W95652  27.980  26.156   4.870
24037W        W95653   3.426  17.266  13.520
24038W        W95654  35.427  36.150   3.518
24039W        W95655  40.868   7.187  14.168
24040W        W95656   0.524  22.070  13.532
24041W        W95657   0.904   3.810  14.374
24042W        W95658  29.874  42.908  13.338
24043W        W95659   7.182  31.609   2.099
24044W        W95660  10.125  27.578   4.104
24045W        W95661   9.114  18.887   2.697
24046W        W95662  15.809  44.009  12.054
24047W        W95663  24.111  33.931  14.931
24048W        W95664  37.442  10.650  14.473
24049W        W95665   5.971  38.094   3.662
24050W        W95666  36.090  17.535  14.291
24051W        W95667  15.301   0.550  12.754
24052W        W95668  28.013   4.132  14.862
24053W        W95669  42.484  23.491   0.697
24054W        W95670  41.186   6.420   0.853
24055W        W95671  26.690  29.532   1.383
24056W        W95672   8.278  30.391   1.517
24057W        W95673  39.822  20.371  14.847
24058W        W95674  11.135  42.375  14.042
24059W        W95675  30.141  12.864   2.228
24060W        W95676  24.205  11.772   3.553
24061W        W95677   3.684  42.729   0.492
24062W        W95678  39.936   3.192   2.666
24063W        W95679   6.031  26.308   1.455
24064W        W95680  29.971   0.170   2.677
24065W        W95681  33.914  30.889   2.785
24066W        W95682  15.083  42.523   2.253
24067W        W95683  17.753  39.306   3.943
24068W        W95684  29.975  43.769  11.153
24069W        W95685  34.106  36.861  11.056
24070W        W95686  31.899   7.982  14.915
24071W        W95687  20.104  15.111   3.265
24072W        W95688  28.431  20.111   3.158
24073W        W95689   7.781  33.691  10.699
24074W        W95690   7.828  33.849  11.679
24075W        W95691  13.412  26.548   3.271
24076W        W95692  17.120  43.738   1.274
24077W        W95693  27.681  37.296  11.127
24078W        W95694  14.530   1.895  13.496
24079W        W95695   5.530  30.071  14.390
24080W        W95696  27.766  20.887   1.312
24081W        W95697  16.129  43.147  10.555
24082W        W95698  29.369  25.993   2.995
24083W        W95699   9.912  18.168   1.054
24084W        W95700  26.558  22.356  14.306
24085W        W95701  40.410   6.961   1.824
24086W        W95702   9.162  18.824   1.714
24087W        W95703   8.442  37.580   2.192
24088W        W95704   8.201  28.269   1.797
24089W        W95705   3.479   5.234  13.328
24090W        W95706  20.229  37.548   4.194
24091W        W95707   0.761  33.910   2.180
24092W        W95708  43.422  22.056  11.500
24093W        W95709   8.742  25.241  11.953
24094W        W95710  32.954  24.401   0.732
24095W        W95711  44.534  27.271  12.440
24096W        W95712  21.583  11.342  12.990
24097W        W95713  20.061  13.672   1.273
24098W        W95714  32.176   7.306  13.847
24099W        W95715  13.342  16.369   1.812
24100W        W95716  26.162   8.609  10.524
24101W        W95717  35.845  17.970   1.276
24102W        W95718  10.924  20.532   2.728
24103W        W95719  28.575  40.906   4.285
24104W        W95720   9.468   4.948  10.262
24105W        W95721  22.426   9.152   3.284
24106W        W95722   3.910  36.368   3.328
24107W        W95723  13.206   6.607  11.972
24108W        W95724  32.516  34.007   4.566
24109W        W95725  14.707  33.490   3.757
24110W        W95726  31.616   7.077   2.729
24111W        W95727  27.492   1.932   3.882
24112W        W95728  34.549  13.750  10.711
24113W        W95729  15.308  33.954  10.658
24114W        W95730  32.040  29.137   1.239
24115W        W95731   0.426  31.680   0.300
24116W        W95732  34.430  44.354  12.951
24117W        W95733  27.236  15.064  11.173
24118W        W95734   6.015  30.628  12.419
24119W        W95735   4.272   3.199  12.123
24120W        W95736  29.146   6.041  11.741
24121W        W95737  20.129  31.336  13.470
24122W        W95738  31.579  32.571   0.863
24123W        W95739   4.600   5.861   2.292
24124W        W95740   6.876  10.831   1.215
24125W        W95741   9.256  37.621   0.135
24126W        W95742  23.230  40.122   4.463
24127W        W95743  40.906   6.273  12.033
24128W        W95744   8.614  23.010  12.006
24129W        W95745  19.443  20.574   1.619
24130W        W95746  22.711  35.164   1.651
24131W        W95747   6.266  12.009  11.566
24132W        W95748  15.183   8.762  12.624
24133W        W95749  19.323  17.028  13.076
24134W        W95750  20.279  19.214   1.463
24135W        W95751  42.227  32.447   2.345
24136W        W95752  12.179  16.820  10.749
24137W        W95753  14.721   5.472  12.859
24138W        W95754  19.274  30.570   1.194
24139W        W95755  10.857   1.876   4.802
24140W        W95756  26.461  24.696  10.748
24141W        W95757   3.078  12.109   4.929
24142W        W95758  28.327  43.902  13.062
24143W        W95759  44.361   6.709   1.961
24144W        W95760   1.381  33.291  14.801
24145W        W95761  19.487  31.209   4.762
24146W        W95762  37.753  22.411   4.510
24147W        W95763  10.197  40.071  11.588
24148W        W95764   0.776  27.647   3.323
24149W        W95765  17.584  15.250   4.607
24150W        W95766  11.548  43.685  11.936
24151W        W95767  22.608  21.606  13.070
24152W        W95768  26.176  18.466   0.671
24153W        W95769  24.174  34.446  12.604
24154W        W95770  21.598  39.993  11.011
24155W        W95771  20.593  18.064  14.739
24156W        W95772  30.490   5.273   1.960
24157W        W95773  31.338   9.904  11.122
24158W        W95774  42.279  28.485   3.721
24159W        W95775   9.695  32.557  10.564
24160W        W95776   1.413  37.046  14.427
24161W        W95777  30.436  43.482   1.774
24162W        W95778  31.031   6.831   1.961
24163W        W95779   3.694  21.849   9.684
24164W        W95780  17.251  20.110   2.649
24165W        W95781  11.343  41.516   4.179
24166W        W95782  25.158   5.629   1.280
24167W        W95783  29.397  10.705   1.903
24168W        W95784  17.643  33.593   3.316
24169W        W95785  41.897  25.524  14.800
24170W        W95786  10.439   5.940  13.958
24171W        W95787   0.916  19.041  13.441
24172W        W95788  15.801  13.751   1.315
24173W        W95789  29.386  27.859  14.964
24174W        W95790  35.170  33.276  10.954
24175W        W95791  41.756  16.722   2.326
24176W        W95792   8.267  33.099   1.036
24177W        W95793  40.395  34.837  14.726
24178W        W95794  43.531  30.113  13.469
24179W        W95795  21.288  33.943   2.158
24180W        W95796   7.260  17.969   3.678
24181W        W95797  40.396  39.536  12.290
24182W        W95798  33.496   9.716   3.633
24183W        W95799  41.538   1.505  10.663
24184W        W95800  16.969  28.423  10.822
24185W        W95801  33.516  40.457   3.587
24186W        W95802  26.724  15.326  14.785
24187W        W95803  25.888  35.094  12.048
24188W        W95804  35.310  32.261   4.255
24189W        W95805  15.936  24.968   1.383
24190W        W95806   7.984  36.777  14.912
24191W        W95807   6.872  30.014   4.235
24192W        W95808  42.239  33.723  14.921
24193W        W95809  20.053  15.632   3.206
24194W        W95810   6.346  37.799  10.864
24195W        W95811  29.105  14.692   1.694
24196W        W95812  29.282  25.342   0.352
24197W        W95813  37.053   4.895   0.724
24198W        W95814  37.632  10.854  14.013
24199W        W95815   8.267  30.421  10.449
24200W        W95816   8.834  25.747   1.340
24201W        W95817  40.511  37.573  13.318
24202W        W95818   0.636  42.851   3.765
24203W        W95819  20.864  32.838   1.219
24204W        W95820   5.367  20.732   2.746
24205W        W95821  25.222  32.116   2.638
24206W        W95822  18.286  12.344   0.027
24207W        W95823  23.767  36.102   2.761
24208W        W95824   6.333   8.415   1.696
24209W        W95825  24.704   6.811  10.779
24210W        W95826   8.276  30.923  12.581
24211W        W95827  11.365  15.812   4.095
24212W        W95828   1.457   3.396  10.681
24213W        W95829  41.467  22.473   0.260
24214W        W95830  38.920  39.020  12.495
24215W        W95831  14.365  15.507  14.905
24216W        W95832  29.086   6.524   4.600
24217W        W95833  17.227  34.953   0.887
24218W        W95834   6.853   6.955  12.174
24219W        W95835   7.328  35.662  12.035
24220W        W95836   6.781  18.520   2.438
24221W        W95837  19.464  40.343  11.146
24222W        W95838  41.001  17.712   4.230
24223W        W95839  20.951   7.871  13.367
24224W        W95840  39.838  19.373  14.509
24225W        W95841  41.543  19.905   4.650
24226W        W95842  11.138  27.662   3.794
24227W        W95843   5.002  27.684   3.686
24228W        W95844  21.148  41.116  11.979
24229W        W95845  33.991  12.808  14.033
24230W        W95846  23.978  23.796   1.187
24231W        W95847  43.052   5.768   0.962
24232W        W95848  20.235  17.796   1.759
24233W        W95849  32.151  17.672  11.069
24234W        W95850  30.984  39.127   2.319
24235W        W95851  12.573  27.871  13.414
24236W        W95852   8.059  13.717  13.478
24237W        W95853  21.075  29.142  14.541
24238W        W95854  43.871  19.508  10.783
24239W        W95855  16.668   9.591  12.916
24240W        W95856   6.694  25.511   4.298
24241W        W95857  32.631  10.699  11.565
24242W        W95858  16.398  23.080  11.005
24243W        W95859  12.832  33.987   1.980
24244W        W95860  42.400  18.274   0.843
24245W        W95861  34.587   9.315   2.236
24246W        W95862  22.717   8.805  12.502
24247W        W95863  25.565  39.271  11.195
24248W        W95864  39.621  42.316   0.121
24249W        W95865  14.597   6.760   1.818
24250W        W95866  38.367   3.269   3.639
24251W        W95867  44.812  33.617  13.504
24252W        W95868  32.602  29.432  11.197
24253W        W95869  25.258   6.880  14.944
24254W        W95870  20.317  25.939   3.945
24255W        W95871  38.028   9.780   4.205
24256W        W95872  23.989  43.006  12.518
24257W        W95873  38.740  40.860   4.172
24258W        W95874  44.907  24.949  14.999
24259W        W95875  17.730  17.122   1.048
24260W        W95876  20.562  23.645   1.254
24261W        W95877  37.989  12.466  11.230
24262W        W95878  16.685  12.410   4.874
24263W        W95879   8.567   6.691   1.335
24264W        W95880  39.984   7.196  14.400
24265W        W95881  30.667   6.554  14.752
24266W        W95882   8.395   5.268  10.757
24267W        W95883  25.048  10.398  11.079
24268W        W95884   7.660  14.756  11.816
24269W        W95885  18.570   4.589   4.655
24270W        W95886  19.545  27.939  10.963
24271W        W95887   8.921  20.137   1.346
24272W        W95888  19.314  23.999  12.059
24273W        W95889  32.998  11.752   1.483
24274W        W95890  39.242  38.988   4.918
24275W        W95891  29.629  19.137  13.992
24276W        W95892  30.551  19.221  14.055
24277W        W95893  15.547   1.969   1.494
24278W        W95894  20.127  43.020   3.292
24279W        W95895  38.336  16.648   1.777
24280W        W95896  11.755   9.436  12.489
24281W        W95897   8.288  27.992  13.342
24282W        W95898   7.143   0.319  10.325
24283W        W95899  21.184  38.738  13.036
24284W        W95900  15.070  30.912   1.933
24285W        W95901  25.982  26.025   3.763
24286W        W95902  14.107  33.465   2.318
24287W        W95903   1.399   6.508   2.400
24288W        W95904  23.044  38.569  12.085
24289W        W95905  41.388   7.633  13.512
24290W        W95906  26.821  26.508   3.734
24291W        W95907  24.491   8.241   1.880
24292W        W95908  32.789  30.323   4.196
24293W        W95909  32.810   5.037   1.927
24294W        W95910  30.518  30.687  11.859
24295W        W95911  30.858  40.902  14.797
24296W        W95912  30.330  36.758   4.114
24297W        W95913   3.254  30.712  11.098
24298W        W95914  17.904  35.367   0.378
24299W        W95915  17.270  38.594  11.513
24300W        W95916  10.438  19.542  11.998
24301W        W95917  44.792  25.614  11.048
24302W        W95918   0.937  33.575  12.024
24303W        W95919  34.039   0.455   4.591
24304W        W95920  32.504  36.964   3.619
24305W        W95921  29.576  18.866   2.790
24306W        W95922  32.363  13.835  12.949
24307W        W95923  23.201  12.824   0.459
24308W        W95924  10.676   2.394   1.363
24309W        W95925   0.419   4.196   4.095
24310W        W95926  10.655   2.802  13.069
24311W        W95927  22.726  38.874  10.114
24312W        W95928  14.366  25.134   3.870
24313W        W95929  13.020  29.561  13.515
24314W        W95930  10.413  44.943   4.079
24315W        W95931  37.448   5.400  12.383
24316W        W95932  30.448  19.812   0.994
24317W        W95933  25.722  28.998  13.935
24318W        W95934   9.356  15.625   4.952
24319W        W95935  41.320  26.036   2.893
24320W        W95936  37.032  27.929  10.404
24321W        W95937  39.951  38.962   0.373
24322W        W95938  15.180  19.291  10.018
24323W        W95939  10.545  34.444   3.292
24324W        W95940  17.290  18.612  14.376
24325W        W95941  29.369   3.184  10.727
24326W        W95942  25.493  34.448  11.713
24327W        W95943  25.711  22.130  11.980
24328W        W95944  33.506  10.125  13.427
24329W        W95945   3.300  10.596  11.702
24330W        W95946  10.151  12.133   3.381
24331W        W95947  21.627  40.985  11.747
24332W        W95948  43.970  25.070  12.350
24333W        W95949  19.931  40.940  13.059
24334W        W95950  37.066  25.468  14.856
24335W        W95951  25.122  30.654  11.520
24336W        W95952  43.755   2.857   1.467
24337W        W95953   0.813  30.140   2.395
24338W        W95954  38.425  37.538  14.385
24339W        W95955  14.223  10.026   3.274
24340W        W95956  28.215  14.586  10.209
24341W        W95957   7.741   0.803  13.452
24342W        W95958  41.069  13.091   4.497
24343W        W95959  31.091   3.909  10.632
24344W        W95960   4.916  24.942  12.626
24345W        W95961  43.173  17.626   0.851
24346W        W95962  27.439   8.744  12.422
24347W        W95963  15.627  17.625   2.015
24348W        W95964  41.490  43.983  11.638
24349W        W95965   7.453  18.263   0.785
24350W        W95966  16.938  11.387   0.105
24351W        W95967  26.097  20.844  12.548
24352W        W95968  29.652  30.863  11.456
24353W        W95969   1.259   4.677  11.244
24354W        W95970  23.712  27.057   4.103
24355W        W95971   6.948  39.575  12.459
24356W        W95972  41.739  23.288  10.962
24357W        W95973  28.206  14.359  13.543
24358W        W95974   9.815   0.783   4.881
24359W        W95975  16.822   5.863   1.348
24360W        W95976   3.345  43.778   4.268
24361W        W95977  29.055   1.499  11.083
24362W        W95978  34.868  35.127   4.356
24363W        W95979  20.633  10.706  11.160
24364W        W95980  24.625  19.150  13.018
24365W        W95981   0.058  35.456   1.782
24366W        W95982  36.745  10.602  14.776
24367W        W95983  31.459  35.383  12.144
24368W        W95984  41.711  43.325  11.042
24369W        W95985  11.369  36.517  11.210
24370W        W95986  12.667  30.035   0.292
24371W        W95987   7.883  28.571  11.878
24372W        W95988   4.133  28.828  11.635
24373W        W95989  44.476  43.529   4.664
24374W        W95990  28.963  28.814  10.752
24375W        W95991  16.658  30.441  12.956
24376W        W95992   4.484   1.755   5.013
24377W        W95993  38.507  28.974   2.936
24378W        W95994   6.409   1.782   4.232
24379W        W95995   9.391   6.741   2.904
24380W        W95996  38.401  24.068  11.145
24381W        W95997   7.668  39.743   4.596
24382W        W95998  42.765  32.954   3.685
24383W        W95999  14.307  17.108   3.696
24384W        W96000  21.668  35.018  14.933
24385W        W96001  16.422  40.352  10.756
24386W        W96002  38.931  21.140   0.894
24387W        W96003  43.292   7.952   2.391
24388W        W96004  26.001  12.358  11.228
24389W        W96005  38.047  11.327   0.577
24390W        W96006  16.615   5.138  14.147
24391W        W96007   3.768   6.931   0.438
24392W        W96008  43.976  18.876   0.831
24393W        W96009   8.188  10.614  10.681
24394W        W96010  40.092  35.297  13.381
24395W        W96011  41.205  11.336  13.904
24396W        W96012   2.979  12.131   2.418
24397W        W96013  33.618  26.603  14.724
24398W        W96014  32.449  23.523   1.394
24399W        W96015  25.492  21.190   3.117
24400W        W96016   9.268   3.368  14.746
24401W        W96017  32.887   3.862  13.358
24402W        W96018  28.127  22.204  14.250
24403W        W96019  44.243  14.585   0.803
24404W        W96020  37.063  32.616   2.443
24405W        W96021  22.974  28.434  11.207
24406W        W96022  25.934  36.981  11.514
24407W        W96023  33.530  13.271  14.269
24408W        W96024   7.289  10.686   1.944
24409W        W96025  17.759   9.243   4.344
24410W        W96026  25.120  39.283   4.150
24411W        W96027  44.311  13.769  11.538
24412W        W96028  36.587  22.195   0.755
24413W        W96029   7.833  28.169   4.259
24414W        W96030  40.284   3.817  14.988
24415W        W96031  25.151   2.349  14.583
24416W        W96032  24.291  17.900   1.371
24417W        W96033   2.361  19.460   3.352
24418W        W96034   4.284   5.612  14.507
24419W        W96035  40.322  35.952   1.965
24420W        W96036  44.715  37.599  11.510
24421W        W96037  12.850  34.033  13.545
24422W        W96038   5.434  19.193  12.495
24423W        W96039   3.402  31.383  11.597
24424W        W96040  15.026  18.691  11.161
24425W        W96041  35.001  15.097  14.548
24426W        W96042  29.952  37.148   1.073
24427W        W96043  15.762  20.938  14.912
24428W        W96044  43.405   1.465  14.510
24429W        W96045   3.863  28.934   3.104
24430W        W96046  40.015  26.140  11.992
24431W        W96047  18.572  10.272   2.206
24432W        W96048  32.242   9.239  13.406
24433W        W96049  33.277  42.270  11.424
24434W        W96050  37.011  31.120  14.238
24435W        W96051  13.112  39.911  12.002
24436W        W96052  11.313  24.753  14.975
24437W        W96053  20.032  44.894  12.272
24438W        W96054   7.462  35.805  13.791
24439W        W96055  15.808  31.580  11.653
24440W        W96056  10.204  17.473   2.299
24441W        W96057  44.021  29.383   1.773
24442W        W96058  43.036  41.612   3.153
24443W        W96059  33.010  13.818   2.188
24444W        W96060  32.985  41.097  13.934
24445W        W96061   5.022  20.836  10.378
24446W        W96062  33.445  23.400   3.026
24447W        W96063  32.608  43.539   4.593
24448W        W96064   0.208   4.215  11.128
24449W        W96065  34.162   1.834   1.914
24450W        W96066   2.805   0.294   2.890
24451W        W96067  15.971   5.506  11.468
24452W        W96068  35.607   1.512  13.796
24453W        W96069   5.699   3.811  11.777
24454W        W96070  36.541  34.891  13.757
24455W        W96071  33.327  11.811  12.680
24456W        W96072  19.175  30.510  12.042
24457W        W96073  38.268  39.349   4.141
24458W        W96074  42.980  16.656  12.304
24459W        W96075   1.686  15.574  10.536
24460W        W96076   1.770  32.039   4.138
24461W        W96077  41.277  37.457  13.092
24462W        W96078   7.401  23.722  14.034
24463W        W96079  31.693  16.305   1.756
24464W        W96080  38.330  15.241  10.654
24465W        W96081  24.275  16.449  14.792
24466W        W96082  44.289  41.816  13.517
24467W        W96083  18.577  14.159  11.942
24468W        W96084   0.034   5.001   3.620
24469W        W96085  22.107  22.223  11.034
24470W        W96086  20.742  15.154   1.711
24471W        W96087  16.821  38.316  13.538
24472W        W96088  32.919  20.246   4.568
24473W        W96089  29.095  16.066   4.699
24474W        W96090  16.039  27.423   3.499
24475W        W96091  16.707  19.554  12.444
24476W        W96092  30.397  10.117   1.696
24477W        W96093  26.529  16.275   0.946
24478W        W96094  17.339   2.272   2.534
24479W        W96095  29.196  25.535  11.897
24480W        W96096  11.705  12.339  10.404
24481W        W96097   2.825  37.655   1.813
24482W        W96098  32.538   5.040  13.563
24483W        W96099  27.043   1.807  12.002
24484W        W96100   8.834  14.203  13.383
24485W        W96101  20.741  34.980   3.158
24486W        W96102  15.520  26.539   3.666
24487W        W96103  31.401  15.997   1.294
24488W        W96104  28.328  30.904  12.848
24489W        W96105  43.792  19.021   2.258
24490W        W96106  31.696   4.236   0.995
24491W        W96107  41.022  27.218   1.391
24492W        W96108  23.670  30.005   2.188
24493W        W96109  18.609  35.008   3.362
24494W        W96110  32.991   7.993   0.006
24495W        W96111   6.205  44.082  11.119
24496W        W96112  21.307  25.182  14.818
24497W        W96113  26.107  43.349   1.199
24498W        W96114  37.482  14.802   1.654
24499W        W96115   3.400  27.469   4.941
24500W        W96116  15.535  16.840  13.473
24501W        W96117   5.000  25.094  11.950
24502W        W96118  40.458   0.245   3.293
24503W        W96119   4.735  10.891   3.743
24504W        W96120  20.665  20.557  13.393
24505W        W96121  19.113  43.767  14.691
24506W        W96122  41.675  23.043  14.537
24507W        W96123   8.397   8.244  10.936
24508W        W96124  30.287  41.783   1.513
24509W        W96125   4.846  25.731   0.848
24510W        W96126  37.509   7.095   3.309
24511W        W96127   5.486   2.849   4.151
24512W        W96128  29.405  28.751   1.192
24513W        W96129  10.899  14.718   4.791
24514W        W96130   4.223   5.837  10.609
24515W        W96131  32.683  29.986  11.170
24516W        W96132  22.273  19.120   0.097
24517W        W96133  16.273  24.524   1.952
24518W        W96134  41.431  23.427   2.254
24519W        W96135  44.430  29.196   0.456
24520W        W96136   1.753  23.148   3.171
24521W        W96137  24.214  41.596  12.556
24522W        W96138  29.905   4.354  13.394
24523W        W96139  34.994  40.395  14.640
24524W        W96140  27.626  11.570  13.821
24525W        W96141  13.372  12.138   0.683
24526W        W96142   9.418  30.612  13.349
24527W        W96143   7.441  35.111  14.332
24528W        W96144  27.050  34.007  12.389
24529W        W96145   2.952  37.907  14.078
24530W        W96146  41.893  25.921   0.732
24531W        W96147  35.073  29.359  11.051
24532W        W96148  15.321  32.398  12.860
24533W        W96149  10.848  13.013  13.026
24534W        W96150  29.316   7.540   1.185
24535W        W96151  33.050  26.433  11.444
24536W        W96152  29.052   1.808   4.627
24537W        W96153   9.062  25.694  13.396
24538W        W96154   8.750  33.467  13.073
24539W        W96155  15.819   2.810  13.038
24540W        W96156  30.462  11.668   0.047
24541W        W96157  21.132   0.767  14.794
24542W        W96158  24.345  18.674  13.052
24543W        W96159   1.876  24.764  12.074
24544W        W96160   6.376   3.457  12.941
24545W        W96161   8.933  18.456   4.091
24546W        W96162   9.654   3.329  14.369
24547W        W96163  40.484  24.611   0.358
24548W        W96164  29.039  17.637  11.929
24549W        W96165   5.807   4.502  12.392
24550W        W96166  40.809  28.472  13.585
24551W        W96167  21.895   6.078  11.589
24552W        W96168  33.429   5.249  10.227
24553W        W96169  16.090  43.476   0.880
24554W        W96170   5.286   1.966   1.369
24555W        W96171  42.743  12.714  12.360
24556W        W96172  44.333  40.552   2.469
24557W        W96173  30.061  20.157   3.124
24558W        W96174  33.395   5.724   4.147
24559W        W96175  12.252  33.526  12.352
24560W        W96176  24.148  16.563  14.288
24561W        W96177  17.056  30.828  12.489
24562W        W96178   7.888   8.104   4.874
24563W        W96179  22.077  41.492  11.031
24564W        W96180  24.759  33.126  12.422
24565W        W96181  43.896  43.802  12.402
24566W        W96182  43.497  26.580   3.677
24567W        W96183   9.123  29.535   0.249
24568W        W96184  31.909  44.208  14.166
24569W        W96185  26.032  28.282   2.832
24570W        W96186  36.013  32.435  14.056
24571W        W96187  40.013  41.071   0.914
24572W        W96188  22.598  32.897   4.901
24573W        W96189   8.902  38.555  11.938
24574W        W96190  16.434  32.632   0.914
24575W        W96191  16.572   6.339   2.342
24576W        W96192  42.401   3.532  12.537
24577W        W96193  21.320   1.698   4.213
24578W        W96194   2.265  17.127  14.283
24579W        W96195  14.188  41.476   0.431
24580W        W96196  28.646   8.290   2.281
24581W        W96197   7.425  28.659   3.672
24582W        W96198   5.216  19.183   1.731
24583W        W96199   9.178  20.591   2.331
24584W        W96200  13.626  25.440  11.152
24585W        W96201  18.194  19.993  13.411
24586W        W96202  37.599  23.088  13.321
24587W        W96203  43.039  24.257  13.422
24588W        W96204  18.820  18.912   1.679
24589W        W96205  19.824  18.253  10.586
24590W        W96206  42.540  25.492  10.635
24591W        W96207  23.527  25.723  12.973
24592W        W96208   0.456  26.881  11.121
24593W        W96209  18.139  12.428   0.873
24594W        W96210  31.903  24.607  12.925
24595W        W96211  30.859  36.961   4.371
24596W        W96212  35.638  27.621   3.636
24597W        W96213   6.228   8.462   0.676
24598W        W96214   9.909   5.848   1.997
24599W        W96215  43.751  23.071  14.920
24600W        W96216  44.940  15.158   4.155
24601W        W96217   7.888  42.425   2.381
24602W        W96218   5.070  12.181  13.370
24603W        W96219   6.522  33.801  11.215
24604W        W96220  16.830  12.150  12.160
24605W        W96221  18.762  17.327   1.712
24606W        W96222  32.437  22.566   1.871
24607W        W96223  15.313   8.965  14.021
24608W        W96224  16.862   2.934   4.284
24609W        W96225  40.525  41.814   0.872
24610W        W96226  17.286  16.933   2.777
24611W        W96227   4.820  14.319   3.739
24612W        W96228  43.864  38.977   0.869
24613W        W96229  28.591  36.317  11.038
24614W        W96230   7.955  43.997  11.963
24615W        W96231  38.607   0.609   3.045
24616W        W96232  27.768  16.551   4.578
24617W        W96233  11.441  18.642  10.665
24618W        W96234  30.544  21.748   4.502
24619W        W96235   7.714  19.193   4.576
24620W        W96236  11.728  34.975   2.202
24621W        W96237  18.085  38.104   1.022
24622W        W96238  44.306  44.521   0.932
24623W        W96239  39.454  41.777   4.376
24624W        W96240   2.365  22.822  14.138
24625W        W96241   5.134  41.123   0.977
24626W        W96242  17.598  22.644  13.806
24627W        W96243  29.546  11.401  14.834
24628W        W96244   1.779  31.186  14.828
24629W        W96245  27.423  42.068  14.725
24630W        W96246  20.041  14.376  12.340
24631W        W96247  31.385  42.511  13.945
24632W        W96248  37.946  43.414  13.050
24633W        W96249   7.087  14.434   2.348
24634W        W96250  30.030  28.869  10.217
24635W        W96251  11.168   1.516  12.327
24636W        W96252  34.386   2.653  14.541
24637W        W96253  23.246  30.877   2.337
24638W        W96254  30.192  27.534   5.112
24639W        W96255  12.886  30.056   1.775
24640W        W96256  17.470   5.306  12.538
24641W        W96257  26.879  42.872  14.430
24642W        W96258  16.043  30.936  10.471
24643W        W96259  42.771  39.379  10.852
24644W        W96260  28.456  18.073  10.369
24645W        W96261  42.268   2.246  12.076
24646W        W96262  29.126  27.039   2.726
24647W        W96263  30.203  13.638   4.124
24648W        W96264  37.213  37.232  11.438
24649W        W96265  36.597  19.633   0.819
24650W        W96266  15.267   0.981   1.247
24651W        W96267  13.344  37.958   2.848
24652W        W96268   4.709  37.888  13.059
24653W        W96269   8.171  23.978   1.890
24654W        W96270  28.933   4.185  13.703
24655W        W96271  42.535   7.415  13.928
24656W        W96272  13.811  27.805   2.720
24657W        W96273  36.363  17.465   2.348
24658W        W96274   5.933   3.790   4.163
24659W        W96275  40.787   7.882   3.318
24660W        W96276  42.562  12.904   0.823
24661W        W96277  26.025  12.637  14.903
24662W        W96278   5.242  15.621   1.853
24663W        W96279   5.221  31.956  14.394
24664W        W96280  28.951  29.654   1.262
24665W        W96281  20.027   9.340  12.917
24666W        W96282  23.763  28.463   1.756
24667W        W96283  17.628   8.155  12.130
24668W        W96284  23.591  17.668   3.056
24669W        W96285  14.136  20.527  14.793
24670W        W96286   0.057  23.656   3.881
24671W        W96287   8.132  12.883   1.758
24672W        W96288  26.954  42.221   3.825
24673W        W96289  44.486  17.501   3.786
24674W        W96290  15.388   4.963   4.601
24675W        W96291  12.992  32.546   4.065
24676W        W96292   0.398  18.061  12.938
24677W        W96293  36.485  41.258  10.166
24678W        W96294  37.402  43.227  13.002
24679W        W96295  19.081  34.558  12.621
24680W        W96296  41.853  21.017   2.660
24681W        W96297   7.755  36.809   2.200
24682W        W96298  12.401  44.785   4.677
24683W        W96299  29.427  12.274   2.408
24684W        W96300  34.850  44.005   4.824
24685W        W96301  19.803  36.813  11.159
24686W        W96302  19.656  41.746  14.099
24687W        W96303   6.809  10.381   2.608
24688W        W96304  38.896  21.237   3.545
24689W        W96305  19.525  27.978   1.859
24690W        W96306  40.579   6.187  13.150
24691W        W96307  43.575  26.126   2.429
24692W        W96308  17.302  13.618   3.276
24693W        W96309  20.057  32.989  14.751
24694W        W96310  28.025   6.322  10.753
24695W        W96311   7.220  19.790  13.110
24696W        W96312  40.483  24.799   3.647
24697W        W96313  32.403  30.876  14.851
24698W        W96314  31.974  12.606   2.719
24699W        W96315   5.937  12.291   4.566
24700W        W96316   4.444  38.344   4.115
24701W        W96317  35.049   8.649  14.370
24702W        W96318   1.296  15.566   1.480
24703W        W96319  21.264  22.592   3.620
24704W        W96320  30.887  42.703   1.891
24705W        W96321  28.545  19.713  13.146
24706W        W96322  15.660  36.229   5.224
24707W        W96323  24.549  40.187  14.883
24708W        W96324  34.674  26.647  11.150
24709W        W96325  28.670  30.635  14.533
24710W        W96326  13.190  18.483  10.905
24711W        W96327   5.792  22.976   0.005
24712W        W96328   7.796   4.719   3.567
24713W        W96329  14.392  11.711  12.614
24714W        W96330  19.381  25.687   3.277
24715W        W96331  17.258  38.055   3.983
24716W        W96332  10.339  41.523  12.322
24717W        W96333  22.655  42.312  11.973
24718W        W96334  27.527  33.339   3.203
24719W        W96335   5.948  12.804   3.457
24720W        W96336  22.087  36.426  14.517
24721W        W96337  35.061   5.712  12.936
24722W        W96338  34.100  36.086   4.572
24723W        W96339   1.833   0.491   4.094
24724W        W96340   5.337  32.941   4.448
24725W        W96341  26.972   5.293   0.188
24726W        W96342  12.215   1.348  10.519
24727W        W96343  16.945  37.590  11.055
24728W        W96344  10.122  28.632  12.513
24729W        W96345  37.624  34.643  12.842
24730W        W96346   1.643  24.002   3.960
24731W        W96347   8.227  40.796   2.660
24732W        W96348  33.471  29.580  10.252
24733W        W96349  43.056   6.144   1.322
24734W        W96350  11.273  42.920   1.749
24735W        W96351  30.363  31.083  13.158
24736W        W96352  38.455  40.882   3.759
24737W        W96353   3.978  33.508   3.982
24738W        W96354  21.307   2.257   3.239
24739W        W96355  16.268  22.525   2.791
24740W        W96356  33.991  28.527   2.705
24741W        W96357  28.364  30.149  12.932
24742W        W96358  43.154  17.659  13.125
24743W        W96359  15.713  31.385   4.381
24744W        W96360  21.244  25.035   0.756
24745W        W96361  34.964  29.790   2.871
24746W        W96362  44.644  10.683   3.300
24747W        W96363   9.908  13.171   4.378
24748W        W96364   7.708  36.996   3.973
24749W        W96365  19.085  31.868   0.133
24750W        W96366  35.304  24.986   4.582
24751W        W96367  28.842  24.232   1.803
24752W        W96368  25.063  14.680   4.598
24753W        W96369  23.193   3.845   0.735
24754W        W96370  36.357  21.530  11.082
24755W        W96371   6.907  40.435   4.124
24756W        W96372   8.204   5.411  13.535
24757W        W96373  16.603  16.114   4.600
24758W        W96374  19.223  42.942  13.252
24759W        W96375  41.879  16.072   1.208
24760W        W96376  15.739  13.863   4.651
24761W        W96377  17.361   1.269  13.446
24762W        W96378   8.905  17.048   4.810
24763W        W96379  13.223  23.611  11.105
24764W        W96380  26.386   0.300  12.047
24765W        W96381  29.452  22.222  10.401
24766W        W96382  38.294   9.308  11.518
24767W        W96383  42.512   0.879  12.803
24768W        W96384  36.258  15.626  11.591
24769W        W96385  38.826  23.737  14.973
24770W        W96386  16.004  13.626   0.005
24771W        W96387  37.587  30.353  13.349
24772W        W96388  15.777  14.270  14.013
24773W        W96389  21.150  11.239   4.093
24774W        W96390  20.453  14.260  10.958
24775W        W96391   2.828  36.012   0.935
24776W        W96392  38.007  20.482  11.686
24777W        W96393  41.311  35.549   2.908
24778W        W96394  14.682   9.141   1.547
24779W        W96395  27.393  38.639  12.067
24780W        W96396  20.245  27.513  14.024
24781W        W96397  15.800  20.159   2.884
24782W        W96398  32.996  12.077   0.758
24783W        W96399  35.452  38.850  10.753
24784W        W96400  42.090  18.306  14.451
24785W        W96401  11.101  25.910   1.762
24786W        W96402  35.101  12.226   1.354
24787W        W96403   5.983  39.845   3.084
24788W        W96404  33.551  24.181  10.928
24789W        W96405  38.823  28.167  11.615
24790W        W96406   4.750   1.574   4.112
24791W        W96407  15.003  41.475   0.436
24792W        W96408   2.510  19.769  10.686
24793W        W96409  39.870   6.841   4.312
24794W        W96410   3.333  41.009  12.387
24795W        W96411  26.097  11.079  11.664
24796W        W96412   5.575  27.062   3.351
24797W        W96413  42.836   3.448   2.781
24798W        W96414  32.434   7.455   2.838
24799W        W96415  43.033  17.873   1.879
24800W        W96416   6.933  43.700   3.225
24801W        W96417  17.900  41.447  11.158
24802W        W96418  12.607   4.739   0.852
24803W        W96419  26.256   7.804  13.444
24804W        W96420  14.372  29.443  10.615
24805W        W96421  26.708  25.986  14.337
24806W        W96422  31.917  43.375  11.026
24807W        W96423  29.007   0.080  14.346
24808W        W96424   1.384  24.179   1.421
24809W        W96425  44.039  24.007  13.399
24810W        W96426  29.146  43.264   3.815
24811W        W96427  11.365   2.276   3.610
24812W        W96428  39.404  43.456   3.694
24813W        W96429  37.142  27.732   3.219
24814W        W96430  16.701  26.559  12.932
24815W        W96431  12.225  27.506  11.135
24816W        W96432  14.893  32.686  12.871
24817W        W96433  26.364  42.970   2.106
24818W        W96434   6.452   3.942  14.748
24819W        W96435  10.281   5.928  12.511
24820W        W96436   5.895   8.599  11.248
24821W        W96437  13.665  14.214  14.878
24822W        W96438  25.971  13.706   0.834
24823W        W96439  34.569  18.682  13.378
24824W        W96440  26.248  35.613   1.464
24825W        W96441  37.343  27.600   2.138
24826W        W96442  20.830   5.308   1.430
24827W        W96443  21.979  25.719  14.281
24828W        W96444  32.012  33.819  12.552
24829W        W96445  23.990  27.458  14.351
24830W        W96446  28.138  10.916   0.425
24831W        W96447  22.729  40.997  10.641
24832W        W96448  37.935  28.083   3.796
24833W        W96449  20.600  17.756   0.771
24834W        W96450  38.242  27.726   4.081
24835W        W96451  31.542   2.411  10.147
24836W        W96452   0.929   2.867   4.598
24837W        W96453  12.742   5.330   3.540
24838W        W96454  29.431  34.509   2.413
24839W        W96455   0.786   3.339  14.570
24840W        W96456  34.241  13.282  12.001
24841W        W96457  10.181   6.434  11.045
24842W        W96458   2.158  21.476   3.196
24843W        W96459  29.502  11.271  13.860
24844W        W96460   8.692   6.891   4.128
24845W        W96461  44.057  12.203   0.260
24846W        W96462   2.956   5.944   4.199
24847W        W96463  36.157   6.500  14.517
24848W        W96464  41.856  44.745  12.560
24849W        W96465   1.838   7.340  11.769
24850W        W96466  13.576  14.150   1.387
24851W        W96467  19.646  16.511   1.673
24852W        W96468  24.975  25.730  12.118
24853W        W96469   9.280  10.388  12.384
24854W        W96470   2.321  29.600  10.732
24855W        W96471  41.554  26.927   4.165
24856W        W96472  28.804  39.626   0.134
24857W        W96473  11.199  15.301   3.670
24858W        W96474  16.305  42.464  14.948
24859W        W96475  17.624  29.507  13.040
24860W        W96476   3.299  44.594  11.899
24861W        W96477  10.814  30.516  12.833
24862W        W96478   5.870  27.690   1.390
24863W        W96479  26.506  39.555   3.267
24864W        W96480  43.476  18.089   4.700
24865W        W96481  29.024  34.054  11.207
24866W        W96482   9.616   7.733  11.168
24867W        W96483  31.237  15.886  11.102
24868W        W96484   7.931   5.404  11.622
24869W        W96485  35.304   1.380  11.087
24870W        W96486  28.981  42.706  13.024
24871W        W96487  27.508  33.529  13.447
24872W        W96488  36.414  16.283  12.686
24873W        W96489  33.378  28.165  12.865
24874W        W96490  24.535  25.092   1.242
24875W        W96491  41.429  37.152  10.655
24876W        W96492  13.512  39.327  12.800
24877W        W96493   0.975  17.776   2.820
24878W        W96494   8.646  19.126   2.457
24879W        W96495   6.779  30.969  14.802
24880W        W96496  36.042  28.572   2.455
24881W        W96497  31.021  37.362  10.633
24882W        W96498  24.046  33.729  11.092
24883W        W96499  37.622   4.397   2.694
24884W        W96500  38.040  38.326  14.058
24885W        W96501  27.629   0.893   4.508
24886W        W96502   1.485  11.716  12.913
24887W        W96503   0.952  32.081   3.744
24888W        W96504   5.733  14.927  11.069
24889W        W96505  30.728  31.612   3.241
24890W        W96506  30.913  42.435  12.666
24891W        W96507   1.108  37.534   2.418
24892W        W96508  33.078  27.419  11.646
24893W        W96509   8.166  34.023  10.659
24894W        W96510   0.260   1.400   2.948
24895W        W96511  13.710  11.477  11.220
24896W        W96512  35.575  10.309  12.488
24897W        W96513  16.189  31.147   4.322
24898W        W96514   3.082  19.252  13.663
24899W        W96515  24.789  44.891  11.182
24900W        W96516  16.821  43.007  14.498
24901W        W96517  24.312  41.356   1.628
24902W        W96518  11.630   1.908  14.885
24903W        W96519  14.687  37.813   0.530
24904W        W96520  32.176  37.896  13.482
24905W        W96521  33.649  18.978  12.510
24906W        W96522  39.076   8.846  12.471
24907W        W96523  40.080  26.030   0.478
24908W        W96524   8.840  41.503  14.435
24909W        W96525  36.450   6.687   1.776
24910W        W96526  36.313  39.790   3.211
24911W        W96527  34.176  38.142  11.128
24912W        W96528  15.987  27.075  10.233
24913W        W96529   4.026  37.341  14.757
24914W        W96530  20.723  22.782   2.640
24915W        W96531   0.102  37.331   5.238
24916W        W96532  40.904  14.563   1.966
24917W        W96533  19.090   2.281   4.875
24918W        W96534  23.256  27.165  11.460
24919W        W96535  41.480  22.336   3.275
24920W        W96536  36.163  27.123  13.027
24921W        W96537  28.081  34.053   3.443
24922W        W96538  17.138  33.010   4.545
24923W        W96539  32.936   0.298  10.337
24924W        W96540  36.927  36.813   2.304
24925W        W96541  36.431  40.050   4.604
24926W        W96542  24.961   8.582  10.720
24927W        W96543  11.297  42.494   0.917
24928W        W96544  33.510  41.848   1.761
24929W        W96545  30.940  29.371  11.202
24930W        W96546   3.436   7.341  13.868
24931W        W96547  33.899  14.086  11.707
24932W        W96548  13.075  16.428  13.580
24933W        W96549   9.949  31.403  11.190
24934W        W96550  21.599  17.844  12.375
24935W        W96551  12.613  34.836  13.943
24936W        W96552  17.121  40.790   2.820
24937W        W96553  22.343  36.420  10.714
24938W        W96554  29.926  42.059   2.478
24939W        W96555  20.496  29.005  11.990
24940W        W96556  26.095  38.006  11.858
24941W        W96557  41.059  21.467   1.537
24942W        W96558   7.262  42.960  11.639
24943W        W96559  24.930  40.067  12.676
24944W        W96560  40.620  34.990   3.735
24945W        W96561   3.321  37.521   1.898
24946W        W96562  27.955   3.888  10.712
24947W        W96563  29.360  16.675  14.492
24948W        W96564   7.382  22.040   2.834
24949W        W96565  40.352  43.069   3.771
24950W        W96566  35.499  37.126  13.304
24951W        W96567   5.538  14.669  12.840
24952W        W96568  19.627  12.011   5.076
24953W        W96569  41.259   9.126   0.967
24954W        W96570  14.798  23.989  10.377
24955W        W96571   7.469  24.264   1.268
24956W        W96572  25.929  15.605   4.853
24957W        W96573  24.248   6.139   1.258
24958W        W96574   7.670  15.208  11.564
24959W        W96575   0.678  33.933  13.084
24960W        W96576  31.974   6.811   2.416
24961W        W96577  29.165   0.526   1.287
24962W        W96578   3.103  35.814  12.866
24963W        W96579  29.247  30.680   2.837
24964W        W96580  14.758  28.349  13.010
24965W        W96581   4.661  35.310   2.733
24966W        W96582  13.803  40.822   3.429
24967W        W96583  36.409  35.770   2.684
24968W        W96584  14.077  39.298   2.705
24969W        W96585  25.566  22.509   3.394
24970W        W96586  11.582  26.859   5.177
24971W        W96587  33.497  16.365   1.637
24972W        W96588  44.396  11.998  11.730
24973W        W96589  22.567  14.204   4.499
24974W        W96590  19.889  14.706  13.449
24975W        W96591  19.072  20.153  10.614
24976W        W96592  31.965   8.248   1.675
24977W        W96593   4.023   7.089   2.721
24978W        W96594  26.506  17.549  13.014
24979W        W96595  10.138  27.191  12.396
24980W        W96596  34.593  11.174  14.457
24981W        W96597  33.010  19.770   2.743
24982W        W96598   6.766  27.691   4.247
24983W        W96599  38.877  15.299   4.757
24984W        W96600  39.014  37.030   4.111
24985W        W96601  18.863  35.831   3.717
24986W        W96602  37.473  15.047  13.497
24987W        W96603  29.692   2.734  14.808
24988W        W96604  16.291   0.523   0.896
24989W        W96605  13.949  30.015   1.870
24990W        W96606  10.002  42.782   3.221
24991W        W96607  36.769   2.197  13.456
24992W        W96608   0.519  38.671   3.218
24993W        W96609  10.246   9.562   4.188
24994W        W96610  44.705   7.834   1.352
24995W        W96611  37.128  13.333   4.856
24996W        W96612  26.113  32.636   4.556
24997W        W96613  11.234  42.985   0.171
24998W        W96614  38.113  33.885  10.668
24999W        W96615  37.183  40.941   1.751
25000W        W96616  20.519   3.969   0.026
25001W        W96617  24.729  17.713  14.688
25002W        W96618  17.846  20.481  12.810
25003W        W96619  39.428  36.474   0.371
25004W        W96620  12.920  14.813   2.136
25005W        W96621  19.245  18.576  11.189
25006W        W96622  21.667  37.128   1.761
25007W        W96623  39.488  20.029  11.991
25008W        W96624  19.585  26.103  13.066
25009W        W96625  43.325  44.205  13.915
25010W        W96626  10.258  23.428  14.804
25011W        W96627  33.443  43.216  14.388
25012W        W96628  28.402  32.873  11.360
25013W        W96629  16.803  37.610  14.875
25014W        W96630  26.090  16.138  11.646
25015W        W96631   8.563  20.199   1.723
25016W        W96632  10.379  36.399  14.672
25017W        W96633  29.682  13.896   3.632
25018W        W96634  24.013   7.428   4.911
25019W        W96635  41.790  30.184  14.539
25020W        W96636   3.738  10.571   4.131
25021W        W96637   0.520  30.611  13.214
25022W        W96638  20.624  30.231  11.566
25023W        W96639  31.626  30.204  12.660
25024W        W96640   8.092  24.215  12.854
25025W        W96641  41.166  29.719   5.103
25026W        W96642   6.901   3.253   1.394
25027W        W96643  23.085  44.920   2.540
25028W        W96644  25.658  19.340  13.532
25029W        W96645  13.748   6.243   3.887
25030W        W96646  18.250   9.125  13.391
25031W        W96647   6.721  20.915  12.424
25032W        W96648  44.332  29.761  11.974
25033W        W96649  35.935  43.421  12.897
25034W        W96650  37.582  10.803  11.698
25035W        W96651  37.909  32.560   2.460
25036W        W96652  26.718  14.126   4.728
25037W        W96653  23.072  29.178   4.906
25038W        W96654  32.490  42.050   1.781
25039W        W96655  17.152  36.129  11.614
25040W        W96656  33.504  24.176   4.738
25041W        W96657  14.858  17.754   0.880
25042W        W96658  11.317  38.548  13.908
25043W        W96659  15.850   3.354  10.608
25044W        W96660  43.093  27.638   0.851
25045W        W96661  42.319  22.978   3.277
25046W        W96662   2.342  27.997   3.168
25047W        W96663  28.180   5.496   3.651
25048W        W96664  31.527  18.491  12.467
25049W        W96665  41.798  21.657  13.438
25050W        W96666  24.579  15.784  12.839
25051W        W96667  40.987  34.186   4.108
25052W        W96668  23.556   9.989   4.964
25053W        W96669  26.547  16.725   0.669
25054W        W96670   1.628  14.098  12.302
25055W        W96671  13.373  37.463  12.816
25056W        W96672  26.058  30.944  11.130
25057W        W96673  28.687  32.510  12.586
25058W        W96674  31.992  13.136  13.813
25059W        W96675  15.164  15.650   2.816
25060W        W96676  26.826  29.836  12.060
25061W        W96677  33.936  28.224  11.146
25062W        W96678  11.194   2.999  12.810
25063W        W96679  31.751  10.360   4.409
25064W        W96680  25.786  19.060   3.172
25065W        W96681  28.118   1.703  12.976
25066W        W96682  28.111   8.141   2.253
25067W        W96683  14.924  32.666   2.407
25068W        W96684  13.252   2.330  14.313
25069W        W96685  44.435   2.452   0.513
25070W        W96686  40.015   6.352  14.470
25071W        W96687  20.894  41.976  12.457
25072W        W96688  29.480  11.779   0.172
25073W        W96689  14.254  34.984  12.078
25074W        W96690  34.018  33.218   0.205
25075W        W96691  28.734  10.917   4.177
25076W        W96692   1.993  41.984   0.253
25077W        W96693  16.142  11.276   3.766
25078W        W96694   9.890  14.968  10.714
25079W        W96695   7.390  33.095  12.969
25080W        W96696  38.048  28.994   2.213
25081W        W96697  34.866  44.015   0.161
25082W        W96698  13.217  39.002   2.590
25083W        W96699  42.793  15.151  14.543
25084W        W96700  24.580   7.823   2.346
25085W        W96701  34.082   7.924   0.379
25086W        W96702  31.487   4.627  12.416
25087W        W96703   1.790  33.467  14.039
25088W        W96704  14.758  20.014  14.376
25089W        W96705  36.337  13.326  10.327
25090W        W96706  41.383   9.687   1.836
25091W        W96707  39.016  19.780   3.307
25092W        W96708  25.216  28.577   3.385
25093W        W96709  28.056  41.190  10.698
25094W        W96710  38.399  44.196  11.017
25095W        W96711  41.934  42.828  11.690
25096W        W96712  43.961  32.088  14.334
25097W        W96713  32.792  14.289  11.084
25098W        W96714  13.342   4.153  10.348
25099W        W96715  43.927  22.151   1.126
25100W        W96716  15.337  44.803  12.074
25101W        W96717  33.051  37.817  14.717
25102W        W96718  15.477  31.193  13.820
25103W        W96719  16.825  11.273   1.281
25104W        W96720  20.105  30.414  11.605
25105W        W96721   9.604  28.132  11.774
25106W        W96722  42.745  40.541   1.442
25107W        W96723  37.881  12.783  13.404
25108W        W96724   5.385  44.476   2.473
25109W        W96725  29.672  19.065   1.414
25110W        W96726  32.543  15.340  12.984
25111W        W96727   1.505  21.763   0.485
25112W        W96728  40.073   8.809  12.413
25113W        W96729   0.806  36.992   9.879
25114W        W96730   9.766  14.753   2.431
25115W        W96731  23.505  14.731   1.053
25116W        W96732  13.453   1.611  11.634
25117W        W96733  17.598  30.085  10.532
25118W        W96734   2.856  34.768  11.458
25119W        W96735  28.058   1.866  10.307
25120W        W96736  27.515  37.681   0.336
25121W        W96737  44.811  43.026  13.759
25122W        W96738  28.058   5.313   4.113
25123W        W96739  41.777  17.541   0.912
25124W        W96740  29.522  35.809  14.758
25125W        W96741  13.113  42.602  12.044
25126W        W96742  22.515  40.049  13.385
25127W        W96743  16.121  13.825   2.119
25128W        W96744  14.142  33.238  13.972
25129W        W96745  32.400  33.596   2.337
25130W        W96746  21.201  32.719   1.680
25131W        W96747  43.621  23.572   1.746
25132W        W96748  23.968  35.656  14.230
25133W        W96749  37.764   3.973  13.394
25134W        W96750  37.379  43.462  14.952
25135W        W96751  15.529   9.853   1.194
25136W        W96752  26.162  10.097  10.709
25137W        W96753  12.379   7.646   0.284
25138W        W96754   3.681   1.442   2.738
25139W        W96755   5.011  12.395   4.900
25140W        W96756  30.011  13.506  14.940
25141W        W96757  38.051   7.661  10.652
25142W        W96758  34.849  35.351   1.107
25143W        W96759  11.233  42.285  11.407
25144W        W96760  37.440  25.923   3.524
25145W        W96761  22.195  14.299  12.675
25146W        W96762  24.601  36.327  10.953
25147W        W96763   3.805  11.307   0.516
25148W        W96764   1.646  40.857   1.431
25149W        W96765  37.226  35.808  12.578
25150W        W96766  14.123  32.103   4.818
25151W        W96767  43.259   9.171   3.664
25152W        W96768  37.181  10.153  12.215
25153W        W96769  38.817   7.289  14.339
25154W        W96770   3.344  44.067  11.950
25155W        W96771   3.460  18.900   0.831
25156W        W96772  36.066   9.884  10.345
25157W        W96773  29.146  14.518   3.605
25158W        W96774  11.166   1.443   3.113
25159W        W96775  14.079  19.105   4.342
25160W        W96776  40.207  34.450   0.035
25161W        W96777   9.236  41.446   1.898
25162W        W96778  35.503  32.072  12.092
25163W        W96779   5.278  10.099  13.836
25164W        W96780  20.518   1.546  12.544
25165W        W96781   0.707  44.835  11.894
25166W        W96782  18.601   0.035  12.044
25167W        W96783  42.311  38.653  13.819
25168W        W96784  33.600   3.351  14.344
25169W        W96785  21.575  16.572   2.086
25170W        W96786  18.009  35.975   1.348
25171W        W96787  24.940   3.717   2.939
25172W        W96788  32.140  44.721   1.449
25173W        W96789  36.198  17.103  12.155
25174W        W96790  32.943  35.389  13.485
25175W        W96791  40.169  36.837  10.759
25176W        W96792  30.897  36.358  14.397
25177W        W96793  10.921  13.807   0.859
25178W        W96794  24.251   4.167   1.331
25179W        W96795  17.744  22.203  14.031
25180W        W96796  44.451  32.067   0.545
25181W        W96797  34.018  17.810  11.658
25182W        W96798  38.709  34.983   0.908
25183W        W96799   6.940  24.691   3.838
25184W        W96800  15.668   0.941   3.158
25185W        W96801   8.355  31.374   0.306
25186W        W96802  23.553  27.206  13.073
25187W        W96803  41.677   4.239  11.453
25188W        W96804  26.164  34.884  12.456
25189W        W96805  24.054  26.624  13.848
25190W        W96806  31.281  20.098   0.765
25191W        W96807  35.672  28.638   0.857
25192W        W96808  24.903  23.725   4.951
25193W        W96809   8.944  23.532   2.201
25194W        W96810  39.825  14.382  12.197
25195W        W96811   2.584  35.035   0.429
25196W        W96812   3.494  11.831   2.397
25197W        W96813  19.171  17.244  14.411
25198W        W96814  30.727   3.642  13.539
25199W        W96815  27.996  17.017   2.145
25200W        W96816  36.103  26.870   4.021
25201W        W96817  15.125   7.380   0.289
25202W        W96818  26.797  35.985  11.449
25203W        W96819  16.293   5.880   1.441
25204W        W96820  27.517  16.059  10.983
25205W        W96821  37.251  34.480  12.001
25206W        W96822  34.437  28.271   2.310
25207W        W96823  37.037   8.877  13.421
25208W        W96824  31.108  17.560  11.537
25209W        W96825  23.407  17.798   2.605
25210W        W96826   1.834  30.389   1.693
25211W        W96827  37.533  12.415  10.977
25212W        W96828  36.186  40.210  13.856
25213W        W96829  44.959  39.362   4.651
25214W        W96830   6.148  33.033   0.782
25215W        W96831  41.009  26.950  10.884
25216W        W96832  39.842  14.654  13.466
25217W        W96833   8.737  13.611   4.776
25218W        W96834   0.110  30.951   0.346
25219W        W96835  22.511  22.472   4.220
25220W        W96836  41.442  15.779   4.586
25221W        W96837  32.011  39.327  12.586
25222W        W96838   9.849  43.828   3.791
25223W        W96839  19.994   1.371   4.376
25224W        W96840   4.182  44.897   4.603
25225W        W96841  40.047  33.434   1.041
25226W        W96842   7.559  39.937   3.623
25227W        W96843   2.407  22.187   0.432
25228W        W96844  42.977   2.330  10.685
25229W        W96845  34.020  28.192   0.656
25230W        W96846  27.205   4.480  14.504
25231W        W96847  17.679   7.686  14.035
25232W        W96848  26.699  22.286   2.260
25233W        W96849  33.797   3.623   1.888
25234W        W96850   8.785   8.626   1.241
25235W        W96851  14.565  37.513   1.956
25236W        W96852  16.115  36.344   4.878
25237W        W96853  40.022  28.212  12.146
25238W        W96854  39.551  25.764   4.159
25239W        W96855  15.381  43.314  11.439
25240W        W96856  22.891  31.438   0.558
25241W        W96857  35.912  30.224   2.151
25242W        W96858   2.525   5.437  14.381
25243W        W96859  32.519  22.582   2.946
25244W        W96860   2.811   7.408   0.473
25245W        W96861  21.294   7.812   2.780
25246W        W96862   1.335   9.717   4.563
25247W        W96863  40.852  21.805   2.498
25248W        W96864  23.095  34.831  12.544
25249W        W96865  34.906   1.287   1.899
25250W        W96866  16.361  10.283  13.901
25251W        W96867  27.226  25.411   4.176
25252W        W96868  40.909  30.180  12.082
25253W        W96869  19.986  36.019   4.765
25254W        W96870  26.050  17.763  11.560
25255W        W96871  15.837  11.698   1.180
25256W        W96872  21.949   7.384   2.801
25257W        W96873  43.519  41.481   3.281
25258W        W96874   2.931  12.209   4.419
25259W        W96875   7.800  32.612   2.788
25260W        W96876  44.617   3.921  12.845
25261W        W96877  26.688   1.828  11.652
25262W        W96878  30.794  23.267   0.416
25263W        W96879  22.468  24.197   3.015
25264W        W96880   0.210   7.527   2.261
25265W        W96881  32.033  32.856   2.871
25266W        W96882   7.827  31.183  13.871
25267W        W96883  30.016   1.372  11.287
25268W        W96884   8.404  12.469   1.859
25269W        W96885   0.668  36.580  14.565
25270W        W96886  25.671  12.660   1.944
25271W        W96887  26.940  29.409   0.494
25272W        W96888   5.385   0.340  11.981
25273W        W96889   6.562  38.855   5.185
25274W        W96890  16.603  33.652  14.812
25275W        W96891  17.169  15.095   0.559
25276W        W96892  38.486  34.067  13.046
25277W        W96893  40.957  28.963   0.352
25278W        W96894   0.752   9.232  11.540
25279W        W96895  10.907  36.981  12.023
25280W        W96896  17.541  19.206   3.462
25281W        W96897   8.717   0.991  14.473
25282W        W96898  36.783   0.843   4.117
25283W        W96899  36.987  10.263   2.040
25284W        W96900  32.120  16.113  12.051
25285W        W96901  29.343  35.989   1.786
25286W        W96902   5.333  36.961  10.910
25287W        W96903   2.440  25.653  12.988
25288W        W96904  27.394  36.445   3.621
25289W        W96905  32.554   8.788   0.738
25290W        W96906   6.110   1.819  11.631
25291W        W96907  15.707   4.891   5.043
25292W        W96908   8.651  34.003   3.680
25293W        W96909  20.015  10.533  14.135
25294W        W96910   3.940  34.037  13.467
25295W        W96911  29.970  20.219   4.659
25296W        W96912  25.648  43.486  13.787
25297W        W96913  11.138  21.062   0.434
25298W        W96914  31.921  23.635   1.061
25299W        W96915  43.227   9.230  13.066
25300W        W96916  31.687  29.739  14.471
25301W        W96917   4.968  37.548   5.023
25302W        W96918  37.990  26.630  14.325
25303W        W96919  17.083  38.531  10.475
25304W        W96920  36.054   5.699   0.632
25305W        W96921  28.421  24.683  11.592
25306W        W96922  24.849  16.165  13.085
25307W        W96923  40.338  31.126   2.723
25308W        W96924   0.951  28.721   2.110
25309W        W96925  35.044  13.750  10.545
25310W        W96926  42.748  23.274  12.601
25311W        W96927   8.335   7.807   4.927
25312W        W96928  19.096  19.239  13.927
25313W        W96929  36.629  30.779  11.481
25314W        W96930  23.041  14.201   2.685
25315W        W96931  28.228  44.821  14.051
25316W        W96932  29.670  18.092  10.343
25317W        W96933  40.269  34.980   1.672
25318W        W96934  15.373  17.512   2.844
25319W        W96935   8.917  37.034  12.710
25320W        W96936  13.174  38.827  13.047
25321W        W96937  25.581   2.746   2.447
25322W        W96938  36.469   2.056  12.568
25323W        W96939  41.595  27.904  11.921
25324W        W96940   0.801  41.456   0.289
25325W        W96941  35.875   9.762   0.285
25326W        W96942  13.895  27.238  11.971
25327W        W96943  33.115   3.690  13.967
25328W        W96944  10.822  25.686  13.055
25329W        W96945  29.739  27.772  11.494
25330W        W96946  43.514  26.898  12.660
25331W        W96947  19.803  32.386  14.814
25332W        W96948  29.053   4.246  14.941
25333W        W96949   3.287  43.507   2.751
25334W        W96950  43.518   7.726   3.937
25335W        W96951   4.358  17.095   3.748
25336W        W96952  23.560  10.729   2.458
25337W        W96953  13.268  13.495  13.486
25338W        W96954  37.945  35.164  13.626
25339W        W96955  42.757  10.595   3.249
25340W        W96956  32.033  44.087   4.550
25341W        W96957   1.453   1.939   3.285
25342W        W96958  31.875  25.958   0.442
25343W        W96959  18.251  14.593  12.409
25344W        W96960  26.949  14.157  11.454
25345W        W96961   6.490  35.956  13.954
25346W        W96962  19.130   5.666  10.749
25347W        W96963  26.916  40.298   0.391
25348W        W96964  20.370  37.639  12.928
25349W        W96965  14.596  19.636  13.078
25350W        W96966  40.090  16.681  14.207
25351W        W96967  19.592   7.813  12.570
25352W        W96968   6.357  13.406   2.789
25353W        W96969  15.849  12.175   0.927
25354W        W96970  16.708  42.402  13.453
25355W        W96971  35.583  34.574   0.470
25356W        W96972  33.277  24.068  14.347
25357W        W96973  15.802  12.429   5.077
25358W        W96974  22.475  15.328   1.378
25359W        W96975  12.015   8.135   4.162
25360W        W96976  39.946  12.960   2.213
25361W        W96977  17.441  42.055  11.206
25362W        W96978  30.197   5.979   1.242
25363W        W96979   4.282  22.382   3.305
25364W        W96980  39.576   7.273   2.193
25365W        W96981  16.802   2.904  12.122
25366W        W96982  25.111  23.298   4.716
25367W        W96983  32.620  18.749  10.522
25368W        W96984  34.352  41.421   0.741
25369W        W96985  29.514   5.055   3.725
25370W        W96986  37.063  26.486  10.478
25371W        W96987   9.334   1.766   2.586
25372W        W96988   7.814  20.437   0.520
25373W        W96989  28.339  23.618  14.743
25374W        W96990  20.000  13.085   4.224
25375W        W96991  38.241  35.011   0.683
25376W        W96992  20.836   0.931  11.201
25377W        W96993  21.009  26.694  12.076
25378W        W96994   7.266  20.679  14.714
25379W        W96995  42.926  40.111  14.491
25380W        W96996   5.530  36.580   1.998
25381W        W96997  14.024  22.501  13.520
25382W        W96998  43.465   7.813   0.849
25383W        W96999  14.873  36.961  11.911
25384W        W97000  43.357  10.211  14.923
25385W        W97001  27.470  14.374   5.119
25386W        W97002  20.298  36.823  12.030
25387W        W97003   8.923  18.999   3.233
25388W        W97004  14.761  37.385  11.146
25389W        W97005   3.333  41.053  11.889
25390W        W97006  32.538  31.256  12.660
25391W        W97007   8.250   9.608  10.624
25392W        W97008   9.773  43.030   4.489
25393W        W97009  10.151  38.055   3.191
25394W        W97010  27.808  10.892  12.877
25395W        W97011  21.028   6.843   1.837
25396W        W97012  12.372  42.313  13.068
25397W        W97013  41.084  20.921  11.171
25398W        W97014   4.750   4.324   2.285
25399W        W97015  10.363  18.770   3.221
25400W        W97016  12.822  24.091   1.101
25401W        W97017  15.098  20.157  13.426
25402W        W97018  25.856  41.478   3.680
25403W        W97019   8.812  21.624  11.049
25404W        W97020  31.025   6.512  11.774
25405W        W97021  18.576  44.179   1.270
25406W        W97022  28.117   7.623  10.718
25407W        W97023   6.825   7.648  13.783
25408W        W97024  30.843  30.668   3.202
25409W        W97025  41.390  31.741   3.628
25410W        W97026  24.300  39.895   3.829
25411W        W97027  31.596  35.006   3.710
25412W        W97028  27.086  21.078  10.101
25413W        W97029  37.782  22.617   3.721
25414W        W97030  32.888  35.901  14.324
25415W        W97031   7.805  15.999  10.960
25416W        W97032  23.213  29.458   2.848
25417W        W97033  19.706  11.966   4.142
25418W        W97034  23.129  12.129  14.974
25419W        W97035  24.489  11.160  10.760
25420W        W97036  33.607  36.602   1.923
25421W        W97037   7.917  16.587   1.201
25422W        W97038  33.071  42.016   0.078
25423W        W97039  20.493  29.571   3.724
25424W        W97040  37.986  26.686  12.418
25425W        W97041   6.838  11.841  12.330
25426W        W97042  32.212  27.577   4.201
25427W        W97043  21.541  32.620   2.399
25428W        W97044  41.792   7.664  11.446
25429W        W97045   2.273  27.209   0.331
25430W        W97046  28.598  31.886   4.650
25431W        W97047  13.629   4.031   1.366
25432W        W97048  18.293  20.173  12.916
25433W        W97049  16.843  22.599   0.897
25434W        W97050  17.598  33.860   4.973
25435W        W97051  13.653  12.903   4.164
25436W        W97052  27.615  36.985   4.903
25437W        W97053  15.896   6.968   1.836
25438W        W97054  10.850  38.525   4.525
25439W        W97055  39.486  41.066  12.018
25440W        W97056  28.702  14.082  13.895
25441W        W97057  29.178   2.438   1.417
25442W        W97058  26.019  29.541  12.181
25443W        W97059  20.955  16.829   3.600
25444W        W97060  34.051  43.698   5.053
25445W        W97061  39.093   9.296   2.747
25446W        W97062  43.217  27.333  13.280
25447W        W97063  38.822  39.392   2.863
25448W        W97064   7.179  16.707   2.424
25449W        W97065  21.054  22.486  11.886
25450W        W97066  31.872  28.751  12.353
25451W        W97067  24.292   9.084   4.014
25452W        W97068  43.663  18.166  12.406
25453W        W97069  11.608  12.160  11.981
25454W        W97070  19.499  43.480  10.135
25455W        W97071  25.658  29.372   2.888
25456W        W97072  39.431  13.460  13.354
25457W        W97073   8.357  34.998   3.200
25458W        W97074  14.831  44.747  12.658
25459W        W97075   4.398  17.767  11.223
25460W        W97076  24.116  13.372   1.470
25461W        W97077   7.763   2.063   4.953
25462W        W97078  42.946  25.165   3.248
25463W        W97079  18.265  11.957  14.382
25464W        W97080  19.180   1.484   0.906
25465W        W97081  18.097  15.852  12.984
25466W        W97082  29.015  22.311  12.466
25467W        W97083  42.012   5.942  14.451
25468W        W97084   6.684  25.573  10.694
25469W        W97085  15.876  39.522  11.530
25470W        W97086  28.220  14.108   3.744
25471W        W97087  15.698  39.608  13.291
25472W        W97088  15.854  17.708   4.283
25473W        W97089  21.933  25.192   4.546
25474W        W97090  25.495  27.209   1.305
25475W        W97091  38.600  17.359  13.937
25476W        W97092  38.033  29.521  12.604
25477W        W97093  18.653  34.136  11.118
25478W        W97094   9.442   5.919   4.809
25479W        W97095  32.372  18.706   3.271
25480W        W97096  35.097   0.727  10.793
25481W        W97097  33.088  14.672   1.942
25482W        W97098  17.341  23.505  14.621
25483W        W97099   6.414  18.809  13.295
25484W        W97100  21.251  34.611  11.185
25485W        W97101  43.805  21.481   0.057
25486W        W97102  28.143  35.515   4.452
25487W        W97103  17.984   9.713   3.828
25488W        W97104  38.264  37.884  10.693
25489W        W97105  15.626   8.660   4.588
25490W        W97106  14.815  17.453   1.307
25491W        W97107  24.089  36.871   2.321
25492W        W97108  43.883  36.873   4.703
25493W        W97109   5.241  34.404   0.927
25494W        W97110   2.797   5.498   3.305
25495W        W97111  34.848  10.369   0.806
25496W        W97112   8.689  24.161   0.129
25497W        W97113  30.133  35.480   4.546
25498W        W97114   9.889   1.293   5.041
25499W        W97115  23.639   2.370   4.104
25500W        W97116   3.314   0.041   2.823
25501W        W97117  26.523  13.973  10.790
25502W        W97118  44.043  10.445   1.760
25503W        W97119  33.030  44.820   3.116
25504W        W97120  25.622  27.111   4.475
25505W        W97121  37.767  41.634   4.906
25506W        W97122  19.754  19.168   1.438
25507W        W97123  36.179   4.271   0.235
25508W        W97124   5.408  14.339  14.002
25509W        W97125  10.379  16.982   2.252
25510W        W97126  22.690   9.282   0.476
25511W        W97127  26.957  14.982   2.684
25512W        W97128   4.448  39.541   2.687
25513W        W97129  37.554   7.441   5.022
25514W        W97130  17.760  20.711   0.508
25515W        W97131  14.937  21.190  14.353
25516W        W97132   8.852  32.360   3.753
25517W        W97133  40.868  38.340  13.089
25518W        W97134   6.858   7.785   4.739
25519W        W97135   5.795  28.119   2.331
25520W        W97136  32.887  10.849  14.452
25521W        W97137  29.494  22.026  11.398
25522W        W97138  39.435  40.548  11.958
25523W        W97139   7.891  38.745  14.417
25524W        W97140  25.933   9.654  12.907
25525W        W97141  19.443   2.938  12.279
25526W        W97142  17.568  11.111  10.664
25527W        W97143  42.724   9.150   3.665
25528W        W97144  35.860   8.917  10.727
25529W        W97145  22.556  21.312   1.491
25530W        W97146  18.119   8.859   2.731
25531W        W97147   0.313   6.329  11.853
25532W        W97148   6.216   2.433   2.900
25533W        W97149  29.045   3.313  12.109
25534W        W97150  31.716  30.156  14.785
25535W        W97151  15.599  37.571  10.772
25536W        W97152  29.140   7.860   3.439
25537W        W97153  35.264  26.436  13.666
25538W        W97154  13.749  41.501   0.729
25539W        W97155  19.028  27.191  13.936
25540W        W97156  20.067  28.804   4.625
25541W        W97157  43.925   3.965  10.712
25542W        W97158  44.378  40.123   0.279
25543W        W97159  28.947  44.779   0.829
25544W        W97160   1.851  33.461  11.609
25545W        W97161   8.763  13.131  10.733
25546W        W97162   1.040  30.738  12.710
25547W        W97163  11.485  10.658  13.057
25548W        W97164  17.662   0.856   2.337
25549W        W97165   9.252  15.536  10.538
25550W        W97166  27.573  17.739   1.193
25551W        W97167  15.234  12.622   0.361
25552W        W97168  20.770  23.127  11.145
25553W        W97169  33.980  29.552  13.805
25554W        W97170   6.128  18.734   0.924
25555W        W97171   8.408   2.604   4.310
25556W        W97172  18.561   6.319   2.097
25557W        W97173   0.154   3.734  11.222
25558W        W97174  31.204  12.056   4.499
25559W        W97175  27.033  42.518   1.999
25560W        W97176  37.010  25.211  11.147
25561W        W97177  25.125  10.369  13.531
25562W        W97178  25.761  27.437   4.887
25563W        W97179   6.296  31.461  12.029
25564W        W97180  12.683   3.324  10.149
25565W        W97181  26.523  17.199  14.860
25566W        W97182  37.427  20.562   0.779
25567W        W97183   1.471  42.356  11.087
25568W        W97184  34.951   9.719  11.247
25569W        W97185   1.457  39.817  12.924
25570W        W97186  34.359  27.929  12.818
25571W        W97187  22.718  20.248   2.872
25572W        W97188  39.991  27.136   2.317
25573W        W97189  40.258  24.613  12.062
25574W        W97190  39.364  23.558   5.135
25575W        W97191  37.470  23.575   3.322
25576W        W97192  11.934  12.627   4.981
25577W        W97193  32.585  35.403   0.401
25578W        W97194  23.963  27.719   0.332
25579W        W97195  15.568  38.041  12.646
25580W        W97196  41.405  38.899   2.774
25581W        W97197  43.292  20.043   0.804
25582W        W97198  31.570  28.112  10.694
25583W        W97199   5.728  36.090  11.149
25584W        W97200  44.531  27.764   0.747
25585W        W97201  24.323  38.971  14.293
25586W        W97202  26.727  30.826  10.626
25587W        W97203  34.044  28.222  13.437
25588W        W97204  16.039  14.724   5.291
25589W        W97205   2.332  43.824  11.952
25590W        W97206   5.010   1.251  12.850
25591W        W97207  35.071  29.633   0.203
25592W        W97208  31.084  27.611   2.134
25593W        W97209  22.021  11.572  14.370
25594W        W97210  18.317  44.251   4.540
25595W        W97211  44.347  10.908   3.698
25596W        W97212  27.502  15.109   3.709
25597W        W97213  43.091  14.523  11.685
25598W        W97214  41.595   5.652  14.583
25599W        W97215  39.876   8.561   2.674
25600W        W97216  21.065   4.925  13.300
25601W        W97217  22.184  14.027  14.974
25602W        W97218  36.316   1.561  12.619
25603W        W97219  19.279   3.239   2.210
25604W        W97220  13.610  30.624   4.637
25605W        W97221  22.540   6.134   4.157
25606W        W97222  23.159  18.702   1.337
25607W        W97223  14.309   3.336   4.771
25608W        W97224  18.839  35.461   3.306
25609W        W97225  16.345   2.480  14.391
25610W        W97226  44.446  25.068  13.302
25611W        W97227  23.512  28.792   1.393
25612W        W97228  28.154   4.643   0.705
25613W        W97229  13.658  28.994  14.656
25614W        W97230  20.768  18.696   3.417
25615W        W97231  20.263  11.228   2.015
25616W        W97232   8.215  31.890   2.230
25617W        W97233  39.975  21.113  13.878
25618W        W97234   8.280  23.732   4.527
25619W        W97235  35.353  12.203   0.896
25620W        W97236  44.639  20.548  11.175
25621W        W97237  18.613  41.814   1.240
25622W        W97238  15.159   0.012  13.010
25623W        W97239  12.185   0.014  11.256
25624W        W97240  19.059  43.330  14.426
25625W        W97241  27.639  25.476  10.709
25626W        W97242  19.739  38.962   1.708
25627W        W97243  37.686   5.007   0.860
25628W        W97244  21.257  33.903   0.346
25629W        W97245   0.026   4.833  11.922
25630W        W97246  14.128  39.961   4.399
25631W        W97247  32.499  27.638   4.653
25632W        W97248  11.588  20.533   2.298
25633W        W97249  35.954  41.037   2.142
25634W        W97250  42.930   8.738  14.248
25635W        W97251  10.707  36.416  13.840
25636W        W97252  11.182   1.004   4.397
25637W        W97253   4.252  42.843   0.727
25638W        W97254  31.431  34.379   1.142
25639W        W97255  36.437  35.265  14.369
25640W        W97256  16.715  17.059   1.004
25641W        W97257   0.382  29.013  13.107
25642W        W97258  32.481  11.206  14.416
25643W        W97259   7.850  31.471   0.303
25644W        W97260  26.485   4.263   2.875
25645W        W97261  38.989   2.925  13.806
25646W        W97262   3.350  25.147  10.093
25647W        W97263   5.894  16.470  14.823
25648W        W97264  14.548  27.871   1.288
25649W        W97265  34.962  18.438  14.576
25650W        W97266  21.722  30.091   3.346
25651W        W97267  44.952  21.695   3.701
25652W        W97268  25.435  38.066  12.406
25653W        W97269  27.968   9.756   3.390
25654W        W97270  44.554  35.028  12.965
25655W        W97271   5.843  38.891   0.533
25656W        W97272  25.205  38.932   1.205
25657W        W97273  40.038  40.831  12.461
25658W        W97274  16.600  29.827  14.795
25659W        W97275  15.315  29.002   3.247
25660W        W97276  32.649  24.589  14.412
25661W        W97277  23.708  14.281  13.494
25662W        W97278  37.572   8.405   4.836
25663W        W97279  36.893  29.870  13.846
25664W        W97280  32.734  11.811   3.695
25665W        W97281  21.085  24.126   5.150
25666W        W97282  16.250  16.217  10.427
25667W        W97283  38.673  35.618   0.442
25668W        W97284  39.518  44.030  11.555
25669W        W97285  18.610   0.426  13.051
25670W        W97286   6.303  26.557   4.155
25671W        W97287  44.748  25.115   4.473
25672W        W97288   3.048  22.054   2.889
25673W        W97289  25.628  34.006   0.471
25674W        W97290  39.320  42.526   1.997
25675W        W97291  21.262   5.648   4.104
25676W        W97292   3.099  28.397   4.103
25677W        W97293  23.632  29.272  11.147
25678W        W97294   0.358   6.881  11.654
25679W        W97295  21.040  42.185   1.301
25680W        W97296  19.557  31.901  14.044
25681W        W97297  15.152   2.231  13.630
25682W        W97298   0.730  44.265   1.141
25683W        W97299   4.941   8.437   1.402
25684W        W97300  20.604  31.974  14.202
25685W        W97301   4.737  11.933   5.027
25686W        W97302   1.674  20.551   2.251
25687W        W97303  20.073  27.316   3.140
25688W        W97304  19.713  14.742  12.530
25689W        W97305  20.918  22.458  13.045
25690W        W97306  27.746  32.906  12.640
25691W        W97307   1.507   1.189   1.693
25692W        W97308  16.225  15.184  14.092
25693W        W97309  19.331  26.133  11.097
25694W        W97310  16.993  34.527   0.745
25695W        W97311  34.658  12.662  14.425
25696W        W97312  18.095   4.249  14.758
25697W        W97313  22.044  27.938   0.932
25698W        W97314  29.550  29.255   1.334
25699W        W97315  36.962  23.084  10.783
25700W        W97316  22.607  32.411   4.328
25701W        W97317  21.652  34.503  14.765
25702W        W97318  19.779  16.677  12.592
25703W        W97319  29.910  30.289   2.086
25704W        W97320  37.939  12.255   2.393
25705W        W97321  41.536  22.075  13.570
25706W        W97322  10.547  32.974  10.459
25707W        W97323  21.961  14.697   1.699
25708W        W97324  31.493  27.909   5.049
25709W        W97325  30.061  37.303   1.945
25710W        W97326  19.998  19.346  11.187
25711W        W97327   2.580   3.868   2.790
25712W        W97328  31.442  30.335   2.281
25713W        W97329  14.757   2.295  14.422
25714W        W97330  23.519  39.563   0.720
25715W        W97331   3.778  25.573  10.730
25716W        W97332  40.744  22.196   2.194
25717W        W97333  27.113  21.687   0.495
25718W        W97334   6.487  32.471   0.583
25719W        W97335  29.999  20.018   0.741
25720W        W97336  36.542  43.023  13.931
25721W        W97337  18.192   3.359   2.194
25722W        W97338  28.792  35.084   4.382
25723W        W97339  13.517  32.342   1.276
25724W        W97340  25.664  37.931  14.012
25725W        W97341  19.558  19.984  10.754
25726W        W97342   1.924  40.327  11.616
25727W        W97343  28.294  35.107  10.954
25728W        W97344   5.416   8.686   1.292
25729W        W97345  43.070  13.920   3.623
25730W        W97346  22.100  29.966   0.661
25731W        W97347  41.383   3.191   2.421
25732W        W97348   1.585   2.912   1.252
25733W        W97349   5.019  22.871   1.430
25734W        W97350  10.406  14.777   4.650
25735W        W97351  39.581   2.728  10.765
25736W        W97352  36.903  43.531   2.291
25737W        W97353  39.546   6.665  11.324
25738W        W97354  10.174   7.172   3.110
25739W        W97355  38.822  29.553  11.743
25740W        W97356  19.348  39.839  11.178
25741W        W97357   3.868   2.267  12.210
25742W        W97358   9.383   0.955   2.699
25743W        W97359   9.654  20.595   3.293
25744W        W97360  16.852  18.464   4.352
25745W        W97361  10.358  37.244   2.737
25746W        W97362  21.777  40.545   2.187
25747W        W97363  30.519  13.642   3.654
25748W        W97364  20.966   9.602   1.995
25749W        W97365  23.235  35.367  11.893
25750W        W97366  17.879  22.239   0.083
25751W        W97367  10.468   0.763   2.858
25752W        W97368  32.534  20.785  14.162
25753W        W97369  36.580  12.125   4.213
25754W        W97370  22.638  12.731  10.833
25755W        W97371  23.675  39.332   4.268
25756W        W97372  38.138  10.882  14.077
25757W        W97373  13.331   3.174  13.766
25758W        W97374   5.403  28.440   0.952
25759W        W97375  13.643  44.418  10.566
25760W        W97376  29.114  19.187   4.306
25761W        W97377  15.895  19.778  13.304
25762W        W97378  39.500  19.628   2.234
25763W        W97379  37.862   3.211   1.773
25764W        W97380   2.920  43.646  11.474
25765W        W97381  18.600  36.512   1.951
25766W        W97382  10.448   4.464  11.582
25767W        W97383  24.608   5.952  14.115
25768W        W97384   7.423  31.343  11.575
25769W        W97385   9.102  25.858  10.708
25770W        W97386  19.732   8.662   2.194
25771W        W97387  40.374  36.612   2.376
25772W        W97388  33.917  30.113   3.233
25773W        W97389   2.000  34.812  12.855
25774W        W97390  33.833  10.637  13.926
25775W        W97391  21.989  17.434  10.684
25776W        W97392  37.700  35.226   4.090
25777W        W97393  35.710   5.865  12.348
25778W        W97394   2.202  16.544   1.902
25779W        W97395  39.776  15.718  10.398
25780W        W97396  27.345  29.940  12.068
25781W        W97397  12.727  23.268  11.545
25782W        W97398  33.064   4.171   3.888
25783W        W97399  31.993  20.469  14.788
25784W        W97400  26.656  21.821   4.418
25785W        W97401   8.098  44.318   0.490
25786W        W97402  13.607  41.753   2.858
25787W        W97403   9.737  23.965  14.478
25788W        W97404  29.214  41.586  11.615
25789W        W97405  16.215   4.389  10.895
25790W        W97406  10.220  12.227  14.510
25791W        W97407  42.536  40.070   1.312
25792W        W97408  25.440  27.584  11.236
25793W        W97409   9.128  41.716   2.405
25794W        W97410  33.769  42.356   1.911
25795W        W97411  39.094   7.542  13.812
25796W        W97412  28.151  14.947  14.872
25797W        W97413  30.008  32.028  10.960
25798W        W97414  40.980   0.936   4.166
25799W        W97415  17.685   7.180  14.087
25800W        W97416  18.478  30.667   1.763
25801W        W97417  29.969  28.913  12.989
25802W        W97418  21.709  43.384  14.231
25803W        W97419  33.401   4.870  10.596
25804W        W97420  24.023  44.397   1.193
25805W        W97421   4.837  33.384   1.000
25806W        W97422  43.580  17.715  14.968
25807W        W97423   7.865  33.879  14.537
25808W        W97424   8.115  20.189   3.545
25809W        W97425   9.157   9.337  10.673
25810W        W97426   2.498  41.511   3.563
25811W        W97427  44.210  18.374   0.260
25812W        W97428  31.619  12.813   4.747
25813W        W97429  20.713  38.023  12.872
25814W        W97430  43.962  27.155   0.656
25815W        W97431  41.381  36.535  11.032
25816W        W97432  33.039  13.423   3.844
25817W        W97433  20.667  14.833   0.345
25818W        W97434  30.305   8.897   0.436
25819W        W97435   2.877   0.299   3.862
25820W        W97436   5.150  21.069   0.517
25821W        W97437  22.276  15.286   2.753
25822W        W97438  21.939   4.260   4.439
25823W        W97439   3.660  14.103  13.379
25824W        W97440  40.250   3.945   3.252
25825W        W97441  44.005   5.455  12.950
25826W        W97442  26.031  19.503   0.724
25827W        W97443  26.913  40.482  13.887
25828W        W97444  18.298  30.420   1.302
25829W        W97445  18.786  29.514   4.947
25830W        W97446  10.435   0.391  10.540
25831W        W97447  15.907   9.393  12.765
25832W        W97448   7.475  13.764   1.725
25833W        W97449  23.617  27.069   3.093
25834W        W97450  33.735  22.533   2.162
25835W        W97451  13.763  20.477  12.997
25836W        W97452  31.659  13.291  11.579
25837W        W97453  34.903   5.923  11.589
25838W        W97454  41.315  31.194   1.315
25839W        W97455  34.604  21.681   2.067
25840W        W97456  17.650  25.685   1.947
25841W        W97457  41.147  44.937  11.607
25842W        W97458  35.495  12.059  10.572
25843W        W97459  13.172  18.831  14.279
25844W        W97460  16.582  11.828   0.238
25845W        W97461  26.574  27.755   5.084
25846W        W97462   3.298  24.441   4.358
25847W        W97463   1.667  15.549  14.948
25848W        W97464   0.277  35.924   1.907
25849W        W97465  23.485  34.307   3.270
25850W        W97466   0.429  27.966  13.410
25851W        W97467  12.697  33.220  10.645
25852W        W97468  26.156  25.674  13.543
25853W        W97469   7.776   2.360  11.701
25854W        W97470  26.296  15.153  14.515
25855W        W97471  17.179  33.355  11.042
25856W        W97472  30.706  36.850  14.363
25857W        W97473   1.491   0.870  10.486
25858W        W97474  31.852   1.691  10.597
25859W        W97475  44.396  27.991  13.485
25860W        W97476  26.275  39.796  12.942
25861W        W97477   9.882  23.174  13.358
25862W        W97478  29.178  38.612  12.970
25863W        W97479  29.886  16.996   0.912
25864W        W97480  15.188  37.416   3.678
25865W        W97481  37.822  41.676  11.644
25866W        W97482  38.535  44.732   3.328
25867W        W97483  19.511   3.050  11.031
25868W        W97484  27.541  33.417   4.110
25869W        W97485  27.382  10.643   4.812
25870W        W97486  37.449  26.647  14.143
25871W        W97487  11.307  14.645   1.205
25872W        W97488  42.386   0.813   3.801
25873W        W97489  16.322  16.134   3.207
25874W        W97490  31.207   7.375  14.897
25875W        W97491   0.529  44.716  14.542
25876W        W97492  31.880  40.009   2.702
25877W        W97493   9.244  17.374  11.247
25878W        W97494  36.822  32.619   2.897
25879W        W97495   4.543   0.849   1.858
25880W        W97496  27.267  18.216   2.388
25881W        W97497  34.972  29.671   0.853
25882W        W97498  11.808  27.479   2.631
25883W        W97499  33.659  42.061  13.561
25884W        W97500   4.427   5.347  10.600
25885W        W97501  18.159  31.472  11.234
25886W        W97502  32.989  23.224   1.367
25887W        W97503  14.707  11.381  14.355
25888W        W97504  23.836   7.939   3.688
25889W        W97505  39.115  28.012   3.706
25890W        W97506  37.598  36.910  11.170
25891W        W97507  35.512   1.228  11.951
25892W        W97508   6.363   2.743  11.460
25893W        W97509  32.869  29.670  13.023
25894W        W97510  41.380  17.950  12.934
25895W        W97511  11.663  30.750  11.132
25896W        W97512  40.267   0.940   2.848
25897W        W97513  31.915  38.035  13.911
25898W        W97514  14.876  36.115   2.123
25899W        W97515   5.768   8.054  12.506
25900W        W97516  32.904   3.389   3.280
25901W        W97517   4.499   8.089  13.186
25902W        W97518  12.098  31.888  10.704
25903W        W97519   1.613  27.960  13.294
25904W        W97520  32.688  30.494   0.806
25905W        W97521   1.625  18.979  13.875
25906W        W97522  24.889  17.028   4.638
25907W        W97523  12.754  27.342  12.427
25908W        W97524   6.144  43.864  10.656
25909W        W97525  33.846  27.056   3.821
25910W        W97526   4.293  23.852  11.500
25911W        W97527  43.015  20.551   3.751
25912W        W97528   9.382  12.910  12.146
25913W        W97529  29.613  23.190   3.445
25914W        W97530  38.324  21.885   2.201
25915W        W97531  26.995  32.299  14.846
25916W        W97532  29.596  35.306   2.787
25917W        W97533   1.191  17.638  10.448
25918W        W97534  12.325   4.133   4.254
25919W        W97535   2.793  18.503   4.254
25920W        W97536  18.324  14.384  11.535
25921W        W97537  15.522  44.598   3.802
25922W        W97538  40.973  18.668  12.223
25923W        W97539  10.757  35.515  10.676
25924W        W97540  12.720  35.522  11.566
25925W        W97541  19.539  31.081  14.525
25926W        W97542  27.589   5.888  13.511
25927W        W97543  17.997   8.254   1.803
25928W        W97544  43.929  30.164   1.393
25929W        W97545  27.026  33.057  14.381
25930W        W97546   8.841  17.055   0.391
25931W        W97547  15.282  27.162  12.951
25932W        W97548  40.284  29.021   4.019
25933W        W97549   6.211  44.734   0.201
25934W        W97550  18.288  35.388  10.990
25935W        W97551  12.363  11.854  12.937
25936W        W97552  29.960   0.436   4.094
25937W        W97553  25.964  30.001  14.402
25938W        W97554  20.326  41.802   1.902
25939W        W97555  11.873  27.620  11.922
25940W        W97556   9.140  15.057  12.929
25941W        W97557  20.208   2.709   1.943
25942W        W97558  40.576  32.041   0.882
25943W        W97559  19.805  23.578  10.978
25944W        W97560  12.867  26.179   0.394
25945W        W97561  36.999  43.054   4.435
25946W        W97562  44.887  28.159   1.636
25947W        W97563  27.126   9.154   3.769
25948W        W97564  11.074  10.759   4.577
25949W        W97565   0.455   0.764   4.132
25950W        W97566  26.693  20.326  11.964
25951W        W97567  14.709  36.662   4.503
25952W        W97568  35.046   7.390   1.047
25953W        W97569  21.568  27.079   0.244
25954W        W97570  14.229  38.234  13.924
25955W        W97571   7.637  11.855  14.862
25956W        W97572  17.762  34.910   1.286
25957W        W97573  12.816  21.299   2.360
25958W        W97574   6.742  43.015  11.634
25959W        W97575  31.884   3.377  10.740
25960W        W97576  41.380  36.628  12.528
25961W        W97577  31.975  37.901   4.548
25962W        W97578  28.530  36.529   1.985
25963W        W97579  29.928  24.457  12.992
25964W        W97580  20.672  40.257   3.927
25965W        W97581  40.798  32.205  12.551
25966W        W97582  16.828  38.417  14.456
25967W        W97583   3.462   7.964  14.971
25968W        W97584  10.163   6.868  14.289
25969W        W97585  43.802  38.264   1.340
25970W        W97586  26.501  38.382  13.146
25971W        W97587  10.590  13.299  11.188
25972W        W97588  35.107  38.717   4.971
25973W        W97589  44.263   1.971  14.310
25974W        W97590  33.195  10.825   3.773
25975W        W97591  12.516  13.368   1.048
25976W        W97592  32.499  42.527  12.503
25977W        W97593  11.395  21.279  12.775
25978W        W97594  14.659  23.496   4.103
25979W        W97595  24.515  26.506   3.178
25980W        W97596  34.352   0.275   4.946
25981W        W97597  44.423  34.636  11.063
25982W        W97598  19.035  33.397  10.981
25983W        W97599  14.759   9.426   3.670
25984W        W97600  34.659  18.669   3.249
25985W        W97601   4.270   7.846   3.087
25986W        W97602  10.245  31.826  11.126
25987W        W97603  44.844  25.832  11.715
25988W        W97604  42.260  21.201   3.713
25989W        W97605  11.277  31.479  14.030
25990W        W97606  38.088  25.550   1.014
25991W        W97607  30.172   4.859   1.842
25992W        W97608  28.062  34.120  12.693
25993W        W97609  32.898   9.655  12.897
25994W        W97610  28.447   3.938   4.147
25995W        W97611  24.635  40.475  12.832
25996W        W97612  15.084   3.495  14.057
25997W        W97613   8.623  21.568   4.630
25998W        W97614  18.528  43.788   0.233
25999W        W97615  44.843   6.846  14.794
26000W        W97616  36.561  18.687   1.709
26001W        W97617   9.641  19.577   4.203
26002W        W97618  38.934  36.641   1.392
26003W        W97619  17.815   0.556   2.751
26004W        W97620  11.771  33.337  12.199
26005W        W97621   1.938  23.446  10.649
26006W        W97622   0.355   7.937  11.711
26007W        W97623   7.333  24.497   0.822
26008W        W97624  31.634  17.138  14.478
26009W        W97625   7.739  31.971   1.342
26010W        W97626  22.370  41.805   2.894
26011W        W97627  31.890  44.202   9.597
26012W        W97628  29.752   2.765   2.258
26013W        W97629  11.725  11.129   4.109
26014W        W97630  21.754  34.139  10.697
26015W        W97631   8.188   8.686   3.848
26016W        W97632   4.015  16.320  11.911
26017W        W97633  15.723  22.805   2.504
26018W        W97634  18.604   1.939   2.119
26019W        W97635   1.848  33.095  12.100
26020W        W97636  34.174  17.275   2.875
26021W        W97637  38.955   9.933  12.125
26022W        W97638   9.335  19.247  13.482
26023W        W97639  44.332   9.715   4.149
26024W        W97640  44.464   7.410   1.191
26025W        W97641  43.356  25.687   2.265
26026W        W97642  12.826  32.888   3.669
26027W        W97643  12.679  12.723   2.812
26028W        W97644  44.540  44.284   1.823
26029W        W97645  37.600  29.238  12.563
26030W        W97646  42.348  30.150  13.304
26031W        W97647   7.920  21.544   2.330
26032W        W97648  41.053  23.701  12.510
26033W        W97649  30.101   2.137  12.596
26034W        W97650  37.342  12.117  11.985
26035W        W97651   6.388  25.088  14.902
26036W        W97652  16.759  27.404   0.381
26037W        W97653   3.919  11.616  12.978
26038W        W97654  24.129  27.134  10.659
26039W        W97655  43.939  31.497   1.992
26040W        W97656  30.872  28.144  13.855
26041W        W97657  10.720  29.001  14.877
26042W        W97658  23.660   5.722  13.002
26043W        W97659  14.788  20.713   4.481
26044W        W97660  39.500   7.958  11.135
26045W        W97661   5.061   1.015  13.696
26046W        W97662  16.182  27.223  12.797
26047W        W97663  33.940  42.722   3.363
26048W        W97664  27.307  24.929   3.029
26049W        W97665  36.512  24.994  13.873
26050W        W97666  23.287  13.349   0.391
26051W        W97667  17.735   6.613  13.192
26052W        W97668  15.826  13.783  12.924
26053W        W97669  30.383   5.196  14.335
26054W        W97670  20.303   5.588   3.120
26055W        W97671   3.221  32.120  11.063
26056W        W97672  33.426  38.556  11.192
26057W        W97673  38.491  26.979   3.230
26058W        W97674  43.469  30.667   3.098
26059W        W97675   5.252  14.763  11.086
26060W        W97676  10.120   1.934  13.280
26061W        W97677  30.483  34.641  12.884
26062W        W97678  35.546   0.819   3.862
26063W        W97679  27.701  19.331  14.001
26064W        W97680  15.561  37.965  13.898
26065W        W97681  17.866  18.098   2.538
26066W        W97682  41.400  14.363   0.532
26067W        W97683   7.359   2.472   3.646
26068W        W97684  24.987  42.404  13.099
26069W        W97685  14.427  10.682  14.968
26070W        W97686  36.176  19.577   3.106
26071W        W97687  31.171  14.966   2.627
26072W        W97688  12.439  27.669   1.465
26073W        W97689  29.952  13.025  13.472
26074W        W97690   0.385  33.721  13.929
26075W        W97691  16.350  43.282   0.470
26076W        W97692  27.651  37.088  14.533
26077W        W97693  10.194   9.023   1.882
26078W        W97694   7.480   9.255  13.377
26079W        W97695  37.788  44.046  14.401
26080W        W97696  14.811  27.197   3.759
26081W        W97697  21.149   5.883   4.545
26082W        W97698  10.156  34.002  12.558
26083W        W97699  23.158  17.073  10.709
26084W        W97700   4.779   9.197  10.322
26085W        W97701  44.279  37.916   9.999
26086W        W97702  25.668  32.963  14.553
26087W        W97703  33.086  20.223  13.995
26088W        W97704   6.602  33.518  13.958
26089W        W97705  40.824  17.917  10.270
26090W        W97706  10.257  13.532   1.785
26091W        W97707  36.016  27.761   0.381
26092W        W97708  14.251  22.783   2.326
26093W        W97709  13.753  16.282   4.917
26094W        W97710   6.664  22.569  11.062
26095W        W97711  25.977  31.682  11.624
26096W        W97712  12.336   4.958  14.856
26097W        W97713  26.652  38.286   4.467
26098W        W97714  24.157  35.021   1.397
26099W        W97715  33.572  41.549   2.741
26100W        W97716  28.249   3.353   2.756
26101W        W97717  38.200  31.893   4.141
26102W        W97718  12.124   3.186   0.338
26103W        W97719  13.735  17.811   4.011
26104W        W97720  10.950  31.642   3.204
26105W        W97721  18.251   9.857  13.863
26106W        W97722   4.013  12.286   1.296
26107W        W97723  34.080  23.015   2.288
26108W        W97724  37.407  39.619  13.874
26109W        W97725  43.516   7.823   1.889
26110W        W97726  24.636  37.577  13.536
26111W        W97727  29.956  42.967  14.854
26112W        W97728  44.382   7.685   3.309
26113W        W97729  42.784  34.636   1.915
26114W        W97730  38.962   4.729   0.482
26115W        W97731  23.766  11.125  11.645
26116W        W97732  25.767   7.583  13.463
26117W        W97733   3.876  17.526  12.459
26118W        W97734  36.724  21.320  11.372
26119W        W97735  20.987  26.895   4.545
26120W        W97736   2.183   0.140   0.871
26121W        W97737  40.758  36.348   0.531
26122W        W97738  15.624  12.395  14.173
26123W        W97739   3.091  27.607  10.747
26124W        W97740  22.414   5.224  13.399
26125W        W97741   9.333  17.755   2.533
26126W        W97742  34.399  29.379  12.013
26127W        W97743  17.855  12.747  13.964
26128W        W97744  34.253  43.700   5.547
26129W        W97745  10.592  22.561   0.853
26130W        W97746  15.376  20.014  10.727
26131W        W97747   8.784  10.351   3.117
26132W        W97748  39.978  25.575   0.270
26133W        W97749  34.513  21.954  13.723
26134W        W97750  29.265   0.466   3.181
26135W        W97751  39.837   2.442   3.672
26136W        W97752  32.657  16.180  11.612
26137W        W97753   8.609  11.134   2.022
26138W        W97754   6.843  27.430   1.383
26139W        W97755  23.328  28.025  12.075
26140W        W97756  36.484  43.288   0.412
26141W        W97757  15.795  40.968   4.416
26142W        W97758  38.663  13.878  14.528
26143W        W97759  15.453  21.090  11.790
26144W        W97760  35.894  22.466   2.840
26145W        W97761  37.025  43.366   2.838
26146W        W97762  13.101  44.547   1.369
26147W        W97763  29.606  42.768   4.611
26148W        W97764  15.680  20.357   0.716
26149W        W97765  15.270  21.857   0.330
26150W        W97766  39.483  17.148   3.722
26151W        W97767  13.379  37.472  10.110
26152W        W97768  20.590  30.973   3.646
26153W        W97769  15.609  31.612   2.519
26154W        W97770  12.224  10.695   1.446
26155W        W97771  28.713   1.302   3.250
26156W        W97772  13.883  12.796  14.946
26157W        W97773  17.750  16.105  14.873
26158W        W97774   3.279  32.109  14.020
26159W        W97775  33.314  40.391   3.117
26160W        W97776  32.374  24.455  13.875
26161W        W97777  40.654  13.832   0.431
26162W        W97778  12.487   9.090   1.375
26163W        W97779   7.545  14.490   2.643
26164W        W97780  41.079  35.125  11.221
26165W        W97781  30.507  28.583   3.211
26166W        W97782  27.960  38.820  13.436
26167W        W97783  42.037  33.872   1.042
26168W        W97784  34.015  15.469   1.368
26169W        W97785  14.563  13.197   4.655
26170W        W97786  27.914  31.926   2.144
26171W        W97787  38.143  13.245  14.802
26172W        W97788  29.126  21.034   0.383
26173W        W97789  15.544  35.513  12.542
26174W        W97790  10.304  42.427  12.851
26175W        W97791  24.459  13.779   3.985
26176W        W97792  37.868  20.211  12.109
26177W        W97793  43.080  26.419  14.262
26178W        W97794  10.470  32.892   9.798
26179W        W97795   9.609  27.739  14.494
26180W        W97796  15.875  31.968   2.209
26181W        W97797  19.880   1.896   1.379
26182W        W97798   7.806  10.812   2.262
26183W        W97799  23.706  43.273  14.896
26184W        W97800  15.896   5.968   4.621
26185W        W97801  35.573  15.322   2.808
26186W        W97802  18.866  19.836  12.362
26187W        W97803  40.598  44.281   4.073
26188W        W97804  41.927  25.967  13.375
26189W        W97805  10.795  44.356  12.346
26190W        W97806   5.712   0.837  11.390
26191W        W97807  15.833  12.517   2.719
26192W        W97808  26.861   1.598   2.149
26193W        W97809   4.230  18.084  11.611
26194W        W97810  37.579  32.809  11.574
26195W        W97811  12.414  44.151  11.427
26196W        W97812   2.208  12.237  13.201
26197W        W97813  43.225  26.238  14.725
26198W        W97814  33.578  22.018   1.302
26199W        W97815  34.628  22.223  12.877
26200W        W97816  37.909  22.237   2.705
26201W        W97817  16.874  23.205  14.846
26202W        W97818  13.589   1.273  14.867
26203W        W97819  36.438  22.929  12.916
26204W        W97820  42.999  21.040   1.099
26205W        W97821  24.094  35.409  13.273
26206W        W97822   1.236  40.825  14.403
26207W        W97823   9.865   3.745  13.017
26208W        W97824   3.829  27.249   1.783
26209W        W97825  19.581  32.045  11.081
26210W        W97826  23.251  40.988   4.084
26211W        W97827  26.657  44.057   1.312
26212W        W97828  35.099   4.841   0.424
26213W        W97829  10.882  34.453   3.691
26214W        W97830  24.859  38.529   2.735
26215W        W97831   5.860  21.666   3.258
26216W        W97832  18.997   3.679  13.955
26217W        W97833  22.081  18.273   3.711
26218W        W97834  11.903  18.316   0.825
26219W        W97835  24.656  37.667  14.048
26220W        W97836  20.585   4.394  14.706
26221W        W97837  10.632   5.288   3.281
26222W        W97838  33.428  36.520   2.420
26223W        W97839  11.115   9.330   0.873
26224W        W97840  24.194  21.685   0.306
26225W        W97841  35.451  44.155  10.705
26226W        W97842  35.508  21.825   1.313
26227W        W97843  37.271  39.960  10.892
26228W        W97844  24.045  41.048  11.400
26229W        W97845   8.751  35.340   3.297
26230W        W97846   3.183  28.018   0.985
26231W        W97847  23.969  19.867  10.786
26232W        W97848  32.477  18.819  14.975
26233W        W97849  33.848   8.568  13.734
26234W        W97850  41.204  12.124  12.312
26235W        W97851  38.952  23.538   3.558
26236W        W97852  13.155   3.675  13.714
26237W        W97853  26.467  32.486   2.369
26238W        W97854   2.364  35.781   0.911
26239W        W97855  15.732  25.855  11.534
26240W        W97856   9.531  35.069   2.771
26241W        W97857  21.684  30.267   0.817
26242W        W97858  28.015  11.249   0.821
26243W        W97859  29.070  40.783   1.603
26244W        W97860   3.023   4.666  11.199
26245W        W97861  23.705  27.742   1.493
26246W        W97862   4.906   5.482   0.456
26247W        W97863  43.785  14.970   0.066
26248W        W97864  14.688  32.580  14.305
26249W        W97865  19.023  39.363   3.202
26250W        W97866  19.940  40.957  14.328
26251W        W97867   6.920  38.781   0.425
26252W        W97868  43.959  37.849   1.626
26253W        W97869   8.216  43.502  14.992
26254W        W97870  34.578  15.293  12.032
26255W        W97871  34.016  12.277  14.911
26256W        W97872  39.038  29.412   3.580
26257W        W97873  12.363  11.229   3.374
26258W        W97874  10.755   1.394  11.994
26259W        W97875  20.993  37.344   3.801
26260W        W97876  43.739  32.202  13.861
26261W        W97877  29.940  34.463  14.988
26262W        W97878  30.895  11.736  12.958
26263W        W97879   4.450  38.748  11.116
26264W        W97880  18.588   1.675   0.305
26265W        W97881   1.199  16.819   3.939
26266W        W97882  41.459  21.035   3.034
26267W        W97883  12.372  11.298   1.100
26268W        W97884  12.330   7.622  10.781
26269W        W97885  23.116  27.157   4.300
26270W        W97886  38.267  22.665  10.485
26271W        W97887  31.931  15.993   4.112
26272W        W97888  36.744  35.578  12.609
26273W        W97889  18.317  25.406  13.973
26274W        W97890  19.819   6.410  14.231
26275W        W97891   0.380   5.450  10.655
26276W        W97892  29.158  17.534  14.871
26277W        W97893  18.660  26.553   2.453
26278W        W97894  20.682  20.707  11.605
26279W        W97895  44.494  22.614  13.950
26280W        W97896  34.606   7.924   0.013
26281W        W97897  22.637   0.698  14.299
26282W        W97898  20.379  10.159   2.704
26283W        W97899   2.241  44.270  12.405
26284W        W97900  42.407  25.963  13.857
26285W        W97901  19.707  28.072   0.008
26286W        W97902  20.684  33.419  14.443
26287W        W97903  40.868   1.509   0.788
26288W        W97904  20.755  28.512   0.779
26289W        W97905   6.234  15.121   4.455
26290W        W97906  23.907  43.848  14.349
26291W        W97907   7.800  38.824   4.076
26292W        W97908  23.327  11.054  13.543
26293W        W97909   4.710  40.392  13.113
26294W        W97910  10.102  22.539   0.677
26295W        W97911  32.187  39.369   0.337
26296W        W97912   7.060  12.368   2.250
26297W        W97913  15.538  42.502  14.486
26298W        W97914  17.386  13.178  11.503
26299W        W97915  26.631  18.558  11.676
26300W        W97916   7.980  25.572  14.381
26301W        W97917   7.275   6.704  10.968
26302W        W97918  29.118  27.431  14.799
26303W        W97919  29.472   3.160   3.262
26304W        W97920  26.633  38.061   3.150
26305W        W97921  11.952  28.668   3.878
26306W        W97922  32.046  10.108  14.854
26307W        W97923  34.939  41.328   2.734
26308W        W97924  44.436  13.039   0.690
26309W        W97925  10.136   8.920  12.003
26310W        W97926  29.112  32.871  13.644
26311W        W97927  35.893  13.744  12.512
26312W        W97928   5.605   7.347  12.969
26313W        W97929   8.464  32.213   2.906
26314W        W97930  25.989  29.522   0.659
26315W        W97931  12.134  20.585   2.845
26316W        W97932  43.274   2.097  14.075
26317W        W97933  39.750   2.728  13.339
26318W        W97934  33.452  35.864   2.408
26319W        W97935   2.824   3.760  12.714
26320W        W97936  12.878  11.227   1.828
26321W        W97937   3.818  25.551   4.429
26322W        W97938  36.008  27.550  11.416
26323W        W97939   1.820  12.791   2.221
26324W        W97940  41.570  32.375  12.813
26325W        W97941  39.031  11.103   1.415
26326W        W97942  12.610  30.522   1.887
26327W        W97943  34.105  28.687  12.178
26328W        W97944   1.273  41.928   3.143
26329W        W97945  41.982  20.805  11.222
26330W        W97946  17.377  32.147  12.904
26331W        W97947  21.123  27.208  11.966
26332W        W97948  21.670  23.027  12.099
26333W        W97949  18.313  30.423  12.613
26334W        W97950  10.129  21.752   3.276
26335W        W97951  39.883  25.491  11.563
26336W        W97952  10.488  27.907   5.008
26337W        W97953  40.374  29.055   3.009
26338W        W97954  33.655  35.239  11.454
26339W        W97955  43.579   2.635  13.179
26340W        W97956   8.507  22.684  12.579
26341W        W97957  12.628  25.558  14.365
26342W        W97958  23.165  34.433   3.709
26343W        W97959  27.901  29.591  12.465
26344W        W97960  32.488  25.140   2.742
26345W        W97961   4.437  41.114   4.686
26346W        W97962   7.723  39.376   4.137
26347W        W97963  34.010  44.013   2.192
26348W        W97964  33.615  20.186   3.079
26349W        W97965  37.918  16.280  10.526
26350W        W97966  33.567  23.760   2.681
26351W        W97967  29.947  24.923  14.741
26352W        W97968  33.002  15.317   4.322
26353W        W97969  25.234  43.140  10.903
26354W        W97970  34.218  14.264  10.614
26355W        W97971  17.279  40.594  10.537
26356W        W97972  38.769  38.367   2.182
26357W        W97973  40.081   2.968   4.927
26358W        W97974   7.611  37.014  14.242
26359W        W97975  20.075   5.969   0.770
26360W        W97976  37.261  10.789   4.203
26361W        W97977  19.602  25.625  11.603
26362W        W97978  27.650   7.393  10.633
26363W        W97979   1.923  15.849   0.308
26364W        W97980  40.631   1.023   3.739
26365W        W97981  19.784  42.449  10.675
26366W        W97982  29.050  21.352   1.705
26367W        W97983  11.272  36.024   1.213
26368W        W97984  26.580   5.196  14.282
26369W        W97985  16.344  32.230  14.460
26370W        W97986  33.346  29.681  11.697
26371W        W97987  14.876  18.480   1.416
26372W        W97988  18.307  34.465   3.654
26373W        W97989   7.161  44.283  12.071
26374W        W97990   9.135  18.147   3.276
26375W        W97991  28.335  33.362  12.090
26376W        W97992  23.260  12.663  13.059
26377W        W97993  15.699  41.651  14.817
26378W        W97994  42.423  24.547   2.192
26379W        W97995   9.722  33.744  12.493
26380W        W97996  42.535  18.061   0.241
26381W        W97997   7.387  41.299  12.892
26382W        W97998  39.716  43.276  12.837
26383W        W97999  20.043   0.802   9.985
26384W        W98000   4.652   7.720  12.803
26385W        W98001  26.347   9.551  11.117
26386W        W98002   4.735   1.977   2.217
26387W        W98003  37.128  14.386   0.285
26388W        W98004  23.100  32.567   3.128
26389W        W98005  38.341  19.951   2.862
26390W        W98006  18.838  20.162  14.970
26391W        W98007  16.560  29.057   3.685
26392W        W98008  27.643  34.643   1.806
26393W        W98009  13.629   4.486  12.056
26394W        W98010   9.654  15.875   1.766
26395W        W98011  32.793  42.304   4.912
26396W        W98012  28.486  10.151  10.301
26397W        W98013  41.063  42.513  14.966
26398W        W98014   4.272  14.711   3.824
26399W        W98015   8.358  43.336  12.069
26400W        W98016  44.083  18.657   4.361
26401W        W98017  12.883  16.249  11.456
26402W        W98018  34.155  10.775  12.673
26403W        W98019  25.730  24.120  10.630
26404W        W98020   3.902  38.878  14.343
26405W        W98021   1.943  35.439  10.770
26406W        W98022  28.986  33.018   2.111
26407W        W98023  39.832  33.051  14.822
26408W        W98024   9.888  35.411   2.650
26409W        W98025  23.734   6.315  11.597
26410W        W98026  15.307  22.604   3.218
26411W        W98027  42.254  16.315  11.149
26412W        W98028   2.218  42.557  10.367
26413W        W98029  32.849   0.849  11.946
26414W        W98030  37.308  43.590  13.459
26415W        W98031  14.604  24.944   2.923
26416W        W98032   9.974  38.498  13.840
26417W        W98033   2.453  30.035  14.950
26418W        W98034  33.861  14.457   1.320
26419W        W98035  27.108  25.627  14.828
26420W        W98036  27.628  28.561   3.195
26421W        W98037   5.727  25.593   2.937
26422W        W98038  14.280   2.460  10.439
26423W        W98039   7.820  36.199  10.282
26424W        W98040  18.146  24.110  14.540
26425W        W98041  24.018  11.016  14.137
26426W        W98042  32.476  14.285   4.555
26427W        W98043  13.367   3.203  10.704
26428W        W98044  16.586  30.608  13.876
26429W        W98045  12.746  14.917  12.048
26430W        W98046  38.113  40.327  11.084
26431W        W98047  11.799  44.792   4.593
26432W        W98048  41.053   3.433   2.108
26433W        W98049   9.551   0.530   0.499
26434W        W98050  16.136  36.610   1.277
26435W        W98051  19.302  14.868  14.423
26436W        W98052  16.391   6.611   0.348
26437W        W98053  21.419  15.280  10.624
26438W        W98054  10.205  30.563   0.002
26439W        W98055  19.197   6.428   4.744
26440W        W98056   1.967   9.139  13.869
26441W        W98057   6.861  21.942   1.296
26442W        W98058  12.612   4.919  14.003
26443W        W98059   3.211  22.499  13.496
26444W        W98060  15.589   6.248   1.245
26445W        W98061   2.428   9.751  12.673
26446W        W98062   7.537  23.637   3.118
26447W        W98063   6.031  12.936  14.481
26448W        W98064   5.031  39.420   3.368
26449W        W98065  15.817  27.546   2.161
26450W        W98066  18.965   2.970   0.743
26451W        W98067   9.399  37.599   2.633
26452W        W98068  22.648   4.412   2.807
26453W        W98069  11.313  25.125   0.446
26454W        W98070  18.658  18.799  13.135
26455W        W98071  23.146  13.114   2.294
26456W        W98072  29.033  44.568  12.951
26457W        W98073  11.334  38.759  12.537
26458W        W98074  37.825  37.520  10.701
26459W        W98075   8.400  25.104   1.884
26460W        W98076  41.338  11.770  14.708
26461W        W98077  28.203  23.186  12.390
26462W        W98078  28.083  18.664   1.185
26463W        W98079  29.431   1.390  14.417
26464W        W98080  13.533  15.856   1.811
26465W        W98081  22.230   1.533  11.835
26466W        W98082   7.357  21.666  13.567
26467W        W98083   6.680  13.897   4.726
26468W        W98084  34.378  37.864  14.692
26469W        W98085  14.171   4.024   1.892
26470W        W98086   8.504  17.252   4.573
26471W        W98087  11.515   9.510  14.921
26472W        W98088  37.071   5.783   3.749
26473W        W98089   8.657  30.504  14.596
26474W        W98090  10.428   1.857   0.345
26475W        W98091  40.978  17.519  11.198
26476W        W98092   6.574  25.075   5.084
26477W        W98093   5.386  15.649   3.245
26478W        W98094  15.200  42.364  13.864
26479W        W98095   8.735  34.627   4.897
26480W        W98096   0.814   8.227  11.488
26481W        W98097   8.898  24.630  10.829
26482W        W98098  25.026  27.458  10.973
26483W        W98099  14.927  21.043   0.417
26484W        W98100  15.358  43.332  14.991
26485W        W98101  19.791  19.567  12.513
26486W        W98102   0.964  27.558   1.922
26487W        W98103  19.481   0.331   1.374
26488W        W98104  16.728   6.686  13.908
26489W        W98105  37.584  40.566   4.144
26490W        W98106   1.605  19.543   0.240
26491W        W98107  28.938  25.691   3.090
26492W        W98108  41.312  11.140   4.609
26493W        W98109   5.148  39.073   1.177
26494W        W98110  17.176  13.634   4.127
26495W        W98111  22.719  19.904   4.162
26496W        W98112  31.420  17.576  13.335
26497W        W98113   7.419  29.671  13.360
26498W        W98114  44.489  12.265  13.286
26499W        W98115  27.696  35.093   2.808
26500W        W98116  31.029  34.128   4.038
26501W        W98117   4.951  13.247   4.777
26502W        W98118  44.957  14.586  14.417
26503W        W98119  35.909  20.668   2.366
26504W        W98120  16.124  12.456  14.031
26505W        W98121  23.636  31.620   0.018
26506W        W98122  39.785  30.757   1.254
26507W        W98123   6.881  39.877   1.353
26508W        W98124   4.074  30.626   3.208
26509W        W98125   2.880  29.400   4.071
26510W        W98126  35.297  11.225  12.569
26511W        W98127  32.988  37.964   3.709
26512W        W98128  16.788  19.483   1.141
26513W        W98129   9.763  12.331  11.117
26514W        W98130  18.690  31.676   0.623
26515W        W98131  18.180  32.133   2.988
26516W        W98132  36.886   9.865  14.283
26517W        W98133  16.103  32.849   4.534
26518W        W98134  15.106  25.918   1.814
26519W        W98135  41.858  26.507  11.128
26520W        W98136   6.000  35.447   1.268
26521W        W98137  25.811  34.442  13.495
26522W        W98138   9.381  44.803   0.431
26523W        W98139  40.063  44.378  12.788
26524W        W98140  17.051  41.986  14.559
26525W        W98141  12.382  26.117  11.687
26526W        W98142  18.835  15.109   2.897
26527W        W98143  34.963  18.708   0.470
26528W        W98144   2.519  23.147   1.818
26529W        W98145  11.438  14.234   2.266
26530W        W98146   2.517   4.440   1.882
26531W        W98147  25.101  21.290  11.136
26532W        W98148  17.252  22.637   4.079
26533W        W98149   6.663  40.432   3.071
26534W        W98150  39.558  37.819  14.494
26535W        W98151  44.660  24.909   4.011
26536W        W98152  18.385  18.229   4.536
26537W        W98153  22.144  41.831   3.394
26538W        W98154  16.167  12.793   1.789
26539W        W98155  25.597  36.395   4.923
26540W        W98156  28.502  23.781   4.888
26541W        W98157  44.997  29.056  12.418
26542W        W98158   2.678  31.569   3.961
26543W        W98159  20.165  23.206   1.954
26544W        W98160  35.378   6.494  13.947
26545W        W98161   5.393  41.659  11.476
26546W        W98162  43.507  36.298   0.437
26547W        W98163  10.726  21.193  11.154
26548W        W98164  11.275  25.276  14.900
26549W        W98165  41.305  17.989   2.639
26550W        W98166  21.530  16.386   0.161
26551W        W98167   6.370  33.674  11.699
26552W        W98168   8.442  20.275   4.346
26553W        W98169   0.778  15.721   1.962
26554W        W98170   4.425  24.574  13.449
26555W        W98171  44.258  12.631   2.290
26556W        W98172  21.517  13.827   3.297
26557W        W98173   1.171   1.981  12.059
26558W        W98174  22.718  30.592   0.941
26559W        W98175  44.823  38.534  11.555
26560W        W98176  37.380   0.751   0.255
26561W        W98177  12.721   0.813   1.800
26562W        W98178  22.555   7.624  12.358
26563W        W98179  43.970   6.367   4.528
26564W        W98180  34.850  37.029   3.187
26565W        W98181  34.993  18.831   4.594
26566W        W98182  40.404   3.733   1.478
26567W        W98183  14.745  17.988   1.339
26568W        W98184  32.694  41.084   4.406
26569W        W98185  10.254  37.887   1.861
26570W        W98186  43.175   1.375  10.529
26571W        W98187  22.054  12.108  14.840
26572W        W98188   9.243  26.158  13.597
26573W        W98189   9.767   1.469  13.999
26574W        W98190  25.082  20.590   1.732
26575W        W98191  13.210   1.872  13.032
26576W        W98192  37.839  15.117   2.932
26577W        W98193  20.615  11.665   0.999
26578W        W98194  11.133  30.866   2.310
26579W        W98195  29.500   1.437   2.665
26580W        W98196  17.718  42.480  11.115
26581W        W98197  38.102  28.670  13.102
26582W        W98198  22.057   5.841   3.705
26583W        W98199   3.065  43.613   1.289
26584W        W98200  21.803  19.517  11.140
26585W        W98201  19.408  44.364   4.050
26586W        W98202   8.815  26.270   2.195
26587W        W98203   1.465   5.579  11.076
26588W        W98204  34.216   4.683  13.057
26589W        W98205  14.657  20.202   4.593
26590W        W98206   3.174  12.330  14.469
26591W        W98207  11.276   2.489  13.977
26592W        W98208  31.111  21.024  14.867
26593W        W98209  44.623  16.649  10.598
26594W        W98210  15.585  15.698   1.665
26595W        W98211  38.942   5.592  10.133
26596W        W98212  36.008  44.953  14.442
26597W        W98213  35.215  37.113  14.558
26598W        W98214   5.263  15.574  11.991
26599W        W98215   6.405  32.165   3.816
26600W        W98216  35.641  23.932   0.488
26601W        W98217  10.479  16.091  11.162
26602W        W98218   7.692  31.383  13.373
26603W        W98219  12.213   2.740  11.776
26604W        W98220  13.249  20.200   1.186
26605W        W98221  33.689  20.784  12.550
26606W        W98222  28.613   2.486  13.319
26607W        W98223  18.726   0.897   1.377
26608W        W98224  33.765  42.854  12.165
26609W        W98225  13.396  18.189   0.536
26610W        W98226  39.898  20.170  11.689
26611W        W98227  20.370   8.728   4.679
26612W        W98228  35.643  42.547  14.927
26613W        W98229   6.701   8.640  10.455
26614W        W98230  38.052  23.254  14.470
26615W        W98231  17.566  16.728   3.204
26616W        W98232  27.603  21.689   3.309
26617W        W98233  15.227  33.556  14.101
26618W        W98234   3.845   6.152   0.796
26619W        W98235   9.703  37.166   0.806
26620W        W98236  35.987  28.589   4.706
26621W        W98237  33.012  26.134   2.253
26622W        W98238  24.277  29.535  14.785
26623W        W98239  37.872  14.249  10.559
26624W        W98240  31.096  19.711  11.637
26625W        W98241   3.487   6.815  10.666
26626W        W98242  35.037  44.312   0.548
26627W        W98243  27.976  15.618  12.559
26628W        W98244   8.175  16.963   0.951
26629W        W98245  34.274  21.529  13.548
26630W        W98246  15.848  20.025  14.871
26631W        W98247  42.339  36.262  12.458
26632W        W98248  15.279  28.117   3.278
26633W        W98249   2.266   7.326  11.516
26634W        W98250   3.015  42.455  13.089
26635W        W98251  26.448  34.111   4.275
26636W        W98252  44.518  36.299   2.691
26637W        W98253  34.582  31.156  13.373
26638W        W98254  30.446  10.576   2.449
26639W        W98255   1.254  20.234   0.924
26640W        W98256  36.652  39.376  10.271
26641W        W98257  24.562  34.624   0.242
26642W        W98258  28.919  35.841  12.934
26643W        W98259  10.748  39.934   1.000
26644W        W98260  26.150  37.495   2.565
26645W        W98261   1.974  10.910  13.399
26646W        W98262   1.838  10.337   0.825
26647W        W98263  40.099  15.283  14.514
26648W        W98264  25.991  22.629   0.516
26649W        W98265  43.510  15.721  11.519
26650W        W98266   3.884  17.557  14.796
26651W        W98267  37.490  20.064   0.990
26652W        W98268  19.106  32.480  11.967
26653W        W98269   9.453  44.624  13.988
26654W        W98270   0.743  18.689  13.889
26655W        W98271  28.998  13.572  14.800
26656W        W98272   3.145  37.058  11.335
26657W        W98273  26.607  42.595  10.687
26658W        W98274  38.631  33.910  10.756
26659W        W98275  11.327  31.377  14.899
26660W        W98276  36.310  28.641  12.999
26661W        W98277  43.779  16.353   1.191
26662W        W98278   3.760  19.504   5.247
26663W        W98279   1.980  16.191  14.932
26664W        W98280  25.258  14.790  13.056
26665W        W98281  32.476  29.627   3.725
26666W        W98282  21.263  34.876  13.625
26667W        W98283  28.108  21.989  13.089
26668W        W98284  36.587   4.782   2.313
26669W        W98285  32.926  24.627  11.016
26670W        W98286  26.302   9.602   1.893
26671W        W98287  22.747  42.294   3.794
26672W        W98288  32.404  35.425  14.053
26673W        W98289  26.503  42.056  11.535
26674W        W98290  33.605   3.055   3.136
26675W        W98291  12.862  36.875   1.531
26676W        W98292   0.372  42.522   0.972
26677W        W98293  14.333  14.704   3.692
26678W        W98294  34.201  22.240   0.454
26679W        W98295   6.331  15.533   4.773
26680W        W98296  44.808  43.392   1.501
26681W        W98297   2.480  25.024   1.332
26682W        W98298   9.340  26.102   0.542
26683W        W98299  31.299   5.332  13.865
26684W        W98300  42.758  25.940  12.044
26685W        W98301   6.985  26.110  10.771
26686W        W98302  14.179  18.577  10.637
26687W        W98303  17.604  14.876   4.251
26688W        W98304   5.176  33.991   2.360
26689W        W98305   0.820  16.480   2.425
26690W        W98306  30.353  10.315   4.580
26691W        W98307  35.140   6.007  10.588
26692W        W98308  11.718   6.691   3.044
26693W        W98309  16.590  34.377  12.032
26694W        W98310  31.698   9.463  12.080
26695W        W98311  40.050   7.316   4.195
26696W        W98312  29.041  37.300  14.367
26697W        W98313  31.556  17.980  12.458
26698W        W98314  37.353  39.353  14.320
26699W        W98315  29.347  42.450  10.757
26700W        W98316   8.448   4.819   4.334
26701W        W98317  29.458   6.379   1.335
26702W        W98318  36.103  14.148   3.638
26703W        W98319  10.568  17.503   1.733
26704W        W98320  37.744   2.980   2.663
26705W        W98321  12.642  30.059  11.555
26706W        W98322  32.147   2.947  14.454
26707W        W98323  34.287  44.979  13.644
26708W        W98324  22.211  36.446   2.434
26709W        W98325  37.962  23.461   4.177
26710W        W98326   9.903  30.124  14.375
26711W        W98327  33.122  34.786   2.267
26712W        W98328  18.272  43.361  12.154
26713W        W98329  37.721  12.132   1.143
26714W        W98330  14.053   6.879   0.945
26715W        W98331  27.892  11.717   3.627
26716W        W98332  32.007  31.075  14.322
26717W        W98333  25.643  20.621   3.742
26718W        W98334  33.349   2.791   0.362
26719W        W98335  11.382   8.692   3.932
26720W        W98336   8.888  36.522  12.886
26721W        W98337  10.397  14.281   3.387
26722W        W98338  27.131  28.664  12.874
26723W        W98339   7.759  39.159  14.021
26724W        W98340  21.765  27.464  12.918
26725W        W98341  41.560  12.857   2.810
26726W        W98342  44.854   8.390   2.403
26727W        W98343  21.284  34.085  13.020
26728W        W98344  37.933  40.371  10.579
26729W        W98345  19.094  30.944  14.771
26730W        W98346   8.365  20.678  11.408
26731W        W98347  14.607  35.908  14.973
26732W        W98348  43.508  19.384   0.172
26733W        W98349  38.935  40.480   0.471
26734W        W98350  27.636  30.439  12.129
26735W        W98351   3.149  13.056   1.601
26736W        W98352  10.389   8.776   0.787
26737W        W98353  30.066  25.535   3.283
26738W        W98354  26.544  20.473   3.905
26739W        W98355  11.079  42.110  14.747
26740W        W98356  44.054  15.638  11.322
26741W        W98357  44.492  14.840  14.026
26742W        W98358   8.715  25.601   4.740
26743W        W98359  34.975  27.231   0.214
26744W        W98360  15.505   3.511   1.949
26745W        W98361  42.832  13.220  12.385
26746W        W98362  32.104   8.075   1.186
26747W        W98363  33.410  39.322  13.734
26748W        W98364  35.021  38.315  14.733
26749W        W98365   1.934   9.430   3.245
26750W        W98366  41.570  37.504   0.895
26751W        W98367  41.744   4.338  10.550
26752W        W98368  19.743  14.610   2.241
26753W        W98369  28.006  38.524  12.340
26754W        W98370  15.807  40.314   1.823
26755W        W98371   2.375  25.920   4.497
26756W        W98372  25.283  12.693  11.451
26757W        W98373  23.439  43.449  11.087
26758W        W98374  40.219  41.456  13.928
26759W        W98375   6.809  30.378   1.829
26760W        W98376  18.321  43.801  11.896
26761W        W98377  37.523  19.677   4.191
26762W        W98378  23.669  23.494   1.477
26763W        W98379  10.829   4.257   4.201
26764W        W98380  43.023   7.955   1.824
26765W        W98381  10.278  23.675  11.678
26766W        W98382  11.430  27.091  12.463
26767W        W98383  25.668   3.257  10.953
26768W        W98384   3.516  25.174   0.777
26769W        W98385  36.985  20.602   3.046
26770W        W98386  43.577   7.322  11.506
26771W        W98387  35.549  17.271  11.195
26772W        W98388   5.512   4.630   2.362
26773W        W98389  21.098  11.779  11.535
26774W        W98390  42.488  28.114  13.741
26775W        W98391  13.608  39.934  12.171
26776W        W98392  12.811  34.971   2.368
26777W        W98393  17.773  31.106   2.176
26778W        W98394   9.126   3.060  13.935
26779W        W98395  42.711  38.096   9.761
26780W        W98396  35.468   9.318  13.121
26781W        W98397  12.018   8.280   0.008
26782W        W98398  42.353  18.495   3.294
26783W        W98399  41.811   8.110  11.081
26784W        W98400  28.889  23.048  14.051
26785W        W98401  26.401  10.593  13.053
26786W        W98402   4.818   9.862   0.326
26787W        W98403  11.303   9.824  12.663
26788W        W98404  25.716  20.207   2.224
26789W        W98405  18.805  15.827  12.591
26790W        W98406   2.287   0.350  10.657
26791W        W98407  10.645   6.907  13.358
26792W        W98408  21.530  10.371   1.170
26793W        W98409  11.839   4.721  11.563
26794W        W98410  13.958  33.845   0.308
26795W        W98411  12.414  10.935  12.913
26796W        W98412  31.659  43.663   0.368
26797W        W98413  28.591  37.344  14.727
26798W        W98414  36.838  44.555   1.283
26799W        W98415  33.469  28.700   0.263
26800W        W98416   1.268  27.170   1.727
26801W        W98417   6.661  43.536  11.583
26802W        W98418  36.025  28.109   4.922
26803W        W98419  36.404  21.693  12.653
26804W        W98420  33.183   4.712  11.152
26805W        W98421   7.098   7.838   2.708
26806W        W98422   4.926  14.116  12.225
26807W        W98423  40.451  13.031   2.105
26808W        W98424  29.878  12.188   4.180
26809W        W98425  35.930  34.981  11.124
26810W        W98426  16.684   7.396  11.701
26811W        W98427   4.770  14.129   0.252
26812W        W98428  10.770  29.854  14.936
26813W        W98429   2.004  28.515   2.900
26814W        W98430  13.066  28.605  13.997
26815W        W98431  18.722  12.555   2.695
26816W        W98432   7.344   7.260   4.288
26817W        W98433  39.015  29.909   3.671
26818W        W98434  15.789  18.752  14.017
26819W        W98435  27.656  33.837   1.260
26820W        W98436  11.865  19.826  10.820
26821W        W98437  32.851  38.216   3.164
26822W        W98438  24.181  23.633  11.083
26823W        W98439   8.330  31.128   2.724
26824W        W98440  44.048  24.965  10.705
26825W        W98441  10.741  41.082   2.698
26826W        W98442  20.047  34.742   3.320
26827W        W98443  15.085  36.525  14.480
26828W        W98444  30.377   4.502  11.961
26829W        W98445  10.767   5.872   2.154
26830W        W98446  22.549  37.776   4.203
26831W        W98447  21.350  25.689   4.190
26832W        W98448   5.798  17.752   4.100
26833W        W98449  10.624  38.910   3.683
26834W        W98450  24.978   6.177  13.796
26835W        W98451  38.415  39.837  11.006
26836W        W98452  14.243  43.026   2.157
26837W        W98453  19.322  15.255   2.891
26838W        W98454  35.794  37.609   4.816
26839W        W98455  15.297  13.760   1.204
26840W        W98456  29.993  38.326   1.824
26841W        W98457  30.497   5.752   3.342
26842W        W98458  11.412   8.867  10.625
26843W        W98459  36.540  34.962   3.705
26844W        W98460   6.499  39.047   4.091
26845W        W98461  30.346   9.220   1.929
26846W        W98462  14.812  26.920  12.938
26847W        W98463  27.988  12.746   2.700
26848W        W98464  37.344  24.640   1.947
26849W        W98465  33.924  35.607  13.947
26850W        W98466  35.553  20.320  12.001
26851W        W98467  21.536   4.489   0.760
26852W        W98468  27.180  40.535  11.148
26853W        W98469  30.464  38.467   0.859
26854W        W98470  43.018  28.465   2.099
26855W        W98471  12.383  35.092  13.132
26856W        W98472  31.617  27.286   1.798
26857W        W98473   3.878  29.526   4.414
26858W        W98474  44.874  29.207   2.244
26859W        W98475  31.073   1.342  11.182
26860W        W98476  44.440  40.430   1.173
26861W        W98477  35.125  25.923   0.494
26862W        W98478  38.131  40.868  14.707
26863W        W98479  15.130   4.907   2.759
26864W        W98480  21.730  28.506  14.233
26865W        W98481  29.878  11.618  11.912
26866W        W98482  37.902  41.467   3.216
26867W        W98483  42.241  32.841  14.017
26868W        W98484   6.475  32.464  10.305
26869W        W98485   1.936   1.722  10.570
26870W        W98486   3.584  21.514  14.287
26871W        W98487  13.127  35.318   1.768
26872W        W98488  37.506  12.674   4.303
26873W        W98489  28.390  12.322   3.260
26874W        W98490  32.251  17.588  13.791
26875W        W98491   4.646  34.946  13.902
26876W        W98492  18.741  31.842   4.958
26877W        W98493   1.223   3.411  13.145
26878W        W98494  26.739   7.754  12.454
26879W        W98495   4.883   5.359   3.754
26880W        W98496  22.771  34.919  11.074
26881W        W98497  28.458   1.317  10.936
26882W        W98498  10.907  10.464   0.626
26883W        W98499   2.783  31.988   0.384
26884W        W98500  17.703  18.520  14.680
26885W        W98501   4.048  42.920   4.365
26886W        W98502  33.434  18.563   2.574
26887W        W98503  30.922  30.505   5.099
26888W        W98504  27.825  13.388   4.982
26889W        W98505   8.611   3.213  13.025
26890W        W98506  13.693   8.362   1.203
26891W        W98507  40.251   9.205   3.786
26892W        W98508  11.730  29.055   0.133
26893W        W98509  17.709   8.183  13.931
26894W        W98510  40.544   4.903  12.412
26895W        W98511  25.783  25.153   2.836
26896W        W98512   1.137   7.312  12.907
26897W        W98513  29.067   6.451   0.692
26898W        W98514  15.058  10.082  12.607
26899W        W98515  36.903  27.409  10.522
26900W        W98516  44.847  40.279  10.571
26901W        W98517  17.920   5.020   2.684
26902W        W98518  32.902  21.607  10.554
26903W        W98519  27.685   4.662   1.913
26904W        W98520  32.893  13.731   0.833
26905W        W98521   0.300  39.178  11.706
26906W        W98522   0.282  39.663   3.644
26907W        W98523  19.443  28.131  14.134
26908W        W98524  31.900  12.200  11.502
26909W        W98525  23.618  22.276   3.216
26910W        W98526  40.302  38.922  13.978
26911W        W98527  38.674  32.572   0.221
26912W        W98528   8.791  39.121  14.834
26913W        W98529  28.661  38.799  11.671
26914W        W98530  19.772   4.750  13.964
26915W        W98531  44.315  24.508  11.419
26916W        W98532   2.476  32.398   4.460
26917W        W98533  17.067   4.149  12.101
26918W        W98534  10.169  26.218   1.800
26919W        W98535  33.839  16.163   0.281
26920W        W98536  26.564  16.755   1.177
26921W        W98537  11.801  27.469  13.390
26922W        W98538  39.103   7.273  12.263
26923W        W98539  41.965  32.632   3.338
26924W        W98540  40.404   1.260  13.457
26925W        W98541  11.161  13.209  14.826
26926W        W98542   2.236  19.607  14.055
26927W        W98543  25.175  33.865  14.042
26928W        W98544   2.732  11.723  13.392
26929W        W98545  31.587  42.833   3.557
26930W        W98546   5.123  12.396   3.673
26931W        W98547  26.057   6.734   1.180
26932W        W98548  30.172  16.582   4.245
26933W        W98549  29.984  17.854  14.108
26934W        W98550  30.517  21.048  12.567
26935W        W98551  21.519  10.123  11.948
26936W        W98552  34.655  13.600  12.691
26937W        W98553  28.905  40.641  10.742
26938W        W98554  40.368  34.910   0.245
26939W        W98555  36.816  12.154  12.104
26940W        W98556  22.233  30.271   4.789
26941W        W98557  14.409  44.347   1.717
26942W        W98558  16.084  39.538   1.390
26943W        W98559  24.244   2.403   0.915
26944W        W98560  37.349  12.244   2.582
26945W        W98561   3.361  34.988  12.452
26946W        W98562  44.704   0.997   2.193
26947W        W98563  28.050  36.922   4.259
26948W        W98564   5.355   4.157  13.050
26949W        W98565  12.597  37.061  11.346
26950W        W98566  10.835  40.934   2.216
26951W        W98567  17.835  36.663  12.323
26952W        W98568   9.675   9.461  13.506
26953W        W98569  32.423  38.508   2.251
26954W        W98570  35.925  26.554  12.506
26955W        W98571  22.647  13.723  11.840
26956W        W98572   9.738  35.324   4.410
26957W        W98573  33.354   9.308  10.427
26958W        W98574  11.658  41.525  10.773
26959W        W98575  17.039  43.989   3.849
26960W        W98576  13.204  40.819   0.391
26961W        W98577  39.393  35.403   4.358
26962W        W98578  12.231  14.286   4.680
26963W        W98579  21.712  44.111   4.198
26964W        W98580  21.534  30.618   2.911
26965W        W98581  21.777   8.622  11.572
26966W        W98582  37.042   3.737  11.011
26967W        W98583  25.242   8.082  12.609
26968W        W98584  12.608   9.677  14.698
26969W        W98585  35.584  35.509   3.354
26970W        W98586  15.801  32.397  11.085
26971W        W98587   5.483   6.829  14.905
26972W        W98588  24.556   2.418   2.831
26973W        W98589  37.157  22.562  11.879
26974W        W98590  44.804   9.800   2.356
26975W        W98591  33.640  43.970  12.464
26976W        W98592   8.360   8.902   0.922
26977W        W98593  12.867  33.075   0.363
26978W        W98594  12.327  26.915   4.091
26979W        W98595  25.535  29.606  13.377
26980W        W98596   7.939  38.910  14.904
26981W        W98597  30.392  10.291  13.281
26982W        W98598  38.929  44.453  14.833
26983W        W98599   4.180  39.803   3.170
26984W        W98600  18.853  28.582  13.177
26985W        W98601  27.916  28.610   3.639
26986W        W98602   4.976  21.542   0.388
26987W        W98603   9.712   0.509  12.038
26988W        W98604  32.397   0.029  10.946
26989W        W98605  18.367  25.154   0.047
26990W        W98606   1.296  42.935   2.974
26991W        W98607  40.507  36.845  12.867
26992W        W98608  28.659  19.532   5.035
26993W        W98609  23.080  34.337  12.699
26994W        W98610  34.992  42.192   0.040
26995W        W98611  33.461  21.927  12.017
26996W        W98612  27.494  18.608   0.522
26997W        W98613  17.714  12.170   2.961
26998W        W98614  11.057   5.173  12.074
26999W        W98615  37.812  30.027  14.255
27000W        W98616  18.859  44.148   0.438
27001W        W98617   4.222  29.599   0.837
27002W        W98618  35.726  27.253  14.450
27003W        W98619  21.674  19.688  12.061
27004W        W98620  14.167  15.017  12.957
27005W        W98621  29.530  29.686  14.974
27006W        W98622  21.547  12.754   0.382
27007W        W98623  28.234  25.225  10.107
27008W        W98624   3.497  10.630   0.495
27009W        W98625  44.518  41.287   3.217
27010W        W98626   4.576  18.376  14.724
27011W        W98627  16.049  16.100   9.448
27012W        W98628  37.875  26.911   3.832
27013W        W98629  16.956  33.106  12.335
27014W        W98630   9.862  42.322  12.657
27015W        W98631   5.958   6.719  12.534
27016W        W98632  39.439  21.780   1.291
27017W        W98633  40.518   0.571  10.709
27018W        W98634  27.209  10.695   0.758
27019W        W98635  17.702   6.577   3.653
27020W        W98636  19.982  15.156   0.867
27021W        W98637  30.673  27.695  11.632
27022W        W98638  19.962  23.709   1.878
27023W        W98639  43.919  14.343  13.726
27024W        W98640  29.977  28.435   2.314
27025W        W98641  24.220   9.638  13.836
27026W        W98642  39.860  43.686   3.140
27027W        W98643   1.376  18.099  14.004
27028W        W98644  13.061   7.685   2.330
27029W        W98645  42.919   7.258   0.230
27030W        W98646  41.906  17.557  14.003
27031W        W98647  40.249  38.991   4.663
27032W        W98648  27.153   1.458   4.022
27033W        W98649  12.657  41.614   2.881
27034W        W98650  37.120  18.248   3.189
27035W        W98651  21.559  31.694  12.971
27036W        W98652   4.243  15.468   4.984
27037W        W98653  30.120   1.019   1.466
27038W        W98654  40.321  29.478   3.775
27039W        W98655  24.875  36.582   1.942
27040W        W98656  44.540  41.464  10.330
27041W        W98657  42.274  38.333   4.202
27042W        W98658  21.424  44.336   3.824
27043W        W98659  44.877  30.033  13.387
27044W        W98660  21.572  15.730   0.915
27045W        W98661   3.724  15.709  11.366
27046W        W98662  21.510   1.926   3.595
27047W        W98663  24.136   7.977  10.655
27048W        W98664  39.440  11.204  12.029
27049W        W98665  10.193  11.669   1.887
27050W        W98666  33.943   0.243   2.800
27051W        W98667  31.157  20.020   4.060
27052W        W98668  31.067  26.761  13.591
27053W        W98669  11.813  38.266   2.376
27054W        W98670   4.996   6.233   1.836
27055W        W98671  38.246   7.816  13.669
27056W        W98672  20.837   6.659   3.919
27057W        W98673  21.123  18.531   0.993
27058W        W98674   1.930   5.648   4.125
27059W        W98675  41.084  30.952  12.997
27060W        W98676  38.659  42.481   1.338
27061W        W98677   3.269  23.931   0.547
27062W        W98678   3.018  33.302  13.003
27063W        W98679   2.635  10.130   3.358
27064W        W98680  37.126   5.681   3.234
27065W        W98681  34.346  36.564  13.255
27066W        W98682  26.289  32.163  10.543
27067W        W98683  44.383  35.805   0.451
27068W        W98684   6.280  29.570   3.735
27069W        W98685   2.052   7.379  12.750
27070W        W98686  27.211  11.090  11.944
27071W        W98687  37.085  35.557   0.389
27072W        W98688   2.669  34.692   4.004
27073W        W98689  23.231   8.867  12.610
27074W        W98690   5.767  38.801   1.931
27075W        W98691   6.166   1.706  12.537
27076W        W98692  38.103   5.463   2.083
27077W        W98693  26.810  16.219  12.974
27078W        W98694  33.758   1.934   5.173
27079W        W98695  40.272  26.199  11.550
27080W        W98696   7.472  29.306  11.017
27081W        W98697   7.634  28.724  13.294
27082W        W98698  34.682  35.775   1.339
27083W        W98699  16.001  24.691  13.531
27084W        W98700  43.357   2.452  14.433
27085W        W98701  29.719  38.928  13.456
27086W        W98702  29.056  41.077   2.545
27087W        W98703  14.857  18.218   3.172
27088W        W98704  40.986  34.613  10.442
27089W        W98705  28.473  28.346   1.358
27090W        W98706  28.416  15.596  11.600
27091W        W98707  10.263  31.324  12.421
27092W        W98708  44.096  24.628   1.427
27093W        W98709   4.206  40.340  12.961
27094W        W98710   1.956  24.567  13.107
27095W        W98711  41.058  19.763   2.246
27096W        W98712  29.118   6.502  11.970
27097W        W98713  18.192  12.952  11.947
27098W        W98714  10.869  30.943   2.765
27099W        W98715  30.288  16.094   2.259
27100W        W98716   4.310   0.939   0.929
27101W        W98717  40.840  33.580   2.230
27102W        W98718  21.010  16.389  10.464
27103W        W98719  23.699   9.117  11.110
27104W        W98720   2.794  18.514   1.789
27105W        W98721   8.307  43.862  14.403
27106W        W98722  30.075  24.783  13.372
27107W        W98723  16.084  25.934  10.449
27108W        W98724  36.444   6.708  14.896
27109W        W98725   3.212   4.436  13.469
27110W        W98726  10.834   7.341  12.430
27111W        W98727  13.154  10.413  11.081
27112W        W98728  31.037  29.086  14.948
27113W        W98729  43.675  39.527  12.121
27114W        W98730  14.268  35.515  14.853
27115W        W98731  34.346  14.002  12.661
27116W        W98732  38.593  35.975   3.820
27117W        W98733   9.998  27.022   3.476
27118W        W98734  20.972   8.741   1.626
27119W        W98735  40.194  43.801   2.177
27120W        W98736  11.472  20.008   3.131
27121W        W98737  30.163   6.826   1.470
27122W        W98738  19.248   4.668  14.021
27123W        W98739  37.654   0.222  12.681
27124W        W98740   6.989  26.964   1.732
27125W        W98741   2.291  35.681  12.847
27126W        W98742   9.266  28.438  11.012
27127W        W98743   6.295  16.691   0.073
27128W        W98744  23.438  43.039   1.840
27129W        W98745  43.489  39.298  14.034
27130W        W98746  33.189  20.099   3.407
27131W        W98747  31.093  24.778  14.989
27132W        W98748   1.017   9.767   3.660
27133W        W98749  38.093  34.684  11.436
27134W        W98750  18.017  26.587   1.328
27135W        W98751  25.381  35.799   2.081
27136W        W98752  14.718  30.306   1.159
27137W        W98753  19.216  33.129  13.089
27138W        W98754   7.273  36.335  14.682
27139W        W98755  42.807  13.445   1.904
27140W        W98756  24.509  30.598   3.269
27141W        W98757  44.391  30.011  14.621
27142W        W98758  34.095   9.867  11.842
27143W        W98759  20.697  35.004  14.197
27144W        W98760  29.528  38.445  14.779
27145W        W98761   1.172  42.857   2.426
27146W        W98762  42.732   3.853   0.788
27147W        W98763  44.085   6.537  14.233
27148W        W98764  39.875  39.328   2.341
27149W        W98765  15.024  44.959  13.556
27150W        W98766  24.097  40.887  13.885
27151W        W98767  20.629  32.102  13.710
27152W        W98768  28.666   3.670  11.941
27153W        W98769  26.079   1.719   0.712
27154W        W98770  29.890  44.020  13.730
27155W        W98771   9.256  42.585   3.850
27156W        W98772  17.419   1.018  13.897
27157W        W98773  31.726  26.524  13.158
27158W        W98774  16.771  28.341   3.250
27159W        W98775  31.513   7.236   0.297
27160W        W98776  22.063  18.250   4.226
27161W        W98777  42.202  44.513  14.432
27162W        W98778  36.407  32.190   1.833
27163W        W98779  42.799  44.792  13.445
27164W        W98780  14.596   7.332  10.639
27165W        W98781  43.676   0.912   0.530
27166W        W98782  19.570  28.558  14.843
27167W        W98783  25.634  12.497  14.071
27168W        W98784   3.333  37.788  13.242
27169W        W98785  16.279   0.294  13.482
27170W        W98786  38.437  26.367  12.383
27171W        W98787  13.984  44.609  13.529
27172W        W98788  42.917   4.788   4.134
27173W        W98789  29.193  32.617  12.656
27174W        W98790  24.251  32.423   0.278
27175W        W98791  15.035  24.437  10.553
27176W        W98792  40.050  19.997   0.826
27177W        W98793  44.660   3.286   3.565
27178W        W98794  33.321  29.274   4.921
27179W        W98795  26.587  37.333  13.855
27180W        W98796  41.288  38.333  13.428
27181W        W98797  23.013  29.511   2.311
27182W        W98798   7.529  16.302   2.345
27183W        W98799  37.978  14.237  13.747
27184W        W98800  15.139  28.544   2.966
27185W        W98801  39.958  42.295   4.158
27186W        W98802   4.867  27.223   0.273
27187W        W98803  31.067  43.295  11.900
27188W        W98804  40.721   5.981  14.839
27189W        W98805  33.639  12.771   3.806
27190W        W98806  38.358   9.141   1.874
27191W        W98807  35.083  39.097   3.533
27192W        W98808  18.885  21.406   3.569
27193W        W98809   1.223   0.875  12.003
27194W        W98810  37.322  19.376   3.460
27195W        W98811  37.973  28.137   4.301
27196W        W98812  43.885   4.521   2.750
27197W        W98813  36.537  13.398   1.473
27198W        W98814  12.166  34.987   0.746
27199W        W98815  34.321  20.779   1.496
27200W        W98816  29.722  14.604   4.215
27201W        W98817  33.058   1.957  14.439
27202W        W98818  13.259  13.717   1.313
27203W        W98819  23.519  30.024  14.892
27204W        W98820   2.445  31.204   0.223
27205W        W98821  39.912  27.762  13.897
27206W        W98822  34.023  17.952  14.857
27207W        W98823  40.227   2.245   3.941
27208W        W98824  35.406  20.802   2.306
27209W        W98825  19.118   9.065  14.464
27210W        W98826   5.185  40.437   1.213
27211W        W98827  26.792  14.768  11.140
27212W        W98828   0.470  32.470  11.676
27213W        W98829  43.046  16.239   2.367
27214W        W98830  11.268  19.549  13.054
27215W        W98831  15.872   8.414  14.460
27216W        W98832  10.142  33.638   1.317
27217W        W98833  35.995  29.918   3.659
27218W        W98834  37.937  38.861  12.125
27219W        W98835  26.996  20.014   1.262
27220W        W98836  34.706  35.201   9.947
27221W        W98837  35.568  21.515   1.763
27222W        W98838  19.474  43.916   1.346
27223W        W98839  35.065  13.235  10.632
27224W        W98840  30.910  39.379  13.401
27225W        W98841  26.023  36.434  11.116
27226W        W98842  23.063  21.453   1.348
27227W        W98843  25.602  22.762   1.184
27228W        W98844   0.250  14.678   3.312
27229W        W98845  39.100  13.645   4.573
27230W        W98846  16.875  10.616   0.477
27231W        W98847  19.060  34.408  12.135
27232W        W98848  18.149  44.235   1.902
27233W        W98849  36.940  36.774  14.901
27234W        W98850   5.700  40.995  12.544
27235W        W98851  35.196   2.030   0.656
27236W        W98852  23.110  27.032  14.821
27237W        W98853  33.474   2.398   4.071
27238W        W98854  27.643  11.653  12.356
27239W        W98855  17.078  36.471  13.344
27240W        W98856  13.719  14.074  12.376
27241W        W98857  13.593  29.039   1.684
27242W        W98858  38.416  15.831  11.391
27243W        W98859  24.373   0.506   0.895
27244W        W98860  39.202  18.551  13.001
27245W        W98861  44.909   8.691   2.824
27246W        W98862  21.785  40.961   2.778
27247W        W98863  21.443  37.523  11.481
27248W        W98864   0.010  44.359  11.205
27249W        W98865  19.695   5.931  14.020
27250W        W98866  23.714  16.313   1.904
27251W        W98867  25.976  33.671   1.358
27252W        W98868  26.560  33.657  13.243
27253W        W98869  27.992  15.317  11.741
27254W        W98870   7.080  27.612   2.872
27255W        W98871  40.742  16.312  14.926
27256W        W98872  20.792   3.876  11.645
27257W        W98873   8.058  16.270   3.060
27258W        W98874  33.609  12.842   2.781
27259W        W98875  10.716  44.907  10.721
27260W        W98876  21.327  28.704  12.228
27261W        W98877  39.454  32.127  11.832
27262W        W98878  17.273  18.740  14.896
27263W        W98879  41.999  15.724  13.123
27264W        W98880  16.824   6.249   4.592
27265W        W98881  13.537  30.871  10.612
27266W        W98882  13.401  34.580   3.794
27267W        W98883  31.045  42.776  14.816
27268W        W98884  36.511  36.576   3.146
27269W        W98885  22.593  36.579  12.294
27270W        W98886  31.133  22.591   4.668
27271W        W98887  18.203   5.754   0.995
27272W        W98888  36.463  39.193   0.009
27273W        W98889  23.855  27.883   4.133
27274W        W98890   4.776  32.181   3.256
27275W        W98891  28.250  17.723   1.151
27276W        W98892  33.976   1.565  14.463
27277W        W98893   9.450   0.095  13.694
27278W        W98894  37.426  27.453   4.794
27279W        W98895  17.080  30.519  14.775
27280W        W98896  13.054   9.178   3.179
27281W        W98897   5.322  41.236   0.499
27282W        W98898   7.314   8.528   1.949
27283W        W98899  17.073   2.978   4.764
27284W        W98900  16.169  42.366   3.276
27285W        W98901  42.603  30.547  13.545
27286W        W98902  17.996  13.938  14.351
27287W        W98903   5.386  41.976   3.789
27288W        W98904   1.081  43.846  14.274
27289W        W98905  30.415   9.828  11.923
27290W        W98906   7.179  33.040   0.709
27291W        W98907  18.839  38.925  14.816
27292W        W98908  35.067  43.426  11.227
27293W        W98909  13.970  16.519  14.255
27294W        W98910   7.786  25.040  14.582
27295W        W98911  17.594  19.011   2.440
27296W        W98912  27.650  23.684   4.681
27297W        W98913  16.145   2.018  14.386
27298W        W98914  30.858  38.472  13.598
27299W        W98915   6.180  35.406   4.554
27300W        W98916  38.954  10.292   0.254
27301W        W98917  30.149  41.901   2.901
27302W        W98918   2.761  24.020   0.305
27303W        W98919  37.521  30.442  14.351
27304W        W98920  44.423  14.696  12.354
27305W        W98921  39.768  23.223  14.394
27306W        W98922  44.294  31.987  12.419
27307W        W98923  27.014  17.833  10.937
27308W        W98924   2.709  23.327   2.273
27309W        W98925  27.003  23.621   1.249
27310W        W98926  11.881   4.749  14.758
27311W        W98927  31.114   2.275   4.685
27312W        W98928  13.928   5.354   1.379
27313W        W98929  44.253  19.200   2.444
27314W        W98930  28.846  18.643  14.457
27315W        W98931  14.054  30.668   2.935
27316W        W98932   7.223  43.972  10.794
27317W        W98933  40.440  38.061   3.291
27318W        W98934  20.538  13.127   4.118
27319W        W98935  40.219  39.446  13.875
27320W        W98936  21.556  36.326  14.443
27321W        W98937  15.089  13.734  12.451
27322W        W98938  39.196   9.749  13.438
27323W        W98939  13.248   9.189   4.136
27324W        W98940  44.936  34.399   4.198
27325W        W98941  31.160  14.727  13.947
27326W        W98942  29.664  17.617   3.239
27327W        W98943  19.378  17.599  11.178
27328W        W98944  31.904  39.279  13.599
27329W        W98945   8.057  33.678   2.325
27330W        W98946  33.793  23.244   5.138
27331W        W98947   9.220  20.170  11.623
27332W        W98948  36.333  32.910   1.547
27333W        W98949  11.887  19.379  13.868
27334W        W98950   6.026  21.047   0.853
27335W        W98951  41.726  30.584   2.736
27336W        W98952  43.424  36.587   2.651
27337W        W98953  40.818  27.852   3.707
27338W        W98954  20.348  42.930   1.476
27339W        W98955   2.690  32.037   1.267
27340W        W98956  34.160  34.389  13.991
27341W        W98957  36.865  39.373   3.438
27342W        W98958  44.067  25.739   0.773
27343W        W98959  39.155  20.155   1.029
27344W        W98960  33.247  44.280   3.201
27345W        W98961   2.015  25.853  13.208
27346W        W98962  38.973   3.939  11.922
27347W        W98963   8.055  14.182   1.375
27348W        W98964  35.385  35.010  11.949
27349W        W98965  16.508  39.524  12.882
27350W        W98966   1.036  25.629  14.984
27351W        W98967  43.036  23.075   1.379
27352W        W98968  23.251  18.512   0.335
27353W        W98969  23.516   0.968  13.390
27354W        W98970  17.129   9.089  11.971
27355W        W98971  36.852  35.452   1.789
27356W        W98972  36.319  12.282   1.058
27357W        W98973  22.729  29.500  13.600
27358W        W98974  28.197  37.497   4.079
27359W        W98975  16.443  24.926  11.981
27360W        W98976   9.064  41.308   3.219
27361W        W98977  26.809  44.212  13.357
27362W        W98978  22.448   4.898   3.789
27363W        W98979  27.646  23.101   0.331
27364W        W98980  31.956  41.035   1.358
27365W        W98981  26.003   0.377   4.414
27366W        W98982  36.358  12.806   3.877
27367W        W98983   2.533  12.197  10.747
27368W        W98984  14.628   3.272  12.103
27369W        W98985   8.329  24.165   0.889
27370W        W98986  30.586  28.582   0.558
27371W        W98987  10.543  40.217  13.007
27372W        W98988  28.005  20.075  11.056
27373W        W98989  12.105  15.636   0.837
27374W        W98990  21.712   4.116  14.202
27375W        W98991  24.040   9.674  14.877
27376W        W98992  14.585  19.163   2.196
27377W        W98993  24.058  11.447  10.595
27378W        W98994  10.796  22.344  10.223
27379W        W98995  25.591  33.880   4.794
27380W        W98996  15.783  32.082   4.242
27381W        W98997   5.343  10.492   0.682
27382W        W98998  12.315  31.151  13.330
27383W        W98999  13.703  37.373   3.586
27384W        W99000   1.623  24.332   0.331
27385W        W99001  43.722  10.993   0.923
27386W        W99002  18.462  37.544   3.610
27387W        W99003   4.152  43.990  12.463
27388W        W99004  27.956  40.828   1.780
27389W        W99005  37.896  16.358  14.965
27390W        W99006   0.889  23.687   1.987
27391W        W99007  29.100  26.524  14.102
27392W        W99008   0.191  44.761   3.240
27393W        W99009  25.281  27.968  14.377
27394W        W99010   5.357   0.772   0.654
27395W        W99011   0.885   7.172  12.467
27396W        W99012  35.273  35.018  13.316
27397W        W99013   4.439  20.100  12.858
27398W        W99014   5.295  11.116  13.831
27399W        W99015  21.487  17.726   4.737
27400W        W99016  30.702  44.822  12.493
27401W        W99017  36.637   6.629   3.661
27402W        W99018  11.940  30.197   4.703
27403W        W99019   8.559  24.563  13.636
27404W        W99020   4.284  25.686  13.446
27405W        W99021   5.222  15.668   3.728
27406W        W99022  15.018  44.869  10.646
27407W        W99023  30.204  14.573   4.437
27408W        W99024   0.328  34.134   4.449
27409W        W99025  36.931  34.387  12.485
27410W        W99026  20.330  15.219   0.468
27411W        W99027   5.182  25.790   4.172
27412W        W99028   6.374   6.974  14.838
27413W        W99029  36.468   4.463   0.648
27414W        W99030  37.527  20.054  11.168
27415W        W99031  35.037  21.488  12.495
27416W        W99032  44.633  14.003   2.294
27417W        W99033  34.542  21.094  13.800
27418W        W99034  29.613   9.439  12.883
27419W        W99035  39.957  12.279  13.321
27420W        W99036  33.025  36.535  13.938
27421W        W99037   6.363  44.354  13.927
27422W        W99038  14.282  23.083   4.557
27423W        W99039  20.367  27.960  14.423
27424W        W99040  44.886  33.513  12.031
27425W        W99041   7.651  13.417  11.487
27426W        W99042  18.067   5.143  13.387
27427W        W99043  43.299   8.419   4.207
27428W        W99044   7.346   8.778  11.732
27429W        W99045   7.316  11.564   1.970
27430W        W99046   7.782   0.297   3.892
27431W        W99047  28.088   5.917  12.469
27432W        W99048  41.385  33.523  12.320
27433W        W99049  15.842  38.437   0.948
27434W        W99050  41.728  29.506   2.195
27435W        W99051  13.238  31.174   3.988
27436W        W99052   1.077  15.244   0.246
27437W        W99053  25.513  19.864   2.577
27438W        W99054  25.510  22.116   4.514
27439W        W99055  24.211  36.926   3.813
27440W        W99056  38.498  44.688   4.128
27441W        W99057   4.803   8.129  14.978
27442W        W99058  13.586   9.927   0.151
27443W        W99059  31.618  18.999  13.554
27444W        W99060  13.568  40.096  10.678
27445W        W99061  33.462  33.085   2.679
27446W        W99062  29.021   7.895  12.380
27447W        W99063  40.240  22.744  10.235
27448W        W99064   3.929  23.160   4.046
27449W        W99065  27.491  33.600   3.630
27450W        W99066  12.828  18.248   3.906
27451W        W99067  24.065  35.874   0.233
27452W        W99068  28.452  25.233   4.841
27453W        W99069  33.489  32.873  14.000
27454W        W99070  36.599   2.946   3.238
27455W        W99071  30.713   5.510   2.925
27456W        W99072  22.693  10.615  10.941
27457W        W99073  34.366  23.245  10.848
27458W        W99074  37.467   2.676   1.390
27459W        W99075  29.245  14.571  10.220
27460W        W99076  27.127  25.908   2.801
27461W        W99077  28.009  15.307   0.291
27462W        W99078   4.438  16.710   1.414
27463W        W99079  44.444   7.841   0.878
27464W        W99080  43.739  38.110  12.183
27465W        W99081  42.954  14.143  12.554
27466W        W99082  20.792   7.983   3.681
27467W        W99083  21.670  29.311   1.256
27468W        W99084  18.796  24.849   2.286
27469W        W99085  35.414  19.149  11.555
27470W        W99086   8.704  30.373   1.855
27471W        W99087  40.060  38.039  10.730
27472W        W99088  13.201   3.233   1.397
27473W        W99089  26.731  42.260  12.012
27474W        W99090  22.427   9.119  10.597
27475W        W99091  28.989   5.509   4.600
27476W        W99092   0.494  18.127  11.084
27477W        W99093  35.089  42.975  11.023
27478W        W99094  40.255  15.813   3.197
27479W        W99095  37.635  15.711   3.752
27480W        W99096  34.442  21.860  13.192
27481W        W99097  44.545  16.590   0.733
27482W        W99098   9.663  44.200   2.637
27483W        W99099  24.608  13.258   1.247
27484W        W99100  40.964  16.074   1.756
27485W        W99101  37.448  40.418  10.731
27486W        W99102  21.143  27.242   1.768
27487W        W99103  29.495  20.802   1.273
27488W        W99104  38.820  13.151  12.940
27489W        W99105  43.025  21.602   2.353
27490W        W99106   3.352  43.245  13.514
27491W        W99107  29.738  15.618  12.075
27492W        W99108  31.730  41.688  11.593
27493W        W99109  33.292  20.070  10.744
27494W        W99110  24.091  20.132   4.303
27495W        W99111  34.140  14.788   0.799
27496W        W99112   9.129   6.692  13.434
27497W        W99113  28.079  14.447  14.955
27498W        W99114  40.343  19.209   0.761
27499W        W99115   7.297  30.760   0.807
27500W        W99116  17.079   9.779   0.195
27501W        W99117  40.661  41.905  14.204
27502W        W99118  26.209  39.577   1.937
27503W        W99119  32.216   7.837  14.371
27504W        W99120  26.469  13.695   2.878
27505W        W99121  44.510  18.805   4.659
27506W        W99122  13.681  38.909   4.639
27507W        W99123  25.571  29.244   3.745
27508W        W99124  43.468  38.483   5.633
27509W        W99125   9.163  40.074   3.325
27510W        W99126   2.758  33.652   2.426
27511W        W99127  18.786  33.437  13.816
27512W        W99128  18.031  38.130  13.811
27513W        W99129  15.223  39.768  12.995
27514W        W99130  30.147  21.101  10.899
27515W        W99131   5.427   9.072  14.325
27516W        W99132  41.822  21.525   1.911
27517W        W99133  44.283  36.021  12.076
27518W        W99134  14.786   2.031   4.380
27519W        W99135  13.728  42.133   2.142
27520W        W99136  32.190  29.023  14.200
27521W        W99137  35.546  12.357   0.422
27522W        W99138   8.304  44.179  14.019
27523W        W99139  41.477  25.077   4.633
27524W        W99140  30.700   2.252   1.830
27525W        W99141   2.826   4.298  14.430
27526W        W99142  31.433   7.686  13.180
27527W        W99143  18.552   2.947   0.057
27528W        W99144  11.816  25.532   1.350
27529W        W99145  27.979  15.157   2.422
27530W        W99146  14.650  36.453  14.844
27531W        W99147  23.975  14.151   4.130
27532W        W99148   5.258   6.226   0.210
27533W        W99149  37.872  32.422  11.700
27534W        W99150  23.561  27.822   2.825
27535W        W99151  20.624   1.727  11.566
27536W        W99152  31.602  13.193  14.196
27537W        W99153  44.835   4.359   2.833
27538W        W99154   0.688  31.960   1.050
27539W        W99155   5.269  38.575   1.760
27540W        W99156   3.520  20.070  11.086
27541W        W99157   5.345   3.967   3.765
27542W        W99158  28.134   4.287   1.100
27543W        W99159  11.630  41.008  12.877
27544W        W99160  16.126  34.377  13.923
27545W        W99161  29.021  26.015  10.757
27546W        W99162  20.692  10.600   1.808
27547W        W99163  17.472   8.174   1.809
27548W        W99164  13.565  30.209   3.619
27549W        W99165   9.643   8.628  12.851
27550W        W99166  22.037  11.452   2.256
27551W        W99167   5.296  25.189  12.372
27552W        W99168   2.132   6.339   1.937
27553W        W99169  10.485  44.530  14.367
27554W        W99170  43.456  12.622   9.903
27555W        W99171   6.666   0.375   2.878
27556W        W99172  36.563   3.938   1.326
27557W        W99173   5.470  30.122  12.093
27558W        W99174  12.803   1.824  13.391
27559W        W99175  10.184   3.862   4.672
27560W        W99176  38.374  18.658  10.855
27561W        W99177  35.678  23.338  11.354
27562W        W99178  18.974  16.660   2.146
27563W        W99179  31.096  44.930   2.221
27564W        W99180   6.933  29.973  14.379
27565W        W99181   0.240  15.754   3.206
27566W        W99182  13.830  31.456  11.682
27567W        W99183  10.470   0.995  14.463
27568W        W99184  40.074   1.001  13.116
27569W        W99185   2.683   5.461   4.202
27570W        W99186   3.226  35.570  12.438
27571W        W99187  44.475  26.627  10.726
27572W        W99188  33.134   7.792   3.698
27573W        W99189  26.123   3.483   1.943
27574W        W99190  39.039   0.490  13.045
27575W        W99191  25.293  17.368   2.873
27576W        W99192  14.701  11.351  13.835
27577W        W99193  22.171   4.880  12.014
27578W        W99194   9.393  33.220   0.902
27579W        W99195  28.732   2.269   3.647
27580W        W99196  16.160  43.869  11.609
27581W        W99197  40.029  34.541   4.760
27582W        W99198  17.870  44.320  11.580
27583W        W99199  23.440  25.250   3.197
27584W        W99200   1.207  21.098   4.783
27585W        W99201  36.100   5.335   4.608
27586W        W99202  21.232  43.986  10.545
27587W        W99203  34.309  12.864   0.904
27588W        W99204  19.311  29.690   0.185
27589W        W99205   8.406  40.010   0.251
27590W        W99206  22.401   2.952  10.932
27591W        W99207  42.873   3.031   4.625
27592W        W99208  22.728  44.276   4.112
27593W        W99209  14.187   4.700  12.014
27594W        W99210  21.762   9.629   0.871
27595W        W99211  13.106   5.195   4.204
27596W        W99212  30.595  30.370   9.704
27597W        W99213   1.775  38.370   2.773
27598W        W99214   5.787  29.334   4.637
27599W        W99215  12.202   6.660   2.333
27600W        W99216  19.049  13.266   1.762
27601W        W99217  15.335  16.161   2.846
27602W        W99218  16.875  38.410  12.492
27603W        W99219  42.908   6.430   1.759
27604W        W99220  18.497  15.997   3.722
27605W        W99221  18.588   7.892  12.121
27606W        W99222   5.782  43.463  11.606
27607W        W99223   9.771  13.755   1.932
27608W        W99224   0.371   7.268   0.931
27609W        W99225  35.232   4.688   1.597
27610W        W99226  15.737  18.979  14.583
27611W        W99227  44.839  36.926   0.974
27612W        W99228  27.626  41.791   1.520
27613W        W99229  11.445  15.547   3.285
27614W        W99230  22.500  16.565  11.965
27615W        W99231   2.369   8.619   3.298
27616W        W99232   7.230  35.626  10.740
27617W        W99233   0.796  15.570  10.128
27618W        W99234  41.458   1.948  12.462
27619W        W99235  43.975   9.845  14.289
27620W        W99236  26.516   8.715   2.566
27621W        W99237  42.868  26.255   1.829
27622W        W99238  14.197  32.627   1.825
27623W        W99239   3.236  30.054   3.399
27624W        W99240  30.581  10.124   1.198
27625W        W99241   6.766  22.157   1.761
27626W        W99242  11.965  12.315   2.831
27627W        W99243   3.681  24.937   2.158
27628W        W99244  28.890  39.855   3.150
27629W        W99245  22.986  20.485  11.502
27630W        W99246  33.440   0.385  13.276
27631W        W99247   1.698   8.857   3.869
27632W        W99248  40.995   0.417   4.092
27633W        W99249  34.058   3.384   3.221
27634W        W99250  15.562  15.339   3.339
27635W        W99251  33.732  26.213   2.852
27636W        W99252  18.684  15.554  11.614
27637W        W99253  43.767  22.662  14.385
27638W        W99254  37.847  27.362   1.884
27639W        W99255  40.866  28.469   4.108
27640W        W99256  37.105  34.594  14.449
27641W        W99257  39.387  35.397  12.938
27642W        W99258  43.353  32.569  13.821
27643W        W99259  21.597  30.458   1.503
27644W        W99260   2.357  14.629   4.265
27645W        W99261  39.187   2.319  11.154
27646W        W99262  16.821  13.876   3.822
27647W        W99263  32.393  14.862   1.428
27648W        W99264  27.893  30.423  12.913
27649W        W99265  28.093  26.506   4.223
27650W        W99266   4.861  25.191   0.864
27651W        W99267  24.150  16.134   3.689
27652W        W99268  28.367  42.849   0.934
27653W        W99269  19.563  26.926  14.823
27654W        W99270  22.772   2.916   1.783
27655W        W99271  14.380  40.884  11.210
27656W        W99272  23.229   4.446   2.164
27657W        W99273  39.282   3.855  13.587
27658W        W99274  30.000  29.245  12.057
27659W        W99275   6.898  35.218  14.526
27660W        W99276  37.188  41.927   0.803
27661W        W99277  27.460  44.895   3.240
27662W        W99278  33.299  12.719   1.232
27663W        W99279  38.996  18.787  13.433
27664W        W99280   6.282  35.044   3.265
27665W        W99281  39.469   0.406  10.727
27666W        W99282  10.831  32.333   2.713
27667W        W99283   9.403   0.370   1.965
27668W        W99284   7.326  25.953  14.396
27669W        W99285   6.320  17.766   0.015
27670W        W99286  41.580  42.536  11.919
27671W        W99287  32.090  29.195  10.160
27672W        W99288  36.942  11.671   1.168
27673W        W99289  27.604  37.170   0.479
27674W        W99290  23.905  18.052  10.376
27675W        W99291   2.750  38.297   3.565
27676W        W99292  25.004  38.912   2.152
27677W        W99293  13.980   7.023   5.081
27678W        W99294  20.074  41.898  13.865
27679W        W99295  33.501  16.119  11.638
27680W        W99296  19.817  34.159   2.306
27681W        W99297  31.457  28.029   4.173
27682W        W99298  32.452  42.087   3.483
27683W        W99299  31.697  27.577   4.200
27684W        W99300  29.975  19.577   3.567
27685W        W99301  14.318   7.843   2.785
27686W        W99302  19.761  22.552   0.698
27687W        W99303  12.136  11.797   4.634
27688W        W99304  28.267  38.826  14.386
27689W        W99305  35.921  20.378   3.786
27690W        W99306  25.698  37.745  12.067
27691W        W99307  32.596   5.691   3.271
27692W        W99308  12.669  40.918   1.683
27693W        W99309  16.309  37.978  10.712
27694W        W99310  34.932   3.330  14.441
27695W        W99311   4.795   2.705   0.853
27696W        W99312   7.162  28.861  11.147
27697W        W99313  19.950  12.656  11.136
27698W        W99314  30.354  18.804  14.365
27699W        W99315   0.904  16.229   1.981
27700W        W99316  41.559  36.828   2.044
27701W        W99317  44.838   5.409   1.924
27702W        W99318   5.877  39.481   3.567
27703W        W99319  38.938   2.547  13.421
27704W        W99320  19.383  16.795  12.038
27705W        W99321  40.940  37.479  13.594
27706W        W99322  42.391  38.934   2.102
27707W        W99323   1.591  39.034  10.740
27708W        W99324  11.806  22.338  14.971
27709W        W99325  37.962  42.943  12.822
27710W        W99326  35.514  33.736   1.821
27711W        W99327  23.053   3.882  10.754
27712W        W99328  43.838  19.143   3.272
27713W        W99329  23.109  42.324  10.844
27714W        W99330  15.907  22.378   1.799
27715W        W99331  30.194  11.125  11.875
27716W        W99332  23.521  13.524   2.175
27717W        W99333   9.566  16.057  13.901
27718W        W99334  35.956  17.155   2.398
27719W        W99335  16.440  20.748  10.377
27720W        W99336  14.638  35.692   2.353
27721W        W99337  43.015  14.497   1.950
27722W        W99338  32.503  26.153  10.667
27723W        W99339   7.133   9.551  11.905
27724W        W99340   2.268   3.917  11.452
27725W        W99341  39.974  23.385   1.770
27726W        W99342  25.577  14.775  12.557
27727W        W99343  35.991  17.166  14.703
27728W        W99344  31.134  35.520   0.811
27729W        W99345   5.289   6.752   1.598
27730W        W99346  19.632  27.568   3.271
27731W        W99347  40.301  43.863  11.103
27732W        W99348  36.381  11.142   0.349
27733W        W99349  11.373  24.421  12.002
27734W        W99350   8.962   4.351   2.814
27735W        W99351  10.567   4.692   2.156
27736W        W99352   4.621  12.635   3.626
27737W        W99353  27.487  33.972  11.998
27738W        W99354   5.219  18.899  12.852
27739W        W99355  18.977   3.714   1.196
27740W        W99356  31.406  20.733   4.627
27741W        W99357  29.912  36.798   0.694
27742W        W99358   7.328  25.243  12.805
27743W        W99359  41.255   5.665  12.375
27744W        W99360  28.917   9.424  13.903
27745W        W99361  15.743  18.263   0.966
27746W        W99362  35.655   8.635  14.822
27747W        W99363  27.753   7.663  12.632
27748W        W99364  20.806   2.209  13.814
27749W        W99365   7.846  20.155   0.066
27750W        W99366  10.687  28.208   4.636
27751W        W99367  26.679  41.186  14.391
27752W        W99368  34.520   0.985   4.291
27753W        W99369   6.779   3.491   2.731
27754W        W99370  20.637  21.060  10.770
27755W        W99371   0.778  16.730   1.937
27756W        W99372  37.039  17.591   3.622
27757W        W99373  25.187   6.673   1.281
27758W        W99374  31.934  38.847  11.129
27759W        W99375   0.734  43.842  13.398
27760W        W99376  43.532  12.044  12.277
27761W        W99377  26.603   0.076   1.307
27762W        W99378  12.864  44.223   1.036
27763W        W99379  42.707  23.325   2.358
27764W        W99380  40.742   1.717  13.069
27765W        W99381  13.708  14.734  11.191
27766W        W99382  20.111  16.616   3.143
27767W        W99383   0.928  14.587   2.271
27768W        W99384  22.584  13.596  14.401
27769W        W99385  34.127  15.127   4.434
27770W        W99386  11.227  42.559  11.848
27771W        W99387  23.997  15.878   3.259
27772W        W99388  19.537  42.356   2.839
27773W        W99389  16.048   1.814  13.508
27774W        W99390  41.817   4.334  12.424
27775W        W99391  44.270  30.950   4.275
27776W        W99392  40.533  25.645   3.831
27777W        W99393  26.694   0.216  10.826
27778W        W99394   7.815  36.267   2.150
27779W        W99395   8.322  21.494   3.795
27780W        W99396  35.641  14.822   4.252
27781W        W99397  16.415  14.387   3.326
27782W        W99398   9.591  12.188  12.102
27783W        W99399  28.928  23.190  11.692
27784W        W99400  28.908  44.330   3.929
27785W        W99401  36.838  39.793   3.122
27786W        W99402  32.119  26.029   4.802
27787W        W99403  15.734  41.246  12.365
27788W        W99404  17.349  17.093   0.711
27789W        W99405   7.669  35.398  13.376
27790W        W99406  43.163  44.292  11.370
27791W        W99407  24.501  44.321  11.990
27792W        W99408  11.418   8.794   4.942
27793W        W99409  12.393  39.520  13.926
27794W        W99410  43.247  31.992  11.538
27795W        W99411  29.148  37.480  10.708
27796W        W99412  15.539   0.200   2.174
27797W        W99413  31.986  33.049  11.386
27798W        W99414   0.523  30.919  12.521
27799W        W99415  13.595  27.659  11.913
27800W        W99416  36.999   1.246   3.862
27801W        W99417   9.723  10.377  12.121
27802W        W99418  18.041  16.499  13.561
27803W        W99419  14.870  24.628   0.722
27804W        W99420  14.646  38.239   3.393
27805W        W99421  38.076  11.181  11.146
27806W        W99422  29.502  41.139  11.426
27807W        W99423  43.999  32.389   0.513
27808W        W99424  29.210  14.518  14.960
27809W        W99425  17.847   4.892  14.007
27810W        W99426  28.607  44.147   3.109
27811W        W99427  14.441   6.757   5.042
27812W        W99428   5.689  33.996   0.682
27813W        W99429   8.791  14.457  14.840
27814W        W99430  31.606  16.767   0.865
27815W        W99431  35.579   9.399   4.383
27816W        W99432  23.717  24.488  11.525
27817W        W99433  31.195  17.793   1.435
27818W        W99434  35.311  43.728   4.277
27819W        W99435  18.743  32.640   0.262
27820W        W99436  15.331  14.542   4.155
27821W        W99437  27.958  21.611  13.536
27822W        W99438   3.721   3.347  13.847
27823W        W99439   1.998   9.507   1.992
27824W        W99440  27.150  40.062   0.801
27825W        W99441  20.244  33.565  14.202
27826W        W99442  20.668  37.074   4.139
27827W        W99443  19.239  13.226  14.218
27828W        W99444  36.985  14.697   1.550
27829W        W99445  21.902  42.372  14.272
27830W        W99446  25.241  21.678   0.310
27831W        W99447  32.678  37.020   0.384
27832W        W99448  15.024  36.202   0.853
27833W        W99449  24.638  24.468  13.608
27834W        W99450  20.033  38.303  14.880
27835W        W99451   6.657  42.014   2.119
27836W        W99452   4.420  26.770   3.765
27837W        W99453  11.118  28.482   1.420
27838W        W99454  17.032   7.176   4.847
27839W        W99455  17.106   3.773  11.719
27840W        W99456  26.097   5.692  12.193
27841W        W99457  31.581  30.481   2.760
27842W        W99458  11.181  34.626  12.960
27843W        W99459   0.770  32.873  11.505
27844W        W99460   0.679  40.156  14.478
27845W        W99461   9.690  15.192   0.458
27846W        W99462  33.448  18.775   0.368
27847W        W99463  10.182  43.375   4.353
27848W        W99464   8.636  20.196   0.774
27849W        W99465   3.391  39.887   2.752
27850W        W99466  35.163   6.850  13.608
27851W        W99467   6.787  28.201   2.113
27852W        W99468   9.117   6.938   2.196
27853W        W99469  13.601  44.321   0.462
27854W        W99470  30.618   3.244  14.826
27855W        W99471  38.350  35.896   1.799
27856W        W99472  10.841  31.272   0.061
27857W        W99473  30.031  19.247   4.618
27858W        W99474  32.151   6.329  14.348
27859W        W99475   6.209  41.535  10.214
27860W        W99476  22.997  21.287  14.413
27861W        W99477  15.238  27.100   1.426
27862W        W99478  17.724  37.246   3.187
27863W        W99479  29.966  32.977  11.473
27864W        W99480  11.970  44.144   1.276
27865W        W99481   2.390  27.945  11.968
27866W        W99482  35.861  11.693   2.592
27867W        W99483  24.044  37.665  14.561
27868W        W99484  18.252  35.985  12.559
27869W        W99485  29.570  39.572   1.622
27870W        W99486  16.239  11.560   1.475
27871W        W99487  31.144  42.279   1.726
27872W        W99488   2.316  19.229  13.354
27873W        W99489   9.558  40.187   2.375
27874W        W99490  18.944  42.487   1.849
27875W        W99491  39.855  19.037  11.421
27876W        W99492  26.415  27.453  13.761
27877W        W99493  38.357  23.128  10.706
27878W        W99494  30.453  39.092   3.172
27879W        W99495  23.515  25.765  11.198
27880W        W99496  15.329  40.143   5.030
27881W        W99497  21.038   4.364   0.036
27882W        W99498  36.564   3.423  11.157
27883W        W99499  27.040  41.404   4.304
27884W        W99500  23.205  36.506  11.008
27885W        W99501  17.880  42.944   1.324
27886W        W99502  14.921   2.719   9.483
27887W        W99503  22.582  43.323   0.520
27888W        W99504  20.200  14.260  11.396
27889W        W99505  17.351  22.133  14.380
27890W        W99506  11.142  15.153  13.844
27891W        W99507  28.102  11.911   3.146
27892W        W99508   0.933  20.009  13.571
27893W        W99509  35.978  33.953   1.868
27894W        W99510  22.125  41.939  11.313
27895W        W99511  22.706  16.183   3.779
27896W        W99512  12.231  33.501  11.341
27897W        W99513  12.915  40.066   2.704
27898W        W99514  19.146  24.449   1.338
27899W        W99515  35.988   8.814   0.198
27900W        W99516  20.285   3.941   4.830
27901W        W99517   0.159   5.177   3.147
27902W        W99518   6.457  17.632  11.109
27903W        W99519  26.397  13.313   1.744
27904W        W99520  33.980  31.467  11.653
27905W        W99521  30.895  30.880  14.589
27906W        W99522   3.383  29.108   3.884
27907W        W99523   4.349  37.644  12.783
27908W        W99524  29.678  24.969  12.125
27909W        W99525  17.419   3.252  12.462
27910W        W99526  38.321  14.315  11.940
27911W        W99527  32.594  44.598  10.675
27912W        W99528  34.179  29.571   4.025
27913W        W99529  16.138  24.944  12.453
27914W        W99530   6.130  25.158  11.972
27915W        W99531   0.798  41.987   4.102
27916W        W99532  27.963  39.591  14.848
27917W        W99533   3.124   3.416   3.756
27918W        W99534  43.092  13.591  11.766
27919W        W99535  11.702  23.277   4.641
27920W        W99536  15.841  38.483  12.557
27921W        W99537  31.976  29.687  14.015
27922W        W99538  22.158  11.849  11.458
27923W        W99539  31.983   6.197  12.311
27924W        W99540  12.178  13.759  12.003
27925W        W99541  29.374   2.481   0.176
27926W        W99542  40.389  24.296  14.273
27927W        W99543  28.887  17.777   0.309
27928W        W99544  11.790   1.268  12.821
27929W        W99545  41.463   2.225   3.173
27930W        W99546  17.256  12.252  11.878
27931W        W99547  41.918  19.140  14.025
27932W        W99548  23.551  22.906   0.291
27933W        W99549  12.135  12.655  13.528
27934W        W99550  17.693  27.650   2.292
27935W        W99551  11.600  34.405  11.692
27936W        W99552  42.420   7.416  14.493
27937W        W99553  20.964  25.473   2.625
27938W        W99554  44.269  22.751   0.507
27939W        W99555  31.611  35.975  13.731
27940W        W99556  17.081   4.993  13.448
27941W        W99557  40.941   4.736   3.694
27942W        W99558   8.497  21.418  10.198
27943W        W99559  44.636  37.586   4.048
27944W        W99560  36.619  13.253  12.408
27945W        W99561  14.105   3.716  13.558
27946W        W99562  12.620   8.086  13.108
27947W        W99563  43.601   3.298   3.457
27948W        W99564   0.855   1.527  13.547
27949W        W99565  28.662  30.799   0.776
27950W        W99566  30.590  42.689   2.302
27951W        W99567  17.179  34.226   9.960
27952W        W99568   2.249  21.328  13.522
27953W        W99569  35.568  27.488  12.213
27954W        W99570  10.385  16.753  10.756
27955W        W99571  34.913  23.731  13.858
27956W        W99572  32.628  26.694   0.459
27957W        W99573  33.034  28.757  10.366
27958W        W99574  22.081  14.159  10.612
27959W        W99575  29.026   2.894   2.712
27960W        W99576   8.223   1.213   4.032
27961W        W99577  23.612   8.654   0.635
27962W        W99578  39.016  17.513   0.242
27963W        W99579  38.005  44.839  12.576
27964W        W99580  12.636   0.156   0.721
27965W        W99581  16.069   5.218   0.451
27966W        W99582  20.605  36.661   4.913
27967W        W99583   6.668  41.425  13.541
27968W        W99584  25.701   7.211   3.501
27969W        W99585  33.072   2.166   2.664
27970W        W99586  20.007  41.478   0.461
27971W        W99587  12.169  19.180   3.442
27972W        W99588  38.508  27.427  12.582
27973W        W99589  12.437  44.996  10.814
27974W        W99590  11.472  35.493  12.078
27975W        W99591  37.850  10.102   4.558
27976W        W99592  36.289  31.638  11.079
27977W        W99593   8.271  19.338   2.749
27978W        W99594  44.755  14.279   0.850
27979W        W99595  42.631   5.301   2.355
27980W        W99596  30.459  40.894   1.230
27981W        W99597  16.965   3.344   3.529
27982W        W99598  29.727  13.969  13.293
27983W        W99599  41.043  23.743   0.585
27984W        W99600  43.027   6.750  14.473
27985W        W99601  25.744   2.457  11.155
27986W        W99602  24.088  20.660   1.831
27987W        W99603  11.422  36.532  14.999
27988W        W99604   2.806  38.270  12.053
27989W        W99605   3.650  35.917   3.252
27990W        W99606   6.959   0.336  14.562
27991W        W99607  18.853  16.782   2.641
27992W        W99608  14.833  12.918  14.635
27993W        W99609  31.399  10.765  14.478
27994W        W99610  36.344  44.285  11.501
27995W        W99611   5.883  22.022  13.370
27996W        W99612  37.808  13.049  12.965
27997W        W99613  20.254  30.981  12.455
27998W        W99614  42.612  22.598  11.699
27999W        W99615   0.585  11.123   0.197
28000W        W99616  21.156  19.306   2.779
28001W        W99617  23.487  12.184   4.659
28002W        W99618  24.073  23.731   1.743
28003W        W99619   0.831   4.906  11.127
28004W        W99620  20.745   2.969   3.596
28005W        W99621  36.549  12.020  13.552
28006W        W99622  27.165   1.554  13.341
28007W        W99623  38.901  17.817   3.173
28008W        W99624  21.448  41.878   1.377
28009W        W99625  26.171  39.976   4.088
28010W        W99626  28.464  24.123  13.326
28011W        W99627  18.813  24.617  14.392
28012W        W99628   7.829  26.186   3.351
28013W        W99629   9.119  35.406  14.646
28014W        W99630  27.127  24.035   0.727
28015W        W99631  34.962  14.782  14.949
28016W        W99632  33.132   1.179   2.880
28017W        W99633  37.376   4.396   4.107
28018W        W99634  10.615  22.435  12.872
28019W        W99635   1.455  20.161  11.225
28020W        W99636   8.126  40.026   4.575
28021W        W99637  18.584  39.962  12.395
28022W        W99638  27.693  30.680   2.153
28023W        W99639  31.038  44.785  13.871
28024W        W99640  23.860  24.234  11.065
28025W        W99641   8.404   8.178   3.088
28026W        W99642   1.451  33.432  11.181
28027W        W99643  35.427  18.306  10.990
28028W        W99644   1.725   0.338   0.979
28029W        W99645  35.800   1.025  13.872
28030W        W99646   9.818  39.449  12.119
28031W        W99647  28.145   9.214   0.286
28032W        W99648  16.997   7.157  14.390
28033W        W99649  21.648  11.421  14.698
28034W        W99650  43.259  24.489   1.740
28035W        W99651  40.780  15.850  13.502
28036W        W99652  41.550  13.874   5.207
28037W        W99653  24.095   3.524  11.652
28038W        W99654  11.522  20.614   3.551
28039W        W99655  22.706  32.400   4.841
28040W        W99656   7.784  17.485   4.732
28041W        W99657  22.594  33.363   3.204
28042W        W99658  14.900  35.199   2.290
28043W        W99659  38.237  15.507   0.029
28044W        W99660  35.682  11.805   1.690
28045W        W99661  16.658  15.709   0.534
28046W        W99662  32.825  12.982   1.232
28047W        W99663  20.374  29.474   4.225
28048W        W99664  19.260  39.627   1.340
28049W        W99665   0.881  24.852  10.012
28050W        W99666  29.309  30.208   9.665
28051W        W99667  37.828  34.968   3.234
28052W        W99668  10.188   2.068  14.501
28053W        W99669  43.253  18.338   2.006
28054W        W99670  30.501   0.965  12.052
28055W        W99671  10.337  13.218   4.114
28056W        W99672  15.756  11.617   4.082
28057W        W99673  36.446  33.583  10.311
28058W        W99674  44.780  44.840  11.854
28059W        W99675  41.203   8.625  13.371
28060W        W99676  14.593   3.728   2.312
28061W        W99677  37.130   7.189  11.094
28062W        W99678  40.423  15.435  13.510
28063W        W99679  30.179  42.330   4.713
28064W        W99680   9.766  30.670   0.622
28065W        W99681   4.889   1.981  13.912
28066W        W99682  35.839  31.060  12.375
28067W        W99683  38.866  31.130   1.631
28068W        W99684  23.020  12.423  11.652
28069W        W99685  20.501  21.071   3.200
28070W        W99686  10.179  18.262  11.643
28071W        W99687   5.427  39.642  12.903
28072W        W99688  33.607   3.503  13.829
28073W        W99689  38.501  30.417  14.725
28074W        W99690   2.974  44.317   1.370
28075W        W99691   6.430  41.313   3.389
28076W        W99692  32.260  29.092  12.380
28077W        W99693  32.154  14.649  11.165
28078W        W99694  41.601  26.191   0.392
28079W        W99695  35.332   4.895  14.870
28080W        W99696   4.434   9.179  12.638
28081W        W99697  10.489  12.248   1.241
28082W        W99698  12.667  37.889   3.877
28083W        W99699  19.609  11.647   0.870
28084W        W99700  33.040  14.062   3.141
28085W        W99701  39.883  36.275   3.285
28086W        W99702  36.503  42.984   1.430
28087W        W99703  29.456  33.386   1.294
28088W        W99704  24.164  30.143  13.873
28089W        W99705   7.195  35.598  13.387
28090W        W99706  25.152   0.492  11.628
28091W        W99707  30.965  44.939   4.768
28092W        W99708  10.629  40.349  14.073
28093W        W99709  12.417  34.469  12.348
28094W        W99710  21.164  30.206  11.124
28095W        W99711  20.754  27.620   0.265
28096W        W99712  15.999  19.312   2.339
28097W        W99713   2.861  25.101   4.783
28098W        W99714  41.007  25.738  12.446
28099W        W99715   6.646  42.371   4.230
28100W        W99716   5.399  17.710  13.608
28101W        W99717   9.839  29.334   3.368
28102W        W99718  20.431   0.160  11.409
28103W        W99719  27.644  25.506  11.569
28104W        W99720   9.130  35.810   1.724
28105W        W99721  24.635   5.727  12.144
28106W        W99722  38.316  23.216   1.715
28107W        W99723  21.424  39.012   3.777
28108W        W99724  34.437  22.643   2.589
28109W        W99725  34.036  19.690  13.004
28110W        W99726  41.372  15.298  14.002
28111W        W99727   2.846  31.996  11.886
28112W        W99728  43.286  15.396  14.352
28113W        W99729  29.394   0.387  12.545
28114W        W99730   9.797  20.569  13.089
28115W        W99731   9.575  28.047   4.842
28116W        W99732  34.396   3.416   2.727
28117W        W99733  26.775   6.912  13.050
28118W        W99734   9.349  36.943  12.425
28119W        W99735  42.515  27.151  12.689
28120W        W99736   3.170  22.562  11.224
28121W        W99737  27.722  11.122  11.969
28122W        W99738  42.605   3.689  10.749
28123W        W99739  28.718  14.829  12.051
28124W        W99740  30.485  24.420  12.582
28125W        W99741  29.732  11.709   4.053
28126W        W99742  41.824  17.617  10.603
28127W        W99743  13.181  38.969   3.115
28128W        W99744  30.372  38.993   4.612
28129W        W99745  24.710  36.565  13.475
28130W        W99746   0.398  36.521   3.676
28131W        W99747  13.931  17.189   1.841
28132W        W99748  23.225  24.095   0.800
28133W        W99749  10.096  28.203  13.398
28134W        W99750  30.211  23.684  11.097
28135W        W99751  26.706  23.075   3.632
28136W        W99752  30.529  31.338   3.645
28137W        W99753  13.184   7.149   0.392
28138W        W99754  19.191  35.555   4.600
28139W        W99755  21.944  23.480   0.271
28140W        W99756  31.420  40.360   0.814
28141W        W99757  32.167  36.297   0.104
28142W        W99758  19.036  14.608   0.319
28143W        W99759   5.419  36.348   2.491
28144W        W99760  43.120   1.042  13.835
28145W        W99761  21.516  19.324   2.419
28146W        W99762  22.907  10.285   1.216
28147W        W99763  16.858  39.091   2.411
28148W        W99764  21.490  30.111   2.872
28149W        W99765   9.262  32.959   1.379
28150W        W99766  33.176  25.757   2.838
28151W        W99767  12.965  38.404   4.565
28152W        W99768  41.768  29.551   3.731
28153W        W99769   9.583  28.101  14.136
28154W        W99770  40.005   2.815  12.026
28155W        W99771  12.705  11.250   2.688
28156W        W99772  16.184  13.900   0.433
28157W        W99773  34.890   9.824  13.638
28158W        W99774  30.186  18.239   3.701
28159W        W99775  13.299  19.122   0.695
28160W        W99776  37.054  19.331   0.849
28161W        W99777   5.074  15.050   2.757
28162W        W99778  41.216  40.703   3.181
28163W        W99779   4.240   1.297   1.869
28164W        W99780  41.257  29.106  11.563
28165W        W99781   0.450  43.123  11.665
28166W        W99782  11.885  42.475  14.936
28167W        W99783  41.300   0.881   1.078
28168W        W99784  13.770   9.658   1.687
28169W        W99785  13.234   9.646   0.451
28170W        W99786  39.494  37.324  14.340
28171W        W99787  14.524   5.765   2.699
28172W        W99788  21.897  34.549   2.304
28173W        W99789  10.730  31.400  12.905
28174W        W99790  37.036  38.447  11.199
28175W        W99791   5.937  16.206   0.890
28176W        W99792  11.847  40.865   3.738
28177W        W99793  40.788  29.881   3.340
28178W        W99794   1.086  25.670  11.232
28179W        W99795   3.954  13.063  14.839
28180W        W99796  11.397  23.234   0.850
28181W        W99797  37.358   7.821   2.689
28182W        W99798  36.008  12.106   0.340
28183W        W99799  11.920  27.581   0.266
28184W        W99800  14.726  20.857  11.095
28185W        W99801  28.176  40.519   2.330
28186W        W99802  10.161   6.685   0.144
28187W        W99803  26.216   4.794  12.524
28188W        W99804  26.914  11.101   1.638
28189W        W99805  18.887  24.768  13.436
28190W        W99806  40.121   1.840  14.454
28191W        W99807  10.856  15.291   1.847
28192W        W99808  35.777   1.770  14.934
28193W        W99809  34.251  35.420  14.907
28194W        W99810  37.412   4.875  14.339
28195W        W99811  39.585   4.504   2.845
28196W        W99812  10.332  44.465   2.162
28197W        W99813  15.134  15.791   0.317
28198W        W99814  36.419  11.901   3.340
28199W        W99815  22.075  23.102   1.866
28200W        W99816  35.574  10.810   0.440
28201W        W99817   0.006   6.249   1.002
28202W        W99818  44.715   8.949  10.897
28203W        W99819  30.429  37.202   5.078
28204W        W99820  19.129   4.701   4.706
28205W        W99821  39.945  39.417   4.731
28206W        W99822  32.934  36.045   4.737
28207W        W99823  35.469   1.043   1.340
28208W        W99824  37.057  24.317   3.076
28209W        W99825  35.814  19.115   0.320
28210W        W99826  16.468  15.272  10.132
28211W        W99827  11.549  32.974   1.360
28212W        W99828  15.818  29.442   3.249
28213W        W99829  23.569  13.515  13.979
28214W        W99830  22.919  17.746  11.534
28215W        W99831  36.168  26.079  12.452
28216W        W99832  37.406  34.447  13.438
28217W        W99833  23.167  20.173  14.151
28218W        W99834  32.404   5.774   1.445
28219W        W99835  15.325  25.201   2.143
28220W        W99836  17.426  16.642   2.338
28221W        W99837  33.139  35.010   4.582
28222W        W99838  33.862  32.926  12.798
28223W        W99839  33.447  14.288   1.073
28224W        W99840  11.598  16.656  12.616
28225W        W99841  34.843  42.507   2.840
28226W        W99842  24.917  24.185   4.175
28227W        W99843   4.716  32.928   2.745
28228W        W99844  20.973  29.025   1.731
28229W        W99845  39.967   5.679  12.040
28230W        W99846  12.571   7.749   2.510
28231W        W99847   5.145  37.675   2.825
28232W        W99848  21.724   7.686  12.976
28233W        W99849  15.259  32.052  11.601
28234W        W99850  22.172   5.170  10.847
28235W        W99851  17.483  35.176  11.166
28236W        W99852   1.298  26.131   2.610
28237W        W99853   4.892  30.091  14.347
28238W        W99854  19.157   0.414  11.487
28239W        W99855  26.081   8.303  13.508
28240W        W99856  35.402  39.111  12.076
28241W        W99857  22.357  22.186   1.465
28242W        W99858  12.072   8.846  13.501
28243W        W99859   7.167   8.393  11.090
28244W        W99860   6.061   1.801  10.732
28245W        W99861  26.139  27.386   4.509
28246W        W99862   6.761   0.359  12.520
28247W        W99863  39.935  43.788  12.961
28248W        W99864  22.675  10.405  13.991
28249W        W99865  29.206  24.498  11.958
28250W        W99866  43.664  41.305   2.285
28251W        W99867  15.876   6.514  11.955
28252W        W99868  39.872  19.477   4.832
28253W        W99869  15.601   8.290   1.461
28254W        W99870  25.537  24.495  14.296
28255W        W99871  31.764  29.322   1.640
28256W        W99872   4.678  25.922  12.272
28257W        W99873   7.165   7.001   0.907
28258W        W99874  13.265  24.909  10.551
28259W        W99875  38.481  18.073   0.552
28260W        W99876  21.800   5.274   0.079
28261W        W99877  38.088  10.707   5.326
28262W        W99878   3.644  40.695  12.123
28263W        W99879  27.011  43.275  14.097
28264W        W99880   0.224  38.580   1.883
28265W        W99881  15.137   0.870  14.920
28266W        W99882  16.652  17.634  10.709
28267W        W99883  40.046  28.964  12.769
28268W        W99884  30.425  25.361   3.736
28269W        W99885  13.435  17.706  11.444
28270W        W99886   0.805  43.027   2.777
28271W        W99887   6.968  38.827  10.831
28272W        W99888  16.809  11.239  12.423
28273W        W99889  34.112   6.833   3.650
28274W        W99890  44.799  33.056  10.447
28275W        W99891  30.084  27.140   0.064
28276W        W99892   4.549  34.865  11.200
28277W        W99893  26.164  10.804  12.583
28278W        W99894  33.923  36.121  14.481
28279W        W99895  14.773  42.503  14.659
28280W        W99896   9.561   5.459   2.071
28281W        W99897  40.895  32.428   2.763
28282W        W99898   8.356  10.907  12.017
28283W        W99899  39.315   2.346  14.489
28284W        W99900  39.405  31.278  14.518
28285W        W99901   0.205  33.068  12.806
28286W        W99902  32.544  40.774   0.583
28287W        W99903  10.146  11.848  10.680
28288W        W99904   7.878   3.389   4.125
28289W        W99905  14.369   6.859   3.630
28290W        W99906  43.907  21.613   0.884
28291W        W99907  34.619  23.614  14.292
28292W        W99908   3.428   2.976  13.698
28293W        W99909  29.488  10.701  10.783
28294W        W99910  16.818  31.066   1.702
28295W        W99911  27.545  44.321   0.179
28296W        W99912  42.912   3.998  14.812
28297W        W99913  34.622  26.095   3.537
28298W        W99914  38.711   8.348   1.324
28299W        W99915  33.174  31.456  13.049
28300W        W99916  25.403   1.320  10.540
28301W        W99917   4.192  28.140   1.446
28302W        W99918  44.288   7.417  13.515
28303W        W99919  26.056   0.221   2.938
28304W        W99920  34.105  31.681   4.117
28305W        W99921  44.186  30.624   5.021
28306W        W99922  28.785  26.962   3.640
28307W        W99923  23.780  39.385   2.633
28308W        W99924  30.004  18.331  13.871
28309W        W99925  34.069  12.106   1.451
28310W        W99926  35.123  43.094   1.251
28311W        W99927  40.422  10.407  12.511
28312W        W99928  38.132  29.450  14.375
28313W        W99929  32.889  25.039  13.552
28314W        W99930  39.638  33.467   1.365
28315W        W99931  41.835   2.518   2.734
28316W        W99932  29.032   9.535   0.710
28317W        W99933   1.815  10.316  11.765
28318W        W99934  33.277  27.348   4.910
28319W        W99935  31.888   8.685  13.804
28320W        W99936  13.409  12.729  13.004
28321W        W99937  31.984   1.894   4.326
28322W        W99938  31.533  33.105  12.610
28323W        W99939  14.210  36.544   4.556
28324W        W99940   1.512  32.105  11.569
28325W        W99941  21.591  19.852  12.584
28326W        W99942  28.668  34.341   3.230
28327W        W99943  44.686  44.720   3.375
28328W        W99944  32.867   8.636   1.422
28329W        W99945  22.166  19.307   3.723
28330W        W99946  15.702   4.730  12.934
28331W        W99947  11.957  26.662   4.827
28332W        W99948   4.848  37.487  10.834
28333W        W99949  35.887  27.156   3.572
28334W        W99950  40.511   2.229  10.503
28335W        W99951  26.210  11.716   4.931
28336W        W99952  22.463  18.027   3.959
28337W        W99953  28.122  22.944  13.281
28338W        W99954  11.627  22.724   0.247
28339W        W99955   2.667   3.294  12.883
28340W        W99956  10.917  21.083   2.568
28341W        W99957  17.753  34.519   4.326
28342W        W99958  22.643  15.175   3.134
28343W        W99959  14.027  20.486  10.745
28344W        W99960  24.876  20.271  11.607
28345W        W99961  14.352  15.184   2.382
28346W        W99962  15.539   5.710  14.094
28347W        W99963  26.071  18.028   0.977
28348W        W99964  26.164  39.885  14.349
28349W        W99965   2.173  33.581  10.718
28350W        W99966  14.660   4.489   4.932
28351W        W99967  40.779  10.251  13.921
28352W        W99968  30.971  40.049  11.239
28353W        W99969  33.777   4.864  10.182
28354W        W99970  34.142  16.393  14.932
28355W        W99971  11.173   5.738  14.463
28356W        W99972  21.520  25.490   0.801
28357W        W99973  14.564  14.392  14.257
28358W        W99974  30.094  40.886   0.858
28359W        W99975  36.578  23.751  14.426
28360W        W99976   9.861  20.132   3.197
28361W        W99977   3.170   7.081   3.222
28362W        W99978  23.927  31.425  13.902
28363W        W99979  10.645  27.669  11.187
28364W        W99980   9.162  32.665   2.460
28365W        W99981  14.040  24.626  14.083
28366W        W99982  11.785  13.718  14.792
28367W        W99983   5.931  42.054   2.649
28368W        W99984  36.266   4.729   1.916
28369W        W99985  31.961   7.456   2.652
28370W        W99986   1.687   2.006   1.301
28371W        W99987   9.131  42.729   1.845
28372W        W99988  28.246  25.564   4.269
28373W        W99989   5.415  18.178   3.636
28374W        W99990   0.253   3.146  11.894
28375W        W99991  16.274  22.114   4.839
28376W        W99992  30.825  36.601  11.500
28377W        W99993  33.505  31.078  11.634
28378W        W99994  14.145  17.701  10.481
28379W        W99995  15.840  26.540   1.004
28380W        W99996  16.043  38.022  12.425
28381W        W99997   3.472  33.178   3.039
28382W        W99998   0.270   9.395  14.322
28383W        W99999  41.315  26.481   4.089
28384W        W    0  23.047   3.198   2.191
28385W        W    1  43.737   4.234  11.213
28386W        W    2  14.399  16.666   1.124
28387W        W    3  43.814  15.736   3.913
28388W        W    4  11.104  14.271   4.545
28389W        W    5  39.363  24.261  10.827
28390W        W    6  44.529  24.648  13.019
28391W        W    7  11.681  38.302  14.148
28392W        W    8  38.573  44.239   3.244
28393W        W    9   3.269  24.632   2.322
28394W        W   10  43.590  20.136   2.611
28395W        W   11  31.983  11.265   2.840
28396W        W   12  12.650  39.975  14.501
28397W        W   13  20.552   4.271  14.193
28398W        W   14  44.320  20.036   1.444
28399W        W   15   2.308  34.578   0.390
28400W        W   16   0.226  34.373  11.250
28401W        W   17  43.264  35.559   1.108
28402W        W   18  22.716  34.702   3.759
28403W        W   19  12.666  12.545   0.432
28404W        W   20  38.339   5.812  14.493
28405W        W   21   4.927   0.487  11.414
28406W        W   22  39.837  41.022   0.423
28407W        W   23  16.231   5.399   2.331
28408W        W   24  41.760   7.361  14.628
28409W        W   25   2.178   3.738   3.665
28410W        W   26   0.367   4.682  11.064
28411W        W   27  13.089  37.831  11.853
28412W        W   28  32.618   6.732   3.339
28413W        W   29  19.708  44.581  12.992
28414W        W   30  33.942  30.042  12.286
28415W        W   31  36.401   1.436   0.317
28416W        W   32  39.938  26.610   4.226
28417W        W   33   3.291  32.507  12.334
28418W        W   34  15.525   6.351  12.322
28419W        W   35  44.178  15.696   1.654
28420W        W   36  34.783  11.318  10.753
28421W        W   37  30.189  26.639   4.882
28422W        W   38  43.421  29.459  12.954
28423W        W   39  25.159  11.382   2.602
28424W        W   40  38.837  26.981   3.890
28425W        W   41  33.611  10.190   0.265
28426W        W   42  39.089  10.875  12.585
28427W        W   43  30.875  10.130  13.413
28428W        W   44  35.544  31.189  13.343
28429W        W   45  11.334   1.534  12.837
28430W        W   46  38.387  22.790  12.277
28431W        W   47  23.775  16.842   1.916
28432W        W   48  28.535  20.720  10.457
28433W        W   49  19.499  19.625  13.146
28434W        W   50  26.423  35.603  13.512
28435W        W   51  42.282  10.703   1.683
28436W        W   52  27.012  42.536  11.012
28437W        W   53  22.593  32.365   3.379
28438W        W   54  27.159  42.285   4.579
28439W        W   55  30.416  36.279  11.658
28440W        W   56  15.028  18.753   4.637
28441W        W   57  19.322  21.140  14.915
28442W        W   58   5.784  11.699   1.387
28443W        W   59   8.642  39.975  11.944
28444W        W   60  20.108  38.916   2.957
28445W        W   61   2.192  22.725   1.855
28446W        W   62  32.935  35.904   1.620
28447W        W   63  16.597  41.420   1.849
28448W        W   64  22.243  18.619   2.161
28449W        W   65  19.213  34.723  13.097
28450W        W   66  25.553  31.068  12.464
28451W        W   67  27.131  18.081  14.005
28452W        W   68   6.688   1.480  10.650
28453W        W   69  25.140  27.705   3.271
28454W        W   70   6.436   7.209   1.482
28455W        W   71   5.466  31.391   1.511
28456W        W   72  44.414  16.371   0.281
28457W        W   73   5.677  23.215  11.533
28458W        W   74  33.792   0.834  14.996
28459W        W   75  16.534  23.480   0.902
28460W        W   76  43.335  40.910  14.798
28461W        W   77   7.849   5.779   3.735
28462W        W   78  40.424   5.409  12.116
28463W        W   79  21.698  19.946   4.187
28464W        W   80  36.185  41.294  11.962
28465W        W   81  14.076  39.057   4.317
28466W        W   82   9.113   4.222   1.637
28467W        W   83  10.576   0.919  12.136
28468W        W   84  33.004  43.770  14.391
28469W        W   85  22.555  44.377  11.083
28470W        W   86   1.931   1.454   3.779
28471W        W   87  19.292  18.192   2.116
28472W        W   88  28.249  26.406  13.533
28473W        W   89   2.338  33.963  12.917
28474W        W   90  24.292  35.935   0.681
28475W        W   91   5.915  10.572  14.956
28476W        W   92  12.134   4.832   3.201
28477W        W   93   6.100  36.787   2.277
28478W        W   94  42.985  14.419  14.589
28479W        W   95  33.729  16.365  13.573
28480W        W   96  24.247  21.965  14.507
28481W        W   97  17.099  25.753   4.325
28482W        W   98  31.065   6.863  14.830
28483W        W   99  42.627  36.343   1.238
28484W        W  100   9.361  14.331  12.161
28485W        W  101  28.920  26.023   0.770
28486W        W  102  21.299   1.007  12.965
28487W        W  103  28.201  43.738  11.620
28488W        W  104   7.798  21.459   3.251
28489W        W  105  22.216  23.901  11.669
28490W        W  106   6.271  12.119   1.708
28491W        W  107  21.514  42.997  11.449
28492W        W  108  41.423  14.801   1.205
28493W        W  109  29.502  16.064  12.118
28494W        W  110  11.706  33.036  10.446
28495W        W  111  41.132   1.368  13.072
28496W        W  112   1.990   1.716  13.458
28497W        W  113  21.156  31.442  13.923
28498W        W  114  11.774  43.914   1.720
28499W        W  115   4.653  14.817  13.090
28500W        W  116  16.239   5.196   1.854
28501W        W  117   5.414  43.425  12.342
28502W        W  118  13.400  39.375  14.801
28503W        W  119  21.306  30.040  12.112
28504W        W  120   8.016  26.406  11.200
28505W        W  121  35.604  11.283   4.747
28506W        W  122  29.657   9.784  11.696
28507W        W  123  32.091  42.981   3.674
28508W        W  124  15.477  20.512   2.707
28509W        W  125  30.906  15.535  11.349
28510W        W  126  10.789  38.434   3.595
28511W        W  127  40.575  25.191   4.064
28512W        W  128  41.080  31.108   0.766
28513W        W  129  30.628  23.956  11.007
28514W        W  130  43.457  39.419  14.532
28515W        W  131  11.540  28.020  14.284
28516W        W  132  28.734  20.492   2.890
28517W        W  133   2.234  27.657   3.696
28518W        W  134  17.617  44.992  12.039
28519W        W  135  19.524  16.553  13.026
28520W        W  136   4.421  32.876  11.280
28521W        W  137   7.434   1.894  12.033
28522W        W  138   0.521  18.219  11.984
28523W        W  139  10.908  40.645  11.046
28524W        W  140  39.471  22.046  14.354
28525W        W  141   3.828  24.629   1.697
28526W        W  142  24.445  21.049   1.253
28527W        W  143  27.718  12.159   1.403
28528W        W  144  36.973  16.283   4.721
28529W        W  145  29.716  14.360  11.515
28530W        W  146   0.208  15.353   3.747
28531W        W  147  42.295   6.899  11.906
28532W        W  148  16.092  39.118  13.376
28533W        W  149   6.870  37.494  14.783
28534W        W  150   2.262  10.599  13.041
28535W        W  151  30.525   3.267  12.069
28536W        W  152   4.352  37.273  13.800
28537W        W  153   8.102  37.581   4.379
28538W        W  154  12.681  10.361  14.891
28539W        W  155  26.156  42.769  11.779
28540W        W  156  22.755  16.013  12.799
28541W        W  157  26.520  14.650   2.757
28542W        W  158  24.935  22.403  12.976
28543W        W  159  38.042   7.557  11.927
28544W        W  160  20.221  36.594   3.529
28545W        W  161  40.931  37.232  11.845
28546W        W  162  30.516  25.611  14.560
28547W        W  163  40.817  39.907   2.642
28548W        W  164  21.673  19.458   3.443
28549W        W  165  12.823  18.952   0.886
28550W        W  166   0.919  20.627  10.631
28551W        W  167  11.242  43.856   1.788
28552W        W  168  26.654   4.166  14.480
28553W        W  169  23.578  25.050   1.726
28554W        W  170  16.152   9.617  12.081
28555W        W  171  40.928   2.925  12.447
28556W        W  172  43.884  40.005   4.617
28557W        W  173  27.532  24.486   1.181
28558W        W  174  38.346  20.408   0.946
28559W        W  175  26.564  20.068  10.595
28560W        W  176   1.200  36.902   1.134
28561W        W  177  42.283  12.047   4.001
28562W        W  178  13.189  14.075  12.088
28563W        W  179  21.149  20.924   0.356
28564W        W  180  32.582  39.925   1.668
28565W        W  181  10.624  19.832   5.068
28566W        W  182  18.661  25.657   3.667
28567W        W  183  40.884  31.951  12.991
28568W        W  184   0.920  14.413  11.098
28569W        W  185   6.895  40.939   0.417
28570W        W  186  19.731  13.963  12.106
28571W        W  187  44.828  37.336  11.005
28572W        W  188  26.165  32.902  13.314
28573W        W  189   3.662  26.075   2.794
28574W        W  190   3.418  38.529   4.202
28575W        W  191  31.120  17.127  10.765
28576W        W  192  29.749   5.634  12.544
28577W        W  193   7.080  16.172   4.853
28578W        W  194  15.906  13.275  13.278
28579W        W  195   9.747  13.897   2.441
28580W        W  196  24.735  12.201   1.661
28581W        W  197  14.858  32.472  14.795
28582W        W  198  40.477   0.624   0.949
28583W        W  199   6.779  26.339   4.277
28584W        W  200  24.678  19.658   3.182
28585W        W  201  27.993  30.592  14.979
28586W        W  202  19.577   6.392  10.388
28587W        W  203  32.636  30.158   3.731
28588W        W  204  24.875   2.351  10.866
28589W        W  205  30.006  31.921   1.439
28590W        W  206  11.146  43.339  12.708
28591W        W  207   4.322  10.655   3.052
28592W        W  208  35.608  12.376  10.950
28593W        W  209  16.634  21.008  12.057
28594W        W  210   3.826   4.138   3.086
28595W        W  211  14.190   3.648   1.503
28596W        W  212  34.986  38.104  12.419
28597W        W  213  23.707  22.827  14.446
28598W        W  214  42.725  32.085  10.658
28599W        W  215  39.145  30.710   3.736
28600W        W  216   7.870  43.962   2.682
28601W        W  217  14.124  30.616   4.230
28602W        W  218  41.700  33.085   3.730
28603W        W  219  19.721   2.570   2.880
28604W        W  220  37.961  38.936   4.009
28605W        W  221   0.047  10.619  13.503
28606W        W  222  21.915  42.999   4.125
28607W        W  223  25.485   5.090  10.743
28608W        W  224   9.390   8.421  14.180
28609W        W  225   8.279  21.253  12.034
28610W        W  226   6.241  40.005   4.513
28611W        W  227  31.023   7.379  13.010
28612W        W  228  40.348  20.199   3.786
28613W        W  229  44.687  34.050  14.276
28614W        W  230  17.529  31.411  11.995
28615W        W  231   5.025  23.975  10.997
28616W        W  232  26.321   7.702   0.620
28617W        W  233  29.395  18.095   1.229
28618W        W  234  19.624  10.679   3.162
28619W        W  235  28.943  19.681   4.145
28620W        W  236  21.594  15.557  13.495
28621W        W  237  28.190  44.812  12.934
28622W        W  238   1.365  33.095  10.770
28623W        W  239  12.203  44.430  12.655
28624W        W  240  42.349   2.887   1.054
28625W        W  241  11.385  44.408   0.741
28626W        W  242  34.527   1.141   5.065
28627W        W  243  39.260  16.071   0.804
28628W        W  244  30.626  27.696  13.951
28629W        W  245  16.086  17.197   0.842
28630W        W  246  40.754  44.799   3.872
28631W        W  247  12.620  30.880   1.383
28632W        W  248  36.825   0.187   3.561
28633W        W  249   5.630  16.637   4.637
28634W        W  250   8.826  12.172   1.791
28635W        W  251  10.103  36.904   1.806
28636W        W  252  41.341  39.460  10.989
28637W        W  253  25.720  39.522  10.765
28638W        W  254  14.039  31.380  12.156
28639W        W  255   1.231  33.539  12.450
28640W        W  256   3.174  43.854  14.365
28641W        W  257  34.973   9.804  13.119
28642W        W  258   5.745  11.751  12.218
28643W        W  259  39.069  13.497   2.199
28644W        W  260   8.849  33.465  11.520
28645W        W  261   3.328  29.109  12.324
28646W        W  262  34.823  39.630   0.432
28647W        W  263  20.879  21.772  12.958
28648W        W  264  33.580   5.260   1.663
28649W        W  265  14.285  26.507   2.888
28650W        W  266  37.834  26.894  13.908
28651W        W  267  21.871  42.371  11.392
28652W        W  268  20.076   7.849   1.445
28653W        W  269  36.097  27.610   1.422
28654W        W  270  31.147  31.497  13.102
28655W        W  271  33.446  44.827  12.043
28656W        W  272  35.885   9.004  13.012
28657W        W  273  24.694  11.667  14.405
28658W        W  274  20.432   2.980   2.413
28659W        W  275   9.117  31.928  12.398
28660W        W  276  20.578   8.837   0.703
28661W        W  277  31.399   4.382  12.896
28662W        W  278  38.570   4.761   2.301
28663W        W  279  44.040  10.138  13.529
28664W        W  280  10.868  26.086   0.314
28665W        W  281  40.850  37.638   2.911
28666W        W  282  33.598  20.107   2.096
28667W        W  283  31.947   2.473   2.107
28668W        W  284  29.181   4.540  11.378
28669W        W  285  24.633  41.868   4.614
28670W        W  286  20.781  24.994  11.925
28671W        W  287  34.811  23.957   1.530
28672W        W  288   2.913  37.877   0.437
28673W        W  289  35.861  11.434  13.882
28674W        W  290  21.666  18.898   2.685
28675W        W  291  31.104  15.574   1.230
28676W        W  292  22.196  39.514   1.452
28677W        W  293   1.421  19.814   3.102
28678W        W  294  41.894  11.816  10.735
28679W        W  295   8.194  14.096   3.299
28680W        W  296  18.317  32.072  13.038
28681W        W  297  17.201  37.152   4.777
28682W        W  298  21.244   7.296   3.407
28683W        W  299  11.386  26.615  14.015
28684W        W  300  41.397  16.817   4.900
28685W        W  301   9.962   3.747  11.843
28686W        W  302   8.744  18.498   3.260
28687W        W  303   8.414  13.832  14.957
28688W        W  304  22.350  23.185  14.035
28689W        W  305   2.498  33.527   3.774
28690W        W  306  20.603  41.210   2.388
28691W        W  307  33.595  22.683   0.291
28692W        W  308   1.710  37.455  11.702
28693W        W  309  24.098  13.136   0.745
28694W        W  310  33.973  29.300   2.094
28695W        W  311  17.583   4.775   1.552
28696W        W  312  28.690   3.127  11.787
28697W        W  313  44.449  15.565  10.426
28698W        W  314  12.090  32.488  12.545
28699W        W  315   5.589  23.229   2.768
28700W        W  316  22.291  43.933  10.938
28701W        W  317  37.481  28.766  12.392
28702W        W  318  37.381  34.650   3.295
28703W        W  319  39.413  16.854  14.904
28704W        W  320   1.056  15.207  12.000
28705W        W  321  33.067  19.172   1.479
28706W        W  322  44.949  33.773  11.152
28707W        W  323   4.757  41.376  10.684
28708W        W  324  21.929  41.799  13.575
28709W        W  325  22.835   6.400  12.883
28710W        W  326  37.335  11.340   0.254
28711W        W  327  17.477  23.791   1.746
28712W        W  328   6.806  20.546   3.358
28713W        W  329   5.210  15.764   4.252
28714W        W  330   3.038  21.542  13.394
28715W        W  331  40.968  10.769   1.471
28716W        W  332  19.407  36.461  13.072
28717W        W  333  43.468  23.347   1.281
28718W        W  334  43.050   4.856  12.393
28719W        W  335  12.339  18.658  12.915
28720W        W  336  14.223  42.511  12.424
28721W        W  337   0.691  20.112   0.428
28722W        W  338  16.035  41.178  10.670
28723W        W  339   8.180  40.122  13.936
28724W        W  340   5.843  17.261  10.736
28725W        W  341  23.659  16.938   3.658
28726W        W  342  23.749  38.660  10.899
28727W        W  343   1.903  36.167  12.025
28728W        W  344  18.778  39.802   1.276
28729W        W  345   2.751  43.522   2.733
28730W        W  346  15.342  21.189   1.420
28731W        W  347  33.530  38.474  13.702
28732W        W  348  11.392  33.974   1.811
28733W        W  349   8.617  18.131   1.302
28734W        W  350   2.856   2.469  13.949
28735W        W  351  21.095  16.183   1.463
28736W        W  352  29.755  33.964   4.603
28737W        W  353  20.036  44.811   4.610
28738W        W  354   1.511  34.101  14.505
28739W        W  355  10.745  20.136   3.756
28740W        W  356  23.249  14.392  12.037
28741W        W  357  17.301   7.734  11.894
28742W        W  358  44.814  29.332  10.350
28743W        W  359  30.968  27.039  14.560
28744W        W  360  21.532  19.806  14.819
28745W        W  361  16.257  30.090   2.777
28746W        W  362   7.893  40.127   2.033
28747W        W  363   7.886  42.353  13.586
28748W        W  364  20.750  20.552  12.505
28749W        W  365  22.961  25.583   4.702
28750W        W  366  26.089   7.805   1.620
28751W        W  367  38.098  17.587   3.704
28752W        W  368   8.945  40.380  11.930
28753W        W  369  22.085  43.987   4.541
28754W        W  370  10.424   1.699   4.605
28755W        W  371  44.863  41.314  14.593
28756W        W  372  29.429  44.188  12.348
28757W        W  373  40.797   9.204   3.644
28758W        W  374  16.136   5.462   4.668
28759W        W  375   1.919   4.875  12.357
28760W        W  376  29.182  38.548   2.196
28761W        W  377   2.495  21.053  13.129
28762W        W  378  33.379  20.341   3.836
28763W        W  379   9.150  37.911  14.049
28764W        W  380  39.944  20.612   4.397
28765W        W  381  21.023  32.950  10.698
28766W        W  382   3.743   9.182   2.409
28767W        W  383   8.306  39.765  14.763
28768W        W  384  25.455   9.595  11.084
28769W        W  385  25.543  38.509  10.732
28770W        W  386   6.791   8.174  13.802
28771W        W  387  33.895  35.804   2.680
28772W        W  388   8.457  22.827   4.101
28773W        W  389  43.415  12.753   1.806
28774W        W  390  44.941  43.900   2.358
28775W        W  391   3.266  16.876   3.397
28776W        W  392  36.426  24.576   2.338
28777W        W  393  42.068  19.070   0.400
28778W        W  394  20.547   8.307   1.837
28779W        W  395  26.613  13.411  11.657
28780W        W  396  10.761   4.781  12.299
28781W        W  397  24.552   3.010   1.885
28782W        W  398  11.039   1.986   1.368
28783W        W  399  19.664   6.803   1.009
28784W        W  400   3.049  25.964  10.225
28785W        W  401   6.675  14.789  13.495
28786W        W  402  32.072  32.430   1.626
28787W        W  403  15.834  30.461  13.151
28788W        W  404  25.938  33.892   0.876
28789W        W  405  27.473  38.872   3.259
28790W        W  406  42.986   4.420  10.759
28791W        W  407  33.199  44.775  14.961
28792W        W  408  13.845  41.978  14.306
28793W        W  409  32.013  26.607  14.914
28794W        W  410  14.104  10.402  11.937
28795W        W  411  35.450  32.883  11.095
28796W        W  412   9.075  26.297  14.076
28797W        W  413  33.595  15.276   3.062
28798W        W  414  40.448  10.156   4.466
28799W        W  415  15.329  42.741  10.163
28800W        W  416   5.392  28.004  14.981
28801W        W  417  15.603  38.533  11.000
28802W        W  418  39.782   6.914   1.203
28803W        W  419   0.727  33.624   0.268
28804W        W  420  17.160  26.503   1.370
28805W        W  421  38.145  21.679  13.632
28806W        W  422  34.739  38.624  14.448
28807W        W  423  44.346   1.017  10.564
28808W        W  424  30.645  39.600   3.182
28809W        W  425   4.785  22.055   2.814
28810W        W  426  44.298  12.314  13.860
28811W        W  427  16.697  38.028   3.261
28812W        W  428  14.930  31.179   0.130
28813W        W  429  30.256  30.649   0.298
28814W        W  430  37.806   9.991   3.764
28815W        W  431  27.557  34.894   1.226
28816W        W  432  40.749  10.229   0.310
28817W        W  433  37.132  12.064  10.235
28818W        W  434  13.048  21.045   1.752
28819W        W  435  27.706  31.954  12.123
28820W        W  436  11.663  11.139  12.992
28821W        W  437  10.004   2.711  11.833
28822W        W  438   0.020  29.495   1.826
28823W        W  439  17.932  42.931  11.038
28824W        W  440  27.634  13.763   1.989
28825W        W  441   8.706  20.057  12.436
28826W        W  442  10.314  12.647   1.513
28827W        W  443  19.765   5.242   3.267
28828W        W  444  24.320  26.758   0.495
28829W        W  445  32.196  42.901   1.424
28830W        W  446  28.634   9.095   4.654
28831W        W  447  24.100  41.768  10.673
28832W        W  448  33.207  27.440   2.392
28833W        W  449   0.689   0.089  11.013
28834W        W  450  44.857  28.820  11.099
28835W        W  451   4.665   6.011  11.308
28836W        W  452  30.857  22.624  13.909
28837W        W  453  19.777   1.228  14.381
28838W        W  454   5.906  20.725   2.280
28839W        W  455  40.312   1.964   2.164
28840W        W  456  28.187  44.746   4.215
28841W        W  457  35.676  36.522   1.656
28842W        W  458   6.742  13.046  14.743
28843W        W  459  13.035  40.979  14.926
28844W        W  460  32.915  40.836  10.700
28845W        W  461  29.061   3.445   4.922
28846W        W  462   5.642  42.993   4.596
28847W        W  463  43.948  19.336  11.618
28848W        W  464   5.240  32.444  13.853
28849W        W  465   5.280  31.992   3.259
28850W        W  466   6.833  26.000  14.540
28851W        W  467  19.690  24.950  12.154
28852W        W  468   1.710  32.429  13.312
28853W        W  469  41.226  28.893   0.800
28854W        W  470  25.809  16.799   5.030
28855W        W  471  27.239  21.176  13.408
28856W        W  472  25.227  26.455   1.315
28857W        W  473  35.014  29.056   2.347
28858W        W  474  40.125  24.055   1.015
28859W        W  475  27.598  39.387   3.311
28860W        W  476   8.570  11.698  12.508
28861W        W  477   0.310  41.812  13.523
28862W        W  478  33.775  23.166   4.291
28863W        W  479  36.131  24.067  13.770
28864W        W  480  11.284  14.776  12.073
28865W        W  481  27.058   7.409   3.120
28866W        W  482  15.962  28.094   0.427
28867W        W  483  20.584  19.767  13.009
28868W        W  484  25.997  20.212   1.782
28869W        W  485   5.936   4.418   4.745
28870W        W  486  18.569  22.445   3.303
28871W        W  487  22.089  34.136  14.958
28872W        W  488   4.837  43.008  11.373
28873W        W  489  13.542  38.120   2.410
28874W        W  490  33.567  32.798  11.098
28875W        W  491   5.058  36.509  14.383
28876W        W  492  38.474  29.423  13.295
28877W        W  493  25.051  39.551   0.884
28878W        W  494  43.783  25.226   3.170
28879W        W  495  33.082  14.745   2.709
28880W        W  496  28.937   6.630  10.634
28881W        W  497  18.805  34.084   2.468
28882W        W  498  21.053  17.644   4.425
28883W        W  499  27.969  25.708  12.913
28884W        W  500  20.515  27.488   3.336
28885W        W  501  21.237  17.187   0.381
28886W        W  502  23.435  21.816  13.505
28887W        W  503  12.697  36.506   0.701
28888W        W  504   6.382   4.421  11.685
28889W        W  505  20.613   9.985  14.486
28890W        W  506  15.040   2.422  14.904
28891W        W  507   2.191  24.658   2.254
28892W        W  508  39.575  40.528   4.020
28893W        W  509   3.376  19.651  13.425
28894W        W  510  21.801  39.577   2.044
28895W        W  511  42.453  22.618  10.608
28896W        W  512  31.905  29.625  11.554
28897W        W  513   5.738  10.816   0.866
28898W        W  514   2.873  37.004   4.615
28899W        W  515  22.936   7.660  13.470
28900W        W  516  29.082   2.365  12.121
28901W        W  517  31.739  28.204   0.423
28902W        W  518  17.637  19.016  12.061
28903W        W  519  33.056  12.723  11.873
28904W        W  520  13.452  32.347   4.524
28905W        W  521  22.491  26.422   1.255
28906W        W  522   0.739  10.371   0.225
28907W        W  523  35.059  38.857   2.186
28908W        W  524  16.550   0.774  14.207
28909W        W  525  25.186   7.372  12.904
28910W        W  526  21.993   0.860  14.850
28911W        W  527  44.540  19.600   0.650
28912W        W  528  21.670  30.058  10.569
28913W        W  529   9.815   4.773   1.740
28914W        W  530   6.433  18.857   3.179
28915W        W  531  10.854  20.146  14.589
28916W        W  532  13.916   4.159  12.593
28917W        W  533  14.847  15.351  11.020
28918W        W  534   0.140  38.910   4.144
28919W        W  535   0.399  19.822   0.912
28920W        W  536  31.979  43.914  10.010
28921W        W  537  26.591  11.483   4.585
28922W        W  538  40.470  42.434   2.721
28923W        W  539  10.847  44.015  10.756
28924W        W  540  44.390  35.503  13.999
28925W        W  541  28.022   3.595  14.893
28926W        W  542  21.679  38.467  11.530
28927W        W  543   4.282   4.491   4.250
28928W        W  544  38.313  21.248  12.435
28929W        W  545  21.232  42.732   3.181
28930W        W  546  31.235  37.102   2.246
28931W        W  547   1.660  41.376  11.959
28932W        W  548  18.620   5.421   3.641
28933W        W  549   4.529   7.265  14.821
28934W        W  550  42.575   2.703   4.127
28935W        W  551  16.807  35.951  14.528
28936W        W  552  23.671  29.593  10.722
28937W        W  553  43.879  32.008   2.117
28938W        W  554  26.974  32.307  10.028
28939W        W  555   9.912  13.924   3.515
28940W        W  556  32.436  44.564  11.156
28941W        W  557  16.835  10.977  14.290
28942W        W  558  29.462  25.474   3.767
28943W        W  559   1.736  20.596  13.386
28944W        W  560  22.970  41.753   3.664
28945W        W  561   9.721  31.403   2.575
28946W        W  562  13.356  28.605  14.856
28947W        W  563  33.614  28.603  14.779
28948W        W  564  28.724   3.317   2.590
28949W        W  565   0.878  25.595  11.676
28950W        W  566  39.451  42.234   4.079
28951W        W  567  29.492   1.791  11.209
28952W        W  568   7.687  37.891   4.504
28953W        W  569  24.137  31.469   1.877
28954W        W  570  12.102  20.470   2.302
28955W        W  571  40.423   1.821   4.153
28956W        W  572  30.598  19.174   0.426
28957W        W  573  40.433  25.703   1.486
28958W        W  574  26.947  15.584   3.618
28959W        W  575   5.113   2.975  13.028
28960W        W  576  13.164  28.101   4.139
28961W        W  577  27.605  20.011   4.737
28962W        W  578  38.047  25.486   1.516
28963W        W  579  25.057  31.378  12.602
28964W        W  580  19.593  30.430  12.420
28965W        W  581  32.098  11.192   0.468
28966W        W  582  18.104   8.767   4.638
28967W        W  583  15.291   2.301  14.429
28968W        W  584  42.605   5.803   2.183
28969W        W  585  24.951   4.848   2.422
28970W        W  586  22.992  24.935  12.063
28971W        W  587  38.659  13.967   0.969
28972W        W  588  34.805  24.922   2.852
28973W        W  589  40.780  44.009   3.251
28974W        W  590  27.825   5.442  10.740
28975W        W  591  30.132  15.659  14.010
28976W        W  592   3.324  26.997  11.694
28977W        W  593  38.350  18.463  14.836
28978W        W  594  34.786  39.998  11.238
28979W        W  595  42.793  39.401  14.953
28980W        W  596  29.395  42.965   0.729
28981W        W  597  18.801  13.707   1.849
28982W        W  598  16.942  29.070   0.819
28983W        W  599  41.572  14.782  11.499
28984W        W  600  19.491   7.946  13.583
28985W        W  601  24.196  32.160  12.822
28986W        W  602  18.279  41.401   5.139
28987W        W  603   6.727  33.020  13.904
28988W        W  604  16.304  16.171   1.413
28989W        W  605  29.446  38.997  11.170
28990W        W  606  28.993  37.036   3.351
28991W        W  607  32.471  44.233   0.760
28992W        W  608  34.609   5.438  12.958
28993W        W  609   2.681  21.194  12.605
28994W        W  610   6.155  43.384   0.671
28995W        W  611  27.683  36.256   0.110
28996W        W  612  16.422  20.459  11.518
28997W        W  613  20.955   6.221   4.190
28998W        W  614  14.240  35.440   1.833
28999W        W  615  14.473  31.351  14.403
29000W        W  616  22.277   9.328   4.749
29001W        W  617  26.497  19.700  12.523
29002W        W  618  36.455  44.310   2.369
29003W        W  619  35.318  22.715   0.765
29004W        W  620  38.334  20.533  12.096
29005W        W  621  28.037   1.833   2.132
29006W        W  622  13.752  23.881   4.161
29007W        W  623  43.514  37.555  14.404
29008W        W  624  12.355  14.733  13.546
29009W        W  625  29.964  22.029  11.175
29010W        W  626  35.944  34.822   0.796
29011W        W  627  40.055  42.424  14.845
29012W        W  628  32.119  19.747   4.353
29013W        W  629   0.914  15.121   1.683
29014W        W  630  36.435   6.318  12.634
29015W        W  631  44.771  19.763   1.310
29016W        W  632   0.428   8.464   3.699
29017W        W  633  33.106  31.938   1.015
29018W        W  634  38.771   9.165   1.252
29019W        W  635   6.364   8.824   3.393
29020W        W  636  23.534  16.129   3.240
29021W        W  637  15.686  32.642   2.940
29022W        W  638  30.240  39.491   2.737
29023W        W  639  10.281   3.249   0.011
29024W        W  640   0.631  28.579   0.777
29025W        W  641  32.610  29.681  14.484
29026W        W  642  18.520   8.196   3.308
29027W        W  643   6.033  38.372  12.465
29028W        W  644  31.418   7.559  12.689
29029W        W  645  18.429  31.590   1.897
29030W        W  646  36.616  42.978  11.049
29031W        W  647  37.794  38.210   1.799
29032W        W  648  37.640  17.015  13.638
29033W        W  649  23.021  44.097  11.660
29034W        W  650  29.728   1.341  12.120
29035W        W  651  36.878  13.819  12.526
29036W        W  652  31.103  41.742   1.771
29037W        W  653   5.241  15.889  13.284
29038W        W  654  19.418   6.350   4.285
29039W        W  655  20.985  37.476   4.622
29040W        W  656  32.078  41.389   3.348
29041W        W  657   1.832   9.511   4.585
29042W        W  658  25.199  38.323  13.461
29043W        W  659  16.562  14.369   1.457
29044W        W  660  36.360   5.367   3.726
29045W        W  661   2.930   5.268   4.765
29046W        W  662  38.407   6.263   2.268
29047W        W  663  27.374   3.821   2.520
29048W        W  664  16.047   3.627   3.241
29049W        W  665   5.803   4.220   2.568
29050W        W  666   5.386  44.278  11.620
29051W        W  667  35.015  15.832   0.027
29052W        W  668  26.995  27.184   4.465
29053W        W  669  36.057  19.892  14.490
29054W        W  670  26.453   1.874   2.329
29055W        W  671  33.397  26.565   4.432
29056W        W  672   1.280  23.991  10.124
29057W        W  673  37.974   8.394   4.060
29058W        W  674  34.564   4.827   0.375
29059W        W  675  32.381  44.344   1.674
29060W        W  676  12.246  24.039   3.104
29061W        W  677  42.515  31.703   1.571
29062W        W  678  15.095   7.521  14.337
29063W        W  679  18.898  31.137  13.867
29064W        W  680  36.360  18.328   1.402
29065W        W  681  44.799  13.337   0.921
29066W        W  682  34.205   9.747  12.493
29067W        W  683  23.500  31.160   1.231
29068W        W  684  34.135  20.546  11.849
29069W        W  685  30.104  25.230  12.898
29070W        W  686   2.156  16.175   3.100
29071W        W  687  20.143   5.837  13.248
29072W        W  688  13.312  31.898   0.350
29073W        W  689  12.633  37.478   1.799
29074W        W  690  32.464   0.500  13.464
29075W        W  691  44.770  21.182  13.593
29076W        W  692   0.824   0.125  14.582
29077W        W  693  32.196  17.975  13.482
29078W        W  694  39.644  11.209  13.375
29079W        W  695  27.950  27.728  12.246
29080W        W  696  16.785  17.621   3.314
29081W        W  697   4.834  28.952  14.615
29082W        W  698  18.703   3.237   4.745
29083W        W  699  10.339  41.093   2.382
29084W        W  700  20.003  33.653   4.192
29085W        W  701   3.973  29.851   2.706
29086W        W  702  18.409   6.955  13.852
29087W        W  703  42.377   9.411   2.065
29088W        W  704  21.451  34.457   3.165
29089W        W  705   0.833   5.906   0.888
29090W        W  706  39.378  14.013   2.704
29091W        W  707  12.434  15.737  11.995
29092W        W  708  33.441  21.467  10.659
29093W        W  709  43.849   0.590  10.306
29094W        W  710  19.631   4.452  11.733
29095W        W  711  15.670  32.373   1.450
29096W        W  712  32.966  21.054  12.558
29097W        W  713  36.477  35.375  10.623
29098W        W  714  15.056  32.182  14.246
29099W        W  715   2.294  10.650  10.781
29100W        W  716  15.321  44.861   1.833
29101W        W  717  37.298  14.646  11.195
29102W        W  718  29.174  40.484  12.588
29103W        W  719  42.237  15.752   4.360
29104W        W  720  16.206  23.518  12.685
29105W        W  721   7.407  23.610  14.538
29106W        W  722  35.540  13.649   1.827
29107W        W  723  19.226  25.108  11.987
29108W        W  724  15.744  15.601   2.141
29109W        W  725  14.841   9.371  11.495
29110W        W  726   1.353  24.683  10.645
29111W        W  727  21.678  24.859   2.271
29112W        W  728  12.871  29.879   2.654
29113W        W  729  31.927  22.605   2.208
29114W        W  730  30.700  23.584   2.702
29115W        W  731  44.374  31.082   4.776
29116W        W  732   6.523  10.468   5.047
29117W        W  733  26.097   7.205   0.953
29118W        W  734   0.769  39.078   9.637
29119W        W  735  35.994  34.495   4.573
29120W        W  736   6.321  40.969   4.326
29121W        W  737  18.078  43.899   0.953
29122W        W  738  37.511  33.706  11.246
29123W        W  739  30.381  10.601   1.939
29124W        W  740   9.353  25.720  11.562
29125W        W  741  41.495  29.965  13.070
29126W        W  742   8.633  18.773  13.633
29127W        W  743  21.952  12.915  12.443
29128W        W  744  35.601  13.227   3.151
29129W        W  745  31.566  20.279  12.049
29130W        W  746  13.147   8.704  11.606
29131W        W  747  33.950  21.664   4.784
29132W        W  748  17.609  23.675   3.115
29133W        W  749   6.699   9.088   3.123
29134W        W  750  41.880  24.629  12.860
29135W        W  751  30.613  30.269   4.395
29136W        W  752  14.092  32.462  13.276
29137W        W  753   4.305  35.134   0.187
29138W        W  754  11.465  31.314  11.109
29139W        W  755  21.124  15.316  12.470
29140W        W  756   2.648   1.708  14.584
29141W        W  757  21.635   7.319  13.335
29142W        W  758  11.956  10.244   3.390
29143W        W  759  41.872  42.881  13.173
29144W        W  760   2.022  17.758  14.524
29145W        W  761  38.008  36.511   3.901
29146W        W  762  25.553  12.729   3.875
29147W        W  763  30.411   6.434   0.306
29148W        W  764  27.446  33.763   0.437
29149W        W  765  20.381   1.842   1.372
29150W        W  766  37.436  43.873   2.690
29151W        W  767  38.838  36.608   4.911
29152W        W  768  30.174   2.410  13.561
29153W        W  769  21.496  36.599   2.679
29154W        W  770  32.599  28.646  10.685
29155W        W  771  30.543  18.927  10.834
29156W        W  772  35.142  24.427  10.381
29157W        W  773  20.480  21.115   2.318
29158W        W  774   8.846   7.222  11.687
29159W        W  775   9.961  25.986  10.788
29160W        W  776  17.676   2.480  11.090
29161W        W  777  12.682  15.265  13.937
29162W        W  778   8.323   2.481   0.808
29163W        W  779  33.936  44.519   4.441
29164W        W  780  26.652  14.058   0.453
29165W        W  781  35.394  31.373   2.739
29166W        W  782  11.319  39.860   0.633
29167W        W  783  20.033  33.975   0.927
29168W        W  784  27.031  41.784  12.643
29169W        W  785  19.623   6.905   0.513
29170W        W  786  23.765  21.387  12.255
29171W        W  787  33.971  37.763  14.979
29172W        W  788   9.696  44.400   3.099
29173W        W  789  42.460   7.386   4.614
29174W        W  790  22.448  26.210  11.576
29175W        W  791  37.425  10.368  13.969
29176W        W  792  21.217  22.689   0.803
29177W        W  793  34.133  28.651  14.751
29178W        W  794   3.905  11.810   1.640
29179W        W  795  35.653   3.234   3.124
29180W        W  796  22.646  10.870   3.618
29181W        W  797  42.340   0.386   0.523
29182W        W  798  25.787  19.157  14.885
29183W        W  799  18.681  19.771   3.819
29184W        W  800  35.415  19.988  12.370
29185W        W  801  10.731  16.545  12.708
29186W        W  802   9.418  18.712   1.216
29187W        W  803  19.266  11.695  13.561
29188W        W  804  34.629  21.996  11.676
29189W        W  805  21.473  31.504  13.482
29190W        W  806   8.619  30.549  14.087
29191W        W  807  10.617  12.260  11.810
29192W        W  808   4.655   7.941   0.473
29193W        W  809  22.059  16.021   3.168
29194W        W  810  24.911  38.356  13.935
29195W        W  811  16.817  14.879  12.612
29196W        W  812  26.048  11.096   1.791
29197W        W  813  33.147   8.881  14.961
29198W        W  814  29.073  36.139  11.099
29199W        W  815  37.493  16.344   3.075
29200W        W  816  20.528  15.769   0.421
29201W        W  817  15.041   5.291   0.300
29202W        W  818   5.180   9.376  14.725
29203W        W  819  42.315  35.965   0.419
29204W        W  820  16.287  36.084   1.434
29205W        W  821  39.282   6.159  14.768
29206W        W  822  15.763  10.779  11.512
29207W        W  823   3.858  29.521   3.877
29208W        W  824   5.648   5.138   1.899
29209W        W  825  34.001  22.604  13.444
29210W        W  826   2.366  43.482   0.604
29211W        W  827  13.280  14.584  12.031
29212W        W  828  18.628   4.681   1.441
29213W        W  829  15.181  35.035   4.239
29214W        W  830  38.413  27.118   4.609
29215W        W  831  31.840   6.903   0.632
29216W        W  832  35.303   4.968   2.759
29217W        W  833  41.954  17.661   4.726
29218W        W  834  33.336  24.966  13.920
29219W        W  835  29.290  10.444  12.883
29220W        W  836  40.375  24.305   1.420
29221W        W  837  16.723  11.480  14.251
29222W        W  838  44.214  13.063   0.192
29223W        W  839  35.976   6.478  11.395
29224W        W  840  29.079  37.972  12.343
29225W        W  841   6.142  28.344  11.206
29226W        W  842  10.739  21.250  13.528
29227W        W  843  15.351  12.380   0.972
29228W        W  844  37.947  18.244  12.081
29229W        W  845  31.439  36.867   1.835
29230W        W  846   4.467  35.379  10.669
29231W        W  847  14.660  41.016   3.362
29232W        W  848  33.013  14.055   0.271
29233W        W  849   0.443  17.168   3.902
29234W        W  850  12.257  12.669   2.429
29235W        W  851  13.855   0.015   4.090
29236W        W  852  36.400   1.027   1.439
29237W        W  853  30.001  34.977   3.365
29238W        W  854  41.911  15.782   2.202
29239W        W  855  13.268  44.879  12.398
29240W        W  856  35.674  24.151   2.236
29241W        W  857  24.213  19.890   2.966
29242W        W  858  25.685  42.429   4.928
29243W        W  859  23.259  25.982   1.892
29244W        W  860   9.682  34.366  14.396
29245W        W  861   5.179  20.476  14.408
29246W        W  862  20.279  37.299  10.084
29247W        W  863  10.623  36.883   1.884
29248W        W  864  25.927  39.075  13.545
29249W        W  865  25.111  40.560  11.933
29250W        W  866  17.620  31.457  11.188
29251W        W  867  25.700  32.444  14.489
29252W        W  868  14.796  10.613   2.922
29253W        W  869  41.146   8.944   0.394
29254W        W  870  40.304  12.107  11.584
29255W        W  871  33.198   2.251  12.553
29256W        W  872   1.311  34.520  11.120
29257W        W  873   5.395  44.805   4.205
29258W        W  874  28.889  37.028  12.925
29259W        W  875  18.748   8.039  12.585
29260W        W  876  44.883  40.772  10.777
29261W        W  877  24.176  18.083   3.012
29262W        W  878  27.839  37.564   1.317
29263W        W  879  20.603  35.205  12.522
29264W        W  880  27.635  16.112  14.378
29265W        W  881  24.079   8.770   3.527
29266W        W  882  14.570   1.194   3.618
29267W        W  883  37.652  38.868   2.679
29268W        W  884  30.484  33.074  10.769
29269W        W  885   4.455  21.592   0.305
29270W        W  886  31.012   5.909   3.080
29271W        W  887  32.876  25.471  10.674
29272W        W  888   2.482  17.354  10.761
29273W        W  889  16.581   1.263   1.851
29274W        W  890  42.554   6.616  12.906
29275W        W  891  42.967  34.167   2.780
29276W        W  892  41.878   1.463   0.945
29277W        W  893  16.325  12.353   2.832
29278W        W  894   6.353  44.037   4.024
29279W        W  895   8.670  34.296  11.101
29280W        W  896  29.086  42.737   5.063
29281W        W  897  34.378  32.496  11.213
29282W        W  898   2.210   3.236  13.113
29283W        W  899  25.294  15.943  11.295
29284W        W  900   4.238  39.291  11.942
29285W        W  901  44.510   1.807  14.775
29286W        W  902  13.820   0.372   3.661
29287W        W  903  21.101  13.156  14.528
29288W        W  904  23.827  12.585   3.092
29289W        W  905  16.789  39.571  14.824
29290W        W  906  12.440   6.163  14.508
29291W        W  907  17.393   0.413   4.227
29292W        W  908  44.823  22.125   4.090
29293W        W  909  32.577  11.782  12.101
29294W        W  910  31.412  12.068  10.701
29295W        W  911   7.366  26.873   3.339
29296W        W  912   0.786  18.817   1.127
29297W        W  913  14.333  38.697   9.784
29298W        W  914  15.682  44.034   1.933
29299W        W  915   4.194  44.869   1.938
29300W        W  916  18.310  19.538   1.825
29301W        W  917  11.212  31.321   3.658
29302W        W  918  32.265   4.688   2.355
29303W        W  919  19.338  39.816  14.817
29304W        W  920  11.647  32.508   3.758
29305W        W  921   1.770   2.140   2.642
29306W        W  922  13.765  27.903   1.831
29307W        W  923  16.886  17.106  12.563
29308W        W  924  29.370   7.627   2.849
29309W        W  925  43.777  30.955   0.828
29310W        W  926  19.161  12.279   1.120
29311W        W  927   9.378  15.004  10.620
29312W        W  928  25.441  41.516  11.155
29313W        W  929  14.207  28.130   2.796
29314W        W  930   4.224  27.666  14.596
29315W        W  931  42.318  26.358  14.833
29316W        W  932  13.703  23.189  10.883
29317W        W  933  33.614   0.395  10.547
29318W        W  934  42.798  44.506   1.374
29319W        W  935  24.689  33.832   4.671
29320W        W  936   6.249  34.444  14.345
29321W        W  937   5.314  19.695  12.535
29322W        W  938  42.271  34.398  14.381
29323W        W  939  27.888  32.488   4.376
29324W        W  940  27.498  37.416  13.567
29325W        W  941  35.384  14.140  14.222
29326W        W  942  39.877   5.544   0.201
29327W        W  943   0.838  41.202  12.575
29328W        W  944  21.511  36.295   3.136
29329W        W  945  26.419  18.194   1.347
29330W        W  946  35.857   9.755  13.344
29331W        W  947  31.670  43.924  10.439
29332W        W  948  22.591  19.192   4.572
29333W        W  949  13.401  16.122  11.390
29334W        W  950   6.926  33.474   0.913
29335W        W  951  32.493  33.048   4.829
29336W        W  952   4.448  42.345  12.035
29337W        W  953  43.011  18.030   2.388
29338W        W  954  11.690  16.197  12.882
29339W        W  955  21.629  20.042  10.815
29340W        W  956  15.711  33.206  12.063
29341W        W  957   0.483  25.565  13.117
29342W        W  958  13.407  31.412  10.692
29343W        W  959  44.238  30.123   3.212
29344W        W  960  39.356   8.259  10.730
29345W        W  961  43.076  30.986   2.964
29346W        W  962  35.152   7.257   4.112
29347W        W  963  43.263  21.358   1.944
29348W        W  964  21.215  18.225   0.368
29349W        W  965  35.324   3.425   2.758
29350W        W  966  34.245   6.719  13.324
29351W        W  967   9.570  24.043   4.162
29352W        W  968  13.802  37.608  14.861
29353W        W  969  13.065   1.290   2.462
29354W        W  970  22.082  44.524   1.317
29355W        W  971   0.416  37.708   1.669
29356W        W  972  25.499   8.819   2.747
29357W        W  973   6.383   3.447   1.289
29358W        W  974  37.160  35.300  12.489
29359W        W  975  41.136  19.022   4.563
29360W        W  976  37.259  22.463   1.946
29361W        W  977   6.757  10.930   1.709
29362W        W  978   1.437  11.352   0.800
29363W        W  979   6.952  27.910   0.226
29364W        W  980   9.123   7.774  11.143
29365W        W  981  35.997   2.980  12.983
29366W        W  982  32.437  39.144  10.278
29367W        W  983   0.934  15.715   4.648
29368W        W  984  11.689  36.477  13.573
29369W        W  985  34.898  20.093   0.744
29370W        W  986  32.409  40.745   2.848
29371W        W  987  34.781  33.464  14.898
29372W        W  988   9.929  39.440   4.839
29373W        W  989  38.816  38.998   0.445
29374W        W  990  44.681  28.110   4.557
29375W        W  991  26.675   2.824  14.790
29376W        W  992  44.195  10.340   1.269
29377W        W  993   5.026  22.349   1.413
29378W        W  994  13.118  44.530   4.144
29379W        W  995  28.031  18.965   1.820
29380W        W  996  21.679  17.623  10.312
29381W        W  997   8.844  24.563   4.594
29382W        W  998  30.845  29.469   4.146
29383W        W  999  41.357  10.207  14.738
29384W        W 1000  31.806  22.916   5.154
29385W        W 1001  27.237  28.909   4.741
29386W        W 1002  42.629  44.222  11.257
29387W        W 1003   0.974  26.263   0.681
29388W        W 1004  33.891  36.824  14.902
29389W        W 1005  17.300  15.691  13.492
29390W        W 1006   9.901   3.162  12.437
29391W        W 1007   9.260  19.359  10.525
29392W        W 1008  25.475  33.748   2.878
29393W        W 1009  26.365  11.732   0.429
29394W        W 1010  40.430  11.978   3.084
29395W        W 1011  24.775  22.212   0.207
29396W        W 1012  21.260  33.394   0.463
29397W        W 1013  24.744   4.862  14.732
29398W        W 1014   7.152  11.903   3.966
29399W        W 1015  42.887  28.680   0.739
29400W        W 1016  22.215  24.909   4.892
29401W        W 1017   2.957   7.731   2.279
29402W        W 1018  27.960  24.660  13.017
29403W        W 1019  16.350  42.515  13.070
29404W        W 1020  39.803  36.006   1.984
29405W        W 1021  20.426  43.515   4.194
29406W        W 1022  34.343  11.760  12.151
29407W        W 1023  35.977   7.226   0.841
29408W        W 1024   2.298  29.179   1.636
29409W        W 1025  22.307  19.988  11.548
29410W        W 1026  21.530   2.854   2.166
29411W        W 1027  43.596   8.066  14.320
29412W        W 1028  39.823  33.223   1.784
29413W        W 1029   5.212   0.042  13.379
29414W        W 1030  28.174   9.728   0.440
29415W        W 1031   8.365   1.026  14.851
29416W        W 1032  42.324  22.894   4.135
29417W        W 1033  36.987  34.633  13.874
29418W        W 1034   6.218  22.662   3.099
29419W        W 1035  32.721  28.191   1.862
29420W        W 1036   8.913  14.014   1.409
29421W        W 1037  13.407  38.462   1.585
29422W        W 1038  40.901  26.270  13.518
29423W        W 1039  27.260  14.909   3.168
29424W        W 1040  37.960  18.302   1.752
29425W        W 1041  44.504  23.559  11.939
29426W        W 1042  21.022  16.661  13.081
29427W        W 1043  41.194  37.992   4.597
29428W        W 1044  11.913  12.819  12.223
29429W        W 1045  27.652   6.766  14.635
29430W        W 1046   8.830  22.999   2.326
29431W        W 1047  10.929  12.121   2.130
29432W        W 1048  24.285  28.091   2.306
29433W        W 1049   4.258  17.812   2.251
29434W        W 1050  14.675  32.215  10.038
29435W        W 1051  38.941   1.511   0.754
29436W        W 1052  14.358  27.515  10.685
29437W        W 1053  15.596  18.065  11.845
29438W        W 1054   6.486   2.446   0.652
29439W        W 1055  28.646  14.296  10.227
29440W        W 1056  37.851   8.354  11.905
29441W        W 1057   1.341  44.940   3.158
29442W        W 1058   0.907  38.548  14.263
29443W        W 1059  18.785   7.098   4.180
29444W        W 1060  40.744  27.947   4.690
29445W        W 1061  16.326  43.517   4.308
29446W        W 1062  37.789  15.494  10.992
29447W        W 1063  26.085  27.388  13.263
29448W        W 1064  28.981  16.211  13.355
29449W        W 1065  41.550   6.125  13.532
29450W        W 1066  44.291   2.847  10.569
29451W        W 1067   5.909  37.885  10.582
29452W        W 1068  40.806   0.771  11.905
29453W        W 1069  30.528  38.353   4.015
29454W        W 1070   8.869   8.119   1.392
29455W        W 1071  29.208  42.557  12.066
29456W        W 1072  30.659  11.747  13.473
29457W        W 1073   7.798   0.553   3.448
29458W        W 1074   7.178  30.004  12.959
29459W        W 1075  18.542  23.959   4.127
29460W        W 1076  27.924  26.080  14.825
29461W        W 1077  17.998  27.021   0.966
29462W        W 1078  35.614  33.848  11.603
29463W        W 1079   1.154   7.607  12.469
29464W        W 1080  38.331  40.710  10.726
29465W        W 1081   0.001  32.150  12.515
29466W        W 1082   9.370  35.350  12.898
29467W        W 1083  44.038  16.291   2.222
29468W        W 1084  42.007   3.004  12.921
29469W        W 1085   1.919  28.232   3.342
29470W        W 1086  23.462  19.949  10.573
29471W        W 1087  25.464  25.168  11.511
29472W        W 1088  28.971  34.385  14.993
29473W        W 1089  30.184   1.257  12.337
29474W        W 1090  14.854   3.774  14.910
29475W        W 1091  28.033  21.223   2.283
29476W        W 1092  30.342  40.633   1.690
29477W        W 1093  33.002  32.313  14.601
29478W        W 1094  14.852  37.909  13.053
29479W        W 1095  32.645  30.534   1.902
29480W        W 1096  34.667   6.796   0.804
29481W        W 1097  12.182  41.012   2.969
29482W        W 1098  23.964   3.953  12.527
29483W        W 1099  37.513  17.549   2.829
29484W        W 1100  20.209  16.603  13.928
29485W        W 1101  28.220  11.325   3.649
29486W        W 1102  40.496  34.056  12.490
29487W        W 1103  28.487  12.302  11.599
29488W        W 1104  22.716  19.251  11.228
29489W        W 1105  31.628  20.275   4.956
29490W        W 1106  27.141  34.880  14.609
29491W        W 1107  12.807  32.071  13.076
29492W        W 1108   0.923  14.034  11.455
29493W        W 1109  31.444  11.036   4.050
29494W        W 1110  35.301  38.480   1.018
29495W        W 1111  23.679  17.358   4.053
29496W        W 1112  22.026  15.809   0.665
29497W        W 1113  14.283  37.453  14.896
29498W        W 1114  23.167   4.440   2.682
29499W        W 1115  43.374  40.065  14.757
29500W        W 1116  17.048  35.756   3.177
29501W        W 1117   4.939   7.850  13.479
29502W        W 1118  14.949  43.139  14.263
29503W        W 1119  44.112  39.272   3.700
29504W        W 1120   5.699   3.258  13.859
29505W        W 1121  43.666  20.480   4.309
29506W        W 1122  12.994  19.804  14.573
29507W        W 1123  27.173  13.458   3.305
29508W        W 1124   3.325  21.476   3.814
29509W        W 1125  27.420  30.843   1.161
29510W        W 1126  12.616  15.187  12.444
29511W        W 1127  10.303   1.786   3.746
29512W        W 1128  12.301  22.258   4.131
29513W        W 1129   8.869  43.812   0.176
29514W        W 1130   5.239   4.838   4.838
29515W        W 1131   9.015  13.225   4.516
29516W        W 1132   7.321  26.557  10.763
29517W        W 1133  39.829  43.232   3.933
29518W        W 1134  23.988  43.307  14.359
29519W        W 1135  36.897  25.919  14.049
29520W        W 1136  22.298  24.707  13.892
29521W        W 1137  42.306  23.186  12.858
29522W        W 1138   1.805  17.366  14.283
29523W        W 1139  31.917  12.127   2.495
29524W        W 1140  29.160  11.819  13.864
29525W        W 1141   0.761   0.327  11.762
29526W        W 1142  12.696  24.343   0.378
29527W        W 1143  10.411   1.670   2.806
29528W        W 1144  40.422  38.510  11.386
29529W        W 1145  39.508  44.903  14.790
29530W        W 1146   3.430  23.103   1.643
29531W        W 1147  17.407  32.362  11.219
29532W        W 1148   7.988  20.185  10.784
29533W        W 1149  26.548  44.419   4.472
29534W        W 1150   3.854  33.527   5.007
29535W        W 1151  23.049  25.999  12.945
29536W        W 1152  22.292  20.194   0.106
29537W        W 1153  16.540   2.210   1.801
29538W        W 1154  31.367  17.291   1.801
29539W        W 1155  16.179   3.468   2.475
29540W        W 1156  39.733  29.577  14.827
29541W        W 1157  25.739  24.365  12.815
29542W        W 1158  42.916  44.882   1.723
29543W        W 1159  26.927  14.462   5.129
29544W        W 1160  21.024  40.533   0.689
29545W        W 1161  35.438  41.453   3.586
29546W        W 1162  31.905  31.954  14.329
29547W        W 1163  11.685  10.599   0.653
29548W        W 1164  24.226  22.497   2.309
29549W        W 1165  26.066  10.196   0.747
29550W        W 1166   4.505  13.535   1.827
29551W        W 1167  41.388  22.169   0.811
29552W        W 1168  17.680  38.288   3.647
29553W        W 1169  12.356  12.111   1.694
29554W        W 1170  17.158   8.820   3.737
29555W        W 1171  33.940  31.076  13.976
29556W        W 1172  31.039  16.054   4.680
29557W        W 1173  28.431  15.166  14.007
29558W        W 1174  25.900   4.746  10.931
29559W        W 1175  24.029   4.631   3.330
29560W        W 1176  23.317  27.181   2.266
29561W        W 1177  31.630  31.057   5.002
29562W        W 1178  40.731   2.733   1.467
29563W        W 1179  18.580  28.945  12.825
29564W        W 1180  15.713  33.853   1.813
29565W        W 1181  12.908  29.094  12.467
29566W        W 1182   2.370   8.955   2.571
29567W        W 1183   2.280  16.397  12.303
29568W        W 1184  14.062  26.509  11.999
29569W        W 1185   8.810  14.058   4.078
29570W        W 1186  34.445  27.630   4.316
29571W        W 1187  23.490  27.034   4.634
29572W        W 1188   3.208  14.500   1.182
29573W        W 1189  44.436  26.263   2.619
29574W        W 1190   5.192  13.407   0.583
29575W        W 1191  16.317  25.962  12.400
29576W        W 1192  38.560  38.078   0.419
29577W        W 1193  17.028  43.012   1.905
29578W        W 1194  40.186  31.937   2.583
29579W        W 1195  22.989  19.665   3.762
29580W        W 1196  12.751  29.250   2.191
29581W        W 1197   3.746  40.848  14.294
29582W        W 1198  34.596  20.343   1.188
29583W        W 1199  14.131  30.576  13.395
29584W        W 1200  11.693  13.250  13.110
29585W        W 1201  15.643  23.359   0.202
29586W        W 1202   9.192  29.591  12.321
29587W        W 1203  44.900  30.451   4.211
29588W        W 1204  12.727  32.080  14.083
29589W        W 1205   8.306  23.822   0.489
29590W        W 1206  15.634  19.065  11.141
29591W        W 1207   7.611  31.290   2.137
29592W        W 1208  29.260  18.021   0.026
29593W        W 1209  21.085   5.461   1.943
29594W        W 1210  20.672  22.220   1.783
29595W        W 1211  27.747  31.406  11.999
29596W        W 1212  18.176  27.408  11.159
29597W        W 1213  44.565  35.750   4.973
29598W        W 1214  43.796  31.895   4.561
29599W        W 1215  27.480  17.573  14.323
29600W        W 1216  17.817  30.969  12.041
29601W        W 1217   4.844  30.567   4.732
29602W        W 1218  26.748   6.238  10.709
29603W        W 1219  37.834   6.262  11.629
29604W        W 1220  43.993  32.879  10.606
29605W        W 1221  11.866  12.800  14.903
29606W        W 1222  44.922  15.346  14.863
29607W        W 1223  20.183   8.416  10.673
29608W        W 1224  26.634  26.472  11.640
29609W        W 1225  19.586  33.543   0.236
29610W        W 1226  27.717  31.037  11.633
29611W        W 1227  41.874  18.166  13.082
29612W        W 1228  12.216  24.609   1.333
29613W        W 1229   3.371  37.981   4.190
29614W        W 1230  34.109  13.600   3.845
29615W        W 1231   5.189  43.849  11.018
29616W        W 1232  16.260  43.431  14.982
29617W        W 1233  39.805  21.722   4.748
29618W        W 1234  25.974  19.777   4.787
29619W        W 1235  24.756  43.259  10.656
29620W        W 1236   7.897  13.173  11.897
29621W        W 1237   8.649  36.036  11.477
29622W        W 1238   9.374  43.844   4.435
29623W        W 1239   3.780   7.765  12.501
29624W        W 1240  39.836  15.561   1.275
29625W        W 1241  43.990  35.256   0.837
29626W        W 1242  14.661  11.783  11.474
29627W        W 1243  21.520   9.244  10.776
29628W        W 1244  44.654   8.970   3.224
29629W        W 1245  13.135  17.195   4.203
29630W        W 1246  13.936  12.840   1.831
29631W        W 1247  35.968  37.250   1.844
29632W        W 1248  29.974   6.650  13.409
29633W        W 1249   0.951   3.445   3.537
29634W        W 1250  39.048  39.608  13.371
29635W        W 1251  25.222   4.205  12.529
29636W        W 1252  14.816  22.742   3.120
29637W        W 1253  37.685  21.042   3.996
29638W        W 1254  16.265  19.827  12.585
29639W        W 1255  12.203   6.424   3.716
29640W        W 1256  40.290  41.917   4.044
29641W        W 1257   4.966  23.509  14.469
29642W        W 1258   4.462  27.916   1.842
29643W        W 1259  33.191  43.728   3.158
29644W        W 1260  19.845  44.468  13.829
29645W        W 1261  24.146  36.372   2.491
29646W        W 1262   5.756   6.577  10.858
29647W        W 1263  16.629  32.802   0.441
29648W        W 1264   4.953  16.596   4.176
29649W        W 1265  40.931  31.572  14.734
29650W        W 1266  39.345  34.516  11.946
29651W        W 1267   6.839  31.072   4.512
29652W        W 1268   5.050  17.111  12.963
29653W        W 1269  41.803   6.653   0.472
29654W        W 1270   2.230  43.401  14.258
29655W        W 1271  37.956  33.721  11.484
29656W        W 1272  16.704   4.913   3.273
29657W        W 1273  27.069  13.363   3.794
29658W        W 1274  38.362  14.361  10.623
29659W        W 1275  42.497   1.346   4.090
29660W        W 1276  28.371  18.258   1.338
29661W        W 1277  36.169   2.488   2.620
29662W        W 1278  42.243   7.804   4.844
29663W        W 1279  10.611  16.588  11.187
29664W        W 1280  13.871  19.716   3.706
29665W        W 1281  37.928  39.609  14.435
29666W        W 1282  25.066  37.087   0.962
29667W        W 1283  11.304   3.470   4.925
29668W        W 1284   9.641  23.511   1.109
29669W        W 1285  21.193  24.720   2.338
29670W        W 1286  23.776  29.534   0.069
29671W        W 1287  32.104  10.587  13.406
29672W        W 1288  39.591  29.351   0.341
29673W        W 1289   1.271  13.699   4.207
29674W        W 1290  28.013   0.759   3.549
29675W        W 1291  23.483  36.011  11.567
29676W        W 1292  32.060  21.573   4.345
29677W        W 1293   5.362  38.369  10.573
29678W        W 1294  33.649  32.049  12.436
29679W        W 1295  14.243  33.332   2.858
29680W        W 1296  40.268  33.630   3.002
29681W        W 1297  22.037   3.200  13.369
29682W        W 1298  17.303  26.890   4.756
29683W        W 1299   5.639  29.323   4.137
29684W        W 1300   4.858  14.203  12.750
29685W        W 1301  27.746   8.717  14.171
29686W        W 1302   3.395  29.436  14.748
29687W        W 1303  37.470  40.780   2.142
29688W        W 1304  34.901  25.120  12.461
29689W        W 1305  21.640  38.530  10.566
29690W        W 1306   4.404  21.510   0.911
29691W        W 1307  43.876  29.944   3.527
29692W        W 1308   0.819   6.471  11.983
29693W        W 1309  43.981  17.078  12.885
29694W        W 1310   2.843  40.242  10.681
29695W        W 1311  37.432  22.046   2.229
29696W        W 1312   9.906  20.610   2.840
29697W        W 1313   7.672  34.808  11.643
29698W        W 1314  10.586   1.996   3.373
29699W        W 1315  28.974  35.425  11.631
29700W        W 1316   4.098  43.866   4.606
29701W        W 1317  13.539  20.807   0.409
29702W        W 1318  40.345  10.523   1.163
29703W        W 1319  44.373   7.413   0.104
29704W        W 1320   8.338   2.981  13.826
29705W        W 1321  21.466   0.010  13.448
29706W        W 1322   0.805  43.927  11.405
29707W        W 1323  12.540  27.781   2.803
29708W        W 1324  39.559  15.066  11.620
29709W        W 1325  24.152  34.069  10.535
29710W        W 1326   4.773  26.209  13.992
29711W        W 1327  16.552  23.754   3.305
29712W        W 1328  38.945  41.770  12.267
29713W        W 1329  19.658   4.363   0.267
29714W        W 1330   2.773   9.242   0.964
29715W        W 1331  28.201  11.780   4.074
29716W        W 1332   3.574  19.155  13.545
29717W        W 1333  11.675  17.680   2.227
29718W        W 1334   0.300  15.107   2.391
29719W        W 1335  16.211   5.175   4.225
29720W        W 1336   9.943  44.787   3.305
29721W        W 1337  31.144  33.683  14.952
29722W        W 1338   1.299  11.157   2.428
29723W        W 1339  33.287   7.564   4.165
29724W        W 1340  23.404   1.753   1.912
29725W        W 1341  21.801  38.315  11.013
29726W        W 1342  13.799  42.985   0.985
29727W        W 1343  43.783   4.002   2.622
29728W        W 1344  11.296   4.432   2.238
29729W        W 1345  20.520  12.327   4.633
29730W        W 1346  32.443   1.754   4.502
29731W        W 1347  23.506  44.487  14.845
29732W        W 1348  34.046  30.601  12.124
29733W        W 1349  41.318  22.709  14.765
29734W        W 1350  29.407  12.260   3.305
29735W        W 1351  15.383   7.791   4.628
29736W        W 1352  31.939  23.950  10.408
29737W        W 1353  28.434   7.094   3.317
29738W        W 1354  38.168  17.693  14.713
29739W        W 1355  23.517  43.062  10.769
29740W        W 1356   6.811  30.534  14.519
29741W        W 1357  18.124  28.688  12.929
29742W        W 1358  26.810  33.907  10.692
29743W        W 1359  30.634   5.881   1.493
29744W        W 1360  14.648  12.633   1.792
29745W        W 1361   7.317  43.750   0.256
29746W        W 1362  44.801  37.098  11.446
29747W        W 1363  28.002  34.585   1.435
29748W        W 1364  38.002  40.781   1.835
29749W        W 1365  30.172  27.703   1.820
29750W        W 1366  30.061  31.984   3.879
29751W        W 1367  12.779  23.192   4.734
29752W        W 1368  13.088  43.521   2.836
29753W        W 1369  19.183  31.640  11.322
29754W        W 1370  29.666  29.140   9.938
29755W        W 1371  15.244  41.049   4.977
29756W        W 1372  25.397  43.011  14.515
29757W        W 1373  35.095  13.909   1.240
29758W        W 1374  36.868   4.642  13.905
29759W        W 1375  38.278  44.853  10.307
29760W        W 1376   9.785  32.982   3.676
29761W        W 1377  32.208   5.885  12.653
29762W        W 1378  26.289  38.959  14.825
29763W        W 1379  13.058  41.488  11.138
29764W        W 1380  27.611  43.313   1.269
29765W        W 1381  31.007   2.888  14.791
29766W        W 1382  25.595  23.054  13.631
29767W        W 1383   4.703  28.046  14.147
29768W        W 1384   0.826  41.071   3.115
29769W        W 1385  30.752  41.431   0.408
29770W        W 1386  38.895  40.612  14.481
29771W        W 1387  17.318   8.898   0.378
29772W        W 1388  44.162  15.397   4.531
29773W        W 1389   0.870  28.324  14.164
29774W        W 1390  14.909   3.349   3.174
29775W        W 1391  14.594  29.455  13.020
29776W        W 1392   6.740  40.975  10.729
29777W        W 1393  13.106  36.903  14.971
29778W        W 1394  34.640  42.745  12.107
29779W        W 1395  16.261   1.393  11.158
29780W        W 1396  10.304   8.091   4.989
29781W        W 1397  23.971  28.858   3.877
29782W        W 1398  28.735  14.132   3.612
29783W        W 1399  19.070   3.467   3.923
29784W        W 1400  28.557   9.633  14.375
29785W        W 1401  20.385  18.300   0.444
29786W        W 1402  38.061   2.998  10.737
29787W        W 1403   9.571   3.518   2.957
29788W        W 1404  38.121  42.328   4.084
29789W        W 1405  35.359  40.326  10.736
29790W        W 1406  35.641  17.088   0.922
29791W        W 1407   4.254  24.933  10.771
29792W        W 1408  15.733  27.953   0.870
29793W        W 1409   3.770  28.076  10.593
29794W        W 1410  18.668   9.600   0.907
29795W        W 1411  39.580  34.450  14.455
29796W        W 1412   6.253  43.954  14.820
29797W        W 1413   0.310  10.943  12.135
29798W        W 1414   8.653  27.215   3.151
29799W        W 1415  16.154  26.353  11.938
29800W        W 1416  30.814  13.618   1.687
29801W        W 1417   1.986  20.676   0.715
29802W        W 1418  38.056  42.496   4.927
29803W        W 1419   8.250  40.872   1.283
29804W        W 1420   0.796  26.677  11.513
29805W        W 1421  33.458  27.919   3.286
29806W        W 1422  27.933  14.868  11.505
29807W        W 1423  12.592  24.840   0.380
29808W        W 1424  42.977  41.177   2.632
29809W        W 1425  34.146   5.310  11.051
29810W        W 1426  32.706  23.396   1.858
29811W        W 1427  37.093  17.043   4.468
29812W        W 1428   3.311  39.504  11.942
29813W        W 1429  16.172  26.950   3.325
29814W        W 1430  44.994  39.568  11.607
29815W        W 1431  17.640  35.380   2.476
29816W        W 1432   5.256   9.754  12.885
29817W        W 1433  26.390  42.656   0.422
29818W        W 1434  16.649  13.259  11.942
29819W        W 1435   8.765  21.527   0.302
29820W        W 1436   1.515  20.000  12.093
29821W        W 1437  38.156  35.161   2.767
29822W        W 1438  18.502  18.691  10.881
29823W        W 1439   1.027  35.953  13.445
29824W        W 1440  43.558  25.181  14.906
29825W        W 1441   5.612  13.567   2.204
29826W        W 1442  32.579   6.110  10.246
29827W        W 1443  36.637   8.924   2.490
29828W        W 1444  21.563  13.422   2.670
29829W        W 1445  30.639  35.527  12.633
29830W        W 1446  14.157  15.423  10.664
29831W        W 1447  40.801  27.410   0.223
29832W        W 1448  43.493   2.305   2.696
29833W        W 1449  10.613  41.267   3.167
29834W        W 1450  38.542  10.172   3.174
29835W        W 1451  10.151  19.208   0.284
29836W        W 1452  31.359  29.067   3.382
29837W        W 1453  24.759  35.481   3.689
29838W        W 1454  25.104  42.573   0.789
29839W        W 1455  34.503  21.550  14.065
29840W        W 1456  12.853  43.610   2.384
29841W        W 1457   4.253  38.069  14.314
29842W        W 1458  21.048  16.392   2.789
29843W        W 1459  25.911  27.608  11.021
29844W        W 1460  32.331  28.443  11.087
29845W        W 1461  28.648  18.318   3.463
29846W        W 1462  42.073   8.963   3.662
29847W        W 1463  17.796   6.651   4.635
29848W        W 1464  21.595  38.942   0.213
29849W        W 1465  25.713   4.259   0.414
29850W        W 1466   7.658   6.284   0.411
29851W        W 1467   9.133  29.886  10.517
29852W        W 1468  43.478  26.918   1.395
29853W        W 1469  37.940   3.722  13.862
29854W        W 1470  28.727  25.539   4.463
29855W        W 1471  32.132  11.822  11.755
29856W        W 1472  12.261  27.920   4.354
29857W        W 1473  24.526  27.729   4.087
29858W        W 1474  31.968  15.198   4.592
29859W        W 1475  11.196  32.166   0.799
29860W        W 1476  40.560  39.522  11.323
29861W        W 1477  35.726  43.442   3.249
29862W        W 1478  44.411  24.080  11.961
29863W        W 1479  33.435  12.814  12.204
29864W        W 1480  12.851   2.922  10.980
29865W        W 1481  28.677  23.667  11.165
29866W        W 1482  14.583  31.921   1.006
29867W        W 1483  12.425  29.892  11.109
29868W        W 1484   2.500  10.102   3.863
29869W        W 1485  26.962   3.834  12.339
29870W        W 1486  11.642   1.284   3.113
29871W        W 1487  20.637  34.910  11.220
29872W        W 1488  28.908  43.185  11.133
29873W        W 1489  41.098  42.776   2.321
29874W        W 1490   5.452  16.884  13.255
29875W        W 1491  33.088   0.321   2.845
29876W        W 1492   1.578  15.061   0.225
29877W        W 1493   8.885   3.485  10.147
29878W        W 1494   3.778  22.250   0.645
29879W        W 1495  27.701  11.564   3.178
29880W        W 1496  36.529  24.421  12.051
29881W        W 1497  17.738  31.035   1.678
29882W        W 1498  28.765   8.753  11.770
29883W        W 1499  32.961  34.205  14.853
29884W        W 1500  16.545  35.616  13.451
29885W        W 1501  21.041  35.820  13.241
29886W        W 1502   8.322  16.366  11.098
29887W        W 1503   8.705  22.115  11.987
29888W        W 1504   8.809  42.106   0.769
29889W        W 1505  15.784   0.037   1.704
29890W        W 1506  12.608  22.609   3.356
29891W        W 1507  14.887  43.466  11.511
29892W        W 1508  43.146   0.722  12.497
29893W        W 1509   1.416  19.054  14.347
29894W        W 1510  33.976   4.316   0.861
29895W        W 1511  10.661  15.195   4.866
29896W        W 1512  29.637  43.477  11.475
29897W        W 1513  17.759  20.737  10.843
29898W        W 1514  17.981  15.634  14.984
29899W        W 1515   9.342  24.627  14.757
29900W        W 1516  18.666  36.321  10.484
29901W        W 1517  23.474   8.227   0.942
29902W        W 1518  29.603  16.744  14.939
29903W        W 1519  28.120  43.797   1.031
29904W        W 1520  35.604   6.610  13.500
29905W        W 1521   4.321  23.504  14.273
29906W        W 1522   2.706  38.160   1.962
29907W        W 1523   6.354  24.988  10.676
29908W        W 1524   2.556   9.836   2.910
29909W        W 1525  36.627  38.541  12.378
29910W        W 1526   0.760  33.848  13.575
29911W        W 1527  35.107  42.532  13.334
29912W        W 1528   5.026   3.152   9.894
29913W        W 1529   5.706  20.564  13.514
29914W        W 1530  34.328  36.073   2.727
29915W        W 1531  10.258   7.515  13.588
29916W        W 1532  30.613  26.536  13.791
29917W        W 1533  32.831   8.162   0.463
29918W        W 1534  27.403  31.725   2.927
29919W        W 1535  31.459  36.934  12.043
29920W        W 1536  15.308  43.834  14.869
29921W        W 1537  18.987  17.761  14.932
29922W        W 1538  35.378  34.561  13.591
29923W        W 1539  34.159  13.402  14.874
29924W        W 1540   6.187  32.687  14.042
29925W        W 1541  44.157   1.323  11.444
29926W        W 1542  41.975  29.079  13.751
29927W        W 1543  40.428  13.730  11.587
29928W        W 1544   7.678  37.848   3.616
29929W        W 1545  15.712  13.014   2.662
29930W        W 1546  18.137  44.907  13.794
29931W        W 1547  27.708   2.391   3.713
29932W        W 1548   3.436  15.654   3.361
29933W        W 1549   8.639  38.011  13.760
29934W        W 1550  28.575  22.780  11.651
29935W        W 1551  25.140  40.012  11.702
29936W        W 1552   3.690   0.261  11.892
29937W        W 1553  33.380  10.386  13.853
29938W        W 1554  44.025  38.650  13.066
29939W        W 1555   2.250  14.731   1.814
29940W        W 1556  15.777  35.961  11.662
29941W        W 1557  27.914  31.046   1.178
29942W        W 1558   2.265  25.263   5.566
29943W        W 1559  33.138   7.536  11.258
29944W        W 1560   6.636  24.513   0.246
29945W        W 1561  10.465  23.671   0.800
29946W        W 1562  16.613  34.689   1.683
29947W        W 1563   3.439   9.976  10.690
29948W        W 1564  36.015  31.935   4.921
29949W        W 1565  39.510   2.883  13.803
29950W        W 1566  29.467   7.109   9.920
29951W        W 1567  21.671   8.109  11.547
29952W        W 1568  23.309   7.375  11.773
29953W        W 1569   9.129  10.889  14.442
29954W        W 1570  36.498   5.708   1.963
29955W        W 1571  34.892  16.269  13.937
29956W        W 1572  19.337  38.127  11.060
29957W        W 1573   5.263  38.203   1.417
29958W        W 1574  36.437  16.810  11.127
29959W        W 1575  40.936  31.447   0.353
29960W        W 1576   6.009  40.454  11.814
29961W        W 1577   1.820  37.750  10.989
29962W        W 1578  28.978  18.213   3.084
29963W        W 1579  29.945   4.947  10.789
29964W        W 1580   7.421  38.639   0.489
29965W        W 1581  43.908  22.677   1.816
29966W        W 1582  41.076   3.893  11.028
29967W        W 1583   2.300  23.164  11.750
29968W        W 1584   1.927   4.399   2.652
29969W        W 1585  28.020   2.156  14.516
29970W        W 1586   9.164   8.863  14.044
29971W        W 1587  44.433  19.524  11.606
29972W        W 1588  29.429   9.389  11.069
29973W        W 1589   2.478   5.155  10.759
29974W        W 1590  32.199  33.404  13.296
29975W        W 1591   0.803   9.203   0.896
29976W        W 1592  22.801  27.232   2.393
29977W        W 1593  26.267  14.292  14.499
29978W        W 1594  20.039  12.191   3.103
29979W        W 1595  33.651  28.528  13.339
29980W        W 1596  36.631  18.864  14.861
29981W        W 1597   1.886   2.975  14.000
29982W        W 1598  35.157  43.471  11.725
29983W        W 1599  40.011  10.886  13.554
29984W        W 1600  21.876  24.007   0.871
29985W        W 1601  19.022  11.759   1.191
29986W        W 1602  26.031  39.025  11.085
29987W        W 1603  41.372  11.641   3.793
29988W        W 1604  25.914  15.264  11.007
29989W        W 1605  40.477  21.304  13.811
29990W        W 1606  44.384  16.722  12.973
29991W        W 1607  42.863  12.603  12.840
29992W        W 1608   0.387  36.426   4.189
29993W        W 1609  18.871  38.088   0.338
29994W        W 1610   9.341   6.664   3.443
29995W        W 1611  36.929  12.579   4.993
29996W        W 1612   7.897  10.097  12.077
29997W        W 1613   3.710  30.742  10.792
29998W        W 1614   2.647  33.517  14.757
29999W        W 1615  19.979  21.142   4.160
30000W        W 1616  21.214   6.266  13.159
30001W        W 1617  23.545   5.832  11.477
30002W        W 1618   4.964  16.220  13.658
30003W        W 1619  19.967  13.716  13.855
30004W        W 1620  27.524  33.220   4.588
30005W        W 1621  20.088  44.436   0.354
30006W        W 1622  37.086   2.043  14.587
30007W        W 1623  12.587  18.100  13.269
30008W        W 1624   2.725  28.724   0.375
30009W        W 1625  42.572  31.344   4.160
30010W        W 1626  35.842  24.234   1.356
30011W        W 1627  36.962  37.383   3.608
30012W        W 1628  14.573  44.858   3.560
30013W        W 1629  23.524   2.427   2.504
30014W        W 1630  38.341  28.018  13.839
30015W        W 1631  20.810  14.527  12.530
30016W        W 1632  40.550  40.580   3.737
30017W        W 1633  43.491  25.986  12.522
30018W        W 1634   1.866  34.464   2.698
30019W        W 1635   9.310  18.570  13.874
30020W        W 1636  35.670  40.459   0.863
30021W        W 1637   9.296  29.480   0.756
30022W        W 1638  35.065  19.781   3.881
30023W        W 1639  41.939  33.642   3.126
30024W        W 1640   5.799   7.504  10.526
30025W        W 1641  16.033  18.813  12.509
30026W        W 1642  41.071   1.687  12.212
30027W        W 1643   2.130   2.374   4.511
30028W        W 1644  22.091   2.822  11.889
30029W        W 1645  19.131  44.385   5.011
30030W        W 1646  41.963  15.778   3.296
30031W        W 1647  18.615   1.881  10.281
30032W        W 1648  10.204  36.050   4.231
30033W        W 1649   1.896   1.219  11.619
30034W        W 1650  17.629  38.487  11.151
30035W        W 1651  30.281  25.273  14.909
30036W        W 1652   0.969   1.050   4.152
30037W        W 1653   3.023  16.117   2.771
30038W        W 1654  25.076  28.557  11.615
30039W        W 1655  15.092   1.353  10.706
30040W        W 1656   7.882  33.463   4.225
30041W        W 1657   9.456  35.835  13.372
30042W        W 1658  33.391  37.605   4.166
30043W        W 1659   0.480  14.878   3.722
30044W        W 1660  40.103  11.911  11.134
30045W        W 1661   1.338  20.950   3.829
30046W        W 1662  14.897  15.508   0.672
30047W        W 1663  12.141   0.974   1.829
30048W        W 1664  25.377  34.929  11.951
30049W        W 1665  19.399  20.053   4.570
30050W        W 1666  39.102  37.964  14.291
30051W        W 1667  29.771   6.338  14.542
30052W        W 1668  39.852  22.091  13.018
30053W        W 1669  41.828  35.289  14.373
30054W        W 1670  25.742  30.592  13.314
30055W        W 1671  14.064  18.240  12.699
30056W        W 1672  32.557  41.857  13.002
30057W        W 1673  36.864  26.724   3.208
30058W        W 1674  17.497  20.007   4.814
30059W        W 1675  17.260  28.202   0.891
30060W        W 1676  37.316  19.885   2.688
30061W        W 1677   2.328   8.630  14.983
30062W        W 1678  39.458   8.935  14.158
30063W        W 1679  42.379  21.014  10.967
30064W        W 1680   1.520  25.786   3.326
30065W        W 1681  38.073  10.358  12.925
30066W        W 1682   5.835  28.464  13.560
30067W        W 1683   4.448  32.501   1.238
30068W        W 1684  36.604  23.068  13.995
30069W        W 1685   8.099  12.224   2.247
30070W        W 1686  35.035   2.127  10.992
30071W        W 1687   8.119   5.138  14.987
30072W        W 1688  13.241  32.619  14.433
30073W        W 1689  34.694   6.244   2.291
30074W        W 1690  11.770  26.943  10.515
30075W        W 1691   3.863   8.166   3.863
30076W        W 1692  18.277  15.763   4.117
30077W        W 1693  34.303  27.207  14.782
30078W        W 1694  20.088  40.395  13.905
30079W        W 1695   4.649  28.611   0.374
30080W        W 1696  41.621  34.633   3.827
30081W        W 1697  22.459   3.299  10.047
30082W        W 1698  11.739  18.545   2.927
30083W        W 1699  36.636  33.890  11.604
30084W        W 1700   9.227   2.372  13.008
30085W        W 1701  15.123  27.285   0.940
30086W        W 1702   8.324  31.148  12.085
30087W        W 1703  33.672   0.492   1.338
30088W        W 1704  23.977   1.855   2.446
30089W        W 1705  26.054  18.257  12.529
30090W        W 1706  26.730  23.291   1.930
30091W        W 1707   6.773  14.356  13.908
30092W        W 1708  28.201  18.570  11.357
30093W        W 1709  11.708  37.938   3.795
30094W        W 1710  36.860  44.904  10.646
30095W        W 1711   1.729   7.372   0.357
30096W        W 1712  16.540  14.815  13.896
30097W        W 1713  29.506  25.996   2.471
30098W        W 1714  19.598  40.634  12.800
30099W        W 1715  12.107  31.400  11.067
30100W        W 1716  43.905   5.552  10.740
30101W        W 1717  20.101   7.308   3.756
30102W        W 1718  26.832  19.242   2.174
30103W        W 1719  30.658  29.690   0.550
30104W        W 1720  40.802  38.812  12.914
30105W        W 1721  42.801  28.515   4.633
30106W        W 1722  16.176  10.556   4.705
30107W        W 1723  19.507  11.253  13.429
30108W        W 1724  35.424   3.711   4.745
30109W        W 1725  14.408  32.054   0.404
30110W        W 1726   4.652  16.295   0.284
30111W        W 1727  35.313  16.717   2.688
30112W        W 1728  42.022  12.171  11.912
30113W        W 1729   2.376   0.481   2.640
30114W        W 1730   6.285  29.955  11.827
30115W        W 1731  10.481  40.062  14.515
30116W        W 1732  34.828  34.643  10.874
30117W        W 1733   3.446  29.877   0.110
30118W        W 1734  34.041  15.416   2.263
30119W        W 1735  38.480   5.832   1.896
30120W        W 1736  25.466  43.340   5.014
30121W        W 1737  21.049  26.600   2.403
30122W        W 1738   3.763  28.418  12.826
30123W        W 1739  11.866  23.019  11.718
30124W        W 1740   7.987  37.026   0.396
30125W        W 1741  22.441  17.761   4.711
30126W        W 1742  19.346  22.620  11.731
30127W        W 1743  19.715  12.631  10.665
30128W        W 1744  26.128  13.356   0.430
30129W        W 1745   9.374  33.960  11.233
30130W        W 1746  17.069  13.220   1.405
30131W        W 1747   4.736  33.940  12.993
30132W        W 1748  31.788  20.992   3.466
30133W        W 1749   6.450  12.627   2.304
30134W        W 1750   7.197  41.238  11.113
30135W        W 1751  15.393   0.352  13.774
30136W        W 1752  44.395   4.969  12.479
30137W        W 1753   4.434  32.439   3.660
30138W        W 1754   9.575  28.146   1.277
30139W        W 1755   2.330  13.599  12.604
30140W        W 1756  15.229  27.668  12.947
30141W        W 1757  41.374  37.083  14.380
30142W        W 1758  20.089   1.310   1.934
30143W        W 1759   9.867  39.129   2.125
30144W        W 1760  16.562  31.245  14.348
30145W        W 1761   5.971  17.511   1.249
30146W        W 1762  19.553  17.432  14.037
30147W        W 1763  37.815  38.567  10.603
30148W        W 1764  44.215  34.118  12.024
30149W        W 1765  34.449  25.880   0.913
30150W        W 1766  22.072   0.845  10.742
30151W        W 1767  38.313  29.637   4.299
30152W        W 1768  10.627  27.419   0.215
30153W        W 1769  20.571  19.260  13.036
30154W        W 1770  24.615  43.486   3.787
30155W        W 1771  35.405   4.001  14.500
30156W        W 1772  31.630  34.026  12.177
30157W        W 1773   8.119  43.049   1.143
30158W        W 1774  31.610  12.071   0.366
30159W        W 1775  21.232  44.253  11.465
30160W        W 1776  14.761  21.364  11.133
30161W        W 1777  19.286  35.593  10.715
30162W        W 1778   8.734   8.210   4.405
30163W        W 1779   5.256  30.696  13.321
30164W        W 1780  40.853  42.383  11.569
30165W        W 1781  35.839  34.109  11.990
30166W        W 1782   8.870  28.551  11.805
30167W        W 1783  18.602   2.253  12.392
30168W        W 1784  31.037  13.324  14.974
30169W        W 1785  22.116  40.589  14.037
30170W        W 1786  32.645  31.328  14.813
30171W        W 1787  41.203   0.397   4.915
30172W        W 1788  40.788  28.732  14.348
30173W        W 1789  36.321  36.063  13.795
30174W        W 1790   9.784  36.591  10.532
30175W        W 1791   4.661  11.076  11.185
30176W        W 1792  28.767   9.168   2.406
30177W        W 1793  23.098   5.846   2.637
30178W        W 1794  13.265  14.111   3.773
30179W        W 1795  14.358   0.809  14.416
30180W        W 1796   5.358  28.472   2.325
30181W        W 1797   2.392  29.595   4.197
30182W        W 1798   9.880   2.387  13.360
30183W        W 1799  42.745  20.925  13.108
30184W        W 1800  13.006  24.977  14.254
30185W        W 1801   5.173  32.245  14.834
30186W        W 1802  42.558   1.243  13.141
30187W        W 1803  23.702  38.311  12.960
30188W        W 1804  31.136   9.428  14.828
30189W        W 1805  28.602  37.511  11.619
30190W        W 1806  28.109  10.821   3.538
30191W        W 1807  22.634  10.182   4.056
30192W        W 1808  24.133  17.668  12.053
30193W        W 1809  25.444  15.307   4.152
30194W        W 1810  42.862  40.958  13.037
30195W        W 1811  44.054  31.545  14.465
30196W        W 1812  27.418  27.003   0.899
30197W        W 1813  25.135  20.744  12.444
30198W        W 1814  13.153  12.935   3.026
30199W        W 1815  10.734  12.729   1.950
30200W        W 1816  44.533  20.969   0.780
30201W        W 1817   2.470  41.357   2.188
30202W        W 1818  35.050  27.884   1.797
30203W        W 1819  16.146  44.315   2.613
30204W        W 1820  20.718  17.626   1.636
30205W        W 1821   8.116   9.626  13.975
30206W        W 1822  30.013  35.591   0.103
30207W        W 1823   7.773  11.768   1.796
30208W        W 1824  23.991  44.016  13.342
30209W        W 1825   3.740  12.785   4.705
30210W        W 1826  39.321  33.647  14.915
30211W        W 1827  38.916   6.687   2.811
30212W        W 1828  13.101  35.318  10.955
30213W        W 1829  44.238  20.374  13.485
30214W        W 1830   7.403  30.857   3.915
30215W        W 1831  33.986  42.340  13.836
30216W        W 1832   8.300  36.453  10.596
30217W        W 1833  42.484  16.536  13.487
30218W        W 1834  38.750  32.676   4.239
30219W        W 1835  31.041  28.138  14.833
30220W        W 1836  28.984  32.099   1.728
30221W        W 1837   7.622   0.309   1.700
30222W        W 1838  22.646   4.294  11.612
30223W        W 1839  33.097  30.258  11.000
30224W        W 1840  31.978  35.793   0.850
30225W        W 1841  22.508  38.413  11.556
30226W        W 1842  13.522  30.399  14.136
30227W        W 1843  44.554  25.711  14.459
30228W        W 1844  11.304  40.590  11.688
30229W        W 1845  44.272  30.939  12.244
30230W        W 1846  18.805   2.840  12.977
30231W        W 1847  32.483   0.778   4.339
30232W        W 1848  44.268  26.467   3.067
30233W        W 1849  26.806  35.531   2.262
30234W        W 1850  18.895  35.687   0.427
30235W        W 1851  12.766  11.165  11.977
30236W        W 1852   8.082  31.411   2.347
30237W        W 1853  21.170  16.194  13.598
30238W        W 1854  32.878  15.255   3.778
30239W        W 1855  13.744  18.284   0.916
30240W        W 1856   9.791  38.057   1.513
30241W        W 1857  34.840  39.207   3.077
30242W        W 1858  25.746  39.613   0.182
30243W        W 1859  10.208  13.832   2.209
30244W        W 1860  11.738  37.502  11.062
30245W        W 1861   5.741  41.927  13.901
30246W        W 1862  38.765  44.557  11.137
30247W        W 1863   9.407  37.591  13.731
30248W        W 1864  39.837   9.302  14.067
30249W        W 1865  34.367  16.303  14.002
30250W        W 1866  10.681  21.875   1.300
30251W        W 1867  27.101  42.875  13.232
30252W        W 1868  18.775  19.167  10.837
30253W        W 1869   0.290  10.407  13.946
30254W        W 1870  42.910   1.258   4.405
30255W        W 1871   0.919  33.621   1.683
30256W        W 1872  11.220  23.944  14.492
30257W        W 1873  36.309  11.797   4.832
30258W        W 1874  13.782  20.617   4.138
30259W        W 1875  40.539  36.833   1.910
30260W        W 1876  35.618  19.348  12.025
30261W        W 1877  38.450   6.752   3.565
30262W        W 1878  21.654  22.172   2.784
30263W        W 1879  12.587  19.128   2.623
30264W        W 1880  28.864   9.298  12.460
30265W        W 1881   7.449   8.504   1.380
30266W        W 1882  13.850  29.534   0.980
30267W        W 1883   3.391  32.502   3.949
30268W        W 1884  22.520   6.321  11.971
30269W        W 1885  19.680  20.575  13.544
30270W        W 1886  29.096  18.854  11.363
30271W        W 1887  18.586   2.307   4.468
30272W        W 1888   6.708  14.281  13.392
30273W        W 1889   5.270   3.774   2.813
30274W        W 1890  21.386  33.217  10.005
30275W        W 1891  10.764   8.170   3.749
30276W        W 1892   6.418  40.318  12.119
30277W        W 1893  29.931  23.207   4.726
30278W        W 1894  23.495  15.185   1.322
30279W        W 1895   9.766  42.522   1.451
30280W        W 1896  33.538   4.451   1.956
30281W        W 1897   3.392  14.219   1.984
30282W        W 1898   8.743  42.765  14.972
30283W        W 1899   0.802  44.754   4.053
30284W        W 1900  33.340  34.284  13.106
30285W        W 1901  43.352  35.514   5.381
30286W        W 1902  32.080  12.810  12.157
30287W        W 1903  14.228  42.757   1.715
30288W        W 1904  11.660  28.505  10.704
30289W        W 1905  11.881  10.429  13.513
30290W        W 1906  16.655  40.874   0.318
30291W        W 1907  13.149  21.327   0.876
30292W        W 1908   7.121   6.315   0.397
30293W        W 1909  32.115   5.717   2.716
30294W        W 1910  34.422  15.885   1.752
30295W        W 1911  43.928  37.600  12.898
30296W        W 1912  41.302   7.255  12.355
30297W        W 1913   9.183  25.993   3.476
30298W        W 1914  23.133   6.686   3.623
30299W        W 1915  10.373  33.973  12.099
30300W        W 1916  43.803  23.986  14.782
30301W        W 1917   5.625  33.625  13.973
30302W        W 1918  19.190   1.531  11.586
30303W        W 1919   3.940  38.286   4.290
30304W        W 1920  42.591   7.250   1.444
30305W        W 1921  15.459  18.330   2.273
30306W        W 1922  41.091  30.417   1.783
30307W        W 1923  13.853  15.518   0.008
30308W        W 1924   3.198  10.711   0.053
30309W        W 1925  21.213  21.740  12.551
30310W        W 1926  31.944  12.626   1.722
30311W        W 1927  28.117  39.262   4.522
30312W        W 1928  17.035  41.994   4.524
30313W        W 1929  42.256  20.986   2.327
30314W        W 1930   1.778   2.950   2.171
30315W        W 1931  17.276  22.090  13.387
30316W        W 1932  40.397   9.210   3.283
30317W        W 1933  16.546  43.348  10.284
30318W        W 1934  37.189  21.749   3.132
30319W        W 1935  23.644  18.266   4.175
30320W        W 1936  40.584   3.766   2.850
30321W        W 1937   7.264  11.058  12.456
30322W        W 1938  44.174  20.876   1.698
30323W        W 1939  38.581  19.773   4.230
30324W        W 1940  16.768  24.666   1.917
30325W        W 1941   1.713  38.409  12.916
30326W        W 1942  37.286  20.276   4.564
30327W        W 1943  33.076   4.743   0.706
30328W        W 1944  27.612   8.852  11.190
30329W        W 1945  29.638  39.695  11.569
30330W        W 1946  44.311  19.244   4.911
30331W        W 1947   1.459  22.990  14.142
30332W        W 1948  14.402   3.522  14.960
30333W        W 1949  21.625  11.271   4.824
30334W        W 1950  24.665  33.298  14.724
30335W        W 1951  30.257  34.518   3.515
30336W        W 1952  25.192  12.327  14.394
30337W        W 1953  23.238  13.548  12.412
30338W        W 1954  17.841  14.598   2.344
30339W        W 1955  42.062  39.121   2.433
30340W        W 1956  10.102  13.057   2.717
30341W        W 1957  31.145  12.711   1.340
30342W        W 1958  38.450  34.410   3.626
30343W        W 1959  11.338  37.460  11.410
30344W        W 1960  26.656  13.535   3.318
30345W        W 1961  36.499  39.016   1.806
30346W        W 1962  24.527  26.951   0.044
30347W        W 1963   1.737  30.942  11.148
30348W        W 1964  35.433  15.359  12.052
30349W        W 1965   2.337  23.566  11.428
30350W        W 1966  19.858  15.547  14.986
30351W        W 1967  10.091  43.703  13.402
30352W        W 1968  38.764  35.661   4.190
30353W        W 1969   6.700  42.475   3.731
30354W        W 1970  17.751   3.789   3.933
30355W        W 1971  38.814   0.881   4.095
30356W        W 1972   7.185  26.910  13.352
30357W        W 1973  21.147  15.305  13.491
30358W        W 1974   8.605   5.428  12.571
30359W        W 1975  29.467  17.519   2.778
30360W        W 1976  29.944   2.772   4.693
30361W        W 1977   1.847   1.898   2.190
30362W        W 1978  43.883  24.125  11.936
30363W        W 1979  30.970  28.097  13.340
30364W        W 1980  10.342  30.655  11.643
30365W        W 1981  15.847   6.940  12.407
30366W        W 1982  38.292  12.890   2.190
30367W        W 1983  37.936  16.506  10.980
30368W        W 1984  35.543   8.430  11.029
30369W        W 1985  40.266  12.627   3.716
30370W        W 1986  31.612  20.512  11.267
30371W        W 1987  10.298  32.430  13.826
30372W        W 1988  15.019   2.237   2.620
30373W        W 1989   3.876  37.047   4.736
30374W        W 1990  16.512  33.056  13.126
30375W        W 1991   3.002  20.082   1.175
30376W        W 1992  34.766  11.296   2.409
30377W        W 1993  42.800   0.765  12.112
30378W        W 1994  32.602  43.378   3.717
30379W        W 1995  19.150  14.023  12.510
30380W        W 1996  24.090  39.634   2.158
30381W        W 1997  11.175  19.664   2.347
30382W        W 1998  33.086   7.385   0.876
30383W        W 1999  10.272  37.894  12.941
30384W        W 2000  26.523  24.188  11.595
30385W        W 2001  22.157  19.391   1.767
30386W        W 2002   7.419  38.313   0.912
30387W        W 2003  41.021  10.977  14.296
30388W        W 2004  30.134  23.297  14.034
30389W        W 2005   2.680  14.126   2.416
30390W        W 2006  21.170   6.115  14.545
30391W        W 2007  15.724  43.185  11.077
30392W        W 2008  25.575  35.435  11.819
30393W        W 2009  15.288   9.697  13.412
30394W        W 2010  15.306   3.145   2.818
30395W        W 2011   9.020  14.021  11.892
30396W        W 2012   4.325  34.668  12.746
30397W        W 2013  17.654  23.211  10.458
30398W        W 2014   7.066  11.323   3.348
30399W        W 2015  30.352  35.330   3.917
30400W        W 2016  25.231  43.856   1.157
30401W        W 2017  29.438  22.551  12.227
30402W        W 2018  40.561  10.688  12.932
30403W        W 2019   8.761  43.013  14.504
30404W        W 2020   7.080  37.443  12.149
30405W        W 2021  33.322  21.813  13.387
30406W        W 2022  10.419  42.008   2.238
30407W        W 2023  22.839  16.758   0.809
30408W        W 2024   2.166  39.276   0.246
30409W        W 2025   7.005   9.758   3.835
30410W        W 2026  13.735  31.997  12.424
30411W        W 2027  14.534   2.739  11.663
30412W        W 2028  24.626   7.497   4.236
30413W        W 2029   1.752  28.186  10.741
30414W        W 2030  36.026  11.763   2.062
30415W        W 2031  39.577   8.692   2.270
30416W        W 2032   0.965  40.942   0.239
30417W        W 2033   9.624  32.861   2.284
30418W        W 2034  28.133  22.505  12.892
30419W        W 2035   0.761  43.976  12.406
30420W        W 2036  24.089  21.793  14.040
30421W        W 2037   5.899  35.365  12.480
30422W        W 2038  15.756  39.034  13.775
30423W        W 2039  11.937  33.643  13.802
30424W        W 2040  24.753   9.766   0.922
30425W        W 2041   5.223   1.398   4.027
30426W        W 2042  34.173  33.060  13.726
30427W        W 2043  41.642  20.573  14.645
30428W        W 2044  35.013  25.663   3.270
30429W        W 2045  29.595  15.837  10.475
30430W        W 2046  43.939  34.151  10.568
30431W        W 2047  44.353  24.020   2.923
30432W        W 2048  37.750  20.066   4.457
30433W        W 2049  41.553  20.288  12.485
30434W        W 2050  30.928  34.304  11.077
30435W        W 2051   4.656  27.612   0.550
30436W        W 2052  42.558  27.032   1.462
30437W        W 2053  42.563  16.819   0.812
30438W        W 2054   3.010   4.680   1.672
30439W        W 2055  29.696  41.602  11.741
30440W        W 2056  14.282   1.283  13.499
30441W        W 2057  33.201  15.299   4.799
30442W        W 2058  17.542  30.465  11.179
30443W        W 2059  31.403  33.004   0.192
30444W        W 2060  34.235  27.774   2.177
30445W        W 2061  22.979  21.234  12.222
30446W        W 2062   4.986  17.217   4.914
30447W        W 2063  36.981  40.341  13.081
30448W        W 2064  33.449  42.582   2.719
30449W        W 2065  42.996  21.078   2.304
30450W        W 2066  33.745   6.385  12.811
30451W        W 2067  26.732  40.269   1.767
30452W        W 2068   2.056  43.074   1.281
30453W        W 2069   5.911  27.056  11.187
30454W        W 2070  42.500   0.749   1.880
30455W        W 2071  19.514  11.889   1.319
30456W        W 2072  27.747  36.763  11.979
30457W        W 2073  17.695  34.099   3.381
30458W        W 2074   4.263  35.332   0.961
30459W        W 2075  38.862  24.964   3.307
30460W        W 2076  16.862  40.273   3.284
30461W        W 2077  37.516  19.181   4.330
30462W        W 2078  40.788  23.122   1.780
30463W        W 2079  11.304  20.122  11.381
30464W        W 2080  16.537   0.251   2.384
30465W        W 2081  30.492  11.323   3.119
30466W        W 2082  37.407  20.932   2.360
30467W        W 2083  38.106  28.568  10.619
30468W        W 2084  33.593  31.668  14.826
30469W        W 2085  39.760   0.975  13.810
30470W        W 2086  10.687  19.621  13.908
30471W        W 2087  41.225  19.600   0.198
30472W        W 2088  38.471  32.534   1.168
30473W        W 2089  32.174   1.858   2.778
30474W        W 2090  17.076   9.603  13.592
30475W        W 2091  22.185  20.642   4.107
30476W        W 2092  31.033  24.109  13.935
30477W        W 2093   7.835  26.057  14.527
30478W        W 2094  33.968  13.892  14.861
30479W        W 2095  17.513   9.369  11.711
30480W        W 2096  28.244  29.690   0.450
30481W        W 2097  10.177  11.215  14.087
30482W        W 2098  38.800  24.895  10.306
30483W        W 2099   7.843  20.697   0.974
30484W        W 2100  39.483   7.536   2.625
30485W        W 2101  38.490   6.660   0.956
30486W        W 2102   5.811   3.256   4.235
30487W        W 2103  32.890  26.296  11.912
30488W        W 2104  42.503  37.953  10.207
30489W        W 2105  17.699   0.077   5.398
30490W        W 2106  39.344  20.117  13.407
30491W        W 2107  33.171  40.977  12.051
30492W        W 2108  16.279  44.636   3.221
30493W        W 2109  13.508   3.002  14.316
30494W        W 2110   1.538  22.083   3.106
30495W        W 2111  23.862  31.928  11.434
30496W        W 2112   7.631   7.369  12.009
30497W        W 2113   0.025   7.386   4.126
30498W        W 2114   3.960  12.306   4.651
30499W        W 2115  24.770   2.037  14.298
30500W        W 2116  32.628  38.060  14.929
30501W        W 2117  11.576   4.729   3.988
30502W        W 2118  35.157  29.000   3.330
30503W        W 2119  11.565  32.504  14.253
30504W        W 2120  15.480  36.215  10.349
30505W        W 2121  36.006  35.794   3.742
30506W        W 2122  38.658  29.394   1.961
30507W        W 2123  37.619  19.512  14.794
30508W        W 2124   0.752  23.775   2.467
30509W        W 2125  14.340  40.800   2.687
30510W        W 2126  36.657   6.394   2.212
30511W        W 2127  24.956  27.334  12.998
30512W        W 2128  15.416   7.794   3.610
30513W        W 2129  24.576  32.670  10.595
30514W        W 2130  34.463   4.242   1.679
30515W        W 2131   8.686   1.856  13.317
30516W        W 2132  35.863  12.616   5.200
30517W        W 2133  24.077   5.233   3.424
30518W        W 2134  27.122  11.338   2.834
30519W        W 2135  40.940  42.044   0.137
30520W        W 2136  13.858  13.249  12.425
30521W        W 2137  39.141  34.845   2.651
30522W        W 2138  13.005  20.503  10.989
30523W        W 2139  27.602   7.666  11.591
30524W        W 2140  33.633   7.690   3.794
30525W        W 2141  16.150  18.768  14.882
30526W        W 2142  40.819  31.099   1.230
30527W        W 2143  34.623  30.592  12.531
30528W        W 2144  37.614  32.977   9.858
30529W        W 2145  23.462   2.515  13.473
30530W        W 2146  22.297  23.620  14.335
30531W        W 2147  20.776  21.556   2.306
30532W        W 2148  33.050  30.669   2.831
30533W        W 2149  10.145   3.804   2.981
30534W        W 2150  15.151  31.343  12.014
30535W        W 2151  32.052  43.464  10.241
30536W        W 2152  11.036  25.044   4.012
30537W        W 2153  32.727   4.688   3.278
30538W        W 2154   1.442  15.701   2.417
30539W        W 2155  28.184   8.832  14.403
30540W        W 2156  40.431  17.651  13.855
30541W        W 2157  13.645  41.955  11.569
30542W        W 2158  39.536  27.266   3.280
30543W        W 2159  37.485  16.700  14.913
30544W        W 2160  17.834  38.753   3.334
30545W        W 2161  30.643  23.669  11.975
30546W        W 2162  19.050  33.023  12.609
30547W        W 2163  33.579   5.914  10.637
30548W        W 2164  26.704   4.172   1.316
30549W        W 2165  11.340  14.692   2.623
30550W        W 2166  17.626  40.998  12.344
30551W        W 2167  44.752   9.711  13.741
30552W        W 2168   5.951   3.262   1.824
30553W        W 2169  32.442   2.443  14.790
30554W        W 2170  34.569  28.030   4.610
30555W        W 2171   3.925  39.489   1.797
30556W        W 2172  16.184  42.863  12.104
30557W        W 2173  17.665   7.825  12.527
30558W        W 2174   5.277  44.476   0.921
30559W        W 2175  37.819  10.446   4.957
30560W        W 2176  12.801  35.594   1.007
30561W        W 2177   4.176  11.149   1.340
30562W        W 2178  43.967  40.007  12.385
30563W        W 2179   7.818   3.945   1.880
30564W        W 2180  22.186  35.326   1.644
30565W        W 2181  29.106  22.204  13.207
30566W        W 2182  12.261  44.151  14.006
30567W        W 2183  44.853  10.677  13.990
30568W        W 2184  30.014  12.600  11.627
30569W        W 2185  38.070  21.129  12.944
30570W        W 2186  14.093  32.443  12.004
30571W        W 2187   7.104  37.370   5.006
30572W        W 2188  33.281  43.576  11.615
30573W        W 2189   6.388  14.707   3.172
30574W        W 2190  27.599  31.455  13.806
30575W        W 2191  33.038  16.531   0.802
30576W        W 2192  14.213  12.065   1.288
30577W        W 2193  17.190  44.846   2.793
30578W        W 2194  24.025   6.318  11.137
30579W        W 2195  33.964  40.142  12.833
30580W        W 2196  44.538  28.597   4.346
30581W        W 2197  20.767  29.480   1.869
30582W        W 2198   6.638   8.828  12.911
30583W        W 2199  32.470  25.201  10.357
30584W        W 2200   4.399  27.626   2.298
30585W        W 2201  11.244   0.006  13.536
30586W        W 2202  18.726   6.919  14.728
30587W        W 2203  20.248   8.631  11.142
30588W        W 2204   5.426  26.571   4.692
30589W        W 2205  32.580  18.589  11.017
30590W        W 2206  25.188  39.520  11.522
30591W        W 2207   6.401  27.485   3.762
30592W        W 2208  32.890  30.418  11.801
30593W        W 2209  31.126  42.104  11.079
30594W        W 2210   7.167   0.885  13.363
30595W        W 2211  18.424   7.141  13.330
30596W        W 2212  30.236  23.005   2.724
30597W        W 2213   9.275  15.164   4.712
30598W        W 2214  25.941   0.275  13.532
30599W        W 2215  27.575  41.649  14.025
30600W        W 2216  40.483  28.615  13.945
30601W        W 2217  26.661  28.487   4.858
30602W        W 2218   9.199   8.690   1.782
30603W        W 2219  11.672  41.466   0.008
30604W        W 2220  42.798  30.952  13.963
30605W        W 2221  42.561  30.506   4.039
30606W        W 2222  41.577   9.124   0.134
30607W        W 2223  17.305   5.846   1.543
30608W        W 2224  14.619   3.988   5.465
30609W        W 2225  23.412  21.154   0.377
30610W        W 2226  23.003   4.861   4.695
30611W        W 2227  33.004  36.901  10.665
30612W        W 2228  43.830  40.538   4.682
30613W        W 2229  17.606  32.711   1.221
30614W        W 2230  40.189  24.117  10.637
30615W        W 2231  18.721  24.002   0.223
30616W        W 2232  42.279  33.451  12.558
30617W        W 2233  21.095   6.671   0.408
30618W        W 2234  10.017  41.711   1.257
30619W        W 2235  32.837  38.429  11.981
30620W        W 2236  19.188  15.020   3.327
30621W        W 2237  12.727  25.992  13.136
30622W        W 2238  14.213  34.835   0.509
30623W        W 2239   1.122  32.630  14.293
30624W        W 2240  37.084  40.429   1.040
30625W        W 2241  38.927   9.668  11.110
30626W        W 2242  42.047  34.156  14.002
30627W        W 2243   9.278  40.435  12.607
30628W        W 2244  32.339  30.077   0.783
30629W        W 2245  24.754   8.359   0.944
30630W        W 2246   0.694  17.760  13.614
30631W        W 2247  17.786   4.267   2.279
30632W        W 2248  42.222  18.415   2.751
30633W        W 2249   2.803  18.315   2.737
30634W        W 2250  35.707  31.630   3.636
30635W        W 2251   1.108  33.955   0.425
30636W        W 2252  16.616  35.972   3.318
30637W        W 2253  37.000   7.016  14.826
30638W        W 2254   9.216   2.391   4.722
30639W        W 2255  28.207  11.352  13.353
30640W        W 2256   2.381  12.774   4.498
30641W        W 2257   4.054  26.953   0.963
30642W        W 2258   9.342   2.736   3.887
30643W        W 2259  34.374   5.905  14.085
30644W        W 2260   0.412  24.313  13.918
30645W        W 2261  24.982  40.502  11.077
30646W        W 2262  31.209   8.241  12.427
30647W        W 2263  38.356  23.596   2.890
30648W        W 2264  36.607  15.421   1.458
30649W        W 2265  17.804  32.678  12.428
30650W        W 2266  36.073  23.300   3.431
30651W        W 2267  12.478   1.990   4.167
30652W        W 2268  36.534   1.582   4.554
30653W        W 2269  23.996   1.423   1.245
30654W        W 2270  38.120  11.226  12.346
30655W        W 2271  21.000  20.348  14.248
30656W        W 2272  14.087  42.894  14.545
30657W        W 2273   3.006  19.715  11.543
30658W        W 2274  26.349   3.652  13.421
30659W        W 2275  30.273  34.835   1.816
30660W        W 2276  41.457  29.975   4.554
30661W        W 2277   7.467  20.927   1.702
30662W        W 2278  11.858   7.631   0.242
30663W        W 2279  34.354  44.165   3.756
30664W        W 2280  42.274  30.962  10.526
30665W        W 2281   0.314  10.009  13.128
30666W        W 2282  27.971   4.499  10.408
30667W        W 2283  27.499  31.376   1.220
30668W        W 2284  26.200  41.621  14.150
30669W        W 2285  38.826  12.192  12.899
30670W        W 2286   9.241   3.252  13.402
30671W        W 2287  25.206  35.007  13.249
30672W        W 2288  23.612  10.637  13.465
30673W        W 2289  21.638  29.457  11.702
30674W        W 2290  14.828  36.084  14.322
30675W        W 2291  30.527  27.085   3.284
30676W        W 2292  20.634   8.473  14.083
30677W        W 2293  41.497   6.238  11.520
30678W        W 2294  17.389  37.950   1.733
30679W        W 2295  19.462  22.498   3.207
30680W        W 2296  22.490   8.798   2.182
30681W        W 2297  26.487  28.683   0.298
30682W        W 2298  34.437  39.008   1.636
30683W        W 2299   5.321   8.432  10.548
30684W        W 2300   9.626  29.420   2.045
30685W        W 2301  18.094  12.741  14.753
30686W        W 2302   4.139   3.256  12.938
30687W        W 2303   7.203  14.770  13.515
30688W        W 2304  29.596  12.036   2.000
30689W        W 2305  42.437  32.882  13.087
30690W        W 2306  38.191   7.246   4.679
30691W        W 2307  23.609  10.090   1.841
30692W        W 2308   5.469  10.011  11.051
30693W        W 2309  16.631  18.231  13.349
30694W        W 2310  35.075  42.495   0.443
30695W        W 2311   0.928  41.767  10.696
30696W        W 2312   4.889  23.894   1.312
30697W        W 2313   3.168  24.114  12.374
30698W        W 2314  44.736  14.088  14.360
30699W        W 2315  15.547  18.787  11.594
30700W        W 2316   6.255  13.292   3.680
30701W        W 2317  32.003   5.631  10.960
30702W        W 2318  43.319  12.787  13.291
30703W        W 2319  23.397  40.491   1.929
30704W        W 2320  39.731  20.107   2.722
30705W        W 2321  36.515  13.214   2.016
30706W        W 2322  22.295  43.821   2.162
30707W        W 2323   1.554  19.431   3.705
30708W        W 2324  24.221  11.421  12.046
30709W        W 2325  29.005   5.431  11.125
30710W        W 2326  26.171  15.051  10.532
30711W        W 2327  16.039  30.755  11.220
30712W        W 2328  26.107  42.315   2.650
30713W        W 2329  12.082  42.798  12.952
30714W        W 2330  26.617  36.504  14.480
30715W        W 2331  34.613  12.049   3.175
30716W        W 2332  44.372  33.629  11.928
30717W        W 2333   2.222  18.024   0.359
30718W        W 2334   6.818  20.775  14.294
30719W        W 2335  15.242  41.978   2.985
30720W        W 2336   8.678  23.431   1.339
30721W        W 2337  18.982   2.011  11.619
30722W        W 2338  17.079  29.924  12.574
30723W        W 2339   6.803  15.978   0.022
30724W        W 2340   9.279  22.459  11.071
30725W        W 2341  32.630  38.269  14.209
30726W        W 2342   7.318  27.236   1.396
30727W        W 2343   3.260  36.769   1.266
30728W        W 2344   4.348  24.683   1.369
30729W        W 2345   6.495   7.426   4.620
30730W        W 2346  30.658  14.607   0.905
30731W        W 2347   1.408  20.557  11.541
30732W        W 2348  16.121  38.546   0.446
30733W        W 2349  24.092  42.537   0.742
30734W        W 2350  25.107  16.667  14.443
30735W        W 2351  30.592  14.288  14.932
30736W        W 2352  35.167  18.727   3.173
30737W        W 2353   6.208  31.482   4.194
30738W        W 2354  28.690   6.795   0.880
30739W        W 2355  41.607  38.319  12.673
30740W        W 2356  44.467  28.449   2.347
30741W        W 2357  17.677  36.296  12.942
30742W        W 2358  44.325  19.054  12.948
30743W        W 2359  24.983  30.898   3.489
30744W        W 2360  20.037  44.074   3.411
30745W        W 2361  30.684  30.704   4.676
30746W        W 2362  43.011  44.003   2.683
30747W        W 2363  15.095  35.641   0.061
30748W        W 2364  21.726  25.385   2.283
30749W        W 2365  37.840  21.543  12.133
30750W        W 2366   7.864   2.515  10.705
30751W        W 2367  16.635  34.192  13.640
30752W        W 2368  43.286  20.249  14.289
30753W        W 2369  29.704   0.912   2.308
30754W        W 2370   0.926  34.884  11.154
30755W        W 2371  37.053  17.094   1.409
30756W        W 2372  36.406  32.581  11.991
30757W        W 2373   8.463   0.070  10.760
30758W        W 2374  35.448  40.569  14.865
30759W        W 2375  38.502   3.728   2.308
30760W        W 2376  22.170  35.666   3.093
30761W        W 2377  25.577  26.157   0.267
30762W        W 2378  24.149  29.363  14.296
30763W        W 2379  28.826  20.000   1.791
30764W        W 2380  15.220  42.835   1.218
30765W        W 2381  29.966   2.944   3.086
30766W        W 2382  31.441  15.330  14.848
30767W        W 2383  29.208  37.457  12.474
30768W        W 2384  17.711  38.042   0.637
30769W        W 2385  37.131  44.209   4.508
30770W        W 2386  34.474  13.291   3.681
30771W        W 2387  31.334  10.339   0.952
30772W        W 2388  42.559  11.713  10.760
30773W        W 2389  30.996  19.637   2.637
30774W        W 2390  33.638  38.400   1.236
30775W        W 2391   1.128  30.928   1.346
30776W        W 2392   6.335  17.279  10.589
30777W        W 2393  35.483  29.971   0.324
30778W        W 2394  32.899   7.775   1.846
30779W        W 2395  39.377  42.495  12.563
30780W        W 2396  41.505   5.442  11.063
30781W        W 2397  20.663  34.701  12.526
30782W        W 2398  10.118  44.967  10.433
30783W        W 2399   8.878  40.741  13.022
30784W        W 2400  23.422   7.153   0.750
30785W        W 2401  34.101   3.477   2.303
30786W        W 2402  39.054  27.576   0.508
30787W        W 2403  40.388  31.968  12.889
30788W        W 2404  10.653  44.760   4.554
30789W        W 2405  38.380  27.184  10.803
30790W        W 2406  44.457  25.984   1.761
30791W        W 2407  32.278   7.388  10.229
30792W        W 2408  28.858   0.270   0.574
30793W        W 2409   9.903  10.826  14.879
30794W        W 2410  44.935  33.964   3.058
30795W        W 2411   9.158  43.327  11.594
30796W        W 2412   0.744  13.537  11.536
30797W        W 2413   5.475  40.588  13.554
30798W        W 2414  17.459  14.303  12.583
30799W        W 2415   9.282   7.628   4.822
30800W        W 2416  19.726  20.664   2.098
30801W        W 2417  23.308  13.244   1.804
30802W        W 2418  41.468  27.453   2.209
30803W        W 2419  37.162  44.431   0.881
30804W        W 2420  18.285  21.289  12.943
30805W        W 2421  33.540  34.099  11.432
30806W        W 2422  13.544  15.592   5.022
30807W        W 2423  44.742  38.513   2.771
30808W        W 2424  12.646  33.899   3.849
30809W        W 2425   5.371  43.317  10.263
30810W        W 2426  21.167  35.059  12.145
30811W        W 2427  10.919  36.990   0.256
30812W        W 2428  14.745   4.358   4.447
30813W        W 2429  20.616   9.200   4.659
30814W        W 2430  17.879   3.348   3.092
30815W        W 2431  37.297  28.697   0.283
30816W        W 2432  23.104  31.199  11.202
30817W        W 2433  33.106  33.145  11.971
30818W        W 2434  31.935  44.771  11.842
30819W        W 2435  31.228   5.368  10.540
30820W        W 2436  23.617  32.133  13.467
30821W        W 2437  28.945  31.540  10.830
30822W        W 2438   5.243  42.427   2.322
30823W        W 2439  23.445  12.685   4.756
30824W        W 2440   3.899  27.007   2.622
30825W        W 2441  38.503   3.222   2.244
30826W        W 2442  12.592  19.133  14.769
30827W        W 2443   7.624  32.488  14.024
30828W        W 2444  24.684  33.002   3.183
30829W        W 2445  15.698  29.724   3.730
30830W        W 2446  29.436  30.063   4.240
30831W        W 2447  26.726  38.916  13.941
30832W        W 2448   6.961   6.826   0.417
30833W        W 2449  13.685  27.682  13.880
30834W        W 2450  32.640  12.863  11.555
30835W        W 2451  37.933   8.650  11.482
30836W        W 2452  36.080  26.182   0.439
30837W        W 2453  43.728  37.656  13.920
30838W        W 2454  21.270  22.104   3.426
30839W        W 2455  10.090  32.902  14.946
30840W        W 2456   6.519   8.886   1.416
30841W        W 2457  38.820  31.594   1.906
30842W        W 2458  14.047  17.196  14.969
30843W        W 2459   6.858  16.874   3.319
30844W        W 2460  23.986  26.949  12.434
30845W        W 2461  10.865  37.678   2.200
30846W        W 2462  36.946  26.997  12.119
30847W        W 2463  24.665  20.866   2.621
30848W        W 2464  43.319  23.114  12.619
30849W        W 2465  40.854  35.035  12.120
30850W        W 2466  25.354   6.142  12.003
30851W        W 2467  43.379  22.987  10.530
30852W        W 2468  12.337  38.943   0.734
30853W        W 2469  35.859  40.817   4.578
30854W        W 2470  24.922  14.137  11.072
30855W        W 2471  39.938  33.690  13.266
30856W        W 2472  37.889  12.178  13.272
30857W        W 2473   1.825  23.525   0.952
30858W        W 2474   4.960  30.621   1.298
30859W        W 2475  17.642   7.869  13.507
30860W        W 2476   7.683   9.166  12.895
30861W        W 2477  21.275  38.412  10.919
30862W        W 2478  14.314  29.807   3.705
30863W        W 2479   4.415  32.112  12.427
30864W        W 2480  33.099   8.592  10.652
30865W        W 2481  38.749  40.303   3.239
30866W        W 2482  11.586   5.289   4.218
30867W        W 2483  29.967  27.221   5.482
30868W        W 2484  28.955  25.166   3.646
30869W        W 2485  34.352   8.356  14.897
30870W        W 2486  10.905   2.995   0.134
30871W        W 2487  25.019   0.003  14.300
30872W        W 2488  20.982  39.469  13.373
30873W        W 2489  26.984  25.586   4.599
30874W        W 2490  29.567   8.859   3.060
30875W        W 2491  20.960  22.671   1.728
30876W        W 2492  15.233  35.933   4.933
30877W        W 2493  36.844  41.306   1.596
30878W        W 2494  18.694  26.513  10.685
30879W        W 2495  14.522  15.292  11.955
30880W        W 2496   3.819  28.121  10.050
30881W        W 2497  10.305  11.302  14.589
30882W        W 2498  41.734  29.443   4.556
30883W        W 2499  32.514  38.014   3.916
30884W        W 2500  26.097   8.425  12.453
30885W        W 2501  14.284  35.824   0.412
30886W        W 2502   0.666  11.538  11.452
30887W        W 2503   2.524  27.240  14.854
30888W        W 2504   2.446  34.802  14.954
30889W        W 2505  43.362  35.924   9.937
30890W        W 2506  15.650  24.259  11.949
30891W        W 2507  24.559  19.479  13.386
30892W        W 2508  20.602  40.265   0.842
30893W        W 2509  44.499  16.509  14.317
30894W        W 2510  17.984  21.692  12.282
30895W        W 2511   2.985  22.370   4.628
30896W        W 2512  28.855  10.784   1.883
30897W        W 2513  21.978  32.825   2.229
30898W        W 2514  16.242  40.114   4.519
30899W        W 2515  18.637  23.168  12.089
30900W        W 2516   7.307  12.040   4.457
30901W        W 2517  44.266   8.137   4.160
30902W        W 2518  11.199  38.173  13.578
30903W        W 2519   0.470  12.502  14.013
30904W        W 2520  16.052  42.335   0.402
30905W        W 2521  34.242  31.437  11.195
30906W        W 2522  18.339   5.679   0.022
30907W        W 2523  23.587   5.677   2.680
30908W        W 2524   5.449  19.614   1.889
30909W        W 2525   4.137  35.098  12.936
30910W        W 2526  28.793  15.567   0.120
30911W        W 2527  12.829  27.994  13.856
30912W        W 2528   3.440  44.786  13.071
30913W        W 2529  26.711  33.149   4.086
30914W        W 2530   3.410  44.413  10.952
30915W        W 2531  29.979  11.307   1.428
30916W        W 2532  27.032  35.437   4.197
30917W        W 2533  38.252  20.581   0.458
30918W        W 2534  10.517  25.341   3.652
30919W        W 2535  43.492   9.687  14.832
30920W        W 2536  34.052  19.956  12.530
30921W        W 2537  10.733  20.951  10.703
30922W        W 2538  39.904  44.688  14.002
30923W        W 2539  26.498   8.259   1.960
30924W        W 2540   2.267  30.123  11.479
30925W        W 2541  30.481  33.173   4.655
30926W        W 2542  38.369   6.278  11.665
30927W        W 2543  33.055  37.942   1.243
30928W        W 2544  32.426  25.021   4.059
30929W        W 2545  21.690  37.424   1.293
30930W        W 2546  31.118  18.819  13.327
30931W        W 2547  22.061  16.645  12.903
30932W        W 2548  39.071  28.192   2.350
30933W        W 2549   5.965  43.319   0.185
30934W        W 2550  15.116  15.084   5.587
30935W        W 2551   7.551  37.005   0.099
30936W        W 2552   8.812   3.989   4.170
30937W        W 2553  31.431  18.111  13.922
30938W        W 2554  26.352  27.358  12.816
30939W        W 2555  38.738  27.602  13.030
30940W        W 2556  12.820  23.015  14.856
30941W        W 2557  21.336  12.698   4.146
30942W        W 2558  27.688   3.928   2.918
30943W        W 2559  12.514  36.287  12.820
30944W        W 2560   9.348  38.805  12.013
30945W        W 2561  14.281  33.614  12.631
30946W        W 2562   4.861  19.647  11.105
30947W        W 2563   5.097   7.230  13.915
30948W        W 2564  23.454  13.150  10.857
30949W        W 2565  23.153  11.591  10.411
30950W        W 2566  31.893  12.836   0.865
30951W        W 2567  37.598  23.580   4.708
30952W        W 2568  33.967   7.601  13.316
30953W        W 2569  38.805  12.207   4.335
30954W        W 2570  21.807  24.137   4.079
30955W        W 2571  16.503  26.223  11.108
30956W        W 2572  35.891  38.469  14.788
30957W        W 2573   6.434  23.570   0.414
30958W        W 2574  17.426  12.873   1.297
30959W        W 2575  14.960  26.112   2.263
30960W        W 2576  34.638  16.706  13.747
30961W        W 2577   0.888  37.477  12.112
30962W        W 2578  26.591  21.979   2.704
30963W        W 2579  17.805  16.270   3.251
30964W        W 2580  34.137   7.217  11.125
30965W        W 2581   0.416   6.792   4.720
30966W        W 2582  33.191  15.709   1.433
30967W        W 2583  26.011  25.218   0.472
30968W        W 2584  28.502   7.867   1.747
30969W        W 2585  10.328  18.295  12.981
30970W        W 2586  42.761  37.118  10.845
30971W        W 2587  21.088  28.245  12.161
30972W        W 2588  37.532  31.123   1.050
30973W        W 2589  11.284  30.565  12.133
30974W        W 2590  43.904   7.487   1.793
30975W        W 2591  28.988  26.617  14.590
30976W        W 2592  13.277  42.236   4.566
30977W        W 2593   2.333   6.801   1.754
30978W        W 2594   5.483  15.294   0.948
30979W        W 2595   3.215  27.902   4.190
30980W        W 2596  23.275  12.272  12.101
30981W        W 2597  18.110  15.095  12.456
30982W        W 2598  10.249  24.409   1.355
30983W        W 2599  25.727  38.011  12.830
30984W        W 2600  43.724  18.347  11.615
30985W        W 2601  44.039  34.397   5.129
30986W        W 2602  15.594  38.546  12.106
30987W        W 2603  12.750  35.901   1.451
30988W        W 2604   1.419  30.613  11.416
30989W        W 2605  40.997  36.625   3.769
30990W        W 2606  42.960  35.734  10.919
30991W        W 2607  23.518  37.899   0.410
30992W        W 2608  40.797  43.351   3.839
30993W        W 2609  30.566  40.456  13.843
30994W        W 2610   1.244  21.757   4.119
30995W        W 2611  31.925  40.707   2.671
30996W        W 2612  37.422  17.163  14.098
30997W        W 2613   7.364  41.208   0.281
30998W        W 2614  18.113   2.320  10.739
30999W        W 2615  32.549  36.603  14.968
31000W        W 2616  39.544  44.417  11.909
31001W        W 2617  37.883  16.059   0.414
31002W        W 2618  44.817  38.633   5.382
31003W        W 2619  19.483  22.196   2.477
31004W        W 2620  18.121  23.768   3.269
31005W        W 2621  26.465   2.647  11.749
31006W        W 2622  29.102  35.596  11.063
31007W        W 2623   4.863  20.572  12.357
31008W        W 2624  40.971  28.116  14.932
31009W        W 2625  16.061  37.797  13.872
31010W        W 2626   4.296   9.429  14.967
31011W        W 2627  34.920   2.968   1.904
31012W        W 2628  22.487  43.471  11.126
31013W        W 2629  30.417  33.434  12.971
31014W        W 2630  13.667  20.899  10.700
31015W        W 2631  35.513  37.114   3.738
31016W        W 2632   6.473   9.134   4.368
31017W        W 2633  35.991   9.362   1.676
31018W        W 2634   3.329  27.374   3.138
31019W        W 2635   0.875  13.274   2.961
31020W        W 2636  20.996  11.355   0.795
31021W        W 2637  19.764  15.874  11.981
31022W        W 2638   6.760   2.971   2.776
31023W        W 2639  36.171  36.775  12.009
31024W        W 2640  41.942   9.268  14.780
31025W        W 2641  22.525  24.103  10.955
31026W        W 2642  43.756  27.884   1.883
31027W        W 2643  32.425  34.535  13.025
31028W        W 2644  43.856  44.757  14.321
31029W        W 2645  13.796   2.452   0.550
31030W        W 2646  22.328  11.680   3.736
31031W        W 2647  32.668  34.919  12.767
31032W        W 2648  42.014  39.396   3.744
31033W        W 2649  36.801  37.976  13.466
31034W        W 2650  21.785  34.882  12.056
31035W        W 2651  36.612  10.734   1.243
31036W        W 2652  40.373  28.532   1.447
31037W        W 2653  20.642  16.263   4.396
31038W        W 2654  16.646  11.648  14.750
31039W        W 2655  36.136   7.998   3.271
31040W        W 2656  10.612  22.284   0.395
31041W        W 2657  33.698  14.294   3.650
31042W        W 2658   8.712   2.313  14.827
31043W        W 2659  33.569  40.763   4.388
31044W        W 2660   6.733  22.707  12.125
31045W        W 2661  26.442  30.308  12.915
31046W        W 2662  13.453  35.924   2.506
31047W        W 2663  41.397   9.077  11.121
31048W        W 2664  11.883  11.880   3.645
31049W        W 2665  28.867  30.062  14.960
31050W        W 2666  26.524   6.702   3.536
31051W        W 2667  16.971  11.793   3.594
31052W        W 2668  27.123  37.816  13.087
31053W        W 2669  19.330  41.339  13.385
31054W        W 2670  21.634  15.585  11.118
31055W        W 2671  28.281  12.928  11.219
31056W        W 2672  17.329   8.466   4.862
31057W        W 2673   1.387  35.588   4.130
31058W        W 2674  19.586  44.731  10.964
31059W        W 2675  20.779   9.237   1.650
31060W        W 2676  24.283   2.818   2.654
31061W        W 2677   5.565  34.788  10.000
31062W        W 2678  34.851  13.127   2.390
31063W        W 2679   3.490  30.354  14.903
31064W        W 2680  39.998  10.488  14.537
31065W        W 2681  18.028  19.219  13.974
31066W        W 2682  32.264   9.784  11.494
31067W        W 2683  21.187  31.586   2.285
31068W        W 2684  23.641   8.301  13.821
31069W        W 2685  19.034  13.186   4.179
31070W        W 2686   4.495  43.355  10.194
31071W        W 2687  18.665  31.288  14.696
31072W        W 2688  43.136  27.457  11.113
31073W        W 2689  28.311  38.882  13.053
31074W        W 2690  28.432  17.764  14.318
31075W        W 2691  32.033  14.579   4.052
31076W        W 2692  42.084  23.573   4.902
31077W        W 2693  33.115  30.769  10.983
31078W        W 2694  37.059  40.430   0.535
31079W        W 2695  15.301  20.037   2.823
31080W        W 2696  34.640  39.220  14.906
31081W        W 2697  17.147  23.072  10.558
31082W        W 2698  16.739  15.748   4.971
31083W        W 2699  21.633  37.969  11.656
31084W        W 2700  37.464  11.122  12.075
31085W        W 2701   3.551  20.604  11.352
31086W        W 2702  42.064   3.327   3.716
31087W        W 2703  19.149  11.408   0.769
31088W        W 2704  29.528   4.212   3.351
31089W        W 2705   7.337  41.561  11.549
31090W        W 2706  32.886  39.400   4.112
31091W        W 2707  13.490  22.671   1.290
31092W        W 2708  25.604  13.827  10.616
31093W        W 2709  34.007   9.360  13.399
31094W        W 2710  32.822  32.609   3.059
31095W        W 2711   1.000  32.629  12.967
31096W        W 2712  21.433  32.070  13.912
31097W        W 2713  22.601  25.209   4.671
31098W        W 2714  35.326   7.824  12.565
31099W        W 2715  15.614   9.142   4.413
31100W        W 2716  37.364  30.361  11.865
31101W        W 2717  33.211   2.942  11.857
31102W        W 2718   8.194   4.297   1.923
31103W        W 2719  11.392  11.136  12.142
31104W        W 2720  20.165  29.634  13.117
31105W        W 2721  20.744  42.707  13.500
31106W        W 2722  12.310  30.889   0.240
31107W        W 2723  32.168   1.405  11.174
31108W        W 2724  38.039  21.210   0.983
31109W        W 2725  13.726  12.394   1.952
31110W        W 2726  39.764  39.892  11.982
31111W        W 2727  31.407   3.930  11.063
31112W        W 2728  18.020  19.782   2.742
31113W        W 2729  12.293  34.824   2.286
31114W        W 2730  36.264  38.469  11.536
31115W        W 2731   9.856  39.661  13.993
31116W        W 2732  40.028   0.056   2.825
31117W        W 2733  25.361   0.454  14.879
31118W        W 2734  23.945  23.183   2.740
31119W        W 2735  44.272  25.493  11.061
31120W        W 2736  12.756  36.158  14.733
31121W        W 2737  38.370  44.388  13.908
31122W        W 2738   2.858  22.963  11.115
31123W        W 2739  35.164  26.383   1.360
31124W        W 2740  15.855  10.733  14.503
31125W        W 2741  15.842  23.219   2.810
31126W        W 2742  21.288  21.162   2.760
31127W        W 2743   9.689  36.115  13.002
31128W        W 2744   0.421  30.407   4.872
31129W        W 2745  28.658  30.809   1.745
31130W        W 2746  13.895  30.881   5.125
31131W        W 2747  41.133  41.570   0.110
31132W        W 2748   8.872   7.384   2.397
31133W        W 2749  39.805   5.427  14.422
31134W        W 2750  19.662  41.441   3.277
31135W        W 2751  39.129   2.015  13.096
31136W        W 2752  11.317  38.642   3.236
31137W        W 2753  41.950  29.021   1.292
31138W        W 2754  20.402  39.285   2.774
31139W        W 2755  12.014  15.306   4.393
31140W        W 2756  23.139  42.801  14.207
31141W        W 2757  25.032  38.100   1.875
31142W        W 2758  37.936   1.262  10.737
31143W        W 2759  36.107  10.436  12.546
31144W        W 2760  20.598  43.370   3.727
31145W        W 2761  27.073  29.132  13.195
31146W        W 2762  42.037  37.849   3.244
31147W        W 2763   0.163  19.590  11.238
31148W        W 2764  32.039  27.933   5.479
31149W        W 2765  36.525   2.799   4.599
31150W        W 2766  38.715  44.738  10.645
31151W        W 2767  28.878  15.287  14.245
31152W        W 2768  15.564   7.671   0.568
31153W        W 2769  41.018  27.142  13.612
31154W        W 2770  39.472   7.177   0.504
31155W        W 2771   8.686  35.509   4.692
31156W        W 2772  37.384  26.722   1.100
31157W        W 2773   0.822   3.752   0.512
31158W        W 2774  14.735  25.111  12.050
31159W        W 2775  15.820  38.926   1.134
31160W        W 2776  40.103  19.742   3.860
31161W        W 2777  19.569  13.857   1.362
31162W        W 2778  10.906  17.183  10.340
31163W        W 2779  36.440  19.549  14.374
31164W        W 2780  14.820  24.540  12.625
31165W        W 2781  23.659  19.060  12.838
31166W        W 2782  31.422   2.238   1.226
31167W        W 2783  22.935  43.348   0.954
31168W        W 2784  31.894  43.506   9.707
31169W        W 2785  40.753  36.967   2.376
31170W        W 2786  37.244  12.998   5.237
31171W        W 2787   5.775  39.790  13.510
31172W        W 2788  41.289   8.502  12.482
31173W        W 2789  16.291  12.083  11.508
31174W        W 2790  17.593  29.228  10.991
31175W        W 2791   7.644  41.001  12.569
31176W        W 2792  32.425  39.497  10.662
31177W        W 2793   5.783  31.877  13.046
31178W        W 2794  15.762  35.846   3.225
31179W        W 2795  44.350  21.777  11.669
31180W        W 2796  24.057  22.676   2.786
31181W        W 2797   0.003  21.596   4.628
31182W        W 2798  43.297  13.722   4.438
31183W        W 2799  11.465  28.663   3.711
31184W        W 2800  17.680  23.434  13.525
31185W        W 2801   9.373  25.601   1.204
31186W        W 2802  31.595  14.273  13.955
31187W        W 2803   0.289   6.162   1.853
31188W        W 2804   0.834  29.549   4.509
31189W        W 2805  14.798   1.254  14.410
31190W        W 2806  38.558  10.894   2.186
31191W        W 2807  40.380  33.710   2.466
31192W        W 2808  43.811  10.108   0.547
31193W        W 2809  29.993  27.375  11.017
31194W        W 2810   6.120   9.478   0.900
31195W        W 2811   6.866  25.505  12.855
31196W        W 2812  31.638  31.723  13.321
31197W        W 2813   4.164  27.195   4.533
31198W        W 2814   8.340  43.480  12.653
31199W        W 2815  10.377  33.541  11.835
31200W        W 2816  33.449  41.139   4.712
31201W        W 2817  39.474  28.619   3.202
31202W        W 2818  41.427   9.602  11.131
31203W        W 2819  33.926  28.162  14.761
31204W        W 2820  15.796  17.180  12.440
31205W        W 2821  32.188  43.385  12.418
31206W        W 2822  26.601   4.184   3.406
31207W        W 2823  36.879   2.292   1.264
31208W        W 2824  20.580  12.318   3.669
31209W        W 2825   4.002  40.934   2.960
31210W        W 2826  20.938  25.572   3.170
31211W        W 2827  18.062  37.930   3.627
31212W        W 2828  27.499  40.035   3.332
31213W        W 2829  31.718  14.156  14.465
31214W        W 2830  39.516  33.445   3.303
31215W        W 2831  38.116   4.348  13.430
31216W        W 2832  42.428  42.954   3.865
31217W        W 2833  16.266  33.828  12.557
31218W        W 2834   0.568   7.737   4.920
31219W        W 2835   8.427  37.109  14.039
31220W        W 2836  29.141   9.200   3.796
31221W        W 2837  27.430  14.949   1.166
31222W        W 2838  16.104  29.358   3.664
31223W        W 2839  24.549   4.944   4.028
31224W        W 2840  22.559  18.784   2.836
31225W        W 2841  31.900   6.895  10.680
31226W        W 2842  10.376   1.841  10.384
31227W        W 2843  32.032  28.467   4.288
31228W        W 2844  18.673   1.031   5.156
31229W        W 2845  34.109   6.718  12.826
31230W        W 2846  20.753  11.118   1.821
31231W        W 2847  22.236  35.334  12.595
31232W        W 2848  25.045  21.648  11.665
31233W        W 2849  30.980  11.653   4.773
31234W        W 2850  44.295  15.067  10.889
31235W        W 2851  27.718  25.781   1.138
31236W        W 2852  34.967  33.415   4.082
31237W        W 2853  42.055  21.619   0.454
31238W        W 2854  12.377   3.684   0.201
31239W        W 2855   4.339  14.639  10.597
31240W        W 2856  36.572   1.992   3.724
31241W        W 2857  22.524  24.988  14.387
31242W        W 2858   0.385  11.439   1.674
31243W        W 2859  20.706  24.123   2.740
31244W        W 2860  17.836  36.611  10.714
31245W        W 2861  18.635   8.859   1.852
31246W        W 2862  38.614  18.517   0.274
31247W        W 2863  22.576   7.188   5.028
31248W        W 2864  11.873   4.409   3.040
31249W        W 2865  26.047  38.061   0.949
31250W        W 2866  24.155  27.069   1.136
31251W        W 2867  30.884  37.432   0.245
31252W        W 2868   6.774  32.541   3.818
31253W        W 2869  43.563  37.859   0.568
31254W        W 2870   6.779  19.824   2.394
31255W        W 2871  12.719  29.631   3.396
31256W        W 2872  37.634  36.061  12.326
31257W        W 2873   0.297  10.925  13.869
31258W        W 2874  25.045  20.411  12.851
31259W        W 2875  41.361   0.769  11.810
31260W        W 2876  26.056  40.365   3.772
31261W        W 2877  30.103   2.501   3.310
31262W        W 2878   0.736  12.207  13.151
31263W        W 2879  10.086  36.992  14.059
31264W        W 2880   0.605  17.651   4.702
31265W        W 2881   6.836  27.048  13.004
31266W        W 2882  42.932  16.299  13.615
31267W        W 2883  18.796  37.302  13.410
31268W        W 2884  26.535  11.565   3.639
31269W        W 2885  10.051  38.109  12.477
31270W        W 2886  27.433  13.120   0.678
31271W        W 2887   9.987   1.150  14.430
31272W        W 2888  23.541  37.521   2.717
31273W        W 2889  27.122  40.329   2.132
31274W        W 2890  34.765   6.400  10.987
31275W        W 2891  11.226  43.062  13.326
31276W        W 2892  17.529   0.439   0.017
31277W        W 2893  38.846  24.231  14.800
31278W        W 2894   9.824  24.886   4.581
31279W        W 2895  43.505  29.797  11.468
31280W        W 2896  11.173  16.537  11.928
31281W        W 2897  32.165  24.537  13.385
31282W        W 2898   5.880  14.697   4.582
31283W        W 2899  29.969   6.687   0.221
31284W        W 2900   2.905   5.537  12.296
31285W        W 2901  17.544  24.952  14.513
31286W        W 2902  43.506  29.525   0.933
31287W        W 2903  17.500   8.218   2.672
31288W        W 2904  29.037  40.618  12.086
31289W        W 2905  14.170  11.158   2.430
31290W        W 2906  21.460   2.450  11.192
31291W        W 2907  37.850   5.894  11.204
31292W        W 2908  23.577  21.005  13.925
31293W        W 2909  16.042   1.313  14.991
31294W        W 2910   0.778  41.526   2.866
31295W        W 2911   4.993  33.509  14.889
31296W        W 2912  21.264   4.863  12.495
31297W        W 2913  10.829  44.003  11.285
31298W        W 2914  30.142  42.510  14.972
31299W        W 2915  10.888  10.167  14.332
31300W        W 2916  20.997  32.070   2.337
31301W        W 2917  23.633  38.859  12.138
31302W        W 2918   0.738  38.615   2.744
31303W        W 2919   2.646   4.198  11.200
31304W        W 2920  10.638  15.392   3.558
31305W        W 2921   0.412  11.796   3.982
31306W        W 2922  38.326  27.166  10.290
31307W        W 2923  11.888  31.479   2.199
31308W        W 2924  20.690   1.837   0.451
31309W        W 2925  40.124  25.751   4.124
31310W        W 2926   7.804  41.268  13.559
31311W        W 2927  30.564  26.482   3.619
31312W        W 2928  36.597  24.910  10.497
31313W        W 2929  24.968   8.447   1.896
31314W        W 2930  13.754  29.705  13.440
31315W        W 2931  21.522  36.799   4.077
31316W        W 2932   4.385  43.531  12.511
31317W        W 2933   4.488  26.631  11.510
31318W        W 2934   9.525  15.725   2.943
31319W        W 2935  41.416  25.500  14.992
31320W        W 2936  44.550  28.964  11.614
31321W        W 2937   4.649  14.347   1.230
31322W        W 2938  22.238  28.474  12.051
31323W        W 2939  30.233  28.476  13.036
31324W        W 2940  31.512  38.388  11.972
31325W        W 2941  23.034  39.919  12.683
31326W        W 2942  37.907  17.077  11.542
31327W        W 2943   0.168   1.902   3.703
31328W        W 2944   5.621  21.160   2.271
31329W        W 2945   3.120  37.466   3.886
31330W        W 2946  31.485   1.969  14.994
31331W        W 2947  15.455  10.889  12.844
31332W        W 2948  43.326  32.108  14.814
31333W        W 2949   4.278   6.282   2.304
31334W        W 2950   4.333  31.173  12.081
31335W        W 2951  26.434  10.461   4.690
31336W        W 2952  33.549  19.827   3.827
31337W        W 2953  23.926  16.276  11.202
31338W        W 2954  34.040  36.061  10.894
31339W        W 2955  19.612   3.759  12.448
31340W        W 2956   3.171  25.440  13.715
31341W        W 2957  22.289  11.268   2.716
31342W        W 2958  40.317  31.668   4.862
31343W        W 2959  22.480  37.508  12.505
31344W        W 2960  31.612  44.556  12.164
31345W        W 2961   0.059  25.406  11.473
31346W        W 2962  31.103  18.418   2.178
31347W        W 2963  15.566  33.609   2.268
31348W        W 2964  15.126  38.519   1.625
31349W        W 2965  44.351  44.110   5.064
31350W        W 2966  29.490   2.892   3.710
31351W        W 2967  41.299  24.206   2.958
31352W        W 2968   5.166  42.576  12.550
31353W        W 2969  24.244  12.282   4.224
31354W        W 2970  19.112  24.759   0.339
31355W        W 2971  17.627  36.921  14.871
31356W        W 2972   0.127  28.274  13.080
31357W        W 2973   0.922   4.102  11.568
31358W        W 2974  36.024  42.001   0.445
31359W        W 2975  21.077  41.307  10.720
31360W        W 2976  10.387   1.503  11.445
31361W        W 2977  26.134  23.964   0.750
31362W        W 2978  37.510  14.280   1.889
31363W        W 2979  17.953  30.513   1.678
31364W        W 2980  37.028   2.722   0.441
31365W        W 2981  25.121  32.406   1.955
31366W        W 2982  25.027  22.559  10.647
31367W        W 2983   1.806  42.803  10.551
31368W        W 2984  12.812  18.543   4.728
31369W        W 2985   2.447  22.334  12.090
31370W        W 2986  23.808  20.172   1.160
31371W        W 2987   7.169  24.718   2.101
31372W        W 2988  17.208   1.254  10.864
31373W        W 2989   2.947  31.408   1.390
31374W        W 2990   7.378  27.141   4.583
31375W        W 2991  32.356  41.783  12.081
31376W        W 2992  14.344  27.737  12.575
31377W        W 2993   5.246  35.117   4.104
31378W        W 2994   9.280  39.004   1.888
31379W        W 2995   1.708  24.942   1.116
31380W        W 2996  28.702  38.354   1.296
31381W        W 2997   8.836   3.989   2.095
31382W        W 2998  44.965   2.404   3.673
31383W        W 2999  35.363  20.161   4.053
31384W        W 3000  26.133  24.854  12.126
31385W        W 3001  44.831  11.742  10.627
31386W        W 3002  10.673  34.957   1.911
31387W        W 3003  14.245  16.954  12.788
31388W        W 3004  35.219  38.989   0.880
31389W        W 3005  33.379  18.121  12.117
31390W        W 3006   3.272  19.348  14.974
31391W        W 3007  19.221  31.135  11.174
31392W        W 3008  21.058   1.983   3.839
31393W        W 3009   4.764  20.679  11.874
31394W        W 3010  40.610  37.479   2.269
31395W        W 3011  34.054  12.230   2.320
31396W        W 3012  24.059   4.838   2.421
31397W        W 3013  23.143  17.623   3.826
31398W        W 3014  17.386  18.284  11.630
31399W        W 3015  41.934  19.453   3.561
31400W        W 3016   0.688   6.769  13.623
31401W        W 3017  44.710  10.146  11.060
31402W        W 3018  19.225  37.536  13.633
31403W        W 3019  30.391  18.524  11.145
31404W        W 3020   3.924  33.211  13.966
31405W        W 3021  14.904  15.380  14.368
31406W        W 3022   9.149  21.296   4.232
31407W        W 3023  34.063  15.780  10.629
31408W        W 3024  41.565  39.434   0.328
31409W        W 3025  31.772  32.234  13.319
31410W        W 3026  21.464   4.997  12.997
31411W        W 3027  32.017  24.069  14.998
31412W        W 3028  43.574  24.552   0.471
31413W        W 3029  41.104  13.367   1.243
31414W        W 3030  44.031  25.362  11.530
31415W        W 3031  13.134  24.982  12.445
31416W        W 3032   6.927  14.226  11.252
31417W        W 3033   1.263  41.775  11.964
31418W        W 3034  22.601  12.840  12.491
31419W        W 3035  19.783  36.544   0.801
31420W        W 3036   8.574  30.142  11.177
31421W        W 3037  34.072   0.783  14.040
31422W        W 3038  37.539  26.637   1.588
31423W        W 3039  31.392  19.605   1.528
31424W        W 3040   6.269   0.220  12.368
31425W        W 3041  24.568   0.529  14.874
31426W        W 3042  30.144  42.067  13.742
31427W        W 3043  30.184  24.276   1.162
31428W        W 3044  38.471   9.590   5.663
31429W        W 3045   4.780  35.299   0.960
31430W        W 3046  11.375   4.867  12.461
31431W        W 3047  44.941  38.851  14.416
31432W        W 3048  13.385  38.587  11.181
31433W        W 3049   9.254  28.623   4.660
31434W        W 3050  30.152   3.563   1.295
31435W        W 3051  35.051  25.444   2.796
31436W        W 3052  16.527  19.171   2.420
31437W        W 3053  31.932  21.064   4.170
31438W        W 3054  17.013  38.922  11.195
31439W        W 3055   9.698  30.618   0.115
31440W        W 3056  10.969  37.186   5.035
31441W        W 3057  28.706   9.437  13.414
31442W        W 3058  29.913  11.826   4.552
31443W        W 3059  41.500  39.553  14.427
31444W        W 3060  33.877  42.468  10.884
31445W        W 3061  35.471  22.151  11.681
31446W        W 3062   2.003  31.792   1.904
31447W        W 3063  34.565  18.557  12.850
31448W        W 3064  21.457  33.659   1.737
31449W        W 3065  44.755   3.268  14.857
31450W        W 3066  41.799   1.876   1.747
31451W        W 3067  23.594  29.957   3.538
31452W        W 3068   3.591  30.404   4.154
31453W        W 3069   1.711  21.591   2.957
31454W        W 3070   8.304   5.353   0.450
31455W        W 3071   1.454  29.677   3.612
31456W        W 3072  25.663  15.130  13.860
31457W        W 3073   9.242  24.239   0.716
31458W        W 3074  22.733  19.705   4.856
31459W        W 3075  24.676  15.124   3.761
31460W        W 3076  38.929  32.126  11.964
31461W        W 3077  37.510  37.838   2.094
31462W        W 3078  23.703  19.770   0.293
31463W        W 3079  29.062  37.413   4.666
31464W        W 3080  18.522  23.716  12.072
31465W        W 3081  26.077   6.891  12.433
31466W        W 3082   2.126  44.870   0.268
31467W        W 3083  10.704  23.270   0.445
31468W        W 3084  30.971  41.918  13.850
31469W        W 3085  14.205  35.951   3.264
31470W        W 3086  37.609  22.081  11.132
31471W        W 3087  28.943  21.741  13.330
31472W        W 3088  10.663   4.249  14.111
31473W        W 3089   0.455   9.859   2.992
31474W        W 3090  18.073  33.118  12.493
31475W        W 3091   2.542  14.794  11.107
31476W        W 3092  13.870  15.526   3.172
31477W        W 3093  31.436  41.572   0.963
31478W        W 3094  40.291   3.782  10.721
31479W        W 3095  35.871  10.989  13.024
31480W        W 3096  31.874  24.878  12.463
31481W        W 3097  20.465  11.617   0.511
31482W        W 3098  10.614  25.500  13.479
31483W        W 3099   9.220  25.263  12.476
31484W        W 3100  16.740   3.361   0.236
31485W        W 3101   5.254  30.817   3.283
31486W        W 3102  36.561  38.029  11.545
31487W        W 3103  22.292   2.455   3.627
31488W        W 3104   3.283  27.270  14.430
31489W        W 3105  27.107  18.396   4.917
31490W        W 3106  35.592   6.968  13.877
31491W        W 3107   5.257  40.562   1.699
31492W        W 3108  17.725  29.984   2.828
31493W        W 3109   6.142  23.386  10.756
31494W        W 3110  18.291  34.575  13.938
31495W        W 3111  11.616  32.123  10.677
31496W        W 3112   3.800   6.900  12.082
31497W        W 3113  33.383   9.320  14.812
31498W        W 3114  43.925  16.104  12.161
31499W        W 3115  18.897  35.167  14.470
31500W        W 3116  41.365   8.942   3.228
31501W        W 3117  20.159  10.653   1.929
31502W        W 3118  31.989   2.710   0.789
31503W        W 3119   9.731  23.254  11.061
31504W        W 3120  17.574   8.626   0.887
31505W        W 3121  32.126  28.178  11.548
31506W        W 3122  23.559  42.082   4.626
31507W        W 3123  21.709  44.639   4.172
31508W        W 3124  40.811  21.489  14.263
31509W        W 3125  41.749  34.574  10.990
31510W        W 3126  21.217  37.536   2.422
31511W        W 3127  30.098   2.829  11.572
31512W        W 3128  15.538   5.218  11.524
31513W        W 3129  10.716   5.810   3.143
31514W        W 3130   0.742  11.280   0.920
31515W        W 3131   0.877  37.997  11.964
31516W        W 3132  44.126  14.711  14.793
31517W        W 3133  27.505   2.978   2.893
31518W        W 3134   9.192   6.392   2.219
31519W        W 3135  38.279  35.386   1.677
31520W        W 3136  42.782  33.684   4.219
31521W        W 3137  11.287  11.697  12.001
31522W        W 3138  18.592  35.870  10.721
31523W        W 3139  19.297  33.008  11.202
31524W        W 3140  35.253   8.322  13.376
31525W        W 3141  41.503  12.171   0.894
31526W        W 3142   3.347  12.794   3.346
31527W        W 3143  26.459  37.425   3.166
31528W        W 3144  26.975  20.442   3.604
31529W        W 3145   7.379  14.851   0.154
31530W        W 3146  35.038  12.372   3.218
31531W        W 3147  28.548  10.086   1.405
31532W        W 3148   0.755   1.198   5.046
31533W        W 3149   2.171  30.925   1.040
31534W        W 3150  26.633  21.527   0.378
31535W        W 3151   3.350   1.261  14.306
31536W        W 3152   3.694   9.714   3.647
31537W        W 3153  32.976   2.640   4.321
31538W        W 3154  24.768  10.644   2.921
31539W        W 3155   7.903  10.126   2.883
31540W        W 3156  10.781  34.961   0.499
31541W        W 3157   1.001  16.594  11.221
31542W        W 3158  42.039  35.517  10.378
31543W        W 3159  36.877  36.842   4.737
31544W        W 3160  36.597   4.845   0.971
31545W        W 3161  23.168  22.684   3.425
31546W        W 3162  42.539  24.130  13.448
31547W        W 3163  24.331   7.678   2.787
31548W        W 3164  19.785  41.426  14.478
31549W        W 3165   2.134  24.138  12.606
31550W        W 3166  44.901  36.016   4.154
31551W        W 3167   9.460  21.191   4.637
31552W        W 3168  34.427   9.199  10.687
31553W        W 3169  24.527  17.258  12.662
31554W        W 3170  10.742  19.181  12.433
31555W        W 3171  34.752  28.767   4.244
31556W        W 3172  18.810   6.546   2.946
31557W        W 3173   7.834  17.807  10.407
31558W        W 3174  10.199  15.744  13.247
31559W        W 3175  31.674  44.809  11.391
31560W        W 3176  27.952   6.459  14.388
31561W        W 3177  21.914  41.280   4.202
31562W        W 3178  19.542  25.137   1.573
31563W        W 3179  37.853  39.776   1.831
31564W        W 3180   4.357  12.747  14.873
31565W        W 3181  37.165  17.564  14.964
31566W        W 3182   0.480   2.262   3.087
31567W        W 3183  26.041   6.234   1.041
31568W        W 3184  37.061  18.415   1.737
31569W        W 3185  43.714  16.332   4.562
31570W        W 3186  37.608  21.503   1.111
31571W        W 3187  38.973  35.423   0.012
31572W        W 3188  27.405   9.798  13.805
31573W        W 3189  38.989   2.197   2.780
31574W        W 3190   4.933  38.609   4.853
31575W        W 3191  41.522  18.097  11.632
31576W        W 3192  18.223   9.883  12.264
31577W        W 3193  26.299   6.723  13.151
31578W        W 3194  34.102  34.543   0.407
31579W        W 3195  27.563  30.919   3.317
31580W        W 3196  32.360   4.029  13.727
31581W        W 3197  11.379  14.335  13.358
31582W        W 3198  36.120  18.559  12.492
31583W        W 3199   3.364  36.492   4.591
31584W        W 3200  19.313   5.995  11.848
31585W        W 3201  41.840   9.927   1.827
31586W        W 3202  34.642   1.492   4.209
31587W        W 3203  15.892  42.910  14.405
31588W        W 3204  42.311   7.833  14.170
31589W        W 3205  40.310  15.064   4.107
31590W        W 3206  24.690   4.441   1.405
31591W        W 3207  10.137  41.498   0.167
31592W        W 3208  28.530  25.990  10.946
31593W        W 3209  29.973   6.847   2.882
31594W        W 3210  16.863   3.374   3.026
31595W        W 3211  33.076   8.573  11.546
31596W        W 3212   5.259  11.696   1.337
31597W        W 3213  20.124  10.640   0.570
31598W        W 3214  32.633  32.343   1.850
31599W        W 3215  16.385  37.636   3.046
31600W        W 3216   7.686  19.742  10.740
31601W        W 3217  27.225  25.683   0.942
31602W        W 3218  13.339  29.473  10.488
31603W        W 3219   3.143  33.696  14.794
31604W        W 3220   9.879  44.760  11.653
31605W        W 3221   0.894   0.489  12.692
31606W        W 3222  43.953  33.068  13.557
31607W        W 3223  27.424  17.770   1.737
31608W        W 3224  31.008  25.138   4.992
31609W        W 3225  17.792  40.057   1.238
31610W        W 3226  32.938   9.130   0.625
31611W        W 3227  26.681  38.529  13.605
31612W        W 3228  31.312  30.576  11.899
31613W        W 3229  39.269  38.309  14.653
31614W        W 3230  21.224   5.344   4.517
31615W        W 3231   5.773   4.713  10.591
31616W        W 3232   3.048  30.970  11.548
31617W        W 3233  31.386   0.228  11.401
31618W        W 3234   4.670  22.631  12.126
31619W        W 3235  13.970   5.711   5.008
31620W        W 3236   6.435  27.873   0.360
31621W        W 3237  43.814   9.175  11.659
31622W        W 3238  12.611  24.112   2.766
31623W        W 3239  23.985   5.038   1.057
31624W        W 3240   5.997  28.912   1.807
31625W        W 3241  28.970  41.326   3.373
31626W        W 3242  42.009  33.932   4.237
31627W        W 3243  29.469  27.945   0.877
31628W        W 3244  43.284  39.046   1.203
31629W        W 3245   7.824  35.320  11.995
31630W        W 3246  39.011   9.786   4.032
31631W        W 3247  17.306  18.755  12.922
31632W        W 3248  25.790  31.408  14.429
31633W        W 3249  11.614  28.017   0.178
31634W        W 3250  39.578  11.341  11.073
31635W        W 3251  27.746  42.125   1.903
31636W        W 3252  40.846  34.408   2.663
31637W        W 3253  14.423  32.038  13.436
31638W        W 3254   1.797  21.277   1.210
31639W        W 3255  35.934  37.587  11.032
31640W        W 3256  21.755   4.805  12.344
31641W        W 3257  29.666  13.617   4.090
31642W        W 3258   5.033   9.172  13.970
31643W        W 3259  38.473  38.590   0.122
31644W        W 3260  14.710  22.655   2.116
31645W        W 3261  20.064  26.293   3.039
31646W        W 3262   2.413   5.997   4.885
31647W        W 3263  17.330  35.073  12.743
31648W        W 3264  32.526  28.607  14.649
31649W        W 3265   0.003  34.556   2.333
31650W        W 3266  25.409  43.482   4.166
31651W        W 3267  43.240   9.213   0.882
31652W        W 3268  32.648  25.240   0.832
31653W        W 3269  24.246  36.812   0.413
31654W        W 3270  26.189  23.216   3.665
31655W        W 3271  14.217  31.024  13.645
31656W        W 3272  36.447   6.403  11.179
31657W        W 3273  32.792  21.566  11.434
31658W        W 3274  44.779  13.767  14.786
31659W        W 3275  31.465   0.534  11.005
31660W        W 3276  43.989  23.830   2.623
31661W        W 3277  37.857  16.973   5.160
31662W        W 3278  23.780  27.532  14.881
31663W        W 3279  44.698  32.983   3.730
31664W        W 3280  21.192  22.186   1.983
31665W        W 3281  29.683  24.464  12.162
31666W        W 3282   2.689  12.550  12.371
31667W        W 3283  29.564  36.791  11.520
31668W        W 3284  31.994  25.207  12.068
31669W        W 3285  27.561  20.474  12.381
31670W        W 3286  17.812   8.169   0.982
31671W        W 3287  31.027  35.548   1.728
31672W        W 3288  30.720  31.513   4.131
31673W        W 3289  22.332  19.069   1.387
31674W        W 3290  44.448  39.794   1.789
31675W        W 3291   8.195  20.310  14.306
31676W        W 3292   2.962  21.751   2.007
31677W        W 3293  35.866  22.516  13.747
31678W        W 3294  33.086  30.608   1.193
31679W        W 3295  24.807  36.052   0.490
31680W        W 3296  37.309  17.750   4.103
31681W        W 3297   9.734  35.855   4.350
31682W        W 3298  19.288  11.324   1.272
31683W        W 3299  43.534   8.295   2.698
31684W        W 3300   4.828  25.803  10.234
31685W        W 3301  30.886  30.904   1.036
31686W        W 3302  30.506  25.233   1.831
31687W        W 3303  27.039  16.023   2.684
31688W        W 3304  14.943  41.991   3.965
31689W        W 3305  32.600   0.465  10.708
31690W        W 3306  43.183  39.490  11.151
31691W        W 3307  11.413  29.368  13.273
31692W        W 3308   4.478  37.382   0.072
31693W        W 3309  12.208  16.181   4.150
31694W        W 3310  36.583  33.609  11.183
31695W        W 3311  15.839  42.925   3.814
31696W        W 3312  29.130  23.586  14.750
31697W        W 3313  42.752  26.573   3.859
31698W        W 3314  22.715  24.751   2.371
31699W        W 3315  11.172  19.169  13.406
31700W        W 3316   2.312  40.433   3.744
31701W        W 3317  41.547  33.042   4.220
31702W        W 3318  40.272   9.775   2.702
31703W        W 3319   1.484   1.853  13.383
31704W        W 3320  32.395  15.111   3.031
31705W        W 3321  43.979  32.145   4.122
31706W        W 3322   1.476  27.074   0.739
31707W        W 3323  15.048  33.150  12.688
31708W        W 3324  33.307  23.773  13.240
31709W        W 3325  18.114  21.020  14.314
31710W        W 3326  35.590  25.178   4.188
31711W        W 3327  11.374   9.305  12.815
31712W        W 3328  11.311  25.649   1.352
31713W        W 3329  34.565  27.030   1.733
31714W        W 3330  35.029  31.851   1.786
31715W        W 3331  16.287  30.383   3.752
31716W        W 3332  43.058  15.350   4.035
31717W        W 3333  40.910  42.694  14.271
31718W        W 3334  24.632   8.185  13.245
31719W        W 3335  43.825  12.078   1.790
31720W        W 3336   4.300  34.312  14.477
31721W        W 3337  42.564  35.393  12.206
31722W        W 3338  20.346  35.802   0.914
31723W        W 3339  16.788  24.896  11.561
31724W        W 3340   0.204  20.682  11.935
31725W        W 3341  26.567   3.754  11.055
31726W        W 3342  37.010   6.701  14.388
31727W        W 3343  24.071  14.606  12.429
31728W        W 3344   0.243  21.526   3.204
31729W        W 3345  36.948  44.539   2.320
31730W        W 3346  42.178  37.381   5.049
31731W        W 3347  19.453  38.789   0.677
31732W        W 3348  32.586  43.848  13.042
31733W        W 3349  15.856  42.764  10.834
31734W        W 3350  19.615  22.624  11.090
31735W        W 3351   4.309  21.953   2.999
31736W        W 3352  10.151   3.714   4.173
31737W        W 3353  14.197  33.435   0.511
31738W        W 3354  30.247  22.092   1.826
31739W        W 3355   7.283  42.945  14.776
31740W        W 3356  36.044  25.489  14.851
31741W        W 3357  30.470  27.153  11.179
31742W        W 3358  19.811   4.799   2.652
31743W        W 3359   8.914  33.927   2.615
31744W        W 3360  15.008  21.046   1.849
31745W        W 3361  24.589   1.009  14.673
31746W        W 3362  40.509  21.500  14.723
31747W        W 3363  23.851  38.030  12.517
31748W        W 3364  34.910  24.655   2.421
31749W        W 3365   7.727  10.756   3.590
31750W        W 3366  11.814   1.015   4.144
31751W        W 3367   7.745  10.333  10.705
31752W        W 3368  44.185   5.839  12.010
31753W        W 3369  10.735  25.707   0.666
31754W        W 3370  32.386   1.924  14.959
31755W        W 3371  26.111  33.010   0.289
31756W        W 3372   2.311  26.301   1.796
31757W        W 3373  22.728  34.550   2.749
31758W        W 3374  23.428  19.519   0.673
31759W        W 3375  27.503  30.417   4.293
31760W        W 3376   8.875   5.846  12.388
31761W        W 3377  41.866   8.001  11.850
31762W        W 3378  29.524  10.241  12.482
31763W        W 3379  19.450   9.138   1.226
31764W        W 3380  24.412  41.312  10.773
31765W        W 3381   2.333  22.236   4.218
31766W        W 3382   9.724  23.478  14.264
31767W        W 3383  24.637   5.864   3.872
31768W        W 3384  42.773  24.115  14.824
31769W        W 3385  19.602  23.644  12.875
31770W        W 3386  37.879  21.510   4.362
31771W        W 3387  33.533  11.304   4.843
31772W        W 3388  26.564  23.961   0.475
31773W        W 3389   0.840  15.776  14.377
31774W        W 3390  14.464   5.325   1.168
31775W        W 3391   8.038  23.665   3.187
31776W        W 3392  27.584  42.304   1.405
31777W        W 3393  26.097  28.077  11.104
31778W        W 3394  28.007   5.571  12.097
31779W        W 3395  10.266  16.715  12.565
31780W        W 3396  34.343  13.186   2.344
31781W        W 3397  42.428  26.691  11.795
31782W        W 3398  38.987  36.911  11.166
31783W        W 3399  15.683  42.362  12.337
31784W        W 3400  42.283  12.596  11.624
31785W        W 3401  16.636  21.719   1.479
31786W        W 3402  26.001  36.451   1.744
31787W        W 3403  13.720  38.616  14.119
31788W        W 3404  42.832  40.116   0.479
31789W        W 3405  29.370   0.412  14.062
31790W        W 3406   8.779  33.547   1.618
31791W        W 3407  11.040  32.715  13.362
31792W        W 3408  23.439  11.873   1.861
31793W        W 3409  12.508  12.008  12.082
31794W        W 3410  24.626  30.657   1.760
31795W        W 3411  26.450  38.934   5.067
31796W        W 3412  12.585  28.472  11.232
31797W        W 3413  15.429   7.886  12.865
31798W        W 3414  35.953   6.622   0.034
31799W        W 3415  36.009  44.222   3.257
31800W        W 3416  26.464  11.976   4.561
31801W        W 3417  16.413  17.155   1.809
31802W        W 3418  11.774  15.044  10.790
31803W        W 3419   4.270  42.912   3.633
31804W        W 3420  31.897  38.615   3.917
31805W        W 3421  15.800  15.347   0.451
31806W        W 3422   3.941   4.728  10.342
31807W        W 3423  11.174  19.521  13.801
31808W        W 3424  24.764  26.677  14.330
31809W        W 3425  44.850  26.302  13.892
31810W        W 3426  11.239  19.199   3.082
31811W        W 3427  23.951   7.378   2.997
31812W        W 3428  17.990  25.233   3.241
31813W        W 3429  27.104  40.875  14.312
31814W        W 3430  44.073  16.845  14.777
31815W        W 3431  24.028  32.134   3.238
31816W        W 3432  11.600  41.038  11.664
31817W        W 3433  18.151  29.417   2.288
31818W        W 3434   1.329  41.388   1.429
31819W        W 3435  15.298  37.482  14.862
31820W        W 3436  22.457  17.882  14.323
31821W        W 3437  13.890  28.114   2.295
31822W        W 3438   6.796  28.050   3.574
31823W        W 3439  16.256  23.151  11.910
31824W        W 3440   9.553  30.149  11.203
31825W        W 3441   6.764  34.001   2.397
31826W        W 3442  44.013  24.697  13.065
31827W        W 3443  28.484  23.628   1.457
31828W        W 3444  34.624  24.693  12.443
31829W        W 3445  44.741  11.419   0.434
31830W        W 3446   9.140  39.443  11.113
31831W        W 3447   0.522  27.960  14.217
31832W        W 3448  32.617   3.254   4.759
31833W        W 3449   6.740   9.407   2.242
31834W        W 3450   0.497   2.633   4.419
31835W        W 3451   4.733  22.042  10.390
31836W        W 3452   4.281   0.987   4.628
31837W        W 3453  29.191  32.946   1.275
31838W        W 3454   1.478  32.535   1.917
31839W        W 3455   0.104   0.345   4.202
31840W        W 3456  44.653   6.807   4.742
31841W        W 3457  21.108  40.032   3.688
31842W        W 3458  38.993  15.753   1.231
31843W        W 3459  19.141  22.768   0.498
31844W        W 3460   1.312   4.164  12.517
31845W        W 3461  23.558  27.221  13.580
31846W        W 3462   1.829  39.538   4.852
31847W        W 3463   0.709  22.564  13.426
31848W        W 3464  43.407  19.151   0.931
31849W        W 3465   7.853  19.243  10.676
31850W        W 3466  29.062   4.931  11.047
31851W        W 3467  42.369  27.631   1.976
31852W        W 3468  23.772  42.889  11.200
31853W        W 3469  31.598   1.314   5.512
31854W        W 3470  40.106  37.606   2.225
31855W        W 3471  30.591  14.189  11.765
31856W        W 3472  12.222  39.370   0.462
31857W        W 3473  10.131  31.544   3.516
31858W        W 3474  28.099  22.896  13.783
31859W        W 3475  28.940  21.200  13.947
31860W        W 3476  22.598  34.950  14.189
31861W        W 3477  37.508  11.300   0.799
31862W        W 3478   3.295   8.926  12.626
31863W        W 3479  33.424   3.006  12.328
31864W        W 3480  12.355  26.202   0.351
31865W        W 3481  14.189  24.129   4.044
31866W        W 3482  21.716  31.042  11.657
31867W        W 3483  11.847  18.641   2.427
31868W        W 3484  38.555  22.006   3.389
31869W        W 3485  29.259  37.451  10.190
31870W        W 3486  10.076   9.757   2.858
31871W        W 3487  37.828   3.527   4.959
31872W        W 3488  43.014  32.571  14.841
31873W        W 3489  42.478  29.992  12.331
31874W        W 3490   0.644  15.855   2.822
31875W        W 3491  14.369  30.611  10.606
31876W        W 3492   2.413  30.411   3.603
31877W        W 3493  16.655   5.347   2.625
31878W        W 3494  28.849  23.543  12.914
31879W        W 3495  18.340  43.835   2.717
31880W        W 3496  37.021  13.215   2.812
31881W        W 3497  37.362  39.633   3.180
31882W        W 3498  23.760  19.570   2.581
31883W        W 3499  24.498  14.555  12.147
31884W        W 3500  43.382   5.132   0.301
31885W        W 3501  24.243   7.848   4.195
31886W        W 3502  21.842  11.633   4.503
31887W        W 3503  38.972  19.223   3.348
31888W        W 3504  40.468  39.409  11.802
31889W        W 3505  10.887  28.953  12.573
31890W        W 3506   4.584  27.677   2.792
31891W        W 3507  30.527  22.639  11.115
31892W        W 3508  32.079   9.930  10.171
31893W        W 3509  13.683  24.234   1.391
31894W        W 3510  14.788  36.466  13.435
31895W        W 3511  10.664   9.729   1.429
31896W        W 3512   5.174  44.497  12.982
31897W        W 3513  31.149  40.789   4.884
31898W        W 3514  12.790  36.520  11.512
31899W        W 3515  29.844  36.654   1.281
31900W        W 3516  20.788  24.285  14.334
31901W        W 3517   6.531  21.748  13.523
31902W        W 3518   8.047  38.296  11.311
31903W        W 3519  11.135  12.895  12.485
31904W        W 3520  33.351   7.160   0.316
31905W        W 3521  24.739  34.154  12.873
31906W        W 3522   0.059   4.830   9.960
31907W        W 3523  17.253  35.793  13.835
31908W        W 3524  10.281  41.782  10.578
31909W        W 3525  24.614   6.432   4.236
31910W        W 3526  30.096  42.539   3.805
31911W        W 3527  19.772   6.107  12.845
31912W        W 3528   6.447  31.249  13.394
31913W        W 3529  16.147   4.135  11.959
31914W        W 3530   0.952  21.259   2.260
31915W        W 3531  20.335  35.157   4.282
31916W        W 3532  33.045  16.346  10.578
31917W        W 3533  27.542  42.738   4.022
31918W        W 3534   3.390  36.348   0.252
31919W        W 3535  37.900  43.346  14.933
31920W        W 3536  24.959  15.112   0.282
31921W        W 3537  14.269  21.194  13.511
31922W        W 3538   2.704  29.095  11.659
31923W        W 3539  30.185  18.001   0.883
31924W        W 3540  32.904  42.408   1.407
31925W        W 3541  43.523  11.151   1.578
31926W        W 3542   0.707  31.458  14.935
31927W        W 3543   3.718   2.875  11.281
31928W        W 3544  20.955  32.939   0.500
31929W        W 3545   4.349  27.815  12.360
31930W        W 3546  16.081  20.536  12.862
31931W        W 3547  29.808   1.568  10.855
31932W        W 3548  40.949  34.473   4.608
31933W        W 3549  41.454   9.764  13.819
31934W        W 3550  41.079  40.891   2.307
31935W        W 3551  41.495  14.045   0.928
31936W        W 3552  36.319  35.040   2.378
31937W        W 3553  12.123  23.067  10.917
31938W        W 3554  36.283   5.672  11.620
31939W        W 3555   0.444  13.393  10.679
31940W        W 3556  35.864  44.880   2.723
31941W        W 3557  28.721   4.297  11.273
31942W        W 3558  25.247  35.117   2.876
31943W        W 3559   8.712  10.339   0.839
31944W        W 3560  33.851  32.384   1.337
31945W        W 3561   4.060  41.523   0.866
31946W        W 3562  19.585  44.540   4.782
31947W        W 3563  41.319   3.916  12.892
31948W        W 3564  14.667  44.899  12.195
31949W        W 3565   3.398   7.213  11.963
31950W        W 3566  12.928  35.642   3.788
31951W        W 3567  44.323  37.672   0.823
31952W        W 3568  23.022  20.008   2.327
31953W        W 3569  19.129  12.142  10.430
31954W        W 3570  23.204  20.528   1.426
31955W        W 3571  30.797  26.866  12.071
31956W        W 3572  12.736  43.329   0.416
31957W        W 3573   2.464  38.919   3.325
31958W        W 3574  23.323   0.553   0.282
31959W        W 3575  42.884  30.609   0.938
31960W        W 3576  29.265  14.663  11.116
31961W        W 3577   8.723  21.215   3.633
31962W        W 3578  43.932  36.070  13.902
31963W        W 3579  28.520  40.972  10.829
31964W        W 3580  17.726  21.282   0.441
31965W        W 3581  40.115  16.631   3.135
31966W        W 3582   2.666  35.068   2.264
31967W        W 3583   0.037  28.122  12.583
31968W        W 3584  25.427   1.821   3.528
31969W        W 3585  12.691  13.363  13.797
31970W        W 3586  11.367  36.974  10.590
31971W        W 3587  44.324  16.886   4.618
31972W        W 3588  16.031  15.154  13.569
31973W        W 3589  21.009  21.720   1.794
31974W        W 3590  23.082  27.714   0.503
31975W        W 3591  11.860  13.189  10.549
31976W        W 3592  37.149   0.152  12.669
31977W        W 3593  25.551  29.479  14.742
31978W        W 3594   3.328  35.518  11.158
31979W        W 3595  31.262   6.697   2.747
31980W        W 3596  29.175  23.220  12.154
31981W        W 3597  23.165   0.159  13.495
31982W        W 3598  24.090  17.256   2.879
31983W        W 3599   1.574  23.332  14.524
31984W        W 3600  16.673   3.386  13.666
31985W        W 3601  38.194  34.527  10.168
31986W        W 3602   8.820   2.244   1.704
31987W        W 3603  41.926  12.315   4.516
31988W        W 3604  30.413  24.704  13.916
31989W        W 3605  33.929  13.182  13.379
31990W        W 3606   5.681   5.668  13.974
31991W        W 3607   4.388  28.548   2.656
31992W        W 3608  27.802  18.838  12.811
31993W        W 3609  14.206  29.936  12.521
31994W        W 3610   1.953   7.701   2.113
31995W        W 3611  17.285  30.082  10.927
31996W        W 3612  13.303  16.462  14.877
31997W        W 3613  44.271  26.771   3.513
31998W        W 3614   4.036  15.222   2.608
31999W        W 3615  20.806  11.332   1.355
32000W        W 3616   9.723   1.372   2.680
32001W        W 3617  43.309  27.716  14.230
32002W        W 3618  39.405  20.576  11.703
32003W        W 3619  35.295   6.867  14.454
32004W        W 3620  43.473  26.565   2.174
32005W        W 3621  16.544  42.339   2.893
32006W        W 3622  10.189  24.099   0.349
32007W        W 3623  32.421  16.114  14.506
32008W        W 3624  11.597  17.335  14.942
32009W        W 3625  22.711  13.778   3.689
32010W        W 3626  12.710   9.162   1.841
32011W        W 3627  41.246  44.665  13.109
32012W        W 3628  17.678  43.361  11.177
32013W        W 3629  39.946  15.853  13.349
32014W        W 3630   4.216  40.225  11.086
32015W        W 3631   7.983   7.482  11.628
32016W        W 3632  13.712  17.586  10.217
32017W        W 3633  20.573   4.046  13.488
32018W        W 3634   2.341   0.370   3.158
32019W        W 3635  35.607   7.147  10.715
32020W        W 3636  34.351  37.778  11.415
32021W        W 3637  38.910  17.050  14.812
32022W        W 3638  42.493  21.382   4.145
32023W        W 3639  27.116  38.105   4.101
32024W        W 3640   5.718  42.068   0.212
32025W        W 3641  27.815  15.507   4.119
32026W        W 3642  39.816  29.437   0.769
32027W        W 3643  40.838  29.154   4.724
32028W        W 3644  32.141  28.658   1.482
32029W        W 3645  21.519  10.305   3.398
32030W        W 3646  11.124  14.920   1.600
32031W        W 3647  14.740  36.578  11.599
32032W        W 3648  22.555  40.083  10.665
32033W        W 3649  14.799   4.877  14.002
32034W        W 3650   2.146  44.047  10.300
32035W        W 3651   1.362  11.663  13.404
32036W        W 3652  23.281  32.842   0.446
32037W        W 3653  37.878  44.276   1.494
32038W        W 3654  33.156  27.989   0.767
32039W        W 3655  42.307   1.439   2.946
32040W        W 3656  12.139   4.917  10.138
32041W        W 3657  11.044  30.995  12.896
32042W        W 3658  40.766  22.283   2.702
32043W        W 3659  10.403   0.454  13.306
32044W        W 3660  37.346  33.459  12.563
32045W        W 3661  12.216  35.545   3.212
32046W        W 3662  30.446  21.070  13.411
32047W        W 3663  36.475  22.217  14.334
32048W        W 3664  28.914   5.128  14.370
32049W        W 3665  40.339   3.161  14.312
32050W        W 3666  35.654  16.980  10.645
32051W        W 3667  38.864  38.208  14.990
32052W        W 3668  38.093  14.574   0.028
32053W        W 3669   3.733  25.093  10.439
32054W        W 3670  17.978   3.447  12.792
32055W        W 3671  36.516  26.260  11.520
32056W        W 3672   3.543  16.479  12.038
32057W        W 3673  15.699  36.657  10.549
32058W        W 3674  32.052  43.702  14.162
32059W        W 3675   7.753  43.445   2.743
32060W        W 3676  44.976  31.224   2.297
32061W        W 3677   2.436  32.553   2.714
32062W        W 3678  22.482  40.345   5.070
32063W        W 3679  21.655  16.063   4.702
32064W        W 3680  23.683  28.451   4.521
32065W        W 3681  34.984  28.449  11.617
32066W        W 3682  44.031  19.745   0.593
32067W        W 3683  19.207   6.045  11.115
32068W        W 3684   1.202  34.477   1.517
32069W        W 3685  31.899  37.574  13.057
32070W        W 3686  33.769  35.962  12.513
32071W        W 3687   9.568  25.803   3.771
32072W        W 3688   2.175  35.056  11.473
32073W        W 3689  13.204  23.538   1.229
32074W        W 3690  42.356  23.463  11.547
32075W        W 3691  35.647  36.140   2.022
32076W        W 3692  21.649  14.264  10.913
32077W        W 3693  37.387  11.913  12.498
32078W        W 3694  18.776  30.576   0.308
32079W        W 3695  36.914  36.283   3.792
32080W        W 3696  16.348   6.239  13.334
32081W        W 3697  40.348  33.182   1.698
32082W        W 3698  26.936   6.056   2.936
32083W        W 3699  11.392  14.693   4.595
32084W        W 3700  26.466  17.271   1.842
32085W        W 3701  28.852  40.770  14.750
32086W        W 3702  32.572  19.740  14.910
32087W        W 3703  20.709  29.356  14.237
32088W        W 3704  17.868  10.269  11.166
32089W        W 3705  42.899  27.178   3.151
32090W        W 3706  14.298  38.512   3.129
32091W        W 3707  11.204  12.574   4.542
32092W        W 3708  41.258  39.807   4.200
32093W        W 3709  39.946  35.808  10.747
32094W        W 3710  41.246  41.446  13.854
32095W        W 3711  38.439  43.345  12.135
32096W        W 3712  14.232   5.048   3.240
32097W        W 3713   4.848  40.425  14.084
32098W        W 3714  42.394  34.953  12.035
32099W        W 3715  44.736  14.824   1.712
32100W        W 3716  44.927  41.771   1.386
32101W        W 3717   1.857  40.799   2.933
32102W        W 3718   5.716  24.188   3.163
32103W        W 3719  25.248  42.866  13.156
32104W        W 3720  14.650  13.295   0.077
32105W        W 3721  24.124   5.830  13.368
32106W        W 3722  33.130  23.300   3.794
32107W        W 3723  39.997  18.664   3.174
32108W        W 3724   6.759  10.649  13.513
32109W        W 3725  32.908  18.721  13.265
32110W        W 3726   0.446  27.965  11.176
32111W        W 3727  20.097   9.432  10.776
32112W        W 3728  42.250  14.438   4.635
32113W        W 3729   7.403   6.213  12.493
32114W        W 3730   4.794  35.349   1.846
32115W        W 3731  39.450  43.223  10.286
32116W        W 3732  40.913  35.881   2.651
32117W        W 3733  14.677  29.291  14.926
32118W        W 3734  44.258  13.742  14.801
32119W        W 3735  17.269   8.463  11.199
32120W        W 3736  42.343  16.322   2.805
32121W        W 3737  12.049  16.756   2.990
32122W        W 3738  21.290  22.056  12.967
32123W        W 3739  27.224  35.812   2.109
32124W        W 3740  20.495   3.015  14.746
32125W        W 3741  33.768  30.394  14.332
32126W        W 3742  26.334  40.511  11.616
32127W        W 3743  10.936   4.830  10.609
32128W        W 3744   8.018  21.246  10.004
32129W        W 3745  39.554  33.110  11.695
32130W        W 3746  23.187  23.698   3.090
32131W        W 3747   7.731   4.621  11.157
32132W        W 3748  30.194  17.691  12.570
32133W        W 3749  42.446   7.848  13.161
32134W        W 3750  41.407  10.265  11.932
32135W        W 3751  13.336   3.905  11.337
32136W        W 3752  21.310  11.573   4.480
32137W        W 3753  34.462  31.678  11.590
32138W        W 3754  11.214  22.116  11.988
32139W        W 3755  18.140  44.772  11.133
32140W        W 3756  36.751  13.645   2.135
32141W        W 3757   6.849  21.514   0.391
32142W        W 3758  27.447  44.378  13.820
32143W        W 3759  20.211  25.576  13.572
32144W        W 3760  11.828   1.478  14.689
32145W        W 3761   2.442  10.550   0.897
32146W        W 3762   5.966  30.915   2.067
32147W        W 3763  31.960  32.865  12.725
32148W        W 3764   4.018  19.765  12.941
32149W        W 3765  37.935  35.102   4.546
32150W        W 3766  38.987  33.952   1.548
32151W        W 3767   7.373   9.524   1.264
32152W        W 3768  42.759  37.078  12.618
32153W        W 3769  11.420  35.687   1.646
32154W        W 3770   8.720   3.209   1.724
32155W        W 3771   2.217  21.459  14.922
32156W        W 3772  27.246  28.175  11.721
32157W        W 3773  36.033   8.437  12.421
32158W        W 3774  17.614  27.589  12.383
32159W        W 3775  27.505  13.656  10.876
32160W        W 3776  29.655  43.256   3.814
32161W        W 3777  32.112  44.705   5.091
32162W        W 3778   6.754   0.940  10.679
32163W        W 3779  33.916  29.165  13.315
32164W        W 3780   9.326   0.459   2.471
32165W        W 3781  38.532  13.885  10.648
32166W        W 3782  24.481   6.380  13.676
32167W        W 3783   4.272  33.840  11.553
32168W        W 3784   6.491  43.344   0.218
32169W        W 3785  21.209  23.613   0.753
32170W        W 3786  19.250  31.429  14.898
32171W        W 3787  37.608  40.311  14.268
32172W        W 3788  22.564  34.607  13.368
32173W        W 3789   7.836  26.930  14.971
32174W        W 3790  30.537  16.662   3.213
32175W        W 3791  29.403  24.945   3.749
32176W        W 3792   9.255  27.149  10.766
32177W        W 3793  42.979  11.152  12.118
32178W        W 3794  15.961  44.534  11.451
32179W        W 3795  14.754  18.537   4.243
32180W        W 3796  13.129   0.011   4.932
32181W        W 3797  41.009  16.254  12.577
32182W        W 3798  29.490  44.456   2.653
32183W        W 3799  41.315  20.229  14.869
32184W        W 3800  11.282  35.127  14.524
32185W        W 3801  34.515  32.010   0.014
32186W        W 3802   4.685   8.239   1.814
32187W        W 3803  28.641  31.776   1.482
32188W        W 3804  41.728  22.961  13.506
32189W        W 3805  33.906  22.683   2.634
32190W        W 3806   5.986  27.573  13.044
32191W        W 3807  18.978  29.138  13.087
32192W        W 3808  22.235  23.996   4.507
32193W        W 3809   6.096   7.445   1.887
32194W        W 3810  42.093  30.597  13.425
32195W        W 3811  22.935  21.680  14.767
32196W        W 3812  12.775  17.698   0.535
32197W        W 3813   3.508  18.430   1.886
32198W        W 3814  18.712   3.016  10.192
32199W        W 3815  16.540  37.133  12.844
32200W        W 3816  10.422  34.406  12.375
32201W        W 3817   4.802  32.756  13.839
32202W        W 3818  32.388  27.083  10.917
32203W        W 3819  33.430  41.010  11.620
32204W        W 3820   8.622  35.907   1.851
32205W        W 3821   7.721  24.117   3.159
32206W        W 3822   4.974  40.376  11.614
32207W        W 3823  21.054  20.200   0.941
32208W        W 3824   7.781   2.350  11.182
32209W        W 3825  30.114  30.732   1.778
32210W        W 3826   7.301  23.589   0.927
32211W        W 3827  14.639  31.978  12.612
32212W        W 3828  23.677  26.139  12.044
32213W        W 3829   6.713   0.662  13.015
32214W        W 3830  41.878  10.975   1.845
32215W        W 3831  18.572   9.289   2.228
32216W        W 3832  27.470   9.356   1.729
32217W        W 3833  42.464   1.749  12.956
32218W        W 3834  12.272  36.808  11.628
32219W        W 3835  11.106  37.479   0.393
32220W        W 3836  43.942  16.693  12.377
32221W        W 3837  28.989  44.779  11.601
32222W        W 3838  43.403  33.130   1.341
32223W        W 3839  27.424   8.729  13.309
32224W        W 3840  39.986   3.649  11.700
32225W        W 3841  14.223  36.979   2.810
32226W        W 3842  27.637  27.487  10.716
32227W        W 3843  34.438   8.618  11.758
32228W        W 3844   0.991  24.085  11.463
32229W        W 3845  26.959  34.116   2.770
32230W        W 3846  22.494  10.231   5.034
32231W        W 3847  33.302  24.445  13.988
32232W        W 3848  18.316  12.726   1.283
32233W        W 3849  32.173  13.851   1.207
32234W        W 3850  26.407  16.784   9.708
32235W        W 3851   8.641  31.613  10.700
32236W        W 3852  21.599  33.943   3.833
32237W        W 3853  32.391  40.825   0.099
32238W        W 3854  24.108  30.930   1.874
32239W        W 3855   8.200   7.982   1.649
32240W        W 3856  43.330  16.255   3.197
32241W        W 3857  18.578  29.943   2.697
32242W        W 3858  41.393  42.194   1.863
32243W        W 3859  28.046  23.472  11.581
32244W        W 3860  38.327   0.400   3.840
32245W        W 3861  11.644  30.410   4.065
32246W        W 3862   9.470  12.044  13.984
32247W        W 3863  41.214  16.677  12.801
32248W        W 3864   1.977  22.397   5.315
32249W        W 3865  26.664   1.319   3.116
32250W        W 3866  38.644  14.042  12.546
32251W        W 3867  37.587  36.636  12.041
32252W        W 3868   1.364  37.288  14.913
32253W        W 3869  22.989   7.880  12.535
32254W        W 3870  34.907  44.849   4.634
32255W        W 3871   9.592   9.282   1.215
32256W        W 3872  14.660  12.067  14.933
32257W        W 3873   8.637  18.795   2.859
32258W        W 3874  29.154  10.288  14.696
32259W        W 3875  42.047   8.322  11.487
32260W        W 3876  25.324  18.051  12.070
32261W        W 3877   9.363  18.188   2.824
32262W        W 3878   3.237  41.288   4.138
32263W        W 3879  17.942  10.176  12.559
32264W        W 3880   3.002  10.170  14.264
32265W        W 3881  11.829  22.106   0.441
32266W        W 3882  14.662  36.506  12.099
32267W        W 3883  11.274  13.400  14.300
32268W        W 3884  17.734  32.093  13.786
32269W        W 3885  30.913   1.743  13.360
32270W        W 3886  36.508   6.902  14.423
32271W        W 3887  35.408  12.828   3.862
32272W        W 3888  21.415   3.525  10.464
32273W        W 3889  43.098  26.211   2.292
32274W        W 3890   0.223  14.835   1.917
32275W        W 3891   9.833  32.612  11.087
32276W        W 3892  11.226  36.020  11.456
32277W        W 3893  23.145  19.764   1.876
32278W        W 3894  31.949  34.420  14.906
32279W        W 3895  36.087   8.028   2.250
32280W        W 3896   3.253  21.458   2.333
32281W        W 3897  16.185   5.762   1.941
32282W        W 3898   1.470  11.380  13.966
32283W        W 3899  27.044   7.932   4.517
32284W        W 3900   7.426  37.469   2.679
32285W        W 3901  13.290   1.032  13.819
32286W        W 3902  20.122  16.766   4.868
32287W        W 3903  14.422  21.737   2.433
32288W        W 3904  21.786  28.671  13.754
32289W        W 3905  14.597   5.985  14.900
32290W        W 3906  41.973  21.974  10.776
32291W        W 3907  25.366  25.050   1.865
32292W        W 3908  36.032   2.464  13.865
32293W        W 3909  16.895  24.044  11.798
32294W        W 3910  41.860  36.857   3.237
32295W        W 3911  16.133  36.664   3.279
32296W        W 3912  43.841   8.308  10.658
32297W        W 3913  33.034  40.799   4.668
32298W        W 3914   0.685   1.354  10.620
32299W        W 3915   7.075   6.222  10.818
32300W        W 3916  43.145  20.956   4.836
32301W        W 3917  39.080  35.916   1.027
32302W        W 3918  13.097  21.335  10.851
32303W        W 3919   4.011  15.093   1.786
32304W        W 3920   8.357  33.239  12.337
32305W        W 3921  30.604   5.490   3.763
32306W        W 3922   1.299  30.673  13.221
32307W        W 3923  29.650  27.162  14.483
32308W        W 3924  23.588  20.059   2.433
32309W        W 3925  22.972  44.030  14.854
32310W        W 3926  25.503  23.464  10.485
32311W        W 3927  15.504  23.439  14.304
32312W        W 3928  43.034   6.445  11.796
32313W        W 3929   7.761  13.806  13.045
32314W        W 3930  15.458  31.230   0.183
32315W        W 3931  37.555   2.869  14.190
32316W        W 3932  32.684   2.801  10.606
32317W        W 3933   1.838  39.495   1.861
32318W        W 3934  41.994  40.591   2.693
32319W        W 3935  40.822  44.586  12.422
32320W        W 3936   8.410  16.024  14.411
32321W        W 3937   2.015  13.822   1.338
32322W        W 3938  29.947  29.872  13.087
32323W        W 3939  37.917   9.887  13.821
32324W        W 3940  12.467   7.402  11.472
32325W        W 3941  40.901  15.049   4.215
32326W        W 3942  35.784  22.887   0.483
32327W        W 3943   5.459  16.925  12.715
32328W        W 3944   7.701  15.791   3.683
32329W        W 3945   6.328  15.438   2.853
32330W        W 3946   5.693   3.666  13.452
32331W        W 3947  22.273  35.871  12.732
32332W        W 3948  27.459  25.614  13.924
32333W        W 3949   7.744  37.093   1.725
32334W        W 3950   6.473   9.224  12.193
32335W        W 3951  15.036  35.475  14.058
32336W        W 3952  42.278   7.164   2.786
32337W        W 3953  43.249   3.747  12.620
32338W        W 3954  41.217  23.988  12.956
32339W        W 3955  27.365  18.549  14.544
32340W        W 3956  16.763  16.786   2.852
32341W        W 3957   4.653   6.013   4.036
32342W        W 3958  18.360  29.058  14.853
32343W        W 3959  22.601  19.966   1.054
32344W        W 3960  30.926  25.920  14.452
32345W        W 3961  15.938  28.715  13.165
32346W        W 3962  36.265  13.283   5.172
32347W        W 3963  41.866  35.827  12.133
32348W        W 3964  23.228  22.162   2.136
32349W        W 3965  12.773  10.158   4.389
32350W        W 3966  34.016  24.452   4.163
32351W        W 3967   4.453  12.166  13.547
32352W        W 3968  18.164  20.321   2.696
32353W        W 3969  11.149   1.998  14.112
32354W        W 3970  22.664  21.510  13.949
32355W        W 3971   2.949   3.510  13.738
32356W        W 3972  19.798  43.662   1.669
32357W        W 3973  39.487   4.712  13.403
32358W        W 3974  27.621  16.126   0.488
32359W        W 3975  14.549   0.714  11.549
32360W        W 3976  28.682  12.069  11.197
32361W        W 3977  37.201  21.830  12.936
32362W        W 3978  22.019  44.202   0.891
32363W        W 3979  28.133  25.864  14.395
32364W        W 3980  31.133   0.948   2.492
32365W        W 3981   8.224  34.591   4.094
32366W        W 3982  44.829  35.671  12.501
32367W        W 3983  39.401   6.217   0.283
32368W        W 3984  40.982   8.321  12.051
32369W        W 3985  18.812   2.444   0.892
32370W        W 3986   7.290  38.626   3.596
32371W        W 3987  12.733  20.250   0.684
32372W        W 3988   3.764  37.815   1.204
32373W        W 3989   7.307  38.501  10.602
32374W        W 3990  22.648  28.646   0.456
32375W        W 3991  44.874  16.630  12.745
32376W        W 3992  10.184  14.183  14.912
32377W        W 3993  30.094  41.446  12.932
32378W        W 3994  21.000  21.193   0.815
32379W        W 3995   0.291  19.019  12.890
32380W        W 3996  13.080  27.266   3.656
32381W        W 3997  20.446   8.282   2.814
32382W        W 3998  16.677  44.913   4.548
32383W        W 3999  43.068   3.450  10.427
32384W        W 4000  21.183  36.373   0.472
32385W        W 4001  40.990   2.791  13.656
32386W        W 4002   3.232  40.044  13.539
32387W        W 4003   3.316  22.130  11.997
32388W        W 4004  42.526  28.376  11.985
32389W        W 4005  22.804  22.897   4.182
32390W        W 4006  44.510   7.522   4.179
32391W        W 4007  15.091   3.689  10.305
32392W        W 4008  17.173  28.506   0.006
32393W        W 4009  16.568  19.253   3.933
32394W        W 4010  30.960  11.146  12.543
32395W        W 4011  14.787  13.753   1.209
32396W        W 4012  42.824  10.783   1.253
32397W        W 4013  27.869  38.992  12.098
32398W        W 4014   8.402  35.091   4.119
32399W        W 4015  15.494  21.279   3.252
32400W        W 4016  30.903  31.938  13.299
32401W        W 4017  15.866  33.175   2.286
32402W        W 4018   8.126  12.586  10.668
32403W        W 4019  34.386  29.242  13.986
32404W        W 4020   0.642  31.015   1.181
32405W        W 4021   9.742   1.477  11.457
32406W        W 4022   7.265  29.530  12.330
32407W        W 4023   3.269  18.287  13.872
32408W        W 4024  17.753   1.999   2.751
32409W        W 4025  24.133   7.462  10.769
32410W        W 4026  34.450  26.954  12.444
32411W        W 4027   4.920   3.001   2.662
32412W        W 4028  28.516  15.359   4.583
32413W        W 4029  39.304  18.147   0.738
32414W        W 4030  44.273  30.539   1.358
32415W        W 4031  30.046  10.551   0.838
32416W        W 4032   8.735  38.893  13.871
32417W        W 4033   9.718  33.940   4.697
32418W        W 4034   2.800  34.970   3.547
32419W        W 4035  29.353   6.334   4.178
32420W        W 4036  39.147  14.383   4.117
32421W        W 4037  27.942  32.858   1.670
32422W        W 4038  16.275  26.758  11.026
32423W        W 4039  32.329  25.547  12.996
32424W        W 4040   6.794  28.525  13.465
32425W        W 4041   0.678  21.080  10.629
32426W        W 4042  16.258   4.006   4.984
32427W        W 4043  24.012  24.025   9.860
32428W        W 4044  28.110   6.692  14.908
32429W        W 4045  24.666  29.047  12.650
32430W        W 4046  19.535  37.700  11.969
32431W        W 4047  29.523  32.053   1.567
32432W        W 4048  33.434  20.193   0.721
32433W        W 4049  13.244  15.799   3.238
32434W        W 4050   7.698   0.178  13.281
32435W        W 4051   5.216  42.537   5.016
32436W        W 4052  38.063  14.640  12.293
32437W        W 4053  13.607  28.154  12.519
32438W        W 4054  19.936  30.911  11.597
32439W        W 4055  19.620  24.219   1.306
32440W        W 4056  14.475  13.505  11.627
32441W        W 4057   2.811  38.323  10.596
32442W        W 4058  44.780   6.753  11.620
32443W        W 4059  26.561  15.255   2.893
32444W        W 4060  18.594  26.504  11.592
32445W        W 4061   3.529  14.431   4.180
32446W        W 4062  22.594  11.282   3.899
32447W        W 4063   9.186  41.872   1.566
32448W        W 4064  28.928  33.557  12.904
32449W        W 4065  19.989  13.289  11.647
32450W        W 4066   4.312  25.540   2.434
32451W        W 4067   4.258   8.182   0.729
32452W        W 4068  39.717  18.631  13.041
32453W        W 4069  10.363  41.479   2.756
32454W        W 4070   1.300  23.511   2.244
32455W        W 4071  19.148  44.050   5.399
32456W        W 4072  39.555  39.208   1.216
32457W        W 4073  34.336   1.212  12.734
32458W        W 4074   8.310  42.333  13.110
32459W        W 4075  34.533   8.281   3.886
32460W        W 4076   8.177  12.736  12.476
32461W        W 4077  43.229  21.996   3.692
32462W        W 4078  21.650  21.907  13.307
32463W        W 4079  24.255  12.865   3.108
32464W        W 4080  25.207  16.151  12.710
32465W        W 4081  29.065  20.002   2.298
32466W        W 4082  12.015  19.735   4.020
32467W        W 4083  22.708  27.188   3.362
32468W        W 4084   4.609   0.594   2.331
32469W        W 4085  21.210  10.342  13.280
32470W        W 4086  22.590  38.275  12.056
32471W        W 4087  27.985  32.956   4.642
32472W        W 4088  19.638  40.109   2.223
32473W        W 4089  39.888   9.340   3.362
32474W        W 4090  19.050   0.774  14.667
32475W        W 4091  26.761  29.096  10.258
32476W        W 4092  22.587  12.692   0.463
32477W        W 4093  32.525  12.766   4.494
32478W        W 4094  35.964   2.202  12.556
32479W        W 4095  20.647   4.806   4.122
32480W        W 4096   2.237   3.991   1.156
32481W        W 4097  23.081   9.937   4.220
32482W        W 4098  18.538  32.705  10.714
32483W        W 4099  14.693   2.520  12.444
32484W        W 4100  27.900  24.148  10.135
32485W        W 4101  12.699  33.009  14.019
32486W        W 4102  44.419  44.266   4.040
32487W        W 4103  24.940  14.324   0.977
32488W        W 4104  20.190  15.835   5.067
32489W        W 4105  38.872  28.128   2.844
32490W        W 4106  12.602  27.511   3.252
32491W        W 4107  24.354   4.413  10.347
32492W        W 4108  39.871  17.826  14.185
32493W        W 4109  10.369  19.932  13.279
32494W        W 4110  17.750  13.872  13.837
32495W        W 4111  34.074  43.075  11.244
32496W        W 4112  23.189  14.120  14.962
32497W        W 4113   7.859  26.181   2.833
32498W        W 4114  15.787  14.849  11.940
32499W        W 4115  30.646  44.235   4.046
32500W        W 4116   2.020  29.534  13.437
32501W        W 4117  30.233  41.645  12.456
32502W        W 4118  14.318   4.139   1.397
32503W        W 4119  11.890   4.046  14.045
32504W        W 4120  32.182  16.289   1.947
32505W        W 4121  18.206  28.280   4.090
32506W        W 4122  19.078   4.391  11.069
32507W        W 4123  32.514  32.095   0.387
32508W        W 4124   2.571  20.223  12.060
32509W        W 4125  22.049  22.580  11.413
32510W        W 4126  14.359  24.204  14.059
32511W        W 4127  30.106  22.680   4.891
32512W        W 4128  30.535  35.209   2.803
32513W        W 4129   2.529  21.740  13.412
32514W        W 4130  34.294  20.234   3.711
32515W        W 4131  15.177  28.483   2.437
32516W        W 4132   0.603  38.047  13.250
32517W        W 4133  21.147  20.502  12.890
32518W        W 4134  33.774  17.755   4.736
32519W        W 4135  40.907   7.656   0.532
32520W        W 4136  36.755  34.636  11.175
32521W        W 4137  33.343  23.244  13.953
32522W        W 4138  18.858   0.915  14.181
32523W        W 4139   6.672   2.737  13.006
32524W        W 4140  22.103  35.418   2.181
32525W        W 4141  36.542  44.861  12.302
32526W        W 4142   4.533  31.447  11.258
32527W        W 4143  24.312   8.373  12.615
32528W        W 4144  44.900  13.813  11.680
32529W        W 4145  34.584  32.927  14.891
32530W        W 4146  43.877  29.425   3.550
32531W        W 4147  32.723  34.120  11.103
32532W        W 4148  42.741   5.124   1.500
32533W        W 4149  20.544   4.397   4.409
32534W        W 4150   6.337  28.644   1.037
32535W        W 4151  29.226  20.112   4.100
32536W        W 4152  32.026   5.421   1.405
32537W        W 4153  26.624   3.703   3.605
32538W        W 4154   8.284  22.608  14.275
32539W        W 4155  14.634   4.704  14.517
32540W        W 4156  30.669  36.358   1.475
32541W        W 4157  31.490  11.640  11.028
32542W        W 4158  34.420  41.289  11.509
32543W        W 4159  25.161  31.912  12.524
32544W        W 4160  38.550  34.841  10.737
32545W        W 4161  23.373  23.084  14.119
32546W        W 4162  27.542  35.282  11.637
32547W        W 4163  10.415  10.308  10.950
32548W        W 4164   1.798   0.187   3.292
32549W        W 4165  18.581   7.883  13.910
32550W        W 4166  42.015  25.674  14.329
32551W        W 4167  13.596   2.724   2.946
32552W        W 4168  25.343  23.222  11.629
32553W        W 4169  44.046  28.592   2.060
32554W        W 4170  42.091  11.202  10.175
32555W        W 4171  27.920   0.649  11.427
32556W        W 4172  17.064  22.084   0.773
32557W        W 4173  33.856   6.012   5.033
32558W        W 4174  36.929  39.536   1.029
32559W        W 4175   6.186   2.245   4.313
32560W        W 4176  11.061  43.864  12.584
32561W        W 4177  30.490  26.679  14.278
32562W        W 4178  20.819   8.141  11.636
32563W        W 4179  25.606  38.429  13.089
32564W        W 4180   2.317  22.768   4.096
32565W        W 4181   1.745   0.551  13.951
32566W        W 4182  15.236  11.883  11.991
32567W        W 4183  40.997  41.958   0.622
32568W        W 4184   2.141  21.811   4.439
32569W        W 4185  29.576   7.966  12.953
32570W        W 4186  41.402  27.914  14.691
32571W        W 4187  22.117   8.043  13.013
32572W        W 4188  34.936  37.816   2.755
32573W        W 4189  42.881  24.453   2.472
32574W        W 4190   6.181  20.126   3.770
32575W        W 4191  14.066   3.263   3.481
32576W        W 4192  19.993  13.621   4.197
32577W        W 4193  13.852  36.953  10.803
32578W        W 4194  41.407  41.384  14.352
32579W        W 4195  27.119   7.404   4.423
32580W        W 4196  35.435  15.852   5.075
32581W        W 4197  20.532  20.065   1.822
32582W        W 4198   9.111  10.874  12.469
32583W        W 4199  32.631   2.780  14.427
32584W        W 4200  11.275  37.627  11.934
32585W        W 4201  11.445  34.904  11.000
32586W        W 4202  22.959   4.985  10.902
32587W        W 4203  37.777  37.409   9.965
32588W        W 4204  21.507  26.677   1.488
32589W        W 4205  26.567  25.488   3.135
32590W        W 4206  34.530   9.861  13.993
32591W        W 4207  21.958  37.778   2.431
32592W        W 4208  32.129  30.145   3.668
32593W        W 4209  18.321  39.940  14.865
32594W        W 4210  17.336  39.088   4.201
32595W        W 4211  39.862   4.603   1.614
32596W        W 4212  26.972  26.749   2.338
32597W        W 4213  36.450  14.336  14.893
32598W        W 4214  22.257  41.883   2.373
32599W        W 4215  32.860  31.163   4.259
32600W        W 4216   8.153  28.133   3.379
32601W        W 4217  44.173  32.033  12.929
32602W        W 4218  18.596   2.976  13.461
32603W        W 4219  20.525  24.163  11.300
32604W        W 4220  33.907  25.012   4.877
32605W        W 4221   0.756   6.517   4.138
32606W        W 4222   5.059  24.948   4.120
32607W        W 4223  11.698  16.207   4.074
32608W        W 4224  30.971  10.814  14.787
32609W        W 4225  24.063   8.710   4.499
32610W        W 4226  39.003   3.386  13.117
32611W        W 4227  40.782   9.239  13.989
32612W        W 4228   1.921   8.624  13.754
32613W        W 4229   2.910   2.182  11.337
32614W        W 4230  17.669   2.229  11.549
32615W        W 4231   4.300  29.976  10.620
32616W        W 4232  37.802   0.518   0.432
32617W        W 4233  17.532   9.636   1.778
32618W        W 4234  44.469  11.846  13.579
32619W        W 4235  24.005  33.177   4.263
32620W        W 4236  15.418   4.174   4.298
32621W        W 4237   5.219   4.690  14.684
32622W        W 4238  23.003  12.690  12.196
32623W        W 4239  27.190  35.933   4.280
32624W        W 4240  36.942  16.867   2.335
32625W        W 4241  25.404   0.957   3.725
32626W        W 4242  14.718  31.404  12.597
32627W        W 4243  41.933   8.776   1.533
32628W        W 4244  33.105  33.205  14.976
32629W        W 4245  36.463  27.209  10.737
32630W        W 4246  23.581  13.221  11.365
32631W        W 4247  27.452  30.568   1.711
32632W        W 4248  44.414   5.474  14.063
32633W        W 4249  38.791  22.235  12.511
32634W        W 4250  19.207  10.547  11.332
32635W        W 4251  14.136  16.139   2.427
32636W        W 4252  14.782  22.783   0.749
32637W        W 4253  31.888  22.222  11.026
32638W        W 4254  27.001  32.133   0.997
32639W        W 4255  33.691   4.051  11.191
32640W        W 4256  27.035  28.564  11.965
32641W        W 4257  26.498  22.874  14.410
32642W        W 4258  11.318  14.434  11.407
32643W        W 4259  44.313   6.740  11.871
32644W        W 4260  40.924  29.368   2.692
32645W        W 4261   2.667   6.156   2.763
32646W        W 4262  29.865  44.728   1.927
32647W        W 4263  44.068  35.049   2.556
32648W        W 4264  33.677  18.652  14.397
32649W        W 4265  44.408  10.800  14.839
32650W        W 4266  18.819  22.697  13.033
32651W        W 4267  40.789  26.913  10.409
32652W        W 4268  39.844  25.209   1.096
32653W        W 4269  22.957  41.430   4.099
32654W        W 4270  33.812  13.946   1.243
32655W        W 4271  43.293  33.048  14.867
32656W        W 4272  30.547  12.815  13.420
32657W        W 4273  37.173  41.329   0.104
32658W        W 4274  30.501  33.490   1.423
32659W        W 4275  38.389  10.113   5.505
32660W        W 4276   7.433  18.175   2.570
32661W        W 4277  30.406   1.443   0.316
32662W        W 4278  10.712  27.960  11.658
32663W        W 4279  32.645  44.854   1.593
32664W        W 4280  33.222  12.119   4.100
32665W        W 4281   1.897   9.766  12.623
32666W        W 4282  15.342   3.508  14.951
32667W        W 4283  18.619   5.376  11.482
32668W        W 4284  41.880   8.403  12.866
32669W        W 4285   4.821  33.189  13.550
32670W        W 4286  40.360  42.402  12.450
32671W        W 4287  33.355  21.271  13.421
32672W        W 4288   1.982   8.230   2.218
32673W        W 4289   7.904   6.498   2.876
32674W        W 4290  37.585  34.606  11.571
32675W        W 4291   2.272  35.880   2.713
32676W        W 4292   4.869  10.673   0.746
32677W        W 4293  38.111  42.830  13.317
32678W        W 4294  11.669   2.673   2.819
32679W        W 4295  36.679  37.126  11.480
32680W        W 4296  12.744  16.300  10.624
32681W        W 4297   8.694  24.797   3.633
32682W        W 4298  28.848  21.376  11.792
32683W        W 4299   9.367  27.469  13.578
32684W        W 4300  34.475  27.984   0.775
32685W        W 4301  19.076  31.406   0.392
32686W        W 4302   6.846   2.720   0.909
32687W        W 4303  29.184   8.454   2.170
32688W        W 4304  19.174   5.924   0.682
32689W        W 4305  12.502   8.345   2.719
32690W        W 4306   9.636  34.468   0.283
32691W        W 4307  10.956  28.716  12.102
32692W        W 4308  11.581  16.054   3.609
32693W        W 4309   0.844   7.185   1.349
32694W        W 4310  26.886  10.916  13.080
32695W        W 4311  44.977  24.265  13.237
32696W        W 4312  42.437  41.011   3.311
32697W        W 4313   0.204  25.244   3.105
32698W        W 4314  36.927   1.926  11.657
32699W        W 4315   0.924   3.433   2.533
32700W        W 4316  29.740  25.417  14.888
32701W        W 4317   9.270  16.884   4.133
32702W        W 4318   1.223  29.092  14.409
32703W        W 4319  29.399  20.479   2.348
32704W        W 4320  19.082  37.542  13.041
32705W        W 4321  29.902  24.056   2.692
32706W        W 4322  27.117  44.417   0.673
32707W        W 4323   7.828  34.839   3.205
32708W        W 4324  23.545  19.174   4.250
32709W        W 4325   3.272  18.184   3.592
32710W        W 4326  24.702  16.184   2.016
32711W        W 4327   1.975  42.008   1.360
32712W        W 4328  33.153  41.572  13.935
32713W        W 4329  15.956  10.128   0.301
32714W        W 4330  28.011  21.686   1.752
32715W        W 4331  13.432  28.731   3.766
32716W        W 4332  31.649   0.347  14.385
32717W        W 4333  21.667  23.662   3.891
32718W        W 4334  15.356  39.981  13.451
32719W        W 4335  17.683   7.092   3.665
32720W        W 4336  22.139  23.942   2.688
32721W        W 4337   6.817  35.286   0.259
32722W        W 4338   2.667   2.161  14.320
32723W        W 4339  13.480  22.000   4.118
32724W        W 4340  15.265  13.141   2.911
32725W        W 4341  22.584  25.286  12.068
32726W        W 4342  36.553  32.660  13.285
32727W        W 4343  16.298  12.667   4.649
32728W        W 4344  30.182  34.035   3.680
32729W        W 4345  21.142  24.285  13.406
32730W        W 4346   7.219  13.173   1.822
32731W        W 4347  31.393  26.170  11.137
32732W        W 4348   1.456  21.712  12.548
32733W        W 4349  35.879  10.600   4.276
32734W        W 4350  14.053   8.447  10.743
32735W        W 4351  25.557  16.417  13.490
32736W        W 4352  17.727  30.861   4.643
32737W        W 4353  12.580  36.045  13.288
32738W        W 4354  28.992  21.996   4.510
32739W        W 4355   2.342  38.727  11.107
32740W        W 4356   0.829  22.503   0.305
32741W        W 4357   5.291   1.471   3.522
32742W        W 4358  20.168   4.584   3.176
32743W        W 4359  14.477  10.491   3.312
32744W        W 4360  31.722  24.668   0.205
32745W        W 4361  13.232  18.185  13.083
32746W        W 4362  10.615   4.362  10.388
32747W        W 4363  17.066   1.362   2.796
32748W        W 4364   7.471  19.189   4.119
32749W        W 4365  30.358   0.339   0.903
32750W        W 4366   1.800  21.306  12.437
32751W        W 4367  38.992   9.619   1.394
32752W        W 4368  44.700  16.335  11.012
32753W        W 4369   0.286   9.879  14.017
32754W        W 4370  30.630  19.530  11.495
32755W        W 4371  25.035  12.294   3.144
32756W        W 4372   9.051  32.489  11.687
32757W        W 4373  33.116   8.014  11.458
32758W        W 4374  36.100  19.317   0.884
32759W        W 4375   3.805  32.668   0.539
32760W        W 4376  31.989  11.863   0.691
32761W        W 4377  36.857  42.528   4.502
32762W        W 4378  35.204  34.513  13.097
32763W        W 4379  43.456  44.051  12.594
32764W        W 4380  25.882  29.651  13.795
32765W        W 4381  10.788  38.994   2.626
32766W        W 4382  43.472  23.716  10.734
32767W        W 4383  44.044   4.678   1.321
32768W        W 4384   5.193   1.340   0.646
32769W        W 4385  32.725  18.612   1.588
32770W        W 4386  18.997  24.426  12.181
32771W        W 4387   5.801   6.347   1.266
32772W        W 4388  22.805  32.215   0.987
32773W        W 4389   5.349   2.037  11.242
32774W        W 4390  32.953  11.850  13.052
32775W        W 4391  42.091  28.608   4.299
32776W        W 4392  41.721  33.533   2.677
32777W        W 4393  26.490  10.594   2.841
32778W        W 4394  23.562  25.805  14.289
32779W        W 4395  16.814  37.433   1.406
32780W        W 4396  18.276   6.001  11.014
32781W        W 4397   9.744  21.792   0.265
32782W        W 4398  38.643  19.755  14.077
32783W        W 4399  19.801  21.815   4.748
32784W        W 4400  16.304  18.434   3.328
32785W        W 4401  12.140   5.951   2.844
32786W        W 4402  23.649  21.613  11.113
32787W        W 4403  25.069  36.414   4.125
32788W        W 4404  13.599   9.845   2.302
32789W        W 4405  27.558  39.775  13.425
32790W        W 4406  29.611  15.770  13.877
32791W        W 4407  14.185   2.043   3.180
32792W        W 4408  16.219  31.483  13.949
32793W        W 4409  12.663  30.368  13.908
32794W        W 4410  29.758  31.600   0.585
32795W        W 4411  40.500  38.917  10.755
32796W        W 4412  35.105  18.299   4.034
32797W        W 4413   4.963  16.690   1.476
32798W        W 4414   1.831  27.979   1.469
32799W        W 4415  24.717  32.409  14.349
32800W        W 4416  27.379   9.272   3.357
32801W        W 4417  39.130  12.354  13.819
32802W        W 4418  16.346  31.708  14.413
32803W        W 4419  16.734  35.823  12.408
32804W        W 4420  33.552   4.443   0.547
32805W        W 4421  15.563  39.841  10.664
32806W        W 4422   5.654  42.960  12.492
32807W        W 4423  13.567  31.574  14.711
32808W        W 4424  15.359  32.849   3.699
32809W        W 4425  15.240  21.603  14.880
32810W        W 4426  13.242  29.498  11.952
32811W        W 4427  16.633  10.196  10.677
32812W        W 4428  31.418  42.782  11.540
32813W        W 4429  36.530  18.599  10.714
32814W        W 4430  10.277  21.105   1.393
32815W        W 4431  23.013  22.144   0.564
32816W        W 4432  11.633   3.018   0.384
32817W        W 4433  25.101  42.675  14.910
32818W        W 4434  13.678  11.049   1.476
32819W        W 4435  36.802   8.390   2.774
32820W        W 4436  25.116  32.478  11.254
32821W        W 4437   1.204  11.448  10.799
32822W        W 4438   7.347   7.246   1.387
32823W        W 4439   3.973   3.027   1.363
32824W        W 4440  29.698  33.418  12.424
32825W        W 4441  11.196  10.641   1.338
32826W        W 4442  38.071  14.411   5.037
32827W        W 4443  18.935  36.493   1.104
32828W        W 4444  19.576   5.005   1.795
32829W        W 4445  21.821  33.581  13.484
32830W        W 4446  18.748   7.131   2.215
32831W        W 4447  33.133  30.738   3.763
32832W        W 4448   3.031  11.251   4.711
32833W        W 4449  22.561   9.625  10.620
32834W        W 4450  38.877  41.251  10.000
32835W        W 4451  37.731  13.005   5.036
32836W        W 4452  25.124   8.719  13.166
32837W        W 4453   6.441  19.987  10.398
32838W        W 4454  40.971  14.746  10.838
32839W        W 4455  10.385  27.924  14.747
32840W        W 4456  38.240  13.185   3.121
32841W        W 4457  14.397  30.634  11.476
32842W        W 4458  11.607  12.437   0.435
32843W        W 4459   0.265  24.569  14.360
32844W        W 4460  35.638  44.294   4.532
32845W        W 4461  16.828  23.172  13.799
32846W        W 4462  26.276  28.039  11.653
32847W        W 4463  20.115  23.937   1.312
32848W        W 4464  24.710   3.665  12.952
32849W        W 4465   8.316   7.649   1.264
32850W        W 4466  25.253   4.813  13.363
32851W        W 4467  25.608   7.291  14.251
32852W        W 4468  30.199  38.995  11.597
32853W        W 4469  19.864   1.481   3.775
32854W        W 4470  43.698  16.088   3.557
32855W        W 4471  28.401   8.750  13.257
32856W        W 4472  35.431  30.903   0.821
32857W        W 4473  26.157  38.067   4.385
32858W        W 4474  38.471  18.577   2.238
32859W        W 4475  35.979  21.835   1.865
32860W        W 4476  28.653  31.609  11.915
32861W        W 4477  27.603  44.463   2.232
32862W        W 4478  41.331  36.353  10.174
32863W        W 4479  13.946   9.615   1.193
32864W        W 4480  27.145  33.216   2.838
32865W        W 4481  34.549  15.388   1.707
32866W        W 4482   3.633   4.165  13.248
32867W        W 4483  22.305  15.606  11.396
32868W        W 4484  38.786  20.291  10.641
32869W        W 4485  23.439  42.993   4.111
32870W        W 4486   1.749  10.099   2.679
32871W        W 4487  20.834  35.594   0.912
32872W        W 4488  27.084  19.970   3.390
32873W        W 4489  42.432  44.197  12.100
32874W        W 4490   0.393  18.118   4.873
32875W        W 4491  13.138   8.373   4.582
32876W        W 4492  30.615  24.114   3.393
32877W        W 4493  26.658  14.878  10.642
32878W        W 4494  39.262   3.213  11.464
32879W        W 4495   1.336  25.218  12.918
32880W        W 4496  40.009  25.229  12.953
32881W        W 4497   3.667  44.011  12.601
32882W        W 4498  26.629  14.807  14.744
32883W        W 4499   7.709   4.377  12.645
32884W        W 4500  40.815   1.834   2.947
32885W        W 4501  26.661  19.090   3.792
32886W        W 4502  12.098  19.540  13.403
32887W        W 4503  12.349  21.180   1.180
32888W        W 4504  14.537   6.655  11.769
32889W        W 4505  36.028  37.973  12.884
32890W        W 4506  19.697  24.613  10.996
32891W        W 4507  42.905  18.607  14.245
32892W        W 4508   6.074  24.129   1.896
32893W        W 4509  44.964  10.738  11.712
32894W        W 4510  39.728   1.793  10.554
32895W        W 4511  37.653  34.916  13.282
32896W        W 4512  19.587  44.114  13.239
32897W        W 4513  10.540   0.460  14.464
32898W        W 4514  11.353  10.621  12.173
32899W        W 4515   0.052   0.291  12.391
32900W        W 4516   6.769  32.938   1.635
32901W        W 4517  41.413  26.477   3.195
32902W        W 4518   1.166  31.950   1.311
32903W        W 4519  11.760   6.166   0.981
32904W        W 4520  42.039  11.336  14.869
32905W        W 4521  21.680  33.125  11.050
32906W        W 4522  24.469   0.007  13.122
32907W        W 4523  17.221  16.161  14.785
32908W        W 4524  15.249  35.075  11.677
32909W        W 4525   4.705  42.314   1.366
32910W        W 4526  16.088   3.732   0.453
32911W        W 4527  30.680  38.373  11.382
32912W        W 4528  22.438  41.291   4.186
32913W        W 4529  17.367  41.422  13.909
32914W        W 4530  15.493   4.454  10.195
32915W        W 4531  23.686  20.284  11.568
32916W        W 4532   0.353  17.234   0.703
32917W        W 4533  15.685   8.887  10.030
32918W        W 4534  15.651  44.701  13.014
32919W        W 4535  34.465  16.071  12.635
32920W        W 4536  41.404  44.900   4.676
32921W        W 4537  11.748  44.889  13.834
32922W        W 4538  17.304  11.094   0.945
32923W        W 4539  21.625  38.419  14.316
32924W        W 4540  34.273  36.031  12.537
32925W        W 4541  42.490   2.467   2.757
32926W        W 4542   5.057  12.896   3.758
32927W        W 4543   9.616  11.178   1.281
32928W        W 4544   9.653   9.973  13.554
32929W        W 4545  35.196   1.507  14.083
32930W        W 4546  39.004   0.267   1.660
32931W        W 4547  14.840   4.031   0.813
32932W        W 4548  27.545  23.675  12.290
32933W        W 4549  39.581   1.929   0.328
32934W        W 4550  19.055   0.003  14.059
32935W        W 4551  36.821  27.558  13.403
32936W        W 4552  23.770   0.770  11.900
32937W        W 4553  36.497  28.148  13.049
32938W        W 4554  42.274  14.366  11.311
32939W        W 4555  24.571  13.317  12.371
32940W        W 4556  44.303  32.830   2.852
32941W        W 4557  22.985  34.272   3.219
32942W        W 4558  39.481  25.909   1.316
32943W        W 4559   2.417  35.689  13.743
32944W        W 4560  44.896   9.096   4.656
32945W        W 4561  18.926  10.751  10.515
32946W        W 4562  19.698   6.287   1.139
32947W        W 4563   6.219   8.958   0.857
32948W        W 4564  37.184  26.634   1.965
32949W        W 4565  33.827  35.154  14.868
32950W        W 4566  22.483  22.580  11.086
32951W        W 4567   5.850  34.914  13.345
32952W        W 4568  37.830   5.578  12.041
32953W        W 4569  14.603  17.216   4.120
32954W        W 4570  36.529  30.689   1.788
32955W        W 4571   1.795  16.226   4.632
32956W        W 4572  33.896  42.192   3.453
32957W        W 4573  40.431  35.746   1.486
32958W        W 4574  16.988  15.771   0.020
32959W        W 4575  40.373  26.623  10.468
32960W        W 4576  21.464  13.118   3.725
32961W        W 4577  27.203   5.371   2.250
32962W        W 4578  36.991   8.628   2.266
32963W        W 4579  36.986  32.877  10.732
32964W        W 4580  30.999   5.046  12.013
32965W        W 4581   6.961  17.763  11.157
32966W        W 4582  27.599  21.257   4.141
32967W        W 4583  33.494  29.367  14.476
32968W        W 4584   4.872  22.324   9.892
32969W        W 4585  11.567  15.744  14.436
32970W        W 4586  37.140  28.906  12.042
32971W        W 4587  13.113   5.383  11.562
32972W        W 4588  10.602  40.525  14.994
32973W        W 4589   4.460   4.937  13.540
32974W        W 4590   4.930  21.672  10.726
32975W        W 4591  14.434   9.476   4.892
32976W        W 4592  15.077  44.774   3.596
32977W        W 4593   7.392  39.224   2.723
32978W        W 4594  41.915  20.304  11.223
32979W        W 4595   6.596  36.501   2.742
32980W        W 4596  30.213  29.139   2.797
32981W        W 4597   3.665  39.762   3.182
32982W        W 4598  29.513  16.339   0.267
32983W        W 4599  37.361  31.969   0.317
32984W        W 4600  23.765  26.398   2.831
32985W        W 4601  21.454  33.840   4.326
32986W        W 4602   6.128  23.689  11.197
32987W        W 4603  38.292  22.412   3.649
32988W        W 4604  39.970   2.933  14.035
32989W        W 4605  37.466  43.399   3.850
32990W        W 4606  18.230  24.527   0.697
32991W        W 4607  28.955  14.338  11.998
32992W        W 4608  42.487  36.505   4.601
32993W        W 4609  37.114  29.504  13.431
32994W        W 4610  44.295  43.956   3.147
32995W        W 4611  21.274   6.611   3.584
32996W        W 4612  31.220  26.414  13.160
32997W        W 4613   7.400  35.088  12.188
32998W        W 4614   0.221  31.972   1.280
32999W        W 4615  38.389  42.754  12.109
33000W        W 4616  24.608  26.093  12.063
33001W        W 4617   1.191  26.062   0.250
33002W        W 4618  15.592  43.279  13.189
33003W        W 4619  20.334  25.219  11.058
33004W        W 4620  29.960  43.781  11.842
33005W        W 4621  34.604  26.569  12.122
33006W        W 4622  31.648  36.010   2.253
33007W        W 4623  35.434  35.614   0.146
33008W        W 4624  19.692   0.237   4.076
33009W        W 4625   2.958  38.461   2.746
33010W        W 4626  21.977   2.667  13.368
33011W        W 4627  40.250  40.581  14.332
33012W        W 4628   9.364  44.479   4.900
33013W        W 4629  12.811  25.882   3.335
33014W        W 4630  44.134  12.372   2.759
33015W        W 4631  34.755   4.796   1.792
33016W        W 4632  41.258   5.266  14.792
33017W        W 4633  29.183   8.083   1.205
33018W        W 4634  33.582  23.866   3.193
33019W        W 4635  19.610  28.097   2.748
33020W        W 4636  12.173  26.399  14.898
33021W        W 4637  30.972  24.967   1.806
33022W        W 4638   1.860  38.118  11.939
33023W        W 4639  30.639  41.825  11.502
33024W        W 4640   2.939  13.978   1.998
33025W        W 4641  10.745  43.770  14.870
33026W        W 4642   9.940  19.494  11.903
33027W        W 4643   2.282  11.119  11.586
33028W        W 4644  11.272  19.320  11.167
33029W        W 4645  25.232  44.531  12.445
33030W        W 4646   3.978  27.753   1.929
33031W        W 4647  23.589  18.264  14.948
33032W        W 4648  44.876  44.756  12.358
33033W        W 4649  13.542  29.811   3.248
33034W        W 4650  42.272  22.260  14.427
33035W        W 4651  32.519  33.018   2.931
33036W        W 4652  24.281  42.587  10.378
33037W        W 4653  15.423   6.907  10.133
33038W        W 4654  27.992  24.397   0.853
33039W        W 4655  38.710  16.684   0.504
33040W        W 4656  20.089  43.021   1.014
33041W        W 4657  22.207  36.246  12.403
33042W        W 4658  28.703  13.184   3.183
33043W        W 4659  27.677  43.958   2.282
33044W        W 4660  31.878  33.386  12.891
33045W        W 4661   6.877  40.945  13.629
33046W        W 4662  41.698  44.521  13.479
33047W        W 4663   2.518  12.168   2.709
33048W        W 4664   6.997   8.710   1.235
33049W        W 4665  20.250   5.811   0.276
33050W        W 4666  13.998   5.903  11.691
33051W        W 4667  24.472   3.776  12.481
33052W        W 4668  34.096  43.436   1.290
33053W        W 4669  44.920  42.009  11.903
33054W        W 4670  41.367  17.151  13.643
33055W        W 4671   0.948  11.164   4.963
33056W        W 4672   0.510  33.149   0.322
33057W        W 4673  25.954   8.121   3.251
33058W        W 4674  36.786  10.879  11.028
33059W        W 4675  42.941  19.542   4.963
33060W        W 4676  27.116  34.358  12.017
33061W        W 4677  15.136  40.871   3.358
33062W        W 4678  35.317   5.395   3.674
33063W        W 4679   0.833  24.853   0.457
33064W        W 4680  11.494  29.536   4.217
33065W        W 4681  34.712   5.685  10.672
33066W        W 4682   8.907  37.606   2.461
33067W        W 4683  10.283  22.104  11.880
33068W        W 4684   2.993  30.466   4.956
33069W        W 4685   7.582  30.348   5.115
33070W        W 4686  32.719  41.387   2.205
33071W        W 4687  14.615   0.505  12.740
33072W        W 4688  34.347   0.252  14.516
33073W        W 4689  42.320   1.451   2.409
33074W        W 4690   6.271   5.707   0.270
33075W        W 4691   7.838  10.906  14.740
33076W        W 4692  18.907   7.631   4.111
33077W        W 4693  31.754  33.367  11.042
33078W        W 4694  38.933  30.416  13.808
33079W        W 4695  24.440   8.145  14.384
33080W        W 4696  39.436   6.921   4.037
33081W        W 4697  10.376  14.234  12.528
33082W        W 4698  40.060  44.888  11.060
33083W        W 4699   1.495  11.935   2.779
33084W        W 4700  27.256  39.599  12.229
33085W        W 4701  32.349  19.703   0.391
33086W        W 4702  29.622  20.596  12.800
33087W        W 4703  17.105   7.714   1.193
33088W        W 4704  15.338  18.070  12.308
33089W        W 4705  28.925  27.911   1.597
33090W        W 4706  39.425  39.343  14.777
33091W        W 4707  18.258  10.652   4.021
33092W        W 4708  30.546  44.040  13.500
33093W        W 4709  33.190  42.597  11.022
33094W        W 4710   2.480  15.847   3.880
33095W        W 4711  28.063  42.725  10.666
33096W        W 4712  19.747  13.706   4.645
33097W        W 4713   3.848  22.936  11.120
33098W        W 4714   0.844  27.080  13.352
33099W        W 4715  32.512  36.257  13.907
33100W        W 4716  36.533  11.808  10.093
33101W        W 4717  37.393  33.122  11.958
33102W        W 4718  12.242  24.079   0.256
33103W        W 4719  11.611  24.695   0.412
33104W        W 4720  28.475  28.052  10.747
33105W        W 4721  22.442   3.769  13.910
33106W        W 4722  29.403  22.627   0.862
33107W        W 4723  23.774  14.218   0.013
33108W        W 4724   6.898  14.366   0.809
33109W        W 4725  19.272   2.658  13.120
33110W        W 4726  27.681   4.257  14.459
33111W        W 4727   0.719  14.331   1.005
33112W        W 4728   7.387  19.619   2.723
33113W        W 4729  20.063  40.589  13.409
33114W        W 4730  36.399   4.846   1.435
33115W        W 4731  17.908  14.188   4.058
33116W        W 4732   2.765  13.091   2.353
33117W        W 4733  43.840  30.942  10.471
33118W        W 4734   5.907  31.033  14.496
33119W        W 4735  27.502  26.714   3.810
33120W        W 4736  38.849  16.744   1.857
33121W        W 4737  25.424   5.444  13.927
33122W        W 4738   4.243   3.944   4.713
33123W        W 4739   5.291  30.252   4.190
33124W        W 4740   4.391  33.035  13.899
33125W        W 4741   3.883  13.774   0.403
33126W        W 4742  37.409  34.777   4.135
33127W        W 4743  23.539  41.247   3.319
33128W        W 4744   1.286  36.594   2.378
33129W        W 4745  39.377  19.637   1.267
33130W        W 4746   7.417  24.640  10.700
33131W        W 4747  27.131  36.421  12.945
33132W        W 4748  14.084  31.953   3.445
33133W        W 4749  42.377  20.629   4.573
33134W        W 4750  12.191  30.648   4.668
33135W        W 4751  15.644  18.581  10.278
33136W        W 4752   8.080  15.899   4.935
33137W        W 4753  23.402  14.753  14.502
33138W        W 4754  16.222  21.530   2.251
33139W        W 4755  18.790   0.745  11.694
33140W        W 4756  29.703   1.430   1.778
33141W        W 4757  25.726  28.226   2.284
33142W        W 4758  24.701  21.563   1.231
33143W        W 4759   1.542   6.765   4.117
33144W        W 4760  39.177  19.031   4.822
33145W        W 4761   8.078  11.510   3.212
33146W        W 4762  32.532  25.251   4.503
33147W        W 4763   9.104   2.900   0.535
33148W        W 4764   4.554  26.142  13.477
33149W        W 4765  39.546  26.926  13.209
33150W        W 4766   4.166  32.813   3.425
33151W        W 4767  36.367  38.075  12.474
33152W        W 4768  12.658  16.756  13.493
33153W        W 4769  35.436   5.344   1.282
33154W        W 4770  21.020  12.636  11.132
33155W        W 4771   7.677  37.508   4.043
33156W        W 4772   7.664  16.499  14.904
33157W        W 4773  35.787  27.458   0.724
33158W        W 4774  42.807  31.503  13.097
33159W        W 4775  13.895  21.783  14.807
33160W        W 4776  34.070  40.730   3.680
33161W        W 4777  23.653  22.582   3.632
33162W        W 4778  17.771  15.774  11.753
33163W        W 4779  43.019  32.672   4.941
33164W        W 4780  20.667  18.151   1.706
33165W        W 4781   5.901  20.338  13.947
33166W        W 4782  41.939  14.749   2.485
33167W        W 4783  19.157  38.360   3.262
33168W        W 4784   2.349   9.386   4.700
33169W        W 4785  10.565  32.929  11.835
33170W        W 4786  32.842   1.032   0.296
33171W        W 4787  21.999  27.125  10.662
33172W        W 4788  19.827  12.375   0.441
33173W        W 4789  32.862  28.867   0.780
33174W        W 4790   9.433  28.910   2.839
33175W        W 4791  22.773  23.173  12.957
33176W        W 4792   7.332   0.445   4.679
33177W        W 4793  43.883  32.300   1.566
33178W        W 4794  11.153  11.163  13.010
33179W        W 4795  34.982  39.483  11.216
33180W        W 4796  15.691  18.264  13.562
33181W        W 4797   0.839  14.139  14.511
33182W        W 4798  27.298   6.958  12.973
33183W        W 4799  16.752  29.446  11.453
33184W        W 4800  18.967  27.485  13.503
33185W        W 4801  42.882  33.068  13.246
33186W        W 4802  10.130  44.154  14.338
33187W        W 4803  11.172  30.866  11.087
33188W        W 4804   4.709  23.191  12.422
33189W        W 4805  24.114   7.187  14.355
33190W        W 4806   8.158  33.447  13.269
33191W        W 4807  37.435  11.975  13.486
33192W        W 4808  37.992  35.626   2.651
33193W        W 4809  11.447  17.652  10.746
33194W        W 4810  26.334  28.627   0.999
33195W        W 4811  15.598  36.807   1.107
33196W        W 4812   2.775  36.302  11.681
33197W        W 4813  38.902  23.580  11.234
33198W        W 4814  35.006  36.073   4.684
33199W        W 4815  42.896  33.346   0.281
33200W        W 4816  28.993  11.320  14.773
33201W        W 4817   9.771  10.353   0.084
33202W        W 4818  32.670  23.729   3.708
33203W        W 4819  26.762  15.580   1.438
33204W        W 4820   8.083   2.398  14.166
33205W        W 4821  14.070  16.269   2.933
33206W        W 4822  32.520   9.860  10.468
33207W        W 4823   2.291   7.253   1.996
33208W        W 4824  11.578  16.632   3.795
33209W        W 4825  14.215  18.013  14.745
33210W        W 4826  20.119  29.987   1.390
33211W        W 4827  17.024  35.349  14.752
33212W        W 4828  37.442  28.896  13.507
33213W        W 4829  17.654  34.021   4.418
33214W        W 4830  18.484  26.526  13.373
33215W        W 4831   3.144  35.185   1.264
33216W        W 4832   6.335  11.765  11.093
33217W        W 4833  42.981  33.440   1.318
33218W        W 4834  26.952  41.019  13.394
33219W        W 4835  15.314   7.113  11.117
33220W        W 4836  19.841  32.420   4.499
33221W        W 4837  36.966   0.441   0.260
33222W        W 4838   0.826  40.854  14.756
33223W        W 4839   7.538  18.735  14.539
33224W        W 4840  38.628  32.952  11.473
33225W        W 4841  12.646  36.605  11.026
33226W        W 4842  32.135  11.461  12.577
33227W        W 4843  31.983   1.919  12.429
33228W        W 4844  42.892   0.386   1.838
33229W        W 4845  30.710  11.382  10.637
33230W        W 4846  18.556  29.025  13.903
33231W        W 4847  38.302  34.467   0.763
33232W        W 4848  39.214  17.627  12.935
33233W        W 4849  38.900  33.847  11.850
33234W        W 4850   4.791  42.451  10.695
33235W        W 4851  33.472  14.312   4.994
33236W        W 4852  39.457  18.520   3.701
33237W        W 4853  33.047  32.392   0.660
33238W        W 4854  16.981  26.113  14.975
33239W        W 4855  29.667  33.842   1.424
33240W        W 4856  29.842   9.362  14.780
33241W        W 4857  27.661  31.600  11.106
33242W        W 4858  29.999  14.730  10.616
33243W        W 4859  24.718  13.320   4.770
33244W        W 4860  20.298  44.458  13.386
33245W        W 4861  24.043  17.667   3.284
33246W        W 4862  13.429  43.606  14.918
33247W        W 4863  11.744  26.488   2.330
33248W        W 4864  33.810   7.705   2.915
33249W        W 4865  19.073  15.659  13.867
33250W        W 4866  32.600  34.329   3.658
33251W        W 4867  15.785  10.835  13.604
33252W        W 4868   0.744  26.034  11.931
33253W        W 4869  39.544  41.080  13.905
33254W        W 4870  24.584  18.461  13.515
33255W        W 4871  40.533  23.329   3.635
33256W        W 4872  13.156  44.996  13.936
33257W        W 4873  38.110  20.123  12.570
33258W        W 4874  44.256  34.905   5.029
33259W        W 4875  24.139  10.442  11.134
33260W        W 4876  16.067  35.914   4.579
33261W        W 4877  11.596  36.516   4.057
33262W        W 4878  27.237  16.525  12.959
33263W        W 4879  12.074  30.125   3.787
33264W        W 4880  43.902  38.088   4.016
33265W        W 4881   5.765  40.389   2.945
33266W        W 4882  36.161  33.673  14.276
33267W        W 4883   5.185   3.393   2.323
33268W        W 4884   7.872  33.087  12.092
33269W        W 4885   5.190  32.685   2.665
33270W        W 4886   6.801  13.865  13.702
33271W        W 4887  37.881  33.300   0.422
33272W        W 4888  35.134  36.961   4.649
33273W        W 4889  19.327  13.156   2.707
33274W        W 4890  22.268  30.162   1.384
33275W        W 4891  12.498   1.293   3.319
33276W        W 4892  30.367  13.859   5.081
33277W        W 4893   2.810  28.061  13.841
33278W        W 4894  27.935  16.763   2.900
33279W        W 4895  14.796  39.369   1.613
33280W        W 4896  30.466  22.693   1.784
33281W        W 4897   9.223  42.038   3.787
33282W        W 4898  26.417  36.793   2.507
33283W        W 4899  32.503  35.580   1.964
33284W        W 4900  20.582  28.506  14.862
33285W        W 4901  44.186  24.655   2.378
33286W        W 4902  11.708   6.697   4.456
33287W        W 4903  43.981  44.025   4.147
33288W        W 4904   5.687  16.725  12.023
33289W        W 4905  11.126  34.099   0.020
33290W        W 4906  12.561  25.621   2.346
33291W        W 4907  33.891  34.646  14.917
33292W        W 4908  12.916  33.917  14.063
33293W        W 4909  19.860  27.458  12.473
33294W        W 4910   9.855  35.159  13.930
33295W        W 4911   6.956   7.224   3.348
33296W        W 4912   8.418  35.603  12.953
33297W        W 4913  37.766  35.062   1.107
33298W        W 4914  23.197  35.324   1.900
33299W        W 4915   3.274  39.819  11.555
33300W        W 4916  34.446  35.192  13.127
33301W        W 4917  29.571  17.862   3.675
33302W        W 4918   6.821  23.601   1.246
33303W        W 4919   7.351  18.757   3.227
33304W        W 4920  20.230   1.137   3.966
33305W        W 4921  34.756  37.996  14.386
33306W        W 4922  20.696  17.383   0.407
33307W        W 4923  44.031  17.284  13.743
33308W        W 4924  41.664   0.723  14.203
33309W        W 4925  23.602  17.226  14.001
33310W        W 4926   6.771  38.376   2.741
33311W        W 4927  33.355   8.606   4.104
33312W        W 4928  32.874  30.126  10.578
33313W        W 4929   5.344  20.559   0.672
33314W        W 4930  32.368  14.714  11.958
33315W        W 4931   6.635  34.901   1.862
33316W        W 4932   2.019  38.623   3.186
33317W        W 4933   0.988   2.681  11.353
33318W        W 4934  19.798   1.562  14.763
33319W        W 4935   3.233   5.374  11.946
33320W        W 4936  42.021  41.626  11.505
33321W        W 4937  26.121  23.600   4.581
33322W        W 4938  33.531  31.189   2.604
33323W        W 4939  40.952  18.619  14.067
33324W        W 4940  24.091  12.817  12.036
33325W        W 4941  21.013  23.184   2.413
33326W        W 4942   1.525  41.536  11.496
33327W        W 4943   2.467  43.147   1.805
33328W        W 4944  19.551  43.443  14.532
33329W        W 4945  23.719  36.773   1.329
33330W        W 4946  20.807   0.365   0.354
33331W        W 4947  20.550   1.264  13.906
33332W        W 4948  25.288  10.704   0.804
33333W        W 4949   8.501   4.513   3.738
33334W        W 4950   3.415  32.837   0.006
33335W        W 4951  14.719  15.510   1.142
33336W        W 4952  10.615  44.415   1.188
33337W        W 4953  15.278  30.967  14.768
33338W        W 4954   8.496  17.079   3.235
33339W        W 4955  35.534  28.628  13.463
33340W        W 4956   3.714  16.826   3.124
33341W        W 4957   2.737  40.981   0.032
33342W        W 4958  34.322  17.704   3.125
33343W        W 4959  21.007   7.282  10.747
33344W        W 4960  17.333   4.430  12.467
33345W        W 4961  16.875  11.057  12.925
33346W        W 4962   5.178   3.285  13.771
33347W        W 4963   1.858   8.586  13.108
33348W        W 4964  43.910  10.606  10.719
33349W        W 4965  39.800  11.485  13.798
33350W        W 4966   0.998  10.279  10.180
33351W        W 4967  26.532  21.112  12.852
33352W        W 4968   5.836  25.899  11.539
33353W        W 4969  29.015  37.147   0.321
33354W        W 4970  37.056   0.971   0.618
33355W        W 4971  11.951  13.901   0.782
33356W        W 4972  35.000   3.521  11.471
33357W        W 4973  20.740   2.814  11.495
33358W        W 4974   6.807  40.841   4.417
33359W        W 4975   4.891  33.379   3.707
33360W        W 4976   2.835  16.792   3.096
33361W        W 4977   5.844   4.933   4.743
33362W        W 4978  11.260  27.672  10.576
33363W        W 4979  27.437   6.440   2.112
33364W        W 4980  37.371  13.051   0.214
33365W        W 4981  21.714  29.583   4.498
33366W        W 4982   0.433  40.408   4.636
33367W        W 4983   0.922  33.560  14.771
33368W        W 4984  12.069  12.287  12.987
33369W        W 4985   9.709  35.383  13.454
33370W        W 4986  17.693  39.737   2.170
33371W        W 4987  26.465   8.717   9.995
33372W        W 4988  27.999  19.972   0.266
33373W        W 4989  21.074   9.454  11.544
33374W        W 4990   6.248   4.738   4.468
33375W        W 4991  26.716   5.796   0.868
33376W        W 4992  41.263   0.696  13.874
33377W        W 4993  13.742  40.044  11.184
33378W        W 4994  36.620  11.241   1.242
33379W        W 4995  21.515  15.653  12.022
33380W        W 4996  11.077  41.521  11.406
33381W        W 4997  25.500  15.200  12.847
33382W        W 4998   8.880   9.637   1.829
33383W        W 4999  33.410   1.903   2.365
33384W        W 5000  21.173  25.637   3.692
33385W        W 5001  31.114  20.261   4.852
33386W        W 5002  35.476  22.775  14.602
33387W        W 5003  30.667  39.752   4.137
33388W        W 5004   7.766   7.671  12.887
33389W        W 5005  34.104  20.651   4.029
33390W        W 5006  41.849  27.946  10.662
33391W        W 5007  35.858   5.960  11.763
33392W        W 5008   6.936   2.193  12.943
33393W        W 5009  44.393  34.388  10.606
33394W        W 5010  30.611  43.498  13.524
33395W        W 5011  17.777   1.441   4.625
33396W        W 5012  31.071  12.640   4.029
33397W        W 5013  29.206  25.009  11.947
33398W        W 5014  43.311   0.368   4.701
33399W        W 5015  39.897  10.179  12.546
33400W        W 5016  43.337  15.802  13.001
33401W        W 5017  13.278  31.682  12.484
33402W        W 5018  22.070  20.261   1.884
33403W        W 5019   6.378  43.191   4.547
33404W        W 5020   1.287  27.165   4.315
33405W        W 5021   6.491  12.773  12.941
33406W        W 5022  32.645  42.896  14.049
33407W        W 5023  21.649  44.641  13.760
33408W        W 5024   5.672  39.052   0.997
33409W        W 5025  22.149  12.530  13.399
33410W        W 5026  30.445   3.325  10.746
33411W        W 5027  20.234  26.905   2.250
33412W        W 5028  34.394   1.496  10.758
33413W        W 5029  18.613  11.201  13.222
33414W        W 5030  15.631  29.646  14.439
33415W        W 5031   7.891  20.967   1.413
33416W        W 5032   7.991  11.705  12.121
33417W        W 5033  25.057  14.660  12.584
33418W        W 5034  18.760  20.501   3.458
33419W        W 5035  12.391  38.540  11.147
33420W        W 5036   9.746   0.014  11.196
33421W        W 5037  12.366  43.635   4.201
33422W        W 5038  16.740  28.875  14.327
33423W        W 5039  12.289   9.543  11.641
33424W        W 5040  34.720  24.626  11.506
33425W        W 5041  32.577   6.208  10.762
33426W        W 5042   4.821  11.286  10.722
33427W        W 5043  43.888  24.216  11.161
33428W        W 5044   2.989   4.457   0.735
33429W        W 5045  18.940  40.229  11.098
33430W        W 5046  15.425   0.414  11.669
33431W        W 5047  12.740  39.335  13.116
33432W        W 5048  34.040  44.518   0.294
33433W        W 5049   8.937  18.246   0.912
33434W        W 5050  11.848  19.164   1.741
33435W        W 5051  32.876  34.827  12.325
33436W        W 5052   5.373  25.826  12.932
33437W        W 5053  18.037  37.495   0.377
33438W        W 5054  42.892  26.911  14.359
33439W        W 5055   6.497  29.854   1.689
33440W        W 5056  25.584   4.409   3.198
33441W        W 5057  16.761  41.654  10.447
33442W        W 5058   8.800  14.361  10.579
33443W        W 5059  26.553  24.563   4.832
33444W        W 5060  36.148  24.345   3.304
33445W        W 5061   5.799  30.935   2.545
33446W        W 5062   9.719  16.894   1.706
33447W        W 5063  18.506   3.337  13.052
33448W        W 5064  19.594  40.307  11.879
33449W        W 5065  22.253  25.136  11.136
33450W        W 5066  18.618  38.961   4.399
33451W        W 5067   2.968  26.483   0.217
33452W        W 5068  28.065  43.322   1.961
33453W        W 5069  18.684  38.621  12.024
33454W        W 5070   1.293  14.731  12.388
33455W        W 5071  44.385  10.375  13.895
33456W        W 5072  38.295  10.707  14.975
33457W        W 5073   7.197   9.256   0.839
33458W        W 5074  16.090  31.451   1.251
33459W        W 5075  20.586   6.670   1.590
33460W        W 5076  35.649  13.668  13.491
33461W        W 5077  29.692   3.465   0.414
33462W        W 5078  15.265   1.031  12.955
33463W        W 5079  32.012  32.904  14.012
33464W        W 5080   6.767  38.799  10.345
33465W        W 5081  22.482   6.653   0.898
33466W        W 5082  34.672   5.989   3.743
33467W        W 5083  15.632  34.840   4.071
33468W        W 5084  43.406  32.166  13.445
33469W        W 5085  12.467  10.942  14.654
33470W        W 5086   8.742  31.057  12.880
33471W        W 5087  44.007  43.370  10.690
33472W        W 5088  14.635  35.863   4.227
33473W        W 5089  34.105  40.760  14.235
33474W        W 5090  22.686  14.197  12.535
33475W        W 5091  25.559   5.245  13.477
33476W        W 5092  22.228  15.320   0.721
33477W        W 5093  10.819  36.132   4.792
33478W        W 5094  32.452  28.110  14.475
33479W        W 5095  19.744  13.073  10.916
33480W        W 5096  41.881  34.842   0.820
33481W        W 5097  22.672  23.260  11.128
33482W        W 5098  42.038   1.319   0.464
33483W        W 5099  34.974  12.462   5.083
33484W        W 5100  43.531   7.914  10.823
33485W        W 5101  39.960   1.795   4.743
33486W        W 5102  32.447  38.812  11.115
33487W        W 5103   2.646  43.959  12.369
33488W        W 5104  30.940  35.917  12.048
33489W        W 5105   2.896  11.828   0.776
33490W        W 5106  12.152  29.240   4.763
33491W        W 5107  36.153  15.191  13.022
33492W        W 5108  36.595  29.479  12.535
33493W        W 5109  16.296  42.804   1.274
33494W        W 5110  38.897   7.342   4.657
33495W        W 5111  29.017  26.954  12.226
33496W        W 5112  21.033  32.876  12.602
33497W        W 5113  42.801  39.428  12.737
33498W        W 5114   7.619  20.297  11.622
33499W        W 5115  37.481  18.782  11.303
33500W        W 5116  16.686  25.390   0.947
33501W        W 5117  14.758  23.593   2.583
33502W        W 5118  15.185  44.060  12.633
33503W        W 5119   7.994  40.992   2.235
33504W        W 5120  43.201  22.037   1.221
33505W        W 5121  15.523   2.539   4.114
33506W        W 5122  39.950  38.844   2.051
33507W        W 5123  20.344   1.767  13.941
33508W        W 5124   9.898  17.069   1.234
33509W        W 5125  27.879  10.773  10.965
33510W        W 5126  42.320  10.640   0.684
33511W        W 5127  18.732  19.267   3.729
33512W        W 5128  18.555  38.148  13.815
33513W        W 5129  40.430   3.902  11.609
33514W        W 5130  39.805  22.130   1.132
33515W        W 5131   2.288  26.168   2.737
33516W        W 5132   7.879  18.185  13.059
33517W        W 5133  23.387  19.037  11.954
33518W        W 5134  24.874  25.462   0.383
33519W        W 5135  11.380  26.070  13.485
33520W        W 5136  14.599  27.573  13.540
33521W        W 5137   6.880  10.418   1.692
33522W        W 5138  15.042   2.341  11.970
33523W        W 5139  20.133  42.690  14.983
33524W        W 5140  41.266  15.655  12.409
33525W        W 5141  20.461  25.981   2.213
33526W        W 5142  36.534  16.195  11.029
33527W        W 5143  44.030  43.259   4.608
33528W        W 5144  23.151  43.188  12.806
33529W        W 5145  14.593  17.068  13.737
33530W        W 5146  38.045  40.099  14.477
33531W        W 5147  39.849  24.457  14.826
33532W        W 5148  42.917  26.359   0.234
33533W        W 5149  10.758  40.363   4.001
33534W        W 5150  24.695  24.176   0.995
33535W        W 5151  44.990   8.594  12.061
33536W        W 5152  38.870  33.580   3.819
33537W        W 5153  30.114  16.985   2.518
33538W        W 5154  22.029   1.368   0.525
33539W        W 5155  21.169  26.429  12.506
33540W        W 5156  31.116  14.293  14.786
33541W        W 5157  43.023   6.631   2.211
33542W        W 5158  18.004  16.127   0.825
33543W        W 5159  40.529  18.419   4.661
33544W        W 5160  36.333  21.847   0.475
33545W        W 5161  10.644  24.995  12.923
33546W        W 5162  16.092   4.712   1.978
33547W        W 5163   0.721  14.612   4.099
33548W        W 5164  44.821   5.332  14.976
33549W        W 5165  31.722  20.583   4.229
33550W        W 5166  39.517  19.491  13.138
33551W        W 5167  11.521  10.406   3.807
33552W        W 5168   5.873   0.910   4.061
33553W        W 5169  13.237  30.974   2.986
33554W        W 5170  36.535  39.549   4.577
33555W        W 5171  10.613  36.659   0.952
33556W        W 5172  40.253  32.703  13.339
33557W        W 5173   5.473  32.576  13.398
33558W        W 5174  13.799   3.637  12.577
33559W        W 5175  35.883   2.732  12.501
33560W        W 5176  18.282   5.266   1.196
33561W        W 5177  32.103  14.179  14.083
33562W        W 5178   9.823  26.160  12.233
33563W        W 5179  25.334  11.047  10.368
33564W        W 5180  13.200   5.973   1.507
33565W        W 5181  37.894   9.859  12.905
33566W        W 5182  28.678  31.153  11.568
33567W        W 5183  20.600  17.539   4.190
33568W        W 5184  13.178  40.455   2.915
33569W        W 5185   3.402  13.310  12.474
33570W        W 5186  13.296   4.863   0.394
33571W        W 5187  44.906  27.606  12.599
33572W        W 5188   7.714   3.965  14.399
33573W        W 5189  39.858  36.819  12.319
33574W        W 5190   0.006   4.856  14.315
33575W        W 5191   4.350  24.415  12.021
33576W        W 5192   5.134  19.542   2.310
33577W        W 5193  12.418  15.377  14.392
33578W        W 5194  29.088  12.740  13.382
33579W        W 5195  20.639   2.492  13.412
33580W        W 5196  42.546  33.835  10.702
33581W        W 5197  18.688   8.948   3.785
33582W        W 5198   3.326   1.233   0.387
33583W        W 5199  20.098   8.758   0.858
33584W        W 5200   5.800   5.740  12.192
33585W        W 5201  38.886  26.513  10.192
33586W        W 5202  18.123   8.257   3.793
33587W        W 5203  34.049  27.263  12.350
33588W        W 5204  39.720  38.282   1.005
33589W        W 5205  36.789  21.062   4.592
33590W        W 5206   6.465  24.048  14.865
33591W        W 5207  13.826  14.352   0.510
33592W        W 5208   4.804  11.839   1.132
33593W        W 5209  14.867  16.808   4.308
33594W        W 5210   9.802  14.826   1.903
33595W        W 5211  38.445   4.503   3.224
33596W        W 5212  11.155  34.562   0.275
33597W        W 5213   5.737   4.755   3.773
33598W        W 5214   7.879  39.768   2.398
33599W        W 5215  33.072  22.085  10.727
33600W        W 5216  37.710   6.313  13.999
33601W        W 5217   5.348  40.567   3.201
33602W        W 5218  24.865  35.957  12.315
33603W        W 5219  11.484  12.612   3.986
33604W        W 5220  20.208  28.463   4.230
33605W        W 5221   3.247   4.717  12.466
33606W        W 5222  15.272  41.054   0.299
33607W        W 5223   8.800  26.979   4.279
33608W        W 5224  10.807   6.093  14.306
33609W        W 5225  35.963  38.849   1.763
33610W        W 5226  41.589  22.758   3.549
33611W        W 5227   0.948  23.525   2.867
33612W        W 5228   7.249  17.111  10.671
33613W        W 5229   3.413  41.729  14.336
33614W        W 5230  18.663  32.845  11.666
33615W        W 5231  18.248   4.040  11.565
33616W        W 5232  24.016  32.140  12.323
33617W        W 5233  21.236  29.848  10.774
33618W        W 5234  15.283  20.588   1.869
33619W        W 5235   4.531  23.558   3.329
33620W        W 5236  35.133  23.677  12.079
33621W        W 5237  22.699  20.724  13.468
33622W        W 5238  16.264  15.632  13.298
33623W        W 5239  20.179   9.415  12.434
33624W        W 5240   3.414  33.835  12.026
33625W        W 5241   3.427  40.554  12.605
33626W        W 5242  36.844   5.508  13.038
33627W        W 5243   8.711  34.471   3.897
33628W        W 5244  32.610  17.468   3.471
33629W        W 5245   7.955   2.546  13.337
33630W        W 5246  36.099  34.540   3.115
33631W        W 5247   2.327   0.261  13.281
33632W        W 5248   5.818  41.928   0.791
33633W        W 5249   4.030  41.466  14.895
33634W        W 5250  23.939  30.159   1.433
33635W        W 5251  29.943   8.693   3.378
33636W        W 5252  26.505  21.702  13.505
33637W        W 5253  40.202  18.777   0.465
33638W        W 5254  12.241  10.787   4.188
33639W        W 5255  37.107  10.235  13.202
33640W        W 5256  26.643  37.519  14.345
33641W        W 5257  13.789  25.454  11.641
33642W        W 5258  21.262   9.558   4.653
33643W        W 5259  44.948  32.521  11.694
33644W        W 5260   9.219  39.849  14.662
33645W        W 5261  35.340  18.096  14.304
33646W        W 5262  12.274  16.322  12.843
33647W        W 5263  14.357  34.119  11.184
33648W        W 5264  29.001  40.048  13.414
33649W        W 5265  26.895  27.475  14.023
33650W        W 5266  22.748  29.653   2.737
33651W        W 5267  20.443  27.630  14.843
33652W        W 5268  13.231  33.174  10.344
33653W        W 5269  17.119  33.322  13.641
33654W        W 5270  34.576  11.125   1.957
33655W        W 5271  38.304  13.158  12.913
33656W        W 5272  31.937  42.579  11.491
33657W        W 5273  37.850  32.497   4.503
33658W        W 5274  29.538  25.149  14.428
33659W        W 5275  15.383  12.068  13.287
33660W        W 5276  33.473  35.981  12.113
33661W        W 5277  19.013  37.007  12.442
33662W        W 5278  20.792   5.443   3.234
33663W        W 5279  44.731  20.568   3.231
33664W        W 5280  44.984   9.376   0.405
33665W        W 5281  15.622  28.303  14.645
33666W        W 5282  13.268  39.591  12.386
33667W        W 5283  42.300   0.914   4.292
33668W        W 5284  15.374   6.477  14.962
33669W        W 5285   5.156  10.321   1.125
33670W        W 5286  23.684  32.095   1.474
33671W        W 5287  14.004  14.655   4.097
33672W        W 5288  28.684  34.105   0.915
33673W        W 5289   9.369  13.309  14.381
33674W        W 5290  13.124  16.363  11.927
33675W        W 5291  31.648  38.643  12.402
33676W        W 5292  37.444   6.165   4.614
33677W        W 5293  24.875  33.870   0.743
33678W        W 5294   1.009   6.392   0.961
33679W        W 5295  33.344  41.941   3.332
33680W        W 5296  29.935  29.257   1.816
33681W        W 5297  22.664  27.164  13.080
33682W        W 5298  23.051   2.542  10.496
33683W        W 5299  20.026   4.323   4.559
33684W        W 5300   2.159  39.044   2.925
33685W        W 5301   0.422  30.183  14.967
33686W        W 5302  21.970   2.024  12.997
33687W        W 5303   6.217   8.762   5.168
33688W        W 5304  21.642  29.961  11.087
33689W        W 5305  32.883  38.723   2.383
33690W        W 5306  13.382  42.291  14.914
33691W        W 5307   9.156  28.959  14.056
33692W        W 5308  22.156   2.792   4.287
33693W        W 5309  21.768  27.496   1.009
33694W        W 5310  44.435   2.866   4.261
33695W        W 5311  41.461  42.771  14.127
33696W        W 5312  24.988  39.278  13.836
33697W        W 5313  25.463  29.528   0.654
33698W        W 5314  28.503   1.298   4.554
33699W        W 5315  23.906  42.809   1.717
33700W        W 5316  27.971   7.713  10.232
33701W        W 5317  11.665  36.111   3.741
33702W        W 5318  15.882   1.956  10.659
33703W        W 5319  33.856  24.722   1.008
33704W        W 5320  44.489  40.857  13.927
33705W        W 5321  23.233  10.116  12.900
33706W        W 5322  32.402  25.668   1.765
33707W        W 5323  16.598  29.994   3.574
33708W        W 5324   7.614   2.578   0.400
33709W        W 5325  14.296  20.142   1.380
33710W        W 5326  36.523  23.522   1.592
33711W        W 5327   6.168  16.369  13.053
33712W        W 5328  17.904  43.337   9.841
33713W        W 5329  34.012  18.059  14.315
33714W        W 5330   1.650  38.902   2.849
33715W        W 5331   8.640  17.157   2.746
33716W        W 5332  16.973  42.392  12.351
33717W        W 5333  17.121  17.622   1.537
33718W        W 5334   6.695  25.542   4.917
33719W        W 5335  34.039   6.709  13.828
33720W        W 5336  43.006   2.803  11.810
33721W        W 5337  43.579  39.042  11.833
33722W        W 5338  34.135  15.722  14.286
33723W        W 5339   3.332  25.356  11.395
33724W        W 5340  30.225  44.862   4.201
33725W        W 5341   3.603  23.717   4.735
33726W        W 5342  13.542  40.485  11.484
33727W        W 5343  16.185  29.667   4.779
33728W        W 5344  10.529  38.545   4.053
33729W        W 5345   1.477   5.922  12.775
33730W        W 5346   2.970  28.251  12.062
33731W        W 5347   3.963  40.006   4.044
33732W        W 5348  14.600  21.488  12.477
33733W        W 5349  20.313  31.349  14.815
33734W        W 5350  22.738  11.759   4.027
33735W        W 5351  24.675   0.707   0.362
33736W        W 5352  32.020  10.304  14.342
33737W        W 5353  43.351   3.733  14.789
33738W        W 5354   2.936  32.231  14.419
33739W        W 5355  44.620  23.631   3.220
33740W        W 5356  20.551  11.706  14.988
33741W        W 5357  12.260  23.561   0.446
33742W        W 5358  11.075  27.141   1.326
33743W        W 5359  25.527  32.633  13.562
33744W        W 5360  32.699  44.955  11.360
33745W        W 5361  43.604  27.469  11.462
33746W        W 5362  38.597  43.061  13.505
33747W        W 5363  17.311  25.255   3.712
33748W        W 5364  28.531  14.086   1.767
33749W        W 5365   1.191  44.206   2.659
33750W        W 5366   5.012  12.184   1.446
33751W        W 5367   0.450  34.737  13.839
33752W        W 5368  11.821  31.990   1.307
33753W        W 5369  15.162  10.859   1.570
33754W        W 5370  27.143  44.543  11.177
33755W        W 5371  13.029  34.935  11.275
33756W        W 5372  20.501  42.318  11.126
33757W        W 5373  20.213  32.353  13.558
33758W        W 5374  34.952  31.610   3.003
33759W        W 5375   3.744  40.047   0.817
33760W        W 5376  42.067  29.496  14.887
33761W        W 5377   5.619  13.083   0.538
33762W        W 5378  40.238   0.672  11.149
33763W        W 5379   0.360  42.179   2.934
33764W        W 5380  13.708  30.819   0.387
33765W        W 5381  38.763  30.976  12.653
33766W        W 5382  37.526   7.948   5.085
33767W        W 5383  35.894  20.869   3.687
33768W        W 5384  16.050  27.431   4.542
33769W        W 5385  36.514  26.394  14.710
33770W        W 5386   7.395   1.746   0.006
33771W        W 5387  30.345  10.166   0.684
33772W        W 5388  27.856   4.275  13.118
33773W        W 5389  27.695  40.557   3.346
33774W        W 5390   7.320  40.959   0.777
33775W        W 5391  11.699  11.827  13.370
33776W        W 5392  17.161  30.689   3.655
33777W        W 5393  43.307  41.182   1.196
33778W        W 5394  32.660   8.577  12.588
33779W        W 5395  35.150  37.089  11.928
33780W        W 5396   2.389   2.001  13.348
33781W        W 5397  41.759  15.795  10.643
33782W        W 5398  27.939  33.474  10.307
33783W        W 5399  42.605  23.376  10.586
33784W        W 5400  11.815  22.734   2.023
33785W        W 5401  42.215  18.919   2.995
33786W        W 5402  40.346  16.551   4.295
33787W        W 5403  20.708  41.878   1.041
33788W        W 5404   1.520  28.441   4.229
33789W        W 5405   2.505  40.034  14.437
33790W        W 5406   2.962  37.440  13.314
33791W        W 5407  32.088  22.531  13.839
33792W        W 5408  36.578  26.666  13.815
33793W        W 5409  27.546  40.840   1.436
33794W        W 5410  31.482  13.622   3.621
33795W        W 5411  29.466  13.167  13.329
33796W        W 5412  35.591   2.130  13.019
33797W        W 5413  11.741  40.146   3.171
33798W        W 5414  23.456  24.342  12.411
33799W        W 5415  36.316  33.513  14.783
33800W        W 5416  38.096  21.539  11.652
33801W        W 5417  20.027  30.069  12.868
33802W        W 5418   4.317   3.437   1.334
33803W        W 5419  42.599   6.164   4.348
33804W        W 5420   3.520  19.118   4.868
33805W        W 5421  15.396  42.849   3.567
33806W        W 5422  22.536  38.488  14.699
33807W        W 5423  34.258  42.369   2.113
33808W        W 5424  13.475   5.266  13.942
33809W        W 5425  34.012  10.830  11.252
33810W        W 5426  12.792   0.806   3.249
33811W        W 5427  33.588  40.903  14.842
33812W        W 5428  35.975  13.114  11.882
33813W        W 5429  21.604   6.819  13.121
33814W        W 5430  41.073  26.088   3.358
33815W        W 5431  41.006  29.046  12.903
33816W        W 5432  18.116  42.994  14.892
33817W        W 5433  37.617  15.210   1.955
33818W        W 5434  43.876  19.096  13.802
33819W        W 5435  29.116  24.505   0.005
33820W        W 5436   2.836  35.198   4.001
33821W        W 5437  36.817  21.601  13.292
33822W        W 5438   5.693  42.362   3.460
33823W        W 5439  14.168  24.459   1.763
33824W        W 5440  28.185  40.541   4.157
33825W        W 5441  41.048  38.836   4.187
33826W        W 5442   2.288  39.068  12.431
33827W        W 5443  31.648  38.796  13.788
33828W        W 5444   1.002  24.723  12.163
33829W        W 5445  28.481   8.696   1.136
33830W        W 5446   9.749  12.211   1.881
33831W        W 5447  31.962   2.080  10.235
33832W        W 5448  28.525   6.860   2.478
33833W        W 5449  19.666  10.945  13.838
33834W        W 5450  42.774  42.752  11.519
33835W        W 5451  23.939  33.846   0.923
33836W        W 5452  39.803  19.177   2.242
33837W        W 5453  18.250  22.184  13.825
33838W        W 5454  44.282  15.286  13.864
33839W        W 5455  32.529   5.294   1.327
33840W        W 5456   8.029  16.023  13.316
33841W        W 5457   5.999  28.390  14.085
33842W        W 5458  29.576  18.844  11.143
33843W        W 5459  32.652  26.929  13.394
33844W        W 5460  26.902   4.416   2.543
33845W        W 5461  22.542  30.635   1.899
33846W        W 5462  31.473  43.551  12.057
33847W        W 5463  14.645  38.661  10.706
33848W        W 5464  15.425  10.371   1.314
33849W        W 5465  20.750  21.703   4.046
33850W        W 5466  30.263  30.094  14.631
33851W        W 5467  10.160  35.025   3.924
33852W        W 5468  30.048  14.629   2.990
33853W        W 5469   0.133  18.566   4.166
33854W        W 5470  35.899  26.194  12.896
33855W        W 5471  15.373  33.107  10.943
33856W        W 5472  25.201  44.433  14.475
33857W        W 5473   1.272  42.526  11.543
33858W        W 5474   1.207  11.838  13.872
33859W        W 5475  41.442  33.049  13.604
33860W        W 5476  21.012   1.031   1.848
33861W        W 5477  34.046  23.685   4.880
33862W        W 5478  12.863  14.528  11.729
33863W        W 5479  34.983  39.306  13.860
33864W        W 5480   0.018  16.259   0.028
33865W        W 5481  26.919  27.121   1.794
33866W        W 5482  33.897   8.557   1.367
33867W        W 5483  29.627  38.922  12.440
33868W        W 5484  14.250   9.864   1.898
33869W        W 5485   4.433  26.984   3.285
33870W        W 5486  43.567   8.402   0.633
33871W        W 5487  15.427   1.901   4.640
33872W        W 5488   1.737  36.794  13.607
33873W        W 5489  20.984  29.900   1.644
33874W        W 5490  26.818  38.790  13.016
33875W        W 5491  35.062  14.048  12.015
33876W        W 5492   3.464  22.147  11.491
33877W        W 5493  34.356  41.021  12.858
33878W        W 5494  38.341  24.880   3.815
33879W        W 5495   9.822  17.035   3.343
33880W        W 5496  28.358   1.396   2.252
33881W        W 5497  16.774  33.302   1.368
33882W        W 5498  28.740  13.069  11.043
33883W        W 5499  42.505  39.788  12.488
33884W        W 5500  17.100   1.378   0.071
33885W        W 5501   7.363  18.125   4.616
33886W        W 5502  23.923  24.266  14.871
33887W        W 5503  40.491   3.680  13.508
33888W        W 5504   3.119  19.229   1.025
33889W        W 5505  22.597   9.622   3.195
33890W        W 5506  26.300  22.147  11.986
33891W        W 5507   1.721  10.329   4.427
33892W        W 5508   7.781  15.141  12.986
33893W        W 5509   4.804  13.734   0.570
33894W        W 5510  12.351  12.117   1.170
33895W        W 5511  28.042  27.508   4.118
33896W        W 5512  36.032   6.599   1.467
33897W        W 5513  42.998  14.757  13.883
33898W        W 5514  40.837  44.755  13.915
33899W        W 5515  33.469  40.866  13.970
33900W        W 5516   0.412  23.527  12.970
33901W        W 5517  42.483  29.969  12.837
33902W        W 5518   8.215  24.941  12.502
33903W        W 5519  29.668  11.689   1.259
33904W        W 5520  44.095  13.853   1.641
33905W        W 5521  27.616  29.160   0.848
33906W        W 5522   4.766  34.538   1.474
33907W        W 5523  31.038  33.023  14.231
33908W        W 5524  30.980  26.248   4.540
33909W        W 5525  33.445   6.413   1.622
33910W        W 5526   9.709  35.658  12.424
33911W        W 5527  38.282  32.374   2.782
33912W        W 5528  41.782  24.037  14.729
33913W        W 5529  23.786   3.444  11.232
33914W        W 5530  44.417  34.686   1.219
33915W        W 5531  29.628  27.394  14.971
33916W        W 5532  26.473   5.065   4.119
33917W        W 5533   0.573  14.144   0.319
33918W        W 5534  20.843  36.898  11.170
33919W        W 5535  25.534  41.504   1.767
33920W        W 5536  23.272   2.268  11.902
33921W        W 5537  24.982  33.414   2.378
33922W        W 5538  32.114  34.877   0.730
33923W        W 5539  16.434  11.325   0.969
33924W        W 5540  18.644  32.166  10.716
33925W        W 5541   7.406  42.133  13.440
33926W        W 5542   1.590  13.242  11.172
33927W        W 5543   5.602  18.689   0.999
33928W        W 5544  35.926  21.007   5.207
33929W        W 5545  24.956   1.878  11.129
33930W        W 5546  29.484  27.135  12.027
33931W        W 5547  17.585  43.102   4.224
33932W        W 5548  43.007  25.773   2.621
33933W        W 5549  21.442  33.960  14.411
33934W        W 5550  22.519  42.470  13.588
33935W        W 5551  19.097   4.295   0.404
33936W        W 5552  20.426   7.397   2.776
33937W        W 5553  32.326  19.217  13.057
33938W        W 5554  36.856  21.959   2.792
33939W        W 5555  15.569  25.622  11.956
33940W        W 5556   0.347  41.242   2.871
33941W        W 5557   1.505  41.806  11.076
33942W        W 5558   3.037  11.641   2.257
33943W        W 5559   1.479   9.636   0.491
33944W        W 5560  12.182   3.478   1.154
33945W        W 5561  26.746  31.962   4.303
33946W        W 5562  39.731  19.755   3.492
33947W        W 5563   9.295  43.040   3.584
33948W        W 5564  18.601  22.613   0.049
33949W        W 5565  40.155  21.899  14.766
33950W        W 5566  32.612  40.284  11.092
33951W        W 5567  29.015  13.825  12.896
33952W        W 5568  11.950  32.217  11.068
33953W        W 5569  16.280  25.163  11.558
33954W        W 5570   9.042  28.075  11.968
33955W        W 5571  43.222  14.232   4.323
33956W        W 5572   3.803  36.894   1.398
33957W        W 5573  28.436  17.309   2.088
33958W        W 5574  19.696  35.460  14.944
33959W        W 5575  23.709  26.480   0.710
33960W        W 5576  22.357  41.391   1.156
33961W        W 5577   3.844   2.178   1.221
33962W        W 5578  40.495  41.869  13.718
33963W        W 5579  39.574  39.940   3.321
33964W        W 5580  44.663  24.427   4.150
33965W        W 5581  38.309  19.913   1.805
33966W        W 5582   4.387  26.904  10.458
33967W        W 5583   4.106   8.414  11.097
33968W        W 5584  23.458  23.940  10.905
33969W        W 5585  16.788  11.355   2.181
33970W        W 5586  25.260  24.296  12.583
33971W        W 5587  34.797  30.705  11.645
33972W        W 5588  18.470   9.466   1.367
33973W        W 5589  16.241  21.318  11.941
33974W        W 5590  15.147  18.448  10.271
33975W        W 5591  19.356   2.474  14.579
33976W        W 5592   7.741  39.998   1.004
33977W        W 5593  34.897  26.169   0.899
33978W        W 5594  10.950   0.382  10.601
33979W        W 5595  40.403  36.094   4.189
33980W        W 5596   4.798  26.669  10.707
33981W        W 5597  15.151  43.365   1.010
33982W        W 5598  23.702  22.881   4.048
33983W        W 5599  29.504  21.555   1.863
33984W        W 5600  43.640   1.000  13.777
33985W        W 5601  18.689  36.625  14.620
33986W        W 5602  25.752  17.627   2.928
33987W        W 5603  11.704  29.144  12.913
33988W        W 5604  15.778  36.802  13.846
33989W        W 5605  31.487  20.688   3.773
33990W        W 5606  15.820   4.387  10.588
33991W        W 5607  20.571   6.777  12.887
33992W        W 5608  24.903  23.241   1.630
33993W        W 5609  11.240  41.836  10.636
33994W        W 5610  30.590  38.665  14.001
33995W        W 5611   2.426  40.208   2.714
33996W        W 5612  10.378  39.427  13.324
33997W        W 5613  10.286  23.900   2.236
33998W        W 5614  11.607  33.923   0.144
33999W        W 5615  34.038  40.950   4.153
34000W        W 5616  31.517   5.647   0.989
34001W        W 5617  20.808  40.694   4.360
34002W        W 5618  21.161  23.936   2.910
34003W        W 5619  12.777  25.115   4.366
34004W        W 5620  30.361  41.406   2.947
34005W        W 5621  23.263  15.644  14.594
34006W        W 5622   5.150  16.068   0.401
34007W        W 5623  28.930   7.594  10.394
34008W        W 5624  38.485  34.336  13.503
34009W        W 5625  41.349   4.327   4.395
34010W        W 5626  44.279   0.460   3.370
34011W        W 5627   8.830  10.416  12.595
34012W        W 5628  27.803   2.042  12.686
34013W        W 5629   1.770  16.655   1.493
34014W        W 5630  35.071  15.773   2.407
34015W        W 5631  37.860  31.030  13.600
34016W        W 5632  28.171   2.222  13.027
34017W        W 5633  32.373   6.664  10.680
34018W        W 5634   2.777  29.409  11.263
34019W        W 5635  33.846  26.234   1.850
34020W        W 5636   6.900  38.368   1.017
34021W        W 5637  26.734   9.270   2.480
34022W        W 5638  44.010  36.403  10.520
34023W        W 5639  34.502   2.965   2.942
34024W        W 5640  13.583  27.210   0.769
34025W        W 5641  17.052   0.183   1.488
34026W        W 5642  21.149  29.561  11.807
34027W        W 5643  39.319  22.671  13.220
34028W        W 5644  33.969   1.281   0.906
34029W        W 5645  41.556  19.771   3.797
34030W        W 5646  38.102  34.886   4.105
34031W        W 5647  43.608   0.960  12.476
34032W        W 5648  23.415  24.545   1.816
34033W        W 5649  41.455   2.470  10.974
34034W        W 5650  31.549   0.216   2.222
34035W        W 5651  10.714  35.351  11.175
34036W        W 5652  26.760   8.634   5.059
34037W        W 5653   9.772   4.704   4.446
34038W        W 5654  10.199  16.752   0.198
34039W        W 5655   8.013  22.119  11.426
34040W        W 5656   8.759  39.067  10.524
34041W        W 5657   6.879  42.228  13.193
34042W        W 5658   9.109   5.864   4.380
34043W        W 5659  20.899  39.052  13.989
34044W        W 5660  10.150  44.358   2.667
34045W        W 5661  24.448  22.555  13.296
34046W        W 5662   8.095  39.328  14.412
34047W        W 5663  36.315   1.515   3.140
34048W        W 5664  38.823  12.374  10.982
34049W        W 5665  27.573   8.316  10.906
34050W        W 5666  25.548  39.844  13.668
34051W        W 5667   4.990  37.089  10.546
34052W        W 5668  43.357  29.949   3.382
34053W        W 5669  31.551  18.557   2.374
34054W        W 5670  40.711  30.290   4.129
34055W        W 5671  42.544  41.984  12.491
34056W        W 5672  44.257   6.041   0.026
34057W        W 5673   5.171   2.946   3.209
34058W        W 5674   4.210  30.462   1.874
34059W        W 5675   3.108   0.003   4.635
34060W        W 5676  26.742  43.758  11.179
34061W        W 5677  24.580  42.505  14.396
34062W        W 5678   0.716  22.747   3.155
34063W        W 5679  31.510  35.632  11.109
34064W        W 5680  16.341  28.103   0.788
34065W        W 5681  27.954  27.343  11.915
34066W        W 5682  39.554  31.082  13.927
34067W        W 5683  31.641  33.849  14.302
34068W        W 5684  41.887   4.491  11.857
34069W        W 5685  23.704  32.899  13.785
34070W        W 5686   3.092   9.665  14.332
34071W        W 5687   3.437  11.335  14.757
34072W        W 5688   8.172   8.229   2.120
34073W        W 5689  24.086  20.273   3.769
34074W        W 5690  23.450  43.457   0.777
34075W        W 5691  11.125  34.481  11.167
34076W        W 5692  15.370  14.722   2.400
34077W        W 5693  31.960  25.557  14.875
34078W        W 5694  33.614  13.960   2.358
34079W        W 5695   7.767  40.673   1.879
34080W        W 5696  10.527  41.553   0.507
34081W        W 5697  42.981  21.488   4.376
34082W        W 5698  35.052  30.636   3.194
34083W        W 5699   2.063  11.314   0.388
34084W        W 5700   3.998  39.135   0.439
34085W        W 5701   6.991  37.055   0.047
34086W        W 5702  22.578  18.021  14.837
34087W        W 5703  11.672   5.965   1.540
34088W        W 5704  29.047  15.184  13.337
34089W        W 5705  28.056  34.958   0.495
34090W        W 5706  30.123  35.758   4.108
34091W        W 5707   1.391  30.712   0.937
34092W        W 5708  42.792  44.316  11.721
34093W        W 5709  38.546   4.354  11.688
34094W        W 5710  40.980  26.973   0.460
34095W        W 5711  14.211  16.764   1.643
34096W        W 5712   5.688  11.325   1.744
34097W        W 5713  26.597   7.263   3.705
34098W        W 5714  33.666  33.966   1.514
34099W        W 5715  39.013  18.262  13.514
34100W        W 5716  20.863   7.196  13.004
34101W        W 5717   4.617   0.262   0.820
34102W        W 5718   2.946   8.480  11.954
34103W        W 5719   8.205  23.308   0.479
34104W        W 5720  20.241  15.882   1.851
34105W        W 5721  32.879  15.997  14.236
34106W        W 5722  35.111  42.011  13.338
34107W        W 5723  17.551  35.483   3.932
34108W        W 5724  14.169   0.522  14.802
34109W        W 5725  10.644   2.865  14.143
34110W        W 5726  14.366  36.092  14.555
34111W        W 5727  24.511  35.947   3.715
34112W        W 5728   1.788   6.925   4.586
34113W        W 5729  36.898  43.482  14.736
34114W        W 5730  30.424   4.365  13.257
34115W        W 5731  29.157  33.508   2.249
34116W        W 5732  14.275   7.892  13.484
34117W        W 5733  41.061  41.347   3.682
34118W        W 5734  14.684  14.909  14.272
34119W        W 5735  17.181  36.691   0.062
34120W        W 5736   8.254  40.906  10.480
34121W        W 5737  36.499  44.568   1.661
34122W        W 5738  16.516  29.808  14.272
34123W        W 5739  36.441  34.945  10.907
34124W        W 5740  38.742  29.953  13.974
34125W        W 5741   4.405  31.952   2.330
34126W        W 5742   8.358  21.997  11.038
34127W        W 5743  43.952  19.285  12.564
34128W        W 5744  31.391  36.680   0.781
34129W        W 5745   8.742   8.710   4.552
34130W        W 5746  35.764  22.291   1.421
34131W        W 5747   4.506  16.329   2.134
34132W        W 5748  44.209  23.263   0.550
34133W        W 5749  11.898  24.675   1.751
34134W        W 5750  24.652  42.556  13.481
34135W        W 5751  24.213  44.375  14.171
34136W        W 5752   0.264  31.963  12.094
34137W        W 5753   2.421  15.516   2.441
34138W        W 5754  42.318  35.943  10.276
34139W        W 5755  27.671  32.440   0.768
34140W        W 5756  22.588  35.760  11.604
34141W        W 5757   3.214  29.140   4.378
34142W        W 5758  43.754  43.480  11.167
34143W        W 5759  13.121   9.500  12.492
34144W        W 5760  42.011   6.614   5.123
34145W        W 5761  28.678   2.663   4.380
34146W        W 5762  20.387  38.441   0.228
34147W        W 5763  38.064   0.246  10.939
34148W        W 5764  24.133  40.872  10.917
34149W        W 5765  15.755  24.719   0.284
34150W        W 5766  23.728  23.532  13.848
34151W        W 5767  22.603  39.832   3.689
34152W        W 5768  37.063  42.801  12.151
34153W        W 5769  24.649  43.743   2.825
34154W        W 5770  16.064  20.203   1.377
34155W        W 5771  37.873  10.482   3.613
34156W        W 5772  30.720   1.315  12.436
34157W        W 5773  25.544  24.039  14.047
34158W        W 5774  44.826  11.332   2.899
34159W        W 5775  44.935  28.683   2.127
34160W        W 5776  38.506  20.275  11.604
34161W        W 5777  37.567  37.890   2.611
34162W        W 5778  23.807  37.976   2.807
34163W        W 5779   7.326  20.644  13.316
34164W        W 5780  20.966  14.478   2.804
34165W        W 5781  42.258  44.502   1.224
34166W        W 5782  21.875  10.120  11.241
34167W        W 5783   6.627  35.878   0.929
34168W        W 5784   3.142  33.369   4.300
34169W        W 5785   0.420  13.074  14.871
34170W        W 5786  23.211   9.174   3.767
34171W        W 5787  27.680  22.191   1.035
34172W        W 5788   7.713  32.913   1.772
34173W        W 5789  10.714  38.264  12.137
34174W        W 5790  23.445   2.164   4.553
34175W        W 5791   6.599  31.937  14.673
34176W        W 5792   2.472   2.015   1.702
34177W        W 5793  34.803   0.939  14.854
34178W        W 5794  27.039  15.687   1.841
34179W        W 5795  32.101  37.006  13.808
34180W        W 5796  40.381  44.507  13.949
34181W        W 5797  13.812  29.052   0.244
34182W        W 5798  31.443   8.626  13.483
34183W        W 5799   6.133  19.035  11.207
34184W        W 5800  44.264  34.344  13.392
34185W        W 5801  17.015  36.808  12.665
34186W        W 5802  22.750  23.105  14.975
34187W        W 5803  41.968   5.669  10.885
34188W        W 5804   9.621  37.013  11.573
34189W        W 5805   6.725  36.884   2.420
34190W        W 5806  43.752  28.516  13.544
34191W        W 5807  32.810  11.810   4.511
34192W        W 5808  13.925  17.591  11.533
34193W        W 5809  43.389  12.694   0.164
34194W        W 5810  22.393  17.590   4.220
34195W        W 5811   6.128  17.220  12.284
34196W        W 5812   5.863  37.389   0.196
34197W        W 5813  35.793  40.014  13.495
34198W        W 5814   7.734  41.818   3.369
34199W        W 5815  12.037  15.273   1.238
34200W        W 5816   6.225  38.621  13.711
34201W        W 5817  12.624  36.435   1.694
34202W        W 5818   2.588  35.509   3.650
34203W        W 5819  36.312  31.506   4.798
34204W        W 5820  43.213  13.637   4.930
34205W        W 5821  17.497   5.200  14.267
34206W        W 5822  41.110  16.626  13.302
34207W        W 5823  36.310   2.592  11.424
34208W        W 5824   2.387  11.281   2.384
34209W        W 5825   6.953  12.313  13.110
34210W        W 5826   5.251  22.184  14.999
34211W        W 5827   4.013  25.435   0.341
34212W        W 5828  12.691  43.783   0.790
34213W        W 5829  26.732  41.841   1.015
34214W        W 5830   4.407  23.350  14.786
34215W        W 5831  23.148  22.686  10.691
34216W        W 5832  23.740  44.326   2.387
34217W        W 5833  37.845  29.487   2.194
34218W        W 5834  16.321  19.287   1.918
34219W        W 5835   5.861  38.397  10.692
34220W        W 5836  30.911  10.315   3.741
34221W        W 5837  21.952  33.958  14.471
34222W        W 5838  31.109  41.544   3.638
34223W        W 5839  39.780  23.913   2.346
34224W        W 5840  10.816  23.621  10.969
34225W        W 5841  30.635  10.124   3.330
34226W        W 5842  36.781   4.676  10.591
34227W        W 5843   7.704  30.568   2.744
34228W        W 5844   2.007  32.512  14.909
34229W        W 5845  43.589  11.887   3.314
34230W        W 5846  19.165  15.546   3.318
34231W        W 5847  26.574  19.335   2.620
34232W        W 5848   7.422  36.323  13.817
34233W        W 5849   3.097   7.143  11.454
34234W        W 5850   4.284  42.351   1.083
34235W        W 5851  29.728   4.415   0.473
34236W        W 5852   7.285  22.056  11.839
34237W        W 5853  32.086  20.800   1.286
34238W        W 5854  44.872  37.187   1.470
34239W        W 5855  12.236   9.618  12.520
34240W        W 5856  19.712  29.332   2.555
34241W        W 5857  16.759  29.956  11.574
34242W        W 5858  23.467  20.763  11.583
34243W        W 5859  41.588   3.656   1.238
34244W        W 5860  25.987  42.660   5.348
34245W        W 5861   5.847  27.662  11.888
34246W        W 5862   0.844  11.793   3.093
34247W        W 5863  11.650   4.501  13.896
34248W        W 5864  10.269  11.346  10.664
34249W        W 5865  32.927   4.651  10.701
34250W        W 5866  26.769  41.691  14.362
34251W        W 5867  33.994   9.895  13.399
34252W        W 5868  16.375  17.133  13.357
34253W        W 5869  41.248  25.370  11.621
34254W        W 5870  15.687   4.936   3.187
34255W        W 5871  31.500  18.632   3.808
34256W        W 5872  11.195  27.980  12.887
34257W        W 5873   7.033  13.816  10.956
34258W        W 5874  18.107  17.904  13.997
34259W        W 5875   3.704  40.369  10.431
34260W        W 5876  43.518  41.014   4.057
34261W        W 5877  25.168   9.658   2.269
34262W        W 5878  21.006  33.614  12.058
34263W        W 5879  38.058  29.679  13.443
34264W        W 5880  10.857   0.965   3.143
34265W        W 5881   2.665  27.029  12.447
34266W        W 5882  34.519  19.758   1.681
34267W        W 5883  30.495  42.721  11.132
34268W        W 5884  30.851  10.273   1.901
34269W        W 5885  31.121   8.715  14.428
34270W        W 5886  30.191  27.809   3.618
34271W        W 5887  42.595  21.263  13.474
34272W        W 5888  28.582   3.293  12.280
34273W        W 5889   7.337  39.480  12.809
34274W        W 5890  41.826  35.025  11.681
34275W        W 5891  39.446  34.930   4.566
34276W        W 5892  40.987   8.422  11.531
34277W        W 5893   2.301  42.755  13.612
34278W        W 5894  35.024  14.096   3.892
34279W        W 5895  39.214  38.081  10.752
34280W        W 5896  40.249   2.489  14.050
34281W        W 5897  26.567  29.186  13.403
34282W        W 5898   2.558  38.544   0.781
34283W        W 5899  42.968  13.771   2.849
34284W        W 5900  29.511  36.190   1.277
34285W        W 5901  25.869   0.341  12.071
34286W        W 5902  11.248  22.039  10.353
34287W        W 5903  10.303   4.376   4.253
34288W        W 5904  18.525  24.047  10.598
34289W        W 5905  38.957  13.140   4.481
34290W        W 5906  18.776  36.826  11.164
34291W        W 5907  30.511  23.108   4.292
34292W        W 5908  31.149  41.809   2.695
34293W        W 5909   9.017  30.210  14.795
34294W        W 5910  18.123  22.800   4.587
34295W        W 5911  31.814  33.064   0.975
34296W        W 5912  29.130  18.795   1.307
34297W        W 5913  35.902  31.442   1.778
34298W        W 5914  42.923   5.980  11.607
34299W        W 5915   0.904  30.487  14.900
34300W        W 5916  18.005  35.561  12.411
34301W        W 5917   9.498  43.162   4.907
34302W        W 5918  36.594  38.955   3.669
34303W        W 5919   8.510   1.025  11.282
34304W        W 5920   9.038  39.816   1.315
34305W        W 5921  16.744  18.695   2.393
34306W        W 5922  40.382  20.786   1.635
34307W        W 5923  21.510  10.354  11.503
34308W        W 5924  14.664  18.762   1.047
34309W        W 5925  27.658  30.420   0.889
34310W        W 5926   0.389  36.864  10.201
34311W        W 5927  18.337  40.363   1.853
34312W        W 5928  38.344  43.497   3.556
34313W        W 5929  28.153  17.527  13.937
34314W        W 5930  26.983  29.683   3.068
34315W        W 5931  44.082  31.161   2.353
34316W        W 5932  22.130  21.482   2.644
34317W        W 5933  24.357  12.697  11.629
34318W        W 5934  36.538  21.165  13.179
34319W        W 5935  13.066  18.581  11.390
34320W        W 5936  17.578  14.004   3.039
34321W        W 5937  36.953   1.759  13.653
34322W        W 5938  12.812   3.812   9.966
34323W        W 5939  10.848   6.217  13.811
34324W        W 5940  18.362  38.757   3.335
34325W        W 5941  26.666   3.328   2.847
34326W        W 5942   3.723  22.997  12.502
34327W        W 5943  13.350  31.312  11.724
34328W        W 5944   2.907   9.998  13.338
34329W        W 5945  36.391  32.155   0.300
34330W        W 5946   2.102   4.482   2.177
34331W        W 5947  12.576  16.721   4.595
34332W        W 5948   5.014  11.858   0.315
34333W        W 5949  10.840  25.979  13.502
34334W        W 5950  10.282  17.311   3.179
34335W        W 5951  11.255   8.243   0.506
34336W        W 5952   5.857  22.665   1.844
34337W        W 5953  41.902  42.855  11.172
34338W        W 5954  23.613  38.597  10.403
34339W        W 5955  37.311  31.014   0.153
34340W        W 5956  24.881  28.925   2.274
34341W        W 5957  24.251  35.026   4.114
34342W        W 5958  36.326  29.569  12.095
34343W        W 5959  13.881  40.924  13.289
34344W        W 5960   8.374  36.435  11.628
34345W        W 5961   7.838  44.854   2.829
34346W        W 5962  16.845  11.284  13.736
34347W        W 5963  38.369   8.839   2.301
34348W        W 5964   6.379  42.253  13.036
34349W        W 5965  39.064  19.738  13.129
34350W        W 5966  20.670  12.823  12.852
34351W        W 5967  13.111  29.949  10.604
34352W        W 5968   2.482  18.797  11.527
34353W        W 5969   2.753  24.253  11.641
34354W        W 5970  29.332  33.006   4.557
34355W        W 5971  38.258  27.139  13.690
34356W        W 5972   2.093  13.346  11.202
34357W        W 5973  12.852   5.488  13.140
34358W        W 5974  34.935  22.485  13.371
34359W        W 5975   2.864   0.439   4.834
34360W        W 5976  17.182  40.574  14.539
34361W        W 5977   5.245  38.914   0.699
34362W        W 5978  36.532  17.562   0.826
34363W        W 5979  33.503  41.348   1.684
34364W        W 5980  17.087  17.642  14.327
34365W        W 5981  27.464  10.171   1.004
34366W        W 5982   2.998  14.942   1.331
34367W        W 5983   4.263  26.569  14.766
34368W        W 5984  21.137  43.212   1.628
34369W        W 5985  17.104  12.372   4.583
34370W        W 5986   1.362  12.633   1.877
34371W        W 5987   6.652  39.788   3.669
34372W        W 5988  43.693   1.778  12.899
34373W        W 5989   3.342  39.959  14.964
34374W        W 5990   8.766  24.463  13.173
34375W        W 5991  43.198   6.016  12.032
34376W        W 5992  15.101   7.158  11.998
34377W        W 5993   3.490   1.725   1.925
34378W        W 5994  35.921  42.585  11.096
34379W        W 5995  44.737  18.113  14.385
34380W        W 5996   7.288  11.765  11.176
34381W        W 5997   9.308  43.508  12.929
34382W        W 5998   0.304   0.254   0.370
34383W        W 5999  35.954  43.051   0.287
34384W        W 6000  21.325  11.297  13.424
34385W        W 6001  31.391  18.791   1.931
34386W        W 6002  22.240  28.112  14.406
34387W        W 6003  10.836  37.914   1.196
34388W        W 6004   9.237  21.098  13.905
34389W        W 6005  17.853  36.509   4.352
34390W        W 6006  17.838  13.630   4.697
34391W        W 6007  23.129   8.257   4.649
34392W        W 6008  36.694  11.943   0.823
34393W        W 6009  16.135  43.080  12.651
34394W        W 6010  28.612   5.787   0.621
34395W        W 6011  34.345  19.035   2.328
34396W        W 6012   5.713  18.723  11.021
34397W        W 6013  22.580  36.002   4.278
34398W        W 6014  24.911  25.235  14.891
34399W        W 6015  37.365  30.455   1.488
34400W        W 6016   8.421  16.680  11.498
34401W        W 6017   6.096  36.482   2.722
34402W        W 6018  12.678   2.521  10.684
34403W        W 6019  23.527  32.918   3.300
34404W        W 6020  10.734   7.851   4.790
34405W        W 6021  44.262   9.419  11.650
34406W        W 6022  18.466  12.743  11.126
34407W        W 6023  40.628  41.343  11.638
34408W        W 6024  37.225  32.544  13.044
34409W        W 6025   9.131  38.576   3.500
34410W        W 6026  40.058  25.131   2.818
34411W        W 6027  23.737   3.478  12.519
34412W        W 6028  26.290  44.916  10.709
34413W        W 6029   1.865   0.922   9.727
34414W        W 6030  37.644   9.854   9.720
34415W        W 6031  33.797   6.444  14.754
34416W        W 6032  14.306  16.226   4.952
34417W        W 6033  11.088  17.475   1.732
34418W        W 6034   0.225  26.514   0.931
34419W        W 6035  16.970  24.539  13.363
34420W        W 6036  28.610  44.320   2.638
34421W        W 6037   4.752  16.264  11.683
34422W        W 6038  15.337   6.397   0.823
34423W        W 6039  34.368  18.093  11.930
34424W        W 6040  43.912   5.445   4.414
34425W        W 6041   9.191  44.824  13.341
34426W        W 6042  27.502  40.834  14.866
34427W        W 6043  17.993  27.088  10.743
34428W        W 6044  12.657  40.083   0.400
34429W        W 6045  17.032  24.987   2.984
34430W        W 6046  20.220  31.839  13.477
34431W        W 6047  31.695  17.663  13.815
34432W        W 6048  37.583   9.308   4.783
34433W        W 6049   0.880  32.648   1.703
34434W        W 6050   3.899  42.427   2.376
34435W        W 6051  34.363   9.564  14.373
34436W        W 6052  18.200   8.354   4.289
34437W        W 6053  20.949  29.368   1.334
34438W        W 6054  25.193  39.554  13.440
34439W        W 6055  37.615   2.174  12.224
34440W        W 6056  31.715   6.703   1.887
34441W        W 6057  16.329  39.409  10.711
34442W        W 6058  22.970  20.924   2.414
34443W        W 6059   6.902  34.107  11.055
34444W        W 6060   7.914  43.450   1.395
34445W        W 6061  33.163  11.389  13.005
34446W        W 6062  26.627  22.318   9.652
34447W        W 6063  19.496   2.607   5.024
34448W        W 6064  23.436  17.753   1.267
34449W        W 6065  41.590  21.224   1.542
34450W        W 6066  29.614  21.074   0.190
34451W        W 6067  18.347  17.717   4.375
34452W        W 6068  20.221  13.131   3.227
34453W        W 6069  26.970  10.079  13.378
34454W        W 6070   1.477  18.579   4.035
34455W        W 6071   1.207  14.695   1.817
34456W        W 6072  20.189  40.019  11.178
34457W        W 6073   5.738  33.045   4.112
34458W        W 6074  16.801   6.396  13.488
34459W        W 6075  20.702  14.404   2.242
34460W        W 6076  14.124  34.813   1.016
34461W        W 6077  39.061   3.247  11.943
34462W        W 6078  19.586  28.059  11.543
34463W        W 6079  16.500  22.283  11.963
34464W        W 6080  34.656  36.234   5.042
34465W        W 6081  15.163  14.961   0.757
34466W        W 6082  29.938  39.120   4.048
34467W        W 6083   6.416  41.407  12.853
34468W        W 6084   5.835   5.624   1.761
34469W        W 6085  41.350   2.847  10.629
34470W        W 6086   3.719  21.790   3.621
34471W        W 6087  32.357   0.827  13.982
34472W        W 6088   4.338  20.692  12.183
34473W        W 6089  11.883  14.237  12.478
34474W        W 6090  20.842   5.944   3.308
34475W        W 6091  20.401  22.594  13.101
34476W        W 6092  29.624  38.602  12.044
34477W        W 6093   0.914  34.924   1.604
34478W        W 6094  12.269  36.046  12.006
34479W        W 6095   1.379  28.915  10.929
34480W        W 6096  32.955  28.588   5.682
34481W        W 6097  19.266  31.866  13.206
34482W        W 6098  27.721  32.881   3.308
34483W        W 6099  38.557   8.124  13.976
34484W        W 6100  19.444  14.949  12.128
34485W        W 6101  28.990  26.842   0.533
34486W        W 6102  41.749  33.410  11.952
34487W        W 6103  29.185  18.521   2.696
34488W        W 6104  43.039  43.963   4.238
34489W        W 6105  22.432  11.713  12.685
34490W        W 6106  12.869   8.371  14.427
34491W        W 6107  27.416  11.578   4.488
34492W        W 6108  43.022  23.541   1.106
34493W        W 6109  42.823   0.700  11.604
34494W        W 6110  11.679  39.958   0.272
34495W        W 6111  41.853  31.846   4.654
34496W        W 6112  34.500  30.245  14.325
34497W        W 6113  22.994  43.199  13.305
34498W        W 6114  12.053  19.232   4.895
34499W        W 6115  24.569  28.175  12.580
34500W        W 6116  15.262  38.973   2.310
34501W        W 6117   3.650  18.092   1.504
34502W        W 6118  29.208   4.157   2.185
34503W        W 6119  33.579  24.685   1.935
34504W        W 6120  18.348  30.091   0.910
34505W        W 6121  32.660   8.277  11.555
34506W        W 6122  36.610  13.366   4.738
34507W        W 6123   4.449  25.670   0.224
34508W        W 6124  10.293  21.216  10.577
34509W        W 6125  44.183  17.754  13.953
34510W        W 6126   1.368  13.228  10.709
34511W        W 6127  23.169  14.789   1.462
34512W        W 6128  10.605   4.188   0.927
34513W        W 6129  39.145  42.655   1.358
34514W        W 6130  31.627  22.242  10.580
34515W        W 6131  13.130  13.648  12.387
34516W        W 6132  40.442  25.622  10.892
34517W        W 6133   3.145   1.633   1.317
34518W        W 6134   7.146  34.910  12.637
34519W        W 6135   5.186  29.729   9.844
34520W        W 6136   2.810  44.090  10.490
34521W        W 6137  23.299  31.979  14.232
34522W        W 6138  27.795  29.468   2.304
34523W        W 6139  38.339  38.358   2.576
34524W        W 6140   8.821   4.466  12.310
34525W        W 6141  14.354  12.718  14.489
34526W        W 6142   0.894  13.057   1.233
34527W        W 6143  34.157   0.364  10.670
34528W        W 6144  31.291  34.865  13.349
34529W        W 6145   8.665  21.130  13.924
34530W        W 6146  16.436  36.945  13.598
34531W        W 6147  22.621  36.527  13.830
34532W        W 6148  31.082  41.271   4.728
34533W        W 6149  12.957   3.992   3.692
34534W        W 6150   7.936   8.272   2.862
34535W        W 6151   4.177  10.628  11.583
34536W        W 6152  40.452  40.780   1.015
34537W        W 6153  37.363  14.500   4.122
34538W        W 6154  31.464  22.684   4.273
34539W        W 6155  18.076  36.896   1.338
34540W        W 6156  16.728  33.433   4.571
34541W        W 6157  31.500  14.871   1.846
34542W        W 6158  22.558   1.543   4.131
34543W        W 6159  39.317  19.156  14.705
34544W        W 6160  30.943  14.311  12.125
34545W        W 6161  29.300  42.025   0.295
34546W        W 6162  44.527  36.818   2.641
34547W        W 6163  30.108  34.962  14.946
34548W        W 6164  18.770   5.883  11.642
34549W        W 6165  25.499  12.400  11.096
34550W        W 6166  15.875  41.741  13.977
34551W        W 6167  11.814  44.261  11.129
34552W        W 6168  42.871  38.826   1.661
34553W        W 6169  11.927  19.519   4.499
34554W        W 6170   0.837  21.608  14.973
34555W        W 6171   2.928   4.609  12.852
34556W        W 6172   4.281  17.831  12.569
34557W        W 6173  30.178  16.511   1.767
34558W        W 6174   7.711  26.729   1.695
34559W        W 6175  13.706  27.379   1.783
34560W        W 6176  38.339  11.210   3.153
34561W        W 6177   0.924  18.779   3.668
34562W        W 6178  10.823  43.674   3.614
34563W        W 6179  32.911  24.197   1.659
34564W        W 6180  18.107   3.274  11.043
34565W        W 6181  26.724  29.038  14.764
34566W        W 6182  12.894  25.172   3.818
34567W        W 6183   3.575  19.299   1.926
34568W        W 6184   6.691  38.500  13.498
34569W        W 6185  25.707  12.889  10.347
34570W        W 6186  21.717  34.843   4.491
34571W        W 6187  44.574  13.869   1.789
34572W        W 6188  18.838  18.567   4.242
34573W        W 6189   1.160  15.131   1.190
34574W        W 6190  32.102  13.249  14.902
34575W        W 6191  12.267  16.173   3.092
34576W        W 6192  18.311  21.828  11.921
34577W        W 6193  39.037  27.578   3.213
34578W        W 6194  19.302  32.453   2.391
34579W        W 6195  39.418  36.820  11.516
34580W        W 6196   3.481  11.824   3.640
34581W        W 6197  23.213  23.549  12.951
34582W        W 6198  25.201  34.176  13.094
34583W        W 6199  44.322  41.075   2.565
34584W        W 6200  21.461  14.309   2.782
34585W        W 6201  27.742  14.778  12.072
34586W        W 6202   6.325  37.053  14.283
34587W        W 6203  30.983  41.709   3.170
34588W        W 6204  42.504  15.620  13.164
34589W        W 6205  13.917  26.554   3.259
34590W        W 6206  37.651  14.173   4.824
34591W        W 6207  35.470  24.561  12.923
34592W        W 6208  30.126  32.904   4.390
34593W        W 6209  44.588  41.458  11.683
34594W        W 6210   2.650  29.251   2.679
34595W        W 6211   1.519   0.563   2.330
34596W        W 6212  25.463  17.242   0.888
34597W        W 6213  14.508  36.359   3.075
34598W        W 6214  25.508   1.380   1.939
34599W        W 6215  14.773   6.860   5.508
34600W        W 6216  29.706  44.453  11.897
34601W        W 6217  27.187  17.674  10.443
34602W        W 6218  37.927   6.859  13.296
34603W        W 6219  12.698  26.068  10.907
34604W        W 6220  18.753  20.981  13.171
34605W        W 6221   2.510  10.167   1.278
34606W        W 6222  40.596  32.707   4.076
34607W        W 6223   8.856   3.700   1.669
34608W        W 6224   0.847  29.195   3.245
34609W        W 6225  27.704  22.225  10.734
34610W        W 6226  34.161  28.439  13.909
34611W        W 6227  27.218   5.505  14.792
34612W        W 6228   3.118   8.350  11.118
34613W        W 6229  34.907  17.167   4.123
34614W        W 6230  27.543  38.313  12.504
34615W        W 6231  33.522  39.165   9.701
34616W        W 6232  29.956   3.906   3.357
34617W        W 6233   4.145  16.660  13.209
34618W        W 6234  13.407  39.816   1.385
34619W        W 6235   8.764  37.071   0.833
34620W        W 6236  10.277  12.986   1.907
34621W        W 6237   1.416  30.914   2.354
34622W        W 6238  12.476  10.282   3.333
34623W        W 6239  22.002  39.093  14.766
34624W        W 6240  24.493  35.413  12.629
34625W        W 6241  37.116  27.792  11.901
34626W        W 6242  40.944  22.981   3.666
34627W        W 6243  44.887  27.715  12.052
34628W        W 6244  16.541  18.046  14.813
34629W        W 6245  27.405  34.937   3.245
34630W        W 6246  28.914  10.306  11.613
34631W        W 6247  35.215  16.093  11.606
34632W        W 6248   8.561  44.545   1.961
34633W        W 6249  13.859  36.881  12.119
34634W        W 6250  42.325  18.016   4.143
34635W        W 6251  31.616   2.938   4.226
34636W        W 6252  35.444   9.999   1.728
34637W        W 6253  30.048  39.553  11.888
34638W        W 6254  16.119  18.128  12.800
34639W        W 6255  38.464   9.839  10.921
34640W        W 6256  38.228  24.218  12.560
34641W        W 6257   6.252   2.252  10.542
34642W        W 6258  26.762   1.083   2.278
34643W        W 6259  32.649   7.082  13.494
34644W        W 6260  18.282  32.046   4.804
34645W        W 6261  38.456  15.664   2.758
34646W        W 6262  44.144   8.390  11.073
34647W        W 6263   4.229   8.976   4.684
34648W        W 6264  41.542  27.301  13.524
34649W        W 6265  26.493   6.496  14.829
34650W        W 6266  26.771  20.727  14.535
34651W        W 6267  39.132  33.689  14.433
34652W        W 6268  34.973   8.791   0.449
34653W        W 6269  33.462  31.139  12.774
34654W        W 6270   0.203  13.751  10.992
34655W        W 6271  35.374  30.899  12.949
34656W        W 6272  27.114   7.301   3.923
34657W        W 6273  40.209  33.543   5.130
34658W        W 6274   7.820  41.816  13.601
34659W        W 6275  32.979  33.918  14.401
34660W        W 6276  14.148  23.596  10.788
34661W        W 6277   0.984  38.296  12.401
34662W        W 6278  41.387  10.191   1.743
34663W        W 6279  25.418  16.620  14.003
34664W        W 6280  36.104  34.275   3.569
34665W        W 6281  43.667  27.332  10.458
34666W        W 6282  36.950  27.417   0.379
34667W        W 6283  16.583  35.345   1.912
34668W        W 6284  19.926  25.784  14.864
34669W        W 6285  16.566  41.423   1.321
34670W        W 6286  28.342  31.867   9.554
34671W        W 6287  41.483  16.079   2.275
34672W        W 6288  13.356  36.875  12.139
34673W        W 6289  44.046   8.418  13.914
34674W        W 6290  38.739  27.077  13.484
34675W        W 6291   9.392  21.867   2.101
34676W        W 6292  27.569  43.332  11.045
34677W        W 6293  14.707  28.370   2.703
34678W        W 6294   2.549  44.005  11.500
34679W        W 6295   0.204   8.820  13.882
34680W        W 6296   9.858   9.917  14.420
34681W        W 6297   2.646  11.799   4.582
34682W        W 6298  41.063  12.554  12.042
34683W        W 6299  41.470  10.734  14.462
34684W        W 6300  38.845  44.264  12.519
34685W        W 6301  38.065  10.968   2.770
34686W        W 6302   5.464  18.832   3.378
34687W        W 6303  39.263  35.883  13.175
34688W        W 6304  18.772  35.331   2.780
34689W        W 6305  17.175  26.759  11.450
34690W        W 6306  44.382   0.816  11.442
34691W        W 6307  37.109  32.274  11.029
34692W        W 6308  22.836  23.408   4.230
34693W        W 6309  25.260  44.408  13.469
34694W        W 6310   6.399   4.676  13.447
34695W        W 6311  26.964   9.333  11.632
34696W        W 6312   3.520   4.652   1.825
34697W        W 6313  40.315  22.616   3.895
34698W        W 6314   8.614  22.406   4.891
34699W        W 6315  44.810   0.706   2.652
34700W        W 6316  19.043  21.157   0.910
34701W        W 6317  19.632  37.013   0.013
34702W        W 6318  27.176  11.601  14.034
34703W        W 6319  38.368  27.975  13.333
34704W        W 6320  40.064  37.787  14.668
34705W        W 6321  32.901  42.169  11.084
34706W        W 6322  38.282  34.076   4.572
34707W        W 6323  39.106  25.214   2.437
34708W        W 6324  38.934  27.162   2.928
34709W        W 6325  32.455  16.455   3.695
34710W        W 6326  37.002  17.622   1.397
34711W        W 6327  39.301  30.246  12.883
34712W        W 6328  24.757   1.908   4.695
34713W        W 6329  32.132  44.221   1.232
34714W        W 6330  17.093  21.234  12.057
34715W        W 6331   2.226  32.038  10.687
34716W        W 6332  27.123  43.962   0.418
34717W        W 6333  23.833  36.325   4.233
34718W        W 6334  15.657  23.096   1.230
34719W        W 6335  12.552   9.120  12.020
34720W        W 6336   8.252  23.080  13.516
34721W        W 6337  27.199  22.173  13.288
34722W        W 6338  42.948  13.425   3.833
34723W        W 6339  34.211   1.761   2.718
34724W        W 6340   4.852  23.320   5.160
34725W        W 6341  40.451  39.006  11.244
34726W        W 6342  39.904   9.042  14.515
34727W        W 6343  16.129  13.503   4.155
34728W        W 6344   4.773  13.771   4.674
34729W        W 6345  15.527  18.787  13.345
34730W        W 6346  39.369  33.068   1.192
34731W        W 6347  14.853  19.701   4.543
34732W        W 6348  18.447  27.853   5.074
34733W        W 6349  15.296  14.024  10.449
34734W        W 6350   4.751   9.687   0.805
34735W        W 6351  26.948   1.376  11.267
34736W        W 6352  12.739   1.265   4.562
34737W        W 6353  13.093  18.566   4.281
34738W        W 6354  16.708   1.898  12.571
34739W        W 6355  41.786  12.725  14.824
34740W        W 6356  26.067  38.391   2.209
34741W        W 6357  11.440  30.160   4.584
34742W        W 6358   3.729  26.667   2.984
34743W        W 6359  26.882  32.939   3.644
34744W        W 6360  29.491  30.019   3.423
34745W        W 6361  27.752   8.561   4.534
34746W        W 6362  43.857   1.370   4.094
34747W        W 6363  12.551  41.588  11.125
34748W        W 6364   1.648   0.710   4.733
34749W        W 6365  11.299  31.153  11.952
34750W        W 6366   0.229  16.597  13.117
34751W        W 6367  30.183  41.531   3.672
34752W        W 6368  10.711  37.662   0.759
34753W        W 6369  36.672  35.525  11.177
34754W        W 6370  32.830   1.559   1.507
34755W        W 6371  42.791  11.631   0.730
34756W        W 6372  18.058   9.468  11.955
34757W        W 6373  20.051  24.487  14.821
34758W        W 6374  17.290  42.254   4.138
34759W        W 6375  23.477   6.223   4.659
34760W        W 6376   9.453  39.544  11.504
34761W        W 6377  41.887   1.866   4.576
34762W        W 6378  30.136  26.086   3.624
34763W        W 6379  35.280  16.838   4.922
34764W        W 6380  41.580  43.790   1.277
34765W        W 6381   3.236  40.706   3.616
34766W        W 6382  31.222  32.542   0.411
34767W        W 6383  32.390  31.004   0.758
34768W        W 6384  19.222  14.365  10.791
34769W        W 6385   0.959   3.345   1.674
34770W        W 6386  20.830  30.332  12.440
34771W        W 6387  27.838  23.297  12.045
34772W        W 6388  41.448  21.875  14.774
34773W        W 6389  34.545   8.788   3.477
34774W        W 6390  12.405  17.780  11.651
34775W        W 6391  44.750  24.231   3.170
34776W        W 6392  13.594  12.601   0.891
34777W        W 6393  35.145  20.244  13.790
34778W        W 6394  33.397  12.359   2.694
34779W        W 6395  39.032   4.320   0.184
34780W        W 6396  12.741   2.213   0.737
34781W        W 6397  28.486   9.599   2.300
34782W        W 6398  18.522   4.853   0.940
34783W        W 6399  40.944   6.397  12.635
34784W        W 6400   8.824   7.726   4.599
34785W        W 6401   6.629  35.873  12.880
34786W        W 6402  40.794   0.955  13.983
34787W        W 6403   1.914  36.178   4.237
34788W        W 6404  39.747  41.613   2.868
34789W        W 6405  40.368  37.333  12.903
34790W        W 6406  17.230  44.542   3.254
34791W        W 6407  40.723  28.968   0.838
34792W        W 6408  33.591  14.294  12.959
34793W        W 6409  21.424   7.321   2.926
34794W        W 6410   6.196  29.129  14.918
34795W        W 6411  26.219  17.344  14.141
34796W        W 6412  39.092  22.644  10.056
34797W        W 6413  30.217  30.961   4.811
34798W        W 6414  43.129  43.471   2.677
34799W        W 6415   1.936  35.936  14.230
34800W        W 6416  36.867  41.662   1.205
34801W        W 6417   4.018   2.929  13.741
34802W        W 6418  41.341  11.160   0.762
34803W        W 6419  38.773  27.997  12.679
34804W        W 6420   4.442  14.341   3.015
34805W        W 6421  36.326   7.665   0.830
34806W        W 6422  30.415  11.627   4.628
34807W        W 6423  22.258  37.436   3.315
34808W        W 6424  21.576  42.243  12.428
34809W        W 6425  10.743  20.934   0.764
34810W        W 6426  33.039   3.916   3.147
34811W        W 6427  28.515   2.985  11.238
34812W        W 6428  15.155  15.071   3.217
34813W        W 6429  34.963   6.709   2.653
34814W        W 6430  25.120   6.157   0.388
34815W        W 6431  22.997   2.722   4.704
34816W        W 6432  39.657   8.834  10.974
34817W        W 6433  32.934  20.985   1.809
34818W        W 6434   3.653  39.525   1.372
34819W        W 6435   3.699  17.735   2.891
34820W        W 6436  28.298  13.533   9.562
34821W        W 6437  35.400   4.622  10.393
34822W        W 6438  31.943  23.913   4.608
34823W        W 6439  44.438  11.100   2.371
34824W        W 6440  14.007   7.745   5.063
34825W        W 6441   7.309   1.299   2.228
34826W        W 6442  32.665  31.977   4.741
34827W        W 6443  32.013   0.699  13.323
34828W        W 6444  23.340  31.373   2.184
34829W        W 6445  44.985  38.801   0.732
34830W        W 6446  19.800  15.167  13.747
34831W        W 6447  15.831  35.010   2.675
34832W        W 6448   7.084  34.718  14.420
34833W        W 6449  38.901  18.309   5.310
34834W        W 6450  40.601  31.531  11.938
34835W        W 6451  41.816  24.400  12.404
34836W        W 6452  42.273  39.055  12.932
34837W        W 6453  31.020  10.722   0.805
34838W        W 6454  32.680  33.650   1.875
34839W        W 6455  38.559   6.860   1.534
34840W        W 6456  15.296  15.033   5.099
34841W        W 6457   8.278  15.603   1.936
34842W        W 6458  38.784  16.571  11.177
34843W        W 6459  31.000  17.104   2.707
34844W        W 6460   8.414  22.588  10.531
34845W        W 6461  15.152  17.182   0.268
34846W        W 6462   4.134  15.819  13.890
34847W        W 6463  31.330  30.951  12.833
34848W        W 6464  31.696  22.189  13.774
34849W        W 6465  35.093  24.739   1.945
34850W        W 6466  41.349  44.314  14.864
34851W        W 6467  22.486  20.555  13.907
34852W        W 6468  37.352  13.598  10.267
34853W        W 6469  33.428  10.213   3.653
34854W        W 6470   2.300  40.810   3.172
34855W        W 6471  33.675  34.527  12.181
34856W        W 6472  37.421  24.901  13.881
34857W        W 6473  22.968   6.047  12.002
34858W        W 6474   0.392  39.749  14.265
34859W        W 6475  43.564   4.987   2.656
34860W        W 6476  24.055  41.486  11.122
34861W        W 6477   1.364   8.816  10.339
34862W        W 6478  32.315  16.181   2.434
34863W        W 6479  12.125  26.449   3.871
34864W        W 6480  23.640   6.716  10.979
34865W        W 6481  10.693  30.488   0.676
34866W        W 6482  36.078  38.067  11.099
34867W        W 6483  27.622  34.365  12.396
34868W        W 6484  33.282  34.508   4.633
34869W        W 6485  27.730  27.585   3.296
34870W        W 6486   9.431  22.092  14.940
34871W        W 6487  19.789  13.303   2.482
34872W        W 6488  36.428  34.403  14.739
34873W        W 6489  38.527  14.266   1.756
34874W        W 6490  23.704  29.676  12.578
34875W        W 6491  33.586  42.717  14.442
34876W        W 6492  11.889  35.613   4.221
34877W        W 6493   9.372  15.564   0.901
34878W        W 6494   0.622   0.444  14.993
34879W        W 6495  23.980  37.838   1.816
34880W        W 6496  25.641  14.454  11.582
34881W        W 6497   2.716  17.274   0.631
34882W        W 6498  42.272   2.878  10.762
34883W        W 6499  44.411  40.578  10.661
34884W        W 6500  24.334  20.118  12.643
34885W        W 6501  26.620  24.493   1.380
34886W        W 6502   0.930  32.930   0.525
34887W        W 6503  36.042  44.623  10.254
34888W        W 6504   9.287   1.856   1.355
34889W        W 6505   6.828  35.927   2.155
34890W        W 6506   2.239  13.298   4.590
34891W        W 6507  16.516  38.013  13.823
34892W        W 6508   7.072  10.257   2.168
34893W        W 6509  42.362  44.545   4.226
34894W        W 6510   6.601  31.506  14.316
34895W        W 6511  26.358  37.925  10.735
34896W        W 6512  32.141  37.828  11.993
34897W        W 6513   3.389  14.034   1.046
34898W        W 6514   8.292  34.888   0.758
34899W        W 6515   2.418  28.504  11.003
34900W        W 6516  30.695  14.302  11.281
34901W        W 6517  33.416  31.440  13.511
34902W        W 6518  18.172  42.136   1.239
34903W        W 6519  16.757  32.848  11.956
34904W        W 6520  36.428  31.568  11.925
34905W        W 6521  38.551   9.660  11.908
34906W        W 6522  10.900  17.781   2.692
34907W        W 6523  44.542  23.049  12.065
34908W        W 6524  12.388  21.443  13.534
34909W        W 6525  39.357  11.268   1.792
34910W        W 6526  11.027  17.292   3.801
34911W        W 6527  36.630   8.899  14.557
34912W        W 6528   6.290  11.356  13.812
34913W        W 6529  29.981  31.886  12.094
34914W        W 6530  38.603  11.912   0.258
34915W        W 6531  29.964  28.636  12.529
34916W        W 6532  39.086  28.733  10.724
34917W        W 6533  41.952   9.227   1.234
34918W        W 6534   2.903   0.291  14.593
34919W        W 6535   6.223  35.089  11.574
34920W        W 6536   5.132   7.632  13.029
34921W        W 6537  29.490  26.528   3.721
34922W        W 6538  41.693  34.542  12.048
34923W        W 6539   4.344  44.188  13.906
34924W        W 6540  31.092   7.219   4.827
34925W        W 6541  26.590  10.413   2.213
34926W        W 6542  31.538  19.223   3.838
34927W        W 6543  41.414  11.189   2.558
34928W        W 6544  41.795  12.800   3.776
34929W        W 6545   0.473  13.735  13.963
34930W        W 6546  11.987  29.440   4.293
34931W        W 6547   7.953   8.844  10.124
34932W        W 6548   1.011  25.899   1.777
34933W        W 6549  38.758   5.227  11.594
34934W        W 6550  41.096   7.843   1.878
34935W        W 6551  26.571   6.856  13.554
34936W        W 6552  39.965  41.793  13.625
34937W        W 6553  40.595  37.949  13.637
34938W        W 6554  33.171  36.799  14.374
34939W        W 6555  31.461  29.585  13.995
34940W        W 6556  33.104  33.953   1.690
34941W        W 6557  14.820  33.877  10.495
34942W        W 6558   3.725  21.576   1.356
34943W        W 6559  12.947  19.610  11.592
34944W        W 6560  42.345  31.655   2.571
34945W        W 6561  39.990  15.880   2.712
34946W        W 6562  15.655  31.528   0.983
34947W        W 6563  40.371  30.014   1.149
34948W        W 6564  41.437   9.351   2.918
34949W        W 6565   4.955  35.573   3.208
34950W        W 6566  37.494  37.782   4.175
34951W        W 6567  18.070   5.565   2.721
34952W        W 6568  38.506  11.494   1.355
34953W        W 6569  21.537  21.310  10.147
34954W        W 6570  10.444  10.868  14.862
34955W        W 6571  14.353  18.116   1.710
34956W        W 6572  42.294  24.134   1.419
34957W        W 6573  19.560  16.673   3.725
34958W        W 6574  28.050  38.313   0.750
34959W        W 6575  22.167  37.885   1.971
34960W        W 6576  41.885  25.642  12.073
34961W        W 6577  44.079  24.045  14.329
34962W        W 6578   9.653  26.600   4.135
34963W        W 6579  12.098  30.061  10.739
34964W        W 6580   2.599  16.742   2.287
34965W        W 6581   6.425  16.616   4.160
34966W        W 6582  29.981  40.786   4.288
34967W        W 6583  43.252  42.827  11.629
34968W        W 6584  14.601  29.458  11.704
34969W        W 6585  40.996  15.287  12.662
34970W        W 6586  19.453  23.274  14.645
34971W        W 6587   0.653   5.444  14.662
34972W        W 6588  29.591   6.729   1.839
34973W        W 6589  22.767  17.204  11.025
34974W        W 6590  36.591  25.761  13.380
34975W        W 6591  12.959  34.697   2.801
34976W        W 6592  17.010  33.515   0.112
34977W        W 6593  24.995  18.565  14.984
34978W        W 6594   1.445  10.830  11.188
34979W        W 6595  11.091  34.480   4.162
34980W        W 6596  39.352  15.510   2.799
34981W        W 6597  39.248  37.870  14.927
34982W        W 6598  39.522  33.559  13.549
34983W        W 6599  16.102  40.775  12.362
34984W        W 6600  36.484  33.114  11.160
34985W        W 6601  28.522  26.451   2.876
34986W        W 6602  30.219  18.062  11.319
34987W        W 6603  11.771  25.606  11.336
34988W        W 6604  10.336  31.634  10.616
34989W        W 6605   2.967  28.349   0.662
34990W        W 6606  38.626   8.209   1.841
34991W        W 6607  11.588  18.083  12.611
34992W        W 6608  10.370  31.963  14.069
34993W        W 6609  18.102   5.147   4.060
34994W        W 6610   3.793   9.375   1.684
34995W        W 6611   9.899  29.010   1.816
34996W        W 6612  28.902  42.898   0.876
34997W        W 6613  25.818  38.899  13.070
34998W        W 6614  37.912  43.940   0.455
34999W        W 6615  16.614  38.575  11.142
35000W        W 6616  33.447  42.501  10.582
35001W        W 6617   9.013  36.895  13.237
35002W        W 6618  20.761   0.502  13.381
35003W        W 6619   8.725   1.705   4.584
35004W        W 6620   2.322   4.809   3.595
35005W        W 6621  20.333  26.043  11.126
35006W        W 6622  20.111  38.654   1.924
35007W        W 6623   2.982  27.021   0.736
35008W        W 6624  35.415  28.607   3.578
35009W        W 6625  40.824  29.972  13.802
35010W        W 6626  42.594  22.803  13.103
35011W        W 6627   4.644  22.675  11.097
35012W        W 6628  10.679  12.161   4.036
35013W        W 6629   8.953  21.714   0.744
35014W        W 6630   9.443  27.180   2.802
35015W        W 6631  15.286   6.826  11.560
35016W        W 6632  13.638  15.872  12.946
35017W        W 6633   4.952  26.933  13.613
35018W        W 6634   5.448  11.900  13.148
35019W        W 6635   3.428  11.184  12.346
35020W        W 6636  10.314  10.208   2.235
35021W        W 6637   0.344  24.148   1.951
35022W        W 6638   0.513   1.912  13.505
35023W        W 6639  12.041  40.404   1.345
35024W        W 6640  16.322   5.697  13.797
35025W        W 6641  30.452  24.768  14.944
35026W        W 6642  10.198   0.702  10.886
35027W        W 6643  34.985  24.200   4.887
35028W        W 6644  43.437   9.948  13.401
35029W        W 6645   5.448  23.564   0.281
35030W        W 6646   3.819  37.764  14.510
35031W        W 6647  33.603  17.231   0.279
35032W        W 6648  14.793  25.117  12.885
35033W        W 6649  12.237   0.235  14.935
35034W        W 6650  23.036  39.516  11.884
35035W        W 6651  36.815  12.772   3.609
35036W        W 6652   1.817   8.418  11.169
35037W        W 6653  27.724  27.659  14.009
35038W        W 6654   4.313  20.106   0.059
35039W        W 6655  33.071   0.720   3.168
35040W        W 6656   0.223  19.609   4.484
35041W        W 6657  30.013  10.173  14.243
35042W        W 6658  38.951  15.678  12.192
35043W        W 6659  32.650  11.802  13.565
35044W        W 6660  40.317   7.237   2.922
35045W        W 6661   5.899  20.616  10.691
35046W        W 6662  26.486   7.244  12.379
35047W        W 6663   2.258  30.023   1.303
35048W        W 6664   6.519  34.900  14.392
35049W        W 6665  40.020  27.370   0.209
35050W        W 6666  17.158   4.467  14.674
35051W        W 6667  28.140   6.322   0.279
35052W        W 6668  40.316  28.419  13.456
35053W        W 6669  24.107  39.518  10.553
35054W        W 6670  36.842  43.764  13.857
35055W        W 6671  26.702   4.473  13.368
35056W        W 6672  20.040  32.300   0.276
35057W        W 6673  43.500  35.475  12.566
35058W        W 6674  18.913  10.117  12.177
35059W        W 6675  20.316  25.199  12.027
35060W        W 6676  20.713  39.994   1.802
35061W        W 6677  25.560  17.289  12.426
35062W        W 6678  19.073  29.956   4.391
35063W        W 6679  15.618   4.281   0.296
35064W        W 6680  18.534  22.278  12.007
35065W        W 6681  29.100   5.482   3.763
35066W        W 6682  43.843  19.174   2.760
35067W        W 6683   4.945  19.058   2.186
35068W        W 6684  16.224  41.764   1.723
35069W        W 6685  25.400  37.598  14.739
35070W        W 6686  20.685  22.124  11.945
35071W        W 6687  29.574  13.148  11.140
35072W        W 6688   5.128  25.834   3.282
35073W        W 6689  31.399   1.337  11.575
35074W        W 6690  17.410  30.446  10.218
35075W        W 6691  34.387   4.937   3.659
35076W        W 6692   0.917  33.085   0.018
35077W        W 6693  11.351  33.067   3.601
35078W        W 6694   3.256   6.964  14.828
35079W        W 6695  39.582   9.298  12.148
35080W        W 6696  37.017  13.825   4.519
35081W        W 6697  12.162  23.465  11.291
35082W        W 6698   6.047  13.371  14.171
35083W        W 6699  31.132  12.578   4.549
35084W        W 6700   7.849  36.348  12.062
35085W        W 6701  10.429   2.935   1.520
35086W        W 6702  16.351  39.001  12.935
35087W        W 6703  44.267  37.967  12.050
35088W        W 6704  40.500  37.953  12.095
35089W        W 6705  12.268  43.044   2.007
35090W        W 6706  38.448  12.366  10.632
35091W        W 6707  18.085  31.375  12.578
35092W        W 6708  24.260  39.903  13.266
35093W        W 6709  12.395  30.835   3.356
35094W        W 6710  20.235  27.165   2.687
35095W        W 6711   3.786   7.078   3.795
35096W        W 6712  15.873  20.171  10.757
35097W        W 6713   0.991  31.143   4.487
35098W        W 6714   5.955  41.287  10.728
35099W        W 6715   1.464   9.169   0.221
35100W        W 6716  32.602   3.724   1.368
35101W        W 6717  18.007  42.562   0.202
35102W        W 6718  31.959  23.065  10.475
35103W        W 6719  31.459  42.994  11.078
35104W        W 6720   0.157  12.368  14.425
35105W        W 6721  23.460   3.878  13.919
35106W        W 6722   0.906  39.291   4.606
35107W        W 6723  33.310  16.841   0.468
35108W        W 6724  38.644  41.221  11.996
35109W        W 6725  22.559  43.967  13.217
35110W        W 6726  38.359  17.083  14.299
35111W        W 6727   6.210  10.229   1.645
35112W        W 6728  29.076  13.786  11.944
35113W        W 6729  25.784  36.656   1.314
35114W        W 6730  19.561  37.816   1.868
35115W        W 6731  36.982  34.436   3.085
35116W        W 6732  34.889  34.683  13.492
35117W        W 6733  20.703   8.392  13.561
35118W        W 6734   2.880   2.223   3.105
35119W        W 6735   6.380  26.967   0.361
35120W        W 6736  35.611   0.820   1.787
35121W        W 6737   5.668  28.566   0.475
35122W        W 6738  23.034  15.699  11.817
35123W        W 6739  36.591   0.837  12.768
35124W        W 6740  11.542  32.495   4.273
35125W        W 6741  29.435  23.171  14.870
35126W        W 6742  38.955  27.427  11.956
35127W        W 6743  17.856  10.785  11.352
35128W        W 6744  11.895   2.953   4.559
35129W        W 6745   7.301  11.659  10.667
35130W        W 6746  43.377  38.841  12.397
35131W        W 6747  34.031   6.284  13.538
35132W        W 6748  31.432  23.454   1.128
35133W        W 6749   7.195  40.050   4.317
35134W        W 6750  24.554  25.300  12.688
35135W        W 6751   7.145  28.228   1.505
35136W        W 6752  28.970  12.807   0.609
35137W        W 6753  35.661   1.953  11.291
35138W        W 6754  33.567  23.569  10.813
35139W        W 6755  21.239   9.644  11.063
35140W        W 6756  28.486  31.282   1.610
35141W        W 6757  31.595   5.141   0.900
35142W        W 6758  26.482   3.982  12.435
35143W        W 6759  39.303  44.463  12.419
35144W        W 6760  14.064  19.635   4.207
35145W        W 6761  30.064  32.172  13.388
35146W        W 6762  15.684   3.651   2.682
35147W        W 6763  41.345  13.839   2.819
35148W        W 6764   2.431  34.614   2.222
35149W        W 6765  29.121  34.500   4.262
35150W        W 6766  36.061  40.062   4.172
35151W        W 6767   7.203  13.110   3.265
35152W        W 6768  18.237   3.665   0.694
35153W        W 6769  37.332  34.845   0.910
35154W        W 6770  36.954  43.736   4.643
35155W        W 6771  27.960   8.105  12.867
35156W        W 6772  33.335  23.044   3.364
35157W        W 6773  35.885   2.058   4.122
35158W        W 6774  33.903  37.877   2.757
35159W        W 6775   4.080  40.546   0.423
35160W        W 6776  29.106  18.367  14.069
35161W        W 6777  18.703   6.444  14.908
35162W        W 6778  40.727  34.089   2.282
35163W        W 6779  37.390  13.561   1.193
35164W        W 6780  41.833  11.314   4.529
35165W        W 6781  15.840  43.733  12.932
35166W        W 6782   3.584  15.089  12.442
35167W        W 6783  32.918  13.047  12.617
35168W        W 6784  29.122  41.317   2.104
35169W        W 6785  35.573  30.052   1.329
35170W        W 6786  16.753  21.665  12.779
35171W        W 6787  34.026   3.704   0.036
35172W        W 6788  42.910   3.769   2.323
35173W        W 6789  41.386  32.265  13.939
35174W        W 6790   8.944  44.752  12.594
35175W        W 6791  35.070  28.623   2.924
35176W        W 6792  11.210  27.850  11.883
35177W        W 6793  22.975  22.252   4.122
35178W        W 6794   5.038   4.291  13.438
35179W        W 6795  18.730  12.220  13.389
35180W        W 6796  35.662  18.738   3.250
35181W        W 6797   3.802  36.120   1.882
35182W        W 6798  30.437  36.510  11.163
35183W        W 6799  32.563   3.421   0.395
35184W        W 6800  29.729  39.473  11.099
35185W        W 6801   9.790   5.565   2.539
35186W        W 6802  26.174   3.949  14.783
35187W        W 6803   3.760  13.301  13.167
35188W        W 6804   9.265  13.051  11.671
35189W        W 6805  36.983   7.608   2.363
35190W        W 6806  33.365  44.218  12.058
35191W        W 6807  18.318  24.163  11.627
35192W        W 6808  39.793   0.361  11.106
35193W        W 6809   8.241  40.552   0.288
35194W        W 6810  30.903  29.737   3.229
35195W        W 6811  32.465   9.126  10.994
35196W        W 6812  12.786  17.570   2.770
35197W        W 6813  37.321  17.782   3.251
35198W        W 6814  27.174  36.270   0.318
35199W        W 6815  44.635  21.057  11.305
35200W        W 6816  32.905  25.572  14.902
35201W        W 6817   6.402  29.430   0.294
35202W        W 6818  36.913   2.220   3.320
35203W        W 6819  17.400  43.440   5.186
35204W        W 6820  11.341   1.935   4.301
35205W        W 6821  42.638  13.110   1.290
35206W        W 6822  35.964  44.337  10.709
35207W        W 6823   0.934  22.106  13.876
35208W        W 6824  12.460   7.650  13.362
35209W        W 6825  18.981   1.186  11.941
35210W        W 6826  13.359  20.898  11.119
35211W        W 6827  44.652  22.090   2.797
35212W        W 6828  19.600  43.200   1.759
35213W        W 6829  16.183  22.626  12.704
35214W        W 6830  12.144  29.485   2.042
35215W        W 6831  41.595  12.236  14.786
35216W        W 6832  19.366  34.676   1.331
35217W        W 6833  28.679   2.198  12.904
35218W        W 6834  29.542  38.783  13.922
35219W        W 6835  31.916  32.092   4.173
35220W        W 6836  14.184  17.996   3.759
35221W        W 6837  15.629  14.717   2.854
35222W        W 6838  25.601  19.573  12.466
35223W        W 6839  32.208  21.354   3.856
35224W        W 6840  23.569  42.881   1.346
35225W        W 6841  40.454  28.589   3.785
35226W        W 6842   7.173   0.094   0.796
35227W        W 6843  32.947  18.580   3.189
35228W        W 6844   8.558  13.630  14.364
35229W        W 6845  33.344  38.916   2.230
35230W        W 6846  25.695  39.994  14.544
35231W        W 6847  43.388  12.695  12.800
35232W        W 6848  34.330   9.285   2.704
35233W        W 6849  33.518  30.166   1.473
35234W        W 6850  15.421   4.924  10.006
35235W        W 6851  34.133  15.395  13.873
35236W        W 6852  44.319   8.107  10.635
35237W        W 6853  37.475  32.824   2.716
35238W        W 6854  39.440  34.047   3.669
35239W        W 6855   9.479  18.806  11.623
35240W        W 6856  32.553  30.124   2.340
35241W        W 6857   4.794   6.687  11.653
35242W        W 6858  35.053  23.068   1.125
35243W        W 6859   3.466  44.481   1.570
35244W        W 6860  14.135  33.247  12.316
35245W        W 6861  21.261  17.227   3.119
35246W        W 6862  34.376   0.833  11.906
35247W        W 6863  33.509  11.201  14.394
35248W        W 6864  15.704  32.020   0.824
35249W        W 6865  43.955  36.480   2.619
35250W        W 6866   7.715  12.130  12.076
35251W        W 6867  16.045  41.456   1.297
35252W        W 6868   9.216  10.049  12.769
35253W        W 6869   0.943  26.188  11.466
35254W        W 6870  23.887  41.304  10.678
35255W        W 6871  27.419  37.950  13.478
35256W        W 6872  35.486   0.718  11.890
35257W        W 6873  30.380  17.443   4.622
35258W        W 6874  10.361   4.517   5.111
35259W        W 6875  21.490  35.855  13.500
35260W        W 6876  38.870  41.672   2.958
35261W        W 6877  20.518  35.926  12.099
35262W        W 6878   9.332  37.402  10.592
35263W        W 6879  26.992  14.295   1.769
35264W        W 6880  29.355  16.883   4.559
35265W        W 6881  16.605  43.831   0.470
35266W        W 6882  34.465   5.131   1.002
35267W        W 6883   9.425  32.147   3.736
35268W        W 6884  40.960   8.751   3.853
35269W        W 6885   4.931  42.612  13.021
35270W        W 6886  21.509   2.335   2.348
35271W        W 6887   3.091  11.461   0.472
35272W        W 6888  14.663   1.517   2.768
35273W        W 6889  20.611   7.797   4.693
35274W        W 6890   0.321   8.482  14.730
35275W        W 6891   3.018   7.071  13.679
35276W        W 6892  31.835   4.987   2.343
35277W        W 6893  12.409  33.576   4.230
35278W        W 6894   3.878  37.971   0.017
35279W        W 6895  30.589   6.662  12.009
35280W        W 6896  17.128  11.848   1.878
35281W        W 6897  31.896  25.123   0.558
35282W        W 6898  13.197  10.071  12.394
35283W        W 6899  31.420  21.517   0.461
35284W        W 6900   3.293  30.074  12.793
35285W        W 6901  35.635   2.783   2.863
35286W        W 6902   0.494  42.688  14.914
35287W        W 6903   9.901  22.203  13.892
35288W        W 6904  12.873  39.383  14.873
35289W        W 6905  43.438  16.938   0.394
35290W        W 6906   9.680   8.918   1.759
35291W        W 6907  43.803  38.823  13.727
35292W        W 6908  25.077  13.552   1.868
35293W        W 6909   8.792  31.526  11.631
35294W        W 6910  31.596  40.714  14.363
35295W        W 6911  15.006  16.656   0.351
35296W        W 6912   6.237   5.683   4.200
35297W        W 6913   8.877  39.371   1.097
35298W        W 6914  37.562  43.924  14.832
35299W        W 6915  44.494  19.175  10.761
35300W        W 6916  30.169  15.734   4.606
35301W        W 6917  11.730  11.389  12.557
35302W        W 6918  44.248  28.932  14.466
35303W        W 6919  43.538  31.477  10.843
35304W        W 6920  35.414   7.701   2.544
35305W        W 6921  25.403  23.600   3.638
35306W        W 6922  30.586  31.007  12.563
35307W        W 6923  27.960   8.714   1.456
35308W        W 6924   9.817   5.777   3.648
35309W        W 6925  13.345  32.023  13.399
35310W        W 6926   6.126  13.559   2.329
35311W        W 6927   8.851  41.018  14.605
35312W        W 6928  37.714  12.742   3.755
35313W        W 6929  43.251  17.681   3.223
35314W        W 6930  43.113   5.402   5.089
35315W        W 6931  39.902   4.513   0.241
35316W        W 6932  24.926  20.190  13.850
35317W        W 6933  43.667  28.059  11.574
35318W        W 6934  15.998  26.042   0.071
35319W        W 6935   4.490  43.681  13.896
35320W        W 6936  11.903   0.436  11.312
35321W        W 6937  16.062  13.324  11.961
35322W        W 6938   1.875  43.291  10.579
35323W        W 6939   3.452  14.797   0.311
35324W        W 6940  30.367   3.263   3.161
35325W        W 6941  18.618   5.280   4.151
35326W        W 6942  20.350  42.440   4.126
35327W        W 6943  19.455   5.316  12.581
35328W        W 6944   1.355  34.968   4.354
35329W        W 6945  32.876   1.682   4.244
35330W        W 6946  42.824  21.960   0.853
35331W        W 6947  16.157  31.621  11.065
35332W        W 6948  10.534  40.840  10.306
35333W        W 6949  22.638   1.302  11.213
35334W        W 6950  15.180  44.407  13.990
35335W        W 6951  40.662  14.907  12.594
35336W        W 6952  31.363   0.580   1.733
35337W        W 6953  13.479  25.169  14.401
35338W        W 6954  39.044  42.153  14.508
35339W        W 6955  21.713   9.950  13.971
35340W        W 6956  42.832  38.100  12.349
35341W        W 6957   6.782   2.891   1.861
35342W        W 6958  23.781  10.134  11.652
35343W        W 6959  23.362  38.495  11.207
35344W        W 6960  36.559  24.210  13.419
35345W        W 6961  16.840   2.229  13.516
35346W        W 6962  15.821  20.662   3.836
35347W        W 6963  31.425  36.609  11.495
35348W        W 6964   2.511   0.820  10.678
35349W        W 6965  40.855  29.408  11.533
35350W        W 6966  40.681  30.197  10.907
35351W        W 6967  13.330   2.190  12.344
35352W        W 6968   0.454  24.722   1.326
35353W        W 6969   0.922  34.521  11.509
35354W        W 6970  26.672  28.378  12.976
35355W        W 6971  23.053  42.843   0.440
35356W        W 6972  29.991  37.153  11.391
35357W        W 6973  29.904  21.533   3.716
35358W        W 6974   3.741   8.700  11.539
35359W        W 6975  34.954  19.205   0.732
35360W        W 6976   1.331  20.784  13.920
35361W        W 6977  43.470  31.572   4.842
35362W        W 6978  23.707   3.134  11.670
35363W        W 6979  25.226  15.584   0.304
35364W        W 6980  27.481  24.635  12.823
35365W        W 6981  41.110  28.664   2.136
35366W        W 6982  26.181   8.235  14.402
35367W        W 6983  33.165  18.460   0.781
35368W        W 6984  24.919  12.569   4.108
35369W        W 6985  37.445   4.111  12.400
35370W        W 6986  11.381  34.475   1.734
35371W        W 6987   7.607  26.649  13.148
35372W        W 6988  22.784  33.077   0.655
35373W        W 6989  25.327   3.732  14.422
35374W        W 6990  15.961  18.547   2.974
35375W        W 6991  26.969   4.370   3.059
35376W        W 6992  37.096  23.152  13.449
35377W        W 6993  39.887  35.568  12.934
35378W        W 6994  23.070  10.919   4.350
35379W        W 6995  31.635  36.104   2.989
35380W        W 6996  23.984  38.941  13.867
35381W        W 6997  23.860  19.542   5.148
35382W        W 6998   3.862  30.243  10.722
35383W        W 6999  39.747  14.188  10.420
35384W        W 7000  33.882   5.425   2.363
35385W        W 7001   7.266   4.425  12.923
35386W        W 7002  16.663  43.326  11.146
35387W        W 7003  32.031  41.790   1.765
35388W        W 7004  15.240  24.905  10.738
35389W        W 7005   3.233  26.147  14.311
35390W        W 7006  35.178  24.137  14.133
35391W        W 7007  33.132  12.347  11.094
35392W        W 7008   0.513  22.527   1.327
35393W        W 7009  35.843   2.403  11.511
35394W        W 7010  25.676  33.815  14.192
35395W        W 7011  16.329  14.670  13.456
35396W        W 7012  16.081  20.679   1.153
35397W        W 7013  38.072  15.753  13.063
35398W        W 7014   9.112  18.375  12.481
35399W        W 7015  30.644  37.456   4.571
35400W        W 7016   4.922  44.847   0.874
35401W        W 7017   0.873  20.823   4.146
35402W        W 7018  10.379   1.460  13.966
35403W        W 7019  35.368   4.768  11.410
35404W        W 7020  35.892  44.458  11.671
35405W        W 7021  38.305  28.970  10.300
35406W        W 7022  39.656  28.124  14.872
35407W        W 7023  31.999  16.182   3.241
35408W        W 7024  24.014  33.468   2.899
35409W        W 7025  37.420   8.382   2.129
35410W        W 7026   1.810  26.972   0.349
35411W        W 7027   9.392  44.479  12.459
35412W        W 7028  12.354  30.086   1.760
35413W        W 7029  36.930  32.665   1.028
35414W        W 7030  42.593  37.563   1.192
35415W        W 7031  24.211   1.919  10.707
35416W        W 7032  36.838   7.482   1.703
35417W        W 7033  32.326   1.337  12.929
35418W        W 7034  22.554  17.295  12.369
35419W        W 7035  41.851  17.723  11.171
35420W        W 7036  20.696  36.411  11.966
35421W        W 7037   9.603  26.324  10.612
35422W        W 7038  44.067  23.922   0.252
35423W        W 7039  21.053  38.836   3.045
35424W        W 7040  26.189   6.183   2.474
35425W        W 7041  32.220  43.425  11.508
35426W        W 7042  14.054  29.893   3.252
35427W        W 7043  12.570  42.079  13.503
35428W        W 7044  28.377  25.561   2.323
35429W        W 7045   6.208   7.783   4.365
35430W        W 7046  25.310   6.161  12.517
35431W        W 7047  32.595  34.366  11.620
35432W        W 7048  43.755  36.628   2.140
35433W        W 7049  43.770  12.855  11.525
35434W        W 7050  29.462  21.798   3.649
35435W        W 7051  34.203  30.641  14.164
35436W        W 7052  41.098  33.866  13.938
35437W        W 7053  39.471  38.075   3.275
35438W        W 7054   3.327  15.480  11.116
35439W        W 7055  27.190  19.316   0.210
35440W        W 7056  20.064  37.015  12.470
35441W        W 7057   5.596  29.672   2.119
35442W        W 7058  43.194  41.189   0.228
35443W        W 7059  27.519  44.058  14.728
35444W        W 7060  33.173  10.845   4.739
35445W        W 7061  33.964  30.440   0.180
35446W        W 7062  21.006  32.468  10.889
35447W        W 7063   4.458  22.227   3.775
35448W        W 7064  15.660  29.670  10.817
35449W        W 7065  10.778  22.646   4.449
35450W        W 7066  13.772  25.189  13.544
35451W        W 7067  26.998  13.291  11.979
35452W        W 7068  43.210  13.237  13.956
35453W        W 7069  18.640  18.491  13.575
35454W        W 7070  18.844  13.699  13.390
35455W        W 7071  13.561  10.390   2.089
35456W        W 7072  21.528   3.516   1.352
35457W        W 7073  31.619  17.655  11.548
35458W        W 7074   8.293  11.104   2.902
35459W        W 7075  10.921  28.612   3.729
35460W        W 7076  25.962  14.445   2.376
35461W        W 7077   6.528  30.046   0.764
35462W        W 7078   6.963  19.122  12.553
35463W        W 7079  40.531  34.583  12.478
35464W        W 7080  11.815  12.759   1.327
35465W        W 7081   6.343   5.832  12.853
35466W        W 7082  24.612  27.083  10.863
35467W        W 7083   2.795   2.750   3.199
35468W        W 7084  11.074  32.114   2.302
35469W        W 7085  23.728   3.917   0.799
35470W        W 7086  26.515   8.063   1.479
35471W        W 7087  22.342  43.575  11.607
35472W        W 7088  41.673  26.508   0.805
35473W        W 7089   9.268   7.947   3.803
35474W        W 7090  26.138  14.852  13.945
35475W        W 7091  10.273  13.328  12.511
35476W        W 7092  11.406  15.147  13.377
35477W        W 7093   1.441  40.538  13.807
35478W        W 7094   0.793  36.856   3.198
35479W        W 7095  19.059   6.671   4.134
35480W        W 7096  41.953   2.150  14.836
35481W        W 7097  32.140  26.967   0.269
35482W        W 7098  15.010  39.802   1.865
35483W        W 7099  29.423  28.082   3.419
35484W        W 7100  17.750  27.195  14.390
35485W        W 7101  31.430  10.389  11.270
35486W        W 7102  10.374  37.705  10.120
35487W        W 7103   5.720  23.729  11.506
35488W        W 7104  31.170  35.553  10.727
35489W        W 7105  31.470   0.909  10.636
35490W        W 7106  31.999  23.329  14.303
35491W        W 7107  32.282  20.577  12.619
35492W        W 7108  32.182  17.198   3.284
35493W        W 7109  18.154  39.463   2.302
35494W        W 7110  44.727  21.617   4.183
35495W        W 7111  41.654  44.108   2.869
35496W        W 7112  42.906  18.104  14.042
35497W        W 7113  27.923  17.279  13.497
35498W        W 7114  26.794  31.475  13.354
35499W        W 7115  39.041   3.426  10.124
35500W        W 7116  12.069   6.713   1.835
35501W        W 7117  11.790  36.093  12.674
35502W        W 7118  28.558  44.063   9.860
35503W        W 7119  12.602  16.541   2.875
35504W        W 7120   4.792  32.092   5.420
35505W        W 7121  28.869  19.069   0.931
35506W        W 7122  31.422   3.790   1.122
35507W        W 7123  38.491  26.016   2.606
35508W        W 7124   6.416  11.261  12.943
35509W        W 7125  17.696  30.951   0.774
35510W        W 7126  24.280  43.102   3.890
35511W        W 7127  27.576  38.288  11.089
35512W        W 7128  11.312  30.936   0.807
35513W        W 7129  32.153  39.125   1.880
35514W        W 7130  42.366  14.547   4.115
35515W        W 7131  28.651  42.293   1.458
35516W        W 7132  40.366  38.376   4.101
35517W        W 7133  40.385   6.019   0.937
35518W        W 7134  20.585  22.605  12.114
35519W        W 7135  40.785  32.047  14.560
35520W        W 7136  16.590  34.124   0.004
35521W        W 7137  11.188  19.187   2.120
35522W        W 7138  37.504  36.342   2.694
35523W        W 7139  25.618  16.266   2.442
35524W        W 7140   8.309  29.413  10.715
35525W        W 7141  32.207   0.191   1.664
35526W        W 7142  33.998  41.441  13.576
35527W        W 7143  38.595  12.206  12.403
35528W        W 7144   8.931   2.259  12.144
35529W        W 7145  14.985  30.249  11.973
35530W        W 7146  13.498  31.468  13.101
35531W        W 7147  28.433  32.545  12.144
35532W        W 7148  32.918  32.746  14.266
35533W        W 7149  37.432  16.808   4.140
35534W        W 7150  40.345  37.099  13.420
35535W        W 7151  27.995  35.899   1.922
35536W        W 7152  43.557  19.139  13.412
35537W        W 7153   5.678   5.353   3.276
35538W        W 7154   7.104   9.763   0.889
35539W        W 7155  12.189   5.735   3.328
35540W        W 7156  10.254   5.028  13.921
35541W        W 7157  27.494  14.146  11.529
35542W        W 7158  33.302  38.404   2.373
35543W        W 7159   9.120  32.677  14.608
35544W        W 7160  41.004  35.961   0.794
35545W        W 7161  24.027  37.251   4.929
35546W        W 7162  37.520  12.284   1.586
35547W        W 7163  31.861  17.181  11.173
35548W        W 7164  14.804  13.131   1.859
35549W        W 7165  34.361  25.176  12.506
35550W        W 7166  30.431  26.794   0.698
35551W        W 7167   5.692  15.767   0.875
35552W        W 7168  26.925  40.430   4.640
35553W        W 7169   7.327   6.475   3.683
35554W        W 7170   2.422   1.950   2.914
35555W        W 7171  23.560  12.509   4.236
35556W        W 7172  35.893  14.045  11.066
35557W        W 7173  44.897  24.181   1.700
35558W        W 7174  31.663  14.632  12.553
35559W        W 7175  11.199   5.762   2.475
35560W        W 7176  38.507  14.871  14.429
35561W        W 7177  17.984  11.376   1.785
35562W        W 7178  21.511  24.362   2.155
35563W        W 7179  38.600   2.527   2.717
35564W        W 7180  17.594  35.497   3.397
35565W        W 7181   5.190  38.857  10.408
35566W        W 7182  22.206  41.062  10.772
35567W        W 7183  44.667  24.922  11.631
35568W        W 7184  17.135  26.267  11.523
35569W        W 7185  26.144  28.701  13.044
35570W        W 7186  24.529   6.872   1.971
35571W        W 7187   2.441  12.696  12.963
35572W        W 7188  24.027  21.997  12.899
35573W        W 7189  37.865  21.928   4.677
35574W        W 7190   5.886  31.913   2.376
35575W        W 7191  15.802  20.088  12.892
35576W        W 7192  16.836  21.077  12.530
35577W        W 7193  23.731  14.869  13.872
35578W        W 7194  40.911  15.237   0.200
35579W        W 7195  34.646  23.550   1.248
35580W        W 7196   9.466   9.459   3.699
35581W        W 7197   5.263   2.479   1.334
35582W        W 7198  21.703   9.407  11.216
35583W        W 7199   8.607  19.315  12.979
35584W        W 7200  17.221   0.400   1.039
35585W        W 7201  17.084  35.556  14.284
35586W        W 7202  24.970   1.055   1.020
35587W        W 7203  25.625  15.017   2.811
35588W        W 7204   2.856  28.331  11.213
35589W        W 7205  17.256  39.889  14.802
35590W        W 7206  35.476  15.051   4.686
35591W        W 7207   8.273  15.792   4.424
35592W        W 7208  30.380  23.532  12.866
35593W        W 7209   6.815  24.439  11.220
35594W        W 7210  11.946  40.271   3.812
35595W        W 7211  21.980   2.318  11.995
35596W        W 7212  29.497  13.695  14.019
35597W        W 7213  23.062   0.648  13.465
35598W        W 7214  35.295   5.079   0.845
35599W        W 7215  25.384  42.836   4.762
35600W        W 7216  35.546  41.789   4.249
35601W        W 7217  15.172  23.307   0.519
35602W        W 7218  36.607  15.757  11.972
35603W        W 7219  42.743  10.138  12.931
35604W        W 7220   9.609  12.139  13.021
35605W        W 7221  38.451  34.506   1.974
35606W        W 7222   1.988  30.920   0.200
35607W        W 7223  35.561  19.615   4.311
35608W        W 7224  38.587   9.350   4.688
35609W        W 7225  30.218  40.907   2.374
35610W        W 7226  12.445  20.687   3.797
35611W        W 7227   4.260   1.345  14.959
35612W        W 7228   1.243  37.347  13.368
35613W        W 7229  12.818  27.644   0.471
35614W        W 7230  23.729   4.297  13.865
35615W        W 7231   9.318  37.547   0.819
35616W        W 7232  27.329  35.465   2.959
35617W        W 7233  43.370   2.915   2.037
35618W        W 7234  15.607  34.987  12.862
35619W        W 7235  37.535  22.561   4.976
35620W        W 7236  29.920   0.805  14.596
35621W        W 7237   4.859  30.948  11.934
35622W        W 7238   4.803  31.971   0.928
35623W        W 7239  13.275  23.032   2.404
35624W        W 7240  14.318  29.755  12.020
35625W        W 7241  31.193  24.169   0.812
35626W        W 7242   4.664   0.913  14.009
35627W        W 7243   2.864   8.305   0.953
35628W        W 7244  29.126  18.091   4.834
35629W        W 7245  44.724   9.423   4.282
35630W        W 7246  24.280  30.138  11.071
35631W        W 7247   4.373  32.986  12.270
35632W        W 7248  35.563   4.412  12.924
35633W        W 7249  22.452  40.570  10.773
35634W        W 7250  24.075  19.183   4.302
35635W        W 7251  25.884   8.727  10.969
35636W        W 7252  22.786  37.098  13.418
35637W        W 7253  40.748  33.084  12.865
35638W        W 7254   1.454  17.309   4.631
35639W        W 7255  28.198  19.978  14.800
35640W        W 7256  21.974  17.659  11.598
35641W        W 7257  31.558  11.184   0.295
35642W        W 7258  40.626   1.480  13.922
35643W        W 7259  38.910  38.490   0.417
35644W        W 7260  28.504  21.199  10.123
35645W        W 7261  33.016  28.011   0.202
35646W        W 7262  17.282  38.502  13.419
35647W        W 7263  28.513  36.113   4.504
35648W        W 7264  37.087  39.557   0.507
35649W        W 7265  17.747  29.702   3.238
35650W        W 7266  26.940  31.621  10.657
35651W        W 7267   0.921  21.534  10.694
35652W        W 7268   5.581  40.867   2.851
35653W        W 7269  10.859  15.565   2.311
35654W        W 7270  20.767  31.127  14.017
35655W        W 7271   2.376   4.935   0.183
35656W        W 7272   6.965  41.266   1.925
35657W        W 7273  31.568   8.676  11.601
35658W        W 7274  32.111  25.701   1.318
35659W        W 7275  17.176  27.373  12.004
35660W        W 7276  20.373  17.070   4.201
35661W        W 7277  18.778  25.243   4.526
35662W        W 7278  32.405  43.797   1.020
35663W        W 7279  22.968  12.126   4.598
35664W        W 7280   0.736  38.460   0.328
35665W        W 7281  38.373   1.514  12.431
35666W        W 7282   8.291  15.867  14.923
35667W        W 7283  17.754   0.285  14.530
35668W        W 7284  30.207   5.826  14.792
35669W        W 7285  37.442  33.325  10.908
35670W        W 7286   3.785  35.572   3.684
35671W        W 7287  30.118   1.889  10.591
35672W        W 7288  10.339  37.335  10.540
35673W        W 7289  21.866  32.747   0.545
35674W        W 7290  15.293  27.036   0.510
35675W        W 7291  44.824  40.505  12.657
35676W        W 7292  24.541  18.098   2.023
35677W        W 7293   3.467  20.171   0.920
35678W        W 7294  44.575   0.373   4.177
35679W        W 7295  21.010  18.542  12.721
35680W        W 7296   3.421   3.998   2.146
35681W        W 7297  39.410   4.301  11.991
35682W        W 7298  22.677  22.673   2.315
35683W        W 7299   6.161   8.855  14.898
35684W        W 7300   3.987  19.213  11.343
35685W        W 7301  28.500  10.734  11.703
35686W        W 7302  10.930  18.627  10.796
35687W        W 7303  39.948  18.561  11.240
35688W        W 7304  14.250   2.937  10.716
35689W        W 7305  41.186  13.495   4.122
35690W        W 7306  23.724  30.263  13.426
35691W        W 7307  15.005  22.314   0.295
35692W        W 7308  14.660  12.132  10.634
35693W        W 7309  37.744  22.036  14.979
35694W        W 7310  20.235  29.582  13.607
35695W        W 7311  29.377  16.964  12.129
35696W        W 7312   6.457  37.927   0.562
35697W        W 7313  17.549  22.801   2.233
35698W        W 7314  15.114  26.524   2.533
35699W        W 7315  11.661  42.403  13.970
35700W        W 7316   5.365  38.742  11.421
35701W        W 7317  32.502  37.979  10.539
35702W        W 7318  26.098   7.922   2.138
35703W        W 7319  29.575  27.338   2.850
35704W        W 7320   6.742  34.821   2.363
35705W        W 7321  27.023  28.578  11.444
35706W        W 7322  41.051  27.474   4.112
35707W        W 7323  16.108  43.055   1.915
35708W        W 7324   8.780   6.430  14.030
35709W        W 7325   2.947  25.466  12.361
35710W        W 7326  17.280  14.231  14.909
35711W        W 7327   6.787  39.273   3.660
35712W        W 7328  19.436  42.113   0.553
35713W        W 7329  40.282  18.520   4.205
35714W        W 7330  27.054  18.213   3.174
35715W        W 7331  19.102  23.145  13.078
35716W        W 7332   3.923  23.224  10.696
35717W        W 7333  35.789  13.103   5.043
35718W        W 7334  27.783  26.992  10.668
35719W        W 7335  43.967  12.750  13.906
35720W        W 7336   0.890  35.765   4.071
35721W        W 7337  28.467  31.406  10.978
35722W        W 7338   1.988   3.407  11.629
35723W        W 7339  41.982  28.906   0.283
35724W        W 7340   3.229  33.917  13.963
35725W        W 7341  29.449   5.021   4.236
35726W        W 7342  41.903  24.049   4.672
35727W        W 7343   2.337  14.088   0.362
35728W        W 7344   1.787  12.746  14.685
35729W        W 7345   8.567   9.018   3.615
35730W        W 7346  34.894  40.458  13.070
35731W        W 7347  20.165  16.797  14.940
35732W        W 7348  39.467  22.282  11.077
35733W        W 7349   8.607  27.253  11.050
35734W        W 7350  16.137  14.676  12.973
35735W        W 7351  26.241  13.870  12.589
35736W        W 7352  29.238   9.215   3.283
35737W        W 7353  17.701  28.416  13.995
35738W        W 7354  22.600   6.299  14.344
35739W        W 7355  38.304  32.351  11.082
35740W        W 7356   3.236  43.943  10.800
35741W        W 7357  41.975  43.766   4.195
35742W        W 7358  26.229   2.358  14.216
35743W        W 7359  38.823  22.740   0.335
35744W        W 7360  11.165   5.940  13.069
35745W        W 7361  36.134  36.041  10.465
35746W        W 7362  37.263  37.043   3.843
35747W        W 7363   1.294  10.768  12.979
35748W        W 7364   4.726  31.894   1.904
35749W        W 7365  26.563  37.765   2.750
35750W        W 7366  42.961   3.270  10.895
35751W        W 7367   7.401  42.333   1.152
35752W        W 7368  26.161  13.155  10.416
35753W        W 7369  38.320  10.576  12.021
35754W        W 7370  17.191  16.513   4.580
35755W        W 7371  18.066  19.285  12.040
35756W        W 7372  30.857  13.806  14.043
35757W        W 7373  12.653  11.125  13.988
35758W        W 7374  22.101  31.938  14.710
35759W        W 7375  31.413  12.137   2.208
35760W        W 7376  17.738  26.776  12.977
35761W        W 7377  31.403  19.647   0.504
35762W        W 7378  17.454  37.537  11.078
35763W        W 7379   7.286  12.108  12.383
35764W        W 7380  35.042  37.578   1.254
35765W        W 7381  23.444  14.114   4.139
35766W        W 7382  21.817  13.154  12.009
35767W        W 7383  25.559  44.261  10.250
35768W        W 7384  11.287  26.710   0.023
35769W        W 7385  33.406  13.811  12.944
35770W        W 7386  31.265  29.619  10.918
35771W        W 7387  24.658  15.373  12.475
35772W        W 7388  18.541  34.654  11.822
35773W        W 7389  25.512  34.190  13.846
35774W        W 7390  41.760  27.414  11.968
35775W        W 7391  30.876  37.078  13.915
35776W        W 7392  39.876  17.825  10.664
35777W        W 7393  33.019  34.486  11.383
35778W        W 7394  28.997  23.702  11.568
35779W        W 7395  14.854   7.660   1.373
35780W        W 7396  27.196  14.657  13.397
35781W        W 7397  21.751  17.273   4.895
35782W        W 7398   7.716  39.389   3.629
35783W        W 7399  12.777  26.936   4.500
35784W        W 7400  29.829  35.089   1.913
35785W        W 7401  27.662  16.819  11.522
35786W        W 7402  37.375  32.832  11.101
35787W        W 7403   6.472   1.976   2.888
35788W        W 7404   0.365  18.078  10.592
35789W        W 7405   5.438   3.185   4.604
35790W        W 7406  25.888  37.512  14.910
35791W        W 7407   0.070  37.510   4.774
35792W        W 7408  17.251  21.560  10.616
35793W        W 7409  37.049  12.619  12.954
35794W        W 7410  40.452  40.563  13.383
35795W        W 7411  22.379   0.534   2.226
35796W        W 7412   2.815  14.943  13.901
35797W        W 7413  42.960   3.616  12.201
35798W        W 7414  20.052  19.776  10.656
35799W        W 7415  43.197  37.360  12.657
35800W        W 7416  11.264  13.285  12.825
35801W        W 7417  26.177  28.420  14.376
35802W        W 7418  33.699  29.786  12.656
35803W        W 7419  22.520  34.348   1.467
35804W        W 7420  38.483  25.145   1.420
35805W        W 7421  30.847  11.968  11.653
35806W        W 7422  22.123   8.267  11.392
35807W        W 7423  28.199   0.256  12.006
35808W        W 7424   0.323  15.119  13.832
35809W        W 7425  19.999   6.870  14.372
35810W        W 7426  41.945  16.297   3.142
35811W        W 7427  11.698  22.661   3.832
35812W        W 7428  21.998  14.332   2.824
35813W        W 7429  31.544  37.927   1.126
35814W        W 7430  43.784  32.995   2.839
35815W        W 7431  43.533  11.563   4.266
35816W        W 7432  14.771  22.744  13.902
35817W        W 7433  39.032   9.057  12.951
35818W        W 7434  26.930  44.377  13.820
35819W        W 7435  33.634   7.942  12.574
35820W        W 7436  12.663   8.982   0.768
35821W        W 7437  34.614  25.191  13.867
35822W        W 7438  24.129  21.983   2.361
35823W        W 7439  11.599   7.379  12.149
35824W        W 7440  41.821  22.695  12.018
35825W        W 7441  18.990  15.659   4.614
35826W        W 7442  26.957  29.034  10.735
35827W        W 7443  22.810  40.742  11.104
35828W        W 7444  43.506  30.354   1.738
35829W        W 7445  19.658   1.984   1.996
35830W        W 7446  35.108  34.874   0.252
35831W        W 7447  20.013   4.348   1.928
35832W        W 7448  13.144  41.546   4.324
35833W        W 7449  17.254  22.025  12.422
35834W        W 7450  25.099  15.663  12.909
35835W        W 7451  25.661  12.223   2.689
35836W        W 7452  34.562   6.228   4.200
35837W        W 7453  10.299  15.241  10.630
35838W        W 7454  30.939  37.973   0.923
35839W        W 7455   0.237  40.338  12.391
35840W        W 7456  43.382  23.184   4.602
35841W        W 7457  20.413  39.995  13.846
35842W        W 7458  39.332  34.927   3.161
35843W        W 7459  12.660   4.887   2.313
35844W        W 7460  30.404  29.051  13.272
35845W        W 7461   2.956  43.282  11.108
35846W        W 7462  26.371   0.364  11.188
35847W        W 7463   1.924  17.408   2.947
35848W        W 7464  19.070  42.455  11.454
35849W        W 7465   9.215   9.727  13.310
35850W        W 7466  31.142   5.491   0.664
35851W        W 7467  42.406  24.148   0.405
35852W        W 7468  30.524  21.525   3.311
35853W        W 7469  15.765  20.569   0.257
35854W        W 7470  33.813  31.472  12.314
35855W        W 7471  26.185   6.191  10.649
35856W        W 7472  15.067  26.954  13.394
35857W        W 7473   9.575  11.147  10.475
35858W        W 7474   9.999  29.322   4.092
35859W        W 7475  24.907  37.592  11.097
35860W        W 7476  33.802  41.848   3.091
35861W        W 7477  27.025  23.813   0.255
35862W        W 7478  17.673   1.237  10.646
35863W        W 7479  20.021  14.271  14.668
35864W        W 7480  36.531  29.419  11.645
35865W        W 7481  31.628  15.204   2.747
35866W        W 7482  13.156  38.132  14.797
35867W        W 7483  12.787  13.531   1.520
35868W        W 7484  18.989  42.280  10.733
35869W        W 7485  33.114  36.070   3.196
35870W        W 7486  21.588  32.208  12.904
35871W        W 7487  27.093  37.286   1.503
35872W        W 7488  18.238   6.943   1.948
35873W        W 7489  23.496   5.378  12.430
35874W        W 7490  16.782  12.231   1.253
35875W        W 7491  39.890  44.588   3.073
35876W        W 7492   5.819  11.737  11.717
35877W        W 7493  19.611  12.166   0.880
35878W        W 7494  19.696  31.569   2.997
35879W        W 7495  27.641  24.913   2.178
35880W        W 7496  42.922   7.834   2.722
35881W        W 7497  19.631  23.461   0.183
35882W        W 7498  28.927  13.404   2.302
35883W        W 7499  23.699  20.023  12.894
35884W        W 7500   9.874   8.785   0.713
35885W        W 7501   3.489  32.979  12.442
35886W        W 7502  27.079  39.995  13.941
35887W        W 7503  16.300  39.419   0.053
35888W        W 7504  15.252  24.637   2.867
35889W        W 7505  11.880   1.300   2.178
35890W        W 7506  33.233  42.809   1.303
35891W        W 7507  23.050  33.629   0.879
35892W        W 7508   8.475  24.697   1.538
35893W        W 7509  10.801  35.351   2.280
35894W        W 7510  34.240  33.397  10.200
35895W        W 7511   5.948  28.932   4.318
35896W        W 7512  39.968   4.864   2.774
35897W        W 7513  44.208  16.747   2.447
35898W        W 7514  38.133  11.282  13.318
35899W        W 7515  22.013  25.662   0.869
35900W        W 7516  19.626   9.138  14.350
35901W        W 7517  34.579  12.372   3.583
35902W        W 7518  15.123  17.952  10.136
35903W        W 7519  36.421  34.455  12.431
35904W        W 7520  20.853  41.968   2.730
35905W        W 7521  24.475  17.030   3.841
35906W        W 7522   7.168  44.837  12.488
35907W        W 7523   1.479   7.452  12.098
35908W        W 7524  11.182   0.870  14.960
35909W        W 7525  10.572   9.245   0.931
35910W        W 7526  15.488  30.358  11.945
35911W        W 7527  18.897  35.616  10.386
35912W        W 7528  34.791  35.846  11.563
35913W        W 7529  37.103  21.670  14.873
35914W        W 7530   5.604  44.367  10.241
35915W        W 7531  28.253   1.003   1.018
35916W        W 7532  20.017   4.784   1.644
35917W        W 7533  29.949  19.516   0.927
35918W        W 7534  22.050  25.979  14.736
35919W        W 7535  38.123  18.244   3.280
35920W        W 7536   2.617  28.948   5.050
35921W        W 7537  18.589   4.343   0.256
35922W        W 7538  34.840   9.751   0.320
35923W        W 7539  29.005  14.608  12.442
35924W        W 7540  19.476  12.781  14.103
35925W        W 7541  22.982  29.556   3.762
35926W        W 7542  33.661  11.495  12.964
35927W        W 7543   6.753  25.482  13.908
35928W        W 7544  20.761  12.889  14.263
35929W        W 7545  11.788  35.202  10.561
35930W        W 7546  41.819  35.469  12.889
35931W        W 7547  18.095  39.573  10.778
35932W        W 7548   7.099   9.041  13.050
35933W        W 7549  20.830  36.968   1.429
35934W        W 7550  15.169  43.884   1.942
35935W        W 7551  38.793  29.088  11.524
35936W        W 7552  41.549  32.950  11.767
35937W        W 7553  35.337  32.393  11.123
35938W        W 7554  22.182  23.691   3.779
35939W        W 7555  32.394  23.559  12.792
35940W        W 7556  13.540  20.162  11.780
35941W        W 7557  41.823  29.526   1.268
35942W        W 7558  18.533  34.882   4.634
35943W        W 7559  13.107  22.690   1.633
35944W        W 7560  41.869   4.643   2.147
35945W        W 7561  30.817  43.208   4.139
35946W        W 7562  26.646  40.935  14.963
35947W        W 7563  23.437  23.168  11.564
35948W        W 7564   8.458  26.556   1.261
35949W        W 7565  16.004  22.284   3.213
35950W        W 7566   9.656  15.547   4.305
35951W        W 7567  17.147   1.632   4.051
35952W        W 7568  41.566   7.701   2.068
35953W        W 7569  15.769  38.600   4.117
35954W        W 7570   5.833  40.076   0.746
35955W        W 7571   6.554  40.823  14.420
35956W        W 7572  34.855   4.389   0.490
35957W        W 7573   4.316  27.360  12.624
35958W        W 7574   0.111  31.829   3.245
35959W        W 7575   1.700   2.155  10.742
35960W        W 7576  26.325  26.579   3.573
35961W        W 7577   6.850  11.395   2.469
35962W        W 7578  38.671  30.840   3.572
35963W        W 7579  43.013   8.324  13.936
35964W        W 7580  20.030  34.177  13.449
35965W        W 7581  35.915   3.857   3.326
35966W        W 7582  37.900  19.117  11.144
35967W        W 7583  10.759  31.942  11.801
35968W        W 7584  21.220  29.991   4.845
35969W        W 7585  21.622  42.500  13.849
35970W        W 7586  17.062  18.285   3.667
35971W        W 7587  27.399  21.515  12.475
35972W        W 7588  36.217  29.517  14.349
35973W        W 7589  25.312  14.922  14.943
35974W        W 7590  42.414  18.627   2.153
35975W        W 7591  29.136   6.300  10.996
35976W        W 7592   3.477   6.657   3.222
35977W        W 7593  29.506   6.835   0.406
35978W        W 7594  43.212  33.276  14.394
35979W        W 7595   5.183   4.379   4.563
35980W        W 7596  34.095  20.613   0.114
35981W        W 7597  15.926  28.343   3.622
35982W        W 7598  26.987  32.490   0.332
35983W        W 7599  36.378  17.656  12.931
35984W        W 7600  27.240  14.111   1.322
35985W        W 7601   7.273   0.934  11.398
35986W        W 7602   4.362   4.182   3.693
35987W        W 7603   3.562  21.849   2.869
35988W        W 7604  18.612   9.580  14.960
35989W        W 7605  43.263   0.280   1.496
35990W        W 7606  32.465  44.985   4.826
35991W        W 7607  10.469  19.737   0.975
35992W        W 7608   2.375  31.881  12.149
35993W        W 7609  18.467   4.389   3.714
35994W        W 7610  44.296  33.180   1.735
35995W        W 7611   5.751  16.134   4.536
35996W        W 7612  27.907  14.557  13.138
35997W        W 7613  33.057   6.470   2.274
35998W        W 7614  29.559  25.925  10.664
35999W        W 7615  35.786   3.187  14.324
36000W        W 7616  44.973  18.110   3.294
36001W        W 7617  34.612  36.969   4.713
36002W        W 7618  20.132   2.022  11.593
36003W        W 7619   8.763   5.652  14.435
36004W        W 7620  27.267  17.365  12.132
36005W        W 7621  21.042  44.481  12.308
36006W        W 7622  23.517  24.168  11.900
36007W        W 7623   2.251  22.682   4.985
36008W        W 7624  18.456  36.004   4.626
36009W        W 7625  42.917   0.576   0.585
36010W        W 7626  20.754   4.549   2.883
36011W        W 7627  29.965  24.722   1.268
36012W        W 7628  26.669  40.037   4.852
36013W        W 7629  28.669  26.066   3.597
36014W        W 7630  20.606  18.064  11.087
36015W        W 7631  11.290  29.817   2.442
36016W        W 7632   5.143  19.824  10.713
36017W        W 7633  33.148  28.871   2.455
36018W        W 7634  39.956  43.261  12.171
36019W        W 7635   8.147  20.517   1.394
36020W        W 7636  32.234  17.800  14.247
36021W        W 7637  16.202  11.656  10.693
36022W        W 7638   2.350  37.855   1.738
36023W        W 7639  24.086  30.465  14.276
36024W        W 7640  19.474  33.254  14.785
36025W        W 7641  19.130   2.938  13.524
36026W        W 7642  10.898   0.730  12.514
36027W        W 7643  13.258  23.255   3.769
36028W        W 7644  22.584   3.976  14.370
36029W        W 7645  20.039  14.611  11.082
36030W        W 7646  38.466  39.944  11.571
36031W        W 7647   4.698  24.912  14.532
36032W        W 7648  35.394   3.423   1.228
36033W        W 7649  37.488  22.930   2.162
36034W        W 7650  19.687   7.075  13.760
36035W        W 7651  29.925  27.289  13.659
36036W        W 7652  36.030  40.012   2.419
36037W        W 7653  33.495  40.270  13.074
36038W        W 7654  29.943  39.221   0.839
36039W        W 7655  39.451  44.544   0.666
36040W        W 7656  20.418  31.621  11.421
36041W        W 7657  25.103  23.494  14.411
36042W        W 7658  16.874  37.908   0.424
36043W        W 7659  40.875  10.126   4.161
36044W        W 7660   4.800  28.127  12.194
36045W        W 7661  18.683   5.205  14.365
36046W        W 7662  20.280  37.046  14.572
36047W        W 7663  15.624   7.749   0.055
36048W        W 7664  22.171  35.195  12.104
36049W        W 7665  42.530  32.776   3.260
36050W        W 7666  32.521  14.752   4.317
36051W        W 7667  43.574   2.292   3.186
36052W        W 7668   3.648  26.484  11.107
36053W        W 7669   8.145  38.512  10.824
36054W        W 7670  15.720  13.371  11.560
36055W        W 7671   6.756  20.971   1.448
36056W        W 7672  30.980   4.585   2.811
36057W        W 7673  14.090   5.647  12.482
36058W        W 7674   8.354   8.821   0.406
36059W        W 7675  33.039   2.081  12.108
36060W        W 7676   0.171  37.332  10.165
36061W        W 7677   3.488  39.317   0.374
36062W        W 7678  33.073  44.278   0.008
36063W        W 7679   1.365  20.955   2.354
36064W        W 7680  31.153  18.763  12.097
36065W        W 7681  19.552  37.058  12.450
36066W        W 7682  28.237   4.842  12.515
36067W        W 7683  14.143  38.619   4.660
36068W        W 7684  12.552  15.549   2.668
36069W        W 7685  38.372  13.221   2.566
36070W        W 7686  39.966  22.048   3.244
36071W        W 7687  44.932  43.404  13.416
36072W        W 7688  31.679  38.285   2.723
36073W        W 7689   0.921  27.876  10.961
36074W        W 7690  25.679  41.381   3.190
36075W        W 7691   9.968  23.044   0.867
36076W        W 7692   2.871  41.040  12.095
36077W        W 7693  23.189  20.263   4.118
36078W        W 7694   0.752  34.505   1.836
36079W        W 7695  39.279  19.694   0.383
36080W        W 7696   6.248  10.689   4.621
36081W        W 7697   8.170  17.508   3.861
36082W        W 7698  35.437  10.908   4.389
36083W        W 7699   8.196  42.487  12.553
36084W        W 7700  28.972   5.691  14.425
36085W        W 7701  41.084   9.772   3.209
36086W        W 7702   0.364  32.349   4.207
36087W        W 7703  11.366  14.742  13.040
36088W        W 7704  36.402  38.441   2.390
36089W        W 7705  30.112  43.585  12.663
36090W        W 7706  42.763  17.587   2.274
36091W        W 7707   7.964  27.413   0.940
36092W        W 7708  14.643   1.809   1.425
36093W        W 7709  19.942  13.786   2.600
36094W        W 7710  12.368   3.321  14.360
36095W        W 7711  43.488  27.682   2.299
36096W        W 7712   0.280  17.552  11.396
36097W        W 7713  15.097   2.165  10.611
36098W        W 7714   0.933  20.081  14.957
36099W        W 7715  27.983  28.778  14.547
36100W        W 7716  28.154  11.329   2.738
36101W        W 7717  43.240  39.476  10.632
36102W        W 7718  39.386   0.993   0.322
36103W        W 7719  36.066  26.464   1.349
36104W        W 7720  30.361  19.497  13.341
36105W        W 7721  15.846  22.820   5.119
36106W        W 7722  13.429  23.143   1.525
36107W        W 7723  30.043  14.814   3.533
36108W        W 7724   7.963   1.228   2.823
36109W        W 7725  28.108  22.238   1.830
36110W        W 7726  15.113  20.745  10.654
36111W        W 7727   0.790  19.664   1.344
36112W        W 7728  20.819  23.615   2.639
36113W        W 7729  18.585  25.186   1.030
36114W        W 7730  12.695   5.174  14.457
36115W        W 7731   3.402  29.639  12.513
36116W        W 7732  43.036   6.442  13.027
36117W        W 7733   4.142   9.899   3.821
36118W        W 7734  34.534  29.951  11.081
36119W        W 7735  44.964   7.194  11.379
36120W        W 7736  40.564  42.889  13.743
36121W        W 7737   2.808  25.609   1.693
36122W        W 7738  36.555  25.437  14.782
36123W        W 7739  15.858  15.501   0.935
36124W        W 7740  12.096   5.813  12.885
36125W        W 7741  37.376  22.826  10.673
36126W        W 7742  14.241  30.189   2.863
36127W        W 7743  26.198   5.202  13.417
36128W        W 7744  33.634  43.507  13.485
36129W        W 7745   8.423  37.904   0.037
36130W        W 7746  16.619   5.235   4.603
36131W        W 7747  14.190  37.811  10.604
36132W        W 7748  40.853  27.959  10.733
36133W        W 7749  12.262  33.104   0.889
36134W        W 7750  24.201  25.287  10.349
36135W        W 7751  16.773  15.700   1.926
36136W        W 7752  33.022  10.428  13.464
36137W        W 7753  25.489  17.529   1.412
36138W        W 7754  39.719  14.525  12.944
36139W        W 7755  40.524  26.800  10.974
36140W        W 7756  36.992  16.555  14.829
36141W        W 7757  39.935  40.042   1.480
36142W        W 7758  40.076   5.492   1.444
36143W        W 7759   5.424  14.011  12.169
36144W        W 7760  22.694  38.623  10.587
36145W        W 7761  24.779   8.682  11.560
36146W        W 7762  12.861  32.982  14.497
36147W        W 7763  20.739  14.647  13.646
36148W        W 7764  18.024   0.731  12.065
36149W        W 7765  32.939  10.345   3.677
36150W        W 7766  16.592   4.827  13.317
36151W        W 7767  25.669   6.153  14.410
36152W        W 7768  35.386  17.786   2.351
36153W        W 7769  18.812  27.414  10.622
36154W        W 7770  18.529   3.352  14.270
36155W        W 7771  15.577   6.879   0.871
36156W        W 7772  15.634  32.813  13.013
36157W        W 7773  39.828  38.422   2.368
36158W        W 7774  39.600  38.084  12.018
36159W        W 7775  24.548  28.898  11.189
36160W        W 7776   3.431  41.041  12.894
36161W        W 7777   4.991  26.194   4.475
36162W        W 7778  39.423  44.913   1.022
36163W        W 7779  38.669  19.278  11.953
36164W        W 7780  38.582  27.480   1.706
36165W        W 7781   5.413   8.282   4.107
36166W        W 7782  34.077  27.465   4.025
36167W        W 7783  22.367  24.532   1.800
36168W        W 7784  34.951  23.008  13.396
36169W        W 7785   0.475  12.813   3.617
36170W        W 7786   5.896  43.351   1.638
36171W        W 7787   7.326  31.598   0.279
36172W        W 7788   8.904  29.921   3.528
36173W        W 7789   0.970  34.361   0.839
36174W        W 7790  18.616  23.909   2.347
36175W        W 7791  36.931  22.967   4.483
36176W        W 7792  12.308  14.569  14.810
36177W        W 7793   9.353  15.227  13.398
36178W        W 7794  35.922  41.369  14.244
36179W        W 7795  44.182  21.489  10.430
36180W        W 7796   4.027  35.113   4.615
36181W        W 7797   9.621  42.147  14.906
36182W        W 7798   8.406  29.204   3.542
36183W        W 7799  21.120  38.852   2.436
36184W        W 7800  13.540  39.898   5.055
36185W        W 7801  31.545  20.177  13.806
36186W        W 7802   4.701  42.597   0.923
36187W        W 7803  22.802  25.468  12.519
36188W        W 7804  35.354  23.148   4.085
36189W        W 7805   8.457  19.585  13.428
36190W        W 7806  25.492  14.619  11.110
36191W        W 7807  25.514  40.027  12.529
36192W        W 7808   6.405  44.772  12.035
36193W        W 7809  36.234  28.490  11.202
36194W        W 7810  29.133  25.037  10.744
36195W        W 7811  42.354  20.302   1.275
36196W        W 7812  19.675   9.320  12.543
36197W        W 7813  44.182  19.998  14.258
36198W        W 7814  37.492  23.483   3.833
36199W        W 7815  20.482  16.917   0.340
36200W        W 7816  33.391   7.899  12.131
36201W        W 7817  35.804   5.498  12.004
36202W        W 7818  38.885   9.545  13.051
36203W        W 7819  43.618  21.175   0.552
36204W        W 7820  37.773  37.697   1.663
36205W        W 7821  33.887   3.942  14.395
36206W        W 7822   0.563  15.997  13.811
36207W        W 7823  31.046  21.013  11.542
36208W        W 7824  20.620  35.199  11.651
36209W        W 7825  28.417  27.173   4.751
36210W        W 7826   6.852   2.883  14.076
36211W        W 7827  20.840  43.120   0.523
36212W        W 7828   6.855  33.538  13.513
36213W        W 7829  27.871  10.829   2.700
36214W        W 7830  40.716  18.437  14.535
36215W        W 7831  40.874  27.258  12.951
36216W        W 7832  31.113  39.598  13.822
36217W        W 7833   5.292  37.062   4.121
36218W        W 7834   6.785  27.592   4.952
36219W        W 7835  28.502  23.119   4.322
36220W        W 7836  39.635  26.929   0.658
36221W        W 7837  39.844  23.696   5.008
36222W        W 7838  28.975  22.575  12.887
36223W        W 7839   8.642  27.571   2.745
36224W        W 7840  28.617  13.512   5.000
36225W        W 7841   1.515   6.351  14.498
36226W        W 7842  37.360  40.078   5.002
36227W        W 7843  32.872   9.733  12.025
36228W        W 7844  44.435  17.551  10.725
36229W        W 7845  16.590   3.408  11.836
36230W        W 7846   8.466  42.761   3.169
36231W        W 7847  34.833  38.426  13.280
36232W        W 7848   8.170  20.673   0.222
36233W        W 7849  44.764  29.524  12.301
36234W        W 7850  42.027  29.601   2.780
36235W        W 7851   3.634  36.529  11.619
36236W        W 7852  36.476  35.522   2.191
36237W        W 7853  12.644  14.922  14.494
36238W        W 7854   3.457  34.156  11.277
36239W        W 7855  43.460   1.444  13.548
36240W        W 7856  17.588   6.371   2.272
36241W        W 7857  10.727  42.782   1.829
36242W        W 7858  36.966  25.521  10.668
36243W        W 7859  33.620  17.600  14.885
36244W        W 7860   7.908  19.407  13.331
36245W        W 7861   5.739  18.198  13.932
36246W        W 7862  35.221  39.973  12.491
36247W        W 7863  26.983   3.510   2.252
36248W        W 7864   4.946  15.672  12.491
36249W        W 7865  22.917  31.738   2.359
36250W        W 7866  18.388   7.918  11.608
36251W        W 7867   1.014  27.926   1.017
36252W        W 7868   2.896   0.238   0.135
36253W        W 7869   9.930  12.636  12.940
36254W        W 7870  36.074   7.926   4.484
36255W        W 7871  20.672  32.423  13.319
36256W        W 7872  16.800  40.789   3.236
36257W        W 7873  27.698  14.742   3.000
36258W        W 7874  23.270  23.167   4.105
36259W        W 7875   2.385  37.995   3.737
36260W        W 7876  30.344  27.406  12.530
36261W        W 7877  32.882  13.788  12.054
36262W        W 7878  28.219  36.814  12.352
36263W        W 7879  39.658  14.358   4.160
36264W        W 7880  18.636  40.844  12.352
36265W        W 7881   2.405  12.109  14.928
36266W        W 7882  19.371  35.932  11.125
36267W        W 7883  15.043  39.843  12.523
36268W        W 7884  35.158  30.460   4.716
36269W        W 7885  34.544   3.767   2.348
36270W        W 7886  28.545  44.943  13.649
36271W        W 7887  20.466  17.673  12.905
36272W        W 7888  20.735  34.258  14.793
36273W        W 7889  42.398   4.983  11.079
36274W        W 7890   7.368  37.317  10.686
36275W        W 7891  14.419   9.682  12.953
36276W        W 7892  38.777  10.649   3.154
36277W        W 7893  44.670  35.343   4.082
36278W        W 7894  35.781   2.417  10.564
36279W        W 7895  27.531  35.664  14.311
36280W        W 7896  34.427  40.039   1.851
36281W        W 7897  37.399   6.457  13.609
36282W        W 7898  43.486  33.067  12.030
36283W        W 7899  35.095  26.478   2.779
36284W        W 7900  43.303   9.212   2.656
36285W        W 7901  43.539   3.310  13.806
36286W        W 7902  20.315  25.689   4.998
36287W        W 7903  37.217   7.464  10.652
36288W        W 7904  14.399   1.353   1.327
36289W        W 7905  31.244  39.854   4.125
36290W        W 7906  15.492   4.161  11.547
36291W        W 7907  42.283  20.741   2.799
36292W        W 7908  17.092   7.389  11.007
36293W        W 7909  40.744  27.454   2.724
36294W        W 7910  38.906  35.464   0.882
36295W        W 7911  19.365   1.856  14.972
36296W        W 7912  36.509   5.460   0.412
36297W        W 7913  29.171  39.894   1.605
36298W        W 7914  19.238  35.186  10.403
36299W        W 7915  32.841  27.638   5.579
36300W        W 7916   3.654   0.226   1.115
36301W        W 7917  15.194  35.161  12.551
36302W        W 7918  43.302  16.107   4.795
36303W        W 7919  18.053   8.202   0.324
36304W        W 7920  30.033  37.108  12.323
36305W        W 7921   4.609  42.908   4.568
36306W        W 7922  15.840  38.657  13.426
36307W        W 7923  39.462  21.214   0.639
36308W        W 7924  43.014  30.825  13.423
36309W        W 7925  32.006  31.431  13.578
36310W        W 7926  10.448  22.068   4.537
36311W        W 7927  44.165  42.385  12.886
36312W        W 7928   0.189  19.027  11.360
36313W        W 7929  20.584   3.538  13.509
36314W        W 7930  42.728   4.817   0.732
36315W        W 7931  22.875  36.053  13.934
36316W        W 7932   1.256  36.532   3.164
36317W        W 7933  25.333  14.322   3.205
36318W        W 7934   4.236  29.961   1.312
36319W        W 7935   7.432  19.798  14.404
36320W        W 7936  27.259   3.460  12.550
36321W        W 7937  32.585  19.092  11.130
36322W        W 7938  18.627  24.538   1.402
36323W        W 7939  35.381   7.009  12.756
36324W        W 7940  13.330  34.865  10.761
36325W        W 7941  29.367  34.953  10.822
36326W        W 7942  34.034  29.369   1.581
36327W        W 7943   0.503  23.518  11.882
36328W        W 7944  26.606  43.334   0.874
36329W        W 7945  21.314   7.468  10.370
36330W        W 7946  43.705  34.413   1.720
36331W        W 7947  44.284  29.051  13.081
36332W        W 7948  29.212  19.716  11.553
36333W        W 7949   4.232  24.269   5.475
36334W        W 7950  10.879   0.094   4.228
36335W        W 7951  12.434  32.770  11.619
36336W        W 7952  25.433  27.571   0.336
36337W        W 7953  15.843  16.286  10.718
36338W        W 7954  33.012  35.710   2.102
36339W        W 7955  41.521  37.078  13.895
36340W        W 7956  44.840   0.376  10.718
36341W        W 7957   8.605  42.897  13.432
36342W        W 7958  42.406  25.817  12.993
36343W        W 7959   7.740   4.842  14.298
36344W        W 7960  16.946  13.378  14.681
36345W        W 7961   0.696  44.436  11.551
36346W        W 7962  33.453  39.726  13.160
36347W        W 7963  43.183  26.928  11.464
36348W        W 7964  11.094  32.420  12.500
36349W        W 7965   6.787  15.216  11.864
36350W        W 7966  15.311  36.521  14.957
36351W        W 7967  30.215   9.122   3.182
36352W        W 7968  42.358  20.271   0.759
36353W        W 7969  38.317  31.041  14.922
36354W        W 7970  13.200  24.872   1.951
36355W        W 7971  12.433  38.954  10.559
36356W        W 7972  34.528  25.458   4.445
36357W        W 7973  14.361   0.992   4.054
36358W        W 7974  42.543  24.505   1.693
36359W        W 7975   9.134  40.391   2.592
36360W        W 7976  19.956  38.004   4.184
36361W        W 7977  13.469  10.100   9.893
36362W        W 7978   0.400   6.921   1.397
36363W        W 7979   7.750  24.637   3.180
36364W        W 7980  27.757  17.531  12.432
36365W        W 7981  16.832  37.896  14.387
36366W        W 7982  10.131  33.515  11.050
36367W        W 7983   1.646  29.364  14.759
36368W        W 7984   7.449  29.064  12.533
36369W        W 7985   4.259  12.755   1.328
36370W        W 7986  29.737  23.264   1.874
36371W        W 7987   4.318   6.177   1.016
36372W        W 7988  27.220  22.537  12.912
36373W        W 7989  36.781   4.809   1.842
36374W        W 7990  43.006  37.957   4.054
36375W        W 7991  19.765  41.550  13.617
36376W        W 7992  28.070  15.622   4.664
36377W        W 7993  35.505  35.104   1.509
36378W        W 7994  37.392  36.854  13.449
36379W        W 7995   9.369  36.891  14.319
36380W        W 7996  35.967  11.649   3.118
36381W        W 7997   7.698  12.351  10.736
36382W        W 7998   3.935  28.572   1.366
36383W        W 7999   5.922  22.956   1.389
36384W        W 8000  13.403  32.440  13.068
36385W        W 8001  37.367  19.977  12.217
36386W        W 8002   5.954   2.854  14.112
36387W        W 8003  23.059  29.125   1.971
36388W        W 8004   5.341  20.973  14.464
36389W        W 8005  11.624  16.836  13.519
36390W        W 8006   0.554  28.148  12.605
36391W        W 8007  19.710  31.021   4.209
36392W        W 8008  10.159  20.169   3.633
36393W        W 8009  19.116  14.834  13.426
36394W        W 8010  13.144  36.155   2.918
36395W        W 8011  13.638  14.522  10.724
36396W        W 8012  40.177  26.911  14.003
36397W        W 8013  34.042  36.939  13.462
36398W        W 8014  20.585  25.561  12.818
36399W        W 8015   1.420  39.100   3.253
36400W        W 8016  34.683   1.962   1.813
36401W        W 8017  17.292  29.507  13.511
36402W        W 8018  13.112  28.021   0.260
36403W        W 8019  22.180  35.565  11.123
36404W        W 8020  28.547  31.368   4.610
36405W        W 8021  15.286  13.672  14.425
36406W        W 8022  32.110  32.839   4.521
36407W        W 8023  33.756   6.605   1.210
36408W        W 8024  32.107  35.047   3.607
36409W        W 8025  42.147  29.019   0.777
36410W        W 8026  10.175   1.135  11.158
36411W        W 8027  24.984  31.145  11.618
36412W        W 8028   5.303  21.226   2.678
36413W        W 8029  35.510  35.246   1.996
36414W        W 8030   3.279  35.528   0.810
36415W        W 8031  23.248   8.832  11.541
36416W        W 8032   3.882  41.498   0.384
36417W        W 8033  24.858  24.703  14.874
36418W        W 8034  43.411  35.419   0.628
36419W        W 8035   1.959  31.881  11.506
36420W        W 8036  39.532  18.621  12.565
36421W        W 8037  27.975  33.303   1.935
36422W        W 8038  14.939  28.143   0.302
36423W        W 8039  24.604  13.333   0.699
36424W        W 8040  15.791  10.570   4.079
36425W        W 8041  39.066  24.750  12.829
36426W        W 8042  12.120  38.497  13.890
36427W        W 8043  44.322  41.726   1.906
36428W        W 8044  14.357  15.674  11.071
36429W        W 8045  16.725   7.303  12.622
36430W        W 8046  21.739  43.318   1.347
36431W        W 8047  38.114  38.927  10.821
36432W        W 8048  26.970  30.623   1.000
36433W        W 8049  27.229   0.938   4.176
36434W        W 8050  37.495  33.590   3.348
36435W        W 8051  11.311  19.914   1.633
36436W        W 8052  19.074  31.892   3.055
36437W        W 8053  31.438   2.916  13.308
36438W        W 8054  43.500   9.780   4.644
36439W        W 8055  13.205  39.005   1.584
36440W        W 8056   6.895  34.308  10.582
36441W        W 8057  41.978  23.777   3.423
36442W        W 8058   1.859  29.154  13.093
36443W        W 8059  43.649  12.240  14.916
36444W        W 8060  40.904   7.622   2.357
36445W        W 8061  10.632  28.518  12.504
36446W        W 8062   7.254  25.438  13.980
36447W        W 8063   0.070  34.419  14.043
36448W        W 8064  18.322   5.915  12.966
36449W        W 8065  42.867  30.560   1.890
36450W        W 8066  10.138  29.226  13.576
36451W        W 8067  11.243  33.583  10.925
36452W        W 8068  23.994  34.864  13.141
36453W        W 8069  17.329  39.758   1.292
36454W        W 8070   9.814   3.107   0.471
36455W        W 8071   2.896   9.371   2.469
36456W        W 8072  11.347  42.493  14.988
36457W        W 8073   3.281   0.511   2.646
36458W        W 8074  25.116  33.111  12.056
36459W        W 8075  42.249  25.321  13.075
36460W        W 8076  35.911  19.314   4.551
36461W        W 8077  19.544  43.162   3.742
36462W        W 8078  28.995  20.560  11.188
36463W        W 8079  23.737  13.624   3.090
36464W        W 8080   9.117  36.930   4.057
36465W        W 8081  33.370  21.996   4.062
36466W        W 8082  34.701  21.024  11.463
36467W        W 8083  31.913   9.886   4.294
36468W        W 8084  15.080  37.525   1.438
36469W        W 8085  20.493   0.430   3.867
36470W        W 8086  32.465  34.888   2.410
36471W        W 8087   1.726  42.551  13.553
36472W        W 8088  19.334  23.574  10.022
36473W        W 8089  15.673  23.602  12.553
36474W        W 8090  44.452  28.550  11.335
36475W        W 8091  38.764   3.009  13.332
36476W        W 8092  20.162  26.715  13.390
36477W        W 8093  21.921  23.305  13.115
36478W        W 8094  14.310  10.210   0.211
36479W        W 8095  20.585  11.790   3.738
36480W        W 8096  24.433  31.016  13.535
36481W        W 8097  34.216  13.356   0.763
36482W        W 8098  18.722  13.531   3.650
36483W        W 8099  11.085  12.597   2.942
36484W        W 8100   3.813   8.804  12.475
36485W        W 8101  22.042   9.402  13.404
36486W        W 8102  28.703  29.962   2.842
36487W        W 8103  35.310  27.623  10.762
36488W        W 8104  10.602  16.864   4.231
36489W        W 8105  31.017  20.777   3.345
36490W        W 8106  27.095  39.714   4.813
36491W        W 8107  26.815  38.234   2.641
36492W        W 8108  37.840  12.170   0.630
36493W        W 8109  15.791   2.473   0.281
36494W        W 8110  26.270   9.150   2.170
36495W        W 8111   2.264  30.571   1.917
36496W        W 8112  39.495  15.018   2.743
36497W        W 8113  41.344  34.398   3.436
36498W        W 8114  39.880  23.546   1.285
36499W        W 8115  21.091  21.616  10.417
36500W        W 8116  33.942  24.243   3.170
36501W        W 8117  10.669  30.009  12.933
36502W        W 8118   7.851  10.598   0.179
36503W        W 8119   9.851  34.857   0.623
36504W        W 8120  36.550  37.995   4.657
36505W        W 8121  18.237  41.221  13.155
36506W        W 8122  10.868  39.389   4.297
36507W        W 8123  35.826  25.687  13.024
36508W        W 8124   6.334   9.695   1.671
36509W        W 8125  44.811  37.749  13.769
36510W        W 8126  29.398  25.028  14.937
36511W        W 8127  36.867  29.486   4.223
36512W        W 8128  13.615  35.000   3.596
36513W        W 8129   9.831  24.785   2.293
36514W        W 8130   0.921   2.755   0.378
36515W        W 8131  39.369  10.243  13.315
36516W        W 8132  42.890  12.735  10.733
36517W        W 8133  27.235   1.735  11.531
36518W        W 8134  15.263  44.921  14.036
36519W        W 8135   1.771  24.295  12.264
36520W        W 8136  24.401  38.827  11.655
36521W        W 8137  10.940  21.539  14.453
36522W        W 8138  27.129  27.471   0.966
36523W        W 8139   3.154  21.269  14.009
36524W        W 8140   1.868  26.454  12.431
36525W        W 8141  16.572  31.130  11.660
36526W        W 8142  31.702  38.235   3.613
36527W        W 8143   2.102  29.121   3.663
36528W        W 8144  42.879   7.492  14.779
36529W        W 8145   4.857   7.727   4.275
36530W        W 8146  20.601  23.655  11.330
36531W        W 8147  22.179   6.508  14.601
36532W        W 8148   6.337  21.738   2.476
36533W        W 8149  35.539  28.613   2.658
36534W        W 8150  41.696  40.509   3.153
36535W        W 8151  25.096  44.696  14.957
36536W        W 8152  44.296   3.160  14.673
36537W        W 8153  31.117  42.353  13.536
36538W        W 8154  24.628  20.949  10.274
36539W        W 8155  24.082  38.408  10.602
36540W        W 8156  35.348   8.709   1.408
36541W        W 8157  42.269  35.940   1.350
36542W        W 8158  12.543  14.190  11.056
36543W        W 8159  31.498  36.597   1.292
36544W        W 8160  14.194  33.620  11.123
36545W        W 8161  30.012  18.744   3.700
36546W        W 8162   5.641  40.741  12.036
36547W        W 8163  18.233  31.045   3.939
36548W        W 8164  34.936  21.608  13.793
36549W        W 8165  11.183  21.546  11.738
36550W        W 8166  26.153  16.706   4.473
36551W        W 8167  32.582  18.223   3.312
36552W        W 8168  42.786  40.249   4.182
36553W        W 8169  11.043  28.594  14.830
36554W        W 8170  21.167  22.711   4.456
36555W        W 8171  34.994  10.255   4.382
36556W        W 8172  13.261  20.593  13.830
36557W        W 8173  27.493  27.150  11.111
36558W        W 8174  25.731  29.039  12.206
36559W        W 8175  15.316  38.848  12.948
36560W        W 8176  17.059  38.092  14.817
36561W        W 8177  34.450  19.560   5.071
36562W        W 8178  38.924  31.730  13.080
36563W        W 8179  17.717  28.403   0.737
36564W        W 8180  20.743  40.297   4.940
36565W        W 8181  27.237  33.556  11.008
36566W        W 8182  19.567   3.057   2.834
36567W        W 8183  20.158   0.978  10.682
36568W        W 8184  34.334  20.893  11.114
36569W        W 8185  37.942  40.293  11.615
36570W        W 8186  19.207  35.833   2.783
36571W        W 8187  39.309   1.501  11.522
36572W        W 8188  41.058  22.566   2.366
36573W        W 8189  30.741  14.809  11.235
36574W        W 8190  25.489  26.704   2.354
36575W        W 8191  42.330  16.027   1.463
36576W        W 8192  28.346  36.637   3.727
36577W        W 8193  17.337  33.447  14.096
36578W        W 8194  34.326  37.296   1.339
36579W        W 8195  34.755  40.049   3.303
36580W        W 8196  22.197  22.587   0.817
36581W        W 8197  10.518   2.701   3.796
36582W        W 8198  40.555   5.809   0.340
36583W        W 8199   2.573  31.711  10.468
36584W        W 8200  36.096  17.841   0.848
36585W        W 8201  39.960  27.225   1.381
36586W        W 8202   0.754  14.992  11.573
36587W        W 8203   3.981  22.021  11.616
36588W        W 8204  15.669  18.771   0.807
36589W        W 8205  44.499  16.202  10.001
36590W        W 8206  39.437  28.590   0.784
36591W        W 8207  33.798  12.296   1.869
36592W        W 8208  37.765  27.721  10.412
36593W        W 8209  15.645  37.166  10.439
36594W        W 8210  24.801  35.632  13.899
36595W        W 8211  33.288   6.285  11.494
36596W        W 8212  15.385  23.322  11.904
36597W        W 8213  12.387  30.146   0.749
36598W        W 8214  41.801  16.520  12.529
36599W        W 8215  18.544   1.313  14.929
36600W        W 8216   3.893  43.138   0.302
36601W        W 8217  43.851  16.074   9.984
36602W        W 8218  28.688  24.064  12.370
36603W        W 8219  37.974   2.738  12.896
36604W        W 8220  29.481  41.424   4.721
36605W        W 8221  19.721  44.840   3.309
36606W        W 8222  40.965   9.401  11.027
36607W        W 8223  31.888   3.221   3.580
36608W        W 8224  42.335   3.033  13.416
36609W        W 8225  32.075  39.858   2.251
36610W        W 8226  27.583  30.856  14.003
36611W        W 8227  22.922  37.548  11.918
36612W        W 8228  27.542  38.401   4.632
36613W        W 8229  10.757   3.317  10.869
36614W        W 8230   9.187  10.310  13.747
36615W        W 8231   8.151   2.002  12.507
36616W        W 8232  43.358   1.949   3.959
36617W        W 8233  19.086  35.359  12.137
36618W        W 8234  34.148  24.497  14.468
36619W        W 8235   8.860  25.754  11.704
36620W        W 8236  41.548  13.360   2.936
36621W        W 8237   9.730  13.920  14.908
36622W        W 8238   1.800  35.000  10.533
36623W        W 8239  38.018   6.263   2.635
36624W        W 8240  24.027  13.987  13.232
36625W        W 8241   9.700  31.068  12.438
36626W        W 8242   5.015   1.193  10.809
36627W        W 8243  13.378   7.226  12.544
36628W        W 8244  37.516   8.556   1.603
36629W        W 8245  31.894  38.413  13.543
36630W        W 8246   1.300   3.617   2.814
36631W        W 8247   8.246  43.295  13.601
36632W        W 8248   6.190  27.454   0.546
36633W        W 8249   6.483  30.493   1.096
36634W        W 8250   0.565  38.814  13.408
36635W        W 8251   1.453  31.352  11.069
36636W        W 8252  18.716   7.094  11.648
36637W        W 8253  37.028  20.082  11.000
36638W        W 8254  33.985  18.126  13.802
36639W        W 8255  36.461   5.564   4.309
36640W        W 8256  41.717  10.361   4.708
36641W        W 8257  14.315   3.697  12.000
36642W        W 8258   6.749  40.884  14.889
36643W        W 8259  18.048  35.739  10.689
36644W        W 8260  23.514  43.504  14.467
36645W        W 8261  26.093  16.556   0.901
36646W        W 8262  11.223  15.295  10.310
36647W        W 8263   7.674  37.481  14.035
36648W        W 8264  18.836  30.419  13.311
36649W        W 8265  41.973  19.050  13.487
36650W        W 8266   0.897   4.911   1.878
36651W        W 8267   0.282  37.468  14.958
36652W        W 8268  17.645  27.112  12.168
36653W        W 8269   9.097  32.455  13.166
36654W        W 8270  39.396  36.864  14.096
36655W        W 8271   2.086  24.232   4.123
36656W        W 8272   4.660  20.213   2.854
36657W        W 8273  32.313  35.790  13.014
36658W        W 8274  22.879  40.934  11.944
36659W        W 8275   3.875  13.201   1.267
36660W        W 8276   6.791  16.899  13.384
36661W        W 8277   4.868  37.089   2.818
36662W        W 8278  32.078   9.414   3.703
36663W        W 8279  33.395  42.975  14.904
36664W        W 8280   1.280  19.253   0.526
36665W        W 8281  37.494   2.868   0.261
36666W        W 8282  12.644  35.986   4.090
36667W        W 8283  41.953  27.788  12.313
36668W        W 8284   3.681   7.215  14.994
36669W        W 8285  31.732   4.658   3.259
36670W        W 8286  33.958   0.251   1.786
36671W        W 8287  39.983  39.430  11.979
36672W        W 8288   2.296   2.846  14.482
36673W        W 8289   7.821  15.119  14.377
36674W        W 8290  42.672  24.543   0.184
36675W        W 8291  16.123  15.618  13.803
36676W        W 8292   0.147   1.745   1.414
36677W        W 8293   1.999   6.700  13.935
36678W        W 8294  36.947  29.214   4.825
36679W        W 8295  42.488   8.281  13.964
36680W        W 8296  34.049  21.272  13.918
36681W        W 8297  43.408  21.187  14.798
36682W        W 8298  33.371  36.561   4.242
36683W        W 8299  37.726  12.057   0.112
36684W        W 8300  29.127   8.691  13.505
36685W        W 8301   5.761  34.038  12.930
36686W        W 8302   7.395  12.477  11.903
36687W        W 8303  37.614   4.934   3.709
36688W        W 8304   2.201  11.313   1.729
36689W        W 8305   1.611  39.374   2.315
36690W        W 8306  27.433  32.666  13.034
36691W        W 8307   2.850   6.090  10.620
36692W        W 8308   2.239  41.840  14.805
36693W        W 8309  30.180   7.163   3.258
36694W        W 8310  44.917  29.132  13.937
36695W        W 8311   0.866  20.556   1.674
36696W        W 8312  40.938  14.659   4.677
36697W        W 8313   7.980  22.656  13.819
36698W        W 8314  28.214  23.074   0.915
36699W        W 8315  25.520  21.623   3.394
36700W        W 8316   4.643  32.623   0.334
36701W        W 8317  39.519   7.361   1.344
36702W        W 8318  39.321  36.747   4.699
36703W        W 8319  29.021  21.992  10.626
36704W        W 8320  42.591  18.214  13.582
36705W        W 8321  36.053  21.881   4.676
36706W        W 8322  25.478  34.352   3.321
36707W        W 8323  39.288  13.133   2.947
36708W        W 8324  18.217  13.114  13.329
36709W        W 8325  36.066  38.338   3.396
36710W        W 8326   5.862  23.712  12.024
36711W        W 8327  17.232  27.245  11.509
36712W        W 8328  42.956   0.585   2.311
36713W        W 8329  42.552  25.573   3.872
36714W        W 8330  36.478  42.347  11.123
36715W        W 8331  14.238   2.377  11.421
36716W        W 8332  34.597   1.734  13.464
36717W        W 8333  36.376  38.936   0.442
36718W        W 8334  29.064  31.872  12.089
36719W        W 8335  27.038  17.678  11.800
36720W        W 8336  43.060  19.126   0.058
36721W        W 8337  20.228  36.972   3.897
36722W        W 8338  38.524  17.606   0.365
36723W        W 8339   0.839  22.605   2.657
36724W        W 8340  22.537  29.983  12.940
36725W        W 8341  40.586  18.520  11.439
36726W        W 8342  38.080  22.936  14.886
36727W        W 8343  29.220  12.221  13.490
36728W        W 8344  29.923  12.083  11.655
36729W        W 8345  37.022   6.749  13.348
36730W        W 8346  28.686  21.312  11.106
36731W        W 8347  27.182  11.687  14.544
36732W        W 8348  23.522  32.136   0.019
36733W        W 8349  13.218   3.708   3.219
36734W        W 8350  22.529   6.182   3.275
36735W        W 8351  18.305  24.435  12.935
36736W        W 8352   1.341  12.248  11.571
36737W        W 8353  38.292  16.271  14.604
36738W        W 8354  12.702  31.842   1.002
36739W        W 8355  22.698  27.411  11.253
36740W        W 8356  27.624  22.101   4.687
36741W        W 8357   3.055  28.704  14.501
36742W        W 8358  37.422  31.808   2.632
36743W        W 8359  35.398  21.000  14.859
36744W        W 8360   1.803  21.208   2.560
36745W        W 8361  22.030   4.410  12.893
36746W        W 8362  33.014   1.494   3.277
36747W        W 8363  13.398  10.805  14.032
36748W        W 8364   7.704  41.697   4.683
36749W        W 8365   5.776  36.026   3.289
36750W        W 8366  23.661  34.618   3.619
36751W        W 8367  43.928  14.699  12.144
36752W        W 8368  21.096  15.897  14.672
36753W        W 8369  28.588  20.995  11.505
36754W        W 8370  23.079  38.887  11.474
36755W        W 8371   3.263  25.003  11.743
36756W        W 8372  31.690  16.341  13.849
36757W        W 8373  25.979  24.116   2.121
36758W        W 8374  24.460  17.115   2.542
36759W        W 8375  31.850  33.256   3.684
36760W        W 8376  26.454  42.263   3.848
36761W        W 8377  42.052  42.352   3.554
36762W        W 8378  28.149  14.754  11.048
36763W        W 8379  24.320  19.943   3.461
36764W        W 8380   1.892  43.345   3.186
36765W        W 8381  20.930   7.379   1.803
36766W        W 8382  18.030  27.863  13.338
36767W        W 8383   7.900  40.485  11.816
36768W        W 8384   9.060  14.381   3.650
36769W        W 8385  29.586  27.410  14.035
36770W        W 8386  40.145  22.563   3.285
36771W        W 8387  13.679  22.498  10.869
36772W        W 8388  24.461  37.311  11.156
36773W        W 8389  40.285  28.992   3.507
36774W        W 8390   2.206  17.723   2.170
36775W        W 8391  23.143   9.410   4.227
36776W        W 8392  33.569  10.882   0.928
36777W        W 8393  20.671  24.035   3.604
36778W        W 8394   7.837  21.029  12.096
36779W        W 8395   9.825  39.652   1.314
36780W        W 8396   6.749  32.918   4.357
36781W        W 8397  30.725  23.662   3.644
36782W        W 8398  12.926  24.111  12.842
36783W        W 8399  34.756  14.056   0.396
36784W        W 8400  37.284  21.401  13.319
36785W        W 8401  35.391  11.202   3.230
36786W        W 8402  36.812  17.426  11.534
36787W        W 8403  35.052   6.863   1.770
36788W        W 8404  20.135   5.024   0.705
36789W        W 8405  30.169  28.879  11.121
36790W        W 8406  24.519  38.630  13.024
36791W        W 8407  25.748  35.548   0.409
36792W        W 8408   1.902  43.493  13.321
36793W        W 8409  13.138  31.648  14.405
36794W        W 8410   3.430  16.487   2.825
36795W        W 8411   5.774   1.863   0.891
36796W        W 8412  31.343  16.880   1.311
36797W        W 8413  22.489  23.150  14.521
36798W        W 8414  43.022   0.326   2.750
36799W        W 8415  27.284  30.090  10.718
36800W        W 8416  22.271  28.050  13.269
36801W        W 8417  40.819  31.187  13.433
36802W        W 8418   6.658  33.925   4.658
36803W        W 8419  17.280  26.363  12.114
36804W        W 8420  16.428   3.982  10.497
36805W        W 8421  38.939  17.930  14.526
36806W        W 8422  40.928   4.286  12.918
36807W        W 8423  15.150  34.454  12.934
36808W        W 8424  19.226  15.845   3.763
36809W        W 8425  34.403  12.811  12.052
36810W        W 8426  20.816  32.308  14.930
36811W        W 8427  21.578  34.943   2.099
36812W        W 8428  16.001  19.152  13.792
36813W        W 8429  10.201   9.716   3.341
36814W        W 8430  22.010  10.953   2.370
36815W        W 8431   6.934   9.383  10.824
36816W        W 8432  42.880  11.817   2.481
36817W        W 8433  19.124  34.238  13.427
36818W        W 8434  11.675  13.608   1.102
36819W        W 8435  13.647  43.133  14.763
36820W        W 8436  25.158   4.843  10.431
36821W        W 8437   0.525  30.860   4.155
36822W        W 8438  21.293   3.824   3.925
36823W        W 8439   7.370  40.990  11.530
36824W        W 8440  31.820  35.856  14.420
36825W        W 8441  19.164  29.009  11.474
36826W        W 8442  42.645  32.838  10.486
36827W        W 8443  19.323  28.560   2.717
36828W        W 8444  40.463   0.205  11.061
36829W        W 8445  28.276  23.665  14.217
36830W        W 8446   2.772  15.901   1.368
36831W        W 8447  18.937  20.147   3.099
36832W        W 8448   3.158   0.272  13.117
36833W        W 8449   7.640  31.445   4.899
36834W        W 8450   2.240  17.217  12.012
36835W        W 8451  33.518  20.204  14.379
36836W        W 8452  31.599  43.399   1.004
36837W        W 8453  43.295  13.381  12.591
36838W        W 8454  12.957  17.759   3.617
36839W        W 8455   9.421  12.141   1.387
36840W        W 8456  22.135  10.944  11.342
36841W        W 8457  42.324  22.032   0.339
36842W        W 8458  11.702  26.544  14.427
36843W        W 8459  38.167   6.965   1.223
36844W        W 8460   3.752  11.284  11.913
36845W        W 8461   1.954  25.236   0.766
36846W        W 8462  40.517  12.503   3.110
36847W        W 8463  36.524  20.159  10.911
36848W        W 8464  23.673  31.381  14.416
36849W        W 8465  43.318  12.088  10.876
36850W        W 8466  34.788  24.441   0.710
36851W        W 8467  23.677  42.449  13.553
36852W        W 8468  41.884  42.544   2.781
36853W        W 8469  42.250  18.425   1.707
36854W        W 8470  21.580   3.400   3.840
36855W        W 8471  31.926  19.638  12.533
36856W        W 8472  40.958  31.950   3.075
36857W        W 8473  34.460  36.353  10.465
36858W        W 8474  30.474  27.705  11.164
36859W        W 8475  10.829  16.938   4.874
36860W        W 8476  11.129  25.430  14.339
36861W        W 8477  30.984   4.714   3.672
36862W        W 8478  12.245   6.692  10.371
36863W        W 8479  41.385   9.823   3.688
36864W        W 8480  15.929  31.982  11.355
36865W        W 8481  28.271   4.598   1.944
36866W        W 8482  32.007  28.207   0.892
36867W        W 8483  18.261  34.813   1.180
36868W        W 8484   4.482   1.802   1.779
36869W        W 8485  34.628  23.039   1.472
36870W        W 8486   6.278  30.494  11.963
36871W        W 8487  29.938  26.971   0.877
36872W        W 8488   7.041  22.292   2.208
36873W        W 8489  21.168   1.773  11.525
36874W        W 8490  11.301  10.175  13.050
36875W        W 8491  13.673  43.291   0.256
36876W        W 8492  35.291  13.640   0.807
36877W        W 8493  11.392  37.028   2.720
36878W        W 8494  34.154   8.598   2.086
36879W        W 8495  21.339  43.000   5.128
36880W        W 8496  30.531   4.355   4.796
36881W        W 8497   9.750  26.053   4.532
36882W        W 8498  27.122  27.264  14.597
36883W        W 8499  20.874   6.865  12.478
36884W        W 8500  39.715  41.545  14.012
36885W        W 8501  40.253  34.067   4.726
36886W        W 8502   2.179  11.836   0.456
36887W        W 8503  30.420  12.047   0.967
36888W        W 8504  25.153   3.357   4.600
36889W        W 8505   4.275   3.761  12.141
36890W        W 8506   0.215  37.481  14.433
36891W        W 8507   4.821  25.702   4.561
36892W        W 8508  32.817   5.229  13.944
36893W        W 8509  37.109   8.743  14.785
36894W        W 8510   6.292  26.489  11.937
36895W        W 8511  11.677  34.012  10.632
36896W        W 8512  18.345   0.147   0.256
36897W        W 8513  12.601   6.720   1.126
36898W        W 8514  18.383  32.377  14.921
36899W        W 8515  31.079  17.640   0.948
36900W        W 8516  29.025  39.896  14.317
36901W        W 8517  25.494   0.372   4.328
36902W        W 8518  21.995   8.503  10.560
36903W        W 8519  30.536  15.781  12.485
36904W        W 8520  32.580  44.368   3.810
36905W        W 8521  18.702  17.739  12.760
36906W        W 8522  40.554  22.669   2.346
36907W        W 8523  32.399  44.526   2.949
36908W        W 8524  44.322  32.056   3.403
36909W        W 8525  34.819   5.865   1.760
36910W        W 8526  32.054  18.476  13.508
36911W        W 8527  17.829  29.560  13.497
36912W        W 8528  26.582  25.288   1.761
36913W        W 8529  42.865  20.771   3.263
36914W        W 8530  12.533  18.317  10.581
36915W        W 8531  10.634  14.205   1.689
36916W        W 8532  32.146  40.595  12.953
36917W        W 8533  23.232   3.693  11.199
36918W        W 8534  17.059  22.690   2.300
36919W        W 8535  24.897  33.339   4.210
36920W        W 8536   3.419  17.393   0.004
36921W        W 8537  26.114  25.138   1.522
36922W        W 8538  40.490  31.534   2.386
36923W        W 8539  33.489   6.975  12.438
36924W        W 8540  25.009  32.421  12.584
36925W        W 8541  43.595  22.139  10.679
36926W        W 8542  37.353  18.513  12.116
36927W        W 8543  18.802   5.137  12.858
36928W        W 8544  38.787  32.120  10.893
36929W        W 8545  40.713  23.785   3.283
36930W        W 8546  18.662   4.315   4.178
36931W        W 8547   2.245  17.796   4.712
36932W        W 8548  27.446  29.666   1.697
36933W        W 8549  21.050  15.888   9.892
36934W        W 8550  14.847   5.520  14.845
36935W        W 8551   1.218  19.002  12.968
36936W        W 8552  22.694  14.866   1.205
36937W        W 8553  16.059   1.663   2.220
36938W        W 8554  35.936  33.214  12.249
36939W        W 8555  27.251  20.175   4.392
36940W        W 8556  30.539   9.836  13.079
36941W        W 8557  43.932  11.513  14.384
36942W        W 8558  37.512  24.641  12.432
36943W        W 8559  43.619  28.443   3.377
36944W        W 8560  10.567  29.980   3.484
36945W        W 8561  33.930   4.138   3.699
36946W        W 8562  42.415  30.893   4.349
36947W        W 8563  34.422  42.507   3.174
36948W        W 8564  19.441  30.391   3.565
36949W        W 8565   7.701  19.492   2.335
36950W        W 8566  42.807  28.957  14.975
36951W        W 8567   6.701  22.494   2.909
36952W        W 8568  36.913   9.197  14.935
36953W        W 8569   7.298   2.963   1.047
36954W        W 8570   6.214   1.688   3.235
36955W        W 8571  19.080  18.590  13.360
36956W        W 8572  35.091   4.820  12.023
36957W        W 8573   6.793   1.249  11.108
36958W        W 8574  10.139  34.201   4.504
36959W        W 8575  26.452  22.601  11.101
36960W        W 8576  43.260  33.057  12.913
36961W        W 8577  34.076  16.626   1.503
36962W        W 8578  28.571  35.555   3.647
36963W        W 8579   8.117  10.620   2.822
36964W        W 8580   5.185  30.708   0.417
36965W        W 8581  22.475   5.949  11.620
36966W        W 8582   5.835  12.636  14.841
36967W        W 8583  27.120  23.129  14.484
36968W        W 8584  38.266  12.972   1.244
36969W        W 8585  15.280  42.008   4.799
36970W        W 8586  21.678  37.408   0.270
36971W        W 8587   8.705   8.424  13.418
36972W        W 8588  33.101  39.559   0.810
36973W        W 8589  25.292  25.882   3.897
36974W        W 8590  21.184  42.948   4.063
36975W        W 8591   3.940  28.489  10.845
36976W        W 8592  20.528  26.592   4.159
36977W        W 8593  27.975  18.369  13.508
36978W        W 8594  34.054   1.352  10.403
36979W        W 8595   7.062  44.479   2.918
36980W        W 8596  10.899  22.939  14.905
36981W        W 8597  19.733  19.890  14.643
36982W        W 8598   9.243   2.773  10.578
36983W        W 8599  29.226  24.161  14.605
36984W        W 8600   9.923  17.761  10.755
36985W        W 8601  33.759  32.716   4.780
36986W        W 8602  42.906  35.133   1.865
36987W        W 8603  38.104  37.252  14.095
36988W        W 8604  13.768  39.689   2.813
36989W        W 8605  15.942  27.968  10.296
36990W        W 8606  32.923  28.613  14.336
36991W        W 8607  17.211  10.590   0.885
36992W        W 8608  22.781  34.394   2.218
36993W        W 8609  43.921  44.820  14.836
36994W        W 8610  37.988  44.028   4.239
36995W        W 8611   1.537   7.795   0.619
36996W        W 8612  36.868  31.938  13.850
36997W        W 8613   9.728  29.442   1.543
36998W        W 8614  37.017  11.002   5.399
36999W        W 8615  18.728  18.245  12.580
37000W        W 8616  19.273  15.196  13.055
37001W        W 8617  42.824   3.190  11.382
37002W        W 8618   0.878  17.188  12.869
37003W        W 8619  31.426  25.561   4.692
37004W        W 8620   8.708  11.627  10.777
37005W        W 8621  36.925  35.103  10.688
37006W        W 8622  17.701  37.428   2.344
37007W        W 8623  27.266   4.712   0.840
37008W        W 8624  18.201   0.192   2.739
37009W        W 8625  35.437  40.781   0.322
37010W        W 8626  18.861  16.335  12.618
37011W        W 8627   3.828  42.278  10.652
37012W        W 8628  29.864  16.824  12.225
37013W        W 8629  24.973   4.406  10.647
37014W        W 8630   7.660  35.513  12.450
37015W        W 8631  35.572  32.202  12.592
37016W        W 8632  22.573  13.146  13.015
37017W        W 8633   0.461  17.491  14.900
37018W        W 8634  19.677  18.473   1.794
37019W        W 8635   3.832  23.532   3.735
37020W        W 8636  39.659  26.805  13.847
37021W        W 8637  34.436  25.259   3.955
37022W        W 8638   4.931   4.505  11.873
37023W        W 8639  37.349   2.982   1.817
37024W        W 8640  43.624  19.158  14.245
37025W        W 8641  15.775   3.373   0.222
37026W        W 8642  25.428  39.894   2.897
37027W        W 8643   8.003  17.135   3.343
37028W        W 8644  28.208  15.040   0.711
37029W        W 8645  21.987  35.019   2.518
37030W        W 8646  32.997  23.509   0.549
37031W        W 8647   2.427  24.183  11.145
37032W        W 8648   4.428  13.857  11.032
37033W        W 8649  12.947  32.715  11.679
37034W        W 8650   7.957   1.740   2.856
37035W        W 8651  11.870  41.500   3.685
37036W        W 8652  28.143  15.243  14.445
37037W        W 8653  21.286  40.815   4.186
37038W        W 8654   5.465  22.697   2.746
37039W        W 8655  21.481  36.435  11.415
37040W        W 8656  17.255  42.507  10.878
37041W        W 8657  29.129  36.914   2.278
37042W        W 8658  13.746  31.480  12.568
37043W        W 8659  42.330  30.271   0.513
37044W        W 8660  12.693  42.489   1.481
37045W        W 8661  24.682  35.920   0.988
37046W        W 8662  35.496  31.468   1.439
37047W        W 8663   9.421  30.930  13.951
37048W        W 8664   7.459  37.791   0.933
37049W        W 8665  34.933  24.061  10.687
37050W        W 8666  31.925  14.929   0.102
37051W        W 8667  41.059  40.061  11.577
37052W        W 8668   4.397  17.716  14.902
37053W        W 8669   2.294  26.191  11.193
37054W        W 8670   8.778   7.652  13.798
37055W        W 8671  30.577  27.856   4.038
37056W        W 8672   7.688  22.516   3.346
37057W        W 8673  24.732  42.093  11.156
37058W        W 8674   2.076  28.918   5.014
37059W        W 8675  37.821  11.319  10.660
37060W        W 8676  40.420  13.903   1.315
37061W        W 8677   5.949  10.119  12.148
37062W        W 8678   2.333  40.560  14.385
37063W        W 8679  29.123  43.820   4.576
37064W        W 8680  24.451  44.505  11.099
37065W        W 8681  29.953  34.386  10.700
37066W        W 8682   7.167  24.877   3.244
37067W        W 8683  24.950  25.104   4.197
37068W        W 8684  30.463   4.505   2.825
37069W        W 8685  13.180   6.183   0.689
37070W        W 8686  34.928  15.671   4.964
37071W        W 8687  16.312  36.277  14.919
37072W        W 8688  29.145   0.838  12.502
37073W        W 8689  29.182  20.570   3.177
37074W        W 8690  29.177  13.124  10.706
37075W        W 8691   8.867  17.471   3.186
37076W        W 8692   9.434   5.357   1.244
37077W        W 8693   7.420  12.142  13.292
37078W        W 8694  43.824   2.239   2.301
37079W        W 8695   3.413   9.655   3.173
37080W        W 8696  17.583   4.154   3.648
37081W        W 8697  20.244   7.315  14.492
37082W        W 8698   6.778   9.880  12.073
37083W        W 8699   5.821  39.347  12.723
37084W        W 8700  17.504  42.980   1.720
37085W        W 8701  29.167  28.725   5.140
37086W        W 8702   4.994  35.539   4.897
37087W        W 8703  27.467  27.141   3.162
37088W        W 8704  42.427   6.708   1.712
37089W        W 8705  28.988  44.278  10.707
37090W        W 8706  41.946  31.531  10.999
37091W        W 8707  43.679  24.553  13.511
37092W        W 8708  23.611  13.106   1.417
37093W        W 8709  11.573  23.008  12.143
37094W        W 8710  16.670  36.949   4.695
37095W        W 8711   7.803  27.153   4.286
37096W        W 8712  33.924  43.927  14.087
37097W        W 8713  15.246  11.292   4.442
37098W        W 8714  17.518  31.678  10.742
37099W        W 8715  32.407  23.220   2.801
37100W        W 8716   3.139  36.373  12.076
37101W        W 8717  43.747  38.948   3.936
37102W        W 8718  18.822   3.112   3.268
37103W        W 8719  24.169  31.573  14.355
37104W        W 8720  18.091   3.741   2.854
37105W        W 8721  43.559  33.944   2.279
37106W        W 8722   4.693   6.235   0.039
37107W        W 8723  27.889  44.182  11.619
37108W        W 8724  17.671   8.084   0.024
37109W        W 8725  21.508  28.605  11.617
37110W        W 8726   5.725  41.689  10.954
37111W        W 8727  11.866   1.140  13.624
37112W        W 8728  15.597  34.210  11.955
37113W        W 8729  29.997  23.370  10.737
37114W        W 8730  40.456   8.410   2.689
37115W        W 8731  32.123  17.374  10.656
37116W        W 8732  35.363  19.053  13.968
37117W        W 8733  21.554  20.204   1.867
37118W        W 8734  19.073  27.553  14.366
37119W        W 8735  17.014  43.981  11.220
37120W        W 8736  23.131  16.721   0.361
37121W        W 8737  20.465   3.701  12.059
37122W        W 8738   1.688  29.460   1.031
37123W        W 8739  39.359  15.429   1.434
37124W        W 8740  11.270  29.995   4.124
37125W        W 8741   4.349  40.099  14.560
37126W        W 8742  15.503  31.712  12.046
37127W        W 8743   5.322  21.506  14.247
37128W        W 8744  41.393   2.232  13.896
37129W        W 8745   1.865  17.563  11.146
37130W        W 8746   4.708  10.480  10.730
37131W        W 8747   7.188  28.899   0.891
37132W        W 8748  16.133  40.281  13.087
37133W        W 8749  21.072   9.936  10.666
37134W        W 8750  42.278  16.761  14.028
37135W        W 8751   1.430  35.377  10.719
37136W        W 8752   9.160  36.865   2.017
37137W        W 8753  22.117  30.941  12.888
37138W        W 8754  22.991  26.233  12.481
37139W        W 8755  10.151   3.294  12.868
37140W        W 8756   6.929  18.573  12.482
37141W        W 8757  20.266  13.255  13.893
37142W        W 8758   4.311  23.349  12.729
37143W        W 8759  31.438  14.504  12.993
37144W        W 8760  23.654   6.182   0.845
37145W        W 8761   4.317  28.604  13.512
37146W        W 8762  11.380  10.150   2.278
37147W        W 8763  17.463  15.569  14.915
37148W        W 8764  26.601   8.408  10.753
37149W        W 8765  16.500   4.903   2.428
37150W        W 8766   6.846  15.871   0.972
37151W        W 8767  11.276  28.063   1.154
37152W        W 8768   0.729  17.601   3.235
37153W        W 8769   4.368   9.700   3.339
37154W        W 8770   4.962  19.005   4.055
37155W        W 8771   3.865   0.367   4.288
37156W        W 8772  18.933  37.173   3.803
37157W        W 8773  16.678  15.381  12.815
37158W        W 8774  10.447  30.637   1.382
37159W        W 8775  25.538  42.440   2.139
37160W        W 8776  40.886  28.238   2.331
37161W        W 8777   8.480  43.938  14.871
37162W        W 8778  36.484   3.467   0.542
37163W        W 8779   2.362  32.355   2.237
37164W        W 8780  43.386  12.167  11.401
37165W        W 8781  10.161  15.895  12.747
37166W        W 8782  13.644  10.826   3.440
37167W        W 8783  12.037  34.495  11.975
37168W        W 8784  31.993  14.218   2.222
37169W        W 8785  20.968  26.624  14.798
37170W        W 8786  42.574  43.401   3.628
37171W        W 8787  27.611  22.840  14.874
37172W        W 8788  31.434  27.078   4.807
37173W        W 8789  12.631  17.195   4.146
37174W        W 8790  24.661  27.569  14.127
37175W        W 8791  25.243  26.450  14.418
37176W        W 8792  30.635  29.215  12.847
37177W        W 8793  14.808   7.819  10.865
37178W        W 8794  38.418  37.393   2.332
37179W        W 8795  14.771   6.528  13.173
37180W        W 8796  32.099  12.825  12.692
37181W        W 8797   3.404  16.822   2.414
37182W        W 8798   6.650   9.506   0.771
37183W        W 8799  36.067  18.339  10.680
37184W        W 8800  28.370  27.001  13.980
37185W        W 8801  15.848  29.400  11.584
37186W        W 8802  21.113  43.517  13.532
37187W        W 8803  41.026  32.462   0.798
37188W        W 8804  19.443  33.555  12.879
37189W        W 8805   3.150  16.921   3.896
37190W        W 8806  13.438  25.562   4.113
37191W        W 8807  44.012  36.349   3.988
37192W        W 8808  22.768  19.528   3.291
37193W        W 8809  37.799   7.335  13.971
37194W        W 8810  41.281  22.276  14.491
37195W        W 8811  15.156  29.099   0.642
37196W        W 8812   7.668  14.584   0.496
37197W        W 8813   2.706  11.261   2.804
37198W        W 8814   7.787  41.717   1.883
37199W        W 8815  12.679   9.617  14.203
37200W        W 8816  25.164  21.447  13.017
37201W        W 8817  26.065  40.880   4.507
37202W        W 8818   8.150   4.851   3.917
37203W        W 8819  26.987  38.142   3.561
37204W        W 8820   6.278  15.262  11.627
37205W        W 8821   0.765  39.375   0.527
37206W        W 8822  44.754  42.937  13.208
37207W        W 8823  16.410  23.056  13.488
37208W        W 8824  41.979  37.843  10.776
37209W        W 8825  30.978  33.204  14.910
37210W        W 8826  43.889  41.954  13.811
37211W        W 8827   7.360  28.564  12.079
37212W        W 8828  30.657  26.900   1.941
37213W        W 8829   8.622  18.048  10.765
37214W        W 8830   3.052  30.547  14.716
37215W        W 8831  14.919   0.523   4.686
37216W        W 8832  34.600  23.666  10.679
37217W        W 8833  39.893  25.581  14.311
37218W        W 8834   9.130  15.124  14.100
37219W        W 8835   3.332  22.132   1.958
37220W        W 8836  17.271  31.917   0.933
37221W        W 8837  22.563   4.103  10.736
37222W        W 8838  32.519  15.792   0.866
37223W        W 8839  30.028  16.090  10.719
37224W        W 8840  31.045  15.678  12.327
37225W        W 8841   9.174  20.807   3.296
37226W        W 8842  43.050  39.946  11.577
37227W        W 8843  15.173   1.642  14.460
37228W        W 8844  11.193  27.629   0.889
37229W        W 8845  12.712   6.304   3.634
37230W        W 8846  28.941  26.403  12.202
37231W        W 8847  20.449  36.873  13.398
37232W        W 8848  39.249  10.935   9.851
37233W        W 8849  39.360   6.243  10.608
37234W        W 8850  31.035  34.989   2.616
37235W        W 8851  20.096   1.824   4.578
37236W        W 8852  18.501  19.581  13.428
37237W        W 8853  26.021  12.705  10.759
37238W        W 8854   2.300  18.317  11.524
37239W        W 8855  41.982   0.970  14.520
37240W        W 8856  42.444   4.296   0.758
37241W        W 8857  41.383   4.859  14.472
37242W        W 8858  25.498  37.336   4.546
37243W        W 8859  22.413  40.598  13.076
37244W        W 8860  17.727  41.333   3.286
37245W        W 8861  19.382   6.413   0.743
37246W        W 8862  28.974  15.613   2.741
37247W        W 8863  40.273  18.672  14.426
37248W        W 8864  33.348  26.996   3.973
37249W        W 8865   9.758  31.461   1.729
37250W        W 8866  20.712  41.108  14.882
37251W        W 8867  29.423   2.370  11.196
37252W        W 8868  17.720  28.213   1.258
37253W        W 8869  20.513  23.520  10.661
37254W        W 8870  24.958  18.804  13.659
37255W        W 8871   3.371  31.949  14.514
37256W        W 8872  22.736  30.381   3.122
37257W        W 8873  31.128  31.609  14.106
37258W        W 8874  18.641  10.627  14.923
37259W        W 8875  19.139   3.228   1.163
37260W        W 8876   2.720  41.992   3.568
37261W        W 8877  40.556  42.315  14.967
37262W        W 8878  20.481  29.177   1.529
37263W        W 8879  25.238  42.803  11.303
37264W        W 8880   1.637  14.540  14.030
37265W        W 8881  15.353  16.237  12.417
37266W        W 8882  12.351   4.423   1.211
37267W        W 8883  35.945  33.163  14.790
37268W        W 8884   9.960   6.268   0.391
37269W        W 8885  22.606  28.063   4.926
37270W        W 8886  40.876  11.463  14.334
37271W        W 8887  28.917  22.280   2.111
37272W        W 8888  15.748  35.073   3.629
37273W        W 8889  12.453   2.979  10.470
37274W        W 8890  21.703  18.413  14.385
37275W        W 8891   3.759  22.073   2.256
37276W        W 8892   9.815  28.344   3.527
37277W        W 8893  17.072  20.525  13.389
37278W        W 8894  17.662  33.463  11.585
37279W        W 8895   7.722  30.118   3.438
37280W        W 8896  15.273   5.810  12.029
37281W        W 8897  35.611  31.639   4.182
37282W        W 8898  17.366  36.844   3.917
37283W        W 8899  20.908   9.792   0.819
37284W        W 8900   6.328   4.512   1.376
37285W        W 8901  40.128   6.874  12.993
37286W        W 8902  39.559  10.833  10.288
37287W        W 8903  44.276  16.270  13.930
37288W        W 8904  31.548  26.605   4.574
37289W        W 8905   3.500  32.027   3.751
37290W        W 8906  33.294   9.750   0.397
37291W        W 8907  29.820  19.647   0.400
37292W        W 8908   6.420  20.815   2.284
37293W        W 8909  22.372  26.869   4.064
37294W        W 8910  43.688  38.975   3.437
37295W        W 8911  28.957  28.285  10.761
37296W        W 8912   7.249  28.882   3.229
37297W        W 8913  31.025  13.071   3.094
37298W        W 8914   6.806   4.482  10.677
37299W        W 8915  12.687   6.519  11.555
37300W        W 8916  17.783  37.923   3.199
37301W        W 8917  25.417   4.701   0.399
37302W        W 8918  28.650  12.260   3.706
37303W        W 8919  24.050  29.906   0.907
37304W        W 8920  32.275   5.127   4.139
37305W        W 8921   8.216  20.840  14.231
37306W        W 8922  36.949  27.013   1.331
37307W        W 8923  24.450  25.105  12.212
37308W        W 8924  25.039  33.732  12.860
37309W        W 8925   9.578  18.640   2.692
37310W        W 8926  30.427   5.628  13.834
37311W        W 8927  35.895  25.002   1.188
37312W        W 8928  38.583  10.848  12.411
37313W        W 8929  41.204  28.602  11.495
37314W        W 8930  43.328  15.195  13.887
37315W        W 8931  12.778  31.162  13.570
37316W        W 8932   7.008  27.450  13.983
37317W        W 8933   5.393  20.262   3.344
37318W        W 8934   9.874  10.722   1.373
37319W        W 8935  17.818  16.855   0.558
37320W        W 8936  32.680  44.121   0.304
37321W        W 8937   9.368  15.331  11.006
37322W        W 8938   1.966  41.265  11.506
37323W        W 8939  36.585  27.042   0.948
37324W        W 8940  21.757  25.535  13.842
37325W        W 8941  43.410  43.382   3.199
37326W        W 8942   4.346   3.133  13.397
37327W        W 8943  26.066  22.640  10.712
37328W        W 8944  44.796  13.640  13.746
37329W        W 8945  41.375   6.158  12.471
37330W        W 8946  27.829  21.902  13.955
37331W        W 8947  19.244  37.649  10.883
37332W        W 8948  21.040  24.516   0.646
37333W        W 8949  13.870  14.252   4.695
37334W        W 8950  35.858  21.007   3.122
37335W        W 8951   4.802  24.909   1.310
37336W        W 8952   1.395  33.799  13.896
37337W        W 8953   6.672  37.116  11.253
37338W        W 8954  24.060  12.845  10.812
37339W        W 8955  27.993   0.501   2.413
37340W        W 8956  23.326  19.651   2.822
37341W        W 8957   8.148   8.753  13.874
37342W        W 8958  29.060  30.632  10.387
37343W        W 8959   5.467  27.161  12.969
37344W        W 8960  10.385  40.933   1.400
37345W        W 8961  12.231  35.373  10.791
37346W        W 8962  17.740   3.226   0.452
37347W        W 8963  36.334  18.164  12.194
37348W        W 8964  25.989  16.080   5.077
37349W        W 8965  10.234  10.846   0.342
37350W        W 8966   5.203  32.029  10.191
37351W        W 8967  12.165   9.458   3.871
37352W        W 8968  33.833  14.377   4.144
37353W        W 8969  11.305  23.604   4.633
37354W        W 8970  16.811  33.044   2.281
37355W        W 8971   9.864  34.344  13.570
37356W        W 8972   3.044   6.045  12.232
37357W        W 8973  32.800  27.519   5.053
37358W        W 8974  15.891  18.785  10.714
37359W        W 8975  16.079  14.227  12.165
37360W        W 8976  41.593  20.707  10.406
37361W        W 8977  41.273  12.194  13.900
37362W        W 8978   7.997   8.663  14.775
37363W        W 8979  10.842  13.526  12.138
37364W        W 8980   6.388  23.074   0.908
37365W        W 8981  25.970   8.882   2.514
37366W        W 8982   1.363  30.619   4.084
37367W        W 8983  13.491  38.902  13.457
37368W        W 8984  33.358  36.428  11.847
37369W        W 8985   4.666   3.405   2.397
37370W        W 8986   5.830  11.087  14.985
37371W        W 8987  11.680  43.620   4.686
37372W        W 8988  20.791  42.149   0.041
37373W        W 8989  36.136  33.530   3.338
37374W        W 8990  21.692  12.592   4.558
37375W        W 8991  26.094  11.405   2.673
37376W        W 8992  43.761  14.250   2.926
37377W        W 8993   0.224  11.143  14.808
37378W        W 8994  27.269  13.935   4.533
37379W        W 8995  15.504  21.480  12.135
37380W        W 8996  14.600   9.309   0.724
37381W        W 8997   6.818  39.936  13.429
37382W        W 8998  23.335  16.010  12.768
37383W        W 8999  29.578   0.856   3.316
37384W        W 9000   2.796  33.180  10.555
37385W        W 9001  40.148  12.449   5.444
37386W        W 9002  24.658   1.680   0.271
37387W        W 9003   4.076   9.768   2.626
37388W        W 9004  11.704  39.027  10.638
37389W        W 9005  23.048  26.233   4.183
37390W        W 9006  26.375  36.304   4.931
37391W        W 9007  22.454   5.025  12.896
37392W        W 9008  42.355  28.500   1.467
37393W        W 9009   9.180   3.710   0.411
37394W        W 9010  44.006  37.621  14.370
37395W        W 9011  15.096  14.681  13.021
37396W        W 9012  41.403  41.126   0.207
37397W        W 9013  37.909  44.381  10.795
37398W        W 9014   9.897  11.835  11.170
37399W        W 9015   6.751  22.159  13.935
37400W        W 9016  21.471  15.366   3.307
37401W        W 9017  17.476  29.680  11.188
37402W        W 9018   3.778  37.873  12.954
37403W        W 9019   6.935  19.940  14.495
37404W        W 9020  22.759  39.074   0.861
37405W        W 9021  12.043  42.975  14.278
37406W        W 9022   0.672   6.425  11.497
37407W        W 9023   1.213  42.418   2.761
37408W        W 9024  25.501  14.113  11.025
37409W        W 9025  43.253  43.548  11.212
37410W        W 9026  30.903  19.745  13.376
37411W        W 9027  34.256  11.045  13.940
37412W        W 9028  42.831  23.240   0.118
37413W        W 9029  11.280  22.131   2.669
37414W        W 9030  22.939  23.095   3.708
37415W        W 9031   3.787  43.148  11.215
37416W        W 9032  42.351  24.455  14.780
37417W        W 9033  30.354   4.203   3.215
37418W        W 9034  28.787  23.104   2.714
37419W        W 9035  22.566  21.194  11.924
37420W        W 9036  32.156  15.782  12.912
37421W        W 9037  35.170  42.519   1.221
37422W        W 9038  22.463  18.397   5.129
37423W        W 9039   7.668   2.935   2.783
37424W        W 9040  14.679  10.874  12.523
37425W        W 9041  18.297  24.208   2.701
37426W        W 9042   0.391  14.798   0.406
37427W        W 9043  44.909  27.625   3.442
37428W        W 9044  12.324  16.537   1.250
37429W        W 9045  13.628  40.956  11.679
37430W        W 9046   3.489  36.034  13.366
37431W        W 9047  27.954   1.683  13.447
37432W        W 9048  41.670  28.754  11.595
37433W        W 9049   0.985  42.526  13.112
37434W        W 9050  34.361  28.522  11.089
37435W        W 9051  24.744  39.027  13.466
37436W        W 9052  20.002  29.941   2.762
37437W        W 9053   8.241  15.194   1.174
37438W        W 9054  42.617  10.287  11.588
37439W        W 9055  41.063  16.576   1.897
37440W        W 9056  14.047  44.293  12.649
37441W        W 9057  23.088  26.591   1.899
37442W        W 9058  18.645  44.726  13.828
37443W        W 9059  15.588  40.370  14.408
37444W        W 9060  32.104  39.822  11.290
37445W        W 9061  22.941  31.262   2.593
37446W        W 9062   8.122  19.119  12.871
37447W        W 9063  33.350  36.949  11.952
37448W        W 9064  27.964  12.188   0.902
37449W        W 9065  25.971  17.280   1.627
37450W        W 9066  17.560  12.566   1.716
37451W        W 9067  40.611  20.662  14.287
37452W        W 9068  36.017  43.939  13.760
37453W        W 9069   7.685  36.923  13.320
37454W        W 9070  43.070  14.431   3.507
37455W        W 9071  15.678  19.247   3.731
37456W        W 9072   1.202  19.477  12.727
37457W        W 9073  20.966  10.339  14.365
37458W        W 9074  14.079  11.330   0.003
37459W        W 9075  14.163  33.075  14.755
37460W        W 9076  12.679  40.322  10.940
37461W        W 9077  19.344  44.917  11.576
37462W        W 9078  38.497  43.873  12.449
37463W        W 9079   8.998  26.979   0.237
37464W        W 9080  11.329   0.904   3.350
37465W        W 9081  38.829  13.818  13.762
37466W        W 9082  35.927  23.043  12.992
37467W        W 9083  44.267  15.147  11.390
37468W        W 9084  19.198  28.101   2.239
37469W        W 9085   2.521  36.571   3.619
37470W        W 9086  32.905  25.396  11.654
37471W        W 9087  31.797  44.655  13.398
37472W        W 9088  27.187  33.892  13.228
37473W        W 9089   3.768  17.021  12.415
37474W        W 9090  42.718  35.645   0.279
37475W        W 9091  42.457  18.900   1.708
37476W        W 9092  35.442  35.732   3.812
37477W        W 9093  19.366  39.374  14.319
37478W        W 9094  18.241  16.554   0.633
37479W        W 9095  24.349  19.625   4.351
37480W        W 9096   2.730  30.868  14.955
37481W        W 9097  39.323  22.758   0.168
37482W        W 9098  39.509  30.546   3.409
37483W        W 9099  42.412  43.543  14.457
37484W        W 9100   6.253  14.744  11.560
37485W        W 9101  16.250  35.641   3.155
37486W        W 9102   1.771   3.226  14.455
37487W        W 9103  34.469  13.270   1.222
37488W        W 9104   2.272  39.959   0.998
37489W        W 9105   4.058  35.498   0.498
37490W        W 9106  11.747  41.845   5.283
37491W        W 9107  42.059  26.283  10.703
37492W        W 9108  30.215   0.942  10.367
37493W        W 9109   5.382  19.179  13.405
37494W        W 9110  29.102  16.267  11.433
37495W        W 9111  31.715  12.273   4.904
37496W        W 9112  19.536  13.160   3.825
37497W        W 9113  27.976  20.963   3.313
37498W        W 9114  20.338  23.543   2.856
37499W        W 9115  44.388  38.997   0.776
37500W        W 9116   4.816  39.340  12.511
37501W        W 9117   7.315  41.828   4.312
37502W        W 9118  34.385   3.667  13.628
37503W        W 9119  29.444   0.467   1.737
37504W        W 9120   2.407   9.246   1.781
37505W        W 9121  42.310  37.871  14.805
37506W        W 9122  34.991  42.340  11.933
37507W        W 9123   5.794   3.729   2.742
37508W        W 9124  13.616  24.975   2.697
37509W        W 9125  17.161  35.688   1.253
37510W        W 9126   7.102   8.642  12.725
37511W        W 9127  17.495  13.114  13.912
37512W        W 9128  43.048   5.625   2.378
37513W        W 9129  18.216   0.930   0.022
37514W        W 9130  43.309  17.823  10.797
37515W        W 9131  11.846  39.759  10.994
37516W        W 9132  19.599  41.372   1.362
37517W        W 9133   9.131  29.575  14.359
37518W        W 9134  32.096  31.661  11.409
37519W        W 9135   7.271  15.320   2.589
37520W        W 9136  11.771  10.880  12.416
37521W        W 9137  43.432  25.565  12.852
37522W        W 9138  19.238   7.904  10.758
37523W        W 9139  28.916  41.783   4.118
37524W        W 9140   8.476  38.055   3.155
37525W        W 9141  11.359  42.050   3.338
37526W        W 9142  24.500  21.049  13.974
37527W        W 9143  31.139   2.743   1.835
37528W        W 9144  11.364  22.644   2.793
37529W        W 9145  31.896  12.869  10.769
37530W        W 9146  22.780  30.596   3.592
37531W        W 9147  37.550  29.504   0.757
37532W        W 9148   3.705  40.521   2.729
37533W        W 9149  34.316  34.504   1.320
37534W        W 9150  34.945  21.192   3.911
37535W        W 9151  11.533  14.669   0.204
37536W        W 9152  23.002  25.479   3.738
37537W        W 9153  29.450   1.166   3.722
37538W        W 9154  35.547   6.087   4.161
37539W        W 9155   8.424  33.444   0.658
37540W        W 9156  41.424  40.550   3.619
37541W        W 9157   9.495  43.029   4.035
37542W        W 9158  10.906  14.243  14.514
37543W        W 9159  31.255  25.169   1.379
37544W        W 9160   8.751  32.863   3.832
37545W        W 9161  33.081  27.549   3.315
37546W        W 9162  27.205  10.249  12.140
37547W        W 9163  15.448  28.888   1.472
37548W        W 9164  12.204  20.128  10.582
37549W        W 9165  24.180  38.828  12.144
37550W        W 9166  23.895  43.076  13.428
37551W        W 9167  17.146   4.903  12.542
37552W        W 9168   5.069  13.618  11.138
37553W        W 9169  24.789  39.362   0.468
37554W        W 9170  25.563  41.900   3.776
37555W        W 9171  24.441  21.577   0.752
37556W        W 9172  18.483  26.495   0.414
37557W        W 9173   6.392   2.904   4.627
37558W        W 9174   3.250  20.592   2.216
37559W        W 9175  41.580   6.461  11.062
37560W        W 9176  21.464  38.144  13.898
37561W        W 9177  19.018   8.266  14.747
37562W        W 9178   7.458  44.601  13.281
37563W        W 9179  39.217  37.861   3.667
37564W        W 9180  20.962  37.112   2.322
37565W        W 9181  37.556   1.660   4.518
37566W        W 9182  20.009  13.666   0.288
37567W        W 9183  41.861  41.518  10.626
37568W        W 9184  14.653  20.421  14.697
37569W        W 9185  34.194  13.575  12.418
37570W        W 9186   2.744  25.882   1.263
37571W        W 9187  18.963   3.211   0.245
37572W        W 9188  44.840  44.024  10.380
37573W        W 9189  25.909  36.598  14.856
37574W        W 9190   0.005  26.611  10.599
37575W        W 9191  39.816   7.913   3.333
37576W        W 9192  43.863  26.131  10.942
37577W        W 9193   0.269  26.650  14.496
37578W        W 9194  12.365   3.307   2.562
37579W        W 9195  18.061   1.191  11.207
37580W        W 9196  41.279  43.264   2.671
37581W        W 9197  27.937  10.352   0.832
37582W        W 9198  28.517  40.480  11.960
37583W        W 9199  40.371  35.363   2.562
37584W        W 9200  37.868  35.460   0.795
37585W        W 9201  13.365  10.440   4.422
37586W        W 9202  16.687  18.053  11.886
37587W        W 9203  20.224  24.588  13.383
37588W        W 9204   2.147  34.850   0.798
37589W        W 9205   8.757  22.910   4.976
37590W        W 9206  28.567  26.565  11.729
37591W        W 9207  39.874  25.058  10.687
37592W        W 9208  11.292  33.034  13.022
37593W        W 9209  44.867  28.490  10.638
37594W        W 9210   1.417  27.970   0.703
37595W        W 9211   3.532  18.564  14.378
37596W        W 9212  10.350  30.108  14.733
37597W        W 9213  28.854  40.518   0.208
37598W        W 9214  22.873  29.600   0.358
37599W        W 9215  37.760  33.074   2.256
37600W        W 9216  27.664  42.601   3.234
37601W        W 9217  18.327   8.944  12.081
37602W        W 9218  36.577   5.803   3.872
37603W        W 9219   9.391  44.311  13.195
37604W        W 9220   1.172  25.703   2.849
37605W        W 9221   5.752  25.007   0.375
37606W        W 9222  14.342  21.497  14.774
37607W        W 9223   7.550  26.498  14.477
37608W        W 9224   2.494  17.280   4.588
37609W        W 9225  13.677  29.475  12.902
37610W        W 9226   4.704  36.193  11.577
37611W        W 9227   9.159  37.115   2.505
37612W        W 9228  21.007  17.181  11.573
37613W        W 9229  26.637  27.174   2.223
37614W        W 9230  11.083  43.376  14.832
37615W        W 9231  19.165  32.475   4.216
37616W        W 9232  18.613  25.135  13.660
37617W        W 9233  12.685  19.859   2.359
37618W        W 9234  19.863  42.302   4.175
37619W        W 9235  36.051  22.695   2.330
37620W        W 9236   9.342  11.733  13.164
37621W        W 9237   0.003  43.996   1.725
37622W        W 9238  35.076   7.977  13.739
37623W        W 9239  30.890  21.933  13.698
37624W        W 9240   3.372   0.648   1.239
37625W        W 9241  17.601  32.113   1.841
37626W        W 9242   8.268  41.352  11.905
37627W        W 9243  43.546  28.499  10.982
37628W        W 9244  18.930  23.962  12.420
37629W        W 9245  15.814   7.464  12.610
37630W        W 9246   0.945  37.708   4.268
37631W        W 9247  23.040  25.633  10.723
37632W        W 9248  38.865  44.252  10.731
37633W        W 9249   7.198  25.632  10.694
37634W        W 9250  29.975  42.427  13.077
37635W        W 9251  33.557  16.299   3.952
37636W        W 9252  34.333   9.183   1.782
37637W        W 9253   7.809  18.565   0.476
37638W        W 9254   9.099   9.351   0.958
37639W        W 9255  42.904  15.637   3.616
37640W        W 9256  16.035  32.466  11.567
37641W        W 9257  17.256   7.218   1.270
37642W        W 9258  28.875  16.077  13.827
37643W        W 9259  28.965  21.407  12.934
37644W        W 9260  24.344  20.315  11.615
37645W        W 9261  25.484  10.350   4.962
37646W        W 9262  10.376  26.525   1.247
37647W        W 9263  24.201  17.731   0.507
37648W        W 9264  14.422   3.128   0.413
37649W        W 9265  28.743  25.586   0.043
37650W        W 9266  44.983  40.489  14.763
37651W        W 9267  10.312  19.491  13.522
37652W        W 9268  10.690   2.169  12.928
37653W        W 9269  33.594  29.519   1.803
37654W        W 9270  23.562  42.016  10.786
37655W        W 9271  42.034  39.487   1.703
37656W        W 9272   1.661   5.945   0.798
37657W        W 9273  14.348  17.869  12.431
37658W        W 9274  37.817  11.912   3.505
37659W        W 9275   4.524  24.069   5.108
37660W        W 9276   2.518  37.375  11.279
37661W        W 9277  35.164  42.866   3.612
37662W        W 9278  32.588  31.914  11.573
37663W        W 9279  28.682  16.688   0.323
37664W        W 9280  43.219  32.033   3.573
37665W        W 9281  35.556  23.255  14.032
37666W        W 9282   5.269  25.315  14.729
37667W        W 9283  10.229  21.636   1.378
37668W        W 9284  44.066  30.484  10.615
37669W        W 9285  22.238  41.960  11.856
37670W        W 9286  17.544  28.175  14.428
37671W        W 9287  19.175   9.404   0.852
37672W        W 9288   8.345  39.183   0.433
37673W        W 9289  10.585  43.809  13.557
37674W        W 9290   1.979  23.630   0.348
37675W        W 9291  19.713  22.678  12.572
37676W        W 9292   3.435  21.108  11.438
37677W        W 9293  38.522  42.260  12.948
37678W        W 9294  17.611  28.039  13.046
37679W        W 9295  39.818  17.219  11.903
37680W        W 9296  33.034  21.980  14.770
37681W        W 9297  35.043   0.187  10.960
37682W        W 9298  26.757  33.882   3.222
37683W        W 9299  38.920   0.978   2.147
37684W        W 9300   7.606  30.861   1.210
37685W        W 9301   9.336  30.423   0.730
37686W        W 9302  37.119  35.481  14.273
37687W        W 9303  22.777   7.251   1.416
37688W        W 9304  23.312  21.404   3.739
37689W        W 9305  16.322  18.936   3.197
37690W        W 9306  36.618   0.558  13.935
37691W        W 9307  38.313  18.893   5.033
37692W        W 9308  37.860  41.145   4.716
37693W        W 9309  21.655  28.392   0.217
37694W        W 9310  20.512  33.492   3.801
37695W        W 9311  42.032  29.478   3.291
37696W        W 9312  28.202  42.343   0.768
37697W        W 9313   0.838   8.820   3.659
37698W        W 9314  29.124  16.507  14.955
37699W        W 9315   4.902  17.643   3.129
37700W        W 9316  35.477   1.948  13.562
37701W        W 9317  26.191  32.897  11.133
37702W        W 9318  17.069  29.052   0.309
37703W        W 9319  40.477  34.460  11.151
37704W        W 9320  19.799  19.621  11.568
37705W        W 9321   2.463  15.289   3.289
37706W        W 9322  37.952  16.502  12.435
37707W        W 9323  35.692   3.802   4.252
37708W        W 9324  22.984  22.617  11.967
37709W        W 9325  13.862   5.343   1.934
37710W        W 9326  39.726  15.960  14.883
37711W        W 9327  38.975  15.189   0.437
37712W        W 9328  18.283   9.398  10.607
37713W        W 9329  30.520  20.815  11.169
37714W        W 9330  18.286  31.221   2.784
37715W        W 9331  44.930  38.103   4.204
37716W        W 9332  34.609   5.965  13.024
37717W        W 9333  41.093  19.537   3.690
37718W        W 9334  19.152  16.650   1.657
37719W        W 9335   5.788  35.033   1.524
37720W        W 9336  35.386   2.368   0.309
37721W        W 9337   1.006  38.524   1.381
37722W        W 9338  32.494   3.390   2.963
37723W        W 9339  28.687   7.150  11.561
37724W        W 9340   6.817  11.386   1.956
37725W        W 9341  24.051  41.573   0.636
37726W        W 9342  31.574  30.524  13.052
37727W        W 9343  11.211  44.732  11.040
37728W        W 9344  29.631  21.768  13.496
37729W        W 9345  32.784  12.267  12.005
37730W        W 9346  20.804   2.403   1.827
37731W        W 9347  41.908  24.001  14.240
37732W        W 9348  20.557   4.413   2.361
37733W        W 9349  18.375  31.511  11.698
37734W        W 9350  38.006  33.124   3.751
37735W        W 9351  36.038  36.643  12.500
37736W        W 9352  30.468  42.797   0.953
37737W        W 9353  13.331  35.629   0.434
37738W        W 9354  28.630   2.906  14.941
37739W        W 9355  36.885  44.731   2.787
37740W        W 9356  21.209   9.149  11.166
37741W        W 9357  24.685  13.344  13.422
37742W        W 9358  40.798   8.104   2.203
37743W        W 9359   7.304  30.097  10.656
37744W        W 9360   0.395   3.663   3.219
37745W        W 9361   3.487  15.471  13.541
37746W        W 9362  30.144  15.413  12.342
37747W        W 9363  39.899  24.741   0.253
37748W        W 9364  40.862  10.315  14.820
37749W        W 9365  33.158  22.128  11.647
37750W        W 9366   4.423  41.260  13.858
37751W        W 9367  36.271   0.747   4.233
37752W        W 9368   0.349  35.548  12.518
37753W        W 9369  31.578  12.901   3.127
37754W        W 9370  28.477  24.894   1.263
37755W        W 9371   9.403  41.242  12.878
37756W        W 9372  14.579   7.262   4.303
37757W        W 9373  27.674  42.510  14.601
37758W        W 9374  34.875  34.088   3.128
37759W        W 9375  16.722  29.528   0.667
37760W        W 9376  37.004  26.222   4.863
37761W        W 9377  26.142   3.374   2.892
37762W        W 9378  32.709  43.453   0.260
37763W        W 9379  32.522  16.630   2.332
37764W        W 9380  30.607  14.163   4.704
37765W        W 9381   1.290  32.299  12.027
37766W        W 9382  42.491   2.154   0.544
37767W        W 9383  29.652  12.651   4.226
37768W        W 9384  25.223  41.379  11.616
37769W        W 9385  40.243   8.223  14.916
37770W        W 9386  11.403   2.893  14.949
37771W        W 9387   3.899  29.589   1.403
37772W        W 9388  17.924  34.705  10.288
37773W        W 9389  16.647  33.071  13.642
37774W        W 9390  24.147  17.069  10.982
37775W        W 9391  27.512  41.118   1.881
37776W        W 9392   9.362  11.665  10.303
37777W        W 9393   0.489   6.454  14.427
37778W        W 9394  12.796   9.326  11.628
37779W        W 9395  31.187  44.256   0.998
37780W        W 9396  40.965  40.588  13.489
37781W        W 9397  30.450   4.131  14.201
37782W        W 9398  29.061  13.055   3.571
37783W        W 9399   2.411  10.256  12.442
37784W        W 9400  22.791  22.798  10.260
37785W        W 9401  24.693   9.390  13.891
37786W        W 9402  26.230  21.274   0.756
37787W        W 9403  21.101  34.376  11.621
37788W        W 9404  26.057  37.497  11.743
37789W        W 9405   0.859  24.392   1.292
37790W        W 9406   8.257  13.194   2.689
37791W        W 9407   4.377  43.360   4.589
37792W        W 9408   0.304  17.991   1.276
37793W        W 9409  30.771  38.373   1.281
37794W        W 9410  15.255  28.265   3.779
37795W        W 9411  28.877  34.590   1.118
37796W        W 9412  38.156  11.085  10.333
37797W        W 9413  25.207   9.410   5.098
37798W        W 9414   3.286  32.833  10.023
37799W        W 9415   9.578  21.021   3.573
37800W        W 9416   4.845  42.105  13.031
37801W        W 9417  17.054   8.634  12.310
37802W        W 9418  18.909  25.813   2.501
37803W        W 9419  16.389  17.659  12.051
37804W        W 9420  43.253   6.906  14.929
37805W        W 9421  22.214  26.113   2.163
37806W        W 9422  18.227  44.537   5.352
37807W        W 9423  11.260  41.405   1.029
37808W        W 9424  41.331  38.352   3.275
37809W        W 9425  26.897   3.817   4.482
37810W        W 9426  26.938  44.279   1.710
37811W        W 9427   9.134  21.004   3.821
37812W        W 9428  30.175   4.017  14.671
37813W        W 9429  11.087  14.814  11.140
37814W        W 9430  35.146  32.040   1.276
37815W        W 9431  28.483  34.822  14.376
37816W        W 9432  42.774  34.750   3.614
37817W        W 9433   8.958  31.599  10.244
37818W        W 9434  30.053  10.758  13.417
37819W        W 9435  12.213  37.806   1.844
37820W        W 9436  19.596  16.332  12.179
37821W        W 9437  23.000   7.696   2.419
37822W        W 9438  44.345  35.351  12.634
37823W        W 9439  43.875  31.421   1.494
37824W        W 9440  37.878  35.388  10.742
37825W        W 9441  35.892  40.347   2.771
37826W        W 9442  35.994  39.830   1.958
37827W        W 9443   7.171  41.927  14.868
37828W        W 9444  25.496   6.510   4.975
37829W        W 9445  31.838  12.632   3.930
37830W        W 9446  42.328  27.210  11.089
37831W        W 9447   6.411  10.467   4.175
37832W        W 9448  28.146  27.556  12.675
37833W        W 9449   5.449   5.270   4.613
37834W        W 9450  39.550  34.475   4.325
37835W        W 9451  31.875  35.593  13.449
37836W        W 9452   6.251   2.948   2.937
37837W        W 9453   3.421  20.096  13.986
37838W        W 9454  35.229  28.262   5.031
37839W        W 9455   6.433  19.483  11.233
37840W        W 9456  27.092  34.559   2.465
37841W        W 9457  23.162   9.199  11.927
37842W        W 9458  10.806  39.918   0.474
37843W        W 9459  42.479  32.586   1.906
37844W        W 9460  16.510  44.564   5.110
37845W        W 9461   7.602   8.317   3.251
37846W        W 9462   5.117  31.383  13.882
37847W        W 9463  27.886   5.594   1.868
37848W        W 9464  38.569   9.054  13.597
37849W        W 9465  44.297  20.175  10.569
37850W        W 9466  18.606  18.585  12.209
37851W        W 9467  20.938  24.711   1.864
37852W        W 9468  35.302  33.944  11.989
37853W        W 9469  41.602  12.126   2.225
37854W        W 9470  16.035  44.741   0.295
37855W        W 9471  42.490  43.445   1.347
37856W        W 9472   5.749   0.065  12.485
37857W        W 9473  30.974  42.325   1.242
37858W        W 9474  44.411  21.542   4.616
37859W        W 9475   5.939  41.486  14.927
37860W        W 9476  21.800  29.031  11.481
37861W        W 9477  34.291  33.357  14.759
37862W        W 9478  16.667  21.513  12.281
37863W        W 9479   0.416  30.615  11.910
37864W        W 9480  32.477   2.872  12.485
37865W        W 9481   9.138  12.749   4.338
37866W        W 9482   2.729   2.236  10.699
37867W        W 9483  18.766  35.440  11.407
37868W        W 9484  37.729  28.099  11.173
37869W        W 9485  27.551  26.541  14.848
37870W        W 9486  12.809  13.311  10.908
37871W        W 9487  22.083  26.907   1.805
37872W        W 9488  20.280  30.226   2.349
37873W        W 9489   7.325  37.972  10.612
37874W        W 9490  33.066  31.193   2.857
37875W        W 9491  32.180   5.162  11.056
37876W        W 9492  38.449  40.366   1.199
37877W        W 9493   6.731  32.031   4.379
37878W        W 9494   4.633  40.045  13.823
37879W        W 9495  43.962   2.535   2.843
37880W        W 9496  35.391  30.883   0.018
37881W        W 9497   8.659  43.150   0.912
37882W        W 9498   4.872   8.371  13.456
37883W        W 9499  42.679  32.180  14.770
37884W        W 9500  36.403  28.485   2.107
37885W        W 9501  42.434   2.934   3.627
37886W        W 9502  25.270   8.701   3.224
37887W        W 9503  44.684  21.576  11.997
37888W        W 9504   7.247  25.851  12.347
37889W        W 9505  22.837  38.092   4.528
37890W        W 9506  23.380  24.048   2.721
37891W        W 9507   5.700  22.785  13.613
37892W        W 9508  44.946  40.309   4.234
37893W        W 9509  11.118  41.328   2.415
37894W        W 9510  29.201  42.388   4.597
37895W        W 9511  15.979  27.578  13.379
37896W        W 9512   3.780  24.440   2.265
37897W        W 9513   6.881  26.173   1.042
37898W        W 9514  41.774  25.193  12.876
37899W        W 9515  40.271  10.219  13.824
37900W        W 9516  44.202   5.024  11.189
37901W        W 9517  10.296  41.307  10.324
37902W        W 9518  22.491  12.716   5.036
37903W        W 9519  18.176  15.837   2.773
37904W        W 9520  27.789   6.284  14.855
37905W        W 9521  35.306   7.976   1.845
37906W        W 9522  29.500  12.931   3.808
37907W        W 9523  44.468  22.257  10.755
37908W        W 9524  37.025   5.261   0.360
37909W        W 9525  20.170  35.395   0.196
37910W        W 9526   3.874  33.022  12.089
37911W        W 9527   0.419  10.987   3.135
37912W        W 9528  11.259  22.785   2.185
37913W        W 9529  41.457  40.539  12.918
37914W        W 9530   8.597  11.234  12.962
37915W        W 9531  21.751  13.881   2.799
37916W        W 9532  37.136   4.379   2.877
37917W        W 9533  40.291  34.465  13.869
37918W        W 9534  28.432  12.873  14.494
37919W        W 9535  41.953  44.374  10.699
37920W        W 9536  43.764  40.982   1.348
37921W        W 9537  10.258  16.097  14.428
37922W        W 9538  32.360   5.602   0.062
37923W        W 9539   3.306   8.125  11.573
37924W        W 9540  44.516  10.167   4.029
37925W        W 9541  12.736  22.019   4.283
37926W        W 9542  20.683  24.509  11.650
37927W        W 9543  15.568   0.320  14.966
37928W        W 9544  41.214   6.646  11.604
37929W        W 9545  28.993  18.080   2.049
37930W        W 9546   2.175  34.189   2.335
37931W        W 9547   3.212  37.462   3.348
37932W        W 9548  32.441  24.663  12.957
37933W        W 9549  33.413  15.892   1.854
37934W        W 9550  40.311  28.624  12.480
37935W        W 9551  38.379  23.607  10.409
37936W        W 9552  27.091   3.190   1.695
37937W        W 9553  35.462  28.156  11.459
37938W        W 9554  29.999  26.611   2.884
37939W        W 9555  22.237   4.667  12.493
37940W        W 9556  28.136   3.380  10.682
37941W        W 9557  11.955  42.564   4.654
37942W        W 9558   9.198   8.697  13.368
37943W        W 9559  42.813   3.278  13.494
37944W        W 9560   9.729  22.988  14.465
37945W        W 9561  13.185  42.515   4.125
37946W        W 9562  17.421  32.078  11.646
37947W        W 9563  39.678  21.272   4.549
37948W        W 9564  10.308  32.235   0.991
37949W        W 9565   0.520  14.259   4.626
37950W        W 9566  39.369  17.838   0.038
37951W        W 9567  34.538  18.012  10.691
37952W        W 9568   9.375  35.589   2.725
37953W        W 9569  36.361  22.229  12.448
37954W        W 9570  34.242  41.472  13.103
37955W        W 9571  35.060   4.998  12.512
37956W        W 9572  22.521  24.627   3.811
37957W        W 9573  41.863   8.847  14.453
37958W        W 9574  31.473   3.010   0.716
37959W        W 9575   6.423  20.078  12.149
37960W        W 9576  42.849  15.511   1.864
37961W        W 9577  12.773  36.387   4.936
37962W        W 9578   7.664   0.057   0.451
37963W        W 9579  44.047  20.465   3.903
37964W        W 9580  12.622  36.990   3.823
37965W        W 9581  17.927  17.234  12.758
37966W        W 9582  41.414  17.417  10.331
37967W        W 9583   3.797  16.717  13.854
37968W        W 9584  41.019   0.271   1.904
37969W        W 9585  33.638  26.404  12.205
37970W        W 9586  38.882   6.466  14.651
37971W        W 9587  21.025  30.414   2.887
37972W        W 9588  25.627   3.692  13.961
37973W        W 9589  10.856  41.702  12.424
37974W        W 9590   9.207  18.086   3.763
37975W        W 9591  37.444  42.008  11.922
37976W        W 9592  44.217  42.036  11.163
37977W        W 9593   7.321  34.386  12.576
37978W        W 9594  23.146  32.234  13.263
37979W        W 9595  27.101   3.846   3.503
37980W        W 9596   4.705  24.172  13.280
37981W        W 9597  19.720  10.081  10.969
37982W        W 9598  19.765  31.483  14.292
37983W        W 9599  31.529  36.045   3.487
37984W        W 9600  39.862  21.656  14.372
37985W        W 9601   7.953  34.677  10.607
37986W        W 9602  29.500  17.470  12.121
37987W        W 9603   2.229  17.343  12.907
37988W        W 9604  27.697  33.915  14.004
37989W        W 9605  41.089  40.029  12.518
37990W        W 9606  10.667  24.865   1.229
37991W        W 9607  40.869  35.999   1.296
37992W        W 9608  19.173  24.421  12.656
37993W        W 9609  28.590  36.884   0.522
37994W        W 9610  21.477   8.315   2.735
37995W        W 9611  14.284  22.526   4.069
37996W        W 9612   0.824  31.467  11.622
37997W        W 9613  35.347  22.001  14.698
37998W        W 9614  33.085   0.913  14.185
37999W        W 9615  43.396  35.582  11.172
38000W        W 9616  22.106  17.777   1.982
38001W        W 9617  22.058  25.507  12.908
38002W        W 9618  39.822  40.306  12.711
38003W        W 9619  31.710  30.612   4.258
38004W        W 9620  27.997  36.200   3.673
38005W        W 9621  18.281   6.440  12.900
38006W        W 9622  14.134  29.025   4.197
38007W        W 9623  18.551  14.522   3.668
38008W        W 9624  31.519   0.792  10.142
38009W        W 9625  17.577  11.662   1.687
38010W        W 9626  26.696  24.990  13.923
38011W        W 9627  28.514  16.920  14.777
38012W        W 9628  32.057  26.207   9.813
38013W        W 9629  28.075  20.698   0.892
38014W        W 9630  39.335  19.778   2.700
38015W        W 9631  21.708   0.855  12.402
38016W        W 9632  10.901  12.898   0.854
38017W        W 9633  35.452  31.740  14.364
38018W        W 9634  11.920  35.630   1.884
38019W        W 9635  18.778  26.180  11.974
38020W        W 9636   6.328  10.805   3.760
38021W        W 9637   3.573  10.110   3.958
38022W        W 9638  15.351   9.429  13.840
38023W        W 9639  19.259   8.642   1.226
38024W        W 9640   9.215  40.615   0.416
38025W        W 9641  28.965  30.195   1.328
38026W        W 9642   5.249  15.766   9.957
38027W        W 9643  23.565  15.781   1.887
38028W        W 9644  33.313   7.798   2.832
38029W        W 9645  34.421  15.219   0.703
38030W        W 9646  37.936  34.416   1.951
38031W        W 9647  11.875  10.364  12.194
38032W        W 9648  13.752  13.822   4.417
38033W        W 9649  15.733  25.223  10.810
38034W        W 9650   6.369  12.523  10.229
38035W        W 9651   2.706   4.249  12.041
38036W        W 9652  12.319  43.610   3.255
38037W        W 9653  28.730  31.477   3.251
38038W        W 9654  11.599   2.341   4.054
38039W        W 9655   5.218   1.252  12.376
38040W        W 9656  28.970  42.258  10.454
38041W        W 9657   5.934   5.790  14.802
38042W        W 9658  15.111   2.820   1.311
38043W        W 9659  31.976  39.039  14.965
38044W        W 9660  27.436   2.916   0.993
38045W        W 9661  42.905  22.145  11.589
38046W        W 9662  13.697  13.416   4.095
38047W        W 9663   1.204   3.739  13.885
38048W        W 9664   1.328  15.029  11.600
38049W        W 9665  21.717   6.336  13.003
38050W        W 9666  17.310  11.722  14.326
38051W        W 9667  13.027  22.702  12.823
38052W        W 9668   4.205   8.610   2.332
38053W        W 9669  31.727  28.813   1.730
38054W        W 9670   0.296  42.895  10.789
38055W        W 9671  27.499  20.244   3.556
38056W        W 9672  13.410  22.682  11.245
38057W        W 9673   5.473  19.151   2.176
38058W        W 9674  38.938  22.603  14.830
38059W        W 9675  21.796  30.610   3.355
38060W        W 9676  35.393  40.951   4.389
38061W        W 9677  41.282  30.600   3.678
38062W        W 9678   6.822  23.150   2.396
38063W        W 9679   1.346  20.365  12.393
38064W        W 9680  20.841  18.244   9.574
38065W        W 9681  39.592  30.059  12.486
38066W        W 9682   6.336   1.856  11.160
38067W        W 9683  22.494  43.321  12.040
38068W        W 9684  18.046  34.651  13.300
38069W        W 9685  28.085  21.557   0.360
38070W        W 9686  19.593   0.719  11.447
38071W        W 9687   3.628   6.409   2.801
38072W        W 9688  33.666  23.972   2.222
38073W        W 9689  19.670  29.560   5.034
38074W        W 9690  35.737  43.885   0.784
38075W        W 9691  25.656  35.404  13.076
38076W        W 9692  10.740  31.633   1.779
38077W        W 9693  40.124  40.547   2.243
38078W        W 9694  40.958   8.219   4.545
38079W        W 9695  26.734   6.549   3.087
38080W        W 9696  43.803   0.226  12.019
38081W        W 9697  43.966  36.428  11.902
38082W        W 9698  32.823   9.174   1.150
38083W        W 9699  33.697  37.382   2.804
38084W        W 9700  33.504  37.343   0.550
38085W        W 9701  42.825  33.055   4.648
38086W        W 9702  23.644  35.287  13.076
38087W        W 9703  17.128  26.731  10.627
38088W        W 9704  21.177  42.786   1.949
38089W        W 9705   0.503   2.708   0.096
38090W        W 9706  27.271  13.825  12.716
38091W        W 9707   1.537   2.938  12.995
38092W        W 9708  26.430   0.640   3.714
38093W        W 9709  20.547  18.719  13.895
38094W        W 9710  30.107  32.701  12.469
38095W        W 9711  27.111  22.174   3.628
38096W        W 9712   3.945   9.995  13.349
38097W        W 9713   8.509   1.407   4.981
38098W        W 9714  36.846  43.565   1.255
38099W        W 9715  26.232  13.690  11.098
38100W        W 9716  29.663   1.884  14.333
38101W        W 9717  44.413   0.445  14.437
38102W        W 9718  23.205  20.148   2.777
38103W        W 9719  14.589  13.168  11.988
38104W        W 9720  15.223  38.501   2.733
38105W        W 9721  26.965  42.771  12.385
38106W        W 9722  12.586  42.617   2.827
38107W        W 9723  34.123  30.610  12.640
38108W        W 9724   0.940   7.900   3.324
38109W        W 9725   6.295  22.578   3.647
38110W        W 9726  16.730  40.576   0.748
38111W        W 9727   7.690   5.896  10.575
38112W        W 9728  41.461  23.546   0.339
38113W        W 9729  37.931  19.881  10.803
38114W        W 9730  19.905   2.739  12.457
38115W        W 9731  24.996  39.465  14.727
38116W        W 9732  16.338  37.304  14.929
38117W        W 9733   8.373  17.556   3.372
38118W        W 9734  11.016  34.126  14.531
38119W        W 9735   9.100  40.943  12.583
38120W        W 9736  28.201  22.540  11.912
38121W        W 9737  23.307  20.055   0.022
38122W        W 9738  42.530  23.131   3.709
38123W        W 9739  18.953  12.401  12.956
38124W        W 9740  20.605  12.541   0.897
38125W        W 9741  23.460  12.407  12.570
38126W        W 9742  11.446  31.676   3.363
38127W        W 9743  12.593  21.161  11.486
38128W        W 9744   1.013  24.091   3.737
38129W        W 9745  17.766  15.658   0.788
38130W        W 9746  27.534   7.632   3.153
38131W        W 9747   3.317  38.780   1.448
38132W        W 9748   5.249  39.376   2.293
38133W        W 9749  32.997  26.149  12.915
38134W        W 9750  25.356   3.842   1.270
38135W        W 9751   4.407  13.930   0.924
38136W        W 9752  18.200  19.220  14.841
38137W        W 9753  18.798  24.225  10.987
38138W        W 9754  23.593   4.737   1.203
38139W        W 9755   9.589   2.751  10.982
38140W        W 9756   6.478  30.624  11.151
38141W        W 9757  29.040  29.901  14.069
38142W        W 9758  32.371  32.626   2.200
38143W        W 9759  18.444  19.600  11.606
38144W        W 9760  15.038  24.974  12.442
38145W        W 9761  18.712   6.667   2.454
38146W        W 9762  37.751   6.558   4.371
38147W        W 9763   6.183   3.910   0.193
38148W        W 9764   7.689  39.107   1.839
38149W        W 9765  42.813  26.462   4.372
38150W        W 9766  44.191   4.497  11.197
38151W        W 9767  19.533  43.983   9.948
38152W        W 9768  10.108  44.517   1.157
38153W        W 9769  21.640   2.480   1.266
38154W        W 9770   8.836   8.587   0.343
38155W        W 9771  41.498  37.281   1.786
38156W        W 9772  17.269  16.308   1.500
38157W        W 9773  33.535  23.303  14.964
38158W        W 9774  33.805  19.269   4.535
38159W        W 9775  29.204   2.856  11.988
38160W        W 9776  34.858  40.437   1.561
38161W        W 9777  34.470  13.801  13.122
38162W        W 9778  32.828  36.520  13.081
38163W        W 9779  43.275  29.640   0.418
38164W        W 9780  38.966  21.531  11.532
38165W        W 9781  40.361  30.591   0.519
38166W        W 9782  19.014   5.524   4.364
38167W        W 9783  28.917  18.795   0.463
38168W        W 9784   1.024  21.525   0.478
38169W        W 9785  21.295  20.198   1.407
38170W        W 9786  20.850   4.074   2.733
38171W        W 9787   3.003   5.203  14.453
38172W        W 9788  17.759   9.090   0.016
38173W        W 9789   8.046   1.361  10.614
38174W        W 9790  13.029  18.250  13.554
38175W        W 9791  40.009  43.941  12.444
38176W        W 9792  20.034  39.703   4.243
38177W        W 9793  44.502   9.316  11.217
38178W        W 9794  21.293  38.621   3.455
38179W        W 9795   1.993  37.052   4.106
38180W        W 9796  44.477  24.417  13.926
38181W        W 9797  17.972  15.536  10.716
38182W        W 9798  25.915  12.692   2.853
38183W        W 9799  37.946  25.946   3.711
38184W        W 9800  32.481  40.045  11.544
38185W        W 9801  34.560  41.098  12.398
38186W        W 9802  39.922  31.963  11.649
38187W        W 9803  12.083  25.762  12.844
38188W        W 9804  26.528  14.564  13.719
38189W        W 9805  11.390  12.380  11.587
38190W        W 9806  15.229  33.696  14.585
38191W        W 9807  10.203  21.314   4.961
38192W        W 9808  24.217  13.169   2.292
38193W        W 9809  19.066  36.918   3.031
38194W        W 9810  27.950  11.199  13.915
38195W        W 9811  19.839  42.885   2.887
38196W        W 9812  24.987  32.290  11.724
38197W        W 9813  29.080  23.021  10.657
38198W        W 9814  36.907  16.803   4.909
38199W        W 9815  44.074  32.760   2.010
38200W        W 9816  10.445  22.474   2.709
38201W        W 9817  24.824  31.440   1.450
38202W        W 9818   9.434  18.271   0.944
38203W        W 9819  42.376  21.523  14.869
38204W        W 9820  20.304   9.151  11.148
38205W        W 9821  19.045  41.928  12.162
38206W        W 9822  36.899  21.794   0.477
38207W        W 9823   3.783  32.469  14.510
38208W        W 9824   0.666   7.764   2.225
38209W        W 9825  27.710  28.439  11.130
38210W        W 9826  29.405  42.544   0.380
38211W        W 9827  38.134  17.279   4.119
38212W        W 9828   7.287  10.148   4.056
38213W        W 9829   4.902  43.177   2.840
38214W        W 9830  10.541  38.151   0.725
38215W        W 9831  29.177  36.765   4.892
38216W        W 9832  20.058  42.631   0.666
38217W        W 9833  30.016  16.669   3.284
38218W        W 9834   1.019   2.311  12.415
38219W        W 9835  34.829  24.460   4.108
38220W        W 9836  38.884  12.702   4.205
38221W        W 9837  21.425   4.540  12.063
38222W        W 9838  22.721   6.651  14.948
38223W        W 9839  31.991  36.997   2.871
38224W        W 9840  16.117  10.632   1.191
38225W        W 9841  19.035  42.776   3.259
38226W        W 9842   4.413  28.176   3.829
38227W        W 9843  10.110  18.691   2.766
38228W        W 9844  15.026  31.414  13.788
38229W        W 9845  38.865  39.847  12.959
38230W        W 9846  36.560  14.595   2.302
38231W        W 9847   2.679  20.783   1.482
38232W        W 9848  32.337  14.115  12.492
38233W        W 9849  40.799   1.529   3.363
38234W        W 9850  34.466  29.349   3.118
38235W        W 9851  39.260  23.525  13.154
38236W        W 9852   0.683  36.131  10.712
38237W        W 9853  40.294  28.093  12.592
38238W        W 9854  10.356  38.992  10.590
38239W        W 9855   0.701  27.522   0.913
38240W        W 9856   6.267  30.995   1.517
38241W        W 9857  20.961  11.104  11.093
38242W        W 9858  12.190  35.803  11.573
38243W        W 9859  27.449  37.417  13.022
38244W        W 9860  27.179  22.433  14.836
38245W        W 9861  15.579  32.724   1.099
38246W        W 9862  21.754   6.261  10.095
38247W        W 9863  31.478  24.913  13.671
38248W        W 9864   5.876  29.030  12.650
38249W        W 9865  30.037  38.040  11.395
38250W        W 9866  33.834   1.294  14.014
38251W        W 9867  12.786  33.457  13.757
38252W        W 9868   0.952   8.887  11.216
38253W        W 9869   5.448  37.220   1.371
38254W        W 9870  16.953  39.484   2.755
38255W        W 9871  18.058  30.840   0.419
38256W        W 9872  26.931  13.543  13.563
38257W        W 9873  43.675  33.469  12.352
38258W        W 9874  25.608  35.400  11.310
38259W        W 9875   1.029  11.375  13.691
38260W        W 9876  26.821  22.587   3.545
38261W        W 9877  22.673  44.105  10.590
38262W        W 9878  24.907  42.076   3.242
38263W        W 9879  31.641  35.388   0.929
38264W        W 9880  13.077  12.304  14.313
38265W        W 9881   0.245  26.786   1.357
38266W        W 9882  29.552   3.758  14.302
38267W        W 9883  31.318  29.125   1.879
38268W        W 9884  14.142   7.366  14.352
38269W        W 9885  16.056  25.616  14.301
38270W        W 9886  34.934  40.278   1.068
38271W        W 9887  35.111  41.868  12.057
38272W        W 9888  16.115  13.304  14.540
38273W        W 9889   4.880  20.396   4.233
38274W        W 9890  44.900  38.041   2.640
38275W        W 9891  24.450  32.079   0.591
38276W        W 9892   1.917  42.437   4.526
38277W        W 9893   2.016  42.507   0.289
38278W        W 9894  18.603   0.912  13.196
38279W        W 9895  28.138  41.319  10.196
38280W        W 9896  25.801  28.557   1.863
38281W        W 9897   9.584   0.791  14.420
38282W        W 9898  21.535  40.831   1.810
38283W        W 9899  29.490  40.076  14.389
38284W        W 9900  25.607  38.669  13.535
38285W        W 9901   8.915  36.345   3.583
38286W        W 9902   9.177  19.037   4.743
38287W        W 9903  10.659  11.861  14.816
38288W        W 9904  41.205  33.462   2.643
38289W        W 9905  12.557   6.335  11.088
38290W        W 9906  36.745   4.659  12.602
38291W        W 9907  36.274  14.712   1.751
38292W        W 9908  17.126  38.427  12.035
38293W        W 9909  33.919  23.489  11.166
38294W        W 9910  40.319  26.072  14.944
38295W        W 9911  16.639   3.578   1.229
38296W        W 9912   8.660  30.106   3.052
38297W        W 9913   5.936  44.227  12.666
38298W        W 9914  32.342   2.685  13.964
38299W        W 9915  23.348  36.494  11.502
38300W        W 9916  27.322   7.451  12.824
38301W        W 9917  39.493  41.043   0.824
38302W        W 9918  28.684  12.702   3.944
38303W        W 9919  18.236  13.163  10.948
38304W        W 9920  30.338   1.236  14.026
38305W        W 9921  35.358  21.356   4.195
38306W        W 9922  20.637  37.827  11.065
38307W        W 9923  40.406  26.982  14.483
38308W        W 9924   1.763  14.650  14.952
38309W        W 9925  17.273  16.875  13.864
38310W        W 9926  15.819   2.459  11.562
38311W        W 9927   3.858  26.723  12.990
38312W        W 9928  24.258  40.022  10.537
38313W        W 9929   1.461  36.424  13.346
38314W        W 9930  43.537  25.869   1.406
38315W        W 9931  25.109  35.622  12.006
38316W        W 9932  38.322  36.270  13.420
38317W        W 9933  14.060   7.837   0.942
38318W        W 9934   2.204  40.246  11.153
38319W        W 9935  34.155   3.090   3.726
38320W        W 9936  24.557   0.230  12.485
38321W        W 9937  27.957   4.450  13.953
38322W        W 9938   7.588   8.353  14.910
38323W        W 9939   2.654   9.558   4.288
38324W        W 9940   8.930  15.511   0.150
38325W        W 9941   9.915  19.094  11.588
38326W        W 9942   0.322  42.266   2.425
38327W        W 9943  22.262  22.956   4.153
38328W        W 9944  34.179  25.972   2.776
38329W        W 9945  16.822  14.102   2.424
38330W        W 9946  26.815  21.477   2.796
38331W        W 9947  19.507  21.228   4.404
38332W        W 9948   0.393  19.656  10.782
38333W        W 9949  12.030  16.726  14.354
38334W        W 9950  28.109  12.183  10.713
38335W        W 9951  36.470  26.541   0.222
38336W        W 9952  36.152   0.107  12.527
38337W        W 9953  17.386  16.205  12.590
38338W        W 9954   6.344  25.966   3.649
38339W        W 9955   6.148   6.888   4.576
38340W        W 9956   5.325  22.526   0.398
38341W        W 9957   2.170  24.905   5.180
38342W        W 9958  36.669   0.567  14.831
38343W        W 9959  13.678  27.791   4.185
38344W        W 9960  29.530  17.064  14.126
38345W        W 9961  36.616  29.626   2.834
38346W        W 9962  38.928  37.437  11.215
38347W        W 9963  10.763  14.654   2.372
38348W        W 9964  44.421  23.961   0.974
38349W        W 9965   5.371  29.884  11.659
38350W        W 9966   6.663   0.563  10.325
38351W        W 9967  43.767  39.791   1.359
38352W        W 9968  17.247   6.939  13.853
38353W        W 9969  34.103  10.103   2.427
38354W        W 9970  33.996   1.881   3.183
38355W        W 9971  40.490  27.666   3.341
38356W        W 9972  34.920  16.955   3.608
38357W        W 9973   8.812  39.931  13.401
38358W        W 9974  27.088  32.128  14.127
38359W        W 9975  14.680  42.833   1.953
38360W        W 9976   5.761   8.230  14.918
38361W        W 9977  26.558   2.004  14.984
38362W        W 9978  24.624  43.465   2.243
38363W        W 9979  43.790  35.351  11.427
38364W        W 9980  41.384  38.040  14.716
38365W        W 9981  12.520   8.399  11.276
38366W        W 9982  29.113   2.368   0.876
38367W        W 9983   5.937  26.583   2.471
38368W        W 9984  16.919  20.570   4.838
38369W        W 9985  18.180   2.002  12.560
38370W        W 9986  41.336  43.835  11.112
38371W        W 9987  34.963  41.584   4.735
38372W        W 9988  24.597   9.003  11.934
38373W        W 9989  18.115  20.529  13.448
38374W        W 9990   1.453  17.866   0.807
38375W        W 9991   2.683  23.438  12.811
38376W        W 9992  41.301  26.018   4.827
38377W        W 9993  40.381  13.299   3.744
38378W        W 9994   7.878  22.597   2.351
38379W        W 9995   1.764  16.356  14.494
38380W        W 9996  43.319  13.653   1.990
38381W        W 9997   0.741  38.225  10.593
38382W        W 9998  16.248  14.613  11.889
38383W        W 9999  20.619  38.617  12.604
38384W        W10000  38.403  40.997   2.882
38385W        W10001  16.191  42.972   2.438
38386W        W10002   0.824  18.363  10.749
38387W        W10003  11.229  34.374  12.079
38388W        W10004  41.577  23.408  11.823
38389W        W10005  29.446   6.733  13.390
38390W        W10006  29.795  28.346  10.295
38391W        W10007   2.199  10.344   1.719
38392W        W10008   9.199  25.005  11.118
38393W        W10009  17.634  34.125  10.954
38394W        W10010  35.953  12.617  12.004
38395W        W10011   2.202  39.552  11.971
38396W        W10012  33.633  32.338  14.043
38397W        W10013  36.981  23.572  11.599
38398W        W10014  39.350  22.000   4.626
38399W        W10015   0.243  14.348   1.714
38400W        W10016  11.583  32.467   0.178
38401W        W10017   9.732   4.716   3.141
38402W        W10018   3.654  43.315  13.010
38403W        W10019  24.439   5.260   0.904
38404W        W10020  29.842  12.353  12.491
38405W        W10021  32.499  18.680   0.931
38406W        W10022  37.492  14.707   2.207
38407W        W10023   5.095   0.324   0.674
38408W        W10024  26.494   6.464   1.210
38409W        W10025  44.246  22.670   3.153
38410W        W10026  41.347  14.220   0.043
38411W        W10027   9.921  22.663   2.807
38412W        W10028  34.615  24.963  12.910
38413W        W10029  15.504   7.025   4.088
38414W        W10030  18.312  12.902   0.207
38415W        W10031   0.258  36.964  13.442
38416W        W10032  41.019   0.005  14.354
38417W        W10033   1.540  31.194   0.293
38418W        W10034   1.397  23.830   3.530
38419W        W10035  39.740  21.068   0.210
38420W        W10036   5.423  43.287   1.858
38421W        W10037  40.327  37.141  12.421
38422W        W10038   0.481  24.032  11.921
38423W        W10039  16.065   5.565   0.822
38424W        W10040  13.548   6.245  13.087
38425W        W10041  33.816  22.176   4.247
38426W        W10042  14.207  37.083   3.706
38427W        W10043  34.563  31.462   0.732
38428W        W10044  38.047   9.914  11.242
38429W        W10045  44.549  28.119   0.391
38430W        W10046  31.990  39.289   3.198
38431W        W10047   6.450  19.706   2.829
38432W        W10048  20.110  22.168  13.212
38433W        W10049  43.593  42.590  11.224
38434W        W10050   0.931  38.463  13.331
38435W        W10051  38.138  41.880   4.304
38436W        W10052   2.852   7.728  14.592
38437W        W10053  17.189  23.191   2.284
38438W        W10054  24.205  37.165  14.476
38439W        W10055  39.844   6.806   2.221
38440W        W10056  36.872  38.286  10.732
38441W        W10057  21.097  34.391  12.611
38442W        W10058   1.402  11.566  14.775
38443W        W10059  29.715  19.752  12.347
38444W        W10060  14.174  15.132   3.400
38445W        W10061  13.035  38.342  11.941
38446W        W10062  32.036   8.649   4.447
38447W        W10063  10.316  11.897  12.465
38448W        W10064   5.853  41.477   2.668
38449W        W10065  11.834  29.377   1.213
38450W        W10066  12.031  18.548   4.160
38451W        W10067   0.861  31.919   2.889
38452W        W10068  21.135  32.322  13.519
38453W        W10069  19.737  35.551  10.953
38454W        W10070  32.286  21.122   3.333
38455W        W10071   8.135  20.267  11.655
38456W        W10072   1.407  33.088  14.293
38457W        W10073   3.918  21.413   0.073
38458W        W10074  44.454  27.260   0.827
38459W        W10075  27.726  12.674   0.821
38460W        W10076  18.308  43.278   1.678
38461W        W10077  13.414  13.580  14.016
38462W        W10078   0.808  26.983  11.939
38463W        W10079   0.465  25.100  13.431
38464W        W10080   2.296  16.556  11.684
38465W        W10081  40.421   5.816  13.991
38466W        W10082  43.886  37.919   3.525
38467W        W10083   4.058  20.561  11.248
38468W        W10084  26.608   7.271   5.126
38469W        W10085  15.709  44.461   9.989
38470W        W10086  37.885  26.637  12.943
38471W        W10087  32.823  16.717   2.753
38472W        W10088   5.088  30.667   2.233
38473W        W10089   9.323  43.791  14.245
38474W        W10090  23.005   3.376   0.900
38475W        W10091  29.105  33.398  10.032
38476W        W10092  26.118  40.783  11.211
38477W        W10093  18.296   6.923   4.710
38478W        W10094  11.967   6.291   4.186
38479W        W10095  27.262  17.219   0.770
38480W        W10096  30.372  37.792  14.151
38481W        W10097  36.973  44.161   3.624
38482W        W10098  37.311  13.820   0.712
38483W        W10099  24.693   0.719  11.658
38484W        W10100  40.520   7.668   2.703
38485W        W10101  23.602  28.485  12.779
38486W        W10102   6.887  33.082  12.918
38487W        W10103  43.562  43.453   4.648
38488W        W10104  25.853  19.477  12.940
38489W        W10105   5.995  22.807  11.612
38490W        W10106  13.759  15.702   1.353
38491W        W10107  38.310  33.361  11.390
38492W        W10108  10.214  27.683   0.405
38493W        W10109   2.777  21.883  14.260
38494W        W10110   7.919   9.209   2.905
38495W        W10111  36.157  28.014   4.449
38496W        W10112   8.109  40.319  12.925
38497W        W10113   0.928  39.493   3.668
38498W        W10114   4.957   7.378   2.413
38499W        W10115  23.531   6.291   1.867
38500W        W10116  18.620  37.963  12.646
38501W        W10117   3.990  33.024  12.592
38502W        W10118   6.767  30.114   2.882
38503W        W10119  17.272   5.923   2.382
38504W        W10120  38.796  28.093  13.604
38505W        W10121  40.904  24.144   1.434
38506W        W10122  34.588  35.231  13.927
38507W        W10123  24.675  40.102  11.935
38508W        W10124  12.079  22.149  10.880
38509W        W10125  21.631  26.165   4.294
38510W        W10126  17.047  24.794  10.386
38511W        W10127  12.792  41.433  14.491
38512W        W10128  12.642  44.107   3.677
38513W        W10129  22.509  23.463   5.148
38514W        W10130  11.132  20.577  11.586
38515W        W10131  38.473  18.935  14.995
38516W        W10132  14.764  25.425  12.467
38517W        W10133  21.402   9.610  11.905
38518W        W10134   8.395  13.320  12.023
38519W        W10135  27.041   6.172   1.875
38520W        W10136  23.190  25.162  13.794
38521W        W10137  32.101  43.896   1.630
38522W        W10138  18.220  18.375   2.800
38523W        W10139  23.676  24.734   4.733
38524W        W10140  32.428  10.931  14.868
38525W        W10141  12.127  15.044  12.593
38526W        W10142  25.979   7.724   0.241
38527W        W10143   5.642  12.837   0.992
38528W        W10144  14.512  36.283   0.333
38529W        W10145  44.941  20.070  14.777
38530W        W10146  25.179  36.826   4.873
38531W        W10147  16.541  30.970   3.191
38532W        W10148  26.103   8.400   2.375
38533W        W10149  11.138  21.102   3.826
38534W        W10150  14.334   1.272  12.122
38535W        W10151  28.394   0.012  11.252
38536W        W10152   1.404   2.683  14.051
38537W        W10153   6.257   7.091   2.333
38538W        W10154  36.518  41.112  13.607
38539W        W10155  42.077  40.465   0.031
38540W        W10156  43.328  40.538   3.827
38541W        W10157   3.924  36.861  14.566
38542W        W10158   2.454   3.513  12.441
38543W        W10159   0.717  44.919   0.052
38544W        W10160  22.110  26.984   0.177
38545W        W10161  14.977  36.418  13.954
38546W        W10162  17.583   9.834   1.312
38547W        W10163  26.577  14.572   4.504
38548W        W10164  31.080  10.100   2.825
38549W        W10165  18.054  37.110  12.503
38550W        W10166  15.531  16.173  11.094
38551W        W10167  23.604   1.358  14.519
38552W        W10168  34.075  40.238   2.714
38553W        W10169  14.688   9.766   3.269
38554W        W10170  29.609  14.531  11.987
38555W        W10171   2.335   3.540   1.838
38556W        W10172  26.587   1.743   4.662
38557W        W10173   2.055  10.763   3.156
38558W        W10174  25.422   0.341  13.013
38559W        W10175  23.241  15.537   0.972
38560W        W10176  10.424  29.073   0.318
38561W        W10177  27.739  19.383  12.908
38562W        W10178  41.638  22.615   0.731
38563W        W10179  26.117  36.922   4.379
38564W        W10180  41.798  10.507  13.852
38565W        W10181  37.444   4.455  11.396
38566W        W10182  36.355  11.945  12.208
38567W        W10183   5.176  28.582   3.647
38568W        W10184  32.302  27.094  13.918
38569W        W10185  17.778  15.316   1.799
38570W        W10186  18.230  13.189  10.438
38571W        W10187  17.561  34.903   4.669
38572W        W10188  32.359  30.621   2.364
38573W        W10189  35.828  37.050   1.391
38574W        W10190  25.443  24.038  12.119
38575W        W10191   2.272  20.601   1.203
38576W        W10192   4.719  32.241  10.259
38577W        W10193   4.670  43.440  12.949
38578W        W10194  13.184  38.120   1.227
38579W        W10195   5.368  24.340  13.484
38580W        W10196  35.397  26.615  13.204
38581W        W10197   1.998   2.788  12.738
38582W        W10198  43.852  21.620  13.303
38583W        W10199  32.640  41.971  12.498
38584W        W10200  16.570  38.929   3.768
38585W        W10201  20.368  33.028   1.275
38586W        W10202  16.064  35.844  11.249
38587W        W10203  39.032  39.128  14.500
38588W        W10204  34.718  32.413  14.756
38589W        W10205   1.893   7.412  14.865
38590W        W10206  31.188  44.127   4.197
38591W        W10207  12.418  26.025   4.144
38592W        W10208  42.968  10.833  11.345
38593W        W10209  30.662  15.308  12.358
38594W        W10210  44.380  38.823  11.511
38595W        W10211  21.926  27.545   3.237
38596W        W10212   8.327   2.831  14.338
38597W        W10213  34.035  10.724  10.747
38598W        W10214  26.160  14.623  14.887
38599W        W10215  18.640  31.554   0.131
38600W        W10216  34.284  36.563  11.919
38601W        W10217   8.684   4.265  11.141
38602W        W10218   0.733  33.579   1.176
38603W        W10219  19.789  40.979   1.661
38604W        W10220  21.033   3.473   5.192
38605W        W10221   2.754  21.552  12.962
38606W        W10222  44.622  18.141   0.509
38607W        W10223  31.534  27.012  11.591
38608W        W10224   5.297  39.250  11.951
38609W        W10225   2.940  20.153   2.229
38610W        W10226  39.610  27.264   4.131
38611W        W10227  22.015   8.334  14.005
38612W        W10228  16.076   0.599   3.154
38613W        W10229  20.157  32.706   2.431
38614W        W10230  38.893  24.033  10.987
38615W        W10231  40.917  36.516   1.579
38616W        W10232  39.517   9.668   1.371
38617W        W10233   7.121  43.708   2.422
38618W        W10234  10.595   8.677  14.889
38619W        W10235  26.428  14.343  12.675
38620W        W10236  39.279  24.029   2.293
38621W        W10237  25.637  34.089   1.309
38622W        W10238  13.583  12.823  13.815
38623W        W10239  29.543  29.137   4.011
38624W        W10240  18.066  21.601   1.373
38625W        W10241  28.107  17.225  12.187
38626W        W10242  40.313   3.275  13.800
38627W        W10243  35.947  31.830   1.392
38628W        W10244  11.899   4.920  12.497
38629W        W10245  33.953   3.010   2.213
38630W        W10246   8.423  41.096  13.904
38631W        W10247  29.645  27.102   1.291
38632W        W10248  19.537  33.588   3.526
38633W        W10249  18.224  22.086   1.647
38634W        W10250  30.860  27.360  12.127
38635W        W10251   5.915  23.740  14.344
38636W        W10252  28.025  32.041  10.415
38637W        W10253  29.106  39.959  12.623
38638W        W10254  16.380  39.025  12.015
38639W        W10255  34.418  18.098   4.049
38640W        W10256  14.813  34.369  11.209
38641W        W10257   7.846  29.108  13.970
38642W        W10258  28.997  22.816  12.435
38643W        W10259  40.364  21.807  14.314
38644W        W10260  32.051   0.008  10.110
38645W        W10261  37.872  19.018   2.840
38646W        W10262  25.584  28.574   4.543
38647W        W10263  37.690  35.363  14.907
38648W        W10264  23.431  30.025   4.494
38649W        W10265  32.932  34.319   2.901
38650W        W10266  21.578   4.223   3.041
38651W        W10267   7.516  23.356   4.058
38652W        W10268   0.394  30.441   2.285
38653W        W10269  16.865  10.188  13.900
38654W        W10270  31.548  30.622   4.735
38655W        W10271   1.980  30.557  13.861
38656W        W10272  36.219  25.596  11.118
38657W        W10273  11.730  43.349  13.999
38658W        W10274  22.130   5.189   0.483
38659W        W10275  33.586   7.857   1.487
38660W        W10276  35.850  43.380   1.043
38661W        W10277  26.723   9.752   0.747
38662W        W10278  10.324  36.694   3.436
38663W        W10279  25.283  42.164  14.910
38664W        W10280  42.542  23.895   4.114
38665W        W10281  34.896  43.531   4.029
38666W        W10282  27.490  37.310  12.058
38667W        W10283  10.099  44.432  10.541
38668W        W10284   1.808  43.722  11.978
38669W        W10285   2.372  21.017   3.359
38670W        W10286  30.385   0.943  14.459
38671W        W10287  29.695  20.144  13.030
38672W        W10288  37.828  42.363   0.247
38673W        W10289  36.290  38.553   3.785
38674W        W10290  14.011  25.476   1.733
38675W        W10291  33.708  21.198   3.520
38676W        W10292   8.829  14.563  11.128
38677W        W10293   2.498  20.521  14.807
38678W        W10294  37.788  18.781   4.151
38679W        W10295  21.436  34.541  11.954
38680W        W10296  10.563  16.164  13.964
38681W        W10297   5.391  42.812   2.764
38682W        W10298  31.009   0.019  12.857
38683W        W10299  35.992   0.171  11.144
38684W        W10300   8.964  29.092   1.411
38685W        W10301  43.442  37.087  11.135
38686W        W10302  23.604  28.028  11.575
38687W        W10303  12.740  19.229   4.057
38688W        W10304   4.902  20.254  14.779
38689W        W10305  42.705  14.720  14.280
38690W        W10306  41.352  21.515   0.168
38691W        W10307   8.700  33.549   3.050
38692W        W10308  44.335  13.394   1.770
38693W        W10309  42.899  43.382   1.679
38694W        W10310  40.795  36.433   1.047
38695W        W10311  20.199   2.265  13.946
38696W        W10312  17.061  35.556  13.437
38697W        W10313   2.292   5.907  14.420
38698W        W10314  23.229  15.303  13.429
38699W        W10315  28.019  40.075   2.598
38700W        W10316   0.968  11.973   1.286
38701W        W10317   7.391  34.163   4.192
38702W        W10318  20.726  27.830   2.124
38703W        W10319  32.990  22.092  12.183
38704W        W10320  22.150  33.690  10.510
38705W        W10321  28.134   7.923  12.423
38706W        W10322  30.846  28.978   4.403
38707W        W10323  24.247  20.603   4.103
38708W        W10324  13.322  20.677   3.912
38709W        W10325   6.613  27.319   1.837
38710W        W10326  27.610  12.548  12.554
38711W        W10327  22.162  19.503  13.338
38712W        W10328   3.926  41.105   3.610
38713W        W10329  40.035  11.103   1.214
38714W        W10330  40.128  36.311  10.679
38715W        W10331  14.567  17.678   4.383
38716W        W10332   8.032  23.919  11.947
38717W        W10333  30.136   8.457   0.784
38718W        W10334  41.090   5.721  14.579
38719W        W10335  15.724  21.770   2.747
38720W        W10336  15.308  15.630   4.522
38721W        W10337  17.625  35.009   3.145
38722W        W10338  23.523   0.864   3.603
38723W        W10339  40.861  35.096   0.238
38724W        W10340  25.221  13.664  11.115
38725W        W10341  38.430   2.922  13.729
38726W        W10342  12.666  29.528  14.297
38727W        W10343  11.259  43.435  11.586
38728W        W10344  11.781  31.997  12.884
38729W        W10345  14.704  15.772  14.035
38730W        W10346   6.418  37.430  11.604
38731W        W10347  26.350  37.366   4.185
38732W        W10348  40.864  30.240  14.244
38733W        W10349   0.977  44.081  10.961
38734W        W10350  20.145  19.529  14.809
38735W        W10351   6.878  38.757   1.398
38736W        W10352   2.979   5.373   0.844
38737W        W10353  37.871  13.186   0.276
38738W        W10354  43.257  20.190  14.829
38739W        W10355  23.168  25.017   3.617
38740W        W10356  30.601  26.069   4.870
38741W        W10357  40.129   1.527  13.842
38742W        W10358  40.019  34.318  12.443
38743W        W10359  13.804  35.376  11.447
38744W        W10360  27.221   9.743  11.452
38745W        W10361  36.457  24.432  12.955
38746W        W10362  29.742  27.393   1.801
38747W        W10363  11.576  30.644   2.156
38748W        W10364  36.185  14.134  12.722
38749W        W10365  24.153   3.365  13.790
38750W        W10366  31.484  25.429   0.984
38751W        W10367  33.340  18.196   2.218
38752W        W10368  12.483  28.630   0.184
38753W        W10369   6.250  40.537   2.739
38754W        W10370  15.054  20.280   0.021
38755W        W10371  38.890  25.396  14.379
38756W        W10372  42.737   6.400   0.455
38757W        W10373  29.435  16.053  12.618
38758W        W10374  22.492  11.775   0.155
38759W        W10375  31.865  31.486   0.485
38760W        W10376  29.972  32.808   2.865
38761W        W10377  41.012   9.670  12.556
38762W        W10378  38.314  13.941   5.019
38763W        W10379   1.524  32.656  12.900
38764W        W10380  28.635  16.195  14.282
38765W        W10381   0.393  39.191  13.711
38766W        W10382  24.187  19.117  12.752
38767W        W10383  39.542  20.228  11.023
38768W        W10384  35.417  27.151   3.809
38769W        W10385  16.200   6.960  11.359
38770W        W10386  15.120   1.886   2.200
38771W        W10387  23.570  12.971   3.940
38772W        W10388  34.862  28.761   0.461
38773W        W10389  42.011  39.713  14.538
38774W        W10390  42.901   8.115  12.002
38775W        W10391  27.986  44.195   3.516
38776W        W10392  44.313   6.381  13.321
38777W        W10393  27.365   4.934  13.752
38778W        W10394  32.551   5.760  13.045
38779W        W10395   5.020  10.257  12.349
38780W        W10396  33.184  20.815   0.278
38781W        W10397   2.250   3.865  10.466
38782W        W10398  38.166   6.425   1.266
38783W        W10399  31.629  16.833   1.745
38784W        W10400  42.943  34.137   4.034
38785W        W10401   5.773  28.170   3.696
38786W        W10402  39.916   4.672  11.611
38787W        W10403  27.237  24.500   3.398
38788W        W10404  30.011  34.874  12.954
38789W        W10405   3.269  28.045  10.467
38790W        W10406   2.020  34.002   1.887
38791W        W10407  21.936   0.132  11.947
38792W        W10408   1.694  23.421   3.637
38793W        W10409  32.728  37.830   2.774
38794W        W10410  11.709   6.684   2.517
38795W        W10411  14.669  29.018   4.217
38796W        W10412  34.700  32.104  12.472
38797W        W10413  44.685   3.915  11.144
38798W        W10414  12.650  15.768  11.514
38799W        W10415  18.814  44.957   1.852
38800W        W10416  10.927   8.875   0.723
38801W        W10417   0.814  20.571   3.124
38802W        W10418  36.323  38.754   3.241
38803W        W10419  43.410  17.019  10.686
38804W        W10420  14.893  14.331  11.160
38805W        W10421  28.579  38.508  14.046
38806W        W10422  40.454  42.424   4.251
38807W        W10423  34.912  41.430  11.625
38808W        W10424  20.291  20.310  12.463
38809W        W10425  27.701  44.775   2.735
38810W        W10426  37.966   0.489  12.986
38811W        W10427  11.322   0.078  14.047
38812W        W10428   8.238  10.713  11.535
38813W        W10429  40.572  35.876   3.755
38814W        W10430  12.118  12.157  10.644
38815W        W10431  42.546  18.804   2.618
38816W        W10432  11.647  15.125   4.742
38817W        W10433  16.760  25.145  13.413
38818W        W10434  19.627  42.188  13.804
38819W        W10435  30.610  31.725   0.853
38820W        W10436   4.273  44.791  14.546
38821W        W10437  20.269  25.709  14.063
38822W        W10438  40.058  39.170  13.479
38823W        W10439  39.292  20.073   3.662
38824W        W10440  44.922  27.582   2.923
38825W        W10441  33.423  41.013   2.078
38826W        W10442  34.558  35.097   0.646
38827W        W10443  43.056  24.599   0.524
38828W        W10444  16.762  43.592  12.024
38829W        W10445   9.343  23.495  11.271
38830W        W10446  27.716  39.837   1.457
38831W        W10447  35.325   6.732  10.900
38832W        W10448   4.152  21.901   0.015
38833W        W10449   7.508   9.392  11.620
38834W        W10450  32.508  35.656   4.804
38835W        W10451  11.630   6.028  11.889
38836W        W10452  11.310  22.946  10.659
38837W        W10453  17.104   5.200  12.117
38838W        W10454  13.452  11.301  14.292
38839W        W10455  30.919  12.552  11.537
38840W        W10456  14.972  16.784  14.328
38841W        W10457  25.396  25.539  13.060
38842W        W10458  26.389  12.250   0.911
38843W        W10459  39.510  23.570   4.622
38844W        W10460  12.342  15.605  11.116
38845W        W10461  23.514   7.774  12.068
38846W        W10462   5.317  15.362  10.341
38847W        W10463  11.306  36.597  12.926
38848W        W10464   7.749   6.268   3.862
38849W        W10465  37.843  32.161  13.749
38850W        W10466  21.731  39.418   0.069
38851W        W10467  27.665  27.868   0.290
38852W        W10468  15.135  34.439  13.906
38853W        W10469  12.683  13.844   4.337
38854W        W10470   4.667   7.222   4.749
38855W        W10471  32.034  42.297   1.938
38856W        W10472  36.899  37.700   1.681
38857W        W10473  17.869  13.066   1.130
38858W        W10474  24.759  35.099   0.061
38859W        W10475  28.820   0.259   3.348
38860W        W10476   5.575  33.815  11.174
38861W        W10477  40.409  21.151  11.015
38862W        W10478  39.357   6.770   3.127
38863W        W10479  21.111  10.504   3.679
38864W        W10480  36.818  23.679  13.300
38865W        W10481  37.080  35.562   4.356
38866W        W10482  13.348  14.617  14.986
38867W        W10483  31.977   1.592   5.272
38868W        W10484  20.233  29.902  11.657
38869W        W10485  35.106  26.171   3.329
38870W        W10486   8.043  36.385   0.936
38871W        W10487  35.986  26.953  13.509
38872W        W10488   8.512  26.792   3.897
38873W        W10489  36.523  31.681  13.526
38874W        W10490  22.214  31.656  11.281
38875W        W10491  22.725  44.548  11.576
38876W        W10492   4.945  19.877  12.864
38877W        W10493  32.344   4.706  13.208
38878W        W10494  36.033  35.632  13.903
38879W        W10495  38.375  30.107   4.574
38880W        W10496  28.712  15.580  13.846
38881W        W10497  12.332   1.817   3.693
38882W        W10498  27.940  11.207  12.419
38883W        W10499   0.716  11.091  14.609
38884W        W10500  43.747  44.720   1.935
38885W        W10501  40.994  41.788   2.122
38886W        W10502  30.478  41.781   3.302
38887W        W10503  22.567  20.680   2.657
38888W        W10504  38.549  18.709  12.522
38889W        W10505  19.720   9.578   3.335
38890W        W10506  31.365  39.467   0.051
38891W        W10507  43.357  43.661   3.976
38892W        W10508  25.229  24.736   3.359
38893W        W10509  33.805  24.024   0.325
38894W        W10510   0.212  38.916   1.237
38895W        W10511  15.731   8.030   2.852
38896W        W10512  41.001  21.047   2.804
38897W        W10513  24.282  26.975   4.213
38898W        W10514  38.486  27.077   2.695
38899W        W10515  31.177  14.649   4.641
38900W        W10516   5.221  37.642  13.017
38901W        W10517  42.820  13.756  14.049
38902W        W10518  37.783  41.049   4.211
38903W        W10519   3.696  30.396   1.789
38904W        W10520  13.849  32.906  12.055
38905W        W10521  33.929   1.468  12.465
38906W        W10522  16.901  32.943   3.261
38907W        W10523   6.382  22.482  11.647
38908W        W10524  42.746  33.320  11.652
38909W        W10525  10.946  20.034   3.157
38910W        W10526  33.549  19.153   1.777
38911W        W10527  18.262   0.341  14.387
38912W        W10528  26.263   6.370   3.846
38913W        W10529  14.241  38.954  14.972
38914W        W10530   8.829  26.974  14.278
38915W        W10531  25.545  40.468   3.539
38916W        W10532   6.461  38.367  12.770
38917W        W10533  18.631  38.153  13.136
38918W        W10534  40.936  33.422   3.108
38919W        W10535  20.581  33.065  14.017
38920W        W10536   0.251  18.218  14.455
38921W        W10537  19.025  18.588   0.953
38922W        W10538   0.280  29.151  11.096
38923W        W10539  20.964  14.051   1.034
38924W        W10540  24.501  41.974  14.399
38925W        W10541  10.491   4.170   2.789
38926W        W10542  17.149  16.642  11.527
38927W        W10543  12.575  38.053   3.365
38928W        W10544  42.332  17.599  10.530
38929W        W10545   0.951  23.757  11.849
38930W        W10546  19.115  19.993   2.240
38931W        W10547   1.397  41.535  10.649
38932W        W10548  24.392  32.430   1.517
38933W        W10549  43.270  24.254   3.655
38934W        W10550   3.420  30.938  13.018
38935W        W10551  13.176  43.993   0.646
38936W        W10552   4.941  44.379  12.515
38937W        W10553  19.148  14.179   4.621
38938W        W10554  19.352  11.718  10.673
38939W        W10555  25.952  38.306   0.310
38940W        W10556   7.130   1.257   3.121
38941W        W10557  43.780  22.135  11.879
38942W        W10558  12.866  10.496   3.586
38943W        W10559  15.491  39.631  13.787
38944W        W10560  36.479  33.544   0.315
38945W        W10561  39.332   7.038   0.984
38946W        W10562  22.715  17.236   3.042
38947W        W10563  26.594  14.083   5.234
38948W        W10564  34.096  26.581  12.383
38949W        W10565  32.912  31.837  13.254
38950W        W10566  43.297   4.191   2.774
38951W        W10567  21.286  21.497   2.252
38952W        W10568  44.823   1.361  14.807
38953W        W10569  38.754  13.478   3.190
38954W        W10570  17.269  38.832   2.177
38955W        W10571  10.344  34.552  13.426
38956W        W10572  16.543  37.044   1.166
38957W        W10573   9.246  19.242   0.311
38958W        W10574   2.719  14.490  11.509
38959W        W10575  41.117  31.228  14.358
38960W        W10576  33.949  44.373  13.822
38961W        W10577  12.845  43.579  12.961
38962W        W10578   9.698  34.258  12.612
38963W        W10579   9.898  12.600  13.872
38964W        W10580  44.990  44.862   0.714
38965W        W10581   7.666  39.902   4.117
38966W        W10582  35.186  39.335  10.753
38967W        W10583  29.486  23.201  13.293
38968W        W10584   3.622  24.822  12.050
38969W        W10585  40.800   2.632  11.951
38970W        W10586  39.336  27.562  14.835
38971W        W10587   0.052   6.520  12.587
38972W        W10588  27.915  22.641   2.139
38973W        W10589  16.631  42.411  11.082
38974W        W10590  44.477   6.903   0.418
38975W        W10591  23.259   8.873   2.949
38976W        W10592   0.589   9.973  10.245
38977W        W10593  33.660  17.852  11.044
38978W        W10594  19.635  36.376   5.302
38979W        W10595   7.367  44.517  10.808
38980W        W10596   2.287  33.995  11.983
38981W        W10597   3.188  23.046   3.259
38982W        W10598  13.735   5.281   0.801
38983W        W10599   4.198  24.948  13.896
38984W        W10600  15.725  32.630  13.511
38985W        W10601  33.021  24.069  14.795
38986W        W10602   6.423  20.693   3.708
38987W        W10603  15.775  20.581  11.695
38988W        W10604  36.783  22.060  14.727
38989W        W10605  15.634  10.183  10.616
38990W        W10606  16.584  29.188  12.349
38991W        W10607  23.401   3.695  14.809
38992W        W10608  25.575  40.835  11.993
38993W        W10609  11.714  43.993   3.420
38994W        W10610  16.290  23.016   2.948
38995W        W10611  37.557  32.396   1.720
38996W        W10612   0.270  24.539  11.061
38997W        W10613  41.329   3.854   4.615
38998W        W10614  36.443  24.853   1.410
38999W        W10615  28.943  43.898  13.579
39000W        W10616  22.764  27.606  10.789
39001W        W10617  29.940  19.832  11.124
39002W        W10618  28.212  44.407  14.399
39003W        W10619   3.107   4.669   3.193
39004W        W10620   9.469  19.054  13.956
39005W        W10621  26.954   4.494  12.899
39006W        W10622  18.538  19.825  14.700
39007W        W10623  11.698  42.969  14.936
39008W        W10624  35.364  44.129  12.882
39009W        W10625  23.962  34.587   1.632
39010W        W10626  41.307  34.165  12.114
39011W        W10627  21.245  23.943   3.601
39012W        W10628  36.813  26.167  13.100
39013W        W10629  11.582  41.147  12.181
39014W        W10630  43.308  26.685   4.549
39015W        W10631  19.728   0.800   1.186
39016W        W10632   2.973  23.114   4.131
39017W        W10633  37.013   8.110   3.240
39018W        W10634  30.989  16.777  12.956
39019W        W10635  19.691   6.728  13.391
39020W        W10636  18.806  44.404   1.859
39021W        W10637  37.496  16.043  10.721
39022W        W10638  32.227  30.954  12.376
39023W        W10639   5.135   9.583  11.013
39024W        W10640  24.042  36.847  10.444
39025W        W10641  38.099   3.344  12.175
39026W        W10642   5.542  39.436   1.316
39027W        W10643   4.331  25.644   1.426
39028W        W10644  44.906  33.401  13.044
39029W        W10645  28.568  17.279  14.409
39030W        W10646   9.461  24.166   3.348
39031W        W10647   3.158  39.834   3.240
39032W        W10648  22.691  42.836  11.973
39033W        W10649   3.659  19.607  13.865
39034W        W10650   4.761  15.342  14.313
39035W        W10651   2.502  44.297  11.947
39036W        W10652   4.708  18.294   0.924
39037W        W10653  44.456  15.229  12.407
39038W        W10654  39.265   7.718  11.534
39039W        W10655  31.831   7.715  13.962
39040W        W10656  37.843   2.243  12.785
39041W        W10657   9.656  22.408  12.945
39042W        W10658  35.569  17.984  10.627
39043W        W10659   7.219  38.751   1.807
39044W        W10660  33.057  28.457   0.505
39045W        W10661  11.202  39.863   4.902
39046W        W10662  41.041  17.339  13.963
39047W        W10663   8.729  29.613   3.146
39048W        W10664   1.488  26.947  14.925
39049W        W10665  25.366   0.874  13.371
39050W        W10666  44.387  17.405   0.342
39051W        W10667  29.285   3.764  13.810
39052W        W10668  17.253  24.378   0.262
39053W        W10669   9.756  44.470  12.077
39054W        W10670  32.547  42.542   2.655
39055W        W10671  38.802  23.041   3.328
39056W        W10672   1.274  18.417   3.577
39057W        W10673  39.649  29.959   2.245
39058W        W10674  23.102  37.624   4.467
39059W        W10675  22.522  43.805  14.723
39060W        W10676  11.114  13.877  14.212
39061W        W10677  17.045  11.218  11.534
39062W        W10678  15.268  41.669  10.545
39063W        W10679  11.823   4.498   2.155
39064W        W10680  23.273  37.137   4.559
39065W        W10681   2.846  16.286  14.439
39066W        W10682  12.893  19.681  10.627
39067W        W10683   5.913  32.613  13.630
39068W        W10684  21.510  17.740   4.191
39069W        W10685  29.171   6.377  13.011
39070W        W10686  29.932   5.853  13.773
39071W        W10687   8.816  29.411  13.038
39072W        W10688  21.612  39.579  10.701
39073W        W10689  30.392  30.390  10.180
39074W        W10690  32.689  13.256   0.810
39075W        W10691  17.179  24.718   0.661
39076W        W10692  33.499   5.602  13.573
39077W        W10693  26.003  33.483   2.267
39078W        W10694  39.552  42.030  12.838
39079W        W10695   0.989  20.336   4.297
39080W        W10696   9.765  29.517   1.011
39081W        W10697  15.837  20.632   1.882
39082W        W10698  38.142   3.165  12.658
39083W        W10699  26.432   7.652   2.414
39084W        W10700  33.337  39.362  11.449
39085W        W10701  31.874   1.557  11.643
39086W        W10702  12.656  40.013  12.206
39087W        W10703  40.812   5.937  10.692
39088W        W10704  10.768  21.047  14.446
39089W        W10705  38.964   6.973  14.736
39090W        W10706  44.164  18.293  12.424
39091W        W10707  20.200  40.913  11.438
39092W        W10708  38.327   9.873  10.433
39093W        W10709  10.506  16.054   1.293
39094W        W10710  11.838  37.069  12.396
39095W        W10711  12.646  40.699   0.744
39096W        W10712  44.348  10.799  12.444
39097W        W10713   0.339   6.539   3.183
39098W        W10714  18.292  42.635   1.224
39099W        W10715  38.842   9.021   0.751
39100W        W10716  15.824  25.023  12.886
39101W        W10717  15.490  21.632   3.640
39102W        W10718  36.023  23.978  12.416
39103W        W10719   0.713  23.996   2.928
39104W        W10720   1.889   2.626  10.709
39105W        W10721  39.890   5.306  12.897
39106W        W10722  35.064  18.766   5.101
39107W        W10723  34.962  41.410  12.537
39108W        W10724   0.892   1.372  12.615
39109W        W10725  27.268  40.423   3.675
39110W        W10726  23.589  38.119   0.894
39111W        W10727  20.013  29.177  13.330
39112W        W10728  32.129  35.410   3.235
39113W        W10729  14.551  25.875  14.926
39114W        W10730  14.291  41.540  13.627
39115W        W10731  22.467   3.048  12.148
39116W        W10732  38.922  13.118  11.484
39117W        W10733  22.912  38.040  10.246
39118W        W10734   8.810  20.514  10.634
39119W        W10735  13.249  28.807  13.006
39120W        W10736  13.257   4.707  14.724
39121W        W10737  14.122   6.182  13.939
39122W        W10738  15.317  11.853  12.842
39123W        W10739  41.069  38.524   2.838
39124W        W10740   7.777  25.904   4.799
39125W        W10741  38.096   2.952   1.395
39126W        W10742  44.086   4.751   3.813
39127W        W10743   5.875  12.630   1.411
39128W        W10744  20.929   3.831   3.552
39129W        W10745   8.861  30.390   3.749
39130W        W10746   7.187   8.340   0.551
39131W        W10747   7.860  18.131   2.850
39132W        W10748  41.564   8.969   2.409
39133W        W10749   4.407   3.837  10.755
39134W        W10750  36.873  34.204  14.227
39135W        W10751  27.083  25.935   1.439
39136W        W10752   4.400  40.815  12.985
39137W        W10753  40.029  22.755   2.364
39138W        W10754  22.629  22.948   0.467
39139W        W10755  33.413  10.443   0.681
39140W        W10756  44.123  18.015   0.654
39141W        W10757  39.378  44.030   4.332
39142W        W10758  14.821  28.123   3.539
39143W        W10759  36.868   2.775   2.038
39144W        W10760  40.040   1.481  12.922
39145W        W10761  30.118  42.011   0.641
39146W        W10762  26.659  42.767   1.724
39147W        W10763  43.015  17.264  11.470
39148W        W10764  12.190  31.229  14.825
39149W        W10765  13.230  32.947  13.029
39150W        W10766  44.876   0.540   0.194
39151W        W10767  33.947  41.325   1.926
39152W        W10768   1.977  27.080   0.834
39153W        W10769   7.809   9.369   2.397
39154W        W10770  24.629  29.801   0.122
39155W        W10771  24.422  13.212  10.964
39156W        W10772  29.673   5.940  10.818
39157W        W10773  42.868  33.385   3.324
39158W        W10774  39.039  42.311  12.193
39159W        W10775  38.505   0.471  11.110
39160W        W10776  14.666  28.879  12.994
39161W        W10777  28.504  10.776   3.179
39162W        W10778  17.521   4.383  11.139
39163W        W10779   6.500  29.017   1.903
39164W        W10780   0.824  28.979  11.818
39165W        W10781  40.901   1.951  12.620
39166W        W10782   9.700  20.418  11.554
39167W        W10783  19.302  17.374   0.882
39168W        W10784   6.343   4.247   2.244
39169W        W10785  26.056  19.216   2.559
39170W        W10786  26.868   0.109  12.028
39171W        W10787  27.496  14.114   9.625
39172W        W10788   3.679  28.877  13.053
39173W        W10789  44.550  21.739   0.076
39174W        W10790  20.536   6.388  10.511
39175W        W10791  16.316  24.517  13.903
39176W        W10792  22.168  38.068  13.283
39177W        W10793  32.397  15.786   1.875
39178W        W10794  27.139   3.909  10.363
39179W        W10795  19.355   4.464  13.564
39180W        W10796  21.865  35.558  12.877
39181W        W10797   0.807  44.407   0.123
39182W        W10798  39.391  36.575   0.882
39183W        W10799  27.518   4.968   3.252
39184W        W10800  34.138  13.045  12.464
39185W        W10801   0.376  17.903   2.319
39186W        W10802  10.372  17.723   2.734
39187W        W10803   6.913  18.187  14.972
39188W        W10804  41.930  11.086   3.226
39189W        W10805  40.337  40.435   1.742
39190W        W10806  39.367  39.023   0.755
39191W        W10807  16.835  36.338  12.462
39192W        W10808  32.131  20.202  14.374
39193W        W10809   1.329   2.936  14.519
39194W        W10810  26.210  44.275   0.283
39195W        W10811   3.475  34.503  12.768
39196W        W10812   4.791  14.576  11.236
39197W        W10813  31.829  30.964  12.959
39198W        W10814  14.030   1.102  12.646
39199W        W10815  28.628  42.618   1.880
39200W        W10816  33.144  35.549  13.002
39201W        W10817  18.147  31.592  14.896
39202W        W10818  23.273  18.671   4.183
39203W        W10819  42.099  27.204  11.576
39204W        W10820  38.701  25.309  11.576
39205W        W10821   8.552  16.305   3.189
39206W        W10822  22.669  32.870   3.328
39207W        W10823  16.517  16.109  13.384
39208W        W10824  14.400  43.551  11.169
39209W        W10825  39.999   2.631  11.533
39210W        W10826  24.063  33.652   1.883
39211W        W10827   9.497   1.310  14.467
39212W        W10828  31.956  16.382   3.737
39213W        W10829  23.205  13.042  14.945
39214W        W10830  42.939  28.755  11.213
39215W        W10831  31.063   3.865  11.446
39216W        W10832  24.290  33.914  12.882
39217W        W10833  39.977   3.139  11.609
39218W        W10834  15.940  17.568   0.480
39219W        W10835  13.658  19.089  11.039
39220W        W10836  16.252  44.207   3.572
39221W        W10837  12.452  38.357   3.808
39222W        W10838  23.442  17.112   2.211
39223W        W10839   5.364  44.987   1.195
39224W        W10840   0.736  11.594  10.603
39225W        W10841  22.187  40.413  14.840
39226W        W10842  30.103  14.290  11.853
39227W        W10843  37.750  33.082  14.044
39228W        W10844  24.461  38.835   2.852
39229W        W10845  13.136   7.318  12.994
39230W        W10846  41.359  44.414   4.904
39231W        W10847  38.517   4.274  11.159
39232W        W10848  17.530  19.028   4.493
39233W        W10849  28.131  38.947  10.767
39234W        W10850  18.355   7.294   4.358
39235W        W10851  42.295  38.128   0.248
39236W        W10852  17.337  11.277  12.872
39237W        W10853  44.611  42.941   1.322
39238W        W10854  15.119  23.460   4.356
39239W        W10855  25.865  43.523   1.682
39240W        W10856  32.315   8.905   2.690
39241W        W10857   7.506  29.174   3.634
39242W        W10858  14.254  12.240   4.419
39243W        W10859   0.823  27.169   0.533
39244W        W10860  22.139  31.719  12.330
39245W        W10861  31.916  42.997   0.972
39246W        W10862  32.549   6.979   3.829
39247W        W10863   9.146  41.825   1.050
39248W        W10864  31.164  36.987   1.411
39249W        W10865  31.543  41.834   3.729
39250W        W10866  34.671  42.718   2.238
39251W        W10867   2.052  39.790  14.008
39252W        W10868  29.075   1.707  11.550
39253W        W10869  31.402  20.546   0.440
39254W        W10870  13.732  24.701   4.538
39255W        W10871  40.835  22.534  14.568
39256W        W10872  19.585  22.838  14.366
39257W        W10873  19.812  15.129   3.796
39258W        W10874   6.638   7.722  14.457
39259W        W10875  40.950  43.891   4.220
39260W        W10876  23.588  24.164  13.330
39261W        W10877   0.225  40.457   2.067
39262W        W10878  37.650  30.969  11.928
39263W        W10879  35.350  43.913   4.753
39264W        W10880   7.122  28.019  10.479
39265W        W10881  38.687  44.249   2.750
39266W        W10882  17.728  41.812  10.362
39267W        W10883  18.905  25.626   3.088
39268W        W10884  17.339  36.008  13.324
39269W        W10885   1.646  31.625   0.030
39270W        W10886  25.568  41.143   3.974
39271W        W10887   9.665  37.334   0.308
39272W        W10888  35.406  11.342   4.116
39273W        W10889   9.247  25.382   3.087
39274W        W10890  20.570   0.996   2.715
39275W        W10891  18.469  33.787  10.715
39276W        W10892  28.495  31.037  14.245
39277W        W10893   4.175  39.753  13.793
39278W        W10894  44.531  17.761  14.728
39279W        W10895  19.883   7.906   4.177
39280W        W10896  10.861  44.764  14.847
39281W        W10897   9.380  27.379  13.067
39282W        W10898  11.542  29.197  13.743
39283W        W10899  38.462  17.908   3.913
39284W        W10900  15.541   3.865  13.526
39285W        W10901  10.800  13.284  12.581
39286W        W10902  10.446   0.002  13.029
39287W        W10903   4.264   7.193   3.926
39288W        W10904  22.516  35.934  13.572
39289W        W10905  40.667   3.468   0.139
39290W        W10906  30.669  38.804   0.492
39291W        W10907  21.220  21.154  14.885
39292W        W10908  10.778  28.478  10.750
39293W        W10909   9.858  25.757  13.838
39294W        W10910  44.887  11.360   2.387
39295W        W10911  13.906   4.205   2.646
39296W        W10912   7.807   3.032  12.472
39297W        W10913  13.607   6.778  11.523
39298W        W10914   1.979  19.311  12.591
39299W        W10915  39.799  26.636   2.303
39300W        W10916  16.381  25.385   2.135
39301W        W10917  13.305   6.787   4.910
39302W        W10918  25.570  10.099  13.437
39303W        W10919  40.917  37.864   2.450
39304W        W10920   0.060  36.943   2.359
39305W        W10921  41.611  33.112  10.695
39306W        W10922   1.948  18.087   0.815
39307W        W10923  41.954  10.375  10.740
39308W        W10924  11.674  20.830  10.555
39309W        W10925  18.113  38.959   2.930
39310W        W10926  17.734   6.741  12.104
39311W        W10927  31.196  16.744   4.186
39312W        W10928  25.277  44.484  10.640
39313W        W10929  25.088  40.627  13.563
39314W        W10930  36.668  13.774  14.311
39315W        W10931  37.498  17.507   1.314
39316W        W10932  44.231  35.342  13.532
39317W        W10933  30.897   4.518  10.651
39318W        W10934  33.149  25.470  13.716
39319W        W10935  15.090   2.704   0.813
39320W        W10936  43.898  11.810   4.592
39321W        W10937  13.612   1.148   4.929
39322W        W10938   6.335  21.137   4.654
39323W        W10939   9.069  42.813   1.272
39324W        W10940  40.383  39.602  12.806
39325W        W10941  36.562   1.715   2.741
39326W        W10942  36.415  25.609   3.784
39327W        W10943  28.623  39.312  12.465
39328W        W10944   9.742  32.800  13.387
39329W        W10945  43.613   4.162   0.562
39330W        W10946  28.188  32.777   2.168
39331W        W10947  26.048  16.853   3.849
39332W        W10948  23.111  36.119   3.608
39333W        W10949  32.369   8.900  13.913
39334W        W10950  18.660  37.530   4.086
39335W        W10951  23.108  36.631   0.108
39336W        W10952  17.842  16.996  11.666
39337W        W10953  33.958  11.411  12.127
39338W        W10954  15.508  22.213  12.918
39339W        W10955  25.546  29.361  11.325
39340W        W10956  17.214  19.643   1.393
39341W        W10957  10.717  12.109  14.353
39342W        W10958  27.015   8.690   0.901
39343W        W10959  30.097   6.900  14.771
39344W        W10960  40.278  41.563   2.230
39345W        W10961  29.076  20.648   1.553
39346W        W10962  36.983  42.843   2.779
39347W        W10963  13.249   8.908  13.912
39348W        W10964  40.611   2.636  10.807
39349W        W10965   6.304   4.353  10.712
39350W        W10966   1.876  39.356  11.543
39351W        W10967   1.369  19.675  13.181
39352W        W10968  20.282  17.170  12.880
39353W        W10969  17.215  40.575  11.649
39354W        W10970  36.471   7.568  10.618
39355W        W10971   9.607  18.201   2.382
39356W        W10972  34.157  18.794  12.607
39357W        W10973   1.451  28.723   1.928
39358W        W10974  13.383  43.007  11.158
39359W        W10975  35.849  28.412  13.102
39360W        W10976  22.112  34.584  13.091
39361W        W10977  16.390  17.086  11.566
39362W        W10978  29.621  19.253   4.307
39363W        W10979  11.271   9.426  11.493
39364W        W10980  17.112   7.726   4.233
39365W        W10981  27.889   9.251   3.235
39366W        W10982  18.474   5.343  12.464
39367W        W10983   6.939  32.582   0.821
39368W        W10984   2.335  24.231   1.932
39369W        W10985  31.067  22.660  11.102
39370W        W10986  37.011  18.825   0.823
39371W        W10987  31.456  34.401   2.568
39372W        W10988  18.782  34.137   0.201
39373W        W10989  36.670  19.189  14.011
39374W        W10990  44.912  14.862  12.065
39375W        W10991  19.649   1.403   2.196
39376W        W10992  36.323  24.079  11.645
39377W        W10993  38.349   2.506   4.552
39378W        W10994  21.053  14.581   4.046
39379W        W10995  35.433  22.551  10.641
39380W        W10996  40.525   7.193   1.359
39381W        W10997  37.347  30.024   3.313
39382W        W10998  31.735  41.020   3.262
39383W        W10999  20.219  19.283  12.589
39384W        W11000   4.849  38.830  12.638
39385W        W11001  39.152  14.132  11.700
39386W        W11002  32.958  10.727   3.293
39387W        W11003   7.426  27.370   3.216
39388W        W11004  34.705  23.500   3.313
39389W        W11005  32.919  11.154  11.585
39390W        W11006   0.395  30.368   4.370
39391W        W11007  28.912   7.665  13.505
39392W        W11008  42.585  38.219  13.943
39393W        W11009  37.991   1.915   4.633
39394W        W11010   2.555  40.728  13.949
39395W        W11011  34.966  31.698  12.901
39396W        W11012  22.590  17.267   1.358
39397W        W11013  13.366   0.944  10.904
39398W        W11014  17.485  13.871  11.634
39399W        W11015   6.762  32.820  14.823
39400W        W11016  16.353  17.616   4.449
39401W        W11017  35.968  35.365   2.225
39402W        W11018   9.556  31.942   1.371
39403W        W11019  35.407   1.969   2.385
39404W        W11020  15.608  40.877  10.682
39405W        W11021  24.519  32.538  12.423
39406W        W11022  22.993  13.798   4.120
39407W        W11023  10.913  10.347  12.122
39408W        W11024  36.574  21.134   1.967
39409W        W11025  22.281  28.945   4.026
39410W        W11026  11.595  32.421  12.526
39411W        W11027  27.186  11.211  13.380
39412W        W11028   0.925  24.731  14.946
39413W        W11029   4.241  34.437  11.061
39414W        W11030  11.828  29.878   5.120
39415W        W11031  15.910  37.031   3.580
39416W        W11032   8.065  24.687  13.530
39417W        W11033   3.670  34.909   2.375
39418W        W11034  10.343  25.083  13.333
39419W        W11035  28.010   4.917   0.233
39420W        W11036  32.514  31.945   3.587
39421W        W11037  42.467  10.841  11.225
39422W        W11038  22.520  12.254  11.570
39423W        W11039  43.868  20.760   4.730
39424W        W11040   0.295  39.493   5.038
39425W        W11041  37.336   6.935   2.810
39426W        W11042  19.158  35.630  13.090
39427W        W11043   8.207   0.289   4.193
39428W        W11044   7.894  13.596   1.341
39429W        W11045   2.716  19.251  11.514
39430W        W11046  39.030  11.317   2.809
39431W        W11047  41.563  30.944   0.908
39432W        W11048  12.601   1.800  12.015
39433W        W11049  43.947  37.096  14.343
39434W        W11050  41.867  44.399   2.083
39435W        W11051  11.392   6.994   0.790
39436W        W11052  31.778  27.719  12.387
39437W        W11053  39.339   4.360  13.911
39438W        W11054  31.672  37.926  14.351
39439W        W11055   2.508  29.430   3.702
39440W        W11056   3.426  43.536  11.194
39441W        W11057  29.469  21.773   4.594
39442W        W11058  15.286   1.978  12.832
39443W        W11059  37.364  34.123  14.457
39444W        W11060  33.381  36.992   2.638
39445W        W11061   7.898  37.765   2.335
39446W        W11062  35.096  36.808   3.601
39447W        W11063   1.514  16.608  11.237
39448W        W11064  17.017  14.419   5.074
39449W        W11065  28.608  28.266  12.100
39450W        W11066  37.428   9.405   1.945
39451W        W11067  19.801  10.222   1.914
39452W        W11068   1.764  28.220   2.447
39453W        W11069  32.860   7.851   0.890
39454W        W11070  22.575  39.304  13.857
39455W        W11071  22.559  28.727  13.035
39456W        W11072  38.131  35.148  14.945
39457W        W11073  36.563  31.852   2.633
39458W        W11074  23.146  44.539   1.702
39459W        W11075   7.357  31.454  12.941
39460W        W11076   0.905  18.762  14.839
39461W        W11077  24.577  34.859   4.504
39462W        W11078  22.950  15.056  14.499
39463W        W11079  39.870  35.967   2.855
39464W        W11080  25.158  28.225  12.038
39465W        W11081  30.447  17.260   3.205
39466W        W11082  42.212  35.064   0.383
39467W        W11083   5.901  25.941  12.917
39468W        W11084  14.214   3.390  11.390
39469W        W11085  16.941  18.867   0.299
39470W        W11086  42.380  41.287  14.504
39471W        W11087  12.622  38.541   2.772
39472W        W11088  38.782  14.160  13.028
39473W        W11089  33.008  41.892  10.657
39474W        W11090  30.709  27.225   2.347
39475W        W11091  24.718  16.590   3.679
39476W        W11092  28.418  34.913  12.887
39477W        W11093   3.694  23.106   3.100
39478W        W11094   3.492  43.549   4.705
39479W        W11095  33.184  44.470  13.183
39480W        W11096  40.568   2.403   4.287
39481W        W11097  17.724  28.675   3.225
39482W        W11098  15.177  38.045   1.435
39483W        W11099  22.628  39.468   1.186
39484W        W11100  38.951  39.752  10.263
39485W        W11101  13.237  22.576   2.125
39486W        W11102  22.643  33.175   3.818
39487W        W11103  26.388  26.700  12.485
39488W        W11104  40.467  22.177   3.137
39489W        W11105  38.900   7.623   2.821
39490W        W11106   4.067  34.604   3.485
39491W        W11107  19.172   4.477   4.217
39492W        W11108  42.663  37.206   5.096
39493W        W11109  40.208  30.465   0.017
39494W        W11110  25.978  23.548  10.664
39495W        W11111  32.801  44.539  14.659
39496W        W11112  18.684  41.788   4.726
39497W        W11113   3.774  40.453   4.243
39498W        W11114  31.176  17.700  13.750
39499W        W11115  13.544  39.863  12.719
39500W        W11116  32.111  37.038   0.330
39501W        W11117  41.370  39.385   2.367
39502W        W11118  34.355  29.370  13.484
39503W        W11119   9.157   4.370  14.772
39504W        W11120  41.027  20.535   0.397
39505W        W11121  16.390   1.879  10.383
39506W        W11122  26.188  30.120   2.415
39507W        W11123  11.783  18.131   1.696
39508W        W11124  16.527  17.458   0.727
39509W        W11125   2.640  31.114   3.672
39510W        W11126   3.599  18.711  13.861
39511W        W11127   6.289  42.963  14.908
39512W        W11128  43.315  19.327  12.037
39513W        W11129   1.332   6.465  11.965
39514W        W11130  24.750   9.736   2.976
39515W        W11131   0.991   0.397  13.266
39516W        W11132  24.931  19.593   1.884
39517W        W11133  39.594  27.652   4.562
39518W        W11134  44.800  17.533   4.931
39519W        W11135  18.524   1.473  11.976
39520W        W11136  10.927   9.786  10.456
39521W        W11137  16.765  11.569  12.854
39522W        W11138   5.771  19.167   0.865
39523W        W11139   9.974  28.130   0.317
39524W        W11140  10.145   7.860  12.107
39525W        W11141  13.290  34.980  13.595
39526W        W11142   2.337   4.263   3.715
39527W        W11143  16.895  28.928  14.818
39528W        W11144  20.401  13.877   0.537
39529W        W11145  31.102  22.769  13.358
39530W        W11146  34.329  31.087  12.485
39531W        W11147  12.198   9.878  12.951
39532W        W11148  26.445  23.296  12.600
39533W        W11149   4.314  17.690   4.165
39534W        W11150  35.930  42.893   4.383
39535W        W11151  40.087  27.688   4.702
39536W        W11152  37.984  35.760   0.029
39537W        W11153   6.470   5.817   0.755
39538W        W11154   0.678  39.067  14.759
39539W        W11155  41.459  15.247   0.917
39540W        W11156  20.254  15.079  11.096
39541W        W11157  39.958   2.746   1.114
39542W        W11158  35.850  30.103  12.931
39543W        W11159  19.485  24.483  13.941
39544W        W11160  21.088  23.234  13.484
39545W        W11161   3.520   5.444   3.626
39546W        W11162  18.600  23.490  13.431
39547W        W11163  40.265  18.392  12.183
39548W        W11164  40.964  36.980   4.159
39549W        W11165  29.188   9.350  10.626
39550W        W11166  26.732   5.347  14.742
39551W        W11167  26.506   1.133   3.571
39552W        W11168  23.867  13.193   1.883
39553W        W11169  36.223  32.089   2.317
39554W        W11170  19.234  23.415   4.092
39555W        W11171   8.449  29.047   0.295
39556W        W11172  14.269   6.664  14.046
39557W        W11173   5.274  32.511   0.718
39558W        W11174   2.699  39.535  14.407
39559W        W11175   9.382   5.781  12.380
39560W        W11176  28.961  42.790  10.673
39561W        W11177  26.296  10.581   1.030
39562W        W11178  11.212  30.689   4.738
39563W        W11179  17.566  14.310   0.359
39564W        W11180  37.498  18.400  11.643
39565W        W11181  36.261  17.576   3.271
39566W        W11182  36.607  15.819   3.541
39567W        W11183  13.736  17.837  14.457
39568W        W11184  10.812   4.668   0.840
39569W        W11185  43.514  37.975  11.519
39570W        W11186  22.641  26.211   2.414
39571W        W11187  26.080  38.553  13.382
39572W        W11188   7.474  16.216  12.425
39573W        W11189  37.241  15.106  12.097
39574W        W11190  24.384   9.421   3.128
39575W        W11191  21.762   5.309   2.327
39576W        W11192  44.068  28.945  12.401
39577W        W11193  16.630  16.635   1.446
39578W        W11194  29.494  38.798   4.176
39579W        W11195   3.434  13.649  13.423
39580W        W11196  16.136  37.325  11.002
39581W        W11197  38.906   6.320  11.877
39582W        W11198  15.112  10.694   3.347
39583W        W11199   4.856  15.533   2.212
39584W        W11200  41.506  42.284   4.603
39585W        W11201  10.201  21.220  14.024
39586W        W11202  40.351  19.970  11.777
39587W        W11203  15.839  44.283  13.302
39588W        W11204  25.072   9.367  14.422
39589W        W11205  13.821  24.093  12.376
39590W        W11206  36.531  37.568   2.883
39591W        W11207  20.516  36.183   4.700
39592W        W11208  17.282   6.451   0.886
39593W        W11209  19.200  43.710   4.554
39594W        W11210   5.283  38.231   3.667
39595W        W11211   6.669  25.155   3.056
39596W        W11212   1.252   5.925   3.602
39597W        W11213  21.621  21.168  13.984
39598W        W11214  42.207  19.190  14.893
39599W        W11215  44.365  30.957  11.673
39600W        W11216  16.481  37.636  11.825
39601W        W11217   8.816  40.132  10.586
39602W        W11218  17.881  28.949   3.626
39603W        W11219  41.270  28.063  11.523
39604W        W11220  38.298   3.202   0.963
39605W        W11221  11.138  37.405  10.332
39606W        W11222  16.300   8.139   3.631
39607W        W11223  26.608  13.573  12.147
39608W        W11224  21.077  17.101  12.459
39609W        W11225  26.981  11.461   4.235
39610W        W11226  15.289  27.585  10.430
39611W        W11227  16.329   2.683  12.158
39612W        W11228  18.273  30.424  14.490
39613W        W11229   5.819  22.945   4.608
39614W        W11230  14.396  32.706   3.656
39615W        W11231   3.740   4.892  10.784
39616W        W11232   7.174   4.386   0.833
39617W        W11233   9.560  19.625  14.487
39618W        W11234  38.671   9.869   4.828
39619W        W11235  30.182  39.957   1.242
39620W        W11236   2.512  20.190   1.400
39621W        W11237  14.776   9.503   1.187
39622W        W11238  19.789  13.006   2.906
39623W        W11239  33.937   2.303   0.030
39624W        W11240  20.304  18.311   2.329
39625W        W11241  30.017   0.741   4.519
39626W        W11242  11.625  31.868   0.800
39627W        W11243  16.397  15.115  13.181
39628W        W11244  37.880  24.667   1.883
39629W        W11245  34.814  39.361   2.180
39630W        W11246  35.097   2.778  11.985
39631W        W11247  13.551  15.186   2.297
39632W        W11248  31.164  26.660   0.358
39633W        W11249   3.016  36.126  14.257
39634W        W11250  32.068  28.707   3.833
39635W        W11251  42.491   5.297  12.012
39636W        W11252  42.266  13.679  14.828
39637W        W11253   1.455  25.936  14.301
39638W        W11254  31.834  18.206   1.897
39639W        W11255  38.971  11.579  13.474
39640W        W11256  39.207  28.948  11.163
39641W        W11257  18.673  43.347   0.442
39642W        W11258  19.035  21.613   1.188
39643W        W11259  25.610  40.955  12.505
39644W        W11260   0.010   9.239  11.245
39645W        W11261  13.838  32.387  12.802
39646W        W11262   6.519  39.922   3.157
39647W        W11263  22.194  34.018   3.632
39648W        W11264  43.610   5.197   3.166
39649W        W11265   0.696  26.723   0.851
39650W        W11266  38.688  34.436   4.497
39651W        W11267  14.555   5.936   3.719
39652W        W11268  41.747  32.611   2.876
39653W        W11269  10.156  16.629   2.567
39654W        W11270  26.101   3.943  13.024
39655W        W11271  36.462  21.479  13.640
39656W        W11272  42.780  34.597   3.127
39657W        W11273  26.350  13.628   5.252
39658W        W11274  31.706  19.924   3.332
39659W        W11275  36.384  19.564   4.634
39660W        W11276  12.392  44.812   3.766
39661W        W11277  11.737  25.561  14.842
39662W        W11278  22.149  25.497   2.902
39663W        W11279  38.543  41.297  13.025
39664W        W11280  14.566  38.049  13.547
39665W        W11281  34.662  23.982  12.540
39666W        W11282  31.772  34.651  14.453
39667W        W11283   0.486  36.386   5.687
39668W        W11284   9.007  36.464   1.161
39669W        W11285   4.788  38.288   1.719
39670W        W11286  28.659  11.704  12.492
39671W        W11287  30.711   8.448  11.954
39672W        W11288  26.242  31.166  14.742
39673W        W11289  41.370  13.560   0.826
39674W        W11290  10.486   0.793   1.955
39675W        W11291  28.182  17.051  13.091
39676W        W11292  19.929   1.212  11.129
39677W        W11293  28.898   2.967  10.611
39678W        W11294  41.946  25.965  12.464
39679W        W11295  33.633  38.325   2.772
39680W        W11296  36.455  43.479  11.100
39681W        W11297   7.890  12.389   1.796
39682W        W11298  38.123  28.457  14.030
39683W        W11299   2.684  35.268  11.490
39684W        W11300  25.937  12.327   2.255
39685W        W11301  33.686  15.917  10.284
39686W        W11302  35.046  43.549  14.226
39687W        W11303  40.029  12.369  13.822
39688W        W11304  33.250  13.723   4.199
39689W        W11305  41.814   1.428  11.637
39690W        W11306  38.349  38.498   1.144
39691W        W11307  31.134  31.872  12.327
39692W        W11308  24.187  43.297  10.740
39693W        W11309  35.466  41.888  10.640
39694W        W11310  16.056  23.784   3.433
39695W        W11311  12.449  30.193   4.571
39696W        W11312   1.857  40.006   0.329
39697W        W11313  33.469  15.085  12.492
39698W        W11314  19.328  17.799  13.737
39699W        W11315   7.146   6.847  11.433
39700W        W11316   3.523  28.561   2.021
39701W        W11317  30.778  11.232   4.508
39702W        W11318  33.166   3.854  11.893
39703W        W11319   2.028  10.868   0.839
39704W        W11320  30.473  42.850  14.714
39705W        W11321  25.939   8.737   2.001
39706W        W11322  13.273  11.262   4.141
39707W        W11323  22.770   7.375  12.864
39708W        W11324  22.428  44.979  11.570
39709W        W11325   7.153   9.316   3.650
39710W        W11326  23.332  16.824   0.938
39711W        W11327  37.851   3.907   2.624
39712W        W11328  11.281  23.544  10.760
39713W        W11329  13.322   4.375  11.610
39714W        W11330  33.008   6.584   1.390
39715W        W11331  37.543  18.308  13.420
39716W        W11332   7.584  33.359  10.271
39717W        W11333  17.403  35.164   0.435
39718W        W11334  26.391  25.712  12.228
39719W        W11335  26.627  30.794  12.815
39720W        W11336  32.370  14.649  13.261
39721W        W11337  17.828   9.230  10.778
39722W        W11338  23.250  16.653  13.422
39723W        W11339  33.409  39.102  11.977
39724W        W11340  11.207   8.279   2.797
39725W        W11341  36.497   8.555  10.219
39726W        W11342   0.533  10.786  13.392
39727W        W11343   1.245  29.061  14.921
39728W        W11344  27.795  42.373   3.706
39729W        W11345   2.815  32.026  12.393
39730W        W11346  34.048  22.767  12.965
39731W        W11347  35.437   4.438  12.058
39732W        W11348  10.135  36.428   1.151
39733W        W11349  12.382  23.600  14.025
39734W        W11350  19.632  36.214   0.396
39735W        W11351  19.325  27.576   1.440
39736W        W11352  38.658  24.529  12.547
39737W        W11353  17.420   3.876   2.285
39738W        W11354  11.932  11.326   1.427
39739W        W11355  30.105  44.826  13.273
39740W        W11356  13.317  34.507   0.494
39741W        W11357  24.146  39.289   4.089
39742W        W11358  18.901  43.976   3.579
39743W        W11359  40.569  15.485   4.083
39744W        W11360  12.105  13.761  11.147
39745W        W11361   8.920  33.897  12.051
39746W        W11362  10.227  42.439  13.836
39747W        W11363  44.905  14.625  11.584
39748W        W11364  22.208  27.260  14.322
39749W        W11365  14.739   5.284  10.777
39750W        W11366  34.395   0.700  10.311
39751W        W11367   4.206   7.363   4.939
39752W        W11368  23.659  13.836   3.752
39753W        W11369  15.685  24.055  12.917
39754W        W11370  22.503  35.070   2.649
39755W        W11371  37.970  19.034   3.729
39756W        W11372  27.449  32.750   0.382
39757W        W11373  10.211   8.847  14.535
39758W        W11374  10.058   1.357  11.837
39759W        W11375   9.892  26.261  13.061
39760W        W11376  35.623  17.288  14.364
39761W        W11377   4.879  25.443   0.407
39762W        W11378   0.558  38.001   3.649
39763W        W11379  42.684   5.954  12.897
39764W        W11380  15.842  18.768   9.812
39765W        W11381   1.858  25.714  14.607
39766W        W11382   3.723   2.188   1.955
39767W        W11383  21.400   8.924   4.523
39768W        W11384  16.939  18.779  10.917
39769W        W11385   9.912   7.835   4.740
39770W        W11386  28.166  35.086  12.452
39771W        W11387  28.431   0.911  11.243
39772W        W11388  41.611  19.041   2.649
39773W        W11389   1.420  10.822   4.173
39774W        W11390   0.017  12.764  10.346
39775W        W11391  16.111  42.047   2.144
39776W        W11392  14.474   0.577   0.550
39777W        W11393  23.047  15.148   2.258
39778W        W11394  32.793  11.840   2.427
39779W        W11395  34.617  22.495  11.427
39780W        W11396   7.891  15.888   1.692
39781W        W11397  16.386  11.644  11.200
39782W        W11398   6.075  31.736  12.412
39783W        W11399   7.787  44.635  11.133
39784W        W11400  27.177  39.175   3.595
39785W        W11401  15.613  40.707   3.403
39786W        W11402  11.183  40.702   1.327
39787W        W11403  14.419  28.265   0.294
39788W        W11404  21.614  11.719   1.306
39789W        W11405  36.881  19.966   0.216
39790W        W11406  17.924   3.827   4.430
39791W        W11407  22.186  25.055  12.658
39792W        W11408   9.849  19.734   4.650
39793W        W11409  21.611  44.610   3.386
39794W        W11410  26.476  41.773  11.088
39795W        W11411  29.454  12.175   0.481
39796W        W11412  15.894   4.786  10.227
39797W        W11413   4.827   2.310  12.094
39798W        W11414  28.954  42.314   4.127
39799W        W11415  25.570  28.040  11.078
39800W        W11416  37.166  28.177   4.583
39801W        W11417  18.746  28.193   4.807
39802W        W11418  23.094  19.055   0.672
39803W        W11419  39.882  33.903   2.466
39804W        W11420  11.774   6.891  12.121
39805W        W11421   3.821  38.363  14.299
39806W        W11422  29.585   2.484  12.900
39807W        W11423  25.978  33.071   2.688
39808W        W11424  20.627  23.231  11.622
39809W        W11425  27.981  30.919  12.050
39810W        W11426  18.021  35.986  11.562
39811W        W11427  30.997  30.939   0.505
39812W        W11428  41.584  44.283  11.093
39813W        W11429  20.260  43.814   3.806
39814W        W11430  27.513   5.241   2.786
39815W        W11431  16.859  12.470   0.816
39816W        W11432  32.552  23.331  11.905
39817W        W11433  12.706   3.698  14.361
39818W        W11434  15.780   1.181  12.029
39819W        W11435  11.911  32.085   0.385
39820W        W11436  23.078  25.040   4.532
39821W        W11437  24.394  11.389  14.070
39822W        W11438  19.734  28.340  12.093
39823W        W11439   3.702  38.464  12.130
39824W        W11440  13.568  38.076   4.199
39825W        W11441   9.377  30.050  14.451
39826W        W11442  34.568  35.404  11.377
39827W        W11443  36.948  15.172   4.593
39828W        W11444  31.078  18.563   4.094
39829W        W11445  36.942   5.140  11.298
39830W        W11446  20.859   3.511  11.151
39831W        W11447  32.550  22.138   2.681
39832W        W11448  27.129  19.576   1.911
39833W        W11449  28.633   5.418  14.792
39834W        W11450   7.928  18.517   4.156
39835W        W11451   3.562   9.805   2.669
39836W        W11452  12.868  35.845   0.547
39837W        W11453  20.181  41.533   3.542
39838W        W11454  37.862   0.717   3.810
39839W        W11455   6.855  19.670   0.697
39840W        W11456  39.273  39.195  10.917
39841W        W11457  13.587  36.689   3.355
39842W        W11458  24.250  21.192   2.627
39843W        W11459  14.877  30.121   4.548
39844W        W11460  18.834  35.841  13.436
39845W        W11461  29.491  40.859  12.378
39846W        W11462  35.884  14.001   1.972
39847W        W11463  29.523  15.610  12.977
39848W        W11464  36.833  10.288  11.850
39849W        W11465   0.749   6.944   1.807
39850W        W11466  22.024  32.176   3.313
39851W        W11467   8.356  22.477  11.234
39852W        W11468  24.265  11.126   1.797
39853W        W11469   7.841   3.431   1.870
39854W        W11470  14.587   1.053   0.786
39855W        W11471  28.188  32.990   3.182
39856W        W11472  25.072  26.332   4.053
39857W        W11473  21.491  33.164  10.567
39858W        W11474   1.765  42.831  12.416
39859W        W11475  33.728  43.910  10.231
39860W        W11476  30.843   6.254   4.097
39861W        W11477  13.652  19.241   2.660
39862W        W11478  10.009  10.825  12.057
39863W        W11479  33.109  30.655  14.015
39864W        W11480   2.045  24.184  10.718
39865W        W11481  32.123   0.448   4.129
39866W        W11482  16.680  24.450   0.933
39867W        W11483   0.215  43.683  13.080
39868W        W11484  21.102   1.839   4.804
39869W        W11485   4.823   9.145   4.143
39870W        W11486   3.847  25.235  14.886
39871W        W11487  28.719  27.588  11.478
39872W        W11488   6.718  43.121   1.717
39873W        W11489  17.827  22.374   1.868
39874W        W11490   7.727  39.508   1.229
39875W        W11491   1.880  26.930   1.364
39876W        W11492  17.129  21.245  11.019
39877W        W11493  36.342  12.345   2.100
39878W        W11494  36.244  32.147  14.412
39879W        W11495  15.641  27.410   0.802
39880W        W11496  16.733  10.936   3.635
39881W        W11497  17.214  38.071   3.464
39882W        W11498  37.854  27.714   3.323
39883W        W11499  31.881  31.377   3.731
39884W        W11500  33.686  40.369  12.448
39885W        W11501  30.917  14.095   3.126
39886W        W11502  27.950   9.208   2.678
39887W        W11503   4.792  43.486   4.245
39888W        W11504  13.755  25.053   4.897
39889W        W11505  36.974   3.840   0.963
39890W        W11506  27.168   5.627  11.091
39891W        W11507   4.258  31.620   2.826
39892W        W11508  19.770   7.608  12.998
39893W        W11509  22.140  40.988  13.666
39894W        W11510  13.274  41.402  14.752
39895W        W11511  34.936   7.239   2.822
39896W        W11512  17.374  17.251   3.756
39897W        W11513  39.763  12.231   2.701
39898W        W11514  40.904  32.226  11.165
39899W        W11515   4.757  12.831  11.619
39900W        W11516  30.887  32.829   4.610
39901W        W11517  32.997  28.985   5.325
39902W        W11518  37.490  37.380  13.481
39903W        W11519  12.233   8.755   2.014
39904W        W11520  20.234   1.849   2.781
39905W        W11521  25.896   2.265   4.148
39906W        W11522   1.019  23.536   0.248
39907W        W11523  23.488  26.656  14.825
39908W        W11524   2.837  22.913   4.590
39909W        W11525  27.041   1.692   3.138
39910W        W11526  44.449  20.167   2.927
39911W        W11527  38.760  37.622  11.659
39912W        W11528  35.666  12.869  11.044
39913W        W11529   9.632  28.951  13.844
39914W        W11530  32.170  37.056   1.311
39915W        W11531   7.658  14.837  13.967
39916W        W11532  26.589  38.657   0.499
39917W        W11533  11.113  18.146   4.432
39918W        W11534  12.514  41.875  13.971
39919W        W11535   5.799  23.197   0.466
39920W        W11536   8.302  41.890   0.744
39921W        W11537   4.382  27.239  10.845
39922W        W11538  42.269  30.088  10.593
39923W        W11539  31.846  43.830  11.702
39924W        W11540  43.932  38.128  13.000
39925W        W11541  18.754  37.122  12.926
39926W        W11542  20.096  33.084   0.790
39927W        W11543   0.761  42.839   3.258
39928W        W11544   6.154  21.320  13.903
39929W        W11545  29.847  18.760  14.382
39930W        W11546  16.106  11.652  10.156
39931W        W11547  14.273  14.834   1.876
39932W        W11548  20.621   6.064   2.411
39933W        W11549   2.395  44.333   9.964
39934W        W11550  39.780   2.680   2.704
39935W        W11551  17.575  16.493  10.586
39936W        W11552  37.864   8.881  11.943
39937W        W11553  31.914  35.580  13.976
39938W        W11554  37.420  40.477  11.608
39939W        W11555  29.014  35.072   0.249
39940W        W11556  15.247  25.444  10.720
39941W        W11557   5.456  32.991   0.522
39942W        W11558  24.264  43.865  11.457
39943W        W11559  20.242  22.488   2.661
39944W        W11560   9.674  19.670   1.370
39945W        W11561  32.978  12.989   0.441
39946W        W11562  24.145  43.549  13.928
39947W        W11563  33.804  38.539  12.383
39948W        W11564  20.933  17.550  13.053
39949W        W11565   2.179  28.693  13.798
39950W        W11566  31.543  10.822   0.974
39951W        W11567   8.334   6.808   0.329
39952W        W11568  14.448   3.366  10.494
39953W        W11569  29.831   5.320   0.540
39954W        W11570  29.381  42.049  11.843
39955W        W11571  17.455   0.770  10.656
39956W        W11572  29.865  41.042  14.859
39957W        W11573   9.379  20.838   1.925
39958W        W11574  34.536  19.175  11.376
39959W        W11575   6.045  34.029  13.372
39960W        W11576  16.544  41.398   0.323
39961W        W11577  13.545  24.114  10.439
39962W        W11578  33.587  18.260   3.597
39963W        W11579   6.190   8.402   0.164
39964W        W11580  39.888  30.872  13.408
39965W        W11581   2.745  19.573  11.105
39966W        W11582   5.997   5.954  13.688
39967W        W11583  36.587   1.815  10.339
39968W        W11584   7.389   7.358  14.968
39969W        W11585  30.598  31.190   4.532
39970W        W11586   1.478  25.180  10.538
39971W        W11587  21.222  10.513   1.835
39972W        W11588  27.436   7.705   4.159
39973W        W11589  43.526  12.806   0.677
39974W        W11590  19.299  12.763  13.119
39975W        W11591  18.356   8.614  13.438
39976W        W11592   4.779  30.437  12.630
39977W        W11593  30.485  33.499   5.100
39978W        W11594  42.807  38.766   3.918
39979W        W11595  41.061  38.983  14.361
39980W        W11596   4.693  40.607  12.003
39981W        W11597  24.824  34.527   0.921
39982W        W11598  40.708  37.601  11.543
39983W        W11599  26.137  41.949  10.685
39984W        W11600   6.611  36.719  12.409
39985W        W11601  20.310  24.483  14.358
39986W        W11602   7.905  20.744   1.914
39987W        W11603  23.573   9.176  14.403
39988W        W11604  33.993   8.199  14.079
39989W        W11605  17.769   3.960  10.945
39990W        W11606  18.261   4.643   4.139
39991W        W11607  31.606  26.940   2.204
39992W        W11608  17.633  41.313  10.161
39993W        W11609   1.535  11.077  12.521
39994W        W11610  10.336  27.530  11.575
39995W        W11611   7.015   1.772   0.356
39996W        W11612  21.021   3.715  12.630
39997W        W11613  30.077  18.932  11.098
39998W        W11614   6.171  36.794  13.862
39999W        W11615   3.180  34.960   2.240
40000W        W11616  44.314  28.678   0.617
40001W        W11617  19.731  29.246   3.915
40002W        W11618  12.511  30.549  14.887
40003W        W11619  43.303  34.683   3.603
40004W        W11620  10.409  17.192   1.330
40005W        W11621  11.642  20.388   2.806
40006W        W11622  21.180  17.960   1.367
40007W        W11623  14.999   9.436   2.354
40008W        W11624   6.779   5.821   3.276
40009W        W11625  37.345  27.098   1.791
40010W        W11626  34.504  12.695   2.463
40011W        W11627  29.067  44.860   0.314
40012W        W11628  13.169  40.613   0.888
40013W        W11629  15.934   8.135  13.286
40014W        W11630  30.127  43.652   4.735
40015W        W11631  11.700   8.681   1.805
40016W        W11632  39.935  10.181   1.406
40017W        W11633  12.910  11.512   2.275
40018W        W11634  44.477   7.259  11.659
40019W        W11635  20.437  38.324   1.701
40020W        W11636  33.529  40.272   0.775
40021W        W11637  25.811  31.858  13.903
40022W        W11638  32.888   7.086   1.315
40023W        W11639  33.387  17.580   2.815
40024W        W11640  26.162  13.137  11.551
40025W        W11641   2.195  19.801   4.214
40026W        W11642   6.726  33.047   4.864
40027W        W11643  18.608  18.575   0.253
40028W        W11644   2.006   3.838  12.491
40029W        W11645  10.669  12.038  11.257
40030W        W11646  18.855  19.063  12.108
40031W        W11647  11.499   6.661  12.505
40032W        W11648  24.002  20.727  11.637
40033W        W11649   7.843   5.664  12.551
40034W        W11650  43.448  43.293   2.307
40035W        W11651  44.307  41.517  14.500
40036W        W11652  35.313   5.474   2.806
40037W        W11653   9.620  44.232  14.340
40038W        W11654   1.465  41.258   2.394
40039W        W11655   4.263  17.812   0.958
40040W        W11656  34.578  15.091   2.949
40041W        W11657  43.298  34.142   0.368
40042W        W11658   0.976   0.023  12.888
40043W        W11659  33.022  39.501   4.620
40044W        W11660  28.240   2.201   1.418
40045W        W11661  22.604  40.461   0.777
40046W        W11662  34.881  42.283  12.918
40047W        W11663  27.493  14.784  12.927
40048W        W11664  25.034   2.830   0.451
40049W        W11665  38.777  18.597   2.651
40050W        W11666  11.290  10.897   2.678
40051W        W11667  13.749  37.853   3.743
40052W        W11668   5.361   3.257   2.796
40053W        W11669  35.655  38.674   1.365
40054W        W11670  41.424  28.686   0.241
40055W        W11671  15.257  23.678  13.909
40056W        W11672  38.337   0.359   2.641
40057W        W11673   0.397  29.100  12.084
40058W        W11674  19.164  30.720   3.853
40059W        W11675  14.862   7.702   2.790
40060W        W11676  37.691  42.302  14.080
40061W        W11677  24.789  19.671  11.149
40062W        W11678  11.879  30.538  10.745
40063W        W11679  27.728  37.305   4.098
40064W        W11680   2.197  23.166   0.354
40065W        W11681   2.310  43.821   9.856
40066W        W11682   1.436   8.203   4.595
40067W        W11683  33.105  12.732  10.352
40068W        W11684  28.547  18.102  13.926
40069W        W11685  30.307  15.301   2.562
40070W        W11686  38.958  33.095  12.723
40071W        W11687  36.613  35.563   3.106
40072W        W11688  42.980  41.322  13.386
40073W        W11689  16.236  17.793   3.939
40074W        W11690  14.211  14.601  11.147
40075W        W11691   2.791  42.258   4.543
40076W        W11692   3.333   9.169   1.814
40077W        W11693   4.147  35.442   2.726
40078W        W11694   1.262  16.562   1.769
40079W        W11695  12.674  15.298   3.848
40080W        W11696  22.560  38.338  13.003
40081W        W11697   5.409  17.925  13.101
40082W        W11698   7.801  13.600   4.720
40083W        W11699   4.305  20.851  13.521
40084W        W11700  19.933  33.698  12.160
40085W        W11701   6.969   5.394  13.006
40086W        W11702  43.945  13.861   3.221
40087W        W11703  13.797  29.726   3.696
40088W        W11704  27.461  29.195  10.702
40089W        W11705  35.187  41.117  11.122
40090W        W11706  37.655   0.998  13.066
40091W        W11707  36.664  36.384  13.992
40092W        W11708   8.962  30.509  11.957
40093W        W11709  28.096  16.104   9.972
40094W        W11710  11.332  24.982  10.880
40095W        W11711  38.655  37.420   4.281
40096W        W11712  44.915  21.178   3.985
40097W        W11713  32.809  26.996  13.889
40098W        W11714  14.251  39.086   3.834
40099W        W11715  22.454   9.060   0.875
40100W        W11716  26.413  35.852   1.026
40101W        W11717   0.628   2.383  10.696
40102W        W11718  12.954  27.684  12.742
40103W        W11719   6.862  24.687   2.878
40104W        W11720  33.137  15.654   3.553
40105W        W11721  41.758   5.001   1.801
40106W        W11722  29.842  40.318   0.446
40107W        W11723  44.226   0.418   1.930
40108W        W11724   4.326   5.923   3.174
40109W        W11725  35.559   3.457  13.244
40110W        W11726  29.382  15.724   4.998
40111W        W11727   6.454  34.732  11.873
40112W        W11728  14.232  32.866  11.698
40113W        W11729  32.026  29.494   3.424
40114W        W11730  30.062   8.274   4.502
40115W        W11731   2.396  31.586  14.083
40116W        W11732  13.334   0.034   3.975
40117W        W11733  37.034  44.541  13.455
40118W        W11734  19.133  20.499  12.360
40119W        W11735  43.904   4.996  10.748
40120W        W11736  43.516  18.456   1.255
40121W        W11737  24.593  16.380  10.935
40122W        W11738   0.883  14.276   5.021
40123W        W11739  43.038  17.667  14.992
40124W        W11740  20.707   5.838   0.535
40125W        W11741   3.279  30.816   4.099
40126W        W11742  29.423  26.455  12.972
40127W        W11743  31.132  15.548   0.223
40128W        W11744  27.397  12.036  13.834
40129W        W11745   1.193   6.908   0.971
40130W        W11746   7.399  24.545   3.551
40131W        W11747  39.521  20.133   1.401
40132W        W11748  12.720   5.304  12.677
40133W        W11749  22.032   6.340   0.924
40134W        W11750   1.456  22.167   0.833
40135W        W11751   5.734  42.794  13.408
40136W        W11752   4.315   1.038   2.359
40137W        W11753  22.307  29.061   0.446
40138W        W11754  28.976  23.928  13.238
40139W        W11755  17.357   8.288  13.523
40140W        W11756  10.613   0.543   4.127
40141W        W11757  35.048  34.998   0.783
40142W        W11758  17.812  20.654  13.972
40143W        W11759   0.968  43.825   3.407
40144W        W11760  28.509  41.793   1.450
40145W        W11761  37.935  25.003  13.766
40146W        W11762  43.900  35.970   3.158
40147W        W11763  25.561  10.560  11.984
40148W        W11764   4.971   3.929   0.922
40149W        W11765  17.137  13.642  13.069
40150W        W11766   6.468   8.805   0.375
40151W        W11767  34.951   7.557  14.904
40152W        W11768   3.830  34.666  11.988
40153W        W11769  20.980  25.237   1.778
40154W        W11770  31.350  21.580  10.728
40155W        W11771  42.368   9.143  12.497
40156W        W11772  39.360  23.377  12.057
40157W        W11773  25.861   6.842  14.184
40158W        W11774  24.539  34.316   3.749
40159W        W11775  24.734   6.400   1.247
40160W        W11776  13.548  34.960   1.841
40161W        W11777  37.272  25.501  11.927
40162W        W11778  24.163  37.846  11.528
40163W        W11779  44.980  18.227  14.899
40164W        W11780  34.521  29.876   2.235
40165W        W11781  30.596   7.720   1.656
40166W        W11782  14.393  38.026   3.795
40167W        W11783  34.364   4.176  13.492
40168W        W11784  29.832  20.933  10.530
40169W        W11785  22.730   4.695   3.359
40170W        W11786  12.101  40.432   2.219
40171W        W11787   0.056  42.473   4.741
40172W        W11788  21.050   0.943  13.426
40173W        W11789  31.365  19.706  14.993
40174W        W11790   7.925   3.906   3.635
40175W        W11791   9.130  44.975   4.928
40176W        W11792  22.960  26.639   1.185
40177W        W11793  21.120  14.431  10.702
40178W        W11794  18.591  42.977  12.997
40179W        W11795  42.364  40.773   1.733
40180W        W11796  19.091   2.341  10.958
40181W        W11797  16.008   5.285  10.619
40182W        W11798  41.046  42.730   0.834
40183W        W11799  20.129  24.331  11.010
40184W        W11800   9.256  19.092   3.655
40185W        W11801  37.891  33.885   3.268
40186W        W11802   1.434  19.133   2.750
40187W        W11803  39.086  12.368  10.100
40188W        W11804  13.766  43.416  14.335
40189W        W11805  34.801   4.519  12.558
40190W        W11806  12.100  38.372  14.428
40191W        W11807  40.065  31.272   2.255
40192W        W11808   7.020   7.054   2.852
40193W        W11809   9.936  35.514   3.984
40194W        W11810  26.771   0.395  12.486
40195W        W11811  33.612   7.397  11.040
40196W        W11812  11.862  42.078   1.631
40197W        W11813   4.712  40.799  10.693
40198W        W11814  26.517  29.103   3.102
40199W        W11815  19.516  37.324  13.270
40200W        W11816  25.458  41.616   0.687
40201W        W11817  35.935  10.631  11.464
40202W        W11818  25.156   9.643  13.925
40203W        W11819  25.784  22.026   4.094
40204W        W11820  33.835  21.296  12.844
40205W        W11821   6.155  22.560   4.505
40206W        W11822  22.894  10.908  11.688
40207W        W11823  18.720  14.361  12.406
40208W        W11824  38.875  39.590   3.767
40209W        W11825  42.495  32.146   2.708
40210W        W11826  12.627   5.947  14.060
40211W        W11827  11.073  10.010  13.519
40212W        W11828  38.090   0.963  14.462
40213W        W11829   3.478  33.458  13.889
40214W        W11830   0.424   8.200   4.662
40215W        W11831  34.007   7.238   2.790
40216W        W11832   3.113  37.430   4.410
40217W        W11833   3.838   6.617   4.090
40218W        W11834   8.096  42.822  13.378
40219W        W11835   0.359   1.678  11.030
40220W        W11836   4.201  13.620   1.321
40221W        W11837   0.978  22.310   2.238
40222W        W11838  19.612  21.568  13.399
40223W        W11839  44.775  14.342   1.920
40224W        W11840  12.587  32.028   4.642
40225W        W11841  24.369  38.948  12.606
40226W        W11842  21.351  37.122  11.181
40227W        W11843  41.389  37.922  11.813
40228W        W11844  28.932  15.771   0.583
40229W        W11845  20.278  23.580   5.348
40230W        W11846   7.690  21.497  14.756
40231W        W11847  42.228  22.502  11.043
40232W        W11848   6.208   6.220   0.973
40233W        W11849  29.657  32.601  11.611
40234W        W11850  21.547  12.099   3.656
40235W        W11851  25.246  26.599   0.299
40236W        W11852  27.009  13.520  14.770
40237W        W11853  37.525  15.953  12.006
40238W        W11854  34.967  14.935   4.662
40239W        W11855   0.281  16.795   4.507
40240W        W11856   1.180  40.453  12.063
40241W        W11857  17.512  23.147  12.839
40242W        W11858  25.508  11.107   4.270
40243W        W11859  18.310  30.190   4.019
40244W        W11860  44.233  22.708  10.768
40245W        W11861   0.775  39.936   3.393
40246W        W11862  39.514  23.039   2.607
40247W        W11863  41.070   5.813  11.114
40248W        W11864   4.879  39.557  13.003
40249W        W11865   9.731  43.485  11.240
40250W        W11866  10.980  35.063  10.841
40251W        W11867  44.937  40.564  13.885
40252W        W11868   8.610  36.445  12.453
40253W        W11869   7.351  37.154  11.833
40254W        W11870  43.320  19.834  11.904
40255W        W11871  19.592  26.163  11.538
40256W        W11872  10.312  13.349  13.612
40257W        W11873   8.600  38.063   0.746
40258W        W11874  21.554  26.686   4.215
40259W        W11875   1.949  15.730   2.413
40260W        W11876  41.852  13.584   4.850
40261W        W11877   8.193  41.374   4.833
40262W        W11878  35.311  25.488  12.906
40263W        W11879  34.854  40.562   3.168
40264W        W11880  26.033  13.620  13.314
40265W        W11881  13.089  26.610  11.558
40266W        W11882  22.186   9.031   1.779
40267W        W11883  22.241  12.304   0.278
40268W        W11884   3.345   1.541   3.607
40269W        W11885  34.883   0.179  13.572
40270W        W11886   9.776  37.960  12.035
40271W        W11887  13.323   7.224   4.551
40272W        W11888  39.901  33.007   1.314
40273W        W11889  33.985  44.838  10.255
40274W        W11890  26.735  25.989  13.014
40275W        W11891  34.796  14.750   2.420
40276W        W11892  40.870   7.828  12.966
40277W        W11893  19.631  25.092  10.745
40278W        W11894  28.625   4.764   4.611
40279W        W11895  38.861  14.197  14.987
40280W        W11896  20.741  36.070   1.128
40281W        W11897   8.327   9.858   0.966
40282W        W11898   2.100  17.689  13.368
40283W        W11899  44.822   9.755   1.415
40284W        W11900  30.175  16.648  13.991
40285W        W11901  19.983  16.654   1.247
40286W        W11902  44.197   8.927  13.827
40287W        W11903  25.063  36.174  11.176
40288W        W11904   4.974  44.898   5.030
40289W        W11905  13.368  21.675  14.869
40290W        W11906  43.119   3.759  10.844
40291W        W11907  13.509  13.256   1.316
40292W        W11908  12.586  15.720   1.842
40293W        W11909  12.882  42.858  11.125
40294W        W11910  19.009  11.537  14.363
40295W        W11911  29.175   2.387   3.413
40296W        W11912  10.975  27.739   2.408
40297W        W11913  32.832  43.740   3.980
40298W        W11914  33.886   9.393   1.912
40299W        W11915  21.375   3.386   9.955
40300W        W11916  31.827  35.000   3.155
40301W        W11917  13.959  22.969   2.725
40302W        W11918   7.754  38.366   3.806
40303W        W11919  21.547  17.061   2.351
40304W        W11920  39.538  24.534   3.663
40305W        W11921  17.266  27.004   3.587
40306W        W11922   8.947  25.485   5.196
40307W        W11923  38.033  12.647  10.738
40308W        W11924  10.765  27.541   1.216
40309W        W11925  10.106  34.213   3.908
40310W        W11926   7.384  35.293  12.944
40311W        W11927  39.001  39.176   0.007
40312W        W11928   2.904  24.359  12.995
40313W        W11929  31.509  43.786   3.869
40314W        W11930  13.050  21.013   0.432
40315W        W11931  29.772  43.954   4.255
40316W        W11932  19.507  21.973   3.276
40317W        W11933  22.978  38.179   3.143
40318W        W11934   7.782  18.028  11.250
40319W        W11935   0.211   1.901   1.899
40320W        W11936  37.470  17.105   1.701
40321W        W11937  20.773  15.867   1.177
40322W        W11938  30.397  37.000   4.603
40323W        W11939  21.267  12.642   1.307
40324W        W11940  14.306  30.683   3.727
40325W        W11941  44.868   8.344   1.408
40326W        W11942  15.873  16.096   3.429
40327W        W11943  35.138  16.062  12.943
40328W        W11944   6.342  21.497   4.266
40329W        W11945  36.207  33.304   4.642
40330W        W11946  12.641   5.056  10.690
40331W        W11947  39.029  38.035   1.320
40332W        W11948  25.197  37.885  13.739
40333W        W11949  27.763  18.316  14.819
40334W        W11950  31.941  33.371   2.209
40335W        W11951  36.937   4.993  13.065
40336W        W11952  38.241  41.480   4.610
40337W        W11953  18.075  26.492   0.086
40338W        W11954   2.918  25.690  10.649
40339W        W11955  10.895  38.522  11.009
40340W        W11956  26.693   9.200  11.211
40341W        W11957  42.754  20.119   1.553
40342W        W11958  20.632  35.700  12.552
40343W        W11959   8.809  22.909  14.956
40344W        W11960  12.901  26.534  14.718
40345W        W11961   9.426  38.417   4.640
40346W        W11962  14.516   2.817  14.323
40347W        W11963  31.529   3.217  11.707
40348W        W11964  41.965  10.186   2.278
40349W        W11965  42.438  35.562   1.638
40350W        W11966  14.062  33.395   1.014
40351W        W11967  25.188  15.770   3.782
40352W        W11968  39.624   6.369   3.357
40353W        W11969  44.548  40.236  13.890
40354W        W11970  39.512   7.973   0.312
40355W        W11971  23.227  12.287   2.665
40356W        W11972   2.694  16.300  12.009
40357W        W11973  44.382  38.824   5.560
40358W        W11974  17.062  43.007  14.044
40359W        W11975  35.428  39.235   3.154
40360W        W11976   6.952   1.086   1.120
40361W        W11977  10.037  17.790  14.414
40362W        W11978   4.862  20.347   0.763
40363W        W11979  38.403   8.118  12.890
40364W        W11980  15.857   3.793   2.224
40365W        W11981   8.298  39.265  14.898
40366W        W11982   1.664  34.019   4.081
40367W        W11983  42.978   4.805   0.264
40368W        W11984  39.396  12.764  14.343
40369W        W11985  42.228  30.263  13.789
40370W        W11986   6.692  41.773  11.410
40371W        W11987  27.115  17.032  11.100
40372W        W11988   0.865  31.474   2.149
40373W        W11989  29.838   6.868  10.891
40374W        W11990  26.499  26.436   4.607
40375W        W11991  14.132  35.288   0.857
40376W        W11992  33.897  44.958  12.636
40377W        W11993  42.196  41.775   0.638
40378W        W11994   7.197  39.274   1.843
40379W        W11995  13.280  43.007  13.802
40380W        W11996   4.032  22.463  10.232
40381W        W11997   3.682  25.690   1.638
40382W        W11998  26.890  27.253   2.661
40383W        W11999  10.783  26.620   3.283
40384W        W12000  15.801  28.955  11.274
40385W        W12001  36.364   3.819   1.975
40386W        W12002  41.809   3.362   2.666
40387W        W12003  16.608  26.512   2.750
40388W        W12004  16.765   2.477  12.599
40389W        W12005  20.763  13.870  10.899
40390W        W12006  17.444  19.057  11.552
40391W        W12007  23.972  39.592   1.204
40392W        W12008  33.079   3.682   4.092
40393W        W12009  17.270   0.758   3.766
40394W        W12010  35.930  33.813  13.391
40395W        W12011   6.998  29.984  12.440
40396W        W12012  17.030   9.321   3.776
40397W        W12013  20.088   4.050   3.183
40398W        W12014  18.319  28.708  12.436
40399W        W12015  34.326  38.421   2.174
40400W        W12016  21.737  30.848   2.208
40401W        W12017  30.423  19.121   2.399
40402W        W12018  30.235  15.059   1.726
40403W        W12019   1.894  19.588   0.694
40404W        W12020  34.102  24.943   0.250
40405W        W12021  18.252  13.590  11.255
40406W        W12022  15.664   0.009   3.517
40407W        W12023  28.394  42.356  13.798
40408W        W12024  11.247  39.261  13.431
40409W        W12025  28.582  35.607   2.792
40410W        W12026  15.041  17.331  12.930
40411W        W12027  30.694  12.220  12.963
40412W        W12028  26.116  32.090   2.319
40413W        W12029  30.225   8.775   3.797
40414W        W12030   7.504   7.883  13.292
40415W        W12031  38.926  25.537   2.069
40416W        W12032   5.627  21.596  12.404
40417W        W12033  32.914  44.766  10.249
40418W        W12034  27.882   7.719   4.401
40419W        W12035  38.066  13.163  10.568
40420W        W12036  24.180  23.575   4.372
40421W        W12037  10.676  33.614   3.856
40422W        W12038  14.928   6.461  11.481
40423W        W12039   0.841  34.393   0.345
40424W        W12040  18.562  38.875   1.224
40425W        W12041  33.462  13.278   0.360
40426W        W12042  27.768  35.924  14.708
40427W        W12043   2.612  18.994   1.913
40428W        W12044  26.087  16.142  12.158
40429W        W12045  35.565  21.053  11.313
40430W        W12046  37.989  10.271   1.863
40431W        W12047  14.106   2.783   1.258
40432W        W12048  12.773  37.967   1.878
40433W        W12049  25.970  44.415  11.231
40434W        W12050  44.357  23.573   5.056
40435W        W12051  42.421  33.640   3.283
40436W        W12052  35.883  25.026   2.792
40437W        W12053  23.904  40.076   1.333
40438W        W12054  24.920  20.608  11.993
40439W        W12055  17.217  26.100   4.714
40440W        W12056  24.093  11.569  13.506
40441W        W12057  34.745  27.845   2.227
40442W        W12058  10.407  35.532   0.890
40443W        W12059  26.224   3.097  11.531
40444W        W12060  41.704  24.137  12.917
40445W        W12061  29.387  29.053  11.351
40446W        W12062  16.054   6.504   4.619
40447W        W12063   8.105  39.293  13.626
40448W        W12064  38.894  22.705  12.314
40449W        W12065  10.702  13.617   0.414
40450W        W12066  24.294  39.441   0.260
40451W        W12067  43.244   7.921  13.497
40452W        W12068  22.169  36.865  14.777
40453W        W12069   2.212   7.269   3.272
40454W        W12070  28.037  38.974   4.057
40455W        W12071  17.618   1.337   0.254
40456W        W12072  29.457  37.313   0.012
40457W        W12073  14.000   6.636   4.223
40458W        W12074  42.320  15.550   2.401
40459W        W12075   8.912  33.725  13.971
40460W        W12076  10.214  30.639   3.649
40461W        W12077  14.596  24.671  11.662
40462W        W12078  29.262  39.076  14.546
40463W        W12079  30.363  44.704  12.118
40464W        W12080  40.310   7.864   3.114
40465W        W12081  14.826  38.314   3.890
40466W        W12082  39.793  32.795  12.747
40467W        W12083   5.909   9.167   4.137
40468W        W12084  37.029   4.083   1.440
40469W        W12085   4.695  10.732  11.599
40470W        W12086  10.278  32.713   0.793
40471W        W12087  44.450   9.857  13.351
40472W        W12088  23.177  23.145   3.127
40473W        W12089  35.593  19.046  10.674
40474W        W12090  29.140  41.192  13.085
40475W        W12091   6.717  27.431   0.381
40476W        W12092   9.152   0.223   4.459
40477W        W12093  32.385  33.491  12.700
40478W        W12094   0.008   3.639   3.659
40479W        W12095  12.651   8.273  12.210
40480W        W12096  43.705  38.020   4.480
40481W        W12097  38.471  31.096   4.380
40482W        W12098  21.127  40.821   1.501
40483W        W12099  10.075   5.985  14.320
40484W        W12100  30.453  12.786  11.459
40485W        W12101  31.473  19.667  13.956
40486W        W12102  26.710  29.968   4.587
40487W        W12103  22.233  26.559   3.665
40488W        W12104  26.968  16.595  14.951
40489W        W12105   6.117  32.444   0.205
40490W        W12106  31.714  39.346   2.758
40491W        W12107  34.126  24.424   0.315
40492W        W12108   3.676  10.992   1.378
40493W        W12109  37.343   8.265  12.022
40494W        W12110  28.239  20.373   3.595
40495W        W12111   9.339  37.758   3.113
40496W        W12112  26.154   1.331  14.319
40497W        W12113  28.947  17.339  10.601
40498W        W12114   2.225  36.597  13.546
40499W        W12115   6.185  10.610  14.250
40500W        W12116  30.974  20.690  12.077
40501W        W12117   7.421  26.112  11.584
40502W        W12118   2.652   0.696  12.481
40503W        W12119  19.770  24.648  10.485
40504W        W12120  15.318  42.662  12.529
40505W        W12121  13.333  17.106  14.172
40506W        W12122   0.052  28.574   4.212
40507W        W12123  38.049  22.667   2.344
40508W        W12124  27.651   2.807   2.410
40509W        W12125  20.775  25.492  10.939
40510W        W12126  17.066  36.290   3.307
40511W        W12127  41.728  28.194   0.935
40512W        W12128   3.244  25.173   3.647
40513W        W12129  14.314  18.962   2.734
40514W        W12130  15.094   6.181   3.212
40515W        W12131  41.441  36.416  12.985
40516W        W12132  41.186   5.253   3.132
40517W        W12133  13.165  13.481   3.124
40518W        W12134  19.652  14.843   3.140
40519W        W12135  13.355  30.382  10.723
40520W        W12136  12.382  36.003   0.544
40521W        W12137   0.939   2.660  11.861
40522W        W12138  31.089  37.844  10.943
40523W        W12139   7.926  35.819   3.612
40524W        W12140   5.812   0.434   3.827
40525W        W12141   5.748  29.350   0.703
40526W        W12142  36.601  16.916   4.311
40527W        W12143  38.952  10.108   1.252
40528W        W12144  26.046   3.327  10.619
40529W        W12145  25.842  13.915  12.934
40530W        W12146   7.851   2.808  12.008
40531W        W12147  23.623   6.567  13.480
40532W        W12148  34.847  22.491   0.801
40533W        W12149  40.300  12.958   5.569
40534W        W12150  16.207  11.266   1.898
40535W        W12151   2.529  25.566   9.790
40536W        W12152   5.903  22.089   4.487
40537W        W12153  20.944  11.288  11.565
40538W        W12154  26.286  35.755   3.866
40539W        W12155   7.213  18.377  11.871
40540W        W12156  21.459   8.664   1.760
40541W        W12157  44.930   2.717   2.914
40542W        W12158  15.180  36.715   0.793
40543W        W12159  12.867   4.442  13.958
40544W        W12160  43.793  44.317  14.065
40545W        W12161   3.901  16.596  11.483
40546W        W12162  11.898  24.564  14.986
40547W        W12163  21.126   3.189   0.740
40548W        W12164  30.749  24.756  11.226
40549W        W12165  34.855   9.732  14.413
40550W        W12166  32.461  40.547  11.533
40551W        W12167   4.867  38.451  10.617
40552W        W12168  12.691  28.981  14.222
40553W        W12169  38.541  13.359  14.463
40554W        W12170  42.203   7.632  11.759
40555W        W12171  32.791  16.212   2.643
40556W        W12172   0.239  44.946  12.041
40557W        W12173  12.824   2.192  12.923
40558W        W12174  11.727   4.249   0.943
40559W        W12175  42.761  31.132  12.140
40560W        W12176  43.890  35.420   9.937
40561W        W12177  36.816  23.220  11.282
40562W        W12178  37.439  20.138   0.472
40563W        W12179  36.072   9.104   3.159
40564W        W12180  10.298  17.972  12.122
40565W        W12181  14.172   4.666   5.030
40566W        W12182   0.463   3.355   2.777
40567W        W12183  30.564  37.597   3.165
40568W        W12184   4.703  13.031   3.323
40569W        W12185  10.448  32.786  12.325
40570W        W12186  33.865  33.972  10.421
40571W        W12187   7.195  11.873  12.916
40572W        W12188  26.510   3.265   1.354
40573W        W12189  44.969   4.081  11.579
40574W        W12190  34.455  18.759   0.500
40575W        W12191   6.346  28.571  14.471
40576W        W12192   9.820   5.489  14.411
40577W        W12193  16.233  19.284   2.834
40578W        W12194   1.671   6.294   2.803
40579W        W12195  27.399  33.903   4.066
40580W        W12196  29.498  34.965  12.931
40581W        W12197   9.030  11.737  14.067
40582W        W12198   3.040  41.559  14.656
40583W        W12199   0.266  34.921   0.521
40584W        W12200  42.443   3.207   4.057
40585W        W12201   7.842  33.202   1.347
40586W        W12202  42.402  38.033  11.106
40587W        W12203  13.691  14.901   3.579
40588W        W12204  38.588  25.709   4.521
40589W        W12205  33.955  41.675   0.949
40590W        W12206  26.584  32.700  13.601
40591W        W12207  24.630   4.110   2.212
40592W        W12208  15.533  11.380  12.779
40593W        W12209   1.721  11.623   3.563
40594W        W12210  12.675  11.659   0.735
40595W        W12211  19.884  39.385   2.870
40596W        W12212  13.984  33.480   3.303
40597W        W12213  33.031  24.919   0.988
40598W        W12214   6.200   4.616   3.962
40599W        W12215  40.666   6.041   4.097
40600W        W12216  23.801   6.281  10.683
40601W        W12217  27.555  33.490   2.210
40602W        W12218  40.540  10.769   1.789
40603W        W12219  41.840  18.456  12.609
40604W        W12220  30.257  30.220   1.705
40605W        W12221  30.872  38.047   3.811
40606W        W12222  28.400  39.861  14.884
40607W        W12223  19.342  39.844  13.026
40608W        W12224  37.420  19.568   1.196
40609W        W12225  44.838  13.880   4.469
40610W        W12226  31.903  35.136  12.409
40611W        W12227   5.238   0.663   4.607
40612W        W12228  11.821  44.655  11.944
40613W        W12229  38.912  14.660  11.141
40614W        W12230   5.858  33.944   2.859
40615W        W12231   2.904  32.443  12.681
40616W        W12232  17.729  35.142   0.833
40617W        W12233   0.506  17.651   3.685
40618W        W12234  41.387  11.544  10.627
40619W        W12235  21.636  22.452  11.082
40620W        W12236  29.517  31.086  11.930
40621W        W12237  27.198   3.918   3.005
40622W        W12238  21.183  10.892  12.545
40623W        W12239  43.964  18.239  13.971
40624W        W12240   1.005  44.459  12.059
40625W        W12241  36.440  36.312   0.323
40626W        W12242  12.226   5.953  11.169
40627W        W12243  42.813  37.334  13.955
40628W        W12244  10.521  38.504   0.327
40629W        W12245   2.450  16.348   4.067
40630W        W12246  30.480  11.336   4.036
40631W        W12247  17.480   5.218   1.929
40632W        W12248  42.376  25.618   0.513
40633W        W12249  30.993  13.638   3.903
40634W        W12250   4.477  14.794  12.587
40635W        W12251   8.359  21.516  13.076
40636W        W12252  12.774  14.024   3.854
40637W        W12253   7.172  25.963   1.657
40638W        W12254   8.899   1.727   2.857
40639W        W12255  37.897  24.328  13.597
40640W        W12256  24.220  31.661   4.113
40641W        W12257  27.323   8.972  14.420
40642W        W12258  34.373  36.795  11.477
40643W        W12259   6.410  34.375   4.537
40644W        W12260   9.643  44.966   3.693
40645W        W12261  40.573  33.143  11.439
40646W        W12262  35.395   2.896  12.382
40647W        W12263   4.868  22.726  14.093
40648W        W12264  12.430  40.799   3.342
40649W        W12265  21.062  41.925  11.080
40650W        W12266  40.398  27.363  14.856
40651W        W12267  14.159  21.608  13.845
40652W        W12268   1.970  32.489   4.312
40653W        W12269  25.587  23.490  12.877
40654W        W12270   7.897  15.073  13.574
40655W        W12271  42.554  17.159  10.708
40656W        W12272  18.019  14.582   3.732
40657W        W12273   1.899  37.546   1.263
40658W        W12274   7.945   3.864  13.919
40659W        W12275  34.618  27.667  14.010
40660W        W12276  38.611  42.430   5.011
40661W        W12277  36.762   5.752   2.829
40662W        W12278   3.965  39.278  13.546
40663W        W12279  40.202  12.627  14.229
40664W        W12280  34.321   2.787  12.631
40665W        W12281  29.828  22.651  13.024
40666W        W12282  34.083  23.683  12.053
40667W        W12283  24.875  10.262  12.419
40668W        W12284  17.648  12.506  12.638
40669W        W12285  27.520  29.400   4.610
40670W        W12286  42.922   3.254   2.302
40671W        W12287  23.525  42.457   3.446
40672W        W12288   2.891  15.234  11.976
40673W        W12289  23.197  19.060  11.435
40674W        W12290  38.528  18.075  13.473
40675W        W12291  20.556  37.948  14.387
40676W        W12292  40.448  19.668  14.622
40677W        W12293  16.814  10.267  11.167
40678W        W12294  29.542  31.999   3.167
40679W        W12295  20.501  39.284  13.326
40680W        W12296  22.976  22.672   1.903
40681W        W12297  27.503   5.154  14.405
40682W        W12298   3.480  43.364  10.274
40683W        W12299   8.185  22.081  10.568
40684W        W12300  34.483  27.593  11.494
40685W        W12301  24.657  21.636  10.675
40686W        W12302  31.136   3.715   3.951
40687W        W12303  17.857  27.244   0.391
40688W        W12304   3.771   4.801   4.413
40689W        W12305   2.246  33.939   2.771
40690W        W12306  11.210  34.794   2.375
40691W        W12307  21.287  44.391   4.335
40692W        W12308  21.123  40.814  10.607
40693W        W12309  23.292  37.991   2.724
40694W        W12310  43.477  22.512  10.323
40695W        W12311  39.107  37.863  12.051
40696W        W12312  24.369  40.183   4.225
40697W        W12313  19.164   5.330  14.539
40698W        W12314  39.573  24.100   1.872
40699W        W12315  43.469  39.496   5.044
40700W        W12316  43.879  12.305  11.552
40701W        W12317  19.612  21.057  13.348
40702W        W12318  24.480  36.389   0.243
40703W        W12319   2.421  10.838   1.772
40704W        W12320  44.839  42.915  12.668
40705W        W12321  33.509  40.590  12.010
40706W        W12322   2.029  29.385   2.834
40707W        W12323  39.355  14.272  10.770
40708W        W12324  44.708  28.506   3.257
40709W        W12325   6.145  42.536  13.371
40710W        W12326   7.194  14.946  11.654
40711W        W12327  30.634   0.997  13.515
40712W        W12328  15.843   8.607   5.064
40713W        W12329  25.183   6.144   1.289
40714W        W12330   0.796  23.776  10.996
40715W        W12331  20.713  16.361   2.403
40716W        W12332  34.156  11.794  14.565
40717W        W12333  28.541  26.718   0.304
40718W        W12334  14.777  18.978   5.036
40719W        W12335   8.618  14.767  11.583
40720W        W12336  43.242   9.781   1.950
40721W        W12337   9.356   8.247   0.502
40722W        W12338  16.428  20.628   4.608
40723W        W12339  23.503  15.950   0.877
40724W        W12340   0.998  11.185  11.224
40725W        W12341   9.667  40.058  14.819
40726W        W12342  41.558  33.265   0.306
40727W        W12343  43.426  14.323  10.249
40728W        W12344  26.471  37.672  13.473
40729W        W12345   4.281  20.192  14.553
40730W        W12346  32.901  27.428   2.854
40731W        W12347   2.542  25.803   4.983
40732W        W12348   7.365   7.643   4.637
40733W        W12349  33.070  27.655  13.148
40734W        W12350  41.781  23.084   0.924
40735W        W12351   5.362  42.768  14.943
40736W        W12352  36.890  23.009  14.426
40737W        W12353   9.281  41.151  11.728
40738W        W12354  13.113   8.717   0.706
40739W        W12355  42.403  22.393   4.146
40740W        W12356   2.243  40.949  13.598
40741W        W12357  22.728  24.954  11.151
40742W        W12358  13.425   5.801   5.054
40743W        W12359   1.525  31.760   2.102
40744W        W12360  41.002  15.192  14.702
40745W        W12361  19.753  29.096  14.501
40746W        W12362  14.723  11.683   1.941
40747W        W12363  25.632  25.041   1.302
40748W        W12364  40.936  43.213  14.238
40749W        W12365  38.599  12.935  10.216
40750W        W12366   6.195   6.522   3.283
40751W        W12367  28.668  32.073  13.370
40752W        W12368  23.190  16.125  11.547
40753W        W12369  41.504  10.720   4.354
40754W        W12370  13.878  43.419  12.987
40755W        W12371  12.384   7.406   0.795
40756W        W12372  16.457   9.136   3.402
40757W        W12373  23.210   8.199  12.044
40758W        W12374  16.554  43.601   5.125
40759W        W12375  27.648   3.202  10.660
40760W        W12376  29.655  42.842  14.228
40761W        W12377  35.651  17.158  13.369
40762W        W12378  12.366  18.157   4.118
40763W        W12379   8.244  30.083   0.249
40764W        W12380  41.139  22.748   3.245
40765W        W12381   6.421   0.882  13.925
40766W        W12382   4.733  18.085  13.902
40767W        W12383  36.407  15.622  10.194
40768W        W12384  14.122   9.271  12.806
40769W        W12385  38.088   1.511   4.177
40770W        W12386  39.186  32.816  11.244
40771W        W12387   7.459  41.571  13.336
40772W        W12388  30.076  30.476  13.813
40773W        W12389  16.551   9.726  10.850
40774W        W12390   8.278  20.873  12.389
40775W        W12391   4.658  43.294   2.391
40776W        W12392  19.721  12.254  14.483
40777W        W12393  16.048  12.432  12.372
40778W        W12394   9.168   0.825   0.743
40779W        W12395  35.552   3.863  14.970
40780W        W12396  10.365  44.376   4.773
40781W        W12397  41.813   7.369   2.745
40782W        W12398  35.270  40.242   3.174
40783W        W12399  35.153   3.203  10.240
40784W        W12400  36.391  22.056   2.121
40785W        W12401  29.683  33.581   2.325
40786W        W12402  24.181  25.522  12.408
40787W        W12403  23.239   5.352  14.809
40788W        W12404  15.237  21.147  10.966
40789W        W12405  36.516  18.576   0.766
40790W        W12406   2.493  36.411  12.595
40791W        W12407  38.832  43.924  11.125
40792W        W12408  29.916  40.399  11.310
40793W        W12409  43.693   8.217  13.363
40794W        W12410  22.803   0.510   0.931
40795W        W12411  37.316   2.483  14.470
40796W        W12412  44.281  32.304   1.891
40797W        W12413  18.193  28.624   4.535
40798W        W12414  12.138  17.665  14.414
40799W        W12415  33.046   8.747   0.951
40800W        W12416  21.485  34.759   2.569
40801W        W12417  24.274   1.766   1.578
40802W        W12418   5.756  36.900   0.342
40803W        W12419  13.786   0.718   3.245
40804W        W12420  30.468  22.361   0.964
40805W        W12421  42.612  24.804  11.126
40806W        W12422  43.503  22.831   1.320
40807W        W12423  33.079  17.056   4.843
40808W        W12424  16.163   6.450  10.509
40809W        W12425   3.265  21.963   2.435
40810W        W12426  37.777  22.809  10.123
40811W        W12427  23.136  31.708   4.883
40812W        W12428  11.099  10.095   3.645
40813W        W12429   7.437   9.782   0.372
40814W        W12430  21.497   0.075  14.023
40815W        W12431  12.808  12.506  13.512
40816W        W12432  44.995  41.722  11.492
40817W        W12433  18.684  29.696   0.847
40818W        W12434  10.087   6.792   2.399
40819W        W12435  20.289  33.065   5.005
40820W        W12436  13.845  44.224   2.365
40821W        W12437  17.573  31.610  13.942
40822W        W12438  23.676  32.400  14.503
40823W        W12439   3.030  38.062  12.524
40824W        W12440  35.380  25.091   1.123
40825W        W12441   8.935   4.340  11.585
40826W        W12442  18.292  19.524   3.547
40827W        W12443  32.101   9.409   4.218
40828W        W12444  28.178   3.842   2.883
40829W        W12445   3.631  28.156  14.115
40830W        W12446  31.515  10.257  10.788
40831W        W12447  24.564  31.896  13.154
40832W        W12448  11.904  10.779  13.895
40833W        W12449   7.323  20.711   2.144
40834W        W12450  23.858  16.902   4.954
40835W        W12451  26.598   1.809  10.741
40836W        W12452  41.907  43.470   0.989
40837W        W12453   4.393  31.299  14.606
40838W        W12454   3.879  43.531  12.562
40839W        W12455   6.102   0.113   4.632
40840W        W12456  36.429   5.889  11.179
40841W        W12457  12.626  16.241  11.912
40842W        W12458  32.406  14.130  13.381
40843W        W12459  36.744  25.475  13.821
40844W        W12460  26.149  44.986   0.497
40845W        W12461  16.626   7.559   4.087
40846W        W12462  33.305  24.244   1.976
40847W        W12463   4.514   6.230  12.426
40848W        W12464   0.561  19.527   3.304
40849W        W12465  13.349  20.428   2.360
40850W        W12466  34.933  12.634   2.137
40851W        W12467  15.810  43.360  14.736
40852W        W12468  15.133  12.457   1.884
40853W        W12469  38.228  37.949   1.807
40854W        W12470  32.612  37.891   0.959
40855W        W12471  21.804  21.123   2.802
40856W        W12472  38.926  15.209  13.998
40857W        W12473  12.064  15.492  12.991
40858W        W12474  24.191  41.058  14.750
40859W        W12475  41.645  22.160  10.366
40860W        W12476   3.243  24.008  11.867
40861W        W12477  43.718  21.748  14.616
40862W        W12478  39.526   6.710  11.829
40863W        W12479   0.610   0.995   1.802
40864W        W12480  17.518  32.616  13.047
40865W        W12481   3.991  37.258   4.239
40866W        W12482  21.125  11.141  14.009
40867W        W12483   3.470  28.692   4.342
40868W        W12484  44.036  42.823   0.000
40869W        W12485   9.152  44.199   1.337
40870W        W12486  23.665  12.302  10.951
40871W        W12487  40.788  13.355   0.033
40872W        W12488  41.130   8.333   0.889
40873W        W12489  39.299  16.349  14.827
40874W        W12490  22.951  13.240  14.502
40875W        W12491  18.090  13.912  11.649
40876W        W12492  26.179  37.909  14.052
40877W        W12493   6.793  30.880  13.511
40878W        W12494  16.205  44.846   1.898
40879W        W12495  37.352  42.448  14.998
40880W        W12496  15.044   2.364   3.856
40881W        W12497  34.788   5.642  13.870
40882W        W12498   5.884  38.356  14.392
40883W        W12499  25.815  18.615  13.844
40884W        W12500  17.970  36.937   4.678
40885W        W12501   9.959  31.628   2.179
40886W        W12502  18.364  39.499   2.800
40887W        W12503  29.733  41.737  12.333
40888W        W12504  30.197   6.384  14.823
40889W        W12505  13.882  21.255  14.937
40890W        W12506  16.124  18.262   0.029
40891W        W12507  40.807  12.326  14.085
40892W        W12508  13.745   3.362  14.031
40893W        W12509  34.307  42.003   3.159
40894W        W12510  34.119  39.707   2.711
40895W        W12511   9.697  31.181   4.636
40896W        W12512  29.211  28.023  11.132
40897W        W12513  32.970  32.643  12.877
40898W        W12514  39.751  25.287   2.426
40899W        W12515  15.745  20.822  12.593
40900W        W12516   4.409  27.419  13.132
40901W        W12517   3.519  22.225  13.887
40902W        W12518  35.460   7.397   0.733
40903W        W12519  21.739  17.312   4.381
40904W        W12520  32.300   7.189  12.476
40905W        W12521  25.902  37.876  10.986
40906W        W12522   0.873  12.029  11.523
40907W        W12523  37.766  44.864   1.763
40908W        W12524  27.122  39.569   4.066
40909W        W12525  27.763  13.693   4.556
40910W        W12526  18.628  31.640  12.982
40911W        W12527   3.289  12.664   0.815
40912W        W12528  13.317   1.450   3.652
40913W        W12529  23.205  23.502   3.560
40914W        W12530  14.542   4.144  11.886
40915W        W12531   1.732  32.464   3.788
40916W        W12532   5.095   3.003   0.458
40917W        W12533  25.128  37.396  13.379
40918W        W12534  24.646  12.391  13.250
40919W        W12535  10.785  13.325  13.427
40920W        W12536  29.622  42.845  12.089
40921W        W12537  41.289  13.887   3.757
40922W        W12538   6.806  15.104  14.474
40923W        W12539   7.427   8.245   2.751
40924W        W12540  38.578  35.794   4.764
40925W        W12541   2.131  14.250   1.622
40926W        W12542  12.141  24.521   2.286
40927W        W12543   2.000  34.975  11.002
40928W        W12544  16.335  18.097  10.549
40929W        W12545  30.484   6.011   2.903
40930W        W12546   9.747  19.238  12.559
40931W        W12547  30.367  21.299   3.740
40932W        W12548  21.381  17.613  13.283
40933W        W12549  43.354  13.180  11.571
40934W        W12550  14.377  10.074  11.213
40935W        W12551  10.192  38.382   1.666
40936W        W12552  24.015  15.716  11.153
40937W        W12553   4.032  39.854   1.362
40938W        W12554  28.853   9.969   4.360
40939W        W12555  29.058  10.276  13.864
40940W        W12556  41.866  22.630   1.432
40941W        W12557  40.972   2.692   0.242
40942W        W12558   0.406  41.812   0.194
40943W        W12559  24.708  28.056   0.816
40944W        W12560   5.846  27.589   2.276
40945W        W12561  31.676   0.206   3.335
40946W        W12562  21.476  19.541  11.547
40947W        W12563  20.135   6.205  13.879
40948W        W12564  31.642  40.166   2.277
40949W        W12565  21.739  30.377  13.442
40950W        W12566  32.134   7.637   5.010
40951W        W12567  16.340  25.148   5.159
40952W        W12568   8.702  41.513  13.868
40953W        W12569  13.693   9.228  13.067
40954W        W12570  13.595  22.535  11.710
40955W        W12571   7.514  24.867   1.742
40956W        W12572  18.228  29.909  14.613
40957W        W12573  44.766  32.823  11.325
40958W        W12574   3.856  44.506   4.469
40959W        W12575  31.012   1.239  12.003
40960W        W12576  32.390  37.774  13.018
40961W        W12577   1.543  40.017  10.473
40962W        W12578  38.955  19.569   2.372
40963W        W12579  10.869  36.732  13.457
40964W        W12580  20.109  18.554   4.536
40965W        W12581  16.512  43.057  14.000
40966W        W12582   3.535  33.272  14.781
40967W        W12583  41.811   6.933   4.313
40968W        W12584   4.144  19.260   1.603
40969W        W12585  26.115  28.927   1.410
40970W        W12586   8.856  18.296   2.802
40971W        W12587  20.508   2.684  13.888
40972W        W12588  19.952  12.153  12.966
40973W        W12589   4.239  24.353  10.110
40974W        W12590   5.492  22.968  14.038
40975W        W12591  38.987  39.635  14.732
40976W        W12592  44.823  15.910  13.380
40977W        W12593  33.400  24.502   0.953
40978W        W12594  17.573  12.642   4.745
40979W        W12595  35.767   5.276   0.843
40980W        W12596  18.068  27.426  12.081
40981W        W12597  23.902   1.822   0.508
40982W        W12598  13.917   4.926   3.695
40983W        W12599  39.410  21.113   1.669
40984W        W12600   8.443  42.194  11.639
40985W        W12601  20.794  10.824  12.988
40986W        W12602   2.995   0.417  14.088
40987W        W12603   9.164  22.561  14.935
40988W        W12604  29.934  33.396   1.114
40989W        W12605  31.545  38.459  10.463
40990W        W12606  34.432  39.351   1.245
40991W        W12607  38.055   8.215  14.035
40992W        W12608  22.758  44.555  12.498
40993W        W12609  39.077  35.736   5.002
40994W        W12610  19.545  22.642   5.028
40995W        W12611   8.725  27.478  14.382
40996W        W12612  35.609  13.745   0.387
40997W        W12613  20.150  44.737  14.741
40998W        W12614  25.665  36.860   4.106
40999W        W12615  40.718   4.168  13.508
41000W        W12616  36.892  27.669  14.890
41001W        W12617  10.058  38.495   0.015
41002W        W12618  40.635  21.113  11.508
41003W        W12619  15.288  43.004  12.124
41004W        W12620  34.554  15.652   2.222
41005W        W12621  43.436  22.674   0.023
41006W        W12622  31.218  17.004   0.472
41007W        W12623  35.065  18.300   4.550
41008W        W12624  25.005  24.974  10.630
41009W        W12625  23.180  38.024   4.121
41010W        W12626   2.430   1.940  14.998
41011W        W12627  40.491  19.756   1.969
41012W        W12628   1.499  44.331  12.041
41013W        W12629   9.062  17.566  14.271
41014W        W12630  14.036  31.004  10.656
41015W        W12631  28.234   7.806   4.047
41016W        W12632   0.819  23.996   4.434
41017W        W12633   6.874  42.763   3.335
41018W        W12634  27.719  19.444   1.254
41019W        W12635  14.925  20.784  12.044
41020W        W12636  36.683   6.964   0.321
41021W        W12637  20.821  30.396   2.413
41022W        W12638  44.923  13.250   4.173
41023W        W12639  39.505   5.205  13.243
41024W        W12640  17.243  41.795  13.020
41025W        W12641   8.618  31.562   4.048
41026W        W12642  26.437   6.128   0.211
41027W        W12643  21.131   3.919   4.942
41028W        W12644  12.205  40.001  13.057
41029W        W12645  27.624   2.256   0.343
41030W        W12646  33.469  29.452   3.241
41031W        W12647  43.791   6.168  14.503
41032W        W12648   8.283   1.884   4.827
41033W        W12649  35.742   8.344  13.582
41034W        W12650  26.340   3.744   1.424
41035W        W12651  15.199   9.811   4.042
41036W        W12652  40.035  31.233  13.812
41037W        W12653  38.451   6.776   3.059
41038W        W12654  39.260  20.094   1.853
41039W        W12655  27.904  43.418  14.492
41040W        W12656  26.319  15.724   2.297
41041W        W12657   7.930  15.596  12.067
41042W        W12658  32.827  17.012   1.519
41043W        W12659  43.915  14.334   3.427
41044W        W12660  27.704  23.927   2.378
41045W        W12661  32.711  27.945   3.664
41046W        W12662  18.373  31.149  12.994
41047W        W12663   7.600  37.176  12.876
41048W        W12664  43.827   3.601  13.488
41049W        W12665  20.370  19.674  11.059
41050W        W12666  35.752  38.486   3.792
41051W        W12667  30.677   0.750   2.299
41052W        W12668  25.262   7.657  13.380
41053W        W12669   4.200  11.281   2.829
41054W        W12670  44.936  43.811   1.224
41055W        W12671  28.054  33.922   2.905
41056W        W12672  25.170   2.011   4.392
41057W        W12673  28.491  17.908  12.939
41058W        W12674  37.325  14.811   4.542
41059W        W12675   4.823  11.848  10.689
41060W        W12676  42.942  35.092   3.241
41061W        W12677  38.284   2.217  14.146
41062W        W12678  34.774  17.428  14.515
41063W        W12679  16.829  28.108   0.555
41064W        W12680   7.208   3.192   1.901
41065W        W12681  21.178  18.746  14.424
41066W        W12682   8.028   8.384  11.280
41067W        W12683  20.732  38.486   4.148
41068W        W12684  36.918  14.115  13.960
41069W        W12685   2.886  37.965  11.194
41070W        W12686   7.447   6.770   2.872
41071W        W12687  15.272   3.005  14.014
41072W        W12688  31.633  33.405   2.846
41073W        W12689  27.411  25.243  11.135
41074W        W12690  35.275   4.434   2.735
41075W        W12691  35.292  11.691   4.879
41076W        W12692  36.605  19.732  11.548
41077W        W12693   0.464  41.453  10.704
41078W        W12694  24.217   9.530   3.701
41079W        W12695  18.694  26.645   1.929
41080W        W12696   1.685  13.147   0.459
41081W        W12697  12.693  25.029  11.167
41082W        W12698  21.202  30.400  14.012
41083W        W12699  22.212  15.577   4.245
41084W        W12700  41.595  25.454  14.089
41085W        W12701  11.633  10.831  10.910
41086W        W12702  41.927  14.207   4.307
41087W        W12703  37.971   2.858   4.515
41088W        W12704  25.997  20.572  14.953
41089W        W12705   9.123  11.334   3.110
41090W        W12706  35.843   2.693  11.012
41091W        W12707  23.060  20.065  13.645
41092W        W12708  15.250  31.004   1.024
41093W        W12709  19.353   6.987  11.098
41094W        W12710  41.103  36.050   2.176
41095W        W12711  20.625  18.052   4.151
41096W        W12712  43.001  43.761  12.550
41097W        W12713   4.691   9.912  13.495
41098W        W12714  28.956  22.939   4.149
41099W        W12715   2.307  16.137   1.217
41100W        W12716   9.723  42.307   3.328
41101W        W12717  15.246  38.743   0.048
41102W        W12718  18.655  30.688  10.430
41103W        W12719  30.394  22.785  11.610
41104W        W12720  12.710  14.773   0.792
41105W        W12721  26.977   2.549   2.223
41106W        W12722   8.734  24.941   0.910
41107W        W12723  36.004  24.501   2.051
41108W        W12724   3.320  28.226  11.501
41109W        W12725  14.335  28.410  14.695
41110W        W12726  44.383  14.893   4.610
41111W        W12727  29.356  40.128   4.767
41112W        W12728  35.408  30.262  11.915
41113W        W12729  25.111   6.918   1.889
41114W        W12730  38.879  13.545   3.675
41115W        W12731  16.707  34.604   2.190
41116W        W12732  41.454  19.061  13.769
41117W        W12733  28.633  27.200  14.438
41118W        W12734  28.542   5.829   2.426
41119W        W12735  44.379   0.414   2.857
41120W        W12736  32.507   9.934  14.982
41121W        W12737  42.322  29.398   1.342
41122W        W12738   9.721  14.738  12.195
41123W        W12739  13.355  37.582   3.251
41124W        W12740   5.930  20.859  13.956
41125W        W12741  16.345   7.538   4.921
41126W        W12742  38.916  35.584  12.952
41127W        W12743  32.825  34.167  12.039
41128W        W12744  20.278  10.150   4.691
41129W        W12745  11.894   2.606   1.255
41130W        W12746   2.484   7.164   2.845
41131W        W12747  33.336  17.023  11.121
41132W        W12748  12.904  33.597   0.277
41133W        W12749   3.751   2.648   3.392
41134W        W12750  34.579  39.499  12.974
41135W        W12751   9.239   0.236   3.950
41136W        W12752  28.200  33.211  12.572
41137W        W12753  30.846   3.831  14.025
41138W        W12754  32.456  20.899   3.839
41139W        W12755  32.058   6.640  11.087
41140W        W12756  40.027  25.569  13.415
41141W        W12757  20.484  25.956  13.140
41142W        W12758   8.471  35.057  13.899
41143W        W12759  40.499  17.556   3.939
41144W        W12760  39.808   8.389  11.193
41145W        W12761  40.187  36.565   4.166
41146W        W12762  20.354  23.462   3.374
41147W        W12763  29.642  44.877   2.375
41148W        W12764  25.096  37.318   4.931
41149W        W12765  26.079  16.169   1.242
41150W        W12766  17.667  10.135   1.743
41151W        W12767  12.421  34.656  13.446
41152W        W12768  41.782  12.261   1.328
41153W        W12769  25.918  27.462   0.453
41154W        W12770  10.377  38.608  10.986
41155W        W12771  13.628  29.915  10.670
41156W        W12772  17.699   1.711  11.546
41157W        W12773  38.941  22.007  12.955
41158W        W12774  43.113  10.362  13.387
41159W        W12775  18.366  29.505  12.606
41160W        W12776  12.540   3.745  10.417
41161W        W12777  31.887  42.601  13.850
41162W        W12778   9.232  31.337  11.858
41163W        W12779  22.620   2.864   3.633
41164W        W12780  34.030  14.354  13.899
41165W        W12781  39.190  44.747  12.836
41166W        W12782   8.130   6.052   4.111
41167W        W12783  38.250  44.373   3.634
41168W        W12784   8.617  38.995   0.854
41169W        W12785  15.046  15.236   9.744
41170W        W12786  30.898  31.057   9.848
41171W        W12787  19.073   0.835  10.728
41172W        W12788  38.496  20.368   4.067
41173W        W12789  34.468   3.391  12.835
41174W        W12790  42.029  24.418   1.793
41175W        W12791  35.823  33.988  12.911
41176W        W12792  34.539  29.081   4.584
41177W        W12793   0.071  19.212   3.530
41178W        W12794  34.848  32.422  14.245
41179W        W12795  11.123  28.002   2.875
41180W        W12796   7.156   1.866   1.461
41181W        W12797   0.117   0.857   1.709
41182W        W12798   4.189   2.739  13.086
41183W        W12799  22.238  17.128   1.732
41184W        W12800   4.273  23.290  13.247
41185W        W12801  30.198   8.601  11.913
41186W        W12802   9.890   0.848  11.640
41187W        W12803  36.364  16.316   1.234
41188W        W12804  27.544  17.064  14.422
41189W        W12805  19.902  20.010  12.286
41190W        W12806   0.695   6.275  14.925
41191W        W12807  15.383  41.002  11.124
41192W        W12808  43.058  40.088   1.399
41193W        W12809  36.111  43.054  11.044
41194W        W12810  36.524  14.184   0.921
41195W        W12811  22.298   8.537  14.945
41196W        W12812  10.111  15.717   1.239
41197W        W12813  42.744  44.476   3.354
41198W        W12814  36.952  42.223  11.336
41199W        W12815   2.168  42.930   2.989
41200W        W12816  36.902  40.620   2.970
41201W        W12817  42.412  36.518  14.191
41202W        W12818  37.942  40.546   2.299
41203W        W12819  37.423  35.855  14.088
41204W        W12820  10.794   5.771   1.668
41205W        W12821  18.341  31.031  12.086
41206W        W12822  38.571  42.820   3.058
41207W        W12823  18.071  15.077   0.492
41208W        W12824  16.200  22.608   0.377
41209W        W12825   7.433  14.892   2.287
41210W        W12826  32.822  28.435  13.825
41211W        W12827   2.755  14.658   0.918
41212W        W12828  22.339  26.649  12.100
41213W        W12829   6.400  19.623   3.747
41214W        W12830  35.434  27.495  13.452
41215W        W12831  36.446  26.904  14.832
41216W        W12832  18.700  12.428  10.798
41217W        W12833  11.235  16.778   0.503
41218W        W12834  44.403   5.098   5.045
41219W        W12835  10.848  20.433   0.903
41220W        W12836   0.885   0.811  11.567
41221W        W12837  39.823  26.155   3.931
41222W        W12838  15.427  37.011   0.001
41223W        W12839  31.488  11.889   1.752
41224W        W12840  23.144  25.718   1.468
41225W        W12841   0.228  15.776   1.907
41226W        W12842  29.306  13.738   1.586
41227W        W12843  29.400   3.369  13.469
41228W        W12844  43.410  26.999  11.017
41229W        W12845   2.222  27.644   2.798
41230W        W12846  21.104   6.730  12.940
41231W        W12847  44.712  31.816   1.346
41232W        W12848  25.178  14.339  13.329
41233W        W12849  22.004  30.038   1.822
41234W        W12850  32.117   8.467   0.855
41235W        W12851  20.586  25.572   1.679
41236W        W12852  18.808  22.724   1.922
41237W        W12853  37.493  27.691  12.532
41238W        W12854  19.201  19.015   2.617
41239W        W12855  29.506  17.141   4.135
41240W        W12856  43.330  15.658  14.803
41241W        W12857   2.665  26.043   4.100
41242W        W12858   7.058   2.225  13.452
41243W        W12859  18.309  41.461   0.818
41244W        W12860  26.990  17.188   2.347
41245W        W12861  44.262   4.497  14.194
41246W        W12862  20.535  16.162  10.429
41247W        W12863  11.196   7.649  10.630
41248W        W12864  11.057  21.548   0.253
41249W        W12865  29.515  20.250  14.425
41250W        W12866  18.073  40.831   0.982
41251W        W12867  14.339  20.195  12.364
41252W        W12868  44.553   2.778  13.305
41253W        W12869   2.487  30.215   4.943
41254W        W12870  35.071  25.397   1.373
41255W        W12871  12.535  14.333   4.237
41256W        W12872  13.428   7.436  12.069
41257W        W12873  40.467   1.012  11.515
41258W        W12874  38.335   1.423  13.395
41259W        W12875  42.960  14.330   0.912
41260W        W12876   9.254  19.112  10.965
41261W        W12877  30.943  41.001  11.689
41262W        W12878  41.615   1.782   3.498
41263W        W12879  36.482  40.535  12.983
41264W        W12880  24.996  27.082   0.258
41265W        W12881   4.521  20.708  10.468
41266W        W12882   5.804  39.052   0.028
41267W        W12883  36.212  35.842  11.323
41268W        W12884   6.194  24.720  12.799
41269W        W12885  24.570  10.471  13.608
41270W        W12886  10.856  34.059   1.859
41271W        W12887  40.573  12.243   4.033
41272W        W12888   2.845  23.057  14.004
41273W        W12889  30.606  22.330   2.172
41274W        W12890  16.872   0.254  12.498
41275W        W12891  22.519  27.686  13.626
41276W        W12892  33.103  40.303  13.489
41277W        W12893  17.781  27.571  12.897
41278W        W12894  31.490  43.715   2.480
41279W        W12895  44.849  29.920   2.863
41280W        W12896  41.443  13.021   4.123
41281W        W12897  27.589  36.550   0.978
41282W        W12898  43.002  28.048  10.474
41283W        W12899   6.249   0.261   1.908
41284W        W12900  35.633   7.374  12.497
41285W        W12901   7.421  36.682   4.298
41286W        W12902   2.326  27.146   1.204
41287W        W12903  42.821  29.171  13.962
41288W        W12904  33.417  31.195  12.156
41289W        W12905  21.308   6.713  11.347
41290W        W12906  41.764  38.363  13.257
41291W        W12907  43.322  21.410   2.721
41292W        W12908  40.353  40.889   4.183
41293W        W12909  39.756  27.634  12.972
41294W        W12910  15.254   7.630  13.847
41295W        W12911  21.147  43.070  12.112
41296W        W12912  14.760  22.734  13.024
41297W        W12913   0.314  38.885   2.545
41298W        W12914  23.669  31.293   1.760
41299W        W12915  39.731  11.873   4.180
41300W        W12916  10.297  29.200   4.517
41301W        W12917  39.795  11.718   0.077
41302W        W12918  10.276  24.424   2.392
41303W        W12919  13.780  15.279  13.815
41304W        W12920  24.600  14.326   2.234
41305W        W12921  20.094  43.315  10.214
41306W        W12922  29.772  35.888  13.542
41307W        W12923  27.070  43.824  11.554
41308W        W12924   6.834  20.172   1.977
41309W        W12925  24.682   2.718   3.255
41310W        W12926   7.199  41.854   1.227
41311W        W12927  15.761  39.239   0.151
41312W        W12928  12.894   1.836   1.402
41313W        W12929  38.268   5.879   4.436
41314W        W12930   9.031   1.281   4.536
41315W        W12931  24.074  33.678  13.904
41316W        W12932  34.531  42.553   1.711
41317W        W12933  19.896  34.678   2.842
41318W        W12934  42.307  38.237  10.632
41319W        W12935  39.579   3.203   1.237
41320W        W12936  33.495  21.428  12.009
41321W        W12937  35.931   2.944   1.792
41322W        W12938   3.963  43.493   1.868
41323W        W12939   0.887   8.191   3.789
41324W        W12940  15.362  39.043   1.474
41325W        W12941  35.322  33.598  12.576
41326W        W12942  34.079  29.919   2.770
41327W        W12943  42.140   0.026  14.234
41328W        W12944  28.776   4.885   1.429
41329W        W12945  17.330   3.180  10.586
41330W        W12946  16.976  16.112   0.744
41331W        W12947  21.605  40.510  13.946
41332W        W12948  18.145  35.457  13.825
41333W        W12949  26.156  27.076   3.654
41334W        W12950  14.360   9.338  10.756
41335W        W12951  29.787  26.964   3.967
41336W        W12952  22.697  42.436   0.489
41337W        W12953  27.684  26.679   4.466
41338W        W12954  43.565  12.265   0.443
41339W        W12955   8.334  17.279   1.918
41340W        W12956  18.820   2.498  13.363
41341W        W12957  39.403  23.452  12.676
41342W        W12958  12.798  41.111  12.119
41343W        W12959  37.472  29.061  11.075
41344W        W12960  43.374  38.934   1.706
41345W        W12961   9.820  10.187   2.390
41346W        W12962   7.228   2.317  11.777
41347W        W12963  33.107   3.392  13.521
41348W        W12964  39.609  10.147  14.647
41349W        W12965   0.963  22.504   4.529
41350W        W12966  19.624  21.103  10.699
41351W        W12967  37.395  37.600   0.707
41352W        W12968  13.792  44.706   4.510
41353W        W12969  24.499  39.937   0.350
41354W        W12970   6.385  20.777   0.532
41355W        W12971   0.980   1.343   1.655
41356W        W12972  16.713  37.558  13.988
41357W        W12973  34.483  14.088  13.998
41358W        W12974   9.102  24.761  12.483
41359W        W12975  30.068  11.475  12.798
41360W        W12976  16.979  10.713   4.514
41361W        W12977  33.357  18.138  10.336
41362W        W12978  37.758  25.576  11.126
41363W        W12979  19.968  16.912   3.927
41364W        W12980  33.046  34.003  13.406
41365W        W12981  15.304  29.573   0.799
41366W        W12982  32.504   4.450   3.945
41367W        W12983   6.812   5.880  13.046
41368W        W12984  20.115  23.333  11.579
41369W        W12985  29.554   2.926   2.749
41370W        W12986  10.894  11.257   4.666
41371W        W12987   1.737   6.245  14.001
41372W        W12988   3.489  23.546   3.336
41373W        W12989   5.440  32.376  11.491
41374W        W12990   0.304  26.757   0.479
41375W        W12991  23.712  14.623  13.015
41376W        W12992  14.528  44.436  14.891
41377W        W12993  43.475  38.673   4.703
41378W        W12994  23.841  10.631   2.883
41379W        W12995  17.127   9.898   1.621
41380W        W12996  13.083  32.984   3.223
41381W        W12997  34.453  24.127  10.893
41382W        W12998  27.586  37.907   3.235
41383W        W12999   9.775  15.373   4.770
41384W        W13000  12.315  22.626  10.696
41385W        W13001  19.716   1.544   4.798
41386W        W13002  33.478  42.093   4.564
41387W        W13003  26.745  43.011   4.212
41388W        W13004  11.351  37.363   3.294
41389W        W13005  41.831   7.865  14.384
41390W        W13006   2.073  32.738  11.169
41391W        W13007  32.448  37.448  11.234
41392W        W13008   8.594  15.516  13.512
41393W        W13009  24.088   6.474   0.873
41394W        W13010  13.148  32.646  11.204
41395W        W13011  17.855  27.938  10.639
41396W        W13012  28.974  18.147  13.618
41397W        W13013   8.522  15.681   5.078
41398W        W13014   1.073   6.214   2.124
41399W        W13015  18.256  44.054   5.662
41400W        W13016  30.021  29.895   0.502
41401W        W13017  33.574  34.986  11.958
41402W        W13018  38.398  29.470  11.479
41403W        W13019  39.388  25.277   3.281
41404W        W13020  28.991  28.862  14.080
41405W        W13021   9.138  19.105  12.128
41406W        W13022  21.803  22.795   1.424
41407W        W13023  28.465  23.948   3.923
41408W        W13024  31.062  13.090   4.433
41409W        W13025  10.314   0.324  13.944
41410W        W13026  24.910  24.051   2.837
41411W        W13027  14.342   8.996   4.757
41412W        W13028  10.431  16.145   4.497
41413W        W13029  43.368  42.427   3.091
41414W        W13030  24.225   9.145  13.960
41415W        W13031  30.009  39.958  10.529
41416W        W13032   8.067  11.133   1.394
41417W        W13033   8.393  30.502   1.016
41418W        W13034  15.415  42.075   3.687
41419W        W13035   2.405  27.451   3.249
41420W        W13036  40.344  17.671  12.917
41421W        W13037   7.382   8.355  13.568
41422W        W13038  35.371  14.602  11.551
41423W        W13039  42.244   2.758  12.099
41424W        W13040  39.932  44.974  12.317
41425W        W13041  12.818  31.138   3.248
41426W        W13042  37.224  30.493   0.557
41427W        W13043  21.145  33.242   1.701
41428W        W13044  35.177  11.758   2.575
41429W        W13045   3.612  40.746   0.502
41430W        W13046   8.222  41.305   3.545
41431W        W13047  26.495   9.787   3.923
41432W        W13048  13.385   0.369   4.626
41433W        W13049  23.533  12.072   2.318
41434W        W13050   9.389  31.470  12.869
41435W        W13051  37.929  13.336   2.242
41436W        W13052  12.606   3.351   3.305
41437W        W13053  42.967  39.784   3.247
41438W        W13054   6.911  43.736   4.072
41439W        W13055  13.214  25.785  13.802
41440W        W13056  25.626  10.718   2.625
41441W        W13057  41.792  36.058   1.555
41442W        W13058  31.305  26.998   3.714
41443W        W13059  20.165   8.340  14.310
41444W        W13060  31.184  35.854   3.153
41445W        W13061   0.553  36.692  13.061
41446W        W13062  34.136  34.608  10.779
41447W        W13063  28.924   6.389   1.193
41448W        W13064  31.335  16.245   0.848
41449W        W13065  23.577  12.700  10.622
41450W        W13066   8.273  44.249   3.376
41451W        W13067   9.973  10.012   4.211
41452W        W13068  11.874  23.540   2.716
41453W        W13069   5.228   9.127  13.394
41454W        W13070  27.873  42.414  12.916
41455W        W13071  16.147  19.012  14.283
41456W        W13072  15.625   3.892   3.155
41457W        W13073   8.179   1.768  13.444
41458W        W13074  32.681  37.524   3.813
41459W        W13075   4.437  44.377   1.941
41460W        W13076  36.568  30.039   1.580
41461W        W13077  22.934   6.061  10.709
41462W        W13078  44.381  37.844  12.939
41463W        W13079  40.746  31.487   2.859
41464W        W13080  42.782  39.955  12.933
41465W        W13081   8.979  11.917  11.181
41466W        W13082  28.122  37.017   0.301
41467W        W13083  22.967   4.837  12.903
41468W        W13084   1.567  41.897   3.593
41469W        W13085  43.450   5.791  12.445
41470W        W13086  27.433   2.037   0.900
41471W        W13087  22.850   1.772  11.171
41472W        W13088   9.933   1.868  10.675
41473W        W13089  40.568  38.802   4.317
41474W        W13090  42.266  38.618   3.768
41475W        W13091  43.606  38.391  14.805
41476W        W13092   8.142   6.984  13.369
41477W        W13093  40.983  18.896  11.213
41478W        W13094   1.949   4.744  14.926
41479W        W13095  18.724  26.244  13.753
41480W        W13096  24.019   1.419  11.035
41481W        W13097  15.209  40.073   0.394
41482W        W13098  39.910  16.598  12.172
41483W        W13099  38.757   2.617  14.840
41484W        W13100  21.219  20.621   1.737
41485W        W13101   6.258  11.524   3.108
41486W        W13102   1.001  10.668  10.988
41487W        W13103  26.653  31.190   3.720
41488W        W13104   3.353   6.355   3.640
41489W        W13105   2.185  18.480  12.845
41490W        W13106  28.255  24.859  14.439
41491W        W13107  20.107  26.396  12.515
41492W        W13108  37.511  25.139  10.999
41493W        W13109   1.893  29.596   4.599
41494W        W13110   3.974  17.956   3.881
41495W        W13111  36.047  30.425  14.816
41496W        W13112  18.113  36.470  12.692
41497W        W13113  36.364  29.163  10.370
41498W        W13114  13.534  26.979  13.239
41499W        W13115   7.931  12.178   4.750
41500W        W13116  33.847  39.537   2.275
41501W        W13117  18.664  21.627  11.169
41502W        W13118   8.776  24.018   0.627
41503W        W13119  27.163  37.975  12.605
41504W        W13120   4.807   5.755   1.817
41505W        W13121  38.094  22.732  10.968
41506W        W13122  29.215  41.803   3.697
41507W        W13123  17.319  36.842  13.074
41508W        W13124   4.775  12.640   2.098
41509W        W13125   0.283  39.871   4.161
41510W        W13126   8.282  22.833  13.011
41511W        W13127  29.971   5.792  11.229
41512W        W13128  28.336  13.816  14.476
41513W        W13129  27.678  17.522   0.681
41514W        W13130  29.813  15.344  10.451
41515W        W13131  20.354  35.895   1.916
41516W        W13132  22.669  20.045   1.948
41517W        W13133  35.022  17.332  14.971
41518W        W13134  41.333  25.232   0.744
41519W        W13135  17.801   0.713  12.566
41520W        W13136  23.584   6.890  11.794
41521W        W13137  27.170   3.422   2.796
41522W        W13138  33.213  38.348   1.513
41523W        W13139  17.701  19.049   0.949
41524W        W13140  43.531  38.536  11.987
41525W        W13141   9.838  14.611   1.420
41526W        W13142  26.045  24.092  14.832
41527W        W13143  29.813  12.305  14.441
41528W        W13144   4.893   2.711   4.057
41529W        W13145  12.078  17.265   2.875
41530W        W13146  14.811   8.376  14.986
41531W        W13147  43.992  41.821   0.246
41532W        W13148  28.139   6.760   4.142
41533W        W13149   1.846  11.495  13.304
41534W        W13150  19.346  41.778   1.779
41535W        W13151  41.909  10.880  10.969
41536W        W13152   0.850  36.914  11.849
41537W        W13153  43.075  38.362  13.964
41538W        W13154  34.488   0.976  10.740
41539W        W13155  10.273  37.494   0.954
41540W        W13156   4.925   8.441   3.222
41541W        W13157  29.861  12.730   1.796
41542W        W13158  32.650   5.313  11.244
41543W        W13159   3.304  25.058  14.043
41544W        W13160   2.293  13.940   3.765
41545W        W13161  44.343  10.312   0.790
41546W        W13162   8.194  38.970   1.777
41547W        W13163  44.798   7.601  13.553
41548W        W13164  20.276  20.561   4.724
41549W        W13165  26.230   4.297   0.419
41550W        W13166  31.470   3.721   0.200
41551W        W13167  44.272  31.029  14.468
41552W        W13168  38.297  21.924   3.847
41553W        W13169  25.207  39.619   1.886
41554W        W13170   9.549  17.737  12.590
41555W        W13171  31.943   4.863  14.713
41556W        W13172   4.764   6.486   3.540
41557W        W13173   8.281  27.082  14.795
41558W        W13174   7.296  28.954   2.249
41559W        W13175  33.871   9.236  14.973
41560W        W13176  35.075  36.136  14.333
41561W        W13177  15.704  37.079  10.932
41562W        W13178  26.946   9.705  13.024
41563W        W13179  28.535  35.949  13.724
41564W        W13180   3.231  15.747  11.574
41565W        W13181  39.573  34.440   3.336
41566W        W13182  31.559  18.457  11.234
41567W        W13183  25.697  36.825  11.062
41568W        W13184  29.876  22.524  10.439
41569W        W13185   8.477  39.299  12.210
41570W        W13186  37.941  13.850   2.969
41571W        W13187  27.104  32.001  10.972
41572W        W13188  37.501  15.642   2.439
41573W        W13189  39.604   6.916  12.813
41574W        W13190  40.985   2.249  13.590
41575W        W13191   5.364   4.488  12.123
41576W        W13192  35.323  28.055   4.253
41577W        W13193   0.183  20.351   0.977
41578W        W13194  27.381  20.341   1.370
41579W        W13195  11.392  21.266  14.581
41580W        W13196  12.823  43.870   4.110
41581W        W13197  40.039  34.391   3.127
41582W        W13198  12.287  32.450   2.304
41583W        W13199   4.714  23.108   1.780
41584W        W13200   3.937   5.023  13.440
41585W        W13201  12.727   6.960  14.251
41586W        W13202   2.232  23.486   3.195
41587W        W13203  41.061  41.070  11.626
41588W        W13204  33.108   1.685  13.461
41589W        W13205  32.912  42.632  11.465
41590W        W13206  39.479  29.985  13.333
41591W        W13207   0.698  35.265  12.193
41592W        W13208  27.977  10.237   2.694
41593W        W13209   5.811  36.922  10.753
41594W        W13210  25.235  36.440   2.285
41595W        W13211  14.835  33.012   3.552
41596W        W13212  35.753  35.624  11.209
41597W        W13213  42.719   3.844   4.320
41598W        W13214  40.759  12.832  14.238
41599W        W13215   3.362  17.600  14.552
41600W        W13216   9.247  36.458   0.225
41601W        W13217  38.247  22.100  14.865
41602W        W13218  29.591  13.918   0.391
41603W        W13219  42.303  19.522   0.270
41604W        W13220  40.561   5.278   4.482
41605W        W13221  21.317   9.616  14.009
41606W        W13222  29.691  38.674   0.426
41607W        W13223  25.218  10.252   4.524
41608W        W13224  16.108  30.465  12.496
41609W        W13225  10.734   5.813  12.309
41610W        W13226  22.388  19.865   1.557
41611W        W13227  30.134   4.488  12.530
41612W        W13228  16.052  43.230   1.428
41613W        W13229  15.141  12.123  13.716
41614W        W13230  28.161  26.524   3.241
41615W        W13231  38.445  19.007   1.947
41616W        W13232  17.570   3.104  14.486
41617W        W13233  19.292  26.461  14.769
41618W        W13234   3.736  38.231  11.064
41619W        W13235   8.294  22.516   2.062
41620W        W13236  33.823   5.390   4.529
41621W        W13237   4.420  22.346  14.976
41622W        W13238  33.963  16.296  10.528
41623W        W13239  44.936  24.139  13.774
41624W        W13240  29.552  34.748   3.328
41625W        W13241  12.512  29.144   0.066
41626W        W13242   8.408  15.121  14.414
41627W        W13243  39.024  24.537   3.640
41628W        W13244  18.727  32.940   2.814
41629W        W13245  15.015  11.771   2.349
41630W        W13246  12.504  21.939  11.077
41631W        W13247  20.844  24.617  13.819
41632W        W13248  19.996   0.823  14.810
41633W        W13249  37.150  26.487  11.964
41634W        W13250  19.657   8.220   4.540
41635W        W13251  32.990   0.942  10.450
41636W        W13252  13.845   2.037  12.460
41637W        W13253  43.825  27.931  12.188
41638W        W13254  13.389   3.455   2.751
41639W        W13255   7.376  26.023  13.315
41640W        W13256  17.569  11.137  13.718
41641W        W13257   5.870  43.846   3.174
41642W        W13258  33.652  27.866  12.456
41643W        W13259  12.061  42.375  13.529
41644W        W13260   9.074  17.987  13.925
41645W        W13261   2.954  17.546  12.398
41646W        W13262  13.793  35.440   3.887
41647W        W13263   1.364  40.785  14.910
41648W        W13264   7.840  43.982  14.236
41649W        W13265  30.202  40.830  14.463
41650W        W13266  37.027  44.765  13.922
41651W        W13267  40.867  27.025  11.358
41652W        W13268  40.379  20.792  13.842
41653W        W13269  13.119  31.549  13.469
41654W        W13270  12.192  42.375   1.358
41655W        W13271  13.582  37.761  12.080
41656W        W13272   6.190  30.634  14.205
41657W        W13273  30.164   2.785   4.210
41658W        W13274  18.758  32.999   0.879
41659W        W13275  43.671  29.423  13.412
41660W        W13276  37.485  18.251   4.742
41661W        W13277  43.033  25.586  11.323
41662W        W13278  26.645  37.244  11.127
41663W        W13279  39.401  34.988  11.685
41664W        W13280  20.478  23.066   4.256
41665W        W13281  20.097  21.350  12.491
41666W        W13282   5.998  17.862  11.163
41667W        W13283  38.302  25.953   1.682
41668W        W13284   3.004   3.005   2.788
41669W        W13285  17.667  10.811  13.319
41670W        W13286   7.010   3.879   1.478
41671W        W13287  24.155   2.719   3.187
41672W        W13288  34.490  21.356   4.116
41673W        W13289  21.595  33.991  14.911
41674W        W13290  21.706  10.733   3.627
41675W        W13291  25.061  43.214   2.409
41676W        W13292  26.927  28.568  14.752
41677W        W13293  16.193  12.138  10.491
41678W        W13294  32.948  31.658  12.206
41679W        W13295  10.726   5.899   0.194
41680W        W13296   2.896  23.233  14.841
41681W        W13297  41.316  11.696  11.951
41682W        W13298  19.012   1.343   1.413
41683W        W13299  17.514  36.510   0.870
41684W        W13300  44.564   3.741  11.611
41685W        W13301  13.154  17.612   4.820
41686W        W13302  30.196  32.843   1.497
41687W        W13303  37.092   4.931   3.703
41688W        W13304  30.720  40.660  14.328
41689W        W13305  19.151   9.825  12.697
41690W        W13306  32.211  26.674  13.299
41691W        W13307  28.689  12.288  12.064
41692W        W13308   6.040  22.677   0.942
41693W        W13309  16.834  15.663   1.023
41694W        W13310  32.644  14.626  14.771
41695W        W13311  42.490  12.394   0.874
41696W        W13312   9.301  31.875   0.486
41697W        W13313  40.350  12.161   0.465
41698W        W13314  24.535   8.331  10.579
41699W        W13315  19.793   4.336   2.889
41700W        W13316   6.332   7.340   0.415
41701W        W13317  28.681  37.327  12.482
41702W        W13318  20.557  30.150   2.772
41703W        W13319  43.042   1.253   0.678
41704W        W13320  15.233  32.654  14.220
41705W        W13321   6.925  41.920   0.746
41706W        W13322  22.489  10.597   1.300
41707W        W13323  29.586  10.489  14.495
41708W        W13324  14.340  30.139   4.519
41709W        W13325   4.375  14.156   4.543
41710W        W13326  13.624  14.819   2.678
41711W        W13327  23.639   0.779   4.864
41712W        W13328  25.984  14.734  14.423
41713W        W13329   2.881  42.707   4.315
41714W        W13330  28.416  20.234   4.591
41715W        W13331  29.707  39.845  13.917
41716W        W13332  39.418  40.494   1.647
41717W        W13333  26.059  31.971  12.393
41718W        W13334  24.503   4.955   2.649
41719W        W13335  28.031  39.569   2.608
41720W        W13336   0.900  40.084   5.396
41721W        W13337  15.419  21.784   2.317
41722W        W13338   9.573  21.421  12.967
41723W        W13339  30.331  35.403  14.118
41724W        W13340  20.141  31.996  11.176
41725W        W13341  15.814  11.855   4.562
41726W        W13342  22.131  14.403  13.187
41727W        W13343  27.218  35.430   1.404
41728W        W13344  43.948  39.767   3.735
41729W        W13345  29.009  26.509   2.670
41730W        W13346  13.299  13.767   4.649
41731W        W13347   6.093   9.257   3.547
41732W        W13348  15.761  27.637  10.667
41733W        W13349   7.336   2.915   2.347
41734W        W13350  18.125  43.486  12.623
41735W        W13351  37.319  11.416   3.044
41736W        W13352  33.289   0.773   0.082
41737W        W13353  22.222   6.706  12.300
41738W        W13354  23.259  43.518  12.421
41739W        W13355  17.488  12.233  13.066
41740W        W13356  32.201  23.601  13.386
41741W        W13357  23.939  38.996   0.196
41742W        W13358   1.445  27.918  11.049
41743W        W13359  20.155  18.190  11.691
41744W        W13360  41.053  21.767   0.846
41745W        W13361  31.538   0.181   4.093
41746W        W13362  26.050  18.675   2.869
41747W        W13363  18.933  32.866   4.667
41748W        W13364  34.980  38.892  10.511
41749W        W13365   7.720  30.525   2.224
41750W        W13366   6.436  24.545   4.566
41751W        W13367  29.099  42.741  14.878
41752W        W13368   0.733  12.661   4.092
41753W        W13369  32.648  29.929  14.929
41754W        W13370  15.732  24.559   3.137
41755W        W13371  12.000  35.066   2.648
41756W        W13372  11.117  13.838   2.315
41757W        W13373  41.763  26.112   2.457
41758W        W13374  36.514  20.071  11.924
41759W        W13375  13.712   7.797   4.662
41760W        W13376  24.768  35.301   2.798
41761W        W13377  15.408   0.624  14.558
41762W        W13378  14.604   0.035   2.316
41763W        W13379  23.960   9.816  13.391
41764W        W13380  29.604  37.169   2.339
41765W        W13381  15.110  25.411   1.696
41766W        W13382  27.990  15.745  14.481
41767W        W13383   5.475  22.664  12.782
41768W        W13384  23.795  14.983  14.801
41769W        W13385  39.839  11.327   1.629
41770W        W13386  14.003  13.571   0.780
41771W        W13387  33.601  30.607  13.877
41772W        W13388  23.024  43.683  14.455
41773W        W13389  41.101   5.736   2.340
41774W        W13390  16.105  25.155  14.541
41775W        W13391   0.244  11.493  13.903
41776W        W13392  15.489  21.606  13.414
41777W        W13393  37.908  31.182   1.453
41778W        W13394  43.348  42.454   3.608
41779W        W13395  26.465  11.548  11.954
41780W        W13396  13.710  41.284   0.272
41781W        W13397  38.630  15.207   4.015
41782W        W13398   1.153  24.146  14.376
41783W        W13399   0.375   7.138   0.026
41784W        W13400  26.009   7.336  14.864
41785W        W13401  27.978  29.048  14.095
41786W        W13402  10.746  33.915   4.559
41787W        W13403  28.835  20.245   1.311
41788W        W13404  37.039  20.762  14.848
41789W        W13405  30.039  25.656   2.407
41790W        W13406   6.315   7.832   4.893
41791W        W13407   9.577  43.938   0.930
41792W        W13408   1.141  23.496  10.723
41793W        W13409  28.881  19.070  10.905
41794W        W13410  36.369  12.838   3.373
41795W        W13411  23.558  43.544   0.301
41796W        W13412  27.020  26.838   4.073
41797W        W13413  12.097  29.866   0.402
41798W        W13414  31.901  17.176   0.797
41799W        W13415  18.132  32.180   1.705
41800W        W13416  38.208  12.231   0.067
41801W        W13417  31.655  16.616  14.512
41802W        W13418  18.342  31.491   3.651
41803W        W13419   3.768  37.355  12.182
41804W        W13420  31.530  31.003  10.300
41805W        W13421  33.517  26.737   3.550
41806W        W13422  24.077  38.323   0.980
41807W        W13423  16.637  15.751  12.428
41808W        W13424  16.645   5.439  12.083
41809W        W13425  20.104  16.358  10.918
41810W        W13426  40.418  26.069  13.076
41811W        W13427  19.732  12.380   1.366
41812W        W13428  29.058  14.086   4.467
41813W        W13429   6.138  44.728  12.462
41814W        W13430   5.313  31.963   0.775
41815W        W13431   0.939  44.428   1.816
41816W        W13432  37.054  15.692  13.021
41817W        W13433  38.664  27.432  14.408
41818W        W13434  16.181  34.873   3.853
41819W        W13435  22.436   3.723   1.476
41820W        W13436  43.457   8.921  13.395
41821W        W13437  44.233  37.021   3.346
41822W        W13438  17.724   6.694   2.678
41823W        W13439  16.613   3.133   3.891
41824W        W13440   2.382  23.308   4.108
41825W        W13441  25.710  15.133   1.717
41826W        W13442  24.727  24.757   3.253
41827W        W13443  34.188  26.694   4.116
41828W        W13444  29.451  31.066   2.532
41829W        W13445   9.871  40.149   2.921
41830W        W13446  13.672  20.638  11.634
41831W        W13447   9.719  21.279   0.213
41832W        W13448  35.653  12.189   4.246
41833W        W13449  30.701   3.620   3.697
41834W        W13450  23.733  24.218   0.892
41835W        W13451  22.460  15.553   5.430
41836W        W13452   2.855  40.924  11.206
41837W        W13453  26.041  17.853   4.441
41838W        W13454   2.386  34.973   2.693
41839W        W13455  25.762   9.587   4.632
41840W        W13456   0.565  39.374   2.474
41841W        W13457  38.406  22.066   4.857
41842W        W13458  26.487  33.902  12.432
41843W        W13459  43.191  32.634   2.415
41844W        W13460   5.387  40.106  13.390
41845W        W13461  26.914   7.680  11.102
41846W        W13462  13.169  10.908   2.785
41847W        W13463  13.747   5.782   3.182
41848W        W13464  39.508  21.805   3.254
41849W        W13465  29.712  42.954   2.266
41850W        W13466  15.287  37.111  13.103
41851W        W13467  20.503  17.208   2.456
41852W        W13468  36.551  10.160   0.434
41853W        W13469  38.657  33.168   0.609
41854W        W13470  16.684  24.077   3.675
41855W        W13471   9.343  26.649  13.784
41856W        W13472  43.489  32.172   1.239
41857W        W13473  11.351  22.154  14.036
41858W        W13474  31.930  40.382   4.988
41859W        W13475  18.005   4.430  11.955
41860W        W13476  33.376  34.888  12.445
41861W        W13477  10.161  19.684   4.222
41862W        W13478  40.261  12.526   4.952
41863W        W13479   2.496  32.556  10.943
41864W        W13480  15.154  16.871   2.208
41865W        W13481  28.530  40.374   1.021
41866W        W13482  27.510   4.453   3.191
41867W        W13483  27.103  44.322   2.199
41868W        W13484  28.696   4.800  11.391
41869W        W13485  31.550  40.089   3.245
41870W        W13486   9.343   2.021  13.953
41871W        W13487  29.045  28.186   3.087
41872W        W13488  33.216  26.560  14.370
41873W        W13489   4.779  34.962  10.731
41874W        W13490  39.526  21.280  11.266
41875W        W13491  12.482   3.793  10.931
41876W        W13492  35.437  25.964  13.808
41877W        W13493  39.048  10.212   4.336
41878W        W13494  35.632  18.997  13.319
41879W        W13495   8.657   5.851   1.461
41880W        W13496  13.709  30.981  11.893
41881W        W13497  13.410  41.597  11.947
41882W        W13498   7.316   4.588  14.983
41883W        W13499   0.983  35.098  13.890
41884W        W13500  14.241  27.127   3.656
41885W        W13501  21.331  35.591  12.052
41886W        W13502  28.849   8.132   0.308
41887W        W13503  25.259   9.803   0.789
41888W        W13504  30.388   1.834   1.708
41889W        W13505   5.780  24.363   2.255
41890W        W13506  43.802   0.696   2.186
41891W        W13507  10.186  29.690   3.198
41892W        W13508  29.618  38.482   4.599
41893W        W13509  25.387  25.159  12.576
41894W        W13510  11.047  23.744   1.275
41895W        W13511  12.608   3.959  12.435
41896W        W13512  13.364  43.502  12.956
41897W        W13513   5.244  37.682   1.237
41898W        W13514  33.965  27.927  10.708
41899W        W13515  39.016   7.926   1.309
41900W        W13516  25.618  18.740   0.560
41901W        W13517  13.841  20.771   0.867
41902W        W13518  20.840   0.089   2.373
41903W        W13519  16.226  44.780   4.732
41904W        W13520  15.639  19.798  14.307
41905W        W13521  10.393  19.836   1.867
41906W        W13522  36.418  11.617  10.669
41907W        W13523  42.917  35.894   1.310
41908W        W13524  34.833  20.540  14.440
41909W        W13525   1.931  11.274  13.754
41910W        W13526  31.314  41.925   1.322
41911W        W13527  37.934  25.528  14.454
41912W        W13528   3.751   5.641   2.027
41913W        W13529  37.335   6.388  11.663
41914W        W13530  17.035   9.816   3.680
41915W        W13531  16.320  35.820   1.922
41916W        W13532   9.215   7.487   0.329
41917W        W13533  32.639  37.553   4.620
41918W        W13534  40.140  17.826  13.362
41919W        W13535  38.082  19.706   2.481
41920W        W13536   5.786  43.038  14.786
41921W        W13537  43.155  10.948   3.290
41922W        W13538  15.776   4.095   4.767
41923W        W13539  41.821   5.213  10.687
41924W        W13540  18.055  31.136  11.618
41925W        W13541  40.499  32.674   1.747
41926W        W13542  10.782  20.718   4.704
41927W        W13543  36.899  17.130  11.074
41928W        W13544  18.524  35.564  12.366
41929W        W13545  39.849  19.701  11.419
41930W        W13546  44.390  13.631  13.415
41931W        W13547   7.825  27.915  11.203
41932W        W13548  18.257  29.679   4.109
41933W        W13549   9.248  41.786   3.322
41934W        W13550  18.615  10.654   3.196
41935W        W13551   8.425  43.408   3.691
41936W        W13552  36.293  40.001   0.422
41937W        W13553  14.775  11.890  10.010
41938W        W13554   9.929   0.909   3.632
41939W        W13555   2.246  41.886  12.115
41940W        W13556  41.588   5.016   2.910
41941W        W13557  14.127   1.554  13.919
41942W        W13558  39.831  30.016  11.996
41943W        W13559  15.809  17.163  14.278
41944W        W13560   5.551  26.030  11.955
41945W        W13561  29.965  43.477   2.038
41946W        W13562   1.961  10.421  13.533
41947W        W13563  18.368  38.518   2.861
41948W        W13564  35.139   2.775  12.817
41949W        W13565  39.336  32.361   1.790
41950W        W13566   2.234  37.507   3.916
41951W        W13567  29.249  22.090  13.684
41952W        W13568  41.368  11.098  12.582
41953W        W13569  33.394  13.689  13.898
41954W        W13570  28.514  21.470   3.667
41955W        W13571  22.178  43.329   5.029
41956W        W13572   5.062  26.969   3.327
41957W        W13573  18.801  19.345  12.524
41958W        W13574  37.815  16.155  13.845
41959W        W13575  22.652  31.418   4.865
41960W        W13576  36.940  11.518   9.896
41961W        W13577  18.167  20.241  11.725
41962W        W13578   8.062  20.051   4.068
41963W        W13579  26.229  25.305  11.926
41964W        W13580  41.025  22.928   1.373
41965W        W13581   4.772  35.864  12.008
41966W        W13582  19.102  21.645  11.450
41967W        W13583  14.615  31.489   2.743
41968W        W13584  32.058  33.893  14.858
41969W        W13585   0.461   4.724   4.140
41970W        W13586  25.700   3.954   0.834
41971W        W13587  42.273  34.337  12.878
41972W        W13588  15.540  33.018  12.532
41973W        W13589  29.101  30.597  14.828
41974W        W13590   5.812  37.063   3.542
41975W        W13591  39.358  29.727  12.898
41976W        W13592  12.812  18.758  10.715
41977W        W13593  19.609  43.799   5.519
41978W        W13594  19.584  15.500  10.091
41979W        W13595  10.627   3.480  10.384
41980W        W13596  34.928  22.625  10.714
41981W        W13597  30.221  37.057  14.342
41982W        W13598  34.842  17.660   2.743
41983W        W13599  18.104  34.887  11.103
41984W        W13600   7.229  17.269  14.982
41985W        W13601  13.066  26.631   2.904
41986W        W13602  41.267  27.675  10.832
41987W        W13603  24.550   7.110  11.179
41988W        W13604  30.182  17.722   3.344
41989W        W13605   9.464  43.789  10.908
41990W        W13606  43.980  33.561   4.116
41991W        W13607  43.256  14.284  12.140
41992W        W13608   1.223  22.182   1.797
41993W        W13609  38.592   4.754  12.537
41994W        W13610   0.921   3.416   0.878
41995W        W13611  42.695   2.947   2.810
41996W        W13612  38.592  43.391  13.905
41997W        W13613   6.643  30.024  13.000
41998W        W13614  39.436   4.250   3.861
41999W        W13615  33.983   0.816  12.787
42000W        W13616   5.748  27.477   3.116
42001W        W13617   1.770  17.518  13.759
42002W        W13618   5.197  23.112  10.550
42003W        W13619   4.486  18.108   3.923
42004W        W13620  17.087  43.877  14.265
42005W        W13621  39.132  36.566  12.911
42006W        W13622  19.618  17.758  12.000
42007W        W13623  26.945   5.002  12.956
42008W        W13624   2.269  12.726  11.583
42009W        W13625  44.868  31.195   3.691
42010W        W13626  19.042  15.100   4.151
42011W        W13627   0.941  25.428   1.304
42012W        W13628  15.412  22.566  11.076
42013W        W13629  19.716  38.632  14.422
42014W        W13630   4.408   0.974  10.036
42015W        W13631  40.305   5.336   0.419
42016W        W13632  13.034  36.899   4.132
42017W        W13633   6.187  21.116  14.752
42018W        W13634  19.833  18.763   4.146
42019W        W13635  11.898  22.608   2.753
42020W        W13636  39.198  16.551   0.566
42021W        W13637  28.885  29.121   0.339
42022W        W13638   9.177  11.691  14.914
42023W        W13639  21.311  32.400  10.475
42024W        W13640  35.075   0.762   1.170
42025W        W13641  24.997  18.987  14.266
42026W        W13642  26.229   6.992   4.467
42027W        W13643  16.329  15.678   4.673
42028W        W13644  16.327  37.509  12.489
42029W        W13645  35.917  24.769   0.341
42030W        W13646  22.581  41.290  13.782
42031W        W13647  30.799  32.685  13.665
42032W        W13648  10.831   9.166   3.707
42033W        W13649  13.588  17.787   0.850
42034W        W13650  29.672  18.624   4.102
42035W        W13651  35.330   2.991   2.470
42036W        W13652   1.962  31.834  12.477
42037W        W13653  22.520  12.867   3.635
42038W        W13654  44.363  40.155  11.580
42039W        W13655   2.346  14.047  13.618
42040W        W13656   2.410   0.140   2.223
42041W        W13657  23.193  32.063   1.280
42042W        W13658  27.356  21.863   1.260
42043W        W13659  26.452  43.187   0.368
42044W        W13660  14.605  20.871   3.602
42045W        W13661  36.382  32.111   4.152
42046W        W13662  31.109  17.697  11.030
42047W        W13663  38.399  23.690  12.428
42048W        W13664  22.942   5.720  11.602
42049W        W13665  11.117  26.164  13.922
42050W        W13666  28.856  19.232   2.780
42051W        W13667  10.029  19.814  10.274
42052W        W13668  17.099  31.477  14.871
42053W        W13669   7.237  19.979   1.718
42054W        W13670  44.007  20.481   0.017
42055W        W13671  23.730  24.429   4.299
42056W        W13672   7.700  37.992  14.002
42057W        W13673  36.114  37.622   0.427
42058W        W13674  12.124  22.528   0.343
42059W        W13675  30.997  25.668  12.289
42060W        W13676  15.853  22.588   4.250
42061W        W13677   2.390  40.963   0.881
42062W        W13678  39.908  18.402   2.731
42063W        W13679  19.252  29.465  11.725
42064W        W13680  40.542  31.608  10.628
42065W        W13681  37.956  10.448   2.786
42066W        W13682  24.106   5.480  14.267
42067W        W13683  14.725   6.384   3.917
42068W        W13684   1.213  43.343  13.001
42069W        W13685  43.818  25.009   0.334
42070W        W13686  15.705  22.337  10.720
42071W        W13687  22.376  40.946   0.004
42072W        W13688   3.426  31.344   1.152
42073W        W13689   9.311  38.145   3.747
42074W        W13690  35.628   2.637   4.783
42075W        W13691   7.203  44.821   0.343
42076W        W13692  25.011  22.304   4.489
42077W        W13693  10.358  18.346  14.384
42078W        W13694  39.777   6.460   1.449
42079W        W13695  25.246  18.120  13.891
42080W        W13696   7.188  44.509  14.716
42081W        W13697  16.507  23.009   0.143
42082W        W13698   5.532  11.132   2.211
42083W        W13699  25.461  41.071  12.997
42084W        W13700  10.984  35.661  11.990
42085W        W13701  18.090  42.999  10.377
42086W        W13702  13.347  12.685  10.681
42087W        W13703  24.970   8.659   0.447
42088W        W13704  12.236  28.544  13.295
42089W        W13705  10.593  10.920  13.438
42090W        W13706  23.704  27.660   0.968
42091W        W13707  19.791  39.985  10.417
42092W        W13708  43.968  30.314   3.865
42093W        W13709  11.794   4.048  12.043
42094W        W13710  43.454   4.306   4.562
42095W        W13711   3.729  37.034  10.705
42096W        W13712  31.543  31.519   1.687
42097W        W13713  11.623  18.218  13.111
42098W        W13714  17.245  40.043   3.560
42099W        W13715  37.909  31.401   1.939
42100W        W13716   2.321  15.680   1.490
42101W        W13717  33.695  31.521  13.026
42102W        W13718   9.357  31.037   1.833
42103W        W13719  34.944  18.811   3.647
42104W        W13720  42.757   1.699  13.367
42105W        W13721  37.450  34.847   1.463
42106W        W13722  31.289  32.503   4.692
42107W        W13723  21.591  18.354   1.384
42108W        W13724   8.174  12.508   4.225
42109W        W13725  15.644  12.443  14.831
42110W        W13726   7.804  24.588  12.536
42111W        W13727  28.498   8.148   3.304
42112W        W13728   2.696  21.477  12.082
42113W        W13729  20.753  29.817  12.486
42114W        W13730  11.431   6.902  14.849
42115W        W13731  21.295  19.712  11.054
42116W        W13732  43.009  10.591  14.336
42117W        W13733  28.081   5.800  12.956
42118W        W13734  12.342  37.096  10.514
42119W        W13735  19.626  28.858   0.989
42120W        W13736   2.868  20.128  12.481
42121W        W13737  41.371  35.076  12.294
42122W        W13738  20.564   1.880   3.660
42123W        W13739  37.820  31.030   2.872
42124W        W13740  24.798  29.022   4.502
42125W        W13741  38.094  31.862  12.381
42126W        W13742  36.562  36.440   4.636
42127W        W13743  44.970  16.421   2.565
42128W        W13744  13.831  27.460   0.302
42129W        W13745  44.498  36.960  10.641
42130W        W13746   3.494  16.473   1.510
42131W        W13747  28.210  34.344   4.008
42132W        W13748  12.882   9.956   3.612
42133W        W13749  14.801  43.470  10.618
42134W        W13750  32.189  33.037   1.344
42135W        W13751  27.937  34.666   2.262
42136W        W13752  13.155  36.044   4.229
42137W        W13753  18.739  37.609  14.380
42138W        W13754  37.633  39.829   3.630
42139W        W13755  35.791   9.810   3.668
42140W        W13756  36.449   5.218   1.790
42141W        W13757   8.133  30.366  11.405
42142W        W13758  16.651   5.255  13.632
42143W        W13759   2.467   7.867  10.727
42144W        W13760  31.679   6.398   0.487
42145W        W13761  33.194   9.215  13.780
42146W        W13762  21.400   1.328   2.505
42147W        W13763  20.061   2.185   4.224
42148W        W13764  30.548  37.509   0.929
42149W        W13765  14.644   5.317   4.846
42150W        W13766  36.559   7.910   2.418
42151W        W13767  20.603  31.032   0.947
42152W        W13768  32.379  29.459  14.937
42153W        W13769   7.921  36.784  11.144
42154W        W13770   4.924  32.833   4.042
42155W        W13771  17.100  12.971  14.385
42156W        W13772   4.347   8.372  14.781
42157W        W13773  15.226  23.492  13.408
42158W        W13774  13.846   0.760  13.020
42159W        W13775  24.976  17.052  10.544
42160W        W13776   6.193  43.745  11.513
42161W        W13777  27.919  39.826   2.125
42162W        W13778  10.253   2.241  14.990
42163W        W13779  36.917  39.532  14.529
42164W        W13780   1.772  23.581   4.245
42165W        W13781  39.120  25.200   0.219
42166W        W13782  14.156   1.849  14.350
42167W        W13783  19.768   6.170   4.662
42168W        W13784   7.842  43.888   2.174
42169W        W13785  17.599  25.470  14.738
42170W        W13786  15.037  25.659  13.863
42171W        W13787   6.315  18.516  13.724
42172W        W13788  10.878  44.280   4.548
42173W        W13789   8.468  25.626  14.190
42174W        W13790  35.068   2.881   0.235
42175W        W13791  21.883  33.648   4.553
42176W        W13792  26.647   9.408   1.205
42177W        W13793  26.620  18.728   0.830
42178W        W13794  40.546  38.819   1.171
42179W        W13795  12.841  17.204  14.300
42180W        W13796  43.909  44.291   4.577
42181W        W13797  25.388  13.660  13.902
42182W        W13798  15.049  32.691   1.902
42183W        W13799   1.452   5.580   3.919
42184W        W13800  12.361  40.816  12.084
42185W        W13801  17.496  33.488   2.759
42186W        W13802  42.452  28.271  13.253
42187W        W13803  40.127  32.779  12.278
42188W        W13804   6.751  36.019   2.903
42189W        W13805  30.866  28.356   3.637
42190W        W13806  17.106  16.773   1.275
42191W        W13807  36.357  26.745  11.482
42192W        W13808  10.706  22.877   1.275
42193W        W13809  39.188  25.533  13.939
42194W        W13810  19.079  19.769  12.830
42195W        W13811  43.707  21.241  10.984
42196W        W13812  21.317   9.641   3.417
42197W        W13813   7.325  44.454  13.816
42198W        W13814   6.272  25.764  13.853
42199W        W13815   0.617  29.702  14.763
42200W        W13816  12.061  32.882   1.354
42201W        W13817  17.770   7.486   2.208
42202W        W13818  26.566  37.272  12.173
42203W        W13819  29.969  14.218  10.537
42204W        W13820  16.759  37.865   2.717
42205W        W13821  21.194  38.793  10.544
42206W        W13822  37.964   2.461   4.886
42207W        W13823  21.271  25.568  14.054
42208W        W13824  32.448   1.991   4.044
42209W        W13825   1.073  14.411  13.941
42210W        W13826  40.187  24.585  13.462
42211W        W13827  24.165  22.235  12.457
42212W        W13828  21.645  32.628  11.540
42213W        W13829  33.649  32.246   4.595
42214W        W13830  42.844   1.144  12.457
42215W        W13831  16.288  36.816  11.676
42216W        W13832   5.129  34.881  14.110
42217W        W13833  26.227  36.808   0.301
42218W        W13834  43.994  18.809   4.851
42219W        W13835  22.524   6.144   0.991
42220W        W13836   1.825  11.367  11.603
42221W        W13837   6.197  28.393   2.466
42222W        W13838  19.498  34.932   3.083
42223W        W13839  44.236  43.458   1.910
42224W        W13840  12.676   6.514   0.007
42225W        W13841  39.454   6.112  13.782
42226W        W13842  30.435  24.571   3.210
42227W        W13843  25.700   0.137   0.749
42228W        W13844   9.843  33.473  14.887
42229W        W13845  23.116  41.584   2.578
42230W        W13846  18.734  33.332   4.211
42231W        W13847   5.810   7.152   3.925
42232W        W13848  42.683  41.287  12.422
42233W        W13849  35.975  34.995   0.309
42234W        W13850  22.737  22.477  11.531
42235W        W13851  40.943  27.965   4.196
42236W        W13852  33.859   7.738   0.985
42237W        W13853  20.141  43.719  14.910
42238W        W13854  10.410  21.405  14.479
42239W        W13855   4.269  10.325  14.758
42240W        W13856  12.827  34.350   0.703
42241W        W13857  43.337  14.874   0.296
42242W        W13858  31.281  21.131   3.628
42243W        W13859  22.304  26.442   1.771
42244W        W13860  37.133  12.939   1.843
42245W        W13861  34.437  27.562   4.823
42246W        W13862  16.352  41.998  11.269
42247W        W13863   6.222  18.017  13.865
42248W        W13864  10.394  44.265  13.910
42249W        W13865   6.672  17.848   0.379
42250W        W13866  27.786  13.097   5.402
42251W        W13867  22.617  23.542  13.777
42252W        W13868  44.692  17.724  13.101
42253W        W13869  36.453  23.593   3.100
42254W        W13870  34.308  40.993  10.597
42255W        W13871  14.088  25.588   0.571
42256W        W13872  39.769   7.323   0.883
42257W        W13873  15.525  41.362   4.230
42258W        W13874  22.951   2.876  12.080
42259W        W13875  32.008  11.795   1.701
42260W        W13876  37.410  44.351   3.352
42261W        W13877   3.395  23.873  10.445
42262W        W13878  39.768  18.259  11.979
42263W        W13879  28.957  38.720  13.416
42264W        W13880  37.836  36.068  13.331
42265W        W13881   3.542  34.844   1.350
42266W        W13882  16.271   7.385   0.792
42267W        W13883  14.849  19.139  12.993
42268W        W13884  29.450   3.689   3.312
42269W        W13885  11.615  19.903   4.296
42270W        W13886   8.828   1.196   0.875
42271W        W13887  22.808   0.330   4.195
42272W        W13888   6.773  33.105   2.633
42273W        W13889  38.105  32.039  11.463
42274W        W13890  24.966  18.138  12.573
42275W        W13891   2.869  43.943   4.122
42276W        W13892  27.495   7.610   4.722
42277W        W13893  12.305   2.352   0.498
42278W        W13894  13.661  30.459  12.565
42279W        W13895  15.588  17.058  11.119
42280W        W13896  17.627   1.786   0.504
42281W        W13897   0.797   4.294  13.413
42282W        W13898  43.400  36.467  14.531
42283W        W13899  20.726  36.590  12.433
42284W        W13900   0.684  30.121  11.483
42285W        W13901   0.702  44.980  13.337
42286W        W13902  25.503   6.489   4.182
42287W        W13903  40.790   8.422  13.583
42288W        W13904  27.990  41.648   3.266
42289W        W13905  34.075  10.410   1.998
42290W        W13906  20.031  17.069  14.521
42291W        W13907  38.381   1.232   1.489
42292W        W13908   8.850   0.209   1.242
42293W        W13909  14.795  21.224   3.253
42294W        W13910   5.688  38.704  10.299
42295W        W13911  44.421  16.490   1.245
42296W        W13912  27.901  38.530   3.166
42297W        W13913  13.233  39.902   2.279
42298W        W13914  19.600  41.549  11.619
42299W        W13915  23.922   2.874  12.434
42300W        W13916  23.039  37.385   2.715
42301W        W13917   6.969  40.009   2.883
42302W        W13918   9.482  36.528  11.431
42303W        W13919  34.540  21.352   2.905
42304W        W13920  14.570  36.386  12.964
42305W        W13921  20.013   0.405  14.017
42306W        W13922  32.017  36.073  12.709
42307W        W13923  23.655  37.622  10.713
42308W        W13924  26.659   2.227   1.914
42309W        W13925  34.143  21.222   4.545
42310W        W13926  15.169  15.900   0.902
42311W        W13927  29.553  18.233  12.592
42312W        W13928  18.925  33.483  12.853
42313W        W13929  18.188   1.470  13.831
42314W        W13930  11.189  35.074  11.954
42315W        W13931  40.530   5.109  14.981
42316W        W13932  16.643   7.760  12.385
42317W        W13933  17.561   6.670   4.127
42318W        W13934   3.246  24.716   0.852
42319W        W13935  42.064  15.245   4.354
42320W        W13936  37.404  19.554   2.261
42321W        W13937   6.158  14.656   3.629
42322W        W13938  27.116   6.659   0.371
42323W        W13939   1.969  34.527   4.660
42324W        W13940  40.425   4.459   0.776
42325W        W13941  44.236  35.456   3.776
42326W        W13942  44.878   5.212  13.957
42327W        W13943  29.469  39.322   1.187
42328W        W13944   3.872  37.718   0.713
42329W        W13945  36.560  10.120  14.859
42330W        W13946  22.547  31.146  14.626
42331W        W13947  33.645  29.202  11.668
42332W        W13948  26.491  33.506  14.811
42333W        W13949   5.350  40.444   2.182
42334W        W13950  11.591  24.639   1.327
42335W        W13951   7.337   2.350   2.322
42336W        W13952  26.045  34.042   4.995
42337W        W13953  28.045  14.249   1.747
42338W        W13954  41.488  30.424   0.903
42339W        W13955   9.060  17.802  11.015
42340W        W13956   2.867   8.902  12.324
42341W        W13957  17.442  23.196  10.944
42342W        W13958  28.299  35.443   3.232
42343W        W13959  31.584  13.673  14.369
42344W        W13960   5.605  26.058  10.943
42345W        W13961  35.596  27.023  11.953
42346W        W13962  14.204   7.620  12.521
42347W        W13963  40.336  35.012   2.186
42348W        W13964  21.901   4.397  11.966
42349W        W13965  32.436  43.901   4.243
42350W        W13966   8.146  32.188  14.994
42351W        W13967  31.132  41.427   2.304
42352W        W13968  35.051   8.854   3.341
42353W        W13969  11.256  13.449  11.731
42354W        W13970  28.887  36.194  13.332
42355W        W13971   6.481   4.365   0.321
42356W        W13972  11.068  44.471   0.316
42357W        W13973  33.065  20.853   2.751
42358W        W13974  17.237  20.542   1.912
42359W        W13975  14.872  37.396  13.022
42360W        W13976   5.291   2.801   0.907
42361W        W13977   1.585  21.063  13.579
42362W        W13978  21.525  16.631  10.480
42363W        W13979  25.716   3.719  10.514
42364W        W13980  43.918  16.143  11.505
42365W        W13981  34.700  31.220  11.567
42366W        W13982  23.949  17.658  11.566
42367W        W13983  18.326  15.265   1.971
42368W        W13984  27.445  18.570  13.354
42369W        W13985   5.775  12.246   1.728
42370W        W13986   7.889   7.460   5.127
42371W        W13987  16.340  12.238  12.003
42372W        W13988  22.148  38.386  12.295
42373W        W13989   9.818  32.570   0.304
42374W        W13990  38.376  17.135  10.635
42375W        W13991  33.780   1.692   3.643
42376W        W13992   4.682  23.582  10.233
42377W        W13993  27.093  25.516   3.163
42378W        W13994  18.484  13.658   0.276
42379W        W13995  43.311  33.916   4.341
42380W        W13996  41.193  39.814   0.208
42381W        W13997  44.868  29.720   2.285
42382W        W13998   5.328  17.607   1.813
42383W        W13999  39.279  23.279   0.233
42384W        W14000  27.981   8.113  11.987
42385W        W14001  40.784  30.586   1.365
42386W        W14002  26.077  23.175  14.498
42387W        W14003  13.226  24.410  10.730
42388W        W14004  20.889  12.727  14.766
42389W        W14005  34.865  29.647   1.379
42390W        W14006  44.387   5.298  11.614
42391W        W14007   1.951  41.520   4.876
42392W        W14008  20.578  25.262  14.028
42393W        W14009   2.759  19.744   4.881
42394W        W14010  29.186   6.875   1.034
42395W        W14011  12.507   5.312  10.256
42396W        W14012   3.913  19.020   1.191
42397W        W14013  44.815   7.670   4.587
42398W        W14014  41.409  22.044  11.413
42399W        W14015  19.635  22.364   1.580
42400W        W14016  38.045  26.057  12.209
42401W        W14017   7.903  23.554  14.702
42402W        W14018  21.848  34.611  10.499
42403W        W14019  39.161  20.148  12.859
42404W        W14020  35.313  30.731  11.743
42405W        W14021  17.634  16.773  14.392
42406W        W14022   4.697  27.081  11.661
42407W        W14023  15.177  15.481  10.623
42408W        W14024   1.426  33.480   2.693
42409W        W14025   8.386  37.987  12.926
42410W        W14026  34.455   3.172   0.851
42411W        W14027  19.912  43.117  14.353
42412W        W14028  14.714  34.423   2.286
42413W        W14029  23.051   9.763  10.769
42414W        W14030  36.497  18.367  11.192
42415W        W14031  43.988  41.411  13.576
42416W        W14032  32.979   1.037   3.581
42417W        W14033  43.680  30.030  12.149
42418W        W14034   2.183  29.446   0.836
42419W        W14035  27.981  20.215  13.571
42420W        W14036  32.470  20.371   2.265
42421W        W14037  16.989  39.500   0.972
42422W        W14038  11.182  23.299   2.109
42423W        W14039  23.966  12.198   3.777
42424W        W14040   7.369  40.300  12.085
42425W        W14041  15.994  30.269  11.115
42426W        W14042  10.351   7.670   4.469
42427W        W14043  22.545   0.919  10.454
42428W        W14044   9.197  12.083   0.922
42429W        W14045  20.232  31.659  14.428
42430W        W14046  39.849  40.349  12.214
42431W        W14047  39.579  36.022  13.539
42432W        W14048   9.699  27.013   4.467
42433W        W14049   1.411   3.197  14.034
42434W        W14050  12.187  41.836   2.891
42435W        W14051  12.326   2.396   1.044
42436W        W14052  38.284   1.880  12.030
42437W        W14053   7.447  16.823  11.274
42438W        W14054   1.313  12.394   2.835
42439W        W14055  17.906   0.422   4.119
42440W        W14056  42.040  29.112   3.658
42441W        W14057   4.090   5.794   2.421
42442W        W14058  28.512  40.216  11.503
42443W        W14059  39.091   4.844  13.981
42444W        W14060  27.149  41.772   3.667
42445W        W14061  14.566  17.227  12.011
42446W        W14062  26.940  33.388  10.634
42447W        W14063   7.705   6.285  13.931
42448W        W14064   0.117  35.670   0.967
42449W        W14065   2.866   4.296   3.712
42450W        W14066  32.325  29.354  11.661
42451W        W14067   3.387  14.561  13.270
42452W        W14068   2.880  43.069  13.331
42453W        W14069   4.357  14.662  13.934
42454W        W14070  23.892  43.559  11.694
42455W        W14071  41.848  20.659   3.024
42456W        W14072  36.897  36.543  12.599
42457W        W14073   6.029  28.755   2.783
42458W        W14074  30.057  26.619   4.376
42459W        W14075  31.793  29.290  12.265
42460W        W14076  14.236   4.165   3.064
42461W        W14077  31.843  22.978  13.955
42462W        W14078  12.542  19.724   4.109
42463W        W14079  24.638  13.784   4.492
42464W        W14080  25.743  10.699   4.049
42465W        W14081  42.340   5.282  10.666
42466W        W14082  10.722  31.934   0.895
42467W        W14083  14.119  42.256   0.941
42468W        W14084  25.468  37.961  10.687
42469W        W14085  22.092   0.690   2.685
42470W        W14086  14.201  35.091  12.590
42471W        W14087  38.081  20.659  12.579
42472W        W14088  40.369  19.033  13.426
42473W        W14089  28.081   6.415  12.664
42474W        W14090  17.873  39.472  13.334
42475W        W14091   7.346  22.848  14.965
42476W        W14092  26.659  25.792   1.785
42477W        W14093   0.058  44.512   3.683
42478W        W14094  34.324  21.444   5.064
42479W        W14095  44.073  44.349   2.001
42480W        W14096   7.361  27.045   0.700
42481W        W14097  40.882  24.462  10.436
42482W        W14098  22.158  38.471  10.472
42483W        W14099  43.295  16.026   1.175
42484W        W14100  17.378  23.146   0.029
42485W        W14101  21.938   8.933   4.555
42486W        W14102  31.387  17.225   0.930
42487W        W14103  27.707  16.752  12.968
42488W        W14104  29.038  16.996  14.830
42489W        W14105  30.665  18.874  12.165
42490W        W14106   4.450  26.798  14.312
42491W        W14107  39.312  37.484   0.301
42492W        W14108  24.279  27.734  12.057
42493W        W14109   0.198  37.476  11.461
42494W        W14110  44.567  42.492   4.572
42495W        W14111  17.785  17.659   4.685
42496W        W14112  19.298   9.665  11.445
42497W        W14113  17.331  37.839  14.294
42498W        W14114  39.984  38.454   4.902
42499W        W14115  14.445  22.275  13.019
42500W        W14116   1.900  34.911   1.729
42501W        W14117  42.351   0.318   3.666
42502W        W14118  29.401   6.777   3.396
42503W        W14119  13.084  36.819  12.579
42504W        W14120  40.315   8.809   4.576
42505W        W14121  11.216  22.047  10.960
42506W        W14122  16.645  10.701  13.887
42507W        W14123  26.736   8.937  11.921
42508W        W14124  18.605  10.812  12.501
42509W        W14125  20.231   1.991   0.287
42510W        W14126  11.828  44.992  12.327
42511W        W14127  42.525  44.956  12.304
42512W        W14128  12.656   1.543  10.686
42513W        W14129  35.625   8.674  14.303
42514W        W14130  24.167  26.030   4.850
42515W        W14131  24.620  37.464  14.516
42516W        W14132  17.734  29.294   1.503
42517W        W14133  17.560   9.761  13.490
42518W        W14134   0.312  17.064   0.223
42519W        W14135   0.707  43.760   0.391
42520W        W14136  39.881  16.070  11.959
42521W        W14137  15.201  29.549  14.731
42522W        W14138  13.062  24.275   3.589
42523W        W14139  22.511  12.247   4.825
42524W        W14140  35.001  35.403   1.615
42525W        W14141  34.041  44.330  10.203
42526W        W14142   4.502  12.841  14.391
42527W        W14143   5.777  13.659   1.405
42528W        W14144  18.704   2.007  14.627
42529W        W14145  31.478   8.913   1.603
42530W        W14146   0.316  33.207  14.835
42531W        W14147  14.164   1.786   1.175
42532W        W14148  10.289  36.358   3.819
42533W        W14149  33.568  38.623   1.856
42534W        W14150  20.839  33.137  12.119
42535W        W14151  30.174  10.891  12.503
42536W        W14152   5.616  29.191  12.230
42537W        W14153   5.339  42.019   0.616
42538W        W14154   3.382  26.044  10.645
42539W        W14155  35.677  29.045   3.381
42540W        W14156  38.495  12.805   4.532
42541W        W14157  38.001  12.395   2.896
42542W        W14158  15.512  22.317   0.443
42543W        W14159  18.780  22.889   1.416
42544W        W14160  39.273  19.159   2.358
42545W        W14161  43.503  10.818   2.451
42546W        W14162  11.198  12.188   4.152
42547W        W14163  19.288  21.493  14.348
42548W        W14164  43.012  44.808   3.662
42549W        W14165  25.081   5.911   1.750
42550W        W14166   3.402  11.331   4.310
42551W        W14167  13.311  20.828   0.943
42552W        W14168  31.119  24.472   1.873
42553W        W14169  39.185  24.954  13.330
42554W        W14170  21.117  28.410  14.862
42555W        W14171  11.317  33.030   1.811
42556W        W14172  16.143  43.384  11.946
42557W        W14173   5.056  38.941   4.223
42558W        W14174  40.904  44.247   1.759
42559W        W14175  32.656  12.583   0.421
42560W        W14176  40.058  24.500   3.706
42561W        W14177  38.414  16.149  10.647
42562W        W14178  27.409   5.216   0.931
42563W        W14179  33.604  21.490   1.333
42564W        W14180   9.796   2.515   1.680
42565W        W14181   2.199  13.974  12.211
42566W        W14182  31.219  27.228  13.428
42567W        W14183  40.063  30.308   2.184
42568W        W14184  35.574  20.612  11.576
42569W        W14185  16.716  26.208   4.880
42570W        W14186  12.290  10.443   4.909
42571W        W14187  25.443  41.597   4.199
42572W        W14188  10.469   1.306   3.750
42573W        W14189  27.152  26.308  14.298
42574W        W14190  37.351  43.494  10.812
42575W        W14191  42.947  11.652   1.640
42576W        W14192  29.885   9.208   0.679
42577W        W14193  18.232  27.567  10.662
42578W        W14194  10.308   0.995   4.138
42579W        W14195  16.759  12.326  11.699
42580W        W14196  39.304  17.293  10.210
42581W        W14197  33.997   3.275  13.011
42582W        W14198   7.838  33.922   1.935
42583W        W14199   1.627  15.638  12.559
42584W        W14200  13.992  40.847  14.709
42585W        W14201  20.795  23.272  12.574
42586W        W14202  43.249   7.891   1.330
42587W        W14203  25.180  22.404  14.895
42588W        W14204  35.917  35.674  14.934
42589W        W14205  11.347  10.332   0.916
42590W        W14206   5.660   9.517   1.629
42591W        W14207   7.903   4.822  13.440
42592W        W14208  34.482   4.385  10.679
42593W        W14209  28.748   5.940  14.872
42594W        W14210  23.561  37.030   4.949
42595W        W14211  33.153  21.243  11.640
42596W        W14212  43.269   1.266   4.770
42597W        W14213   6.129  23.773   2.313
42598W        W14214  31.324  22.193   4.374
42599W        W14215  31.409  34.561  12.827
42600W        W14216  23.718  32.943  12.429
42601W        W14217  42.029  11.814   2.215
42602W        W14218   2.221  12.603  14.957
42603W        W14219  13.738   6.710  13.931
42604W        W14220  15.493  14.335  13.541
42605W        W14221  39.074  28.107  14.051
42606W        W14222  25.588  30.195   0.311
42607W        W14223  11.646   9.296  14.109
42608W        W14224  36.647  19.591  12.662
42609W        W14225   3.231  11.624  11.461
42610W        W14226  24.454   2.335   4.589
42611W        W14227  24.068  44.251   1.695
42612W        W14228   1.789  14.678   3.229
42613W        W14229  16.597  10.451   0.916
42614W        W14230  11.938  36.975   1.973
42615W        W14231  40.628  42.532   2.250
42616W        W14232  24.254  24.030  14.553
42617W        W14233   9.639  12.810   0.660
42618W        W14234  31.409  38.903  11.985
42619W        W14235  44.786   3.748  13.975
42620W        W14236   8.654  10.643   1.802
42621W        W14237  29.076  14.945  14.634
42622W        W14238  22.239  34.676  10.832
42623W        W14239  11.281  19.625  11.621
42624W        W14240  14.668  32.034  14.567
42625W        W14241   2.895   5.642   2.301
42626W        W14242  26.978  19.958   4.769
42627W        W14243  12.405   2.933  14.732
42628W        W14244   9.755   5.465  13.023
42629W        W14245  10.906  23.404   3.185
42630W        W14246  40.413  37.780   2.643
42631W        W14247  41.725   2.315   2.227
42632W        W14248  24.440  29.122   0.087
42633W        W14249  19.690  26.899   1.101
42634W        W14250  26.686  44.951  13.869
42635W        W14251   0.904   1.965   3.749
42636W        W14252  14.824  41.551  13.090
42637W        W14253  38.534  33.675   2.307
42638W        W14254  12.260  10.170   1.405
42639W        W14255  38.458  16.720  12.225
42640W        W14256  13.071  20.240  10.498
42641W        W14257  35.098  12.064   0.433
42642W        W14258  32.713  38.430   3.673
42643W        W14259  40.996  41.174   3.202
42644W        W14260  39.783  35.153   1.606
42645W        W14261   2.336  11.344  13.439
42646W        W14262  35.972  12.300  11.591
42647W        W14263  34.595   8.366   2.284
42648W        W14264  30.046  35.543  12.064
42649W        W14265  22.672  41.282   0.281
42650W        W14266   0.975  33.428   0.712
42651W        W14267   8.379  41.886   4.544
42652W        W14268  15.943  29.775  11.250
42653W        W14269  44.817   4.198  14.891
42654W        W14270   2.793  18.214   0.549
42655W        W14271  24.744  28.185   3.966
42656W        W14272   1.691  11.312  14.427
42657W        W14273  14.069  34.950   1.861
42658W        W14274  43.750  36.745   4.210
42659W        W14275  31.103  10.354   3.266
42660W        W14276  21.230   3.734   2.185
42661W        W14277   6.925  20.089  10.603
42662W        W14278  42.690   3.484  11.784
42663W        W14279  42.363  38.747  10.563
42664W        W14280  39.525  29.062   2.423
42665W        W14281   8.773  28.405   2.631
42666W        W14282  10.727   3.358  14.782
42667W        W14283  42.459   8.885   4.023
42668W        W14284   0.716  25.989   1.340
42669W        W14285   5.320   1.439  14.436
42670W        W14286  28.195  29.585  12.053
42671W        W14287  32.046   9.973   0.798
42672W        W14288  24.136  44.915   2.966
42673W        W14289  31.973  39.860  12.704
42674W        W14290   6.235   9.299   2.178
42675W        W14291  37.476   0.630   4.590
42676W        W14292  11.399  41.844  11.647
42677W        W14293  36.307  18.687  12.958
42678W        W14294  23.876  35.168  11.966
42679W        W14295  36.597  37.389   1.401
42680W        W14296  42.760  27.482  13.062
42681W        W14297  15.124  22.974   4.169
42682W        W14298  24.554   1.808  12.999
42683W        W14299  40.796  10.896  12.028
42684W        W14300  39.366  18.111   4.674
42685W        W14301  12.934  26.330   4.854
42686W        W14302   9.218  22.086  12.123
42687W        W14303   9.595  35.152  11.699
42688W        W14304  42.300  23.033  10.338
42689W        W14305  11.127  30.047  12.160
42690W        W14306  38.053   6.556  11.992
42691W        W14307  26.337  17.646   1.229
42692W        W14308  35.434  13.837  12.716
42693W        W14309  33.035  40.021  12.965
42694W        W14310  34.714  29.144   3.558
42695W        W14311  34.357   1.273   1.251
42696W        W14312  19.071  43.731   3.116
42697W        W14313  24.662  10.763   1.909
42698W        W14314   2.681   8.370   4.453
42699W        W14315  12.759  23.145   0.918
42700W        W14316  14.793  29.117  12.554
42701W        W14317  19.006  26.742  12.508
42702W        W14318  14.563   3.729  13.798
42703W        W14319  31.840  14.211   1.425
42704W        W14320  40.489  15.236   0.526
42705W        W14321  19.472  13.160  12.399
42706W        W14322  37.276  15.109  10.436
42707W        W14323  39.404  26.744  14.364
42708W        W14324  29.992  39.357  13.573
42709W        W14325  30.177  25.624  12.040
42710W        W14326  22.913  38.364  13.882
42711W        W14327  30.454  40.112   1.677
42712W        W14328  21.691   9.813  10.886
42713W        W14329  24.535  43.534  14.314
42714W        W14330  39.840  19.313   3.723
42715W        W14331   6.444  15.308  13.086
42716W        W14332  43.477  13.828  13.470
42717W        W14333  19.268   4.134  11.538
42718W        W14334   3.800  22.616   3.320
42719W        W14335  10.307  33.798  14.031
42720W        W14336  22.532  27.692  11.718
42721W        W14337  16.269  29.231  11.323
42722W        W14338  39.574  21.984  12.123
42723W        W14339  42.832  38.589   5.618
42724W        W14340  13.865  28.410  12.892
42725W        W14341  44.182  28.414   0.206
42726W        W14342  10.314   5.695  12.049
42727W        W14343  12.142   4.246  12.374
42728W        W14344  33.931  14.532   2.523
42729W        W14345   5.139   7.221   0.318
42730W        W14346   7.014  34.759   3.650
42731W        W14347  38.110   7.037   0.718
42732W        W14348  23.621  36.806  11.173
42733W        W14349  22.257  20.223   3.777
42734W        W14350  28.581  30.673  11.899
42735W        W14351  14.418  29.816   1.646
42736W        W14352  42.404   4.335  11.964
42737W        W14353  11.422  20.699   4.043
42738W        W14354   3.595  36.905  13.465
42739W        W14355   9.748  30.541  14.073
42740W        W14356   9.092  36.358   5.008
42741W        W14357  23.292  35.873   0.874
42742W        W14358  12.145   0.556   0.468
42743W        W14359  42.916  40.835  12.541
42744W        W14360  39.088   6.420  14.023
42745W        W14361  27.634  27.852  11.875
42746W        W14362  41.941  41.614  14.442
42747W        W14363  39.171  11.378  12.418
42748W        W14364  15.165  19.117  10.883
42749W        W14365  44.880   4.606  10.619
42750W        W14366  17.375   6.295   2.787
42751W        W14367  25.046   6.410   0.839
42752W        W14368  31.846  27.237  10.158
42753W        W14369  10.457   9.360  12.901
42754W        W14370  30.653  11.079   0.821
42755W        W14371  35.449  44.367  13.574
42756W        W14372   1.776  25.594   3.798
42757W        W14373   4.406  36.832  12.182
42758W        W14374  43.397  25.687   4.801
42759W        W14375  41.015   5.051   4.125
42760W        W14376   8.259  19.792  14.264
42761W        W14377  36.488  40.433  12.473
42762W        W14378  44.676  28.679  13.799
42763W        W14379  40.402  43.548  13.054
42764W        W14380  44.268   1.431  12.104
42765W        W14381  34.652  24.088  13.075
42766W        W14382  32.037  19.003   0.841
42767W        W14383  20.709  22.629   4.134
42768W        W14384   0.605  32.320   2.018
42769W        W14385   0.739  23.710   5.353
42770W        W14386  18.064  10.602   3.255
42771W        W14387  24.956  36.066   1.967
42772W        W14388  16.183   4.825   1.462
42773W        W14389  26.234  44.537  12.558
42774W        W14390  30.658  26.485   1.638
42775W        W14391  35.465  37.061  11.525
42776W        W14392  36.975   8.947   1.823
42777W        W14393  35.606  41.410   1.231
42778W        W14394  44.125  40.559   0.157
42779W        W14395  26.751  40.481   5.123
42780W        W14396  41.450  27.429  14.867
42781W        W14397  17.088   3.278  11.902
42782W        W14398  15.887  16.169   2.909
42783W        W14399  11.329  23.944   1.986
42784W        W14400  12.291  23.703   1.796
42785W        W14401  19.703  35.634   2.856
42786W        W14402  38.764  26.445   2.252
42787W        W14403   8.235  18.623  12.934
42788W        W14404  13.329  21.262   1.362
42789W        W14405  17.525  14.046  10.569
42790W        W14406  41.444   0.745   4.058
42791W        W14407  16.273  20.670   0.212
42792W        W14408   9.245  30.975   4.505
42793W        W14409   3.686  17.137   1.328
42794W        W14410   3.890  22.031   5.004
42795W        W14411  26.459  33.966   2.786
42796W        W14412  25.607  23.923  12.590
42797W        W14413  31.263  27.672  12.441
42798W        W14414   9.490  21.123   3.043
42799W        W14415  44.165  33.324   2.836
42800W        W14416  18.116   0.923   3.390
42801W        W14417   2.469   2.959   1.822
42802W        W14418  21.210  16.834  11.218
42803W        W14419  22.313  28.716  12.495
42804W        W14420   5.130  32.536   3.155
42805W        W14421  18.931  31.665   1.871
42806W        W14422  18.688  44.726  12.460
42807W        W14423  21.723   5.970  11.053
42808W        W14424  31.364   7.214   1.887
42809W        W14425  29.873  15.282   3.717
42810W        W14426   8.432   5.467  11.730
42811W        W14427  29.661  35.061  11.225
42812W        W14428  31.867   6.503   1.023
42813W        W14429   5.231  27.730  13.489
42814W        W14430  21.325  35.070   0.394
42815W        W14431  41.017  38.817  13.381
42816W        W14432  22.576  18.017   0.360
42817W        W14433  34.988   3.921   3.235
42818W        W14434  16.105  36.553  13.541
42819W        W14435  15.283  20.096  11.700
42820W        W14436  20.703  44.253  11.537
42821W        W14437  29.082  32.795  13.137
42822W        W14438  28.204  31.515   1.968
42823W        W14439  26.810   3.739  11.845
42824W        W14440   2.097  28.472  12.257
42825W        W14441  41.229  43.812  14.873
42826W        W14442  32.643   6.951  14.004
42827W        W14443  39.460  42.919  10.698
42828W        W14444  29.389  30.976  13.744
42829W        W14445  13.025  39.159  12.689
42830W        W14446  35.095  34.447   2.068
42831W        W14447  29.588  11.397   2.741
42832W        W14448  11.201  11.876   1.762
42833W        W14449  10.712   5.957   3.635
42834W        W14450   3.883   5.252  10.433
42835W        W14451  44.910   0.803  13.806
42836W        W14452   3.650   3.540   2.217
42837W        W14453   8.254   1.502  12.566
42838W        W14454  22.219  39.906   3.329
42839W        W14455  19.023  18.594   2.846
42840W        W14456  30.602  40.639   0.209
42841W        W14457  26.675  34.661   2.112
42842W        W14458  13.636  38.407   2.895
42843W        W14459  13.315  21.450  12.366
42844W        W14460   4.045  18.917  12.458
42845W        W14461  38.565  36.918  11.462
42846W        W14462  27.559  25.143   0.325
42847W        W14463  42.391  14.693   2.797
42848W        W14464  41.878   4.777  14.372
42849W        W14465   3.921  43.225   3.365
42850W        W14466  16.042  16.954   4.946
42851W        W14467  20.644  31.590  12.819
42852W        W14468  43.790  10.711   1.383
42853W        W14469  37.796  20.719   1.773
42854W        W14470  14.367   0.330   3.628
42855W        W14471  40.113   3.173   1.357
42856W        W14472  26.474  18.892   2.365
42857W        W14473  35.886   1.367   0.269
42858W        W14474  28.706  19.247   1.380
42859W        W14475  21.964   4.894  13.713
42860W        W14476  44.887  12.080  11.857
42861W        W14477  33.540  32.477   2.347
42862W        W14478  20.365  42.324   5.046
42863W        W14479   7.374  33.837  10.375
42864W        W14480  16.584  19.902   0.859
42865W        W14481   6.596  22.596   0.925
42866W        W14482  43.967  43.079   0.801
42867W        W14483  21.198  19.076  11.555
42868W        W14484  29.963  11.622   0.134
42869W        W14485   4.667  16.382  14.602
42870W        W14486  38.620  42.951   2.183
42871W        W14487   5.496  34.656  10.889
42872W        W14488  26.683  35.425   1.037
42873W        W14489  18.809   0.480   3.137
42874W        W14490  13.317   8.505  13.605
42875W        W14491  18.450  27.747  11.993
42876W        W14492  26.583  43.062   2.574
42877W        W14493   8.107  10.110   3.741
42878W        W14494  34.897  13.612   2.598
42879W        W14495   4.187  10.416   0.251
42880W        W14496   8.209   1.262   2.377
42881W        W14497  29.130  12.751   3.123
42882W        W14498   6.514  19.717  14.253
42883W        W14499   2.232  17.019   0.384
42884W        W14500  37.510  38.207  12.375
42885W        W14501  29.617  22.246   3.838
42886W        W14502  44.764  30.600   0.454
42887W        W14503  44.582  26.617  12.115
42888W        W14504  16.772  21.236   0.394
42889W        W14505   9.152  13.989  10.726
42890W        W14506  10.825  10.466  13.486
42891W        W14507   2.369   6.399   2.407
42892W        W14508   5.925  38.991  13.874
42893W        W14509   7.642  15.712  11.629
42894W        W14510  41.840  11.361  12.565
42895W        W14511   0.850  32.334   3.200
42896W        W14512  41.502  19.182   0.453
42897W        W14513  43.990  22.184  14.476
42898W        W14514  20.289  29.487   0.444
42899W        W14515  33.496  11.047  11.143
42900W        W14516  22.330  10.441  10.571
42901W        W14517   3.099  23.603  13.957
42902W        W14518  10.703   0.739  10.255
42903W        W14519   6.803  37.598  12.816
42904W        W14520   5.368  43.028   2.292
42905W        W14521   4.296  22.508  12.469
42906W        W14522  29.532   1.511  13.060
42907W        W14523   0.912  23.226   4.128
42908W        W14524  30.453  31.920   0.069
42909W        W14525  22.684  33.587  12.416
42910W        W14526   3.308   9.830  12.479
42911W        W14527  43.434  32.567  12.835
42912W        W14528  43.460   2.990  12.008
42913W        W14529  15.203   1.656   0.770
42914W        W14530  37.348  10.982   3.310
42915W        W14531  41.070  10.634   0.433
42916W        W14532   6.567  38.813   4.555
42917W        W14533  22.602  34.391  12.893
42918W        W14534  35.151  27.442   3.469
42919W        W14535  36.096   5.221  12.332
42920W        W14536  37.639  28.419  10.427
42921W        W14537  23.651  14.693  12.094
42922W        W14538  10.726  44.248   1.876
42923W        W14539  37.579   0.921  10.883
42924W        W14540  43.514  42.074   3.895
42925W        W14541  25.166   2.878  12.079
42926W        W14542  42.879  41.457  12.875
42927W        W14543   4.752  19.129  11.151
42928W        W14544  33.522   3.078  12.925
42929W        W14545  35.100   2.232  12.872
42930W        W14546  21.769  20.670   3.151
42931W        W14547  42.466   3.282  11.033
42932W        W14548  31.148  18.589  14.748
42933W        W14549  34.007  40.109  13.343
42934W        W14550   9.088  28.642   4.162
42935W        W14551  40.341  28.895   2.097
42936W        W14552   9.684  34.859   4.089
42937W        W14553  39.964  11.948  14.090
42938W        W14554  25.239  13.505  11.614
42939W        W14555  38.079  36.025   3.702
42940W        W14556  36.003  40.807   3.620
42941W        W14557   5.537  37.135  13.117
42942W        W14558  14.615   0.818  14.894
42943W        W14559  21.035  15.351   3.637
42944W        W14560  44.225   8.645   1.484
42945W        W14561  12.675  13.857  13.576
42946W        W14562   2.416   3.779   0.712
42947W        W14563  18.059  20.207  11.227
42948W        W14564  18.102  34.946  12.046
42949W        W14565  33.514  23.015  10.971
42950W        W14566  38.615  20.728   1.546
42951W        W14567  39.037  25.675   1.192
42952W        W14568  39.806  17.656   3.792
42953W        W14569  21.946  40.465   2.676
42954W        W14570  11.835   3.006  12.078
42955W        W14571   6.105  35.888   1.529
42956W        W14572  43.938  19.230   0.442
42957W        W14573   8.957  27.008   3.767
42958W        W14574  31.507  25.161   2.411
42959W        W14575  10.027  31.603   4.609
42960W        W14576  14.304  22.304   0.829
42961W        W14577  17.263   0.686  13.436
42962W        W14578  34.446   0.826  13.111
42963W        W14579   4.932  17.114  10.625
42964W        W14580  32.019   8.201   2.183
42965W        W14581  16.718  32.623  14.970
42966W        W14582   8.896   8.776   2.192
42967W        W14583  12.861  30.368   0.884
42968W        W14584  13.911  31.307  14.386
42969W        W14585  36.224  25.098  10.188
42970W        W14586  29.715   7.691  12.473
42971W        W14587  13.346  27.461  14.489
42972W        W14588   8.156  44.878   4.616
42973W        W14589  20.543  13.925  12.816
42974W        W14590  12.320  38.931   2.632
42975W        W14591  41.811   6.441  13.196
42976W        W14592   8.242  20.534   2.267
42977W        W14593  10.424  21.091   2.785
42978W        W14594  40.473  41.290   0.837
42979W        W14595  22.782  10.121  14.896
42980W        W14596   7.823  34.333   3.892
42981W        W14597  22.327  41.883  10.296
42982W        W14598  15.734  40.314   4.681
42983W        W14599   3.324   7.851  11.102
42984W        W14600  38.835   9.747  10.567
42985W        W14601  39.453  16.833  12.019
42986W        W14602  13.532   8.795   2.187
42987W        W14603   8.870  35.430   4.203
42988W        W14604  32.083   6.988   2.920
42989W        W14605  22.229  30.197  12.538
42990W        W14606  10.857  17.927   1.801
42991W        W14607   9.206  28.657   1.890
42992W        W14608  19.777   5.993   1.969
42993W        W14609   7.220  36.300   4.581
42994W        W14610  32.912  26.413   4.381
42995W        W14611  30.020   3.315  12.071
42996W        W14612   5.926  15.651   4.459
42997W        W14613  33.981  25.166   0.707
42998W        W14614  32.641  10.805   1.932
42999W        W14615   2.471  21.974   3.372
43000W        W14616  21.312  28.229  12.982
43001W        W14617  19.736  11.380  12.404
43002W        W14618  41.559  13.319  10.810
43003W        W14619  43.804   7.703  12.260
43004W        W14620  41.441  11.155   3.078
43005W        W14621  21.663   2.374  10.728
43006W        W14622  18.779  36.111  14.437
43007W        W14623  31.905  44.726   2.891
43008W        W14624  16.825  21.857  13.254
43009W        W14625   7.703   4.709   5.043
43010W        W14626  14.527  22.260  11.942
43011W        W14627   0.772  15.651  13.501
43012W        W14628   1.791  43.374   4.616
43013W        W14629   3.721  23.159   2.591
43014W        W14630  27.825  15.812  10.647
43015W        W14631  17.640  39.318  10.693
43016W        W14632  22.501  25.079  10.680
43017W        W14633  40.342  36.599  12.439
43018W        W14634  40.029  15.134   4.556
43019W        W14635   1.889  11.853  11.962
43020W        W14636  41.857  30.599  12.100
43021W        W14637   8.225  28.182   0.884
43022W        W14638  32.584  28.620   2.287
43023W        W14639  13.200   6.212  12.690
43024W        W14640   0.079  39.557  13.868
43025W        W14641  42.150  24.086   5.126
43026W        W14642  30.371  17.948   1.944
43027W        W14643  44.343  26.709  11.639
43028W        W14644  41.390  36.938  12.981
43029W        W14645  25.197   0.003  11.515
43030W        W14646   2.927   3.793   0.629
43031W        W14647  41.617  22.238   1.647
43032W        W14648  37.427   4.557   0.896
43033W        W14649  35.932  36.874  13.358
43034W        W14650  18.174  34.801  14.464
43035W        W14651  26.008  19.748  13.519
43036W        W14652   3.307  20.543   3.663
43037W        W14653  22.853  35.182   3.683
43038W        W14654   4.309  22.162   0.443
43039W        W14655  12.609  25.690   3.769
43040W        W14656  26.121  44.955   4.090
43041W        W14657  15.099  20.233   0.552
43042W        W14658  21.815  17.588  12.786
43043W        W14659  15.194  24.532  13.525
43044W        W14660  27.019  30.379   2.497
43045W        W14661  24.157  18.391   1.212
43046W        W14662  31.112  28.980  12.843
43047W        W14663  38.427  35.554  11.839
43048W        W14664  18.816  28.703  11.001
43049W        W14665  34.900  18.591   2.753
43050W        W14666  17.471  16.208  11.708
43051W        W14667  31.463  22.615   2.894
43052W        W14668   1.971  27.167  14.899
43053W        W14669  39.609  16.904   1.345
43054W        W14670  18.057  24.672   4.596
43055W        W14671   8.369  38.645   1.409
43056W        W14672  20.606  41.308   3.292
43057W        W14673  13.220  19.087   3.641
43058W        W14674  17.554  17.778  11.482
43059W        W14675  43.136  16.744  14.924
43060W        W14676  11.313  23.746   3.311
43061W        W14677  26.484  13.760   2.352
43062W        W14678  25.081  39.984  14.545
43063W        W14679  32.419  18.740  11.497
43064W        W14680  29.100  40.233  13.924
43065W        W14681  39.903  13.573  10.615
43066W        W14682  21.567  29.550   3.591
43067W        W14683   4.219  25.427   2.947
43068W        W14684  25.876  22.301  10.339
43069W        W14685  41.054  25.509  13.419
43070W        W14686   0.283  41.398   0.506
43071W        W14687  27.170   0.881   0.339
43072W        W14688   6.536  22.574   5.003
43073W        W14689  25.714  12.354  14.587
43074W        W14690  24.742  39.327  14.287
43075W        W14691  24.201  23.555   2.268
43076W        W14692   7.829  39.485   2.820
43077W        W14693  10.265  23.103   1.503
43078W        W14694  27.931  18.768   0.695
43079W        W14695  26.765  29.888   0.739
43080W        W14696  34.994  25.975   2.858
43081W        W14697  31.044   0.529   1.267
43082W        W14698  42.082  44.590  12.095
43083W        W14699  22.094  13.382   4.868
43084W        W14700  18.047  44.236   4.960
43085W        W14701  33.072   5.227   1.510
43086W        W14702  26.922   3.450  10.256
43087W        W14703   6.272  39.533   1.716
43088W        W14704  28.965  10.762  10.815
43089W        W14705  34.848   8.324  11.956
43090W        W14706  42.972  39.614   0.411
43091W        W14707  44.233   1.704   0.233
43092W        W14708  18.196  21.531  10.967
43093W        W14709  20.090  16.135   2.847
43094W        W14710  37.833   1.680  12.214
43095W        W14711  22.369  40.357   1.724
43096W        W14712  27.562  18.160   0.256
43097W        W14713   7.721  44.847   1.982
43098W        W14714  31.415  44.264  13.321
43099W        W14715  14.342  25.646   3.611
43100W        W14716  37.999  32.514   1.961
43101W        W14717  32.109   0.702  10.657
43102W        W14718  38.017  16.207  12.852
43103W        W14719  27.053  22.224  13.781
43104W        W14720  21.202   4.767   2.248
43105W        W14721  28.044   1.362   0.226
43106W        W14722  36.917   5.811   4.265
43107W        W14723  12.691  38.507  10.716
43108W        W14724  32.174   1.771   0.497
43109W        W14725  43.181  32.665  11.223
43110W        W14726  27.915  13.149   4.054
43111W        W14727  38.886   0.001   4.246
43112W        W14728  27.126  29.127   4.286
43113W        W14729   4.902  13.428   1.015
43114W        W14730   3.037  31.059   1.767
43115W        W14731  18.439  41.631  11.152
43116W        W14732   6.079  35.622  14.006
43117W        W14733  41.002  18.322   3.407
43118W        W14734  22.637  29.955  12.080
43119W        W14735  18.541  25.705   4.554
43120W        W14736  34.789  30.997  10.445
43121W        W14737  36.604  41.615  13.814
43122W        W14738  37.776  35.522  13.261
43123W        W14739  29.609  41.324   5.234
43124W        W14740  35.044  43.389   2.520
43125W        W14741  27.640  25.262   1.788
43126W        W14742   8.105   4.137  11.913
43127W        W14743  15.687   5.703   3.722
43128W        W14744  25.685  42.287   3.432
43129W        W14745   5.915  22.963   3.695
43130W        W14746  21.043   4.254   4.210
43131W        W14747  27.891  12.717  12.948
43132W        W14748   5.966  35.414   2.190
43133W        W14749  39.237  31.586   0.942
43134W        W14750   5.884  32.861   2.707
43135W        W14751  15.346  21.171  10.460
43136W        W14752  10.941  26.073   3.256
43137W        W14753   7.221  36.118   4.092
43138W        W14754  12.206   8.809  11.245
43139W        W14755  16.991  27.651   3.800
43140W        W14756  42.838  42.679   2.822
43141W        W14757  13.138  41.240   1.258
43142W        W14758  39.385  21.704   1.882
43143W        W14759  16.600  23.740   2.274
43144W        W14760  19.657   0.699   1.712
43145W        W14761  33.913  13.839  13.925
43146W        W14762  10.878  33.348  10.638
43147W        W14763  15.003  42.351   1.361
43148W        W14764   8.083  34.525   1.410
43149W        W14765  41.626  39.263   1.931
43150W        W14766  37.339   8.928  12.698
43151W        W14767  42.265  13.321   0.715
43152W        W14768  42.482   3.850   1.242
43153W        W14769   4.267  29.130  13.495
43154W        W14770   5.851  43.442  10.569
43155W        W14771  37.018   5.710  10.680
43156W        W14772  14.493  21.097   1.962
43157W        W14773  22.203  43.026  12.892
43158W        W14774  41.294  21.108   3.555
43159W        W14775   2.280  29.453  12.996
43160W        W14776  36.453  23.923  12.115
43161W        W14777   1.789  29.348   1.888
43162W        W14778   3.604  11.162  12.841
43163W        W14779  42.275  41.337   0.410
43164W        W14780  16.075   3.590   4.607
43165W        W14781  13.076  19.792  10.121
43166W        W14782  30.603  26.966  13.425
43167W        W14783   0.793  38.495   3.676
43168W        W14784  42.134  21.818  11.253
43169W        W14785  24.269   0.846   3.034
43170W        W14786   7.874  37.334   3.586
43171W        W14787   6.759  19.585  13.284
43172W        W14788  29.435  41.438   0.556
43173W        W14789  12.183  20.587  14.962
43174W        W14790  42.437  16.347   1.874
43175W        W14791  27.607  13.908   2.464
43176W        W14792  35.583  14.649  12.484
43177W        W14793  23.553  40.456   4.686
43178W        W14794  25.535  17.907   0.222
43179W        W14795  12.488   3.735   3.730
43180W        W14796  33.957  31.388   3.695
43181W        W14797  42.793  27.591  10.727
43182W        W14798  10.001  42.976   4.037
43183W        W14799   0.689  26.518   1.324
43184W        W14800  14.855  40.289  10.031
43185W        W14801  37.583   2.489   2.710
43186W        W14802   2.742  32.867  12.991
43187W        W14803  11.422  34.443  10.748
43188W        W14804   6.363  12.014  12.450
43189W        W14805  10.774  39.323  11.302
43190W        W14806  40.886  11.735   2.963
43191W        W14807  18.515  10.850   2.303
43192W        W14808  23.123   0.375   3.289
43193W        W14809  37.924  40.713   2.796
43194W        W14810   4.367  28.513   0.796
43195W        W14811  28.947  34.987   0.778
43196W        W14812  35.588  17.659  13.532
43197W        W14813   5.796   6.560   0.804
43198W        W14814  24.561  11.227   4.618
43199W        W14815   2.020  16.582   4.250
43200W        W14816  16.717   1.650  11.198
43201W        W14817  41.569  16.729   2.822
43202W        W14818  37.709   5.906  13.617
43203W        W14819  13.825  18.071   1.892
43204W        W14820  19.726   3.105   5.067
43205W        W14821  31.690  41.040   1.829
43206W        W14822   1.061   4.695  10.259
43207W        W14823  19.143  25.530   1.630
43208W        W14824  28.428   1.501  13.386
43209W        W14825  27.698  44.427  14.304
43210W        W14826   8.275   6.265   4.571
43211W        W14827   3.202  11.797  14.822
43212W        W14828  23.729  31.966  10.149
43213W        W14829   4.716  36.238   0.771
43214W        W14830  33.537  14.208   0.031
43215W        W14831   1.070  29.167   3.717
43216W        W14832  14.320  10.253  14.697
43217W        W14833  17.061  22.171   3.919
43218W        W14834  10.522  22.763  13.341
43219W        W14835  29.659  17.721  12.591
43220W        W14836  43.480  16.795  11.523
43221W        W14837   5.149  24.864  11.086
43222W        W14838  28.435  27.556  11.927
43223W        W14839   6.419  10.240  11.961
43224W        W14840   0.450  32.237   2.832
43225W        W14841  32.010  43.454   0.705
43226W        W14842  25.168  38.006  14.988
43227W        W14843   2.503   5.756  13.965
43228W        W14844  22.127  39.329  10.787
43229W        W14845  37.910  32.573  13.424
43230W        W14846  44.373  34.491   0.746
43231W        W14847  19.752  16.054   1.863
43232W        W14848  15.696  44.465  11.017
43233W        W14849  43.342  12.334   3.266
43234W        W14850  21.256  16.396  14.538
43235W        W14851  38.334  12.634  13.523
43236W        W14852   3.322   5.320   2.250
43237W        W14853  20.869  20.809   3.638
43238W        W14854   3.849   6.848   1.371
43239W        W14855  28.150   4.423   3.716
43240W        W14856  12.918  44.019   2.706
43241W        W14857  13.833  26.941   2.081
43242W        W14858  28.086   6.988  14.467
43243W        W14859  16.401  11.853   2.956
43244W        W14860   8.465  43.823  11.099
43245W        W14861  41.865  14.084   4.800
43246W        W14862   5.637  37.161   0.788
43247W        W14863  21.940  43.589  11.962
43248W        W14864  27.288  32.318  10.578
43249W        W14865  16.032  30.352  11.991
43250W        W14866  20.709   7.194   0.778
43251W        W14867  21.635  44.773   0.946
43252W        W14868  33.561   0.725  14.077
43253W        W14869   6.967  42.788  14.372
43254W        W14870  25.751  21.033  14.898
43255W        W14871   2.919  29.528  12.632
43256W        W14872   7.794  27.914   0.957
43257W        W14873   4.368  19.980   1.033
43258W        W14874  32.888  25.584  11.175
43259W        W14875  11.345  32.963  12.519
43260W        W14876  29.714  33.224   3.621
43261W        W14877   8.576  30.559   2.830
43262W        W14878  25.913  15.555  13.556
43263W        W14879  13.315  33.950  10.543
43264W        W14880   6.926  11.756  14.276
43265W        W14881   5.759  30.160   1.270
43266W        W14882  19.768  29.680   1.815
43267W        W14883  22.234  25.232  13.960
43268W        W14884   4.511  28.630   4.268
43269W        W14885  13.837  34.504   0.742
43270W        W14886  40.399  42.901  11.014
43271W        W14887  19.308  34.286  13.933
43272W        W14888  20.598   5.734  11.666
43273W        W14889   2.778  25.125  13.983
43274W        W14890  11.137  30.474   1.905
43275W        W14891  11.373   6.476  11.558
43276W        W14892   0.666  19.067  11.533
43277W        W14893  43.283  20.908   2.783
43278W        W14894  22.203  23.880   0.487
43279W        W14895  18.221  13.155  12.797
43280W        W14896  19.954   5.723  10.358
43281W        W14897  24.950  25.093  11.514
43282W        W14898  40.004  12.183   4.646
43283W        W14899  27.666  35.358  13.894
43284W        W14900  17.236  14.442  10.219
43285W        W14901  19.857  33.430   1.800
43286W        W14902   8.256  17.100   4.147
43287W        W14903  27.247  38.543   3.829
43288W        W14904   6.418  38.943   0.449
43289W        W14905  41.012   5.247   1.129
43290W        W14906  33.702  17.174  10.445
43291W        W14907  20.988   9.169  12.920
43292W        W14908  30.133  34.648  12.513
43293W        W14909  17.120  39.737   1.789
43294W        W14910   7.749  29.911   1.400
43295W        W14911  31.761   9.945  11.667
43296W        W14912  11.810  35.396  14.437
43297W        W14913  26.537  10.368   0.605
43298W        W14914  14.899  29.612  12.639
43299W        W14915  15.206  14.037   4.201
43300W        W14916  21.671   9.086  13.502
43301W        W14917  15.858  17.248  13.362
43302W        W14918   5.659  11.785   2.374
43303W        W14919   9.850  11.722  12.317
43304W        W14920  31.626  35.586   3.173
43305W        W14921   4.881  25.338  11.056
43306W        W14922   7.664  36.605   1.232
43307W        W14923  21.212  34.343   0.039
43308W        W14924  12.786  35.056  13.472
43309W        W14925  31.421  34.350   4.304
43310W        W14926  27.955  11.555  11.516
43311W        W14927   1.178  23.620  14.682
43312W        W14928  40.895  32.351   1.789
43313W        W14929  41.012   4.805  13.561
43314W        W14930  40.607  28.891  12.157
43315W        W14931  18.269  22.231  11.548
43316W        W14932  28.489  30.716   2.442
43317W        W14933  29.659   6.217  14.042
43318W        W14934  21.518  14.278  14.336
43319W        W14935  23.178  29.698   1.265
43320W        W14936  43.921   2.714   3.321
43321W        W14937  32.909  28.485  12.501
43322W        W14938   9.172  19.802   4.206
43323W        W14939  12.084   7.804   0.673
43324W        W14940  39.930  21.037  13.004
43325W        W14941  28.374  30.026  11.846
43326W        W14942  33.029  23.696  14.044
43327W        W14943  44.470  29.377  14.033
43328W        W14944  34.774  17.435   3.660
43329W        W14945   6.719   9.852   3.422
43330W        W14946  26.198  30.107   1.878
43331W        W14947  30.699  38.914  13.395
43332W        W14948  32.151   2.329   3.739
43333W        W14949   1.838   0.753  13.483
43334W        W14950   3.024  24.947   2.702
43335W        W14951  37.800   4.335   3.811
43336W        W14952   6.459   7.472  14.897
43337W        W14953  30.167  10.289   3.139
43338W        W14954  33.088  25.643  12.410
43339W        W14955   8.671  14.857  14.026
43340W        W14956  35.862  15.657  12.169
43341W        W14957  10.053  23.531   3.411
43342W        W14958  12.193   7.426   2.643
43343W        W14959   1.136  25.249   0.316
43344W        W14960  38.344  24.476  13.811
43345W        W14961  23.040   6.369  14.611
43346W        W14962  30.006  10.717   4.531
43347W        W14963   6.773  16.503  13.045
43348W        W14964  42.972   7.142   2.262
43349W        W14965   4.260  40.019  11.566
43350W        W14966  32.035  39.041  14.055
43351W        W14967  23.027  42.227  12.316
43352W        W14968  25.518  34.597  13.024
43353W        W14969   7.822  44.938  10.695
43354W        W14970   4.149   8.405  12.952
43355W        W14971  21.813   9.852   4.189
43356W        W14972   6.143   2.247  11.921
43357W        W14973   6.731  23.057  13.582
43358W        W14974  11.762  44.606   5.107
43359W        W14975  23.018  13.009   4.679
43360W        W14976   5.254  27.220   3.753
43361W        W14977  38.022  42.105  10.746
43362W        W14978  21.878  26.910   3.861
43363W        W14979  11.723  27.047   0.283
43364W        W14980   3.755  15.255   0.253
43365W        W14981  31.425  23.799   3.130
43366W        W14982  30.961  30.956  11.853
43367W        W14983  15.262  39.558   1.466
43368W        W14984  34.466  33.629  14.342
43369W        W14985   6.290  36.868  12.028
43370W        W14986   9.888  25.754   2.269
43371W        W14987  23.907  31.719  11.951
43372W        W14988  41.870  19.305   3.066
43373W        W14989  10.125  31.905   3.128
43374W        W14990  40.065  23.637   0.332
43375W        W14991  25.335  12.286  14.935
43376W        W14992  13.674  31.559   0.635
43377W        W14993  10.153  10.819  14.432
43378W        W14994  40.998  13.057  11.966
43379W        W14995  38.631  33.889   4.200
43380W        W14996   7.215   5.264  10.424
43381W        W14997   6.017  24.251   4.208
43382W        W14998  13.078  10.908  11.081
43383W        W14999  23.274  12.363   1.796
43384W        W15000  30.892  22.575   2.655
43385W        W15001  29.423  44.799   4.626
43386W        W15002  21.351  21.623   3.188
43387W        W15003  26.982  30.707  14.017
43388W        W15004  17.380   3.917  12.621
43389W        W15005  10.626  25.836   3.608
43390W        W15006  21.318  37.117  14.484
43391W        W15007  43.783  16.265  10.541
43392W        W15008  36.293  18.818   1.191
43393W        W15009   5.465  12.661   2.750
43394W        W15010  31.054  16.920  13.929
43395W        W15011  30.346  24.858   3.637
43396W        W15012   8.091   9.647  12.264
43397W        W15013  19.240   1.428  10.709
43398W        W15014  42.679  21.790  11.282
43399W        W15015   1.454  16.191  10.545
43400W        W15016  12.781   1.777   3.381
43401W        W15017  41.884  35.000  12.179
43402W        W15018   2.764  11.266  11.596
43403W        W15019  43.148  20.394   2.773
43404W        W15020   6.292  13.867  11.991
43405W        W15021  16.600  16.531   4.144
43406W        W15022  42.970  29.193   0.481
43407W        W15023  28.697   0.928   2.336
43408W        W15024  34.544   6.451   0.445
43409W        W15025  10.346  40.494  11.345
43410W        W15026   2.711  33.985  13.892
43411W        W15027  21.708  27.879   0.075
43412W        W15028   2.672  11.883   0.315
43413W        W15029  15.960  35.354  10.644
43414W        W15030  33.282  30.566  11.443
43415W        W15031  30.663  38.076  13.330
43416W        W15032   7.357  25.416   1.674
43417W        W15033  20.814  44.427   4.540
43418W        W15034  42.019  21.465   2.383
43419W        W15035  41.782  41.388  11.116
43420W        W15036  21.311   5.290  10.465
43421W        W15037  16.118  23.154   0.935
43422W        W15038  22.228  31.086  11.104
43423W        W15039  29.448   6.870   4.803
43424W        W15040  34.593   3.226  11.453
43425W        W15041   3.649   8.844   0.542
43426W        W15042  20.487   9.581  12.893
43427W        W15043  32.018  36.540   5.140
43428W        W15044  14.832  11.330   4.125
43429W        W15045  36.117  10.865   1.119
43430W        W15046  12.623   4.412   1.639
43431W        W15047  29.310   1.854   0.753
43432W        W15048  30.555   0.767   1.302
43433W        W15049  17.219   7.427  13.986
43434W        W15050  14.662   1.919   2.461
43435W        W15051  24.503   2.496  13.391
43436W        W15052  18.616  11.988  10.557
43437W        W15053  21.780  15.753  10.663
43438W        W15054  30.373  27.592   0.021
43439W        W15055  27.565   7.032   3.903
43440W        W15056  13.419  34.658   1.429
43441W        W15057  12.790  23.020   3.684
43442W        W15058   9.829  15.065   4.267
43443W        W15059  43.559   3.485  14.294
43444W        W15060   3.965  42.432  13.310
43445W        W15061  36.840  25.285   2.008
43446W        W15062  36.078  34.442  12.867
43447W        W15063  24.738  24.528  10.665
43448W        W15064   0.255  31.975   1.829
43449W        W15065  31.359  40.523  13.520
43450W        W15066  33.955  35.323  11.983
43451W        W15067  34.170  14.026  12.149
43452W        W15068  21.500  21.945   2.343
43453W        W15069  23.508  32.425   4.427
43454W        W15070  41.760  32.204  11.533
43455W        W15071  30.897  37.104   4.868
43456W        W15072  24.599  24.060   1.491
43457W        W15073  31.740  20.712   2.996
43458W        W15074  23.942  32.618   2.369
43459W        W15075  25.990  10.847  11.166
43460W        W15076  42.112  38.371  14.790
43461W        W15077  19.091  40.271   0.000
43462W        W15078  16.764  43.683   9.484
43463W        W15079   8.886  40.882   1.407
43464W        W15080   1.043  10.128  14.332
43465W        W15081  23.922  25.776  13.327
43466W        W15082   7.899   9.775   4.599
43467W        W15083  16.400  34.604   4.273
43468W        W15084  11.217  36.337  13.367
43469W        W15085  37.864  27.405  13.972
43470W        W15086  21.459  31.731   4.948
43471W        W15087  21.685  22.670   4.586
43472W        W15088  17.711  12.108   1.473
43473W        W15089  44.243  44.289   2.490
43474W        W15090  10.602  28.209  13.380
43475W        W15091  34.135   7.745  14.302
43476W        W15092  43.888  23.634   1.227
43477W        W15093   4.889  34.789   0.953
43478W        W15094  41.745   8.825   2.876
43479W        W15095  30.002  15.812  11.700
43480W        W15096  12.112   5.863   0.218
43481W        W15097  14.650  34.677   4.586
43482W        W15098  20.599  25.101  12.454
43483W        W15099  30.447  10.877   2.872
43484W        W15100  20.663   2.755  12.967
43485W        W15101  24.419   0.158   4.414
43486W        W15102   0.449  20.038   1.383
43487W        W15103  28.878   0.463   4.222
43488W        W15104  39.514  10.905   5.038
43489W        W15105  32.580  28.615   3.815
43490W        W15106  11.199  31.768  11.109
43491W        W15107  26.882  11.641   0.440
43492W        W15108  39.445   6.700  10.386
43493W        W15109  14.425  25.218   0.763
43494W        W15110  27.762  21.434   2.673
43495W        W15111   0.807  36.448  10.225
43496W        W15112  26.407  42.958   5.191
43497W        W15113  23.535  38.715  13.963
43498W        W15114  14.805  10.323   0.031
43499W        W15115   2.349   1.201   0.726
43500W        W15116  35.378  34.409  14.418
43501W        W15117   4.337  21.793  13.743
43502W        W15118  42.431  36.279  11.587
43503W        W15119  23.114  34.413   0.394
43504W        W15120   0.915  21.148  12.089
43505W        W15121  15.547  11.189   0.541
43506W        W15122  14.603  30.576   4.517
43507W        W15123  39.933  26.122   4.431
43508W        W15124  15.691  32.188   2.655
43509W        W15125  13.613  31.651  14.152
43510W        W15126  16.054  29.429   1.778
43511W        W15127  41.038  19.144   4.062
43512W        W15128  12.774   2.319   3.319
43513W        W15129  17.277  31.150   4.543
43514W        W15130  41.410  13.975  10.993
43515W        W15131   5.192  14.402   0.989
43516W        W15132  28.117  17.616   2.373
43517W        W15133   0.823  28.267  10.639
43518W        W15134  33.551  23.317  13.419
43519W        W15135  40.384  27.263  11.137
43520W        W15136   7.176  38.922  14.335
43521W        W15137  43.942   8.056   3.735
43522W        W15138  10.086  13.158   1.475
43523W        W15139   1.438   2.458   3.398
43524W        W15140  24.971  37.801   0.442
43525W        W15141  43.922   7.050   3.658
43526W        W15142  16.057   2.971  12.592
43527W        W15143  35.992   9.703  11.340
43528W        W15144  23.096  30.029  14.585
43529W        W15145  42.504  20.117  10.736
43530W        W15146  40.461  39.365  10.477
43531W        W15147  30.423  29.350   1.992
43532W        W15148  12.146  34.642  13.886
43533W        W15149  17.628  42.231  10.661
43534W        W15150  41.533   2.918  14.925
43535W        W15151  16.806  41.903   3.119
43536W        W15152  21.372  13.097   5.100
43537W        W15153  37.249   0.370  11.562
43538W        W15154  26.308  23.657  12.968
43539W        W15155  23.784  32.406  13.055
43540W        W15156   1.710  21.092  10.665
43541W        W15157  19.986   9.744   1.888
43542W        W15158  28.621  27.380   2.848
43543W        W15159  13.709  37.439   0.325
43544W        W15160  42.744  22.464  13.848
43545W        W15161   1.686  30.561   4.740
43546W        W15162   8.353   7.312   2.211
43547W        W15163  28.617  20.764   1.266
43548W        W15164  18.297   5.664  14.012
43549W        W15165   8.929  17.499  13.779
43550W        W15166  38.319  30.375  12.899
43551W        W15167  12.334   0.649   1.466
43552W        W15168  32.173  21.508  13.981
43553W        W15169  40.209   2.787  13.591
43554W        W15170  37.830   4.409   4.361
43555W        W15171  28.969  29.178   4.232
43556W        W15172   6.462  12.230   4.581
43557W        W15173  12.843   4.040  12.898
43558W        W15174  25.676  30.586   2.860
43559W        W15175  38.373  27.157  11.339
43560W        W15176  24.555  23.490  10.713
43561W        W15177  11.687  21.770   4.532
43562W        W15178  32.981  26.118   3.166
43563W        W15179   3.883  30.868   1.890
43564W        W15180   8.111   6.906   2.538
43565W        W15181  21.194  44.883   1.236
43566W        W15182   8.910  35.585  11.521
43567W        W15183  21.569  38.788  11.915
43568W        W15184   3.031  28.304   2.810
43569W        W15185  43.551  11.707  12.659
43570W        W15186  23.933  28.321  11.307
43571W        W15187  16.207  38.959   4.131
43572W        W15188  17.643  11.020   1.612
43573W        W15189  10.617  22.537   3.957
43574W        W15190  28.186  35.429  12.994
43575W        W15191  42.356  10.055   2.886
43576W        W15192  34.110  44.413  14.783
43577W        W15193  13.321  18.632   2.944
43578W        W15194  26.874  36.452   1.356
43579W        W15195   6.537  36.953  12.881
43580W        W15196   5.653  42.813   3.705
43581W        W15197  40.378  21.445  11.837
43582W        W15198  26.360  43.809   0.950
43583W        W15199   1.653  44.608   0.348
43584W        W15200  16.347   6.245  12.818
43585W        W15201   5.222  42.081   3.287
43586W        W15202  26.300   5.207  12.244
43587W        W15203  17.078  10.411  12.509
43588W        W15204  22.707  30.886  11.253
43589W        W15205  26.398  34.621  11.189
43590W        W15206  37.038  31.176   1.181
43591W        W15207  43.876  38.002   4.971
43592W        W15208  12.157  13.932   4.261
43593W        W15209   4.719   0.484  11.870
43594W        W15210  21.766   7.120   3.286
43595W        W15211  39.337   0.905   4.146
43596W        W15212  30.580   1.775   4.510
43597W        W15213  41.881  33.219  11.482
43598W        W15214  41.567  19.082   1.307
43599W        W15215  29.161  15.204   5.021
43600W        W15216  21.109  18.637  13.561
43601W        W15217  16.734  22.221  10.728
43602W        W15218   4.250  15.559   1.739
43603W        W15219  40.852  12.683   2.180
43604W        W15220  40.378  16.753   1.793
43605W        W15221  44.460  28.503  11.858
43606W        W15222   2.442  36.067  14.252
43607W        W15223  11.238  20.159   3.563
43608W        W15224  23.460  11.120   4.001
43609W        W15225  34.121  16.537  14.426
43610W        W15226   1.068  32.805  11.078
43611W        W15227  41.143  23.085  13.742
43612W        W15228  41.278   9.774  11.590
43613W        W15229  44.965  35.858   3.242
43614W        W15230  30.974  38.931   0.924
43615W        W15231  14.192  12.395   1.705
43616W        W15232  26.613  19.032  14.046
43617W        W15233   8.808  24.413   0.991
43618W        W15234   9.455  25.399   5.144
43619W        W15235  17.532  23.033   4.289
43620W        W15236  33.580  31.699   2.651
43621W        W15237  31.506  39.763   3.683
43622W        W15238  23.017  37.395   0.522
43623W        W15239  13.496  39.530  11.893
43624W        W15240  33.002  22.388   2.694
43625W        W15241   3.881   4.988   2.781
43626W        W15242  34.548  37.855   4.662
43627W        W15243  15.162  16.380   1.842
43628W        W15244  12.313  41.385   1.197
43629W        W15245  19.752  16.499  14.874
43630W        W15246  15.689  24.537   4.596
43631W        W15247  34.180  13.058   4.648
43632W        W15248  26.656  19.351   0.401
43633W        W15249  17.889  28.911  14.731
43634W        W15250  39.947  37.029   4.133
43635W        W15251  30.398   1.716  12.501
43636W        W15252  22.777  25.248   0.639
43637W        W15253   5.967   0.319   3.298
43638W        W15254  11.751  38.811  13.350
43639W        W15255   9.570  31.278  10.568
43640W        W15256  28.397  33.634   1.825
43641W        W15257  14.979   0.341   0.394
43642W        W15258  33.345   0.006   0.854
43643W        W15259  34.513  34.566  12.025
43644W        W15260  13.213  41.717   3.702
43645W        W15261   4.321   5.809  13.435
43646W        W15262  15.378  38.593  11.645
43647W        W15263   0.269   3.794   1.977
43648W        W15264  22.411  32.152  11.569
43649W        W15265  38.283  18.752   4.208
43650W        W15266  28.914  27.948  14.013
43651W        W15267  43.085   7.368  13.834
43652W        W15268  26.553  42.370  14.365
43653W        W15269  21.763   8.933   0.503
43654W        W15270   0.773  27.395   2.823
43655W        W15271   8.774  17.710   4.637
43656W        W15272  21.721  16.608  13.877
43657W        W15273   3.997  29.944   1.799
43658W        W15274  39.885  17.334   4.216
43659W        W15275   8.465   9.132  10.942
43660W        W15276  40.753  20.062   2.869
43661W        W15277  15.272  41.465  12.222
43662W        W15278  33.178  18.483  12.900
43663W        W15279  13.872  43.000   2.928
43664W        W15280  39.357  24.047  13.256
43665W        W15281   9.771  15.884   0.753
43666W        W15282  22.589  29.443  12.090
43667W        W15283  25.467  21.045   0.363
43668W        W15284  17.353   4.815   2.737
43669W        W15285  32.322  36.493  11.684
43670W        W15286  16.669  11.714  12.339
43671W        W15287  28.793  17.084   5.434
43672W        W15288  37.080  24.551  14.714
43673W        W15289  14.282  28.029  10.740
43674W        W15290  36.605  28.435   1.634
43675W        W15291  35.952  10.772  10.555
43676W        W15292  34.536  33.396  12.045
43677W        W15293   6.947  31.011  10.777
43678W        W15294  13.097  15.590   1.890
43679W        W15295  36.522   9.511  14.071
43680W        W15296  20.360  34.945  13.804
43681W        W15297  23.476   6.694  13.939
43682W        W15298  36.174   1.054   3.321
43683W        W15299  29.631  43.075  12.917
43684W        W15300   0.733  26.028  11.016
43685W        W15301  29.100   3.350  14.976
43686W        W15302   1.279  43.052  14.914
43687W        W15303   1.334  10.264   2.365
43688W        W15304  44.170   3.943  11.172
43689W        W15305  31.196  37.852  12.475
43690W        W15306  44.504  32.896  10.855
43691W        W15307  32.454  36.347  12.160
43692W        W15308   3.650  24.734   2.676
43693W        W15309  41.997  17.571  14.940
43694W        W15310  17.337  44.216   1.229
43695W        W15311  14.947  21.012   2.780
43696W        W15312   6.850  25.604   2.836
43697W        W15313  15.811   1.204   1.315
43698W        W15314  42.852  19.355   4.111
43699W        W15315  27.997  41.382   2.366
43700W        W15316  43.169  12.378  12.475
43701W        W15317   6.264  41.981  12.147
43702W        W15318   9.679  40.604  14.827
43703W        W15319  32.970  19.708  13.863
43704W        W15320  24.128  21.496   2.226
43705W        W15321  26.680   7.372  10.732
43706W        W15322  28.419  39.945  11.949
43707W        W15323  18.102  13.724   2.832
43708W        W15324  24.627  22.555   0.858
43709W        W15325  43.796  44.791  13.454
43710W        W15326  15.559  43.782   0.425
43711W        W15327  39.367  38.504   0.677
43712W        W15328  42.437   3.287  12.985
43713W        W15329  43.010  37.216   1.124
43714W        W15330  28.861  24.692  14.316
43715W        W15331  26.918  12.830  12.148
43716W        W15332   4.160   2.977   4.539
43717W        W15333   9.803  33.706   2.433
43718W        W15334   3.253   4.752  10.735
43719W        W15335  13.676  17.298  14.594
43720W        W15336  12.073  28.665   4.744
43721W        W15337  43.322  13.230   4.620
43722W        W15338  29.208  23.672  11.116
43723W        W15339  43.410  40.400  13.125
43724W        W15340  18.985  32.538   1.201
43725W        W15341  28.127  18.312   4.063
43726W        W15342  33.217  25.689   0.283
43727W        W15343  24.784  39.193  11.654
43728W        W15344  14.623   7.345  12.924
43729W        W15345   2.489  29.414  14.313
43730W        W15346   0.003  18.767  14.812
43731W        W15347  22.573  38.516   0.230
43732W        W15348  26.646  41.459  12.791
43733W        W15349  36.453  32.558   3.244
43734W        W15350  41.942   8.494  11.979
43735W        W15351  16.602   0.235  12.978
43736W        W15352  43.575  16.053  12.580
43737W        W15353  13.591  19.364  14.264
43738W        W15354  43.812  12.316   2.340
43739W        W15355  40.714  29.472   0.721
43740W        W15356  23.929  21.072   1.271
43741W        W15357   9.163  17.954  11.537
43742W        W15358  25.676   5.975  10.525
43743W        W15359  22.558  27.195   0.390
43744W        W15360   5.802  30.086   2.371
43745W        W15361   3.917  33.742  13.932
43746W        W15362   6.474  21.244   0.171
43747W        W15363  29.063  38.929   3.169
43748W        W15364  37.834  21.017   2.718
43749W        W15365  25.409  38.575   0.754
43750W        W15366  31.798  21.320  11.836
43751W        W15367   4.154  43.472   0.022
43752W        W15368  42.490   3.856   2.629
43753W        W15369   9.736   8.404   3.250
43754W        W15370   3.090  20.836   4.539
43755W        W15371  27.261  23.658  12.720
43756W        W15372  43.829  41.814  13.286
43757W        W15373  11.767  16.266  14.571
43758W        W15374  11.532  17.898  10.293
43759W        W15375   7.181  18.593   2.769
43760W        W15376  13.282  35.031   0.426
43761W        W15377  18.290   3.039  12.703
43762W        W15378  40.212  19.531   3.401
43763W        W15379   8.404  29.763   2.754
43764W        W15380  14.643  33.296  14.784
43765W        W15381  34.857  19.059   1.272
43766W        W15382  10.269  16.631  13.909
43767W        W15383   8.356  10.260   0.311
43768W        W15384  29.204  19.308   1.452
43769W        W15385  27.497  20.460   2.191
43770W        W15386  34.407  28.166  10.630
43771W        W15387  10.352  38.485  12.919
43772W        W15388  16.881  37.168  13.704
43773W        W15389   0.916   1.413   4.581
43774W        W15390   0.188  36.547  14.280
43775W        W15391  40.334  41.543  10.942
43776W        W15392   5.239  40.997  12.242
43777W        W15393  10.303   7.839  14.396
43778W        W15394   2.744  14.762  12.555
43779W        W15395  11.176  22.571   3.303
43780W        W15396  24.284  35.440   2.865
43781W        W15397  38.135  19.309   1.240
43782W        W15398   2.912  38.901  13.133
43783W        W15399  14.279  24.243  13.161
43784W        W15400  29.418  32.767   2.756
43785W        W15401  32.115  12.422   1.129
43786W        W15402  33.598  14.806  12.043
43787W        W15403  43.720  44.204  10.604
43788W        W15404  13.695  10.103  12.706
43789W        W15405  33.147  12.786  11.365
43790W        W15406   5.094  17.994  12.655
43791W        W15407  16.228  34.067   3.319
43792W        W15408  22.783  25.947  13.823
43793W        W15409  26.558   0.799  10.819
43794W        W15410  13.173  35.942  10.386
43795W        W15411  29.406   2.197   4.686
43796W        W15412  15.360  40.164  13.960
43797W        W15413  23.049  10.187   4.819
43798W        W15414  24.520  19.772   4.803
43799W        W15415  26.132  41.667  14.973
43800W        W15416  19.489   5.479  10.413
43801W        W15417  27.646  34.600   2.699
43802W        W15418  36.438  40.832   2.216
43803W        W15419  18.347   6.389   0.903
43804W        W15420  23.531  28.655   3.239
43805W        W15421  13.257   0.284   2.735
43806W        W15422  11.594   8.306   0.951
43807W        W15423   3.210  23.172   2.403
43808W        W15424  40.259  30.638   4.567
43809W        W15425  27.086   7.682   3.545
43810W        W15426  43.402  17.806   3.705
43811W        W15427  18.273   6.485  11.153
43812W        W15428  27.056  39.979   4.379
43813W        W15429  44.286  15.157  11.913
43814W        W15430  43.993  27.617  14.840
43815W        W15431   8.289  15.654   1.421
43816W        W15432  19.100  43.180  11.927
43817W        W15433  43.341  42.160   2.278
43818W        W15434  10.456  17.598   4.463
43819W        W15435  33.755  23.252   2.611
43820W        W15436  13.261  34.189   2.353
43821W        W15437  18.219  21.075   4.091
43822W        W15438   4.530  16.488  13.496
43823W        W15439  33.463  43.829   4.592
43824W        W15440  20.966   0.454   3.591
43825W        W15441  28.236  32.123   5.049
43826W        W15442   9.415  23.257   1.690
43827W        W15443  30.440  32.177   1.785
43828W        W15444   1.516   6.343   3.807
43829W        W15445  29.423   1.256   1.360
43830W        W15446  21.824   6.613  10.603
43831W        W15447   0.055  24.987   4.986
43832W        W15448   2.837   1.182  12.508
43833W        W15449  42.799  36.841  13.068
43834W        W15450   1.799  39.828   0.827
43835W        W15451  34.531  31.041   4.342
43836W        W15452  34.618  18.277   0.375
43837W        W15453  32.648   2.944   3.350
43838W        W15454  35.590  31.966  11.216
43839W        W15455  15.357  15.163   2.742
43840W        W15456  36.315  13.515  13.999
43841W        W15457  28.492  15.163   0.176
43842W        W15458  12.306  23.066  14.708
43843W        W15459  28.738  42.485  11.914
43844W        W15460  27.731  14.738  13.595
43845W        W15461  24.479  11.736  10.749
43846W        W15462  33.983  24.213  10.626
43847W        W15463  11.796   0.799   2.227
43848W        W15464   6.150   9.907  14.924
43849W        W15465   2.725  22.063  12.477
43850W        W15466  10.198  30.641   2.320
43851W        W15467  27.671  27.457  11.500
43852W        W15468  28.566  15.087  11.562
43853W        W15469  44.647   7.020   4.214
43854W        W15470  33.348  27.430  11.194
43855W        W15471  35.577  26.033   2.172
43856W        W15472  23.734  44.349  12.415
43857W        W15473  13.742  22.642   2.328
43858W        W15474  21.737  10.931  11.671
43859W        W15475  12.923  23.203  12.433
43860W        W15476  27.929  13.037  14.510
43861W        W15477   2.451  23.016  10.783
43862W        W15478  34.364   4.445   2.713
43863W        W15479  38.011  15.365  13.851
43864W        W15480  42.953  41.949  12.791
43865W        W15481   9.913  23.811  13.906
43866W        W15482  26.529  36.354  11.199
43867W        W15483  42.067  18.164   0.418
43868W        W15484  41.024   9.278   2.614
43869W        W15485  26.422   2.515   1.513
43870W        W15486  17.809  29.919  13.853
43871W        W15487   2.537  22.832  12.050
43872W        W15488  44.941   9.354   3.351
43873W        W15489  19.235  17.609   0.354
43874W        W15490  38.625  34.076  13.918
43875W        W15491  39.773   5.435   2.707
43876W        W15492  33.155  36.343   0.698
43877W        W15493  24.995  42.619   3.361
43878W        W15494   7.150  26.560   0.797
43879W        W15495  37.089   5.341  14.378
43880W        W15496  40.537  34.147   1.746
43881W        W15497  11.677  22.727   3.295
43882W        W15498   8.137   2.947   1.768
43883W        W15499  32.285  12.234   1.619
43884W        W15500   4.724  12.835  12.994
43885W        W15501  34.015  19.459   3.198
43886W        W15502  29.580  21.596   0.060
43887W        W15503  26.115  15.414   2.700
43888W        W15504  38.210  29.979   3.043
43889W        W15505  34.680   1.543  12.992
43890W        W15506  31.129  24.880   4.112
43891W        W15507  37.035  18.464   4.554
43892W        W15508  23.161  24.410  13.499
43893W        W15509  40.423  39.810   1.427
43894W        W15510  44.422  32.589   3.295
43895W        W15511  29.122  10.777   1.440
43896W        W15512  38.826  32.864  14.813
43897W        W15513  18.248  37.290   4.385
43898W        W15514  27.171  37.048  13.347
43899W        W15515  20.031  28.904  14.095
43900W        W15516  10.909  36.461  12.602
43901W        W15517  10.008   5.803  14.804
43902W        W15518  25.681  38.459   3.291
43903W        W15519  44.806  22.758  14.326
43904W        W15520  29.243  39.105  13.605
43905W        W15521   6.974  44.517  13.417
43906W        W15522   6.120  33.171   3.789
43907W        W15523  16.609  41.087   2.864
43908W        W15524   4.385  28.136   4.352
43909W        W15525  18.794  16.095  10.462
43910W        W15526  24.196   9.297  10.466
43911W        W15527  11.149  39.024   4.602
43912W        W15528  19.771  27.886   3.700
43913W        W15529  27.110  39.566  14.870
43914W        W15530  12.665  40.491  12.416
43915W        W15531  13.822  30.144   4.554
43916W        W15532   2.986   2.931   1.788
43917W        W15533  42.764  19.987   2.530
43918W        W15534  33.024  34.016   0.337
43919W        W15535  11.301   7.185  10.367
43920W        W15536  11.177  40.900  13.934
43921W        W15537  33.053  31.600  11.274
43922W        W15538  14.097  29.858   4.183
43923W        W15539  44.030   2.370   1.360
43924W        W15540  24.623  44.805  12.181
43925W        W15541   2.973  13.745  13.267
43926W        W15542  30.215  25.533  11.509
43927W        W15543  17.422  11.596  10.863
43928W        W15544  22.075  31.477  12.845
43929W        W15545  31.153   8.002   1.295
43930W        W15546  29.181  13.846   2.394
43931W        W15547  33.861  13.761   0.762
43932W        W15548  34.486  24.038   0.357
43933W        W15549  13.157  28.637  13.495
43934W        W15550  38.346  26.658  10.133
43935W        W15551   3.954   0.408  12.889
43936W        W15552   4.346  14.773   1.330
43937W        W15553  24.712   1.898  10.638
43938W        W15554  10.454   6.828  14.729
43939W        W15555  40.455   8.292   3.395
43940W        W15556  28.043  37.370   4.556
43941W        W15557   0.266  25.726   2.887
43942W        W15558  31.932  21.500   3.455
43943W        W15559  40.438  39.541   4.641
43944W        W15560  23.014  29.398  11.099
43945W        W15561  13.235  43.555   4.146
43946W        W15562  23.948  15.643  13.448
43947W        W15563  38.930   8.552  12.856
43948W        W15564   5.820  44.487  11.759
43949W        W15565  44.679  33.270   1.356
43950W        W15566  39.963  14.571   4.606
43951W        W15567  16.978  27.021  14.022
43952W        W15568  37.465  16.340  11.135
43953W        W15569  42.613  43.532  13.910
43954W        W15570  31.892   6.396  13.330
43955W        W15571   1.595   5.084  10.955
43956W        W15572  18.820  30.240   1.820
43957W        W15573  30.641  12.320  13.474
43958W        W15574  40.541  18.009  11.571
43959W        W15575  10.447  30.623  13.514
43960W        W15576  35.560  34.819  12.379
43961W        W15577  17.121  30.703  12.986
43962W        W15578  29.992  15.109   2.180
43963W        W15579  24.186  12.623   3.546
43964W        W15580  25.712  42.090   2.939
43965W        W15581   2.215  44.879   3.263
43966W        W15582  18.574  13.204   0.574
43967W        W15583  25.616  37.301  10.319
43968W        W15584   0.149  18.084   0.417
43969W        W15585  13.864  42.788  11.196
43970W        W15586   6.186  14.407   4.257
43971W        W15587  31.943  35.621   4.170
43972W        W15588   3.476  24.614   1.307
43973W        W15589  36.153   1.923   0.389
43974W        W15590  22.786  41.924   4.192
43975W        W15591  26.542  30.064  13.436
43976W        W15592  36.932  29.640   0.388
43977W        W15593  31.086  32.940   4.149
43978W        W15594   8.958  28.374  14.250
43979W        W15595  29.074  12.134   0.138
43980W        W15596   4.271  37.029   1.574
43981W        W15597  19.868   7.280   0.798
43982W        W15598  11.115  16.745  12.401
43983W        W15599  37.784  34.007   2.240
43984W        W15600   2.712   3.329  14.739
43985W        W15601   5.252  43.986   2.327
43986W        W15602  35.368  28.824  12.288
43987W        W15603  28.442  13.628   1.971
43988W        W15604  42.072  35.959  13.635
43989W        W15605  21.621  16.908  11.515
43990W        W15606  26.489  12.956  10.757
43991W        W15607  23.565  41.356   2.366
43992W        W15608  18.092   2.509  11.688
43993W        W15609  14.025   4.181   3.728
43994W        W15610  29.596   8.043   3.758
43995W        W15611   9.378  40.984  13.869
43996W        W15612  39.625  27.132   1.802
43997W        W15613  36.477  15.584  10.694
43998W        W15614   6.221  40.183   4.984
43999W        W15615  37.322  17.152   3.760
44000W        W15616  26.560   7.889   2.880
44001W        W15617  34.299  40.099  11.119
44002W        W15618  10.654   6.109  11.068
44003W        W15619  35.115  44.016  13.380
44004W        W15620   6.838  11.280  12.632
44005W        W15621  18.598   5.301  13.420
44006W        W15622  44.992  28.815  13.400
44007W        W15623  29.197  28.683  13.601
44008W        W15624  41.929  14.218  12.118
44009W        W15625  37.949  14.473  12.764
44010W        W15626  15.409  19.748  13.480
44011W        W15627  26.515  35.444   4.221
44012W        W15628  33.965  24.549  11.062
44013W        W15629  37.830   0.029   2.271
44014W        W15630   1.327  29.503   0.212
44015W        W15631   2.190  14.738  10.725
44016W        W15632   1.130   0.937   3.290
44017W        W15633  24.441  26.731  12.569
44018W        W15634  34.449  35.153  12.616
44019W        W15635  11.322   3.238   1.568
44020W        W15636  36.310  23.395  12.132
44021W        W15637  25.404  41.850   3.289
44022W        W15638  38.386  32.846  13.459
44023W        W15639  25.729  27.677   2.203
44024W        W15640  26.710  15.264  11.133
44025W        W15641   3.176  14.270  11.438
44026W        W15642  40.192  25.245   3.693
44027W        W15643   9.766  12.899  11.642
44028W        W15644  40.862  27.711   2.292
44029W        W15645  24.711   9.586   4.840
44030W        W15646  43.422  23.179  11.489
44031W        W15647  44.268   8.916  11.594
44032W        W15648  13.755  32.975  11.536
44033W        W15649  33.444  44.753   4.453
44034W        W15650  38.329   4.191   0.913
44035W        W15651  23.923  40.737  14.348
44036W        W15652  39.650   9.679   4.507
44037W        W15653  31.420  26.521  11.498
44038W        W15654  28.057  21.250   3.754
44039W        W15655   8.469  44.427  12.476
44040W        W15656  27.067   9.035   1.749
44041W        W15657  40.835  38.477   0.264
44042W        W15658   5.858  44.295   0.221
44043W        W15659  11.101  17.069  11.583
44044W        W15660  44.325   2.985  11.962
44045W        W15661  18.211   6.551   2.917
44046W        W15662  22.468  44.707  12.059
44047W        W15663  21.768  34.800   1.238
44048W        W15664  36.734   6.077  13.937
44049W        W15665  37.005  31.746  11.028
44050W        W15666  41.831  43.268   4.100
44051W        W15667   3.921   1.889   2.851
44052W        W15668  38.886  39.431  10.667
44053W        W15669  10.608  25.192  13.904
44054W        W15670  15.738   5.683   9.589
44055W        W15671  19.180   7.908   0.765
44056W        W15672   2.734  18.785  11.991
44057W        W15673  19.178  42.496   2.377
44058W        W15674  28.998  31.154   1.500
44059W        W15675  41.809  11.787  14.980
44060W        W15676  10.411  10.237  11.475
44061W        W15677  36.812  33.052   1.384
44062W        W15678  20.254  36.330   0.692
44063W        W15679  44.957  44.030  12.821
44064W        W15680  26.538   8.187   5.190
44065W        W15681  12.285  30.001  14.935
44066W        W15682   3.500   3.248  10.732
44067W        W15683  35.604  30.463   2.866
44068W        W15684  40.485  16.933   4.634
44069W        W15685  15.854  23.435  11.743
44070W        W15686  13.257  35.943  12.614
44071W        W15687  23.792  44.564   3.646
44072W        W15688  37.794   9.670  13.359
44073W        W15689   9.675  39.793   4.550
44074W        W15690  34.788  39.319  11.668
44075W        W15691   9.146  12.347   0.478
44076W        W15692   0.426  43.409   4.982
44077W        W15693   1.428  38.330  13.356
44078W        W15694  25.069   4.907   1.914
44079W        W15695   4.812  26.514   1.914
44080W        W15696   3.808  43.498  13.458
44081W        W15697   7.158  43.043  12.536
44082W        W15698  19.203  34.383   0.456
44083W        W15699  21.341  18.124  13.450
44084W        W15700   1.420  24.621  12.430
44085W        W15701  41.058  13.495  13.772
44086W        W15702  12.300  12.266   4.802
44087W        W15703  36.106  42.310  11.479
44088W        W15704  18.486  30.117  13.056
44089W        W15705  15.636  35.721  10.474
44090W        W15706  11.657   3.678  13.409
44091W        W15707   0.860  39.898   0.668
44092W        W15708  40.254  40.643  12.919
44093W        W15709   4.271  23.780   3.724
44094W        W15710  10.907  15.800   1.489
44095W        W15711  15.181  33.651  12.670
44096W        W15712  25.478   3.481  11.910
44097W        W15713  24.945   1.054  12.459
44098W        W15714   8.913  27.490   4.119
44099W        W15715  31.487  12.851   4.237
44100W        W15716  39.449  15.768  14.059
44101W        W15717  44.961   6.425  10.481
44102W        W15718  30.627   5.774   2.489
44103W        W15719  25.393   4.933  13.855
44104W        W15720  32.660  35.401  13.005
44105W        W15721   5.341  18.908  10.670
44106W        W15722  35.607  18.102   0.806
44107W        W15723  40.056  39.063   1.183
44108W        W15724  11.198  11.383  12.541
44109W        W15725   7.905   2.781   4.294
44110W        W15726  18.248  16.218   1.818
44111W        W15727  11.855   0.276   0.786
44112W        W15728   4.194  23.002  14.414
44113W        W15729   7.330  30.417   3.083
44114W        W15730  21.634  42.373   1.506
44115W        W15731  15.345  17.306  13.359
44116W        W15732  12.030  13.325   1.333
44117W        W15733   8.846  34.435   2.409
44118W        W15734  43.356  12.262  13.166
44119W        W15735  42.315   8.740  14.153
44120W        W15736  16.027  11.304  13.492
44121W        W15737  15.918  17.970   2.411
44122W        W15738  36.970  37.477  10.274
44123W        W15739  11.164  12.359  14.245
44124W        W15740  30.506  42.407   2.744
44125W        W15741  35.514  11.725  11.006
44126W        W15742  41.806  11.900   0.488
44127W        W15743   0.230  43.388  12.058
44128W        W15744  44.766   3.045  12.918
44129W        W15745  25.636  28.481  12.052
44130W        W15746  40.427  17.099  11.621
44131W        W15747  37.487  17.995  12.042
44132W        W15748  41.411   0.166  12.993
44133W        W15749  43.480  22.349   1.536
44134W        W15750  42.759   1.345   2.696
44135W        W15751  16.397   6.526   0.862
44136W        W15752  27.347  37.155   1.950
44137W        W15753   9.442   8.937   3.775
44138W        W15754  31.889  44.550  14.836
44139W        W15755  29.793   9.107   4.564
44140W        W15756  38.922   1.679   2.810
44141W        W15757  19.731   8.202  10.623
44142W        W15758  24.418   0.540  12.048
44143W        W15759  14.514  28.542  11.648
44144W        W15760  15.613  39.020  11.124
44145W        W15761  38.969  41.427  13.281
44146W        W15762  37.398  18.513   0.698
44147W        W15763  12.936  37.477  14.920
44148W        W15764  29.688   0.695  13.750
44149W        W15765  14.722  19.620   2.355
44150W        W15766  10.223  10.278  14.274
44151W        W15767   5.944   0.858   3.527
44152W        W15768  35.746  24.802  12.378
44153W        W15769   2.334  38.066   0.778
44154W        W15770   7.136  11.199  13.527
44155W        W15771  14.000  34.727   5.055
44156W        W15772  20.319  20.183  11.222
44157W        W15773  40.344  39.786   0.056
44158W        W15774  31.066  29.181  10.719
44159W        W15775  28.539   4.302  13.383
44160W        W15776  20.016   0.057  13.019
44161W        W15777  23.167  31.891  14.727
44162W        W15778  38.927  36.358  14.767
44163W        W15779  42.733   0.583  11.110
44164W        W15780  19.724  13.159   4.684
44165W        W15781  30.452  15.816  11.466
44166W        W15782  28.743  36.816  12.463
44167W        W15783   6.106  19.272   0.355
44168W        W15784   6.280   2.712  13.419
44169W        W15785  15.391   1.509   1.274
44170W        W15786  37.861  27.920  14.028
44171W        W15787  11.553   2.658  13.013
44172W        W15788  15.595  10.309   0.839
44173W        W15789  35.402  25.722  13.354
44174W        W15790  25.709  18.240  14.796
44175W        W15791  17.620   6.871  10.726
44176W        W15792   6.244  18.700   4.072
44177W        W15793  19.175  24.753  11.603
44178W        W15794  43.302  24.150   0.766
44179W        W15795  43.152  39.608   2.721
44180W        W15796  25.364  12.267   0.867
44181W        W15797  36.760  19.727  13.991
44182W        W15798   9.205  32.636   4.620
44183W        W15799  11.892  30.006   2.796
44184W        W15800  27.255  21.226   0.879
44185W        W15801   5.315  32.004  12.867
44186W        W15802   3.252  15.667   4.256
44187W        W15803  39.843  22.393   2.006
44188W        W15804  19.522  34.143  10.755
44189W        W15805  11.294  12.314  10.697
44190W        W15806   0.241   4.904   2.302
44191W        W15807  21.145   0.549  10.812
44192W        W15808   3.335  38.634   4.994
44193W        W15809  15.206  20.227   1.482
44194W        W15810  19.564  23.297   4.483
44195W        W15811   3.454   0.207  13.995
44196W        W15812  36.962  19.029   3.621
44197W        W15813  24.107  28.075   1.430
44198W        W15814   9.110  39.314   0.227
44199W        W15815  23.578   3.288   0.078
44200W        W15816   2.938  32.522   2.579
44201W        W15817  13.840   6.012  12.187
44202W        W15818  13.378  22.193   3.642
44203W        W15819  33.614   8.920  12.208
44204W        W15820  41.672  25.073   2.416
44205W        W15821  32.600  14.119  14.884
44206W        W15822  31.020   1.709  10.351
44207W        W15823  28.531  34.061   2.713
44208W        W15824  43.287  40.853  13.341
44209W        W15825  44.285   2.012   4.115
44210W        W15826   1.070  29.583   4.032
44211W        W15827  39.291  18.786   4.100
44212W        W15828  36.357  18.646   4.363
44213W        W15829   0.657  29.933   4.201
44214W        W15830  41.461  42.988  11.393
44215W        W15831  36.147  30.332   1.683
44216W        W15832  40.789  35.948  11.048
44217W        W15833   2.240  30.040   3.259
44218W        W15834  23.128  39.065  12.113
44219W        W15835   1.723  10.126  13.890
44220W        W15836  40.903  18.207  12.826
44221W        W15837  22.065  15.915  11.072
44222W        W15838  37.817  34.729  14.936
44223W        W15839  17.407  18.697   9.975
44224W        W15840   5.608   3.904  14.382
44225W        W15841  25.674  41.719  12.498
44226W        W15842  31.712  32.040   0.818
44227W        W15843  26.926   9.407  12.610
44228W        W15844  30.019  25.616  12.593
44229W        W15845  24.351   6.374  14.901
44230W        W15846   9.818  36.570  11.811
44231W        W15847  31.360   3.413  10.853
44232W        W15848  21.003  15.575  14.264
44233W        W15849   1.525  17.963  11.167
44234W        W15850  42.880  25.397   2.225
44235W        W15851  14.844  24.918   3.413
44236W        W15852  22.485   1.953  12.979
44237W        W15853  23.002  31.587  11.954
44238W        W15854  44.178   7.162  10.422
44239W        W15855   7.355  16.724  12.505
44240W        W15856  24.666   2.955  12.085
44241W        W15857   6.265  22.096  10.533
44242W        W15858  40.795  42.483  10.651
44243W        W15859  20.068  44.227  14.873
44244W        W15860  14.703   3.524  12.566
44245W        W15861  31.793  25.558  13.040
44246W        W15862  27.364  24.227   0.201
44247W        W15863  21.643  23.208   2.714
44248W        W15864   0.292   6.617  14.877
44249W        W15865   0.769  35.613   2.723
44250W        W15866   0.512  25.334  13.956
44251W        W15867  29.312  14.382   5.436
44252W        W15868  11.565  31.017  10.705
44253W        W15869  21.869  25.690   4.358
44254W        W15870  35.595   1.765   1.916
44255W        W15871   6.261  32.082   3.150
44256W        W15872   5.253  36.142   2.029
44257W        W15873  24.562  30.113   3.107
44258W        W15874  18.638  28.079   4.305
44259W        W15875  37.459  25.730  12.734
44260W        W15876   6.589  35.855   1.697
44261W        W15877  22.822  26.723  11.803
44262W        W15878  30.075   3.117  11.132
44263W        W15879  36.054  24.285   0.451
44264W        W15880  36.477  42.859  12.862
44265W        W15881   3.987  24.604  12.363
44266W        W15882  15.122  31.083  13.404
44267W        W15883  25.073  18.486  12.205
44268W        W15884  18.511  32.471   2.775
44269W        W15885  30.978  28.568   0.211
44270W        W15886  21.473  24.214   3.192
44271W        W15887  33.127   6.632  14.015
44272W        W15888  23.722   4.269   1.355
44273W        W15889  18.070  40.286   2.770
44274W        W15890  29.037  13.725   4.815
44275W        W15891  27.160  29.456  11.992
44276W        W15892  17.656  38.951  13.933
44277W        W15893   6.261  27.676  14.554
44278W        W15894  40.422  40.346  11.600
44279W        W15895  18.543  16.138   1.379
44280W        W15896   6.522  12.131  14.393
44281W        W15897   1.719  41.779  13.915
44282W        W15898  38.965  42.821   5.022
44283W        W15899  43.158  11.973   2.926
44284W        W15900  25.182  24.721   2.410
44285W        W15901  29.004  22.733   2.382
44286W        W15902  14.928  33.997  12.980
44287W        W15903  44.848  22.520   2.985
44288W        W15904  13.750  29.465  14.939
44289W        W15905  11.028  14.613   0.256
44290W        W15906  16.207  29.481   0.675
44291W        W15907  44.738  37.367   0.724
44292W        W15908  13.312  43.993   3.061
44293W        W15909  30.117   6.972   2.402
44294W        W15910   0.210  36.004  12.321
44295W        W15911  39.520  44.022  12.257
44296W        W15912  36.129  16.644   0.868
44297W        W15913  10.695  29.471  10.915
44298W        W15914  38.378  28.449  13.546
44299W        W15915  23.734  12.216  10.445
44300W        W15916  18.077  33.507  11.891
44301W        W15917  16.487   4.271  11.606
44302W        W15918  39.341  28.212  11.637
44303W        W15919  12.116  14.919   2.445
44304W        W15920  35.161  23.621   1.343
44305W        W15921  40.353  24.595   3.113
44306W        W15922  20.708  37.966  11.945
44307W        W15923  34.233  17.174  10.531
44308W        W15924  41.216  15.838  13.802
44309W        W15925  21.578  34.641   0.275
44310W        W15926  34.493  12.516  14.913
44311W        W15927   3.022  19.739  10.693
44312W        W15928   7.830  12.091  12.974
44313W        W15929   6.399  42.823   4.160
44314W        W15930  31.983  11.275  11.085
44315W        W15931  34.565  21.702   3.298
44316W        W15932   8.003  42.477  10.695
44317W        W15933  38.057  37.953   2.807
44318W        W15934  32.381  26.538   2.775
44319W        W15935  15.810  12.881  10.678
44320W        W15936  19.346  43.697  12.774
44321W        W15937  22.770  10.292  13.078
44322W        W15938  28.778  35.021  13.436
44323W        W15939  35.477  10.429   4.602
44324W        W15940  39.376  10.765   3.609
44325W        W15941  20.520  39.081  14.911
44326W        W15942  24.554   6.719  13.265
44327W        W15943  38.383  13.553  13.634
44328W        W15944   4.663  44.487   3.204
44329W        W15945  27.598  11.812  14.272
44330W        W15946   3.118  28.928   1.387
44331W        W15947  10.768  11.235   4.156
44332W        W15948  36.715  21.177   3.697
44333W        W15949   0.047  14.333   0.350
44334W        W15950  44.774  36.523   2.252
44335W        W15951  23.377   2.884  14.352
44336W        W15952  23.219  35.993  11.123
44337W        W15953  32.707  30.240   9.880
44338W        W15954   2.261  15.360   3.764
44339W        W15955   9.140  41.278   0.910
44340W        W15956  21.138  10.180   1.443
44341W        W15957   4.408  16.017  12.015
44342W        W15958   4.593  44.496   5.058
44343W        W15959   0.690   3.358   0.076
44344W        W15960   2.734  17.529  11.576
44345W        W15961   4.427   9.270   2.783
44346W        W15962  40.148   1.233  11.171
44347W        W15963  29.153  28.164   4.293
44348W        W15964  19.170   5.184  14.034
44349W        W15965  17.691  23.242   3.821
44350W        W15966  28.401  32.462  13.031
44351W        W15967  15.506   4.421   5.071
44352W        W15968  40.727   3.890   1.103
44353W        W15969  20.528  44.925   2.783
44354W        W15970   6.710   3.884   3.798
44355W        W15971  37.289  40.494   3.558
44356W        W15972  29.073  24.204   4.590
44357W        W15973  15.772  37.944   0.799
44358W        W15974   7.181  16.589   4.572
44359W        W15975  33.835  38.048   4.102
44360W        W15976  26.313  16.307  13.128
44361W        W15977  41.945  34.137   0.010
44362W        W15978  13.260  25.092  12.957
44363W        W15979  19.997  12.221  11.695
44364W        W15980  29.563  13.932  10.690
44365W        W15981  39.573  19.533  14.972
44366W        W15982  18.382  42.883   0.358
44367W        W15983  18.942   5.281   2.791
44368W        W15984  25.440  37.042   1.313
44369W        W15985  12.737  26.917   1.783
44370W        W15986  30.541  35.391  12.156
44371W        W15987  26.083  38.797   3.130
44372W        W15988  39.544  11.331  10.026
44373W        W15989   2.211   1.286  10.666
44374W        W15990  43.229  38.181  11.127
44375W        W15991  44.613   7.806  14.871
44376W        W15992  18.550   6.308  13.333
44377W        W15993  28.102  29.042   1.912
44378W        W15994  30.358  35.942   0.257
44379W        W15995  15.484   4.003  10.450
44380W        W15996  16.164  43.673  10.402
44381W        W15997  19.047   4.166  12.873
44382W        W15998  18.790  33.530  10.399
44383W        W15999  39.825   9.651   0.884
44384W        W16000  17.143  21.518  12.497
44385W        W16001  11.909   1.003  12.028
44386W        W16002   4.907  14.388  13.221
44387W        W16003  33.904  38.036  11.557
44388W        W16004  36.604  35.826  10.371
44389W        W16005  37.416   3.398  10.842
44390W        W16006  38.789  26.979  11.034
44391W        W16007  42.993   9.116  11.275
44392W        W16008  32.319   1.179   0.280
44393W        W16009  32.912  31.397  13.525
44394W        W16010  13.492  19.194  12.517
44395W        W16011  28.517  24.590   4.148
44396W        W16012  18.022  13.309   1.978
44397W        W16013  20.552  32.855   0.812
44398W        W16014   1.984  26.331   2.220
44399W        W16015  43.789  26.657  13.873
44400W        W16016  37.887  14.918   1.281
44401W        W16017  27.440  37.412  14.891
44402W        W16018   7.187  13.496   2.685
44403W        W16019   0.421   9.862   4.800
44404W        W16020  28.172  24.251  13.998
44405W        W16021  26.491  20.622   4.407
44406W        W16022  41.321  30.914   2.600
44407W        W16023  12.255  26.591   2.373
44408W        W16024  28.974  24.731   1.884
44409W        W16025  43.877  20.188  12.354
44410W        W16026  14.358  10.214   3.743
44411W        W16027  27.619  41.423   0.540
44412W        W16028  31.684  11.630   1.296
44413W        W16029  43.324  41.230  13.001
44414W        W16030  33.485   7.407  14.318
44415W        W16031  27.990  16.889  12.560
44416W        W16032   6.757  29.973  10.657
44417W        W16033  15.418  20.321   3.269
44418W        W16034  30.922  28.636  10.724
44419W        W16035   8.339  22.017   4.672
44420W        W16036  30.978  34.543  14.013
44421W        W16037  42.519   6.731   2.710
44422W        W16038   2.448  13.258  11.626
44423W        W16039  35.316   2.985  14.326
44424W        W16040  33.507   7.750  13.522
44425W        W16041   8.659  15.065   4.916
44426W        W16042  14.198  22.747  13.035
44427W        W16043  36.838  32.961  14.261
44428W        W16044  22.329  21.072   2.851
44429W        W16045  31.971   4.210   4.033
44430W        W16046  31.110   0.971  12.457
44431W        W16047  26.901  36.256   4.570
44432W        W16048  33.612  14.753  11.127
44433W        W16049  40.235  12.522   2.231
44434W        W16050  24.636   2.719   2.300
44435W        W16051  26.913   1.883  11.162
44436W        W16052  14.230   0.415  13.107
44437W        W16053  34.266  27.404  11.919
44438W        W16054  31.676  38.809   2.738
44439W        W16055  16.083   8.144   2.134
44440W        W16056   8.571  38.911  12.951
44441W        W16057   1.112  32.851   1.009
44442W        W16058  24.799   7.807   1.877
44443W        W16059  12.713   6.710   3.208
44444W        W16060   6.675  16.334   4.529
44445W        W16061  14.019  37.428  14.439
44446W        W16062  33.873  38.625  12.914
44447W        W16063  17.283  40.341  12.181
44448W        W16064  18.364  14.715   2.317
44449W        W16065  14.192   3.894  11.519
44450W        W16066  24.526  15.348   2.358
44451W        W16067  12.107  21.130  10.626
44452W        W16068   1.409  27.025  10.891
44453W        W16069  43.952  31.877   1.249
44454W        W16070  26.676  29.877   4.054
44455W        W16071  28.054  24.000  11.554
44456W        W16072  24.170  44.978   4.854
44457W        W16073  43.226  29.549   1.365
44458W        W16074  11.781  24.224  13.824
44459W        W16075  26.736   4.805   3.723
44460W        W16076   3.224  36.955   3.181
44461W        W16077  42.835  12.273   3.233
44462W        W16078  43.815   1.508   2.661
44463W        W16079  18.614  17.473  14.305
44464W        W16080  34.454  23.198  13.179
44465W        W16081  30.491  14.563  12.138
44466W        W16082  13.012  44.448  14.812
44467W        W16083  36.920  14.282   5.069
44468W        W16084  35.164  19.583   2.893
44469W        W16085   3.417  28.411  13.681
44470W        W16086   9.229   9.593   3.234
44471W        W16087   6.055  36.061  13.710
44472W        W16088   2.259  20.177  11.640
44473W        W16089  32.969  39.320  14.464
44474W        W16090  34.989  35.903   3.607
44475W        W16091  20.786  19.992  11.129
44476W        W16092  17.732   6.973  14.947
44477W        W16093  31.486  17.278   2.747
44478W        W16094  23.980   9.781   2.201
44479W        W16095  40.973  40.026  14.233
44480W        W16096  44.221  27.904  13.971
44481W        W16097  22.255  41.739  12.340
44482W        W16098   0.109  26.557  13.486
44483W        W16099   9.338  32.698   0.920
44484W        W16100  35.007  26.406  12.910
44485W        W16101   9.400  15.359   0.004
44486W        W16102  41.055   3.338  10.677
44487W        W16103  29.976  37.561   2.381
44488W        W16104  22.966  39.824  11.134
44489W        W16105  39.127   8.031   0.817
44490W        W16106  38.603  18.124   2.480
44491W        W16107  19.647  17.199   2.337
44492W        W16108   0.807  27.001   1.473
44493W        W16109   1.901  32.981   4.148
44494W        W16110  43.757  43.370  14.425
44495W        W16111  32.485  29.572   0.828
44496W        W16112  43.927  28.778   3.596
44497W        W16113  43.764   2.293  12.804
44498W        W16114  19.687  38.448   1.590
44499W        W16115  37.787  14.650   4.673
44500W        W16116  29.847   7.743  10.743
44501W        W16117   0.994   7.345  14.423
44502W        W16118  32.892  18.287  10.546
44503W        W16119  44.856   1.539  14.335
44504W        W16120  32.179  40.396   0.347
44505W        W16121  39.814  19.799  10.400
44506W        W16122  26.222  10.728   3.788
44507W        W16123   5.553  13.741   4.043
44508W        W16124  21.206  20.277  13.372
44509W        W16125   6.921  14.373   3.536
44510W        W16126  36.876  14.335   1.918
44511W        W16127  27.680   3.197   4.498
44512W        W16128  17.136  43.761  11.686
44513W        W16129  41.092  12.544   4.586
44514W        W16130   6.433  36.084   2.476
44515W        W16131  13.896  29.274  12.483
44516W        W16132   9.565  27.612  11.877
44517W        W16133  25.682   2.327  14.351
44518W        W16134  13.237  26.679   4.568
44519W        W16135  34.072  17.317   2.373
44520W        W16136   0.684  18.124   0.415
44521W        W16137  15.965   2.725   2.235
44522W        W16138  15.559   5.855   5.007
44523W        W16139  18.148  20.601  10.512
44524W        W16140   4.279   4.789   1.075
44525W        W16141  25.097   0.228   4.012
44526W        W16142  11.281  24.191  13.592
44527W        W16143  31.263  32.986   1.225
44528W        W16144  16.997  23.067   0.375
44529W        W16145  30.565  35.347   0.415
44530W        W16146  36.154  44.196   4.525
44531W        W16147  44.667   1.790  13.922
44532W        W16148  11.911  29.148   1.672
44533W        W16149  21.059  35.737  14.532
44534W        W16150  24.561  22.487   4.103
44535W        W16151   7.980  19.064   4.139
44536W        W16152  42.004  41.486  13.506
44537W        W16153  14.200  16.035  14.160
44538W        W16154  20.536   6.552   3.333
44539W        W16155   6.454  25.954   4.162
44540W        W16156  22.616  14.099   4.985
44541W        W16157  13.810  15.841  13.807
44542W        W16158  15.151  21.222   3.657
44543W        W16159  10.417   9.735   2.455
44544W        W16160  36.658  36.590  13.046
44545W        W16161  30.552   3.889  11.315
44546W        W16162   9.464  44.124  13.848
44547W        W16163  38.066   4.671   0.966
44548W        W16164  42.907  23.754  13.376
44549W        W16165   7.849  12.670  12.061
44550W        W16166  32.933   6.855   4.721
44551W        W16167  31.213  31.387   4.199
44552W        W16168  40.613  27.410  13.385
44553W        W16169  21.085   9.307  14.364
44554W        W16170   0.928  39.862  14.124
44555W        W16171  43.333  18.125   0.879
44556W        W16172  39.370  31.587  14.926
44557W        W16173  26.638  36.232   0.764
44558W        W16174  29.583  32.101   0.687
44559W        W16175  36.518  11.308   1.986
44560W        W16176  26.128  44.037   3.905
44561W        W16177  10.361  12.456  14.055
44562W        W16178   6.929  26.223  13.563
44563W        W16179   2.367  22.236   1.904
44564W        W16180  25.809  39.131  14.952
44565W        W16181  22.193  33.782   1.250
44566W        W16182   1.181   7.825   4.116
44567W        W16183  33.793  38.600   2.339
44568W        W16184  42.793   7.204  10.571
44569W        W16185   4.692  22.026   3.347
44570W        W16186   8.243  34.500   3.094
44571W        W16187  32.329  23.041   0.191
44572W        W16188  42.557   1.026   1.429
44573W        W16189  15.790   3.915   0.867
44574W        W16190  16.607  16.709  10.450
44575W        W16191   8.215  30.008  10.810
44576W        W16192  38.334  44.320   2.368
44577W        W16193  28.010   0.275   4.853
44578W        W16194   6.675  42.762   4.612
44579W        W16195  10.834  14.571   3.476
44580W        W16196  17.222  21.034  13.418
44581W        W16197  37.265  26.131   4.392
44582W        W16198  36.735   3.087   4.225
44583W        W16199  20.301  31.005   1.408
44584W        W16200   1.649  25.070  12.461
44585W        W16201  34.398  34.878   4.575
44586W        W16202  41.423  23.876   4.520
44587W        W16203   5.493  36.091  10.404
44588W        W16204  15.613  19.605  12.901
44589W        W16205   7.834   4.741   2.227
44590W        W16206  44.224  38.308   3.665
44591W        W16207   2.590  25.609  13.858
44592W        W16208  19.657   9.767   2.865
44593W        W16209  24.422  28.086  11.218
44594W        W16210  37.292  42.541  10.633
44595W        W16211  44.436  41.823   0.506
44596W        W16212  39.091  34.150   4.268
44597W        W16213  13.045   9.790  13.285
44598W        W16214  21.514  27.174  11.557
44599W        W16215  25.709   5.329  11.571
44600W        W16216   1.337  33.849  14.922
44601W        W16217  22.591  40.539   4.591
44602W        W16218   5.943  37.312  13.423
44603W        W16219  20.711   0.700   3.149
44604W        W16220  44.302   4.233   1.515
44605W        W16221  44.805  23.234  12.431
44606W        W16222  44.781  15.368  12.014
44607W        W16223  27.188  26.216  10.546
44608W        W16224   6.275  37.918  12.614
44609W        W16225   4.328  32.116  12.940
44610W        W16226  24.026   0.291  13.064
44611W        W16227  23.716  44.960  14.172
44612W        W16228   6.751   0.470  11.602
44613W        W16229  12.131  17.588  12.074
44614W        W16230  13.855  30.444  10.638
44615W        W16231  39.862   9.742  10.427
44616W        W16232  39.589  11.183   0.931
44617W        W16233  13.282   4.477   2.806
44618W        W16234  44.348  43.484   3.323
44619W        W16235  23.116  37.886  13.748
44620W        W16236  33.039  34.829   0.762
44621W        W16237  15.769  33.934   0.248
44622W        W16238  16.200   7.080   0.290
44623W        W16239   4.610  22.563  10.290
44624W        W16240  44.276  37.495  12.494
44625W        W16241  30.595   1.937  14.401
44626W        W16242  22.468  18.715   4.716
44627W        W16243  19.869  25.058   3.702
44628W        W16244  33.969  14.411  14.793
44629W        W16245  19.053  39.923  12.584
44630W        W16246  18.055  23.023   4.117
44631W        W16247  34.204  30.767   0.517
44632W        W16248  37.426  36.457  11.029
44633W        W16249  16.299   6.191  11.967
44634W        W16250  27.220   4.809   1.707
44635W        W16251   4.948  43.343   1.147
44636W        W16252   7.709  18.983  11.098
44637W        W16253  41.374  28.879  12.004
44638W        W16254  13.411  18.197   2.297
44639W        W16255  37.502  29.069   2.971
44640W        W16256  14.807   1.904   0.512
44641W        W16257  16.902   4.792   0.674
44642W        W16258  12.014  37.964  13.506
44643W        W16259  32.217  30.094   9.847
44644W        W16260  37.818   4.510  11.037
44645W        W16261   0.631  39.089   1.628
44646W        W16262   0.889  10.261   1.628
44647W        W16263  28.966   6.507  12.554
44648W        W16264  30.796  18.829   2.175
44649W        W16265   6.144  23.873  12.519
44650W        W16266  38.981   7.221   0.670
44651W        W16267  20.750  32.424  14.451
44652W        W16268   3.234  19.260  11.538
44653W        W16269  25.644   5.141   3.743
44654W        W16270   4.879   1.060   4.225
44655W        W16271  34.417   5.125  13.344
44656W        W16272  25.986  23.466   3.120
44657W        W16273  33.941   5.807  13.785
44658W        W16274  25.164  27.256   1.696
44659W        W16275  12.654  35.811  13.833
44660W        W16276  24.623   7.160  14.310
44661W        W16277  28.552   9.839  10.870
44662W        W16278  10.252  34.327  13.968
44663W        W16279  29.124  22.110  14.209
44664W        W16280  11.418  30.874  12.553
44665W        W16281  24.145  24.011  13.019
44666W        W16282  43.330   2.896  11.010
44667W        W16283   1.564   9.214  10.661
44668W        W16284  22.448  22.599   1.834
44669W        W16285  21.589  30.961   3.658
44670W        W16286  16.968   3.028   2.193
44671W        W16287  27.229  34.450  14.881
44672W        W16288  28.180  36.096  14.966
44673W        W16289  11.222  36.563  13.854
44674W        W16290  30.622  40.873  13.511
44675W        W16291   1.241  10.254  13.014
44676W        W16292  44.316   0.150   2.385
44677W        W16293  34.001  39.135  14.328
44678W        W16294  25.084  43.716   3.832
44679W        W16295  15.218   1.004   4.166
44680W        W16296  18.763  25.956   1.321
44681W        W16297  42.959  19.977  10.483
44682W        W16298  12.454   5.802   1.923
44683W        W16299   1.785  16.241   1.164
44684W        W16300  40.336  23.072  10.646
44685W        W16301  12.684  14.374  12.871
44686W        W16302  28.511  12.597  14.039
44687W        W16303   5.699  25.720   4.326
44688W        W16304  10.782  21.768  11.960
44689W        W16305  31.124  33.562  11.660
44690W        W16306  14.289  17.336  10.130
44691W        W16307  26.672   3.229   4.619
44692W        W16308  12.068  15.371   4.899
44693W        W16309  31.068   9.632   4.619
44694W        W16310  13.225  29.099   3.414
44695W        W16311  26.583  36.443  13.060
44696W        W16312  33.313  38.604  12.153
44697W        W16313   0.092  37.899  13.345
44698W        W16314   0.688  29.893  12.807
44699W        W16315   0.141  28.080   3.783
44700W        W16316  16.274  22.060   3.825
44701W        W16317  35.059  11.098  11.152
44702W        W16318  21.078  32.683   2.975
44703W        W16319  15.587  12.600  12.491
44704W        W16320  42.336  43.523   2.279
44705W        W16321  26.802  29.546  14.159
44706W        W16322  34.354  39.867   0.362
44707W        W16323   9.193  32.395   4.149
44708W        W16324  33.019   2.709  13.451
44709W        W16325  39.061  10.213   3.269
44710W        W16326   6.846  34.348   4.898
44711W        W16327  23.897   4.212   1.830
44712W        W16328  29.321  18.894   0.796
44713W        W16329  30.922   3.426  10.543
44714W        W16330  40.530  43.483  14.042
44715W        W16331  32.073   5.734   1.845
44716W        W16332  42.079  16.253  10.673
44717W        W16333   5.827  41.302   1.241
44718W        W16334  43.471  33.639   1.258
44719W        W16335   6.169  20.323  13.491
44720W        W16336   6.890   1.650   4.302
44721W        W16337  40.824  27.071  14.791
44722W        W16338  29.622  26.921   2.544
44723W        W16339  44.338  16.069  11.815
44724W        W16340  31.515  15.430  10.999
44725W        W16341  27.030   0.389  11.613
44726W        W16342   1.141  28.076  11.436
44727W        W16343  33.937  20.476  14.250
44728W        W16344  27.857  20.574  11.966
44729W        W16345   9.689  21.053  11.552
44730W        W16346  35.638   0.926  12.356
44731W        W16347   2.966   9.883  11.180
44732W        W16348  17.453  38.812  11.971
44733W        W16349  20.314  41.256  14.495
44734W        W16350  36.185  35.895   1.415
44735W        W16351  24.132  13.753   4.573
44736W        W16352  15.053  42.454   3.711
44737W        W16353  27.649  44.361   0.681
44738W        W16354   3.310  12.336   4.081
44739W        W16355  42.002  43.286   3.217
44740W        W16356   7.608  32.987  12.517
44741W        W16357   5.253  15.114   3.636
44742W        W16358  21.520  18.815  12.740
44743W        W16359  35.520   8.455   1.831
44744W        W16360   0.449  38.734  14.430
44745W        W16361  16.164  36.850  12.663
44746W        W16362  16.694  24.702   2.489
44747W        W16363  36.448  23.181   2.812
44748W        W16364  42.288  32.130   0.147
44749W        W16365  18.743  28.436  12.322
44750W        W16366  26.038  28.116   1.889
44751W        W16367   8.777  23.961  13.328
44752W        W16368  14.966  23.246  14.051
44753W        W16369  26.288  11.318   2.204
44754W        W16370  33.480   1.365   0.824
44755W        W16371   2.769   9.463   1.450
44756W        W16372   4.174  25.126   2.128
44757W        W16373   5.470  35.403   2.334
44758W        W16374  40.507   6.486   3.209
44759W        W16375  18.200  18.624  13.299
44760W        W16376  31.267  42.430  10.695
44761W        W16377  35.066   6.846   4.405
44762W        W16378  24.882  11.170  13.908
44763W        W16379  25.622  16.427  14.920
44764W        W16380   9.342  23.556   2.568
44765W        W16381  19.541  40.836  13.375
44766W        W16382  41.373  24.993  14.058
44767W        W16383  37.065  16.712   1.832
44768W        W16384  33.319  31.941  14.255
44769W        W16385  27.204   1.383   0.187
44770W        W16386  18.288   0.490  12.427
44771W        W16387  29.871  40.826  11.619
44772W        W16388   5.920  35.424   0.312
44773W        W16389  18.667  13.957   4.495
44774W        W16390  31.295  33.464  10.756
44775W        W16391   6.762   0.868   0.710
44776W        W16392   6.228  11.429   1.301
44777W        W16393  39.384  39.814   4.298
44778W        W16394  10.154  15.064   2.619
44779W        W16395  10.286  24.061   3.607
44780W        W16396   4.460   7.600  11.339
44781W        W16397  13.947  37.657   1.306
44782W        W16398   9.790   2.406  12.821
44783W        W16399   6.074  16.258   2.721
44784W        W16400  15.737  38.391   4.577
44785W        W16401  35.840  34.326   0.909
44786W        W16402  19.387   5.401   0.015
44787W        W16403  39.004   7.133  10.910
44788W        W16404  12.193   3.263  13.098
44789W        W16405  26.542  27.217   4.172
44790W        W16406  33.938  15.662   0.465
44791W        W16407  24.652  15.433   0.000
44792W        W16408  32.922  14.397   4.283
44793W        W16409   4.259  39.234   4.406
44794W        W16410  10.204   2.742   4.913
44795W        W16411  10.609   9.820  10.867
44796W        W16412  37.275  39.819   2.711
44797W        W16413  41.450  19.516   3.332
44798W        W16414  43.187  41.653   1.367
44799W        W16415  32.578  29.481  12.146
44800W        W16416   1.227  44.332   0.449
44801W        W16417  29.139  27.662  10.182
44802W        W16418  21.570  23.026   1.811
44803W        W16419  16.709   3.496  11.009
44804W        W16420  31.645   4.668  13.341
44805W        W16421  28.096  21.055   0.475
44806W        W16422  21.174  38.420   2.778
44807W        W16423   5.673  35.771   3.758
44808W        W16424  30.944   1.567  14.308
44809W        W16425  44.779  32.833   4.721
44810W        W16426  29.912  34.122  14.475
44811W        W16427  39.342  23.061   4.669
44812W        W16428  40.797  28.586  12.626
44813W        W16429  43.376  23.526  13.354
44814W        W16430   1.633  23.916  12.600
44815W        W16431  38.457  22.837   1.357
44816W        W16432  13.808  24.232  14.885
44817W        W16433  21.793  30.177  12.019
44818W        W16434  27.723  12.223   2.709
44819W        W16435  11.152   1.070   1.840
44820W        W16436  12.470   1.732   4.629
44821W        W16437   5.915  30.927  12.880
44822W        W16438  34.295  39.397  11.683
44823W        W16439  43.866  41.652  14.240
44824W        W16440  18.296  16.305   4.080
44825W        W16441  18.255  15.910  11.887
44826W        W16442  42.970  34.525   0.246
44827W        W16443  17.707  37.070  13.319
44828W        W16444  33.883  37.560   2.326
44829W        W16445  18.358  23.645  14.378
44830W        W16446  22.618  10.401   0.331
44831W        W16447  27.595  24.095   4.369
44832W        W16448  19.247   0.934  13.781
44833W        W16449   1.941  38.365  12.445
44834W        W16450   4.512   7.184   2.597
44835W        W16451  36.917   8.356  12.316
44836W        W16452   5.104  22.167   4.353
44837W        W16453  10.206  17.516   4.901
44838W        W16454   9.908  27.239   0.308
44839W        W16455  35.288  14.181  10.667
44840W        W16456  19.471  38.405   4.539
44841W        W16457  37.465  38.110   3.070
44842W        W16458  39.378  43.205  14.981
44843W        W16459  15.795  19.230   3.199
44844W        W16460  44.649  34.863   3.909
44845W        W16461  18.769  35.012  10.539
44846W        W16462  40.945   7.837  11.212
44847W        W16463  16.554  15.877  12.919
44848W        W16464  26.724  15.153   4.407
44849W        W16465   3.121   9.887  14.845
44850W        W16466  32.481  18.166  13.875
44851W        W16467  16.107   5.703  10.344
44852W        W16468  19.296   2.578   0.799
44853W        W16469  44.882  37.102  14.602
44854W        W16470  23.273  18.215   4.939
44855W        W16471  29.325  41.752   1.433
44856W        W16472  28.682  31.658   9.942
44857W        W16473  44.066  34.974  11.214
44858W        W16474  38.896  16.542   4.132
44859W        W16475  11.944  18.664  10.512
44860W        W16476   6.432  13.139   4.560
44861W        W16477   8.627  37.606  14.106
44862W        W16478   4.686  42.857  12.596
44863W        W16479  31.599  25.402  13.495
44864W        W16480  17.225  19.509   4.192
44865W        W16481  30.592   5.253  11.362
44866W        W16482  10.211  11.601   2.838
44867W        W16483   0.761  44.468  12.514
44868W        W16484  34.763  44.506   0.945
44869W        W16485   4.247  40.434   1.885
44870W        W16486   0.542  16.187  13.080
44871W        W16487  15.533  11.906  14.000
44872W        W16488  22.436   0.388  11.193
44873W        W16489  15.081  13.736   2.220
44874W        W16490  32.093  26.190  11.552
44875W        W16491  31.722   1.376   3.245
44876W        W16492  38.521   0.307   2.158
44877W        W16493   7.215  33.501   0.472
44878W        W16494   9.386  33.682   2.750
44879W        W16495   4.184  44.470   3.765
44880W        W16496  10.551  43.262   1.810
44881W        W16497  17.527  16.791   5.050
44882W        W16498   4.669  13.764  11.981
44883W        W16499  43.894  33.994  12.423
44884W        W16500  35.984  42.161  14.931
44885W        W16501  17.177   0.915  14.834
44886W        W16502   0.308  36.109  11.082
44887W        W16503   5.901  40.806  11.044
44888W        W16504  40.871  19.089   0.848
44889W        W16505   7.454  10.692  13.982
44890W        W16506  28.944  22.617  14.364
44891W        W16507  29.600  41.602  11.238
44892W        W16508  41.131  36.621   0.280
44893W        W16509  32.903  30.960   0.764
44894W        W16510  29.174  13.762   1.104
44895W        W16511   4.736  39.210   2.331
44896W        W16512   9.313   0.984  13.307
44897W        W16513  34.839  21.561   0.818
44898W        W16514   9.924   1.999   0.303
44899W        W16515  12.589  20.317  11.763
44900W        W16516  42.311  19.991   3.324
44901W        W16517  23.467  16.129   1.374
44902W        W16518   3.943   0.855   2.005
44903W        W16519  41.550  15.263   4.552
44904W        W16520  15.123   3.379  12.292
44905W        W16521  10.474   4.492   0.489
44906W        W16522   5.286   3.770  10.938
44907W        W16523  43.457  14.142   3.332
44908W        W16524  35.325  17.397  11.637
44909W        W16525  11.616  15.914   0.763
44910W        W16526  10.718   8.635  14.387
44911W        W16527  21.656   7.646   4.162
44912W        W16528   8.895  20.016  10.343
44913W        W16529   8.277  10.127  13.920
44914W        W16530  19.454  22.263   3.729
44915W        W16531  40.663   0.040  11.510
44916W        W16532  36.397  25.079   3.667
44917W        W16533   7.994  27.149   0.437
44918W        W16534  33.131  28.966   1.241
44919W        W16535  36.369  33.360  13.926
44920W        W16536  38.830   1.599  10.816
44921W        W16537  22.979   9.170   3.301
44922W        W16538  34.478  43.558   0.929
44923W        W16539  32.943  14.745   3.573
44924W        W16540  34.616  44.649  12.515
44925W        W16541  26.907  27.977   3.361
44926W        W16542  18.055   2.406   0.510
44927W        W16543  22.285  39.354   0.151
44928W        W16544  14.240  40.891   4.106
44929W        W16545  13.790  18.319   3.671
44930W        W16546  20.795  20.001   4.210
44931W        W16547  19.076  12.387   4.812
44932W        W16548  14.784  12.909   2.763
44933W        W16549  19.698  42.887  14.812
44934W        W16550   8.697  31.015  13.883
44935W        W16551  17.444  23.085   4.816
44936W        W16552  28.067  44.365  10.777
44937W        W16553  14.110  24.679  11.902
44938W        W16554  21.138   3.340   3.573
44939W        W16555  38.673   3.444   4.603
44940W        W16556   5.541  40.895   1.979
44941W        W16557  11.794   7.607   2.905
44942W        W16558  15.350  14.614  14.529
44943W        W16559   8.898  24.333   2.343
44944W        W16560  43.550  28.145   1.487
44945W        W16561  24.703  44.703  11.676
44946W        W16562  18.525  29.534  11.263
44947W        W16563  33.650   7.815  10.673
44948W        W16564  20.278  30.110  11.200
44949W        W16565   3.092  37.962  11.662
44950W        W16566   0.944  20.037   2.714
44951W        W16567  37.385  18.037   1.459
44952W        W16568  14.204  17.010  11.492
44953W        W16569  31.615  15.669   0.361
44954W        W16570  23.379  39.045  12.556
44955W        W16571  12.738  19.580   1.444
44956W        W16572   1.855  32.435  13.805
44957W        W16573  12.261   6.839  14.923
44958W        W16574  35.488  25.618   3.893
44959W        W16575   0.243  23.822   0.030
44960W        W16576   9.932  29.494  12.103
44961W        W16577  36.639  32.622  14.892
44962W        W16578  32.054   5.308  14.437
44963W        W16579   5.239  40.817  12.715
44964W        W16580  27.730  30.881  10.752
44965W        W16581  39.037  11.101   3.321
44966W        W16582  43.725  18.264  14.440
44967W        W16583  38.558   2.705   0.820
44968W        W16584  30.576  40.951   2.735
44969W        W16585  28.618  26.771  13.418
44970W        W16586   9.933   4.475  11.592
44971W        W16587  27.300  26.297   5.119
44972W        W16588  24.848   3.245   0.182
44973W        W16589   1.946  36.752   1.839
44974W        W16590  29.595  34.005   0.935
44975W        W16591  40.305  15.776  12.636
44976W        W16592  36.388   6.146  13.128
44977W        W16593  30.230  31.442  14.111
44978W        W16594  14.101   6.824  13.545
44979W        W16595  22.830  39.414  14.295
44980W        W16596  11.377  43.315   2.250
44981W        W16597  34.138   3.845  11.931
44982W        W16598   1.802  41.605  13.419
44983W        W16599  43.998   9.827  11.533
44984W        W16600   9.316  21.565  10.902
44985W        W16601   9.728   2.473   2.200
44986W        W16602  40.913  20.778   2.388
44987W        W16603  14.582  23.255   4.994
44988W        W16604   9.622   1.872  14.908
44989W        W16605  22.285   8.828   2.690
44990W        W16606  30.187  38.515  11.438
44991W        W16607  27.111  25.100   1.683
44992W        W16608  14.246  22.686  13.947
44993W        W16609  22.023  29.562   0.284
44994W        W16610  37.115  22.961  13.953
44995W        W16611  10.353  13.150  13.104
44996W        W16612  24.055  41.304   2.086
44997W        W16613  33.690   4.812   0.190
44998W        W16614  37.068  30.013  11.590
44999W        W16615   9.286  24.103  14.807
45000W        W16616   3.251  42.982  13.955
45001W        W16617  41.443   3.161   1.349
45002W        W16618   1.727   3.494   3.581
45003W        W16619  41.532  18.544   4.655
45004W        W16620   3.847  37.357  13.266
45005W        W16621   8.601  15.807   3.289
45006W        W16622  36.649  31.539   1.241
45007W        W16623   8.544   8.297  11.419
45008W        W16624  14.065  32.770  12.541
45009W        W16625   7.316  27.938  11.349
45010W        W16626   4.003  21.614  14.611
45011W        W16627  15.813  27.962  11.636
45012W        W16628  23.172  38.418  10.724
45013W        W16629  27.568   9.627   4.508
45014W        W16630  17.191   1.751  11.065
45015W        W16631  34.547  43.541   1.837
45016W        W16632  22.491  19.459  14.033
45017W        W16633  18.635  29.974  13.541
45018W        W16634  17.760  13.782  11.206
45019W        W16635  12.421  31.490   4.543
45020W        W16636  17.277  27.873   3.250
45021W        W16637   4.860  36.891   4.313
45022W        W16638  13.298   7.843   2.805
45023W        W16639  11.802  39.780   3.751
45024W        W16640   3.244  11.468   3.329
45025W        W16641   1.255  21.242   4.255
45026W        W16642   9.590  26.006   3.109
45027W        W16643   7.108   4.986  11.676
45028W        W16644  44.941  33.515  14.080
45029W        W16645  42.552  22.159  13.398
45030W        W16646  24.754   9.100  13.154
45031W        W16647  11.538   2.938  11.135
45032W        W16648  13.547  42.263   2.809
45033W        W16649   7.380  33.033   2.173
45034W        W16650  32.380  26.939  11.416
45035W        W16651   4.713   4.629   0.352
45036W        W16652   8.674  15.379  14.027
45037W        W16653  20.079  10.828   2.404
45038W        W16654  25.550  11.799   2.080
45039W        W16655  37.148  19.064   1.283
45040W        W16656   4.161  19.655  13.950
45041W        W16657   3.150  30.887  14.320
45042W        W16658  26.088  19.382  11.509
45043W        W16659   1.005  30.204  12.515
45044W        W16660  20.269  28.586   1.533
45045W        W16661  20.649  25.268  14.544
45046W        W16662  19.826  20.813   4.546
45047W        W16663  28.575  40.575  11.145
45048W        W16664  36.814  39.699  12.705
45049W        W16665   3.918  29.640   3.383
45050W        W16666  32.870  10.234  11.655
45051W        W16667  25.962  35.788  13.338
45052W        W16668  35.528   6.303  12.146
45053W        W16669  32.692  40.977  13.323
45054W        W16670   4.290  27.169  11.352
45055W        W16671  29.041  27.566  14.315
45056W        W16672   1.721  12.269   2.016
45057W        W16673  15.652  34.598  11.064
45058W        W16674  19.404  34.413  11.211
45059W        W16675  14.817  12.291  13.345
45060W        W16676  38.400  44.974  12.285
45061W        W16677  30.953   4.417   4.086
45062W        W16678  15.884  40.908  11.138
45063W        W16679  13.747  27.590   2.256
45064W        W16680  25.624  21.617   2.862
45065W        W16681  15.547  32.021  14.120
45066W        W16682   6.243  37.802   4.489
45067W        W16683  18.780  44.429  12.857
45068W        W16684  14.366  44.496   3.210
45069W        W16685  43.513   4.688   1.360
45070W        W16686   5.090  27.461  14.842
45071W        W16687  16.394   5.308  12.540
45072W        W16688  37.536  44.096  13.416
45073W        W16689   7.079   1.016  11.846
45074W        W16690  42.993  23.617  14.772
45075W        W16691  12.741  26.600  13.368
45076W        W16692   5.244  41.340  11.859
45077W        W16693  23.561   2.408  14.367
45078W        W16694  10.563  40.959  10.814
45079W        W16695   1.569  35.019   3.356
45080W        W16696  39.293  14.231  12.957
45081W        W16697  23.320  29.477  12.843
45082W        W16698  27.763  17.721   3.739
45083W        W16699  13.320  28.067  12.091
45084W        W16700  13.283   8.540   1.480
45085W        W16701  20.137  20.483   2.873
45086W        W16702  10.783  28.837   1.233
45087W        W16703  20.664  10.250   3.602
45088W        W16704  44.744  12.935   0.243
45089W        W16705  43.828  11.544   1.717
45090W        W16706  23.688  15.376   4.570
45091W        W16707  44.677   5.966   3.717
45092W        W16708  44.398  14.575  10.823
45093W        W16709  14.398  40.864   2.180
45094W        W16710  20.139  26.816   3.076
45095W        W16711  23.539  16.644   3.234
45096W        W16712  37.478  38.640  12.084
45097W        W16713  39.146  12.578  13.329
45098W        W16714  14.762  16.161  10.053
45099W        W16715  18.843  14.014   2.752
45100W        W16716  29.497   7.531   3.621
45101W        W16717  33.903   9.621  12.959
45102W        W16718  44.102   3.170  10.960
45103W        W16719   9.728   4.971   0.299
45104W        W16720   5.153  32.848  12.587
45105W        W16721   9.607  35.930   1.865
45106W        W16722   2.237   9.782  10.746
45107W        W16723  20.304  31.076  10.901
45108W        W16724  41.393  22.543   1.181
45109W        W16725  17.538  11.730   1.153
45110W        W16726  14.385  23.929   4.951
45111W        W16727  27.012   0.783  13.859
45112W        W16728  41.811  15.761  11.538
45113W        W16729   7.246  14.062  13.931
45114W        W16730   3.857  40.318  12.397
45115W        W16731   8.332  35.623   2.354
45116W        W16732  43.911  37.103   0.265
45117W        W16733  25.644  18.915   2.589
45118W        W16734  30.119  12.299  12.068
45119W        W16735  27.858  32.467   0.300
45120W        W16736  16.705  37.017   2.333
45121W        W16737  39.937  37.373  13.199
45122W        W16738  20.709  24.243   1.828
45123W        W16739  43.272  36.833   2.174
45124W        W16740  11.319  16.254  11.531
45125W        W16741   5.180  42.994   3.672
45126W        W16742  19.146  42.944  10.151
45127W        W16743  40.544  25.161  14.749
45128W        W16744  38.020  35.398   2.160
45129W        W16745   4.287  42.726   3.136
45130W        W16746  29.579  31.772   1.111
45131W        W16747   4.766  37.511   2.504
45132W        W16748   8.928  28.440   0.708
45133W        W16749  41.005  40.110  13.722
45134W        W16750  23.130  17.797  12.874
45135W        W16751  32.405   0.932  11.161
45136W        W16752  36.522   0.976   0.537
45137W        W16753  13.956  29.256  13.290
45138W        W16754  36.404   3.960   3.412
45139W        W16755  14.184  15.548  14.055
45140W        W16756  10.473  43.285  13.499
45141W        W16757   1.394  22.315   9.811
45142W        W16758  23.652  31.736   2.744
45143W        W16759  27.533  31.608   1.740
45144W        W16760  30.151  22.781  14.896
45145W        W16761   0.307  33.168  13.928
45146W        W16762  34.950  11.329  14.870
45147W        W16763  11.678  31.588   1.732
45148W        W16764  23.086  41.558   0.495
45149W        W16765   2.324   7.722   1.768
45150W        W16766  11.057  37.140   3.989
45151W        W16767  43.408   5.379  13.545
45152W        W16768  15.133   6.629  14.069
45153W        W16769  42.029   3.463   4.606
45154W        W16770   6.338  33.456  13.500
45155W        W16771   8.779  26.452   0.843
45156W        W16772  38.099  32.152   1.406
45157W        W16773   0.386  20.630  10.608
45158W        W16774  19.192  36.857   2.499
45159W        W16775  18.800  43.319   1.462
45160W        W16776  18.965  23.667   1.844
45161W        W16777  39.941  11.135  11.603
45162W        W16778  31.510  39.122   2.329
45163W        W16779  19.522  20.531  10.690
45164W        W16780  17.100   6.094   0.528
45165W        W16781   9.592  20.152  14.365
45166W        W16782   5.438  31.359   3.235
45167W        W16783   7.842   5.060   0.420
45168W        W16784  13.250  43.082  11.984
45169W        W16785  44.772  36.123   4.680
45170W        W16786  24.850  12.197  14.790
45171W        W16787   9.869  30.965  14.359
45172W        W16788  37.757  33.443  10.514
45173W        W16789  16.552   2.941  14.410
45174W        W16790  21.487  14.426   1.693
45175W        W16791  37.526  38.094  11.867
45176W        W16792   3.473   7.866  13.381
45177W        W16793  20.973   4.975   1.805
45178W        W16794  32.769  19.342   0.401
45179W        W16795  12.322  22.817  11.902
45180W        W16796  42.271  10.757  13.369
45181W        W16797  41.325  17.292   4.117
45182W        W16798   7.146  32.902   3.957
45183W        W16799  30.762  35.056   1.749
45184W        W16800  37.301  38.579  10.743
45185W        W16801   5.194   7.704   3.453
45186W        W16802  34.561  15.798  13.988
45187W        W16803  32.247  30.217   5.089
45188W        W16804  40.284  25.089  13.377
45189W        W16805   3.260  15.327   1.112
45190W        W16806  35.433  36.430   1.221
45191W        W16807  24.178   8.312   3.771
45192W        W16808  35.807  28.251   0.497
45193W        W16809   1.440  21.202   3.377
45194W        W16810  19.502  27.490  13.427
45195W        W16811  39.362  10.677  12.134
45196W        W16812  17.992   8.545  12.131
45197W        W16813  41.085  25.411  13.927
45198W        W16814  34.615  24.654   1.651
45199W        W16815   6.642  13.663   2.423
45200W        W16816   3.249  31.655  13.480
45201W        W16817  24.735  16.388   0.053
45202W        W16818  24.037   5.327  12.473
45203W        W16819  43.467  16.843  13.021
45204W        W16820  29.586  34.979  10.361
45205W        W16821  32.064  23.235  12.082
45206W        W16822   5.443  44.302  11.111
45207W        W16823  37.399  36.029   3.677
45208W        W16824  42.456  33.100   1.920
45209W        W16825  19.443  15.773   1.187
45210W        W16826  38.427  30.863  14.445
45211W        W16827  37.082  14.193  11.003
45212W        W16828  42.251  40.557   2.217
45213W        W16829  43.528   5.671  14.405
45214W        W16830  12.220  44.524   0.483
45215W        W16831  19.658  10.699   2.138
45216W        W16832  12.416  24.213  13.306
45217W        W16833  15.215  41.513   4.656
45218W        W16834  41.126  17.171  10.695
45219W        W16835  32.945  29.950   4.524
45220W        W16836  40.484   2.329  13.623
45221W        W16837  15.588  27.761   2.775
45222W        W16838  26.960  31.525  11.557
45223W        W16839  39.370  32.638   0.879
45224W        W16840  27.003  15.321  13.483
45225W        W16841  13.881  43.308  11.044
45226W        W16842  42.573   7.655   1.807
45227W        W16843  18.573  23.479   3.373
45228W        W16844  29.656   5.819   0.461
45229W        W16845  34.032  23.264   0.869
45230W        W16846  18.281  38.427   3.721
45231W        W16847  27.089  20.330  14.518
45232W        W16848  40.857  27.930   0.408
45233W        W16849  39.444   6.652   0.583
45234W        W16850   4.956   5.618  12.175
45235W        W16851  39.981  27.059  13.521
45236W        W16852  25.672   2.801  10.745
45237W        W16853   4.069  38.769   4.334
45238W        W16854  10.846  27.986   1.468
45239W        W16855  17.621   7.356  11.644
45240W        W16856  23.155  29.603  10.648
45241W        W16857  25.566   8.960   3.557
45242W        W16858   1.774  13.884   2.885
45243W        W16859  32.882  44.415  11.954
45244W        W16860   0.787  43.436   1.715
45245W        W16861   9.668  21.676   4.811
45246W        W16862  20.922  34.595  13.057
45247W        W16863  10.746  30.339  13.826
45248W        W16864  22.606  29.669  10.733
45249W        W16865  39.361  42.805   0.326
45250W        W16866   1.040  18.114   3.209
45251W        W16867  37.128   0.410   3.226
45252W        W16868   5.963   5.170  10.441
45253W        W16869  22.701  19.114  12.613
45254W        W16870  11.867  41.808   2.471
45255W        W16871  10.338   5.790   4.941
45256W        W16872  43.400   0.206   3.778
45257W        W16873  32.959   0.288  13.524
45258W        W16874   9.719  30.122  13.504
45259W        W16875   9.766  11.827   4.583
45260W        W16876  11.500  18.310   5.147
45261W        W16877  33.122  25.721   1.458
45262W        W16878  31.550  28.521   4.127
45263W        W16879  23.167   9.316  10.549
45264W        W16880  32.674  13.466  10.805
45265W        W16881  14.163   3.328  12.346
45266W        W16882   1.461  38.329  11.647
45267W        W16883  28.431   8.854   2.676
45268W        W16884  43.744  31.904  10.657
45269W        W16885  42.858  38.832   0.839
45270W        W16886   0.699  32.023  13.852
45271W        W16887   0.387  23.662   2.105
45272W        W16888  17.158  24.655   4.716
45273W        W16889  15.264  32.645   3.237
45274W        W16890  39.877  33.915  13.762
45275W        W16891   6.710   4.256  12.557
45276W        W16892  20.077  11.972   0.709
45277W        W16893  25.857  21.074  11.499
45278W        W16894  35.282  12.751  12.502
45279W        W16895  44.552   6.094   0.794
45280W        W16896  28.472  29.063  13.893
45281W        W16897   8.351  26.844  11.229
45282W        W16898   9.627  23.292   3.666
45283W        W16899  29.340  19.805   0.532
45284W        W16900  35.618   9.327   0.406
45285W        W16901   4.830  18.765   2.746
45286W        W16902  44.401  29.388   2.352
45287W        W16903  13.674   4.800   4.992
45288W        W16904  35.526  26.173  11.820
45289W        W16905   3.729  12.320   3.779
45290W        W16906   0.557  34.794  13.012
45291W        W16907  20.649  39.859   2.283
45292W        W16908  16.799  22.359  13.289
45293W        W16909   3.652  22.668   2.354
45294W        W16910  23.994  25.478  12.896
45295W        W16911  44.467  18.255   3.363
45296W        W16912   1.640  11.323   1.705
45297W        W16913  41.038  36.398  10.643
45298W        W16914  26.928  40.024   3.331
45299W        W16915  21.078  34.960  11.528
45300W        W16916  10.269  16.119   2.467
45301W        W16917  10.753  42.515  12.503
45302W        W16918  11.642  44.173   2.618
45303W        W16919   7.974  25.627   1.175
45304W        W16920  30.559   5.809   4.278
45305W        W16921  11.614  14.075  11.152
45306W        W16922  14.676  34.151   4.570
45307W        W16923   0.213  36.810   1.317
45308W        W16924  34.044  20.331   1.308
45309W        W16925   2.771   3.390  14.224
45310W        W16926  33.433  41.399  13.098
45311W        W16927   4.487   5.761  11.938
45312W        W16928  44.411  33.846  12.440
45313W        W16929  31.045  14.494   3.860
45314W        W16930  31.780  20.015   0.837
45315W        W16931  42.920  39.931   1.885
45316W        W16932   1.303  38.289  14.923
45317W        W16933  29.589  42.018   1.782
45318W        W16934  24.420  37.267  10.225
45319W        W16935   3.743  32.926   2.659
45320W        W16936  15.618   0.048   0.434
45321W        W16937   8.397  13.916  13.131
45322W        W16938  13.446  19.381  11.531
45323W        W16939  34.809  14.811  12.866
45324W        W16940  36.043  42.414   4.551
45325W        W16941  18.681  36.561   4.878
45326W        W16942  44.386  28.478  14.736
45327W        W16943  14.135   2.083  13.874
45328W        W16944   0.766  24.188  10.130
45329W        W16945  16.439  19.267   4.468
45330W        W16946  31.579  17.770   2.699
45331W        W16947  14.281   5.932   2.256
45332W        W16948  11.383  39.496  12.976
45333W        W16949  26.641   5.288   2.141
45334W        W16950  35.537  13.125  13.428
45335W        W16951  32.634  31.361  11.461
45336W        W16952   5.274  12.316  11.479
45337W        W16953   4.881  34.404  14.785
45338W        W16954  32.986  31.516   4.705
45339W        W16955  39.469   9.428  11.051
45340W        W16956  41.726   8.631  13.422
45341W        W16957  23.927  31.469   0.426
45342W        W16958  10.324  32.452  11.162
45343W        W16959  13.578  43.773  11.142
45344W        W16960  36.114  19.257  14.012
45345W        W16961  22.986   0.862  11.620
45346W        W16962  16.556  17.141   5.044
45347W        W16963  41.519   8.651   1.234
45348W        W16964  32.296  12.751   3.156
45349W        W16965  18.125  32.958   3.730
45350W        W16966  16.909   7.750  12.856
45351W        W16967  31.954  37.518  13.902
45352W        W16968  44.308  14.334   1.636
45353W        W16969  26.462  39.799  11.147
45354W        W16970  11.141  34.019  10.661
45355W        W16971   9.934  13.601  13.870
45356W        W16972  43.193  24.891   1.397
45357W        W16973  32.526  16.822   4.567
45358W        W16974  40.570  33.135   2.157
45359W        W16975  33.996  37.965  10.690
45360W        W16976  44.383  10.246  14.819
45361W        W16977  18.679  41.286  12.113
45362W        W16978  39.047  18.089  12.732
45363W        W16979  22.772  40.487  13.447
45364W        W16980  18.329  28.618  10.893
45365W        W16981   6.786  32.024  10.470
45366W        W16982   9.822  18.247  14.467
45367W        W16983  13.259  33.073  11.510
45368W        W16984  37.666  27.165  12.503
45369W        W16985  39.907  43.047   1.739
45370W        W16986  12.605  19.380   2.177
45371W        W16987  16.564  12.731  12.019
45372W        W16988  27.476  19.712   4.305
45373W        W16989  19.791  31.441  14.805
45374W        W16990   6.166  42.894  12.483
45375W        W16991  32.921  24.093   0.289
45376W        W16992  17.735  27.503  10.892
45377W        W16993  14.765  35.343  14.767
45378W        W16994   5.325  23.058   4.500
45379W        W16995  39.332  19.144   0.224
45380W        W16996  26.760  35.386  11.744
45381W        W16997  15.997  22.189  11.994
45382W        W16998  27.480  32.491  12.534
45383W        W16999  31.001  28.070  11.577
45384W        W17000  35.366  24.573  13.873
45385W        W17001  16.181  24.264   3.621
45386W        W17002  10.788  14.580   1.331
45387W        W17003  42.323  22.765  14.578
45388W        W17004  36.307   2.404  10.577
45389W        W17005  30.927  15.646   5.118
45390W        W17006   2.270  17.039   2.832
45391W        W17007  32.259  25.690   4.419
45392W        W17008  44.772  12.588  13.556
45393W        W17009   1.316  10.261   2.925
45394W        W17010  23.776  12.350  13.021
45395W        W17011  14.183  32.610  11.045
45396W        W17012   9.784  28.469  10.830
45397W        W17013  10.480  10.157   0.769
45398W        W17014  24.219  20.643  12.527
45399W        W17015  37.400  24.427   2.417
45400W        W17016   2.970  10.033   4.074
45401W        W17017  33.542  10.857  10.658
45402W        W17018  13.188   7.730  12.423
45403W        W17019   2.301  23.330  14.020
45404W        W17020  37.508   3.482   2.653
45405W        W17021  39.639  13.792  11.049
45406W        W17022  29.787  40.475  13.107
45407W        W17023  20.556  41.575   4.212
45408W        W17024  17.502  35.715   0.475
45409W        W17025  26.401  37.584  14.827
45410W        W17026  14.210  31.210  12.619
45411W        W17027   4.266  42.458   1.605
45412W        W17028  11.879  19.592  14.918
45413W        W17029  32.631  15.368   0.129
45414W        W17030  16.373  10.796  14.467
45415W        W17031  25.611  34.289  14.375
45416W        W17032  39.637  25.192   0.175
45417W        W17033  44.309   1.907   3.601
45418W        W17034  19.817  29.507  10.741
45419W        W17035   8.636  31.135  13.385
45420W        W17036  16.851  10.096  14.798
45421W        W17037  42.795  33.820   3.620
45422W        W17038  31.748  39.048  11.558
45423W        W17039  17.263  14.843   2.934
45424W        W17040  34.555   0.841   0.339
45425W        W17041  44.831  44.763   2.876
45426W        W17042   2.974  20.021  14.302
45427W        W17043   6.035  19.330   1.285
45428W        W17044   6.784  37.450  13.721
45429W        W17045  16.665  34.881   0.969
45430W        W17046  24.361   8.938  13.504
45431W        W17047  23.483  34.590  10.752
45432W        W17048  33.448  37.326  11.561
45433W        W17049  35.127  44.978  12.326
45434W        W17050  15.396  42.335  11.571
45435W        W17051  21.713  13.786  10.646
45436W        W17052   0.013  42.710  11.158
45437W        W17053  26.163  20.274  11.873
45438W        W17054  26.998  44.544   4.099
45439W        W17055  15.163  16.636   3.203
45440W        W17056  13.708  33.574   0.703
45441W        W17057  25.383  17.066  14.293
45442W        W17058  39.787  41.905   3.287
45443W        W17059  44.254   0.978   3.410
45444W        W17060  21.493  16.800  14.315
45445W        W17061  21.678  42.995   2.170
45446W        W17062  44.696   8.901  13.872
45447W        W17063   7.456  40.419   0.795
45448W        W17064  43.814  38.037  10.229
45449W        W17065   0.849  21.080   3.602
45450W        W17066   2.732  25.543   4.568
45451W        W17067  24.606  11.840  13.915
45452W        W17068  21.296  17.257   4.137
45453W        W17069  13.487  26.616   1.182
45454W        W17070  40.087   4.110   1.610
45455W        W17071   6.379  22.128   0.817
45456W        W17072  24.944   9.280   0.822
45457W        W17073  12.192  10.110  14.881
45458W        W17074  43.521   6.801   3.899
45459W        W17075   1.732   9.752  10.659
45460W        W17076  27.416  17.228   2.630
45461W        W17077   7.071   7.773  12.333
45462W        W17078  11.952  11.610   3.221
45463W        W17079  37.649  19.495   2.731
45464W        W17080  44.016  18.769  12.534
45465W        W17081  18.518  26.670  14.848
45466W        W17082  28.123   0.302  13.833
45467W        W17083  41.996  40.082  12.428
45468W        W17084  33.822   4.537   4.140
45469W        W17085  36.645  23.081  14.886
45470W        W17086  27.301  11.825  13.013
45471W        W17087  44.588   4.351   0.536
45472W        W17088  29.235  16.891  13.091
45473W        W17089  35.570  41.429   3.075
45474W        W17090  35.130  23.514  14.298
45475W        W17091  27.423  41.853  11.683
45476W        W17092  16.243   2.735   0.256
45477W        W17093   0.734  40.562  13.312
45478W        W17094  16.725  27.020  13.566
45479W        W17095  15.662  32.924   0.374
45480W        W17096  38.341  31.550  12.053
45481W        W17097  20.146  31.625  13.020
45482W        W17098  40.197  43.325  10.778
45483W        W17099  20.535   2.023   0.915
45484W        W17100  31.118   6.267   3.667
45485W        W17101   7.222  34.551  13.496
45486W        W17102  43.816  40.974   0.018
45487W        W17103   6.888   0.424   0.485
45488W        W17104  31.625   2.031  13.830
45489W        W17105  12.381  23.519   0.946
45490W        W17106  11.596  27.672  14.798
45491W        W17107  35.504   2.426  13.839
45492W        W17108  11.839  14.859   2.897
45493W        W17109  14.344  21.795   3.706
45494W        W17110  36.266   2.988   3.618
45495W        W17111  42.889  40.061   4.641
45496W        W17112  37.810   4.746  11.677
45497W        W17113  12.853  13.181  12.397
45498W        W17114  10.241   3.650  10.690
45499W        W17115   7.437  13.082  14.103
45500W        W17116  15.168  23.294   1.423
45501W        W17117   1.324  31.649   2.889
45502W        W17118   4.783  39.339   0.863
45503W        W17119  35.393  34.386  12.203
45504W        W17120  14.084  21.108  13.997
45505W        W17121  22.092  41.441  13.902
45506W        W17122  18.315  19.039   1.736
45507W        W17123  27.637  16.770   3.371
45508W        W17124  24.749   7.398   0.185
45509W        W17125  25.190  43.789  13.166
45510W        W17126  26.156  12.647  14.026
45511W        W17127  37.793   3.106  11.154
45512W        W17128  27.035  30.071  11.664
45513W        W17129  43.131  29.391  14.961
45514W        W17130   8.384  37.649   0.479
45515W        W17131  44.523  29.042  12.627
45516W        W17132  28.488   9.686   4.614
45517W        W17133  24.509  41.287   4.049
45518W        W17134  30.472  30.482  12.432
45519W        W17135  30.043  28.378   3.204
45520W        W17136  42.106   7.045   1.415
45521W        W17137   1.793   2.705  14.422
45522W        W17138  10.636   3.673   2.818
45523W        W17139  39.568  30.936   0.414
45524W        W17140  11.543  24.252   0.809
45525W        W17141   8.578  26.932   4.767
45526W        W17142  22.818  31.107   4.018
45527W        W17143  32.046  42.842   5.111
45528W        W17144  39.281  36.480  11.074
45529W        W17145  29.618  43.804   4.739
45530W        W17146  18.620  10.577  12.025
45531W        W17147  22.915  13.870   1.275
45532W        W17148  43.865  26.966   3.744
45533W        W17149  20.835  22.467   2.230
45534W        W17150  15.939  31.253   3.890
45535W        W17151  32.397  31.658  14.472
45536W        W17152  33.360  17.982   1.473
45537W        W17153  37.301  41.769  14.786
45538W        W17154   3.833   8.808   3.194
45539W        W17155  25.090  31.357  14.831
45540W        W17156  28.002  35.020   4.944
45541W        W17157  39.791   6.793  14.680
45542W        W17158  35.658  11.270   3.673
45543W        W17159  43.478  17.326  12.875
45544W        W17160  22.109   8.370   3.881
45545W        W17161   0.291  25.894   2.310
45546W        W17162   7.919  30.060   4.348
45547W        W17163   0.935  31.633   4.666
45548W        W17164   8.651   9.769   2.947
45549W        W17165  31.273   6.435  14.554
45550W        W17166  24.379  26.006  13.444
45551W        W17167  28.199  42.225  13.300
45552W        W17168  27.951  32.363  13.868
45553W        W17169  14.589  19.463   4.159
45554W        W17170  44.698  26.074   0.507
45555W        W17171   4.339  12.342   2.222
45556W        W17172   2.891  19.720   2.514
45557W        W17173  34.071  36.116  12.997
45558W        W17174  18.572  17.928  12.193
45559W        W17175  39.397  31.441   0.464
45560W        W17176  20.016  10.329   2.371
45561W        W17177  29.067  40.909   3.056
45562W        W17178  27.649  44.249   2.716
45563W        W17179  38.477   3.958  10.711
45564W        W17180  12.669  44.704  11.930
45565W        W17181  32.130  23.088   4.044
45566W        W17182   2.290  36.994   0.305
45567W        W17183  20.303  18.245  13.460
45568W        W17184  21.494  13.315   3.218
45569W        W17185  34.919  42.979  11.539
45570W        W17186   8.662   2.378  11.703
45571W        W17187  13.552  20.842  14.756
45572W        W17188  19.279  32.872   0.815
45573W        W17189  19.834  16.534   2.588
45574W        W17190  14.029  31.481  13.005
45575W        W17191  39.039  10.647  10.560
45576W        W17192  12.321  17.170  14.361
45577W        W17193  36.829  41.088   4.519
45578W        W17194   5.313  38.525   2.584
45579W        W17195  32.923  20.609   3.751
45580W        W17196  18.287   6.105  13.738
45581W        W17197  40.896   4.911  14.656
45582W        W17198  37.557  38.968  14.869
45583W        W17199  27.018  23.540   0.714
45584W        W17200  25.242   9.218  12.992
45585W        W17201  40.098  12.365  10.286
45586W        W17202  36.867  26.124   0.009
45587W        W17203  39.960   5.775  13.772
45588W        W17204  37.923  33.621   2.825
45589W        W17205  22.501  10.375   3.589
45590W        W17206  41.979  32.900   0.174
45591W        W17207  21.070  31.816  13.588
45592W        W17208  17.024   4.873   2.335
45593W        W17209  19.246  17.744   3.879
45594W        W17210  19.646   8.713   3.687
45595W        W17211   5.235  20.772  13.564
45596W        W17212  31.677  10.818  12.561
45597W        W17213  30.452  20.641  14.338
45598W        W17214  25.664   5.655  14.340
45599W        W17215  25.718   6.314   2.295
45600W        W17216  16.825  22.871  13.236
45601W        W17217  14.752   4.834   1.246
45602W        W17218  29.894   4.961  14.315
45603W        W17219  38.018  41.739   2.770
45604W        W17220   7.614  33.544  12.055
45605W        W17221  22.794  43.529   2.904
45606W        W17222  15.720  30.784  13.995
45607W        W17223  38.598  20.507  14.086
45608W        W17224  32.477  39.315  12.860
45609W        W17225  29.183  14.859   9.790
45610W        W17226  37.669  26.445  12.053
45611W        W17227  43.440   1.008  10.802
45612W        W17228  32.224  31.897   0.784
45613W        W17229  38.379   4.449  12.894
45614W        W17230  26.637  26.539   0.020
45615W        W17231   8.148  18.159   0.417
45616W        W17232  40.544  19.786  14.062
45617W        W17233  29.466  27.912  14.061
45618W        W17234   8.235  21.742   3.328
45619W        W17235  29.051  23.790   2.356
45620W        W17236  44.388  41.110   4.418
45621W        W17237  14.690   8.132  12.023
45622W        W17238  13.772   1.727   1.951
45623W        W17239   0.004  26.968  11.423
45624W        W17240   1.424   5.457  14.416
45625W        W17241   6.248  18.744  14.715
45626W        W17242   8.617  41.724  12.044
45627W        W17243   8.734   5.866  11.899
45628W        W17244   8.274   7.708   0.758
45629W        W17245  40.943  44.058  12.367
45630W        W17246  34.650  37.580   0.303
45631W        W17247   4.867  34.056  10.712
45632W        W17248   5.665   6.056   0.812
45633W        W17249   8.887  42.146   4.685
45634W        W17250   1.006  36.477  12.103
45635W        W17251  43.358  42.246  10.856
45636W        W17252   0.305  37.198   0.890
45637W        W17253  43.857   6.559   3.589
45638W        W17254   8.265  42.578  14.923
45639W        W17255   3.734  30.873   4.324
45640W        W17256  14.418  26.546   3.399
45641W        W17257  20.618  15.240  14.343
45642W        W17258   7.679  14.377  10.644
45643W        W17259  32.380  18.307  10.629
45644W        W17260  23.178  30.364  13.416
45645W        W17261  40.644  27.441  14.394
45646W        W17262  30.976  31.833   2.283
45647W        W17263   4.373  25.721  14.364
45648W        W17264  18.665  10.464  11.485
45649W        W17265   6.249  36.933  11.513
45650W        W17266  17.033   6.094   4.149
45651W        W17267   6.833  41.561   2.321
45652W        W17268  44.600  27.824   4.968
45653W        W17269  23.117  39.148  12.990
45654W        W17270  33.642  22.549  11.182
45655W        W17271  39.777   9.822   1.797
45656W        W17272  19.881  42.785   1.664
45657W        W17273  34.924  31.962   4.147
45658W        W17274  25.171   0.973  13.927
45659W        W17275   1.848  23.086  12.452
45660W        W17276   6.137  12.590   1.897
45661W        W17277  16.662  37.520   4.005
45662W        W17278  29.677   8.397  14.415
45663W        W17279  19.424   3.365  10.644
45664W        W17280  31.143  20.593   1.737
45665W        W17281  17.973  39.422   3.131
45666W        W17282  27.710  35.370  12.135
45667W        W17283  20.648   9.030  12.028
45668W        W17284  18.684  34.731  12.294
45669W        W17285   3.869  40.855  12.553
45670W        W17286  17.771  37.549  10.687
45671W        W17287  12.997  29.736   2.183
45672W        W17288   3.590  16.639  13.380
45673W        W17289  40.816  10.361  11.338
45674W        W17290  31.046   7.733   3.083
45675W        W17291  18.270   3.799   1.925
45676W        W17292  18.093  41.639  12.909
45677W        W17293  37.841  26.853   1.955
45678W        W17294  30.999   1.897   3.573
45679W        W17295  41.142  12.905  12.915
45680W        W17296  35.172  44.803   0.756
45681W        W17297  12.922  24.938   1.224
45682W        W17298  12.480  19.440   0.333
45683W        W17299  41.887  40.861   1.521
45684W        W17300  43.851  24.397   4.553
45685W        W17301   4.180  37.454   1.257
45686W        W17302   8.890  26.545   4.624
45687W        W17303   4.946  31.287   4.162
45688W        W17304   5.268   1.938   2.268
45689W        W17305  13.404  32.117  14.322
45690W        W17306   5.881  31.679   1.374
45691W        W17307  11.391  39.406   3.596
45692W        W17308  13.663  35.919  10.690
45693W        W17309  12.622  37.597  10.666
45694W        W17310  17.969  24.175   2.284
45695W        W17311  39.972  10.357   4.319
45696W        W17312  18.054   5.673   0.468
45697W        W17313  17.191  26.116   1.027
45698W        W17314  29.188  26.355   0.503
45699W        W17315  24.901   5.246  10.637
45700W        W17316  30.008   7.722   3.621
45701W        W17317  40.923   1.199  13.526
45702W        W17318  35.619   3.828  11.943
45703W        W17319  34.013  32.716  14.084
45704W        W17320  33.358  33.032   1.743
45705W        W17321   4.943   0.876  12.110
45706W        W17322  13.762  23.176   2.274
45707W        W17323  15.344  32.535   4.114
45708W        W17324  11.197  43.668  11.120
45709W        W17325  17.817  10.466  12.961
45710W        W17326  41.121  38.484  14.849
45711W        W17327   1.902  24.202   2.248
45712W        W17328  17.569   0.979  12.106
45713W        W17329  30.461   1.451   2.868
45714W        W17330   0.903  42.920   0.339
45715W        W17331  20.182  44.523  10.809
45716W        W17332   9.466  17.371   1.103
45717W        W17333  28.715   2.188   2.730
45718W        W17334   1.775  17.833  11.584
45719W        W17335  17.666  19.608  12.799
45720W        W17336  35.915  39.418   3.909
45721W        W17337  33.222  35.852  10.289
45722W        W17338  26.673  16.667   4.533
45723W        W17339  18.512  39.441  14.140
45724W        W17340  23.050  37.946  14.766
45725W        W17341  41.133  19.923   0.825
45726W        W17342  21.719  29.983   3.900
45727W        W17343  43.529  43.637  10.722
45728W        W17344  34.445  27.095   0.277
45729W        W17345   0.689   6.853   0.906
45730W        W17346  12.187  30.837  11.071
45731W        W17347   0.604  44.659  12.952
45732W        W17348   0.858  41.563  13.544
45733W        W17349  11.642  37.846  14.937
45734W        W17350  22.544  10.136   3.129
45735W        W17351  41.354  34.526   4.264
45736W        W17352  18.539  40.897  12.850
45737W        W17353  21.633  43.289  10.517
45738W        W17354   5.707  24.305   3.751
45739W        W17355   0.161  42.672  13.022
45740W        W17356  21.337   6.674  14.493
45741W        W17357  11.627  23.916  13.014
45742W        W17358  40.867   1.034   3.285
45743W        W17359  11.824  32.911  13.289
45744W        W17360  11.944  20.660   3.836
45745W        W17361   7.438  21.774  14.058
45746W        W17362  27.564   6.473   0.608
45747W        W17363  20.328  43.779  12.945
45748W        W17364  43.370  28.461   4.601
45749W        W17365  17.794   8.895   3.341
45750W        W17366  28.175  17.554   2.905
45751W        W17367  20.850  14.782   4.467
45752W        W17368  32.701   2.017   1.734
45753W        W17369  26.241  43.813  12.883
45754W        W17370  39.524  37.791  13.981
45755W        W17371  18.877  38.907   5.112
45756W        W17372  10.078  27.017   4.833
45757W        W17373   8.615  37.550  12.576
45758W        W17374  42.492  29.856   0.858
45759W        W17375   7.360  15.847  13.016
45760W        W17376  36.859  27.951  13.850
45761W        W17377  29.661  10.839   0.675
45762W        W17378  42.888   6.951   1.774
45763W        W17379  19.925   2.728   1.512
45764W        W17380  13.301  41.078  12.057
45765W        W17381  25.987  23.726   0.272
45766W        W17382  42.569  38.869  10.091
45767W        W17383   4.576  22.795   5.443
45768W        W17384  42.320  31.545  11.359
45769W        W17385  43.606  13.753   1.551
45770W        W17386  30.970   8.882  13.930
45771W        W17387  38.888  27.208   4.871
45772W        W17388  16.078  34.865  10.999
45773W        W17389  20.405  24.712  11.245
45774W        W17390  40.291  23.934   4.780
45775W        W17391  18.047  41.099   1.419
45776W        W17392  37.013  27.361  11.023
45777W        W17393  20.182  34.039  12.967
45778W        W17394  23.644  12.930  14.687
45779W        W17395  39.895  36.180   4.534
45780W        W17396  20.529   7.324  11.195
45781W        W17397  25.410  38.588  11.631
45782W        W17398   8.578  31.670   1.519
45783W        W17399  13.941  38.493  14.932
45784W        W17400  27.197  34.116  11.558
45785W        W17401  29.012  20.983  10.407
45786W        W17402  42.461  19.709   4.986
45787W        W17403  29.128  15.978   0.026
45788W        W17404  11.452   2.274   0.194
45789W        W17405  41.771  18.119   4.907
45790W        W17406  40.529  25.655  10.366
45791W        W17407  13.077   3.875   9.523
45792W        W17408  37.594   6.621   0.392
45793W        W17409  33.545   4.718   2.403
45794W        W17410  22.554  33.686   3.823
45795W        W17411  16.803  27.484  14.327
45796W        W17412  22.729  36.489   4.487
45797W        W17413  17.052  32.638  11.532
45798W        W17414   5.949  22.883   2.699
45799W        W17415  14.407  31.154   1.492
45800W        W17416  19.553  20.279  12.052
45801W        W17417  33.106   3.653   2.274
45802W        W17418   5.524  35.551   3.232
45803W        W17419  14.585   0.230  14.071
45804W        W17420  14.396  25.184   3.356
45805W        W17421  33.896  39.493  13.969
45806W        W17422  21.263  43.275  14.931
45807W        W17423  11.341  38.463   0.011
45808W        W17424   4.345  36.429   2.738
45809W        W17425  27.602  22.913  11.282
45810W        W17426  33.474  15.672   2.748
45811W        W17427   2.702  44.814   3.146
45812W        W17428  34.889  27.317  12.868
45813W        W17429  31.034  27.475  14.236
45814W        W17430   1.483  43.843   5.516
45815W        W17431   5.243  21.992   4.903
45816W        W17432  15.083  12.630  12.439
45817W        W17433  10.367  33.455  10.604
45818W        W17434   1.863   9.939   1.746
45819W        W17435  26.988   5.475   1.177
45820W        W17436  26.592  38.708   2.627
45821W        W17437  17.009   8.792   1.728
45822W        W17438  13.770   6.340   3.395
45823W        W17439  15.317  30.450  10.794
45824W        W17440  23.782  17.357   1.879
45825W        W17441   4.221  21.765   1.340
45826W        W17442  24.651   7.826  10.610
45827W        W17443  17.569   5.375  13.328
45828W        W17444  12.717  15.206   0.504
45829W        W17445  23.160  38.461   0.895
45830W        W17446  41.842  14.681   1.491
45831W        W17447  15.551  11.829   3.210
45832W        W17448  44.926   8.634  13.488
45833W        W17449   0.123  35.475  13.424
45834W        W17450  41.240   2.195  12.054
45835W        W17451  16.163  41.281  12.091
45836W        W17452  33.504   4.027  12.604
45837W        W17453   2.915  15.820  11.991
45838W        W17454  36.808  12.845   4.124
45839W        W17455  27.188  25.775  14.331
45840W        W17456  39.759  38.575  14.571
45841W        W17457   5.666  19.143  12.962
45842W        W17458  26.436   7.388   4.185
45843W        W17459  21.576  26.009  14.006
45844W        W17460  10.922  12.897  11.150
45845W        W17461  35.170  28.106   2.267
45846W        W17462  34.092  19.887   2.279
45847W        W17463  36.845   4.567  12.094
45848W        W17464  36.496  42.803   1.925
45849W        W17465  22.263  43.303  14.908
45850W        W17466  17.489   4.417  11.960
45851W        W17467  41.951  22.485  12.467
45852W        W17468  25.762   4.782  13.353
45853W        W17469  42.391  27.097  13.189
45854W        W17470  23.220  15.624   4.552
45855W        W17471  18.256  15.692  14.554
45856W        W17472  28.524  18.291  13.379
45857W        W17473  43.350  26.596   0.086
45858W        W17474  41.066  43.083   5.057
45859W        W17475   4.017  10.968  11.205
45860W        W17476  40.780  30.574   4.587
45861W        W17477  30.394  12.260   4.194
45862W        W17478  26.513  40.057   0.201
45863W        W17479  12.728  15.811   3.118
45864W        W17480  42.641  25.633   5.227
45865W        W17481  12.822  14.599  11.217
45866W        W17482  29.482  10.813   0.100
45867W        W17483  17.221   6.930   3.814
45868W        W17484  26.182  14.756  12.437
45869W        W17485   1.974   8.222  10.713
45870W        W17486  19.625  10.587  10.973
45871W        W17487   1.266  37.406   1.907
45872W        W17488  30.747  21.954   1.847
45873W        W17489  43.523  21.121   2.330
45874W        W17490  39.753   6.753  14.168
45875W        W17491  16.279   1.352  12.172
45876W        W17492  31.513   5.861   0.526
45877W        W17493  15.686  22.083   1.390
45878W        W17494  23.964  12.055  13.411
45879W        W17495  14.609  24.379  11.248
45880W        W17496   3.854  18.824  11.993
45881W        W17497   5.320   9.185   0.410
45882W        W17498  34.178  26.482   2.730
45883W        W17499  13.797  42.651  14.900
45884W        W17500  34.138  15.423  14.725
45885W        W17501  27.583  16.050  13.507
45886W        W17502  22.086  24.083  10.693
45887W        W17503  17.250  26.884   2.314
45888W        W17504  16.955   9.775  11.188
45889W        W17505   6.266  13.036  12.384
45890W        W17506  40.736   8.826  13.094
45891W        W17507  31.065  30.627  13.163
45892W        W17508  37.049  37.511   4.104
45893W        W17509  16.286  36.347  12.544
45894W        W17510  16.085  31.713  12.059
45895W        W17511  37.324  15.048   2.901
45896W        W17512   1.483  10.256   1.325
45897W        W17513  23.489   5.960   2.276
45898W        W17514  26.153  41.813  13.682
45899W        W17515  23.729  20.501   4.105
45900W        W17516   5.148  43.609  14.834
45901W        W17517  26.892  38.023   2.167
45902W        W17518  25.526  42.186   0.410
45903W        W17519  42.554  10.770  12.935
45904W        W17520  42.470  40.262   1.804
45905W        W17521  22.502  38.979   4.100
45906W        W17522  43.827  13.854  13.879
45907W        W17523  34.017  20.775  12.963
45908W        W17524  28.404  10.197   4.536
45909W        W17525  31.072   9.592   2.808
45910W        W17526   2.725  26.949   0.270
45911W        W17527  19.119  22.609   4.753
45912W        W17528  17.839  14.184   0.799
45913W        W17529   2.399  42.637   1.916
45914W        W17530  37.063  36.961   0.401
45915W        W17531  36.515  27.641  14.135
45916W        W17532  19.368  19.492   2.695
45917W        W17533  28.238   8.321  14.396
45918W        W17534  34.008  15.790   0.980
45919W        W17535  25.060  35.606   0.745
45920W        W17536  39.597   0.421   2.828
45921W        W17537  19.386  23.250   3.234
45922W        W17538  10.724  33.392   0.373
45923W        W17539  43.766  35.856   1.731
45924W        W17540  10.608   5.575  13.232
45925W        W17541  16.231   3.850   3.680
45926W        W17542  22.126  43.409  10.732
45927W        W17543   2.255   2.371   0.331
45928W        W17544  15.756   5.004   1.710
45929W        W17545  12.475  12.065   0.388
45930W        W17546  18.055  17.638   2.861
45931W        W17547  43.469  31.859   0.780
45932W        W17548   4.141  44.297  14.396
45933W        W17549   3.704   3.773  13.565
45934W        W17550   4.917  13.502   3.344
45935W        W17551  42.078  31.425   1.357
45936W        W17552  12.154   5.892   1.271
45937W        W17553   8.139   5.829  11.402
45938W        W17554  37.318  22.004  11.597
45939W        W17555  33.092  38.763  10.635
45940W        W17556  15.290  17.225  14.231
45941W        W17557  21.054   3.642  13.789
45942W        W17558   6.286  28.916   2.356
45943W        W17559   3.699  32.134   1.339
45944W        W17560  39.480   3.862  11.664
45945W        W17561  35.808  30.752  13.171
45946W        W17562  34.109  11.644   0.898
45947W        W17563  40.767   4.249  11.462
45948W        W17564  44.805   0.228  13.274
45949W        W17565  15.139  27.712   3.656
45950W        W17566  35.499  27.293   2.448
45951W        W17567  29.737  25.710  11.651
45952W        W17568  36.340  43.455   1.323
45953W        W17569  24.956  22.400  12.023
45954W        W17570  21.339  33.221  12.019
45955W        W17571  10.494  20.586   3.693
45956W        W17572  37.872  12.081   4.881
45957W        W17573  32.020   9.807   3.380
45958W        W17574  41.830  22.260  11.188
45959W        W17575  28.413   9.756  12.098
45960W        W17576  10.637  41.981   1.416
45961W        W17577  26.870  41.333   3.729
45962W        W17578  19.460   0.692   4.928
45963W        W17579  34.496  17.603  11.854
45964W        W17580  35.317   4.366   3.572
45965W        W17581   8.294   1.831   0.452
45966W        W17582  36.673  18.693  14.354
45967W        W17583   3.944  11.815  11.185
45968W        W17584  42.365  35.042  13.588
45969W        W17585   9.093  21.953  14.142
45970W        W17586  10.557  13.088  12.138
45971W        W17587   8.309  44.691  14.160
45972W        W17588  36.988  17.094  12.840
45973W        W17589   7.769   9.788  10.724
45974W        W17590  41.334  20.648  11.539
45975W        W17591  22.647  33.885  12.005
45976W        W17592  10.360  43.956  10.579
45977W        W17593   7.942  25.109  10.783
45978W        W17594  43.546  25.729   2.743
45979W        W17595  19.679   7.760   0.773
45980W        W17596  15.814  22.941   3.854
45981W        W17597  37.345  31.488   0.738
45982W        W17598  10.768  16.093   3.134
45983W        W17599  25.597   0.714  11.830
45984W        W17600  12.894  18.763   3.859
45985W        W17601  16.343  14.215   0.833
45986W        W17602  22.489   9.173   4.104
45987W        W17603  18.025  12.343   4.323
45988W        W17604  36.604  34.512  12.918
45989W        W17605  27.671  43.250   4.015
45990W        W17606  33.035  37.380   1.873
45991W        W17607  34.517  44.804   0.356
45992W        W17608   1.756   8.929  11.057
45993W        W17609  44.724   3.000   0.368
45994W        W17610  30.840  29.955   0.153
45995W        W17611  24.102  43.248   1.911
45996W        W17612  18.354  26.357  11.140
45997W        W17613  18.953  42.859  10.669
45998W        W17614   7.049  21.216  12.899
45999W        W17615  31.134  19.835   2.179
46000W        W17616  34.099  10.224   0.305
46001W        W17617  20.541   2.484   2.273
46002W        W17618   0.815  17.418   9.962
46003W        W17619  21.259  26.158  11.275
46004W        W17620  12.618  10.766   3.201
46005W        W17621  17.493   7.125  11.185
46006W        W17622  39.869  33.761   1.974
46007W        W17623  39.529  13.811  11.553
46008W        W17624  39.855  33.435   3.990
46009W        W17625   5.347   7.931  14.991
46010W        W17626   5.459   3.369   0.385
46011W        W17627   6.744  10.701  11.616
46012W        W17628   7.427  40.267   1.807
46013W        W17629  11.098  35.424  12.441
46014W        W17630   2.547   4.719  11.044
46015W        W17631  15.904  30.456  13.659
46016W        W17632  31.912  34.435  12.908
46017W        W17633  36.575  26.470  10.184
46018W        W17634  22.783  39.134  10.613
46019W        W17635  22.513  20.259  11.940
46020W        W17636  35.062   2.744  13.755
46021W        W17637  14.150  28.137   4.255
46022W        W17638  29.962   3.810  11.539
46023W        W17639  33.925  31.981  12.922
46024W        W17640  13.949   0.045   2.700
46025W        W17641   1.288  37.774  14.772
46026W        W17642  32.033  25.194  11.539
46027W        W17643   5.753  18.340   1.380
46028W        W17644  17.016  26.059  11.042
46029W        W17645  39.371  26.170  10.578
46030W        W17646  14.797  22.183   4.523
46031W        W17647  39.108  12.615  12.814
46032W        W17648  33.393  16.275   4.437
46033W        W17649  33.427  12.461  14.886
46034W        W17650  37.345  38.820   2.272
46035W        W17651   6.160   5.469  13.803
46036W        W17652  13.171  31.690   0.820
46037W        W17653  12.564  22.037  13.455
46038W        W17654  42.397  40.116   3.561
46039W        W17655  11.770  37.683   3.348
46040W        W17656  38.381  43.370   2.410
46041W        W17657  35.383   0.724   4.717
46042W        W17658  43.803  10.305   3.201
46043W        W17659   7.368   8.230  12.481
46044W        W17660  44.304  16.703   3.287
46045W        W17661  22.208   6.915   2.742
46046W        W17662  22.433   9.086  14.684
46047W        W17663  25.556  13.523   3.168
46048W        W17664   8.659  42.085   2.769
46049W        W17665  40.235  33.963  14.834
46050W        W17666   0.827   2.342   0.828
46051W        W17667  16.497  15.390  11.836
46052W        W17668  44.675  39.428  11.202
46053W        W17669  29.173  19.835   1.425
46054W        W17670   8.144  11.221   4.366
46055W        W17671  11.139   8.662   0.232
46056W        W17672   6.059  16.360  12.331
46057W        W17673  21.730  30.209  14.856
46058W        W17674  31.301  12.875  14.968
46059W        W17675  32.503  31.510  10.629
46060W        W17676  43.849   7.024  14.384
46061W        W17677  18.097   2.758  14.874
46062W        W17678  27.632  11.285   2.753
46063W        W17679  17.275  27.284   0.452
46064W        W17680   6.074  27.427   2.723
46065W        W17681  28.012  13.418  14.922
46066W        W17682  43.951   1.145  14.189
46067W        W17683  23.059   1.276  10.904
46068W        W17684   5.877  27.152   0.278
46069W        W17685  15.838  35.147   2.168
46070W        W17686  41.850  41.021   0.455
46071W        W17687  32.382   4.896  12.725
46072W        W17688   3.922  34.007  11.048
46073W        W17689  43.460  37.555   2.771
46074W        W17690  26.933  35.950   5.029
46075W        W17691  20.546  17.585  14.949
46076W        W17692  12.577  38.530  11.642
46077W        W17693   1.319  31.960  14.842
46078W        W17694  11.527   6.289   4.720
46079W        W17695  42.083  10.269  13.478
46080W        W17696  18.493   8.356   2.145
46081W        W17697   8.814  11.617   2.369
46082W        W17698  16.685  34.078   2.169
46083W        W17699  18.723  37.446   4.600
46084W        W17700  36.391   9.852  14.436
46085W        W17701   9.221  16.637   1.692
46086W        W17702  34.012   1.575   0.471
46087W        W17703  22.685  34.851   1.224
46088W        W17704  40.270  17.180   0.953
46089W        W17705   5.134  21.335   2.165
46090W        W17706  42.067  11.417   0.769
46091W        W17707  33.860  11.254  10.775
46092W        W17708  39.880  15.533  11.937
46093W        W17709  37.064  11.302  11.132
46094W        W17710  35.227  25.339  11.088
46095W        W17711  17.576  21.469   4.576
46096W        W17712  13.507  28.063  11.097
46097W        W17713  10.971  25.934   2.771
46098W        W17714  41.278  42.985  14.554
46099W        W17715  12.236  17.329  10.764
46100W        W17716  43.820  35.065  12.101
46101W        W17717  39.406   5.291  10.996
46102W        W17718  30.436  31.140   1.811
46103W        W17719  22.542  25.642  13.387
46104W        W17720  13.367  31.805  11.571
46105W        W17721  44.928  41.600  13.890
46106W        W17722  31.060  21.688  11.197
46107W        W17723  29.213  41.988  11.290
46108W        W17724   1.373  13.124  13.045
46109W        W17725   9.131  37.504  11.944
46110W        W17726  15.628   3.290  13.016
46111W        W17727  28.112  20.623  11.117
46112W        W17728  25.067  44.959   4.923
46113W        W17729   1.927  24.694   3.825
46114W        W17730   4.784  33.901   3.692
46115W        W17731  27.149  29.284   1.503
46116W        W17732  10.868   6.418   0.321
46117W        W17733   7.201  43.995   2.866
46118W        W17734  30.033  29.537  14.383
46119W        W17735  35.142  18.330   1.074
46120W        W17736  20.577  40.012  12.456
46121W        W17737  44.371  14.246  14.862
46122W        W17738  41.459  29.900   0.918
46123W        W17739  24.535  31.958   0.094
46124W        W17740   8.876   2.227  13.882
46125W        W17741  33.107  40.294   2.399
46126W        W17742  33.974  13.112   1.307
46127W        W17743  26.129  44.797  14.480
46128W        W17744  20.165   7.900  10.659
46129W        W17745  27.183  39.118  12.371
46130W        W17746  14.124  17.061   4.211
46131W        W17747  25.430  37.706  11.134
46132W        W17748  33.207  17.687  12.422
46133W        W17749  30.651   5.604   0.490
46134W        W17750  29.603  26.386   3.238
46135W        W17751  17.572  25.726   0.469
46136W        W17752  19.745  38.577   0.282
46137W        W17753  38.508  23.064  13.711
46138W        W17754   6.683  15.050   1.362
46139W        W17755  40.070   3.665   2.851
46140W        W17756  37.840  37.830  13.512
46141W        W17757  15.267  14.572   3.248
46142W        W17758   7.745   0.762  11.528
46143W        W17759  15.645  31.947   1.755
46144W        W17760  42.750  12.743   3.593
46145W        W17761   8.684   1.003   2.315
46146W        W17762  10.807  23.235  13.925
46147W        W17763  40.526  18.270   0.678
46148W        W17764   7.419   4.696   2.830
46149W        W17765  43.520   3.162  12.493
46150W        W17766  12.089  15.814   1.800
46151W        W17767   9.574  41.375   3.289
46152W        W17768  19.464  28.557  11.648
46153W        W17769  28.119  20.429  10.660
46154W        W17770  27.975   9.404  10.892
46155W        W17771  39.588  35.608  11.089
46156W        W17772  28.657  41.709   2.824
46157W        W17773   3.047  23.403   3.595
46158W        W17774  37.065  15.442   2.703
46159W        W17775  33.602  30.928   4.033
46160W        W17776  42.290  36.486  10.236
46161W        W17777  27.154  32.360   1.890
46162W        W17778  43.393  35.695  11.677
46163W        W17779  12.539  19.284   3.102
46164W        W17780  36.439  36.548  14.858
46165W        W17781   5.402  38.580   4.582
46166W        W17782  43.558  24.121  11.534
46167W        W17783  32.482   4.302   4.520
46168W        W17784  30.690  40.368  14.786
46169W        W17785  26.689   8.164  14.437
46170W        W17786  10.993  43.022   4.192
46171W        W17787   7.134  20.558  11.558
46172W        W17788  18.285   9.665   4.786
46173W        W17789   0.192  42.248  12.737
46174W        W17790   9.973  27.231   1.591
46175W        W17791  18.580  41.948  12.867
46176W        W17792  15.103  42.285   4.353
46177W        W17793   6.324  16.251  10.743
46178W        W17794   6.284  19.221   0.837
46179W        W17795  13.275  36.141   0.407
46180W        W17796  22.997  10.828  13.872
46181W        W17797  32.271  39.087  11.557
46182W        W17798  31.595   7.321   4.638
46183W        W17799  43.183  21.134  12.427
46184W        W17800  24.422  25.427   1.667
46185W        W17801  25.103  30.094   3.740
46186W        W17802  11.730  23.178   0.464
46187W        W17803  21.721  41.312  13.521
46188W        W17804  11.082  39.748  10.583
46189W        W17805   8.953  20.088   0.362
46190W        W17806   8.888  34.932   4.061
46191W        W17807  33.569  25.187   0.346
46192W        W17808  37.441  44.879  12.351
46193W        W17809   8.858   0.814  12.449
46194W        W17810  32.682  22.573  14.326
46195W        W17811  18.819  36.722   0.195
46196W        W17812  33.316   8.312   0.292
46197W        W17813   3.505   6.205  13.346
46198W        W17814  30.840  17.302   1.837
46199W        W17815  38.754  19.002   0.446
46200W        W17816   1.273  26.709  14.509
46201W        W17817  31.007  29.449  13.099
46202W        W17818   2.957  14.945  14.436
46203W        W17819  39.827   5.761   0.959
46204W        W17820  36.013  18.989  12.150
46205W        W17821  26.745   7.382  12.818
46206W        W17822  22.688  20.775  12.239
46207W        W17823  34.615  42.305  14.498
46208W        W17824  43.683  26.599   5.115
46209W        W17825  29.063  22.626   0.453
46210W        W17826  15.264  18.592   4.197
46211W        W17827   3.203  41.102  14.815
46212W        W17828  36.003  28.517  12.595
46213W        W17829  31.422  12.410   1.741
46214W        W17830  38.883  41.025   2.312
46215W        W17831   0.511  18.728   2.750
46216W        W17832  32.986   3.285   5.114
46217W        W17833  18.872  30.009  11.111
46218W        W17834  15.951  35.987  13.005
46219W        W17835  37.394  28.460   2.373
46220W        W17836   3.302  26.450   2.757
46221W        W17837  22.609  16.755   1.311
46222W        W17838  18.871  43.462   4.196
46223W        W17839  29.106  20.546  12.724
46224W        W17840  30.180   1.369   3.271
46225W        W17841  30.445  31.416  14.962
46226W        W17842  26.644  31.959   1.327
46227W        W17843  15.012  24.632  14.773
46228W        W17844  13.801   4.266   4.926
46229W        W17845   5.818  19.480  13.378
46230W        W17846  23.512  32.464   3.900
46231W        W17847  25.428   4.690   3.694
46232W        W17848  33.755  44.234  14.473
46233W        W17849  22.821   3.228  11.209
46234W        W17850  14.616   2.009  10.308
46235W        W17851  42.040  22.121  13.438
46236W        W17852  32.878  31.929  13.757
46237W        W17853   3.261  21.771   1.332
46238W        W17854  18.260  23.012   1.484
46239W        W17855  24.847  19.501  14.246
46240W        W17856  18.253  11.214   1.364
46241W        W17857  23.628  17.341   2.635
46242W        W17858   6.307  18.480   1.387
46243W        W17859   4.685  31.443   3.730
46244W        W17860  13.387  17.757  12.450
46245W        W17861  25.979   2.633  11.567
46246W        W17862  11.703  18.066   3.227
46247W        W17863  18.058   0.265   3.636
46248W        W17864   2.294  18.277  10.651
46249W        W17865  13.696  19.641   2.286
46250W        W17866  35.850  38.851  12.057
46251W        W17867  35.627   3.717  10.821
46252W        W17868  23.994  43.287   0.476
46253W        W17869  31.886   9.464  11.590
46254W        W17870   8.868  13.575   0.065
46255W        W17871  28.193  30.542  14.319
46256W        W17872  30.775  21.182  12.130
46257W        W17873  18.015  24.087  10.706
46258W        W17874  39.199  44.466   1.145
46259W        W17875  30.765  33.996   3.577
46260W        W17876  44.015  42.314   2.921
46261W        W17877  16.356  18.354   0.703
46262W        W17878  10.320  13.140  14.594
46263W        W17879  29.660  35.968  10.245
46264W        W17880  12.643  42.749  12.971
46265W        W17881  25.639  43.600  12.410
46266W        W17882  43.932  40.782  14.165
46267W        W17883  13.572  13.649  12.110
46268W        W17884   3.216  13.227   2.079
46269W        W17885  36.103  33.303   1.051
46270W        W17886  34.994   3.673   3.695
46271W        W17887   1.206   6.972   3.233
46272W        W17888  18.344  12.625  12.789
46273W        W17889   6.167  39.872   4.045
46274W        W17890  42.614  37.842   1.715
46275W        W17891  30.190   9.622   3.799
46276W        W17892  39.603  29.043  13.296
46277W        W17893  36.586  27.073   4.608
46278W        W17894  39.244  37.489  10.795
46279W        W17895  29.763   4.972   1.505
46280W        W17896  14.092   6.843   1.823
46281W        W17897  25.088  29.015   1.791
46282W        W17898  20.720  26.242   2.638
46283W        W17899  37.488  21.416   2.844
46284W        W17900  24.735  11.393  11.722
46285W        W17901  25.739   5.875   3.282
46286W        W17902  40.546  17.569   3.409
46287W        W17903  34.572  34.012  11.514
46288W        W17904  35.513  32.220   0.364
46289W        W17905  30.899  15.703  11.841
46290W        W17906  37.526   0.428  13.725
46291W        W17907   6.603  25.487   0.766
46292W        W17908  14.929  27.747   3.162
46293W        W17909   7.800  10.778  13.194
46294W        W17910  26.151  41.217   3.307
46295W        W17911   8.704  38.592  10.723
46296W        W17912  10.663  21.012  10.194
46297W        W17913  29.651  37.385  10.700
46298W        W17914   1.469  37.906  10.631
46299W        W17915  39.634  26.134   2.273
46300W        W17916  21.128   6.914   0.864
46301W        W17917  44.267   2.473   2.427
46302W        W17918  23.146  31.880   0.764
46303W        W17919  23.987  42.533  11.567
46304W        W17920  26.194  37.652  12.220
46305W        W17921  14.233   3.493   2.005
46306W        W17922   1.659  40.010   4.222
46307W        W17923  17.505  20.188   0.413
46308W        W17924  10.882   6.843  10.688
46309W        W17925  42.076  44.037   0.757
46310W        W17926  25.169  23.530  11.272
46311W        W17927  20.099   6.343   2.877
46312W        W17928   7.162  20.359  14.309
46313W        W17929  26.602  13.713   0.029
46314W        W17930  28.825  27.267   2.362
46315W        W17931   3.674  14.668   3.202
46316W        W17932  39.796  16.711  11.236
46317W        W17933  13.218   6.709  12.480
46318W        W17934   5.675   0.342  13.451
46319W        W17935  13.314  38.573   4.170
46320W        W17936  17.198  15.626  11.088
46321W        W17937   0.249  16.040   1.324
46322W        W17938   2.583  11.375   0.332
46323W        W17939   3.924  21.167  10.146
46324W        W17940  35.068  14.636  10.462
46325W        W17941   1.099   6.899  14.671
46326W        W17942   3.763  43.218  11.719
46327W        W17943  38.260  24.673  14.272
46328W        W17944   8.819  40.234  13.846
46329W        W17945  32.917  39.558  12.647
46330W        W17946   0.846  25.029   4.579
46331W        W17947  13.808  25.243   1.323
46332W        W17948  20.263  19.711   0.860
46333W        W17949   0.345   4.652   4.645
46334W        W17950   2.275  16.841  13.076
46335W        W17951  10.584  36.897   3.054
46336W        W17952  32.861  11.515  10.689
46337W        W17953   8.641  21.089  14.488
46338W        W17954  43.514  26.823  10.524
46339W        W17955  35.596  32.655  12.322
46340W        W17956  23.623  44.029  10.848
46341W        W17957  22.457   8.874   4.541
46342W        W17958  33.959  18.260   4.563
46343W        W17959  41.287  15.807  10.417
46344W        W17960  30.662  10.713  12.512
46345W        W17961  30.906   7.177   4.347
46346W        W17962  38.348  40.659  13.358
46347W        W17963  42.308  43.739   1.749
46348W        W17964  11.704  33.433  13.364
46349W        W17965  37.590   4.218  14.510
46350W        W17966  14.910  42.812  13.829
46351W        W17967  29.447  13.009  12.094
46352W        W17968  22.556  30.706  10.804
46353W        W17969  43.325  15.255  12.318
46354W        W17970  35.847  20.879  14.621
46355W        W17971  36.969  10.886  14.394
46356W        W17972  13.388  11.745   4.922
46357W        W17973  36.356  12.282  14.993
46358W        W17974  18.550  15.534   2.927
46359W        W17975  36.328  24.304   1.548
46360W        W17976   2.994  17.796  11.936
46361W        W17977  24.707  29.151   2.696
46362W        W17978  31.620  34.808   0.035
46363W        W17979   9.282  42.947  10.762
46364W        W17980  29.884  26.372  11.962
46365W        W17981  35.643  34.647  14.042
46366W        W17982  16.295  29.667  13.138
46367W        W17983   1.836   9.842  14.826
46368W        W17984  17.637  37.009   0.817
46369W        W17985   4.401  34.994  13.379
46370W        W17986  33.502  10.281  12.530
46371W        W17987  22.025  10.292   3.122
46372W        W17988  14.872   3.283   0.110
46373W        W17989  20.276   0.361   2.906
46374W        W17990  33.185  29.782   4.959
46375W        W17991  19.850   2.044  14.935
46376W        W17992  32.349   0.045   2.871
46377W        W17993  17.288  16.760   3.632
46378W        W17994  39.694  35.089  13.912
46379W        W17995  30.394  35.287   3.289
46380W        W17996  11.882  26.007   0.367
46381W        W17997   0.775  21.191   4.516
46382W        W17998   7.481  25.202  11.564
46383W        W17999  31.220  12.327   0.701
46384W        W18000  19.278  16.243   2.044
46385W        W18001  19.347   8.659   0.344
46386W        W18002   1.803  35.617   1.088
46387W        W18003  16.345  27.892  12.434
46388W        W18004  33.420  13.674  14.978
46389W        W18005  31.137  20.160  11.375
46390W        W18006  37.518  29.454  11.413
46391W        W18007   7.794  36.530  10.713
46392W        W18008   8.227   2.441  14.663
46393W        W18009  27.149  24.681  12.033
46394W        W18010   3.995  13.843  13.063
46395W        W18011  25.090  21.810   3.640
46396W        W18012  36.235  41.503   0.555
46397W        W18013   5.925  34.401  14.847
46398W        W18014  11.012  21.955   1.723
46399W        W18015  16.441   0.906  10.499
46400W        W18016  44.073  27.630   0.930
46401W        W18017  26.304  26.497   2.926
46402W        W18018  30.213  32.951  12.913
46403W        W18019   9.398  36.646  14.767
46404W        W18020  12.706  21.026  14.434
46405W        W18021  40.903  21.729   1.979
46406W        W18022  27.197  16.301   9.841
46407W        W18023  24.680   9.662   3.499
46408W        W18024  34.069  17.599   1.944
46409W        W18025  33.665  30.051   3.686
46410W        W18026  38.524  43.444  11.607
46411W        W18027  13.795  19.258   1.650
46412W        W18028  19.403  43.352   4.239
46413W        W18029  26.923  38.364   0.220
46414W        W18030  37.487  11.136   5.110
46415W        W18031  17.166  35.064  13.241
46416W        W18032  38.532  23.806   4.389
46417W        W18033  37.527   2.046   3.665
46418W        W18034  17.261  39.586  13.452
46419W        W18035   8.668  18.515  12.681
46420W        W18036   5.638  16.627   0.829
46421W        W18037  24.300  17.778  14.970
46422W        W18038   7.112  16.187   2.670
46423W        W18039  10.841   0.632  13.568
46424W        W18040  18.238  25.122  11.611
46425W        W18041  30.743   1.252   3.264
46426W        W18042  21.215   7.682  12.951
46427W        W18043  29.068   2.855   3.216
46428W        W18044  18.112  40.978  11.019
46429W        W18045  42.011  13.621   1.425
46430W        W18046  40.763  30.528  13.829
46431W        W18047  33.540   4.751   1.545
46432W        W18048  37.838  20.726  12.147
46433W        W18049   0.978   3.811  13.390
46434W        W18050  11.671   2.275   4.562
46435W        W18051  22.353  13.908  11.125
46436W        W18052  25.521  17.735  14.096
46437W        W18053  37.585  22.483   1.423
46438W        W18054   2.289  10.326   3.018
46439W        W18055  29.886  17.784   1.927
46440W        W18056  25.721  33.921  11.755
46441W        W18057  34.046  11.856   3.231
46442W        W18058  25.938  42.425  13.109
46443W        W18059  39.855   9.912  12.106
46444W        W18060   8.737  22.918   1.390
46445W        W18061   0.483  37.032   3.591
46446W        W18062  36.124  22.794  11.015
46447W        W18063  41.544  23.616  12.302
46448W        W18064  31.956  37.071  11.878
46449W        W18065  16.980  15.859   3.690
46450W        W18066  18.158  37.412   4.860
46451W        W18067   2.223   5.781   0.302
46452W        W18068   9.696   8.152  13.897
46453W        W18069  12.745  19.717  11.123
46454W        W18070  25.402  21.184  10.654
46455W        W18071  25.460  36.604  12.413
46456W        W18072  29.258  29.248  10.793
46457W        W18073  43.846  21.914  12.853
46458W        W18074  21.578   5.879  13.226
46459W        W18075  25.308  19.826  12.077
46460W        W18076  42.289  18.021   3.092
46461W        W18077  33.521  15.296   1.449
46462W        W18078  12.709  44.280   0.567
46463W        W18079   4.584   8.824   3.293
46464W        W18080  19.559   7.735   4.725
46465W        W18081  22.137   2.422  13.904
46466W        W18082  30.541  41.696  13.036
46467W        W18083  30.510  44.555  13.487
46468W        W18084   6.453  12.215  12.938
46469W        W18085  14.565  32.038   3.293
46470W        W18086  36.022  35.079  11.710
46471W        W18087  10.967  39.378  14.934
46472W        W18088  30.838  15.254   4.020
46473W        W18089   9.046  24.746  13.525
46474W        W18090  30.981  18.447  10.280
46475W        W18091   4.743   0.693   1.107
46476W        W18092  26.713  24.551   3.381
46477W        W18093  44.586  30.126   1.344
46478W        W18094  33.524  41.615   1.229
46479W        W18095  23.910  14.302   3.247
46480W        W18096  40.049   5.860  12.881
46481W        W18097  41.506  32.757   0.427
46482W        W18098  27.521  11.259   0.941
46483W        W18099  32.831  22.117   0.238
46484W        W18100  38.577  34.187   0.401
46485W        W18101  16.658  12.313  10.737
46486W        W18102  20.107  36.262  14.550
46487W        W18103  28.555  14.512   2.787
46488W        W18104  18.481  31.468   4.702
46489W        W18105  34.984  11.618  11.111
46490W        W18106  40.310  22.618  13.394
46491W        W18107  43.798  38.447  12.596
46492W        W18108  41.090  33.904   3.239
46493W        W18109  28.208  10.777  13.846
46494W        W18110  18.224  21.124   1.207
46495W        W18111   5.700  28.046   4.202
46496W        W18112  41.455  36.393   2.353
46497W        W18113  21.140   4.287   3.700
46498W        W18114  38.008  42.047  12.591
46499W        W18115  32.132   1.793  13.083
46500W        W18116  38.090  33.178  12.334
46501W        W18117  32.112  37.952  10.873
46502W        W18118  35.425  15.878  12.021
46503W        W18119  42.605  38.330  14.855
46504W        W18120   7.704   3.203   4.563
46505W        W18121   7.842  40.011   2.849
46506W        W18122  43.984  15.686  12.528
46507W        W18123  10.050  24.952  12.115
46508W        W18124  25.721  31.857  12.015
46509W        W18125  30.126  42.479  11.971
46510W        W18126   3.953  27.133   3.114
46511W        W18127  40.329   5.906  14.508
46512W        W18128  33.040  32.960   4.700
46513W        W18129  15.364   6.711   1.313
46514W        W18130  41.866  15.052  11.138
46515W        W18131  14.931   0.646   0.821
46516W        W18132  14.607   2.652  14.801
46517W        W18133  13.673  42.482   1.724
46518W        W18134  18.462  10.418   3.617
46519W        W18135   3.718  16.228   0.068
46520W        W18136   7.211  43.252   3.323
46521W        W18137   4.491   8.624   2.779
46522W        W18138  23.738  22.444   1.453
46523W        W18139  33.743  27.588   2.229
46524W        W18140  25.612  19.666  10.647
46525W        W18141  12.124   0.716  13.871
46526W        W18142  18.861  32.127  12.984
46527W        W18143  30.371  43.345   4.397
46528W        W18144  42.965  32.952  11.995
46529W        W18145  37.019  44.431   0.305
46530W        W18146  27.931   8.746  13.470
46531W        W18147  43.784  15.622   4.856
46532W        W18148   1.089   5.870  14.489
46533W        W18149  17.572  19.478  14.923
46534W        W18150  38.854  12.308   0.453
46535W        W18151  28.907  12.385   4.409
46536W        W18152  21.961  15.331  14.516
46537W        W18153  29.226  15.548   1.695
46538W        W18154  38.403  19.479   2.140
46539W        W18155   7.427   8.306  10.645
46540W        W18156  37.949  21.077   0.486
46541W        W18157   5.416  26.689  14.293
46542W        W18158  26.531  33.237   0.580
46543W        W18159  30.732  20.199  14.346
46544W        W18160  42.287  27.935  14.748
46545W        W18161  14.905  41.778  10.911
46546W        W18162   0.850  11.555   3.586
46547W        W18163  32.558  20.173   0.248
46548W        W18164  26.911   9.586  13.534
46549W        W18165  30.035  44.870  13.775
46550W        W18166  38.326   1.848   1.230
46551W        W18167  10.166  30.360   0.490
46552W        W18168  26.439  40.483  12.796
46553W        W18169  21.794  21.765   1.346
46554W        W18170  23.768  14.605  11.584
46555W        W18171  31.703   3.704  11.950
46556W        W18172  18.169  16.548  14.102
46557W        W18173   0.761   6.749   3.407
46558W        W18174   6.910  25.659  12.005
46559W        W18175   4.281   9.290  14.469
46560W        W18176  42.949  12.844   2.123
46561W        W18177  32.835  25.605   3.216
46562W        W18178  33.816  36.315  14.979
46563W        W18179   0.409  26.114  11.398
46564W        W18180  29.564  37.110  12.620
46565W        W18181  14.898  19.685   3.763
46566W        W18182  27.606  24.123   3.350
46567W        W18183  16.292   1.419  10.595
46568W        W18184  44.762  19.640  14.988
46569W        W18185  36.607   1.818  13.021
46570W        W18186  18.867   1.800   1.173
46571W        W18187  11.660  32.950  11.802
46572W        W18188  19.105  40.524  11.925
46573W        W18189  16.017  39.389  12.934
46574W        W18190  15.217  22.797   2.206
46575W        W18191  38.278  25.456  11.149
46576W        W18192  12.840  28.178  11.933
46577W        W18193  19.584  37.855  13.426
46578W        W18194  21.596   3.600  14.054
46579W        W18195   0.385  40.652   3.692
46580W        W18196  16.221  30.726  12.927
46581W        W18197   4.656  14.277  11.806
46582W        W18198  44.018   2.453  10.742
46583W        W18199  42.670  38.549   1.249
46584W        W18200  15.587   2.433   0.745
46585W        W18201  11.509   7.011  11.691
46586W        W18202   4.218  14.106  10.606
46587W        W18203  12.687  43.036   3.689
46588W        W18204  32.404  42.819  13.482
46589W        W18205  34.993  21.139   0.588
46590W        W18206   2.936   5.624   1.421
46591W        W18207  21.966  15.712   3.802
46592W        W18208   5.194  31.491   3.674
46593W        W18209   5.596  13.127  14.046
46594W        W18210  12.633   7.369  12.078
46595W        W18211  30.107   0.058   3.731
46596W        W18212  43.840  24.257   2.256
46597W        W18213  39.475   8.667  11.613
46598W        W18214  11.100  15.927  14.585
46599W        W18215  33.651   0.537   2.162
46600W        W18216   6.708  26.547  11.489
46601W        W18217  15.307  18.014   0.813
46602W        W18218  36.098  39.333   1.890
46603W        W18219   2.325  31.153   4.760
46604W        W18220   2.455  17.715  14.820
46605W        W18221   0.046  16.114  12.959
46606W        W18222   0.269  29.584   2.857
46607W        W18223  35.316  29.673   1.691
46608W        W18224  25.791  44.798  10.869
46609W        W18225  37.265  29.869   4.200
46610W        W18226  28.375   1.426  12.552
46611W        W18227  42.952   8.837  13.323
46612W        W18228  33.627   5.865  11.522
46613W        W18229  25.433  35.811  14.372
46614W        W18230  23.032   3.787   0.250
46615W        W18231  11.877   4.621   5.407
46616W        W18232   0.462   9.044  11.104
46617W        W18233  13.995  33.971  14.418
46618W        W18234  27.490  34.085   0.841
46619W        W18235  31.609  37.111  12.504
46620W        W18236  44.050  37.322  13.353
46621W        W18237  37.539  39.006  11.685
46622W        W18238  12.660  17.652   4.593
46623W        W18239  39.073  12.402  12.288
46624W        W18240  28.336  11.740   4.965
46625W        W18241   6.431   1.832   3.695
46626W        W18242  39.979  27.339   0.777
46627W        W18243  30.609  37.042  13.452
46628W        W18244  36.011  36.734   1.957
46629W        W18245  36.087  35.126  13.964
46630W        W18246  18.164   7.505  14.197
46631W        W18247  24.217  36.479  11.284
46632W        W18248  28.226  28.585  13.878
46633W        W18249  12.279  29.640  13.971
46634W        W18250  42.573  29.009  12.461
46635W        W18251  19.639  44.422   9.667
46636W        W18252   7.771  38.364   4.309
46637W        W18253   0.453  24.819  13.933
46638W        W18254  14.748  23.556  10.663
46639W        W18255   2.592  13.722  11.853
46640W        W18256  25.315   1.234  12.803
46641W        W18257   0.665  35.959  12.594
46642W        W18258  22.854  42.577  11.548
46643W        W18259  34.949  14.098   5.180
46644W        W18260  33.916  27.504  13.805
46645W        W18261  26.535  10.966   4.611
46646W        W18262   4.226  44.990   3.744
46647W        W18263   2.718  21.289   0.712
46648W        W18264  38.627  36.576   1.796
46649W        W18265  40.015   0.429  14.963
46650W        W18266  22.018  33.087  13.333
46651W        W18267  37.137   9.698  14.722
46652W        W18268  20.695   0.317  14.311
46653W        W18269  37.419  19.262  11.446
46654W        W18270  12.224  16.934   2.512
46655W        W18271  13.171  26.227   2.092
46656W        W18272  22.038  10.848  12.436
46657W        W18273  24.150  43.904   1.238
46658W        W18274   6.429  37.852   3.617
46659W        W18275  19.736  32.007  13.587
46660W        W18276   8.284  23.066   3.693
46661W        W18277  28.791  21.006  14.440
46662W        W18278  38.115   7.708  14.168
46663W        W18279  17.157  11.803  14.841
46664W        W18280   1.651   2.981   3.493
46665W        W18281  42.569  13.600   0.323
46666W        W18282  24.552   0.300   3.918
46667W        W18283  37.184  12.070  11.160
46668W        W18284  25.457   1.505  14.555
46669W        W18285  24.726  22.038   0.705
46670W        W18286   1.362   4.842  11.726
46671W        W18287   6.471  15.845  10.083
46672W        W18288  10.119  25.622  13.399
46673W        W18289  35.898  17.798   3.595
46674W        W18290  18.870  13.354   0.989
46675W        W18291  37.797   1.874   3.214
46676W        W18292  43.947  21.478  12.613
46677W        W18293  23.449  39.777   4.147
46678W        W18294  16.559  42.042   4.107
46679W        W18295  30.922   4.351  14.011
46680W        W18296  44.282  27.542  14.388
46681W        W18297  30.967  18.652   1.673
46682W        W18298  22.132  12.712  10.671
46683W        W18299  36.422  40.012   2.750
46684W        W18300   1.358  36.975  10.491
46685W        W18301   4.132  21.072   2.302
46686W        W18302   5.431  16.774   2.364
46687W        W18303  12.774  31.633   3.141
46688W        W18304  36.455   1.259  13.028
46689W        W18305  11.770   9.853   2.037
46690W        W18306  39.265  21.543  10.569
46691W        W18307  24.587  17.860  10.967
46692W        W18308  14.148  31.012   2.370
46693W        W18309   2.477  19.450  10.256
46694W        W18310   4.950  42.550  11.178
46695W        W18311   9.749  39.382   0.877
46696W        W18312  41.259  17.494  11.885
46697W        W18313  15.233  10.448  10.834
46698W        W18314  35.490   2.526   1.331
46699W        W18315  32.498  13.262  13.877
46700W        W18316   0.754   1.179   1.222
46701W        W18317  34.946  38.392  11.921
46702W        W18318  11.251  13.766  10.943
46703W        W18319   8.883  26.271   1.315
46704W        W18320  15.694  17.137   0.349
46705W        W18321   4.378  17.742  10.711
46706W        W18322  12.307  35.148  13.643
46707W        W18323  27.132  28.431   3.269
46708W        W18324  38.337  42.778   5.254
46709W        W18325  40.822   1.929   2.039
46710W        W18326   1.145   5.302  14.869
46711W        W18327  36.450  31.846   0.730
46712W        W18328  27.538  32.057   4.267
46713W        W18329  30.931  42.331   0.433
46714W        W18330  41.255   2.696   1.435
46715W        W18331  11.763  10.607   4.277
46716W        W18332  15.790  19.308   1.044
46717W        W18333  13.882   1.614   0.394
46718W        W18334  15.684   0.678   1.270
46719W        W18335  42.433  24.334  11.220
46720W        W18336  37.389  41.280   2.205
46721W        W18337  32.946   3.282  12.162
46722W        W18338   2.074  27.440  12.573
46723W        W18339  10.606  27.194  12.140
46724W        W18340  42.602  38.060  12.886
46725W        W18341  32.183  22.604   4.802
46726W        W18342  31.974  23.260   1.416
46727W        W18343   8.709   7.234   0.065
46728W        W18344   0.316   7.202  10.970
46729W        W18345   4.423  33.581   5.064
46730W        W18346  12.819  40.893  13.525
46731W        W18347  16.571  23.709  10.628
46732W        W18348  42.800  34.546   4.828
46733W        W18349  31.390  18.961  11.619
46734W        W18350  39.285  12.327  11.242
46735W        W18351  32.871  27.143  11.229
46736W        W18352  28.908  42.806   3.545
46737W        W18353  37.976  39.463  13.023
46738W        W18354  20.519  18.788   4.778
46739W        W18355  43.039  10.643   4.089
46740W        W18356   5.168  33.464  10.937
46741W        W18357  12.101  35.956   2.897
46742W        W18358  30.281  30.884   2.821
46743W        W18359   4.391   1.225   4.182
46744W        W18360  17.026   4.279   0.575
46745W        W18361  14.564   3.419   3.555
46746W        W18362   0.163  24.085   5.081
46747W        W18363  36.007  41.532   4.404
46748W        W18364  33.502  36.098   2.860
46749W        W18365  36.421  25.933  13.879
46750W        W18366  40.845  33.509   0.422
46751W        W18367  22.216   8.197  10.899
46752W        W18368  18.220  12.775   4.124
46753W        W18369  18.737  21.322   4.041
46754W        W18370   4.817  34.097   1.210
46755W        W18371  33.367   4.786  13.296
46756W        W18372  19.089  25.787  11.608
46757W        W18373  27.377  14.139   3.302
46758W        W18374   6.989  23.663  10.661
46759W        W18375   9.733  21.202  13.813
46760W        W18376   5.501   7.852   0.792
46761W        W18377  18.314  25.066   3.675
46762W        W18378  31.095  17.328   4.546
46763W        W18379  16.918  35.769   1.958
46764W        W18380  20.292  27.587   0.491
46765W        W18381   5.356   3.705  10.432
46766W        W18382  42.191  13.270   5.108
46767W        W18383  28.371  16.665   1.499
46768W        W18384  25.501  33.592  10.714
46769W        W18385  36.382  32.994  14.563
46770W        W18386  37.183  10.690   1.847
46771W        W18387  32.364  26.092  14.102
46772W        W18388  41.590  40.259   2.700
46773W        W18389  20.525  26.664  14.299
46774W        W18390  36.212  28.028  10.971
46775W        W18391   2.477   5.866   3.149
46776W        W18392   0.423  27.552   4.721
46777W        W18393   2.773  17.258  12.014
46778W        W18394   6.734   1.808  13.383
46779W        W18395  23.544  19.560   2.131
46780W        W18396  29.498  37.044   0.472
46781W        W18397  17.774  31.707  13.434
46782W        W18398  34.876  36.123  11.137
46783W        W18399  21.764   3.363  12.951
46784W        W18400  38.698   2.527  13.966
46785W        W18401   8.823  25.991   0.479
46786W        W18402   9.438  20.281   0.269
46787W        W18403  16.109  18.470  11.493
46788W        W18404   6.891   2.905  12.538
46789W        W18405   3.356  11.268  13.716
46790W        W18406   3.742   7.436   0.464
46791W        W18407  32.189  26.703  14.403
46792W        W18408  41.471  34.466   4.761
46793W        W18409   6.377  17.730  13.040
46794W        W18410   0.454  41.563   2.027
46795W        W18411   3.241  24.926  11.139
46796W        W18412  44.318  19.663   4.120
46797W        W18413  23.058  26.759   2.404
46798W        W18414  33.412  44.538  11.621
46799W        W18415  28.648   9.892  13.898
46800W        W18416  14.832  43.492  14.613
46801W        W18417  38.005  29.322  13.069
46802W        W18418  36.565  34.789  10.446
46803W        W18419  25.526  30.386  14.359
46804W        W18420  35.797   1.029   4.335
46805W        W18421   5.008  25.008   2.700
46806W        W18422  13.769  41.018  14.272
46807W        W18423  14.683  16.394  12.811
46808W        W18424  15.922   1.310  12.546
46809W        W18425  17.756  21.144   1.455
46810W        W18426  34.387  15.052  12.597
46811W        W18427  18.940  20.657   1.705
46812W        W18428  40.025  29.479  11.099
46813W        W18429  34.033   9.389  11.011
46814W        W18430  14.112  39.094   4.842
46815W        W18431  24.676  14.126   3.640
46816W        W18432  26.974  37.523  13.502
46817W        W18433  44.711  20.649  12.028
46818W        W18434  31.172   3.360   0.436
46819W        W18435   2.487   2.966   1.285
46820W        W18436  10.273  42.881   4.547
46821W        W18437  18.502  24.580   3.642
46822W        W18438  22.236  19.510   3.257
46823W        W18439  40.214  30.419  11.108
46824W        W18440  32.829  29.385   5.043
46825W        W18441  43.992  21.106  12.061
46826W        W18442  34.481  22.651   1.162
46827W        W18443  28.106  18.140  11.668
46828W        W18444  28.265   4.138   0.632
46829W        W18445   4.252   4.368   2.386
46830W        W18446  20.592  15.961  14.893
46831W        W18447  11.683  27.636   3.117
46832W        W18448  21.981  44.249  10.244
46833W        W18449  35.583  39.067  12.975
46834W        W18450  14.828  20.311  11.461
46835W        W18451  10.076  16.045  12.075
46836W        W18452  33.352  28.584   0.909
46837W        W18453  19.071  27.710  10.955
46838W        W18454  11.792   1.790  13.864
46839W        W18455  24.640   8.239   0.455
46840W        W18456   2.720  20.479  14.330
46841W        W18457  17.721  31.707   1.273
46842W        W18458  13.625   7.177  13.044
46843W        W18459   8.194   3.534  12.983
46844W        W18460   4.798  24.476   4.187
46845W        W18461  21.265  21.603   1.331
46846W        W18462  34.731  40.695  10.493
46847W        W18463  23.007  16.324  13.117
46848W        W18464  39.426   4.863  11.647
46849W        W18465   6.815  13.345  10.681
46850W        W18466  28.217  30.926  11.591
46851W        W18467  10.801   1.686  10.671
46852W        W18468  24.437   3.168   3.328
46853W        W18469  30.670  27.671   0.933
46854W        W18470  34.610   4.940  12.815
46855W        W18471  30.559  43.965  14.345
46856W        W18472  25.037  27.829   4.217
46857W        W18473  31.231  34.669   0.709
46858W        W18474  31.436  29.917   4.050
46859W        W18475  33.848  23.209   0.367
46860W        W18476  18.522  23.089   0.232
46861W        W18477  40.379  42.442  13.545
46862W        W18478   9.927  38.271   4.691
46863W        W18479   2.948  43.693   2.247
46864W        W18480  38.499  13.824   4.532
46865W        W18481  20.253  23.521   4.331
46866W        W18482   4.102  27.557   0.524
46867W        W18483  32.010   0.947   1.420
46868W        W18484  15.271  12.910   2.155
46869W        W18485  19.027  29.601   2.581
46870W        W18486  42.899  26.145  13.847
46871W        W18487   0.366  41.931   0.695
46872W        W18488  27.696  15.805   0.894
46873W        W18489  13.397  19.500  14.734
46874W        W18490  14.516  27.752  11.119
46875W        W18491  36.426  28.145  14.099
46876W        W18492  31.532   8.726   4.283
46877W        W18493  14.278   6.240   2.725
46878W        W18494  34.056  39.066   2.425
46879W        W18495  19.179  11.352  11.163
46880W        W18496  19.129  25.218   3.282
46881W        W18497  43.809  28.598   0.770
46882W        W18498  19.119  16.559  13.977
46883W        W18499  20.496  41.764  13.615
46884W        W18500  26.330  12.206  14.957
46885W        W18501   9.594   5.770   0.990
46886W        W18502  42.930  18.658  14.779
46887W        W18503  44.830   2.662   0.766
46888W        W18504  44.474  23.692   0.501
46889W        W18505   3.175  38.001   3.171
46890W        W18506   7.299   3.776  12.158
46891W        W18507  37.834  30.382   1.681
46892W        W18508  39.327  13.023   2.392
46893W        W18509  33.138  36.890  12.436
46894W        W18510  12.728  29.580  11.754
46895W        W18511  37.290   1.293  10.610
46896W        W18512  19.134  43.518   3.760
46897W        W18513  33.784  27.713  11.138
46898W        W18514  15.764  30.975  12.943
46899W        W18515  31.095   5.708  14.335
46900W        W18516  13.342   3.768   9.975
46901W        W18517  18.736  22.300  10.703
46902W        W18518  19.901  30.979  13.934
46903W        W18519  38.932  33.538   4.476
46904W        W18520  14.248  31.021  13.125
46905W        W18521  42.527  44.284   0.854
46906W        W18522  29.152  19.330  14.172
46907W        W18523   0.026  17.374   3.723
46908W        W18524  41.317   7.621   1.292
46909W        W18525   8.271   2.738   2.214
46910W        W18526  41.918  13.690  10.797
46911W        W18527   4.835  39.699   2.359
46912W        W18528  41.112  21.687  12.869
46913W        W18529  42.693  28.137  14.975
46914W        W18530   3.963  44.451   1.713
46915W        W18531   3.237  17.318  11.185
46916W        W18532   3.587  31.278  13.412
46917W        W18533  11.093  35.562  12.929
46918W        W18534  27.948  25.528   0.321
46919W        W18535  10.159  26.504  11.391
46920W        W18536  13.705  36.878  13.190
46921W        W18537   2.274  27.960   1.111
46922W        W18538  17.295   8.187   1.002
46923W        W18539  19.639  38.264  12.846
46924W        W18540   6.371  34.010   2.858
46925W        W18541  42.910   5.397   1.924
46926W        W18542  21.461  21.309  12.512
46927W        W18543   3.329   8.623   3.201
46928W        W18544  16.281   4.449  10.340
46929W        W18545   2.857   1.240   4.344
46930W        W18546  18.037  27.471   3.668
46931W        W18547  21.154   0.562  12.128
46932W        W18548  10.736  14.686   1.859
46933W        W18549  20.967   1.394  12.351
46934W        W18550  19.197  10.792  13.967
46935W        W18551  12.339  15.771   0.350
46936W        W18552  34.614  22.729  13.041
46937W        W18553  43.020   4.331  11.650
46938W        W18554  10.148   2.452   4.063
46939W        W18555  38.062  32.039  14.779
46940W        W18556  27.845  20.090   1.305
46941W        W18557   7.912  27.402   3.844
46942W        W18558  21.302  27.709   3.545
46943W        W18559  31.014  23.695  12.521
46944W        W18560  32.366   4.346   0.265
46945W        W18561  28.130  12.055   4.538
46946W        W18562  17.709  11.579   4.109
46947W        W18563   2.362  32.164  12.601
46948W        W18564  19.324  42.377   5.122
46949W        W18565  20.952   6.379   2.703
46950W        W18566  13.282  18.178   3.685
46951W        W18567  23.216  25.198  12.496
46952W        W18568  28.384  29.904  14.975
46953W        W18569   5.446  10.277   3.171
46954W        W18570  34.410  19.732  11.229
46955W        W18571  15.376  44.830  12.579
46956W        W18572  32.309  20.613   0.162
46957W        W18573   7.276  39.135   0.508
46958W        W18574   9.883  13.408  11.628
46959W        W18575  34.454  11.251   1.043
46960W        W18576  19.357  18.049   4.700
46961W        W18577  22.659  14.190   0.230
46962W        W18578   9.415  33.593  11.585
46963W        W18579  25.369  21.239  11.570
46964W        W18580  26.875   5.632   2.573
46965W        W18581  42.775  40.795   0.915
46966W        W18582  28.706  33.117  13.840
46967W        W18583  26.294  42.170  14.985
46968W        W18584  12.859  36.514   2.147
46969W        W18585  42.480  14.119  12.327
46970W        W18586  44.257  25.714  14.025
46971W        W18587  39.454  27.213  12.773
46972W        W18588  34.198  15.991  10.133
46973W        W18589  10.875  19.355  11.488
46974W        W18590  10.297   5.904   2.847
46975W        W18591  34.600  31.060   0.389
46976W        W18592  16.601  28.651   1.263
46977W        W18593   6.820  12.688   0.571
46978W        W18594  10.138  11.208   3.190
46979W        W18595  28.550  18.703  10.637
46980W        W18596  11.303  35.409  10.591
46981W        W18597  26.108  12.331   1.380
46982W        W18598  43.790  29.694   0.526
46983W        W18599  43.505  24.246  10.713
46984W        W18600  44.686  38.421   1.882
46985W        W18601  21.055  18.314   2.648
46986W        W18602  19.162  32.172  14.701
46987W        W18603  43.494   1.858   2.420
46988W        W18604  21.983  18.659  11.442
46989W        W18605  21.702  17.818   1.256
46990W        W18606   7.957  35.822   3.027
46991W        W18607  13.268  23.423  11.584
46992W        W18608   7.627  44.443   4.210
46993W        W18609  10.447  37.607  12.563
46994W        W18610   2.755  41.398   4.245
46995W        W18611  19.621  13.816  12.999
46996W        W18612  12.761   3.209   2.236
46997W        W18613  31.278  44.042   0.350
46998W        W18614   1.890   3.789   3.179
46999W        W18615  37.786  15.664   1.711
47000W        W18616   3.632  31.601   2.253
47001W        W18617   7.900  34.970  14.573
47002W        W18618  35.698  34.647  13.189
47003W        W18619  41.859  18.488  11.659
47004W        W18620   1.464  26.185   2.134
47005W        W18621  15.280  14.656   1.263
47006W        W18622  42.232  23.124   1.896
47007W        W18623  35.999  39.746   4.591
47008W        W18624  27.637  33.029   2.815
47009W        W18625  10.032  36.858  13.581
47010W        W18626  11.057  38.529  11.539
47011W        W18627  38.788  19.703   3.757
47012W        W18628  26.554  26.085  11.019
47013W        W18629  17.276   0.278  14.307
47014W        W18630  30.426   8.210  14.844
47015W        W18631  39.756   3.298   1.706
47016W        W18632  34.061   3.315   4.200
47017W        W18633  41.004  37.886   4.128
47018W        W18634  33.537  28.724   2.880
47019W        W18635  13.962  21.636   0.722
47020W        W18636  41.578  21.504  12.988
47021W        W18637   8.284  28.660  12.650
47022W        W18638  19.013  25.727  11.109
47023W        W18639  33.430  12.354   3.580
47024W        W18640  41.301   2.716  12.038
47025W        W18641  41.576  19.724   2.308
47026W        W18642  15.294  23.263   2.461
47027W        W18643  41.127  35.030   2.828
47028W        W18644  43.817  19.113   4.356
47029W        W18645   3.039  39.766  10.709
47030W        W18646  33.514  32.162  14.676
47031W        W18647  29.662  11.933   3.608
47032W        W18648  27.323   2.869   2.013
47033W        W18649  35.535  42.892  10.769
47034W        W18650  34.234  24.835  11.444
47035W        W18651  26.617  13.801   9.882
47036W        W18652  42.192  24.128   2.791
47037W        W18653  37.624  23.279  11.895
47038W        W18654   2.972  43.772   3.135
47039W        W18655   1.858  20.052  13.572
47040W        W18656   1.755  22.328  14.771
47041W        W18657   0.804  17.004   2.377
47042W        W18658  42.853  42.426   0.761
47043W        W18659  16.153   0.987  13.954
47044W        W18660  15.329  33.343   4.515
47045W        W18661   1.173  13.330  12.049
47046W        W18662  14.152   8.163  11.619
47047W        W18663  32.472  22.594  12.483
47048W        W18664   6.780   3.830  11.274
47049W        W18665  27.968  26.517   3.726
47050W        W18666  33.517  35.450  12.336
47051W        W18667  26.138  24.595  14.936
47052W        W18668  30.947  44.705   0.956
47053W        W18669  23.406  24.271  14.856
47054W        W18670  27.575  12.285  13.003
47055W        W18671  34.635  14.298  13.015
47056W        W18672  10.443   1.843  12.435
47057W        W18673  27.712  24.234  14.827
47058W        W18674  41.980   0.415  13.348
47059W        W18675  24.726  26.671   2.738
47060W        W18676   2.144   9.809   2.474
47061W        W18677  37.331   8.063  11.103
47062W        W18678  29.986   4.405  14.336
47063W        W18679  24.115  10.216  10.661
47064W        W18680   6.836  16.160   3.116
47065W        W18681   4.392  30.357  11.447
47066W        W18682   2.317  13.733   0.757
47067W        W18683   8.497  26.661  12.080
47068W        W18684  32.447   6.315  12.819
47069W        W18685  11.177  24.257  13.048
47070W        W18686  39.822  36.616   0.075
47071W        W18687   3.507  23.578   1.444
47072W        W18688  23.753  32.233   2.807
47073W        W18689  17.347  34.594   1.252
47074W        W18690  39.156   8.670   3.349
47075W        W18691  22.508  15.662  11.891
47076W        W18692  33.661  13.675  11.090
47077W        W18693  27.820  15.241  10.256
47078W        W18694   7.261  32.243   1.328
47079W        W18695  15.768  42.460   3.596
47080W        W18696  16.353  31.899   1.147
47081W        W18697   8.943  18.002  14.510
47082W        W18698  42.560  27.942  12.866
47083W        W18699  10.953   1.230   3.577
47084W        W18700  41.047   2.379  10.610
47085W        W18701  23.206  23.497  11.120
47086W        W18702  42.024  10.415   2.746
47087W        W18703   7.841  32.942   4.597
47088W        W18704  16.108  21.935  13.854
47089W        W18705  31.412  27.850   9.993
47090W        W18706  36.579  19.106   0.864
47091W        W18707  38.788  22.160  14.006
47092W        W18708  41.072  44.912   0.646
47093W        W18709  16.614   6.367  12.385
47094W        W18710  33.881  28.534   3.241
47095W        W18711  30.877  37.873   1.895
47096W        W18712  13.966  10.156   5.011
47097W        W18713  15.927  22.660  10.385
47098W        W18714  22.785   6.590   4.166
47099W        W18715  27.019  39.088   3.114
47100W        W18716  24.187  13.369   3.156
47101W        W18717   3.540   1.471  10.180
47102W        W18718  11.289   6.138  13.525
47103W        W18719  42.389   8.548   0.632
47104W        W18720  14.824   7.445  13.636
47105W        W18721  37.766  17.085   2.891
47106W        W18722  12.764   0.453  12.381
47107W        W18723  37.112   8.681   4.137
47108W        W18724  10.075   9.406  14.374
47109W        W18725   3.717   2.772  12.178
47110W        W18726  24.024  31.369   2.770
47111W        W18727  42.212  17.798   1.049
47112W        W18728  32.610   5.542  13.530
47113W        W18729  26.838  15.750   2.282
47114W        W18730   7.687  34.326  12.924
47115W        W18731  31.038   6.660   1.466
47116W        W18732  38.252  12.171  12.007
47117W        W18733   2.187  13.517   2.417
47118W        W18734  39.552  38.432  11.457
47119W        W18735  31.639   3.220   0.270
47120W        W18736  19.212  37.456   1.277
47121W        W18737  24.903  12.032   0.853
47122W        W18738   9.916  32.006  12.021
47123W        W18739   8.426  29.616  11.173
47124W        W18740   4.167   7.916  14.568
47125W        W18741   6.366  38.112  10.454
47126W        W18742  29.180  13.051  13.787
47127W        W18743   4.334  44.123  13.353
47128W        W18744  11.221  43.956   0.520
47129W        W18745  29.625  17.071   4.974
47130W        W18746  26.083  38.412  12.834
47131W        W18747  29.333  21.044  12.875
47132W        W18748  31.009  35.614   0.301
47133W        W18749  33.575  26.751   0.204
47134W        W18750  20.853  25.355   0.027
47135W        W18751  40.518  32.636   3.579
47136W        W18752  35.953  25.166   1.847
47137W        W18753  11.136  20.475  12.614
47138W        W18754   3.479  14.489  11.064
47139W        W18755  21.570  25.401  14.418
47140W        W18756  40.599  31.066   0.484
47141W        W18757  28.710  44.794   4.106
47142W        W18758  26.963  16.420   1.198
47143W        W18759  41.281  27.637   0.299
47144W        W18760  21.584  20.110   0.972
47145W        W18761  13.276  38.300  10.762
47146W        W18762  37.122  34.566  12.956
47147W        W18763  29.654   8.216   0.783
47148W        W18764  40.440   1.720   5.034
47149W        W18765  39.252  42.145   2.342
47150W        W18766  22.342  25.676   0.455
47151W        W18767   0.744  21.014  13.858
47152W        W18768  11.824  38.599   3.261
47153W        W18769  42.693  14.102   3.333
47154W        W18770  11.850  16.890  14.859
47155W        W18771  43.732   8.112   4.218
47156W        W18772   4.409   1.256   5.063
47157W        W18773  22.225  33.501   4.194
47158W        W18774  40.017  35.810  13.377
47159W        W18775  33.923  29.866   1.555
47160W        W18776   0.735   9.092  12.457
47161W        W18777   4.622  44.042  10.641
47162W        W18778   9.650  21.198  12.402
47163W        W18779   8.355  40.752  13.072
47164W        W18780  30.461  25.156   2.737
47165W        W18781  26.101   2.932  11.992
47166W        W18782  27.546  17.041   1.177
47167W        W18783  44.459   9.405  10.707
47168W        W18784  14.148  22.508  10.664
47169W        W18785   7.650  39.822  12.342
47170W        W18786  28.128  37.638   2.634
47171W        W18787   4.882   1.501   1.358
47172W        W18788  25.162  21.990   1.012
47173W        W18789  26.127  15.346  13.994
47174W        W18790  43.727   1.806   4.351
47175W        W18791   4.830   9.930  14.396
47176W        W18792  24.952  44.243   1.879
47177W        W18793  19.182  43.264   9.731
47178W        W18794  15.352  29.876  12.110
47179W        W18795  17.843   6.756  11.167
47180W        W18796  43.371   3.342  12.954
47181W        W18797  25.688   5.800   0.631
47182W        W18798  22.004  40.115  13.879
47183W        W18799  21.064  41.493   2.719
47184W        W18800  25.440  15.772   3.305
47185W        W18801  10.254   3.406  13.364
47186W        W18802  24.161  38.405   4.349
47187W        W18803   7.675  38.337  13.550
47188W        W18804  18.583  20.709   4.195
47189W        W18805   1.540  20.645  14.870
47190W        W18806  14.478  40.218  12.033
47191W        W18807  22.958   6.924   0.819
47192W        W18808  36.558  25.111   2.384
47193W        W18809   2.833  40.423  14.313
47194W        W18810  18.662  35.581   1.737
47195W        W18811   0.345  23.430  12.432
47196W        W18812  21.738  26.486   1.922
47197W        W18813  16.308  27.932  10.697
47198W        W18814  39.059  12.697   0.203
47199W        W18815  32.834  41.865   3.162
47200W        W18816  19.225   2.723   4.213
47201W        W18817  29.143  33.033   0.183
47202W        W18818  10.214  28.865  14.915
47203W        W18819  38.977   2.653   4.039
47204W        W18820  24.135  14.239   2.784
47205W        W18821   3.166  38.826  11.454
47206W        W18822   9.861  41.103   2.181
47207W        W18823  44.516  31.436   2.366
47208W        W18824  29.349  12.166   4.191
47209W        W18825  43.632  19.788   4.901
47210W        W18826  14.337  24.338  12.646
47211W        W18827  13.667  32.163  11.868
47212W        W18828   1.396  26.186   3.611
47213W        W18829  29.647   4.801  13.498
47214W        W18830  27.511  22.411  11.178
47215W        W18831  10.710  19.324   4.304
47216W        W18832   3.879  40.107   3.518
47217W        W18833  23.483  41.518  10.954
47218W        W18834  32.928   0.526   3.646
47219W        W18835   7.774  11.443  10.537
47220W        W18836   1.977   0.231  14.885
47221W        W18837  32.133  11.884   1.197
47222W        W18838   4.431  36.389  12.573
47223W        W18839  41.760   8.641  12.442
47224W        W18840  39.317   0.343  14.592
47225W        W18841   0.954  17.620  12.021
47226W        W18842  39.617  13.765   0.452
47227W        W18843  14.732  15.081   1.845
47228W        W18844  25.921  17.435  10.349
47229W        W18845  20.204  13.451   0.798
47230W        W18846   5.068  43.773  10.525
47231W        W18847   6.924  38.940  11.633
47232W        W18848   1.990   0.471  11.044
47233W        W18849  25.814  19.507  11.085
47234W        W18850   1.965   9.863   3.542
47235W        W18851  11.367  38.536   2.345
47236W        W18852  18.747  25.346   2.377
47237W        W18853  21.803  14.540   0.889
47238W        W18854  28.845  30.691   1.279
47239W        W18855  32.632  24.188  13.040
47240W        W18856  18.213  42.076  11.984
47241W        W18857  17.323  33.832  14.805
47242W        W18858  38.703  39.787   3.182
47243W        W18859  34.102  20.674   4.571
47244W        W18860  14.090  40.715  11.662
47245W        W18861   1.938  38.021   3.977
47246W        W18862  33.602  31.988   2.231
47247W        W18863  37.598  14.344  14.386
47248W        W18864  39.512  30.384  14.520
47249W        W18865  16.190  15.271   2.170
47250W        W18866  23.993  30.617   3.259
47251W        W18867  29.182  38.357   4.331
47252W        W18868  11.634  21.731   1.295
47253W        W18869   8.470  44.360   3.829
47254W        W18870  20.773  34.135   0.297
47255W        W18871  43.126  14.261  11.118
47256W        W18872   9.844  28.483   0.645
47257W        W18873  21.810  21.676  12.313
47258W        W18874  11.230  35.013   4.817
47259W        W18875  20.966  28.163  13.879
47260W        W18876   8.830  19.762   0.985
47261W        W18877  42.974   6.251   3.960
47262W        W18878   0.904  36.580   1.411
47263W        W18879  44.884   3.996  14.421
47264W        W18880  37.355  15.565  14.850
47265W        W18881  40.548  11.407  12.367
47266W        W18882  21.514  40.522  10.836
47267W        W18883  28.961  33.760  13.419
47268W        W18884  31.364  10.249   1.830
47269W        W18885  31.664  34.639   4.683
47270W        W18886  14.893  36.529  12.571
47271W        W18887   0.792   7.150  10.033
47272W        W18888  30.652   8.726   1.822
47273W        W18889  38.847  24.586  13.925
47274W        W18890  35.978  29.201   2.710
47275W        W18891  28.455  35.633   0.972
47276W        W18892  17.254  40.378  13.956
47277W        W18893   9.271  14.605  14.750
47278W        W18894  31.974  14.824  12.940
47279W        W18895   6.863  24.103   2.584
47280W        W18896  36.754  41.559  14.921
47281W        W18897  44.720   5.916  11.169
47282W        W18898  37.438  41.409  14.082
47283W        W18899  23.680  37.759  14.921
47284W        W18900  35.592  42.036   3.816
47285W        W18901  38.856  42.575   4.588
47286W        W18902  43.971  12.623  11.952
47287W        W18903  43.820  35.339   3.379
47288W        W18904  10.722   7.093  12.872
47289W        W18905  10.216   3.146   0.814
47290W        W18906   0.373  31.569  13.954
47291W        W18907  43.030  44.517  13.044
47292W        W18908  44.899  25.135   0.493
47293W        W18909  30.908  25.134  13.306
47294W        W18910  17.580   3.816   1.358
47295W        W18911  32.645   3.389  12.555
47296W        W18912   5.859  25.070  12.617
47297W        W18913  44.590   0.913   4.869
47298W        W18914  30.396  39.358   1.449
47299W        W18915  18.887  10.411   1.211
47300W        W18916   6.677  20.256   3.788
47301W        W18917  38.629  16.697   1.357
47302W        W18918  12.755  21.089   3.895
47303W        W18919  16.266  23.207  14.385
47304W        W18920  14.092   4.064   4.227
47305W        W18921  22.723   9.413   3.691
47306W        W18922  17.340  10.389  13.889
47307W        W18923  31.443  27.580   4.646
47308W        W18924  44.031  25.145   2.305
47309W        W18925  23.013  31.099   3.532
47310W        W18926   3.239   2.519   3.677
47311W        W18927  28.415  38.335  12.597
47312W        W18928  34.966  31.544   2.219
47313W        W18929  24.796   0.672  13.738
47314W        W18930   4.703  16.789   3.372
47315W        W18931  28.688  17.596  13.892
47316W        W18932  27.578  29.169   1.827
47317W        W18933   0.401  32.410   1.526
47318W        W18934  31.208  41.001  11.183
47319W        W18935  32.439  36.797  14.506
47320W        W18936  17.087  44.907   5.476
47321W        W18937   5.126  43.461   3.858
47322W        W18938  30.597   0.833  12.557
47323W        W18939  25.903  13.113   3.173
47324W        W18940  26.855   8.567   1.730
47325W        W18941  15.581  12.292   4.651
47326W        W18942  42.331   7.890  13.655
47327W        W18943  31.058  26.248  13.633
47328W        W18944  12.054  11.790   4.121
47329W        W18945  13.690  26.727  10.315
47330W        W18946  43.332   5.703   1.938
47331W        W18947  19.184  24.256   4.474
47332W        W18948  23.030  34.659  14.032
47333W        W18949  39.089  44.562  13.864
47334W        W18950   0.744   9.348   3.821
47335W        W18951  27.198  28.886   0.935
47336W        W18952  25.934  44.989  12.670
47337W        W18953  30.519  37.898  11.214
47338W        W18954   3.468  23.179   4.279
47339W        W18955  25.593  15.671  10.965
47340W        W18956  37.187  18.068   0.478
47341W        W18957  21.301  33.095   3.260
47342W        W18958   7.889  34.824  12.140
47343W        W18959  13.803   1.306  11.414
47344W        W18960  44.230   7.023  14.052
47345W        W18961  13.781  21.716   2.159
47346W        W18962  26.185   1.302   1.640
47347W        W18963  18.236  26.870  12.973
47348W        W18964  10.330  14.829   1.325
47349W        W18965  16.735  37.072  14.693
47350W        W18966  11.137   9.702   1.237
47351W        W18967   7.621  15.544  12.509
47352W        W18968  20.151  43.763   2.017
47353W        W18969  15.187  43.478  12.420
47354W        W18970  10.074  32.909  13.922
47355W        W18971  14.878  28.084   2.258
47356W        W18972  27.621  35.611   0.656
47357W        W18973  19.846  39.936  12.967
47358W        W18974  11.714   0.422  13.985
47359W        W18975  25.566  37.342  11.644
47360W        W18976   0.728  22.015  10.711
47361W        W18977  43.044  31.444  10.673
47362W        W18978  17.585   0.489  11.950
47363W        W18979  36.428   6.609  10.251
47364W        W18980  43.480  44.396   4.883
47365W        W18981  28.971  34.121  14.520
47366W        W18982  41.917  39.556  10.664
47367W        W18983   5.693   4.872   2.801
47368W        W18984  35.523   7.737  11.566
47369W        W18985   2.997  20.029  11.130
47370W        W18986  26.232  34.833   2.748
47371W        W18987  33.390  37.392   2.303
47372W        W18988  44.522  11.888   4.512
47373W        W18989  36.131  25.063  12.561
47374W        W18990  30.638  16.764  14.901
47375W        W18991  43.024  17.817   1.335
47376W        W18992  14.367  12.715   4.622
47377W        W18993   9.391  44.725  12.885
47378W        W18994  28.628  24.078   2.261
47379W        W18995  14.361  18.367  12.313
47380W        W18996   9.268  32.675   3.718
47381W        W18997  27.731  30.721   2.774
47382W        W18998  43.604  26.410  14.352
47383W        W18999  23.696   4.197  12.968
47384W        W19000   4.637  33.420  13.019
47385W        W19001  11.301  19.173   3.585
47386W        W19002  32.222  12.902   1.297
47387W        W19003  18.482  13.946  10.822
47388W        W19004  40.711  43.691   0.827
47389W        W19005  36.348  16.333  14.388
47390W        W19006  12.752  32.158   1.890
47391W        W19007  32.987   8.036   3.254
47392W        W19008  36.563  42.085  10.654
47393W        W19009  28.434  23.686  10.700
47394W        W19010  39.045   0.965   4.584
47395W        W19011   8.365  10.108  12.352
47396W        W19012  42.420  32.483  11.706
47397W        W19013  26.483  25.658  11.278
47398W        W19014  17.112  28.127   3.659
47399W        W19015  17.538  18.536  12.522
47400W        W19016   4.958   0.020  11.631
47401W        W19017  15.523   2.364   2.474
47402W        W19018  32.489  29.946  10.266
47403W        W19019  23.664  14.898  12.581
47404W        W19020  30.933  26.104  12.027
47405W        W19021  27.264  20.841   1.263
47406W        W19022  28.083  11.611  14.240
47407W        W19023  20.157  19.243   0.254
47408W        W19024  21.059  27.984  12.600
47409W        W19025   3.366  19.679   2.674
47410W        W19026   8.302  43.484   2.792
47411W        W19027   0.918  14.089  10.713
47412W        W19028   2.452  42.080  11.681
47413W        W19029  42.375  21.754  10.493
47414W        W19030  23.643   2.925   4.095
47415W        W19031  32.015   7.679  11.109
47416W        W19032  16.804  20.091  13.885
47417W        W19033  26.027   1.507   0.234
47418W        W19034  14.541  41.720  11.270
47419W        W19035  23.112  39.229   3.203
47420W        W19036  18.263  17.482   4.869
47421W        W19037  38.587   1.355   4.157
47422W        W19038   8.634  40.304  12.873
47423W        W19039  16.123  23.926  11.200
47424W        W19040   9.379   0.853   3.756
47425W        W19041  34.983  37.795   3.745
47426W        W19042  19.091  25.627  12.088
47427W        W19043  44.918  22.060  10.626
47428W        W19044   7.809  36.458  13.516
47429W        W19045  38.435  13.316   4.472
47430W        W19046  39.429   5.148  14.241
47431W        W19047  13.930  30.870  11.405
47432W        W19048  13.815  12.836  13.309
47433W        W19049  22.760  42.979   2.201
47434W        W19050   1.824  37.527  10.523
47435W        W19051  11.079  40.365   4.808
47436W        W19052   7.187  43.219  11.165
47437W        W19053  33.104  42.883  10.547
47438W        W19054   9.678  24.583   0.775
47439W        W19055  23.000   2.578  14.559
47440W        W19056  40.824  38.212  14.090
47441W        W19057  14.280  40.741   3.192
47442W        W19058  11.654   3.922  12.543
47443W        W19059   2.426   9.400   2.276
47444W        W19060   1.438  33.338   4.752
47445W        W19061  18.176  43.353   0.304
47446W        W19062  42.347  11.184  11.595
47447W        W19063  37.947   2.774  11.529
47448W        W19064  14.447  26.126   1.275
47449W        W19065   8.352   0.983  12.463
47450W        W19066  39.379  42.951   1.717
47451W        W19067  23.152  19.925   0.496
47452W        W19068   5.302  18.976   2.896
47453W        W19069  27.034  23.382  10.939
47454W        W19070  12.106  18.631  11.850
47455W        W19071  26.751  37.021  14.466
47456W        W19072  18.070   1.234  12.087
47457W        W19073  13.433  28.231   0.659
47458W        W19074  41.100  15.654   0.931
47459W        W19075  42.498  13.083   0.312
47460W        W19076   4.311  26.130   0.412
47461W        W19077  35.368  27.665  11.276
47462W        W19078  14.007  44.903  12.028
47463W        W19079  27.614  38.182   4.176
47464W        W19080  25.181  24.645  11.422
47465W        W19081  32.229  39.868   4.009
47466W        W19082   0.290  41.590   4.612
47467W        W19083  29.509  30.436  10.693
47468W        W19084  36.865  42.429  10.389
47469W        W19085  15.284  32.011   4.048
47470W        W19086  42.234  26.117  11.165
47471W        W19087  14.767   2.363  11.412
47472W        W19088  20.036   2.835  11.103
47473W        W19089  34.229  40.304  12.422
47474W        W19090  33.450   0.906  10.705
47475W        W19091   9.404  14.112   2.746
47476W        W19092  20.419  42.887   0.357
47477W        W19093   4.360  44.016   5.023
47478W        W19094  42.466  15.551   3.323
47479W        W19095  44.746  31.066  14.786
47480W        W19096  34.743  33.201   0.863
47481W        W19097  31.288  25.738  11.886
47482W        W19098   7.488  10.882  11.135
47483W        W19099   6.735   5.191   0.885
47484W        W19100  21.978   7.322  11.113
47485W        W19101  27.871   1.113  11.636
47486W        W19102  29.460  19.528   3.571
47487W        W19103  31.096  31.863   0.707
47488W        W19104  42.220  18.303  12.025
47489W        W19105  32.928  42.490  14.865
47490W        W19106  24.700  17.262   2.065
47491W        W19107  26.126  42.315   3.165
47492W        W19108  16.522  38.769   4.542
47493W        W19109  33.866  38.786  10.046
47494W        W19110  11.381  27.848  10.092
47495W        W19111  11.081   2.698   0.933
47496W        W19112  14.693  15.684   3.069
47497W        W19113  39.513  33.824   0.373
47498W        W19114  19.410   8.699   4.912
47499W        W19115  24.271  15.075  14.982
47500W        W19116  35.478  26.942  13.592
47501W        W19117  44.263  43.391  12.701
47502W        W19118   0.994  20.146   1.357
47503W        W19119  22.421  11.726   1.713
47504W        W19120  43.874  24.126   3.194
47505W        W19121  10.255  43.391  11.431
47506W        W19122  26.732  35.118   1.886
47507W        W19123  19.295  24.646   2.219
47508W        W19124  34.382   4.963   2.809
47509W        W19125  41.393  31.744   5.150
47510W        W19126  14.152  20.650   1.368
47511W        W19127  20.548   9.452   4.200
47512W        W19128  31.467  19.118  13.069
47513W        W19129  29.603  38.419  10.772
47514W        W19130  19.091  42.042  13.726
47515W        W19131  17.252   7.441   3.805
47516W        W19132  20.330  17.082  14.106
47517W        W19133   1.124  10.970   0.910
47518W        W19134   9.825  19.167   2.162
47519W        W19135   9.809  42.426  14.147
47520W        W19136  24.422   7.254  14.801
47521W        W19137  31.612  17.166  13.606
47522W        W19138  25.415   6.591   2.780
47523W        W19139  36.117  26.245   2.635
47524W        W19140  40.007  20.272  14.360
47525W        W19141   0.759   2.666   3.232
47526W        W19142  40.575  40.838  11.614
47527W        W19143  25.360   1.010  10.081
47528W        W19144   5.688  39.411  10.629
47529W        W19145  11.772  11.354  10.804
47530W        W19146  20.413   6.899   3.723
47531W        W19147  32.092  33.994   2.973
47532W        W19148   1.888   7.317   1.173
47533W        W19149  16.449  20.060   4.194
47534W        W19150  43.916  25.246   0.785
47535W        W19151  27.029  39.825  11.498
47536W        W19152  25.598  27.948   0.721
47537W        W19153  43.541  18.095  13.717
47538W        W19154  16.661   8.973   3.840
47539W        W19155  12.814  37.029  13.380
47540W        W19156  36.362  33.099  12.033
47541W        W19157  20.173  34.867  12.618
47542W        W19158  42.242   6.639   3.165
47543W        W19159  25.185   2.957  14.929
47544W        W19160  42.778  11.623  12.990
47545W        W19161  41.979  38.022  11.554
47546W        W19162  13.996   7.172   2.660
47547W        W19163   9.770  19.271   3.391
47548W        W19164   8.145  32.799   1.448
47549W        W19165  22.825  27.229  11.711
47550W        W19166  34.615  26.140  11.359
47551W        W19167  19.086  23.074   4.527
47552W        W19168  16.253   7.272  10.890
47553W        W19169  10.790  37.771   1.695
47554W        W19170  16.809  20.766   2.887
47555W        W19171  44.056  34.054   3.303
47556W        W19172  28.123   6.420   4.535
47557W        W19173  22.082  31.519   4.144
47558W        W19174   6.084  21.077   3.652
47559W        W19175  36.314  18.778  13.932
47560W        W19176  24.398   7.633  14.460
47561W        W19177  14.333  25.405  10.849
47562W        W19178  37.422  39.640   0.885
47563W        W19179   2.433  24.805   2.690
47564W        W19180   9.405  26.063  13.108
47565W        W19181  42.180  38.095   9.802
47566W        W19182  27.923  11.096   3.150
47567W        W19183  42.861  32.506  13.974
47568W        W19184  28.076  21.463  13.056
47569W        W19185  10.117  29.181   0.804
47570W        W19186  20.823   3.536  14.968
47571W        W19187  20.231  38.745  12.287
47572W        W19188  43.333  22.023   0.738
47573W        W19189   5.092  31.649  13.438
47574W        W19190  37.897   3.817   3.696
47575W        W19191  40.530  39.906   0.907
47576W        W19192  42.375  10.385  14.752
47577W        W19193  31.440  20.978   0.783
47578W        W19194  11.084   0.367  14.380
47579W        W19195  39.738   9.755   3.622
47580W        W19196  18.048  42.383  14.300
47581W        W19197  38.876  41.142  14.481
47582W        W19198  25.732  25.572   3.169
47583W        W19199  31.708   7.800  14.483
47584W        W19200  27.302  22.344  12.037
47585W        W19201   1.379   9.193   0.748
47586W        W19202   6.896  34.876  13.094
47587W        W19203  29.279  18.637   3.191
47588W        W19204  22.627  22.165  12.864
47589W        W19205  28.314  44.319   4.940
47590W        W19206  29.540  31.372  12.427
47591W        W19207  18.021   9.601  13.274
47592W        W19208  21.736  28.563  10.731
47593W        W19209  35.232  30.548  10.409
47594W        W19210  41.403   2.457   1.861
47595W        W19211   1.140   9.764   2.210
47596W        W19212  40.983  30.185   3.698
47597W        W19213  28.207  15.824   1.371
47598W        W19214  41.812  19.086   0.858
47599W        W19215  35.082  33.956  11.547
47600W        W19216   0.510   2.672  11.123
47601W        W19217   7.174  20.333   3.653
47602W        W19218  15.665  30.763   2.812
47603W        W19219  15.217   3.053  10.932
47604W        W19220  43.185  21.924   4.590
47605W        W19221  17.241  15.487   1.941
47606W        W19222   0.764  30.698   0.344
47607W        W19223  43.473  31.401  12.807
47608W        W19224   5.913  26.148   0.326
47609W        W19225   0.185  26.254   0.479
47610W        W19226  40.811  38.543  10.614
47611W        W19227  23.840  30.982  10.687
47612W        W19228  28.662  20.967  12.042
47613W        W19229  33.967  11.096   2.744
47614W        W19230  31.207   1.244  10.278
47615W        W19231  40.943   5.463   1.909
47616W        W19232   7.113  11.285   1.124
47617W        W19233  38.103  15.233   4.290
47618W        W19234  19.254  32.426   3.292
47619W        W19235   1.940   5.642   2.270
47620W        W19236   1.262  13.671   0.733
47621W        W19237   8.294  36.025   1.276
47622W        W19238  42.832   5.655  11.989
47623W        W19239  38.459  42.912  12.593
47624W        W19240  43.756  23.510   4.008
47625W        W19241  35.508   5.991   1.940
47626W        W19242  21.050   8.710   4.171
47627W        W19243  22.263  16.187  13.079
47628W        W19244  31.019  11.141  11.440
47629W        W19245  36.451  43.787  11.726
47630W        W19246  23.201  20.510  13.370
47631W        W19247   9.140  28.744  12.615
47632W        W19248   7.312  35.066   0.321
47633W        W19249  25.914  23.371  11.562
47634W        W19250  29.346  43.350   4.705
47635W        W19251  20.993  20.699  10.664
47636W        W19252  36.352  35.137   3.267
47637W        W19253  34.090  12.597   3.637
47638W        W19254  14.709  40.508  14.601
47639W        W19255  10.249  13.809   1.313
47640W        W19256  12.924  19.491   0.001
47641W        W19257  19.644  21.099  12.537
47642W        W19258  39.958  30.583  12.476
47643W        W19259  34.010  37.718   3.717
47644W        W19260   7.795  12.381  12.519
47645W        W19261  27.881  14.773  14.454
47646W        W19262  40.445  40.593  11.114
47647W        W19263  29.393  37.541  11.149
47648W        W19264   7.151   4.545   4.051
47649W        W19265  28.506  21.742   4.572
47650W        W19266  16.040  16.386   2.418
47651W        W19267  34.845  34.853  14.803
47652W        W19268  11.233   4.866  14.079
47653W        W19269  26.530  42.486   1.314
47654W        W19270  25.563   1.738   0.563
47655W        W19271  32.093  13.250   4.570
47656W        W19272  24.969  41.737  14.907
47657W        W19273   4.402  29.976   0.299
47658W        W19274  22.621  29.124  12.481
47659W        W19275   4.712  24.181  12.319
47660W        W19276  35.822   7.098   4.948
47661W        W19277  17.376  16.313   4.999
47662W        W19278  43.304   2.975   3.742
47663W        W19279  36.414  43.025   5.122
47664W        W19280  30.295  11.896   0.494
47665W        W19281  29.629  33.910   3.771
47666W        W19282  33.445  28.441   4.073
47667W        W19283  25.478  23.216   0.946
47668W        W19284  36.454  30.503   1.305
47669W        W19285   3.072  27.539   2.118
47670W        W19286  19.052   5.023  14.985
47671W        W19287  37.763  14.690  11.359
47672W        W19288  29.705  16.793   0.456
47673W        W19289  22.004  20.323  13.053
47674W        W19290   9.660   7.073  11.569
47675W        W19291  33.910  18.297  13.312
47676W        W19292  41.042  41.364   1.779
47677W        W19293  14.566  37.063  11.535
47678W        W19294  23.716  22.273   2.304
47679W        W19295   6.937  32.963  11.493
47680W        W19296  10.195  26.555  14.812
47681W        W19297  24.169  27.674  13.042
47682W        W19298  31.514  34.637  13.803
47683W        W19299  33.654  12.174   4.466
47684W        W19300  14.557  43.817   1.726
47685W        W19301  44.070   3.771  13.053
47686W        W19302  40.311  15.908  13.703
47687W        W19303  35.605  34.004  12.441
47688W        W19304  14.273  32.456   3.211
47689W        W19305  22.206   8.878  13.409
47690W        W19306   7.950  20.502   4.285
47691W        W19307  29.192  43.784  10.623
47692W        W19308  34.041   8.841  13.329
47693W        W19309  35.816  13.394   4.254
47694W        W19310  28.698   6.473  14.858
47695W        W19311  40.614  20.700  11.184
47696W        W19312  29.939  17.169  14.876
47697W        W19313  26.625   7.171  11.549
47698W        W19314  33.903  26.609   0.900
47699W        W19315  18.362  25.926  13.975
47700W        W19316  44.821  16.131   2.991
47701W        W19317  13.482  33.430   3.297
47702W        W19318   6.761  11.751   3.244
47703W        W19319   9.313  20.027  14.805
47704W        W19320  43.052  34.847  14.403
47705W        W19321  31.494  15.149   0.329
47706W        W19322   0.673  19.190  14.265
47707W        W19323   2.282  29.427   2.394
47708W        W19324  21.133  42.539  12.628
47709W        W19325  40.755  22.316   0.398
47710W        W19326   8.281  15.620   0.877
47711W        W19327   4.746  11.955  14.413
47712W        W19328  36.889  20.463   0.364
47713W        W19329  18.126   2.190   4.246
47714W        W19330  23.090  33.075   3.055
47715W        W19331  30.013  18.140   2.313
47716W        W19332  11.940  25.097   0.498
47717W        W19333   6.539  21.679  11.932
47718W        W19334  37.452  33.383  13.546
47719W        W19335   9.168  34.459  14.361
47720W        W19336  33.858  19.784   1.358
47721W        W19337   9.152  32.248  14.913
47722W        W19338   1.454   0.834   4.275
47723W        W19339  16.118  13.683   3.164
47724W        W19340  23.536  33.491  10.383
47725W        W19341   5.882  20.029   4.223
47726W        W19342  32.011  16.348  14.253
47727W        W19343  19.901   7.384   2.723
47728W        W19344   0.245  21.580   1.219
47729W        W19345  14.196  20.348   2.364
47730W        W19346   7.710  17.832  14.645
47731W        W19347  34.391   3.889  14.349
47732W        W19348  11.544  22.199  14.541
47733W        W19349  38.535  34.917   1.652
47734W        W19350   2.743  33.369  12.571
47735W        W19351  36.551   0.287   1.943
47736W        W19352  10.225  43.132  13.082
47737W        W19353  41.983  39.569  12.457
47738W        W19354  42.960  39.192   9.964
47739W        W19355  21.191  12.262  14.963
47740W        W19356  34.970  22.903  11.486
47741W        W19357   8.631   7.679   1.687
47742W        W19358  33.787   2.237   1.820
47743W        W19359  10.721  39.896   4.579
47744W        W19360  21.753  27.451   3.713
47745W        W19361  42.404  43.799  13.047
47746W        W19362   1.736   5.492  12.999
47747W        W19363  22.677  18.333  14.442
47748W        W19364  15.350  25.741   1.375
47749W        W19365  42.285  36.377   5.052
47750W        W19366  21.423  35.895  14.888
47751W        W19367  31.510  30.161  12.150
47752W        W19368  31.954  22.081  14.815
47753W        W19369  14.036  15.076   1.480
47754W        W19370  18.661  40.720  14.391
47755W        W19371  38.647   4.341   1.302
47756W        W19372  34.884  33.469   2.366
47757W        W19373  25.082  17.240   1.245
47758W        W19374  18.532  30.139   3.558
47759W        W19375  12.857  27.484  13.208
47760W        W19376  20.763  36.982  14.406
47761W        W19377  37.857  15.698   4.646
47762W        W19378   7.860  28.585   3.158
47763W        W19379   5.796   4.258   3.922
47764W        W19380  14.684   9.644   4.124
47765W        W19381  38.325  21.238  10.681
47766W        W19382  43.450  19.157  14.722
47767W        W19383  39.384  29.070  11.623
47768W        W19384  41.791  36.630  10.124
47769W        W19385  32.036   0.450  13.794
47770W        W19386  15.143   4.665   4.207
47771W        W19387  37.127   1.567   4.808
47772W        W19388  40.984  44.011  11.493
47773W        W19389  24.109  14.251   1.301
47774W        W19390   4.702  27.659  11.990
47775W        W19391   3.175  18.748  13.564
47776W        W19392  44.204  24.855   1.900
47777W        W19393  28.187  28.662  11.152
47778W        W19394  27.247  15.484  13.047
47779W        W19395  10.853  43.498  10.762
47780W        W19396  21.719  20.587  10.742
47781W        W19397  25.074  32.148   4.569
47782W        W19398  16.439  31.453   3.392
47783W        W19399  11.112  34.989   0.937
47784W        W19400  37.742   0.388  11.752
47785W        W19401   4.573  28.081   1.065
47786W        W19402  23.991  41.415  13.032
47787W        W19403  28.087   3.732   0.923
47788W        W19404  28.286  35.235  10.403
47789W        W19405   3.738  22.013   1.630
47790W        W19406  26.612  41.464  14.852
47791W        W19407  21.289   0.189   0.185
47792W        W19408  18.881  23.680   0.848
47793W        W19409   6.831   6.541   4.097
47794W        W19410  24.690  13.367   2.194
47795W        W19411  41.840  42.008   1.634
47796W        W19412  20.041   1.732  12.584
47797W        W19413  32.552  43.039  12.560
47798W        W19414  43.803  33.951  14.089
47799W        W19415  25.103   6.724  13.344
47800W        W19416  39.860  23.021   1.358
47801W        W19417  21.966   9.215   2.798
47802W        W19418   2.489  23.593   0.430
47803W        W19419   9.218   2.386   1.346
47804W        W19420  21.988  15.643  11.796
47805W        W19421  25.736  37.914   3.316
47806W        W19422  20.002   3.082  14.597
47807W        W19423  37.964  41.953  12.060
47808W        W19424  10.718  11.792   2.897
47809W        W19425   7.221  19.336  12.133
47810W        W19426  10.298  21.625  11.156
47811W        W19427   0.820  23.234   3.274
47812W        W19428  26.587  41.299   1.865
47813W        W19429  15.931  23.103  13.921
47814W        W19430  18.612   4.257  14.736
47815W        W19431  20.687   9.834   2.970
47816W        W19432  11.649   6.808   4.967
47817W        W19433  14.574  19.736   1.870
47818W        W19434   2.968  22.370  14.326
47819W        W19435  21.770  24.973  11.106
47820W        W19436  16.916  20.202  11.008
47821W        W19437   3.755  22.720  10.670
47822W        W19438  37.461  27.624   1.646
47823W        W19439  21.841  43.869  12.533
47824W        W19440  36.511  17.090   3.110
47825W        W19441  21.577  28.050   1.112
47826W        W19442   4.498  24.609  12.511
47827W        W19443  29.938  20.719  11.166
47828W        W19444  13.723  13.772   1.744
47829W        W19445  14.583  18.332  14.463
47830W        W19446  27.446  30.132  12.979
47831W        W19447  19.850   5.753   3.317
47832W        W19448   2.172  21.083  12.731
47833W        W19449  26.362  34.322  10.714
47834W        W19450  38.844  13.518  13.352
47835W        W19451  22.685   1.459  14.850
47836W        W19452  32.621  10.272   4.091
47837W        W19453   1.203  33.917   2.906
47838W        W19454  14.400  11.999  12.194
47839W        W19455  33.389  29.965   1.942
47840W        W19456  35.016  43.356   1.712
47841W        W19457  30.113   1.968  14.666
47842W        W19458   9.211  35.557   3.241
47843W        W19459  16.314  23.076  12.417
47844W        W19460  31.353  15.296  11.461
47845W        W19461   1.933   7.904  14.741
47846W        W19462  34.048   0.412   3.269
47847W        W19463  25.407   8.561  10.983
47848W        W19464   4.422  13.677  13.416
47849W        W19465  22.000  40.063   3.785
47850W        W19466  18.870  26.149   3.885
47851W        W19467  41.625  10.298   3.554
47852W        W19468   5.180  40.324   3.640
47853W        W19469  44.043   9.808  14.794
47854W        W19470   6.902  25.101  10.635
47855W        W19471  35.080  19.296   4.358
47856W        W19472  22.207  33.396   0.319
47857W        W19473  19.653  24.046   3.745
47858W        W19474  26.254  21.506   4.542
47859W        W19475  19.339   7.277   3.244
47860W        W19476   8.715  27.912  13.032
47861W        W19477  16.772  24.666  12.305
47862W        W19478   1.114   2.873   1.515
47863W        W19479  36.089  30.636  10.819
47864W        W19480  16.309  44.815  14.753
47865W        W19481  42.475  37.763  10.685
47866W        W19482  17.551  25.086  12.868
47867W        W19483   7.764  30.677  11.198
47868W        W19484  20.613  37.131   4.677
47869W        W19485  31.907  38.196  11.695
47870W        W19486   8.316  29.966   1.794
47871W        W19487  16.049  44.494  12.344
47872W        W19488  10.677  23.111  12.364
47873W        W19489  23.155  34.095  13.580
47874W        W19490  15.836  34.374  11.527
47875W        W19491   0.527   3.974   0.900
47876W        W19492  26.160  41.791   2.142
47877W        W19493   3.977   3.040  12.508
47878W        W19494  33.301   7.318  12.798
47879W        W19495  38.572   9.095   2.763
47880W        W19496   2.489   9.764  13.609
47881W        W19497  12.257   4.915  11.042
47882W        W19498  23.547  40.674   0.760
47883W        W19499   9.104  31.232  13.640
47884W        W19500   1.435   0.295   4.971
47885W        W19501  41.575  21.074  14.928
47886W        W19502   2.172  34.030  10.223
47887W        W19503  21.969   2.326   4.510
47888W        W19504   5.121   7.906  12.017
47889W        W19505  13.579  34.449   3.192
47890W        W19506  18.668   5.656   1.268
47891W        W19507  44.744  34.260  11.186
47892W        W19508   6.036  36.512   1.807
47893W        W19509  12.705  40.295   3.130
47894W        W19510  29.983   0.679   2.687
47895W        W19511  30.337  24.074  14.510
47896W        W19512   2.884  42.968  14.325
47897W        W19513  15.334  32.869  13.755
47898W        W19514   9.431  20.142   1.379
47899W        W19515  28.686  12.572  11.161
47900W        W19516  43.285  19.792  12.859
47901W        W19517   1.991  31.391   0.388
47902W        W19518   0.919  38.304  13.808
47903W        W19519   8.911   8.226  11.061
47904W        W19520  43.520  31.885   4.004
47905W        W19521  41.340  10.820  11.871
47906W        W19522  43.370  26.984  13.631
47907W        W19523  27.448   0.741  11.631
47908W        W19524  13.647  10.317  11.678
47909W        W19525  25.280  43.233  12.310
47910W        W19526  36.591  17.318   1.301
47911W        W19527   4.317  32.471   2.383
47912W        W19528  11.853  27.548   4.382
47913W        W19529  17.162  39.476   4.700
47914W        W19530  42.350  25.433   0.038
47915W        W19531   9.094  21.575  13.795
47916W        W19532  24.053  32.344   0.771
47917W        W19533  32.635  12.834   2.273
47918W        W19534  11.598  18.569   0.476
47919W        W19535   1.272   3.132  11.094
47920W        W19536  12.977  15.629  14.780
47921W        W19537  33.645  22.027   2.201
47922W        W19538  17.641  36.904   2.231
47923W        W19539   1.203  20.736   2.792
47924W        W19540  33.851  18.731   3.755
47925W        W19541   1.575  20.025   2.417
47926W        W19542  39.822  20.212   3.720
47927W        W19543   1.445  29.842  11.196
47928W        W19544  22.231  16.702  14.947
47929W        W19545  11.148  24.257   2.405
47930W        W19546   8.209  27.763   4.147
47931W        W19547  40.374  19.198  10.592
47932W        W19548  21.397   1.719   1.195
47933W        W19549   8.828  20.694  11.641
47934W        W19550   8.325  27.131   3.555
47935W        W19551  23.010   2.224  10.931
47936W        W19552   2.238  28.231   0.118
47937W        W19553  11.155   9.126  11.903
47938W        W19554  31.392   6.217  11.528
47939W        W19555  36.968  13.397   1.752
47940W        W19556  42.940   0.057  14.805
47941W        W19557  38.615  25.466   3.194
47942W        W19558  14.633  21.866  11.109
47943W        W19559   4.942  44.505  11.636
47944W        W19560  32.148  42.880  12.296
47945W        W19561   5.405  37.559   4.182
47946W        W19562  32.048  14.070   0.387
47947W        W19563   9.327   8.696  14.593
47948W        W19564  13.273   7.138   3.163
47949W        W19565  31.220  13.387  13.304
47950W        W19566  43.568   3.659  11.618
47951W        W19567  42.678  17.657  12.943
47952W        W19568  38.482  28.915  13.333
47953W        W19569  39.969  13.315   0.755
47954W        W19570  44.382   8.507   2.207
47955W        W19571   9.915  42.039   2.135
47956W        W19572   3.119   3.876   1.285
47957W        W19573  32.420   6.185   4.208
47958W        W19574  32.689  25.013  10.771
47959W        W19575  17.872   7.838  11.627
47960W        W19576  15.599  15.825   0.621
47961W        W19577  17.023   7.191   4.229
47962W        W19578   6.118  11.062   3.352
47963W        W19579  14.092  30.388  12.297
47964W        W19580   8.843   8.351   2.860
47965W        W19581  16.818   1.799  14.886
47966W        W19582  39.807  40.296   0.549
47967W        W19583  19.815   3.859   4.573
47968W        W19584  12.162  26.037   1.140
47969W        W19585  19.503  10.230   2.343
47970W        W19586  29.184  35.261  12.114
47971W        W19587   5.925  21.961  10.904
47972W        W19588  21.788  35.314  14.341
47973W        W19589  33.911   2.074  14.570
47974W        W19590  28.139  44.595   1.239
47975W        W19591   8.177  29.968   3.238
47976W        W19592  36.899   2.101   4.338
47977W        W19593  39.613  25.237  12.031
47978W        W19594  35.311  42.287   1.658
47979W        W19595  16.259  19.373   4.942
47980W        W19596  17.181   5.208  12.984
47981W        W19597  15.683  14.403  10.675
47982W        W19598  16.129  39.301   0.916
47983W        W19599  23.682  40.929   3.761
47984W        W19600  20.252  33.422  10.369
47985W        W19601  15.737  25.249   3.905
47986W        W19602  24.732   1.302   0.629
47987W        W19603  30.001  42.647  12.441
47988W        W19604  32.958  37.323   4.224
47989W        W19605  33.356  23.268  12.357
47990W        W19606  42.005  25.391   0.808
47991W        W19607  16.755  41.347  12.562
47992W        W19608   1.185  23.090   0.465
47993W        W19609  11.616  39.479   1.002
47994W        W19610  23.487  32.676   2.807
47995W        W19611  25.516  16.144   1.458
47996W        W19612  42.766  38.490  13.561
47997W        W19613  19.393  37.311   1.770
47998W        W19614  24.223  44.252   2.213
47999W        W19615  44.200  31.968  13.856
48000W        W19616  13.660   8.618  12.530
48001W        W19617  14.157  29.451   4.532
48002W        W19618  39.793  26.365   3.373
48003W        W19619   5.326  14.654   3.399
48004W        W19620  29.437  21.002   4.055
48005W        W19621  24.073  10.154   2.834
48006W        W19622  25.124  36.775   3.783
48007W        W19623  43.289  16.720  14.047
48008W        W19624  36.968   4.277   3.835
48009W        W19625   5.341  29.500   3.676
48010W        W19626   2.159  38.133   3.260
48011W        W19627  29.171  27.811  10.670
48012W        W19628  30.447  28.452  12.549
48013W        W19629  18.283   5.638   4.054
48014W        W19630  12.513  40.341   4.521
48015W        W19631  34.523  34.352   3.375
48016W        W19632  25.787  39.563   2.780
48017W        W19633  33.337  38.641   4.134
48018W        W19634  23.750  34.591  13.534
48019W        W19635  25.420  13.292   5.024
48020W        W19636  10.925  12.212   2.628
48021W        W19637  29.977   2.012   1.396
48022W        W19638  21.139  13.170  13.991
48023W        W19639   4.883  21.474  12.512
48024W        W19640  43.468  44.463   4.328
48025W        W19641  26.388  25.169  10.555
48026W        W19642  21.119   2.739   3.322
48027W        W19643  30.669  10.407  11.753
48028W        W19644   6.004  36.198  10.324
48029W        W19645  28.162  13.774   5.062
48030W        W19646  25.025  40.445   3.664
48031W        W19647  22.225  44.202   4.082
48032W        W19648  35.061   7.668  11.344
48033W        W19649  23.528  28.922   1.903
48034W        W19650  27.955  39.570  13.034
48035W        W19651  37.054   1.328   3.358
48036W        W19652  32.360  24.602  11.545
48037W        W19653  36.088  37.435   3.156
48038W        W19654  38.398  33.204  14.792
48039W        W19655  19.793  36.954   1.725
48040W        W19656   5.798  28.831  13.906
48041W        W19657  18.675  41.447  13.001
48042W        W19658   8.675   6.418   0.866
48043W        W19659   3.868  17.304  12.002
48044W        W19660  15.003   5.915   2.786
48045W        W19661  22.792  39.947  11.613
48046W        W19662  22.283  16.574   1.767
48047W        W19663  34.736   4.920   4.460
48048W        W19664  32.077   7.761  13.438
48049W        W19665   5.128   9.379   3.773
48050W        W19666  17.803  31.055   2.695
48051W        W19667  15.235  31.806   0.846
48052W        W19668  38.906  13.178   0.387
48053W        W19669  26.457  40.025   2.610
48054W        W19670  35.863  43.926   0.288
48055W        W19671  43.825   4.556   0.861
48056W        W19672  26.755  44.908   4.710
48057W        W19673  31.067  32.484   1.967
48058W        W19674  27.685  18.009  11.970
48059W        W19675  35.002  34.044   0.697
48060W        W19676  44.056   0.459   4.108
48061W        W19677   7.839   3.760  11.054
48062W        W19678   1.157  17.073   1.802
48063W        W19679  36.937  44.270  13.918
48064W        W19680  26.193  27.665   0.059
48065W        W19681   3.967  21.078  12.136
48066W        W19682   2.841   5.763  12.872
48067W        W19683   8.436   9.260   4.489
48068W        W19684  35.679  10.230   3.080
48069W        W19685   5.772   2.268   3.556
48070W        W19686  21.799  37.388  11.088
48071W        W19687   6.934  12.195   4.786
48072W        W19688   9.265  23.540  14.050
48073W        W19689  34.877   4.954  14.563
48074W        W19690  44.069  15.733  13.980
48075W        W19691  30.738  25.174   1.351
48076W        W19692  30.540  31.329   2.734
48077W        W19693   9.941  28.927   0.398
48078W        W19694   4.238  14.078  12.029
48079W        W19695  18.495  12.409  14.535
48080W        W19696  25.124  19.272   1.203
48081W        W19697  35.982   6.139  14.838
48082W        W19698  20.205  24.027   2.641
48083W        W19699  32.879   7.154   4.193
48084W        W19700  39.573  33.311   0.295
48085W        W19701  28.856  17.129  10.144
48086W        W19702  38.492   0.897  12.020
48087W        W19703   4.788  20.178   1.295
48088W        W19704  24.076  16.568  10.787
48089W        W19705  34.530  16.201   2.344
48090W        W19706   4.323  24.636  14.331
48091W        W19707  31.009  19.033   4.324
48092W        W19708  32.553  17.912  12.934
48093W        W19709  12.788  22.112   2.838
48094W        W19710  36.982   1.837   1.000
48095W        W19711  25.188   3.972  13.965
48096W        W19712   2.892  39.956   0.271
48097W        W19713  32.839   6.595  13.585
48098W        W19714   4.234  34.825  14.304
48099W        W19715  36.969   9.384   2.773
48100W        W19716  33.769   8.449   0.531
48101W        W19717  27.475  18.193   1.449
48102W        W19718   4.884  18.318   9.971
48103W        W19719  18.278  44.362  13.975
48104W        W19720  40.092   6.509   1.853
48105W        W19721  37.836  21.644  10.761
48106W        W19722  10.061   5.403  13.462
48107W        W19723   2.100  38.823   1.966
48108W        W19724  44.853  35.203   4.700
48109W        W19725  26.936   7.772   4.041
48110W        W19726  34.005  34.135   4.163
48111W        W19727   3.306  10.859  14.040
48112W        W19728   7.177   0.609   0.945
48113W        W19729  34.554  10.178  13.437
48114W        W19730  13.102  20.317   4.735
48115W        W19731  31.074  43.535   0.300
48116W        W19732  42.340  15.092   0.448
48117W        W19733  21.728  13.249  13.828
48118W        W19734  27.579  38.035  12.951
48119W        W19735   6.133  25.709   0.644
48120W        W19736  22.783  26.634   5.033
48121W        W19737  10.793  36.026   3.344
48122W        W19738  18.619  37.186   0.757
48123W        W19739  23.461  23.016   2.698
48124W        W19740  31.925  27.252   5.506
48125W        W19741   9.879  15.165  13.460
48126W        W19742  43.020   4.943  10.682
48127W        W19743  21.501  38.921   1.413
48128W        W19744  32.972  27.449  10.838
48129W        W19745  22.666   9.755   1.708
48130W        W19746  42.552   5.453  13.016
48131W        W19747  21.639  38.874   4.781
48132W        W19748  30.170  31.675  14.591
48133W        W19749  20.654   8.904  13.813
48134W        W19750  44.329   3.962  13.720
48135W        W19751  12.176  37.296   1.643
48136W        W19752  41.744  10.260  10.282
48137W        W19753  27.487  43.364  11.552
48138W        W19754  30.175   2.091   3.616
48139W        W19755  25.990  24.059   4.359
48140W        W19756  20.596   5.664  13.931
48141W        W19757  30.981   1.009   1.471
48142W        W19758   6.402  13.683   0.911
48143W        W19759  16.983  34.916   1.416
48144W        W19760  14.599  13.262  10.637
48145W        W19761  18.064  14.901  11.982
48146W        W19762  41.981  20.229   4.651
48147W        W19763  43.874  27.139   4.381
48148W        W19764  17.036  35.923   3.672
48149W        W19765  40.529  35.577  13.395
48150W        W19766  17.952  12.398  14.368
48151W        W19767  38.222  12.681   3.694
48152W        W19768  19.796   9.733  11.337
48153W        W19769  39.269  13.727  10.061
48154W        W19770   5.116  26.302  14.397
48155W        W19771  28.489  21.920  14.516
48156W        W19772  41.445   4.883   2.412
48157W        W19773   2.555  37.355  14.072
48158W        W19774  13.289  28.094  11.568
48159W        W19775  36.952  28.193   4.115
48160W        W19776   4.898   8.863   3.710
48161W        W19777  29.602  15.086  14.502
48162W        W19778  13.361   7.816  14.771
48163W        W19779   5.727  19.189   3.110
48164W        W19780   8.909   4.119   0.744
48165W        W19781  22.766  17.258  13.757
48166W        W19782  20.341   0.876  11.142
48167W        W19783  11.651  36.874   4.430
48168W        W19784  13.071  14.322   3.116
48169W        W19785   9.938  41.767  11.379
48170W        W19786  31.153  40.515  14.578
48171W        W19787  18.734  15.118  14.482
48172W        W19788  39.438  33.050  13.501
48173W        W19789  16.750  35.088   2.469
48174W        W19790  37.238   3.354   0.994
48175W        W19791  22.158  29.892  14.689
48176W        W19792  24.153  33.895   0.450
48177W        W19793  26.141  18.335   4.164
48178W        W19794  29.654  44.834  14.442
48179W        W19795  25.013  14.080   0.064
48180W        W19796  41.394  28.140   0.236
48181W        W19797  19.606  22.083   4.192
48182W        W19798  44.779  43.890  13.671
48183W        W19799   8.940  24.238   1.469
48184W        W19800  43.125  31.044  12.955
48185W        W19801  14.743  13.775   0.300
48186W        W19802  16.250  12.837   2.726
48187W        W19803  31.582   1.811   0.496
48188W        W19804  40.529   3.986  13.070
48189W        W19805  12.081  42.961   5.011
48190W        W19806  22.486  42.527   4.659
48191W        W19807  40.798   3.235  14.602
48192W        W19808   0.925  43.848   1.395
48193W        W19809   1.689  27.435   2.922
48194W        W19810  19.270  39.074   1.436
48195W        W19811  20.932  21.115  10.301
48196W        W19812  25.668  16.805  13.183
48197W        W19813  16.127  38.092   3.087
48198W        W19814  44.825  24.259   0.834
48199W        W19815  16.728  16.540   0.947
48200W        W19816   4.708  42.945  10.872
48201W        W19817  26.549   7.382  14.653
48202W        W19818  41.224   5.216  13.831
48203W        W19819  11.697  35.955  11.695
48204W        W19820  38.526  26.052  11.981
48205W        W19821   4.493  40.752   4.216
48206W        W19822  11.004   7.897  12.343
48207W        W19823   1.713   5.709   0.322
48208W        W19824   4.194  34.428   2.997
48209W        W19825  26.104  32.397   3.154
48210W        W19826  33.970   2.386   3.257
48211W        W19827  19.508   9.599  10.953
48212W        W19828  27.909   2.733  10.679
48213W        W19829  28.595  22.840   0.416
48214W        W19830  12.201   6.310  14.977
48215W        W19831   1.364  42.062  10.661
48216W        W19832  39.976  26.460  14.714
48217W        W19833  25.076  22.661   0.380
48218W        W19834  26.454   0.920  11.306
48219W        W19835   5.731   0.934  10.457
48220W        W19836   7.179   7.289  11.145
48221W        W19837  17.083  18.597   1.615
48222W        W19838  36.036   3.903  13.118
48223W        W19839  23.790  34.623   2.909
48224W        W19840  33.002  16.233  12.896
48225W        W19841  40.644   6.468   0.933
48226W        W19842  40.525   6.387  14.580
48227W        W19843   4.808  27.979  13.656
48228W        W19844  34.072  20.797   3.526
48229W        W19845  37.868  10.931   0.851
48230W        W19846  18.633   5.193  11.963
48231W        W19847  17.826   2.421   2.458
48232W        W19848  22.072  34.469   1.793
48233W        W19849  12.126   2.336   4.010
48234W        W19850  33.178  37.457   3.716
48235W        W19851  20.481  17.283   1.947
48236W        W19852   5.705   6.365   3.207
48237W        W19853  16.739  22.036  12.382
48238W        W19854  40.986  32.985   2.840
48239W        W19855  26.822  36.456  12.534
48240W        W19856   7.616  20.202   0.975
48241W        W19857  36.801  19.704  10.525
48242W        W19858  24.697  12.140   2.794
48243W        W19859  25.146  19.695  13.861
48244W        W19860  16.896   3.364  11.450
48245W        W19861  17.553  20.542   0.026
48246W        W19862  20.155   7.217   2.294
48247W        W19863  18.121  21.641   3.184
48248W        W19864   6.497  28.985   3.664
48249W        W19865  10.658  12.453   0.805
48250W        W19866  29.638   3.414  11.102
48251W        W19867  22.919   8.440  11.688
48252W        W19868  37.886  31.657   2.399
48253W        W19869  32.933  32.133   1.485
48254W        W19870   9.417  23.542   4.068
48255W        W19871  25.574  10.238   2.766
48256W        W19872  28.039  29.997  14.204
48257W        W19873  20.120  41.044   4.661
48258W        W19874  19.137   9.429   4.488
48259W        W19875  31.977  23.249  12.587
48260W        W19876   2.895  34.356   4.904
48261W        W19877  36.445  22.726  14.525
48262W        W19878  11.887  16.420   3.401
48263W        W19879  20.901  19.603   5.125
48264W        W19880  10.366  42.789   0.302
48265W        W19881  13.909  42.730  12.069
48266W        W19882  11.681  20.203   3.840
48267W        W19883  29.829   9.672   1.436
48268W        W19884  18.480  15.725  10.633
48269W        W19885  19.195  35.167  12.853
48270W        W19886  43.377  35.372   3.071
48271W        W19887  15.219   1.528   4.212
48272W        W19888  36.428  21.662   2.749
48273W        W19889   4.633  11.153  13.898
48274W        W19890   4.523   2.965  10.443
48275W        W19891  28.111  37.624  13.967
48276W        W19892  26.871  39.401  10.784
48277W        W19893   9.707  29.615   2.946
48278W        W19894   0.288  22.991   1.331
48279W        W19895   0.807  44.010  11.896
48280W        W19896  37.718   9.166  13.461
48281W        W19897  37.766  15.478  12.758
48282W        W19898   9.548  34.152   2.336
48283W        W19899  16.079  19.275   1.463
48284W        W19900  41.887  22.156   0.644
48285W        W19901   4.925  19.118  11.613
48286W        W19902  30.087  33.187   0.197
48287W        W19903   9.177  30.571   1.654
48288W        W19904  25.149  38.791  13.708
48289W        W19905  20.626  24.615   2.892
48290W        W19906  22.182  26.022   3.628
48291W        W19907  38.314  16.997  12.875
48292W        W19908  23.879  26.185  14.441
48293W        W19909  26.757  25.760  13.487
48294W        W19910  39.716  15.055   1.324
48295W        W19911  23.940  10.020   4.183
48296W        W19912  43.793   0.521   3.670
48297W        W19913  15.511   1.632   3.782
48298W        W19914   2.340  19.161  14.840
48299W        W19915  21.220  35.473   3.295
48300W        W19916  14.311  33.203   3.656
48301W        W19917  38.875  30.637   1.414
48302W        W19918   4.915  13.406   1.533
48303W        W19919  18.085  40.475  14.992
48304W        W19920  34.324  12.335   0.870
48305W        W19921  11.743  42.360   2.584
48306W        W19922  33.058   8.647  12.894
48307W        W19923   2.410  21.671   5.420
48308W        W19924  18.574  43.694  12.444
48309W        W19925  10.102  13.834  13.427
48310W        W19926  40.069  10.770   0.260
48311W        W19927  44.265  36.636   2.222
48312W        W19928  29.550  40.189   2.738
48313W        W19929  43.435  13.941   2.452
48314W        W19930  41.850  13.151   1.659
48315W        W19931   3.473   1.909  12.279
48316W        W19932  32.162   6.289   1.454
48317W        W19933  25.386  14.064  14.688
48318W        W19934   5.192  38.797  10.912
48319W        W19935   4.214  20.721  14.478
48320W        W19936  28.284  20.460   2.580
48321W        W19937  35.981  19.762  13.964
48322W        W19938   3.836   6.006   1.688
48323W        W19939  27.662   0.893   2.336
48324W        W19940   7.099  16.098   4.308
48325W        W19941  36.755  38.507  11.642
48326W        W19942  31.028   2.386  14.967
48327W        W19943   7.010   0.231  11.210
48328W        W19944  13.517  22.744  12.957
48329W        W19945  35.550  16.627   4.091
48330W        W19946  40.613   2.282   0.358
48331W        W19947  32.563  10.610   4.704
48332W        W19948   6.016   2.668   1.414
48333W        W19949  17.234   4.409   1.473
48334W        W19950  30.436  19.115   2.929
48335W        W19951  31.224  39.585  11.210
48336W        W19952  11.872  28.741   2.105
48337W        W19953   0.302  36.275  12.838
48338W        W19954  15.224  25.099  14.699
48339W        W19955  15.199   4.329  12.334
48340W        W19956  17.797   0.219  12.475
48341W        W19957  16.694  10.598   4.070
48342W        W19958  24.285   6.660   1.294
48343W        W19959  40.454  13.530  14.393
48344W        W19960   8.875  11.429  10.321
48345W        W19961   3.942  29.491   4.925
48346W        W19962  14.197   0.766   4.488
48347W        W19963  44.690   4.465  14.478
48348W        W19964  28.571  16.305   0.706
48349W        W19965  13.124  42.387  11.231
48350W        W19966   6.722  30.590  11.644
48351W        W19967  17.824  26.406   0.846
48352W        W19968  22.109   7.959   2.182
48353W        W19969   0.432  41.372  13.284
48354W        W19970   3.876   0.869   9.792
48355W        W19971  18.059   3.338  13.290
48356W        W19972   6.137   0.298  14.684
48357W        W19973  24.458  16.772   3.226
48358W        W19974  44.529  30.641   1.779
48359W        W19975  42.804  19.493  14.368
48360W        W19976  43.841  34.429   9.918
48361W        W19977  22.216  19.024  14.598
48362W        W19978  39.554  23.432   2.934
48363W        W19979  43.179  41.263  10.738
48364W        W19980   7.203  22.487   1.754
48365W        W19981   5.048  33.796   1.916
48366W        W19982  28.276  16.778   4.654
48367W        W19983  20.732  42.937  12.601
48368W        W19984  11.145   0.324  12.297
48369W        W19985  26.524  35.437   3.254
48370W        W19986   0.935  43.351  11.709
48371W        W19987  25.031   5.954  12.914
48372W        W19988  32.571  11.278  12.368
48373W        W19989  20.395  44.606  10.332
48374W        W19990  20.305   8.201  11.545
48375W        W19991  14.066  28.287  13.382
48376W        W19992   6.134   9.875  11.110
48377W        W19993   8.291  41.919  13.438
48378W        W19994  15.235  37.327   4.252
48379W        W19995  22.631  13.193   1.390
48380W        W19996  23.150  24.014   4.520
48381W        W19997  16.547  26.548   0.319
48382W        W19998   1.761  34.564  10.835
48383W        W19999  29.497   5.134   1.904
48384W        W20000  35.353  39.288   2.205
48385W        W20001  30.751  21.987  11.669
48386W        W20002   8.306  17.004   2.367
48387W        W20003  36.527  24.469   3.654
48388W        W20004  22.512   5.779   1.384
48389W        W20005  19.163  38.117  10.549
48390W        W20006  33.359  38.405  12.635
48391W        W20007  39.627  31.098   4.503
48392W        W20008  37.986  25.996  10.771
48393W        W20009  17.691  10.407  14.281
48394W        W20010  29.711  34.472  12.790
48395W        W20011  39.844  22.000  11.668
48396W        W20012  17.792  43.633   5.499
48397W        W20013   5.762  37.258   4.007
48398W        W20014  18.253   3.820  11.113
48399W        W20015   5.567  28.455   3.299
48400W        W20016  17.623   2.193  10.630
48401W        W20017   6.787  39.482  10.756
48402W        W20018  14.106  26.143   3.598
48403W        W20019  18.803  20.734   4.660
48404W        W20020  34.270  31.695  14.135
48405W        W20021  12.651  27.201   0.724
48406W        W20022  40.025  18.622  14.966
48407W        W20023  30.044  35.007   2.828
48408W        W20024  28.061  26.530   0.450
48409W        W20025  43.321  35.189  11.553
48410W        W20026  31.468  39.559   4.495
48411W        W20027  19.222  12.300  11.423
48412W        W20028  22.195  12.404   1.245
48413W        W20029  23.565  11.951  12.794
48414W        W20030  36.462   8.257   1.866
48415W        W20031  42.974   4.596  13.038
48416W        W20032  28.564  38.425   0.765
48417W        W20033  19.588  17.176   3.672
48418W        W20034  25.174  12.386  12.073
48419W        W20035  35.469  18.643   2.757
48420W        W20036  40.718  38.146   2.865
48421W        W20037  39.563   4.493   0.950
48422W        W20038  39.535  24.036  11.532
48423W        W20039  33.818  26.502  10.918
48424W        W20040   3.857  44.342  14.856
48425W        W20041  31.508  29.087  10.990
48426W        W20042   2.733  16.422   1.337
48427W        W20043  42.563  44.965   1.201
48428W        W20044  10.872   2.240  11.521
48429W        W20045  30.400  10.702  12.073
48430W        W20046   7.692  26.427  10.358
48431W        W20047   9.478  26.024  11.006
48432W        W20048   5.793  35.072   4.555
48433W        W20049  21.667  32.326   4.876
48434W        W20050   6.367  29.953   0.262
48435W        W20051  18.577  22.747  14.549
48436W        W20052  14.692  17.003   0.525
48437W        W20053  37.519   9.459  10.717
48438W        W20054   0.552  18.571   4.535
48439W        W20055  29.867  27.296  12.360
48440W        W20056   2.733  40.596   2.887
48441W        W20057   9.086  28.616  13.114
48442W        W20058  32.486  27.993   1.021
48443W        W20059  16.133   3.853  14.582
48444W        W20060   6.364  15.324   2.297
48445W        W20061   6.017  12.142   1.242
48446W        W20062  27.760  31.178   1.918
48447W        W20063  21.092  20.087   5.141
48448W        W20064  18.992  39.108  14.076
48449W        W20065  22.597  39.921   1.912
48450W        W20066  37.506  25.034   3.313
48451W        W20067  37.751  16.015  12.455
48452W        W20068   7.204  29.417   0.787
48453W        W20069   6.873  27.887  14.251
48454W        W20070  23.777   8.810   3.080
48455W        W20071  37.496  13.692   4.702
48456W        W20072   1.319  21.216  12.617
48457W        W20073  11.106  14.716  14.185
48458W        W20074  25.498  21.315   4.969
48459W        W20075  44.454   1.989   2.575
48460W        W20076   2.487  20.069  11.153
48461W        W20077  43.264  42.457   1.721
48462W        W20078  28.708  24.077   1.341
48463W        W20079   0.792   1.825  13.968
48464W        W20080  13.698   6.452  11.958
48465W        W20081  25.549   3.240   2.364
48466W        W20082  36.398   4.273  11.968
48467W        W20083   8.712  30.649   1.418
48468W        W20084  39.907  33.054  14.296
48469W        W20085   6.072  21.539  13.437
48470W        W20086   8.342  40.300  10.475
48471W        W20087  15.729   8.188   4.752
48472W        W20088   9.644  34.569   2.706
48473W        W20089   3.502  23.606   2.421
48474W        W20090  25.607  10.782  12.484
48475W        W20091  30.974  28.055   2.401
48476W        W20092  40.464  39.091   0.244
48477W        W20093   2.210  31.947   3.148
48478W        W20094  12.602   8.563  12.934
48479W        W20095  42.485  37.398  14.345
48480W        W20096  25.222  18.890  10.724
48481W        W20097   5.713  29.818  13.968
48482W        W20098   4.728  40.586   3.754
48483W        W20099  11.705  32.666  11.204
48484W        W20100  32.848   4.277  11.954
48485W        W20101  17.499  27.108   1.886
48486W        W20102  10.468   4.424  13.397
48487W        W20103  40.888  24.048   3.707
48488W        W20104  22.765  38.377   4.100
48489W        W20105  27.382  28.124   4.211
48490W        W20106  37.701  42.051   0.679
48491W        W20107  13.610  40.575   2.641
48492W        W20108  35.890  39.790  13.953
48493W        W20109  17.351  18.780  13.875
48494W        W20110  31.393  39.880   2.788
48495W        W20111  32.156  23.264  11.128
48496W        W20112  18.399  24.229  12.138
48497W        W20113   7.564  37.121   1.216
48498W        W20114  30.228  33.980   2.345
48499W        W20115   2.989  23.862  12.879
48500W        W20116  11.100  36.942   3.159
48501W        W20117   8.422  30.241  11.995
48502W        W20118   4.528  33.499   2.774
48503W        W20119  37.096  16.845  14.387
48504W        W20120   4.870   9.382  11.444
48505W        W20121  28.160  34.447   3.108
48506W        W20122  11.394   3.477  12.661
48507W        W20123   0.457   0.870  10.601
48508W        W20124  16.643  21.181   2.335
48509W        W20125  24.397  30.132   1.237
48510W        W20126  23.494  26.299  12.489
48511W        W20127  30.929  41.482  11.258
48512W        W20128  26.686  24.239   0.909
48513W        W20129   3.262   8.341  13.497
48514W        W20130  41.829   5.832   3.382
48515W        W20131  16.015   7.077  14.455
48516W        W20132  24.410  15.106   4.204
48517W        W20133   6.845   8.228  12.431
48518W        W20134  14.104  41.413   3.898
48519W        W20135  37.482   0.873  12.401
48520W        W20136  30.516   4.397  11.458
48521W        W20137  36.931  24.131  14.423
48522W        W20138  24.547  37.119   2.175
48523W        W20139  20.995  18.976  14.869
48524W        W20140  26.585  33.147   1.845
48525W        W20141  44.831   5.487   2.828
48526W        W20142  12.759  40.507  11.920
48527W        W20143   5.245  12.626   2.287
48528W        W20144  28.172  14.017  14.006
48529W        W20145  34.277  34.680  13.067
48530W        W20146  15.788  18.575   1.943
48531W        W20147  41.679  11.404   0.401
48532W        W20148   2.756  29.715  13.095
48533W        W20149  18.589  19.954  14.187
48534W        W20150  32.397  44.994  13.577
48535W        W20151   7.995  21.263   0.964
48536W        W20152  28.155  26.730  13.156
48537W        W20153  41.963  32.718  11.575
48538W        W20154  36.639  23.248   4.825
48539W        W20155  13.767  42.496  14.381
48540W        W20156   0.895  40.226   4.844
48541W        W20157  39.915  34.053  12.880
48542W        W20158  13.856  25.284   2.289
48543W        W20159  24.763  12.109  11.927
48544W        W20160  39.068  29.970  12.515
48545W        W20161   7.199   8.497   3.493
48546W        W20162  30.834  43.866  13.897
48547W        W20163  13.540   3.695   0.956
48548W        W20164  28.698  29.667  12.045
48549W        W20165  31.064  20.406   3.710
48550W        W20166  41.947   6.809   1.864
48551W        W20167  44.876  38.952   2.280
48552W        W20168  16.640  43.861   1.481
48553W        W20169  38.670  21.924   0.358
48554W        W20170  28.094  39.534   1.262
48555W        W20171   6.282  39.670   4.902
48556W        W20172  31.012  14.992   3.128
48557W        W20173  34.607  10.079   1.195
48558W        W20174  22.271  17.219  13.964
48559W        W20175  33.945  31.429  14.454
48560W        W20176   5.344  29.432  11.869
48561W        W20177  18.036  39.774  14.469
48562W        W20178   4.236  24.892  14.793
48563W        W20179  11.676   8.119  13.327
48564W        W20180  18.514  23.541   5.227
48565W        W20181   8.663  27.716  11.348
48566W        W20182  28.124  26.786   2.794
48567W        W20183  37.328  18.038  13.964
48568W        W20184  12.730   8.679   3.868
48569W        W20185  17.105  19.674   2.424
48570W        W20186   7.898  15.345   3.108
48571W        W20187  22.747  11.820   5.020
48572W        W20188  43.398  41.921  14.439
48573W        W20189  44.320  14.180   1.141
48574W        W20190  33.064   9.486   3.103
48575W        W20191  38.410  30.083   0.865
48576W        W20192  12.769   2.930   1.329
48577W        W20193  28.427  11.846  12.047
48578W        W20194  12.760  39.534  12.428
48579W        W20195  29.194  15.531   9.648
48580W        W20196   5.954  15.694   1.305
48581W        W20197  19.771  32.034  13.058
48582W        W20198   7.934  32.985   0.407
48583W        W20199   2.368  35.148   3.297
48584W        W20200  36.892  11.751  12.399
48585W        W20201   7.600  38.475  14.800
48586W        W20202  41.250  36.408   0.738
48587W        W20203  30.554  29.084  11.936
48588W        W20204   0.539  27.999   0.728
48589W        W20205  13.413  25.394  10.677
48590W        W20206  33.395  22.074  11.177
48591W        W20207  17.058  12.840  14.893
48592W        W20208  13.312  18.026  13.955
48593W        W20209  41.014  32.562   0.256
48594W        W20210  20.088  30.861  13.325
48595W        W20211  30.652  38.320   0.278
48596W        W20212   6.640  23.245  13.091
48597W        W20213  25.087  38.369  11.966
48598W        W20214  22.213  31.915   0.661
48599W        W20215  18.721   9.220  11.252
48600W        W20216  38.918   6.946   3.809
48601W        W20217  30.534   2.441  10.466
48602W        W20218  39.839  30.419   3.046
48603W        W20219  11.506  42.231  13.489
48604W        W20220   0.548  35.608   4.574
48605W        W20221  31.849  24.487  11.607
48606W        W20222  19.813  30.655  14.413
48607W        W20223  13.641  17.190   4.125
48608W        W20224  16.759  18.046   2.122
48609W        W20225  15.149  20.015  11.187
48610W        W20226  39.581  23.087  13.031
48611W        W20227  12.162  32.598   0.724
48612W        W20228  29.645  30.106  12.353
48613W        W20229  26.243  29.208  12.938
48614W        W20230  44.806  13.212   1.860
48615W        W20231  44.039  29.556   0.991
48616W        W20232  38.399  16.600   0.030
48617W        W20233  40.180   1.306   1.509
48618W        W20234  11.402   9.384   2.730
48619W        W20235  39.140  18.279   2.403
48620W        W20236  18.616  28.961  11.433
48621W        W20237   2.279  23.241  12.244
48622W        W20238  14.241  29.597  11.085
48623W        W20239  11.078   4.987   3.155
48624W        W20240  33.099  23.347  10.859
48625W        W20241  39.335  40.604   2.149
48626W        W20242  33.613  42.087   5.078
48627W        W20243  13.388  36.524   4.283
48628W        W20244  43.971   7.253   1.305
48629W        W20245  36.792  25.509   2.609
48630W        W20246  44.696  16.154   4.504
48631W        W20247   7.703  30.086   2.923
48632W        W20248  34.026  42.788   0.896
48633W        W20249  43.321  19.504   4.597
48634W        W20250  35.187  16.107   1.618
48635W        W20251  41.309  12.556  10.745
48636W        W20252  37.942  12.580   0.951
48637W        W20253  21.469  27.636   1.403
48638W        W20254  12.346  31.321   3.147
48639W        W20255  24.442   5.800   2.454
48640W        W20256  15.792  27.055  14.104
48641W        W20257  33.067   3.795   1.143
48642W        W20258  23.595  35.419   3.323
48643W        W20259  24.017  40.428   4.482
48644W        W20260  42.509  44.181   2.812
48645W        W20261  19.116   0.702   2.280
48646W        W20262  39.060  23.723  13.586
48647W        W20263  30.975  24.205  12.579
48648W        W20264  18.685  11.122  12.068
48649W        W20265  38.995   2.329   1.799
48650W        W20266  12.647  36.621  12.410
48651W        W20267  26.204  38.605   4.555
48652W        W20268  13.203  15.432   0.635
48653W        W20269  28.625  20.511  14.367
48654W        W20270  12.210  24.448  12.430
48655W        W20271  16.470  11.362  12.030
48656W        W20272  11.253  44.344  12.599
48657W        W20273   7.137   3.218  14.511
48658W        W20274   0.325  24.036  11.007
48659W        W20275  10.659  41.883   4.681
48660W        W20276  29.503  24.104  11.176
48661W        W20277   8.257  25.660   2.420
48662W        W20278  23.009  37.863   0.306
48663W        W20279   8.294   8.244  10.411
48664W        W20280  26.940   3.980   0.210
48665W        W20281  29.395  28.553  10.633
48666W        W20282  40.841   6.897  12.458
48667W        W20283  32.932  38.595  13.047
48668W        W20284  10.605  12.829   2.874
48669W        W20285   9.802  33.336   2.779
48670W        W20286  32.057  13.601  11.538
48671W        W20287  27.576  28.341  12.813
48672W        W20288  18.303  28.178  12.375
48673W        W20289  11.811   6.829   0.529
48674W        W20290  21.513   8.637   3.151
48675W        W20291  30.372  37.920   3.579
48676W        W20292  19.225  26.922   3.218
48677W        W20293  43.111  34.497  12.205
48678W        W20294  27.605  12.083   4.476
48679W        W20295  32.554  22.234   3.765
48680W        W20296  26.244  33.473   0.937
48681W        W20297  33.637   4.794  11.988
48682W        W20298  44.324   0.996  13.245
48683W        W20299  43.439  22.622   0.539
48684W        W20300  32.135  42.359  13.435
48685W        W20301  23.910   7.666   0.450
48686W        W20302  42.598  29.455  14.926
48687W        W20303   2.276  25.994  13.636
48688W        W20304  26.678  11.406  13.411
48689W        W20305   7.130   6.486   0.918
48690W        W20306  25.001  19.834   4.581
48691W        W20307  24.606  21.459  12.525
48692W        W20308  32.231  33.143   0.331
48693W        W20309  16.210  23.303   1.425
48694W        W20310   0.516   7.807   0.884
48695W        W20311  42.578   2.714  14.290
48696W        W20312  31.467  26.097  12.226
48697W        W20313  34.195  26.833  11.068
48698W        W20314  12.113  24.001   2.605
48699W        W20315   5.052   4.933  12.193
48700W        W20316  36.097   3.811   1.516
48701W        W20317  26.918   1.374  11.774
48702W        W20318  43.339   7.856  12.101
48703W        W20319  39.780  33.375  10.730
48704W        W20320  20.084  10.666  13.639
48705W        W20321  32.822  39.498  12.144
48706W        W20322  25.512  31.435  13.996
48707W        W20323   0.897  15.404  14.789
48708W        W20324  22.176   0.307  12.516
48709W        W20325  34.591  35.522   1.945
48710W        W20326  42.945  16.782  13.394
48711W        W20327  27.619  31.541  14.783
48712W        W20328  36.389  26.593  12.306
48713W        W20329  20.015  12.215   3.668
48714W        W20330  36.055  36.167  14.979
48715W        W20331  25.455   4.757   4.693
48716W        W20332  43.661   2.955   2.933
48717W        W20333  32.812  38.827   4.119
48718W        W20334  14.221  34.302   0.455
48719W        W20335  24.508   3.912   0.284
48720W        W20336  43.802  42.236  12.440
48721W        W20337  31.904  16.759  12.000
48722W        W20338  29.490  38.434   0.834
48723W        W20339   4.899  33.415  12.141
48724W        W20340  33.988  39.593   4.765
48725W        W20341  40.030  31.017  11.181
48726W        W20342  26.107  27.825   4.844
48727W        W20343  27.500   6.608   4.777
48728W        W20344  21.675  29.169  14.924
48729W        W20345  20.254  44.516   0.830
48730W        W20346  24.730  34.134  11.985
48731W        W20347  21.208  16.681   1.684
48732W        W20348  19.226   9.004  12.513
48733W        W20349  39.166   1.470  13.086
48734W        W20350  19.602  23.097  11.680
48735W        W20351  39.175  13.116  14.948
48736W        W20352  17.699  42.300   0.540
48737W        W20353   4.812  30.140  13.844
48738W        W20354  44.195  22.673  12.076
48739W        W20355   0.876  23.271   2.419
48740W        W20356  37.502  25.351   4.782
48741W        W20357   2.741  10.781  12.883
48742W        W20358   3.020  29.773  12.156
48743W        W20359  23.184  14.053  12.435
48744W        W20360  24.255   1.483   0.751
48745W        W20361  39.370  43.742  11.098
48746W        W20362  25.933   1.753  12.600
48747W        W20363  43.151  30.927   3.470
48748W        W20364  25.625  11.811   4.068
48749W        W20365  22.539  25.224  12.999
48750W        W20366  20.004   6.693   2.340
48751W        W20367  28.226  17.430  14.806
48752W        W20368   9.265   0.514  14.750
48753W        W20369  34.837  26.487  13.940
48754W        W20370  11.693   2.469  14.767
48755W        W20371   8.949  19.093  13.928
48756W        W20372  38.810  33.054  10.989
48757W        W20373  41.736  34.009   4.665
48758W        W20374  15.620  38.345   0.479
48759W        W20375  36.310  30.996   2.810
48760W        W20376   6.757  35.612   2.579
48761W        W20377  29.909   8.803   1.326
48762W        W20378  14.121  41.920   3.789
48763W        W20379   6.382  14.079  11.268
48764W        W20380  27.938  22.427  13.843
48765W        W20381   7.899   3.510   4.961
48766W        W20382  32.570  41.054   3.686
48767W        W20383  14.369  34.627  11.112
48768W        W20384   4.958   0.448  14.027
48769W        W20385  42.543   2.467  11.640
48770W        W20386   2.428   9.177  14.772
48771W        W20387   6.856  16.662  14.366
48772W        W20388  27.237   4.777   2.828
48773W        W20389  40.072   7.825  10.745
48774W        W20390   9.167  36.099  13.036
48775W        W20391  26.828  28.018  10.313
48776W        W20392  33.420   3.230  10.634
48777W        W20393  14.697  38.871   1.412
48778W        W20394  26.991   9.819  11.910
48779W        W20395  37.201  27.004  13.152
48780W        W20396  25.214  20.266   2.395
48781W        W20397   2.179   3.425   4.582
48782W        W20398  13.809  15.209  13.291
48783W        W20399  33.310   6.964  11.041
48784W        W20400  24.954  27.966  11.078
48785W        W20401   6.272  29.028   1.366
48786W        W20402   0.201  19.985   0.469
48787W        W20403   6.645   4.031   1.860
48788W        W20404  17.009   5.762  14.694
48789W        W20405   8.268  41.098  10.958
48790W        W20406   5.832   3.838   3.627
48791W        W20407  39.498   9.144  10.591
48792W        W20408  39.985  15.238   0.382
48793W        W20409  43.643  14.396  11.793
48794W        W20410  16.824  13.106   3.315
48795W        W20411  22.544  40.761   1.984
48796W        W20412  17.036   3.291  12.819
48797W        W20413   7.201  16.866  12.979
48798W        W20414  20.463  30.468   3.740
48799W        W20415  42.737  32.353   0.260
48800W        W20416  39.933  25.989  13.934
48801W        W20417  38.601  29.282   1.449
48802W        W20418   3.194  42.017   3.769
48803W        W20419  39.587  44.972  11.932
48804W        W20420   1.597  14.199   3.281
48805W        W20421  23.728  15.656   1.256
48806W        W20422  16.781  25.417  11.552
48807W        W20423   1.216  30.463   4.556
48808W        W20424  10.858  30.380  10.915
48809W        W20425  32.602   3.021   1.698
48810W        W20426  18.608  43.987   3.149
48811W        W20427  23.623  21.478   2.691
48812W        W20428  40.568  30.308   2.310
48813W        W20429  24.307  10.753   4.720
48814W        W20430   9.339  12.246  14.986
48815W        W20431  22.086   7.500   3.499
48816W        W20432  38.060  24.172   1.764
48817W        W20433  25.719   5.955  11.504
48818W        W20434   1.318  44.699  12.390
48819W        W20435  23.768  42.048   0.749
48820W        W20436  29.668  21.415   0.556
48821W        W20437  11.663  11.164   3.220
48822W        W20438   8.683  28.511   1.790
48823W        W20439  41.359  11.964   3.376
48824W        W20440  21.392  32.396  12.465
48825W        W20441  32.063  16.325  10.779
48826W        W20442  22.495  28.644   3.656
48827W        W20443  39.248   9.870   3.589
48828W        W20444  39.481   0.469   3.910
48829W        W20445   0.122  33.870  12.977
48830W        W20446   2.229  14.181  10.236
48831W        W20447  28.039  11.728  10.067
48832W        W20448  29.037  43.904   0.641
48833W        W20449  36.263   8.275   1.352
48834W        W20450  43.799  21.415   4.146
48835W        W20451  24.612   7.906   1.409
48836W        W20452  37.843  29.671  14.777
48837W        W20453  12.565  19.956  12.555
48838W        W20454  21.306   9.861   4.227
48839W        W20455  34.542   1.225  10.299
48840W        W20456  26.523  21.428   4.098
48841W        W20457  30.559   1.873  13.011
48842W        W20458  21.732   4.391   2.568
48843W        W20459  10.347  20.340   1.894
48844W        W20460  18.116   1.908   0.392
48845W        W20461  39.257   4.923   2.876
48846W        W20462  41.484   9.146   1.436
48847W        W20463   5.747   3.432  14.531
48848W        W20464  32.524  26.472  11.584
48849W        W20465  35.141  10.134  11.023
48850W        W20466   3.437   0.721  14.021
48851W        W20467  18.287  26.416  12.027
48852W        W20468  43.929  22.771  11.211
48853W        W20469  37.109  29.045   4.330
48854W        W20470  11.419  13.271   4.549
48855W        W20471   9.907  38.678  13.174
48856W        W20472  18.235  36.083   3.733
48857W        W20473   1.270  33.958  11.918
48858W        W20474  12.230  24.987   0.062
48859W        W20475  30.611  28.601  12.077
48860W        W20476   8.423  23.281  14.966
48861W        W20477  25.999  39.020  12.030
48862W        W20478  21.070  13.625   4.242
48863W        W20479   8.066  19.600  13.814
48864W        W20480  33.988  25.998   4.615
48865W        W20481  10.035  29.196  14.516
48866W        W20482   1.657  22.568  11.070
48867W        W20483  14.351   8.484  11.179
48868W        W20484  44.358  21.273  13.916
48869W        W20485  16.597  41.843   2.152
48870W        W20486  36.980  16.185  12.834
48871W        W20487  29.831  23.197   2.439
48872W        W20488  42.848  15.513  11.525
48873W        W20489   8.632   3.162   3.767
48874W        W20490  16.123  20.144  13.585
48875W        W20491   5.277  44.240  10.635
48876W        W20492  41.219  42.035  11.725
48877W        W20493  36.105  43.694  13.292
48878W        W20494   2.432  26.935   3.292
48879W        W20495  12.520  37.890   2.312
48880W        W20496  10.351  13.742  10.455
48881W        W20497  13.387  37.310   2.178
48882W        W20498   3.389   3.739  13.983
48883W        W20499  23.062  35.356  11.012
48884W        W20500  41.321  33.857  11.346
48885W        W20501  36.913  40.807  13.359
48886W        W20502  27.376  44.988  12.019
48887W        W20503  43.105  23.528   1.626
48888W        W20504  13.627  30.378   1.687
48889W        W20505  22.629  34.305   4.674
48890W        W20506  20.581  18.246  10.203
48891W        W20507  29.683   0.342   4.621
48892W        W20508  41.386  23.906  11.918
48893W        W20509  32.122  10.891   1.888
48894W        W20510  39.940  25.412   1.817
48895W        W20511  38.627  35.232  14.209
48896W        W20512   9.102  42.547   0.372
48897W        W20513  26.294  18.001  12.936
48898W        W20514  21.022   7.002  14.992
48899W        W20515  29.180  31.925   4.070
48900W        W20516  36.854   4.780   2.752
48901W        W20517  11.391   3.276  13.659
48902W        W20518   5.171  31.648   2.860
48903W        W20519  18.762   7.775  13.035
48904W        W20520  19.671  17.024  14.912
48905W        W20521   1.227  17.581  11.035
48906W        W20522  11.337  43.867  10.662
48907W        W20523  28.723  25.954   4.111
48908W        W20524   6.599  38.589   0.016
48909W        W20525  33.880  41.266   3.774
48910W        W20526  39.526  11.207   2.260
48911W        W20527  35.303  26.797  14.046
48912W        W20528  41.130   4.292  14.866
48913W        W20529  17.570   9.692   2.574
48914W        W20530  37.826  34.693   0.739
48915W        W20531   1.079   2.930  13.266
48916W        W20532  19.957  33.937  14.399
48917W        W20533  15.676  25.702   4.167
48918W        W20534  35.493  14.267   1.237
48919W        W20535  42.040   4.689   4.357
48920W        W20536  32.919   9.060   5.216
48921W        W20537  31.763  17.500  12.408
48922W        W20538  21.289  11.814   2.775
48923W        W20539  43.815   3.354   0.444
48924W        W20540   0.546  12.247   1.439
48925W        W20541  33.357  18.811   3.441
48926W        W20542  17.984  12.222   2.231
48927W        W20543   2.296  36.636   2.202
48928W        W20544  19.784  32.448   3.140
48929W        W20545  11.248  41.148   0.013
48930W        W20546   4.134  36.905  11.026
48931W        W20547  14.908  10.434   1.358
48932W        W20548  17.477  31.157  10.773
48933W        W20549   9.288  30.951   0.883
48934W        W20550   5.116  30.846  11.053
48935W        W20551  32.571  20.254  11.876
48936W        W20552  18.655  21.500  11.652
48937W        W20553  41.478  28.916  14.000
48938W        W20554  36.882  36.297   2.164
48939W        W20555  16.128  44.635  10.253
48940W        W20556  33.906   7.982  12.085
48941W        W20557  31.045  14.020  11.596
48942W        W20558  42.568  16.207  12.500
48943W        W20559  20.033  42.066  14.382
48944W        W20560   4.981  29.629  14.511
48945W        W20561  29.457  37.894  10.650
48946W        W20562  35.370  20.147  14.791
48947W        W20563  40.619  33.569  12.643
48948W        W20564  43.819  43.014   4.090
48949W        W20565  20.585  43.316  10.444
48950W        W20566  32.076  27.185   1.141
48951W        W20567  39.885  37.290  13.718
48952W        W20568  15.098   7.404  10.731
48953W        W20569  34.604  15.672  14.764
48954W        W20570   2.239  16.072   0.673
48955W        W20571  43.767  32.205  11.942
48956W        W20572  15.699  28.463  11.890
48957W        W20573   9.200  25.735   0.202
48958W        W20574  21.527  34.962  10.730
48959W        W20575  22.322  19.635  11.184
48960W        W20576  36.411  31.842  13.048
48961W        W20577  34.298  37.933   3.118
48962W        W20578  40.098  20.799   2.853
48963W        W20579  36.016  32.301   3.151
48964W        W20580  38.665  23.851   1.263
48965W        W20581  32.090  43.595   4.571
48966W        W20582  11.385  38.710   4.257
48967W        W20583   9.726   2.938   4.731
48968W        W20584  23.512   2.279   1.620
48969W        W20585  23.038  29.981   0.645
48970W        W20586   3.755  11.852  13.428
48971W        W20587  41.520  30.562  10.773
48972W        W20588  40.981  30.052  12.980
48973W        W20589  17.650  37.501   1.834
48974W        W20590  41.546  21.024  14.405
48975W        W20591  17.060   3.800   3.294
48976W        W20592  29.273   6.041   1.705
48977W        W20593  27.659   8.163  12.394
48978W        W20594  18.504  16.707  13.364
48979W        W20595  22.023  12.109  14.301
48980W        W20596  33.629  15.641   3.702
48981W        W20597  32.611  44.070  12.589
48982W        W20598   3.315  21.962  14.310
48983W        W20599  40.997  12.064   0.908
48984W        W20600  13.398  13.553   3.653
48985W        W20601  19.262  27.082  14.404
48986W        W20602   1.822  30.601  13.356
48987W        W20603  22.160  43.020   2.714
48988W        W20604  24.135  31.653  14.874
48989W        W20605  14.849  12.765  13.071
48990W        W20606  18.034  19.699  14.781
48991W        W20607  34.341  32.150  14.484
48992W        W20608  41.380   7.309  12.895
48993W        W20609  33.269  19.409  14.134
48994W        W20610  12.331  42.347   2.408
48995W        W20611  38.360  44.351  10.523
48996W        W20612  27.331  33.629  12.791
48997W        W20613  35.914  43.304  13.571
48998W        W20614  10.801  27.645   3.385
48999W        W20615  29.193  32.104  12.565
49000W        W20616  41.300   8.603  10.936
49001W        W20617  18.175  36.784   2.253
49002W        W20618  26.316   7.239  13.760
49003W        W20619  25.195  24.303  14.748
49004W        W20620  29.013  28.656   4.281
49005W        W20621  13.604   7.102   0.053
49006W        W20622  13.370  22.946  12.500
49007W        W20623  36.973  15.559  10.325
49008W        W20624  13.390  19.559   3.696
49009W        W20625   6.211   2.409   3.823
49010W        W20626  43.006  26.986   1.192
49011W        W20627  40.997  19.426  11.189
49012W        W20628  16.094  29.199   4.523
49013W        W20629  12.892  13.481   0.687
49014W        W20630  28.161  16.049   2.556
49015W        W20631  18.255  13.859  14.837
49016W        W20632  41.861  44.654  14.022
49017W        W20633  23.696   1.302   0.031
49018W        W20634  14.289  11.169  14.148
49019W        W20635  43.882  41.276   2.764
49020W        W20636  43.846  14.940   4.450
49021W        W20637  42.856  10.165  13.816
49022W        W20638   4.147   3.834   1.605
49023W        W20639  30.565  32.332  13.342
49024W        W20640  12.783  30.909   2.721
49025W        W20641  35.527  31.631  13.774
49026W        W20642  13.226  29.010  14.289
49027W        W20643  30.581  14.765   3.714
49028W        W20644  29.095   5.678   0.741
49029W        W20645  30.180  20.014  12.965
49030W        W20646  35.460   8.931   4.166
49031W        W20647  28.675  40.545  12.444
49032W        W20648   5.340  24.772   5.010
49033W        W20649  39.841  13.689   2.840
49034W        W20650  14.830  40.973  14.352
49035W        W20651  38.448  11.068  11.950
49036W        W20652  10.067  18.484   9.871
49037W        W20653   1.708   6.856   0.956
49038W        W20654  19.496  26.562  13.308
49039W        W20655  20.821  44.540   5.033
49040W        W20656   1.421   1.501   4.526
49041W        W20657  17.658  44.984  11.083
49042W        W20658   3.840  39.372  14.517
49043W        W20659  23.762  28.026  13.528
49044W        W20660  13.315  39.371  13.764
49045W        W20661   6.502  28.926   0.311
49046W        W20662  39.452   2.318  14.992
49047W        W20663  37.918  33.063  13.556
49048W        W20664  38.174   7.345   1.918
49049W        W20665  41.957  16.416   4.934
49050W        W20666  32.441  28.028  13.921
49051W        W20667   1.445  26.213   1.628
49052W        W20668  12.872   3.479  12.078
49053W        W20669  37.339  44.453  11.634
49054W        W20670   8.842  14.103  10.094
49055W        W20671  14.843  20.643   0.737
49056W        W20672  29.927  25.561   1.380
49057W        W20673  12.967  15.211   4.601
49058W        W20674  33.747  33.502   3.774
49059W        W20675  32.431   9.508   2.594
49060W        W20676  41.977   9.815  14.869
49061W        W20677  30.803  41.850   1.348
49062W        W20678  20.847  34.618  10.862
49063W        W20679   3.775  27.611   3.109
49064W        W20680  27.013  16.099  11.160
49065W        W20681   3.001  42.500  12.185
49066W        W20682  39.189   3.519   4.569
49067W        W20683   4.749  22.708  13.585
49068W        W20684  10.344  22.109   2.329
49069W        W20685  37.770  19.308   0.267
49070W        W20686  43.292  20.050  11.441
49071W        W20687   6.707  23.112  14.982
49072W        W20688   8.281  31.238  13.004
49073W        W20689   6.093  10.050  11.623
49074W        W20690  30.693  44.684  11.559
49075W        W20691  33.408  43.542  10.668
49076W        W20692   8.251   5.846   0.285
49077W        W20693  33.782  34.487   1.420
49078W        W20694  28.059  20.944  13.816
49079W        W20695  20.020  31.457  11.155
49080W        W20696   9.328  38.019   4.315
49081W        W20697  24.436   3.327   0.498
49082W        W20698  31.546  26.388  14.899
49083W        W20699  29.904  24.694   2.329
49084W        W20700  29.025  42.077   1.169
49085W        W20701   8.720   2.071   0.686
49086W        W20702  27.085  17.569  13.993
49087W        W20703  22.008  28.172  12.408
49088W        W20704  41.508  35.087   2.416
49089W        W20705   1.772  13.583  11.550
49090W        W20706  32.114  39.162  13.164
49091W        W20707  23.158  33.193   2.561
49092W        W20708   7.219  23.477  12.018
49093W        W20709   2.022   9.666   0.844
49094W        W20710   3.784  34.512   0.632
49095W        W20711  14.099  20.154   0.833
49096W        W20712  38.590  32.044   1.311
49097W        W20713  29.444   1.389   4.196
49098W        W20714  19.486   8.226  11.896
49099W        W20715  15.867   9.397  13.821
49100W        W20716  20.278  30.680   4.230
49101W        W20717  13.766  37.902  14.436
49102W        W20718  38.334  41.303  10.586
49103W        W20719  35.592  35.985  11.948
49104W        W20720  28.814  15.147   2.942
49105W        W20721  10.433  34.168   0.752
49106W        W20722  18.990   4.247   2.944
49107W        W20723  27.366  26.444  12.543
49108W        W20724  42.069  26.363   0.487
49109W        W20725  14.111  15.772   2.780
49110W        W20726   1.544   7.249  12.564
49111W        W20727  25.656  19.984  11.174
49112W        W20728   3.712  16.159   0.578
49113W        W20729  19.850  26.801   2.623
49114W        W20730  30.371  13.833  14.786
49115W        W20731   6.241   3.482  14.690
49116W        W20732   0.883  20.802  12.976
49117W        W20733   6.809  35.012   1.298
49118W        W20734  18.612  14.620   2.794
49119W        W20735  22.193  17.075   3.111
49120W        W20736  29.631   7.688   0.800
49121W        W20737   6.447  18.969   1.269
49122W        W20738   1.315  16.686  10.777
49123W        W20739  43.207  29.679  13.510
49124W        W20740  24.477  16.188   1.510
49125W        W20741   6.896  39.122   2.409
49126W        W20742  15.579  38.952  12.496
49127W        W20743  15.688  33.238   3.813
49128W        W20744  34.916   8.869   3.877
49129W        W20745  42.083  34.542   0.335
49130W        W20746  39.909  13.701  13.385
49131W        W20747  11.857  32.926   3.568
49132W        W20748  15.632  16.606   2.928
49133W        W20749  42.843  37.357  13.075
49134W        W20750  34.203   3.020   1.329
49135W        W20751  10.176   9.801   1.581
49136W        W20752  27.474  44.616  12.380
49137W        W20753  42.895  21.985  13.997
49138W        W20754  31.654  39.925  10.481
49139W        W20755  22.706  34.434  14.401
49140W        W20756   8.287  10.412   4.669
49141W        W20757  41.865  38.581   1.449
49142W        W20758  13.432  38.387   0.848
49143W        W20759  18.619  25.630  14.949
49144W        W20760   1.602  29.713   4.113
49145W        W20761   9.954  18.581  10.395
49146W        W20762  34.811  34.132  11.972
49147W        W20763  27.612  14.486   1.294
49148W        W20764   9.240   5.166   0.261
49149W        W20765  32.077  21.070  12.577
49150W        W20766  29.730  14.019  12.082
49151W        W20767  18.472  44.267  10.283
49152W        W20768  29.220  26.171   4.154
49153W        W20769  27.595  43.467   2.160
49154W        W20770   7.178  25.671  14.872
49155W        W20771   8.304  38.009  11.920
49156W        W20772  19.744  22.093   0.450
49157W        W20773   0.760  36.480  12.609
49158W        W20774  10.842   0.704   1.591
49159W        W20775  36.883  37.417   0.682
49160W        W20776  34.884   7.836   0.855
49161W        W20777  19.857  25.440  12.058
49162W        W20778  44.740  17.431  14.396
49163W        W20779   8.249  10.873   0.977
49164W        W20780   3.090  36.968  13.455
49165W        W20781   9.384  33.904  12.856
49166W        W20782   4.728  12.976  13.608
49167W        W20783   3.902  27.287   4.076
49168W        W20784   4.502  43.316   1.417
49169W        W20785  11.042  42.867  14.171
49170W        W20786  32.212  44.415   3.430
49171W        W20787  39.713  30.579  11.122
49172W        W20788  21.653  25.712  13.194
49173W        W20789  28.104   3.095   5.075
49174W        W20790  17.485  21.712   0.712
49175W        W20791  25.801  36.549  10.625
49176W        W20792   7.645   0.744  12.422
49177W        W20793  34.299  44.260  11.953
49178W        W20794   0.510  19.164  13.789
49179W        W20795   1.554  31.658   0.538
49180W        W20796  42.418   9.202  11.428
49181W        W20797  30.373  28.655  11.604
49182W        W20798  34.162  16.821   4.250
49183W        W20799  38.090  40.869  13.795
49184W        W20800  26.714   3.908   1.758
49185W        W20801  44.175   7.173  10.923
49186W        W20802  29.103  25.555   0.803
49187W        W20803  11.671  28.211  11.123
49188W        W20804  16.268  32.604   1.435
49189W        W20805  12.800  24.465  11.991
49190W        W20806  29.927   2.697   0.813
49191W        W20807  35.218   0.870   0.692
49192W        W20808   0.354  20.722  12.876
49193W        W20809  42.876  10.100   3.115
49194W        W20810  26.139  27.858  12.571
49195W        W20811  28.109  29.405  10.711
49196W        W20812   3.029  32.677   0.824
49197W        W20813  27.986  35.535  11.680
49198W        W20814  21.908  38.002   1.302
49199W        W20815  35.498  32.885   2.774
49200W        W20816  44.971   8.578   4.568
49201W        W20817  43.323  32.998   2.020
49202W        W20818  17.755  25.293   1.612
49203W        W20819   7.704  37.351   0.758
49204W        W20820   6.290  19.513   4.667
49205W        W20821  16.781  34.617  13.364
49206W        W20822  13.759  33.133   2.917
49207W        W20823  29.652   4.456  11.116
49208W        W20824  31.893  25.397  12.556
49209W        W20825  28.752  36.493  12.892
49210W        W20826  34.771   8.921  13.969
49211W        W20827  25.092  29.203   4.884
49212W        W20828  23.174   7.707  12.977
49213W        W20829  25.519   0.581  11.035
49214W        W20830  18.556  19.034   4.157
49215W        W20831  34.628  19.583   0.932
49216W        W20832  19.187  44.291  10.615
49217W        W20833  44.514  22.759  11.649
49218W        W20834  35.365  28.562   0.438
49219W        W20835  10.599  31.593   3.990
49220W        W20836  41.120  21.112  11.634
49221W        W20837   8.435  21.233   1.939
49222W        W20838   5.259  35.748  12.190
49223W        W20839  22.299  36.423   4.193
49224W        W20840  12.169  24.457   2.807
49225W        W20841  36.535  34.357   4.385
49226W        W20842  31.393  38.449   3.989
49227W        W20843  30.023  16.227   4.586
49228W        W20844  39.426  15.824  12.029
49229W        W20845  34.629   2.388   4.335
49230W        W20846  35.585  14.797   3.718
49231W        W20847   9.999  28.023  10.552
49232W        W20848   1.933  22.196   0.642
49233W        W20849   7.627  40.244   4.548
49234W        W20850  31.673  20.216   2.906
49235W        W20851  38.652   0.289  11.570
49236W        W20852   8.147  33.082  14.029
49237W        W20853  37.152  12.865   9.863
49238W        W20854   8.638  32.555  11.977
49239W        W20855  24.721  14.232  13.516
49240W        W20856  17.555  27.632  13.434
49241W        W20857  38.443  29.483  10.444
49242W        W20858   1.878  40.499   0.222
49243W        W20859  28.563  22.245  11.619
49244W        W20860  30.589   3.736   3.221
49245W        W20861  36.003  44.502   1.816
49246W        W20862  38.607  29.599   3.866
49247W        W20863  40.424  32.923  10.406
49248W        W20864  32.297  19.901   0.895
49249W        W20865  19.691  20.536   0.594
49250W        W20866  43.990  14.561  12.639
49251W        W20867  13.745  14.751   4.540
49252W        W20868  40.527  30.750  13.419
49253W        W20869  30.853  22.889  10.138
49254W        W20870  25.966   4.687  11.432
49255W        W20871  35.480  44.653   2.220
49256W        W20872  35.718  25.480  13.971
49257W        W20873  23.130  17.574  11.069
49258W        W20874  28.064   6.441  11.687
49259W        W20875  12.566  38.194   4.317
49260W        W20876  13.999  43.861  14.418
49261W        W20877   8.383   4.036   2.413
49262W        W20878  37.403  37.266   2.871
49263W        W20879  17.727  38.880  10.404
49264W        W20880  27.206  40.359   1.223
49265W        W20881   5.164  11.990   2.200
49266W        W20882  21.681  44.832   1.471
49267W        W20883  41.310  23.227   1.746
49268W        W20884  39.677   3.369  12.399
49269W        W20885  22.153  25.017   3.562
49270W        W20886  25.151  35.082   2.027
49271W        W20887  38.742  44.240   0.930
49272W        W20888  11.627  22.690  12.792
49273W        W20889  28.991  31.046   3.365
49274W        W20890  17.782  10.108  13.868
49275W        W20891  31.983  30.187  14.322
49276W        W20892  39.298  35.285   1.381
49277W        W20893  23.194  40.721   3.641
49278W        W20894  43.482   1.044   1.828
49279W        W20895  34.890  37.831  14.867
49280W        W20896  43.815   5.387  12.064
49281W        W20897  26.946  39.369  11.301
49282W        W20898   8.881  32.149   0.342
49283W        W20899  12.151  16.174  14.971
49284W        W20900   6.755  35.816  13.541
49285W        W20901  39.796  24.769   4.070
49286W        W20902   6.207  35.640   2.614
49287W        W20903   5.621  37.486   3.259
49288W        W20904  27.068  37.759   2.644
49289W        W20905  35.481  30.438  14.762
49290W        W20906  33.655  15.204  14.989
49291W        W20907  16.686  24.926   0.728
49292W        W20908  25.797  35.854   1.733
49293W        W20909  44.461   2.410   2.934
49294W        W20910  16.587  25.532   3.619
49295W        W20911  40.108  13.421   3.227
49296W        W20912   9.202  13.266   2.214
49297W        W20913   6.962   6.527   2.854
49298W        W20914  25.009  24.547   3.794
49299W        W20915  42.129  28.624   2.376
49300W        W20916  42.501  18.607   1.275
49301W        W20917  21.686  32.943   4.202
49302W        W20918  23.160  17.329  13.076
49303W        W20919  39.986  16.247  14.474
49304W        W20920  14.410  18.123   5.098
49305W        W20921   2.935   8.659   4.812
49306W        W20922  30.557  34.828   0.376
49307W        W20923  43.951  34.562  10.888
49308W        W20924   6.948   0.813   4.577
49309W        W20925  15.629  44.202  12.841
49310W        W20926  14.876  41.086   0.961
49311W        W20927  13.966  39.534  11.107
49312W        W20928  30.206   4.959  14.746
49313W        W20929  10.666  21.557   1.682
49314W        W20930  40.373  17.975  14.276
49315W        W20931  30.146  28.422   4.918
49316W        W20932  29.634  28.157   4.128
49317W        W20933  24.312  21.143  11.560
49318W        W20934  20.536  10.710  12.521
49319W        W20935  31.901  35.726  10.562
49320W        W20936  28.653  28.489   3.255
49321W        W20937  25.720  26.037  14.335
49322W        W20938  35.463  11.796  13.929
49323W        W20939  20.163   6.592  14.792
49324W        W20940   8.820  21.531   1.688
49325W        W20941  40.755  34.591   2.079
49326W        W20942  27.478  23.261  13.064
49327W        W20943  18.968   2.858   2.381
49328W        W20944  18.535  39.878  14.386
49329W        W20945  30.279   1.314   4.538
49330W        W20946   9.635  44.400   0.218
49331W        W20947  26.921  42.766   4.626
49332W        W20948   0.277   8.120   2.196
49333W        W20949  22.403  44.787  13.093
49334W        W20950  39.799  44.535   0.268
49335W        W20951  28.025  16.223  13.299
49336W        W20952   3.170  43.093   4.523
49337W        W20953   5.023  39.712  14.720
49338W        W20954  18.088  24.103   0.967
49339W        W20955  28.545   6.168  12.563
49340W        W20956  44.021  26.141  14.594
49341W        W20957  22.490   4.498  14.357
49342W        W20958  36.016  17.275  11.455
49343W        W20959   0.554  41.789  12.989
49344W        W20960  25.247  33.142  14.257
49345W        W20961  15.235  43.464  11.899
49346W        W20962  33.473  32.866   0.896
49347W        W20963   5.639  10.606   4.150
49348W        W20964   9.329   4.315  13.956
49349W        W20965   1.784  20.757   1.205
49350W        W20966  21.007  22.482  14.812
49351W        W20967  33.043  25.647  14.405
49352W        W20968  31.522  37.441  10.712
49353W        W20969  21.432  27.667  14.330
49354W        W20970  19.066  28.033   2.737
49355W        W20971  26.209   1.515   3.327
49356W        W20972  39.062  44.193   5.119
49357W        W20973  34.958   4.192   4.371
49358W        W20974  27.543  35.749   0.151
49359W        W20975   8.968  30.708  13.581
49360W        W20976  28.007  35.374  14.305
49361W        W20977   8.348  33.249   1.605
49362W        W20978  33.063   4.255   2.161
49363W        W20979  37.423  43.218  14.497
49364W        W20980  29.696  40.587   0.031
49365W        W20981  24.995  44.021  10.719
49366W        W20982  22.752   2.404   3.388
49367W        W20983  22.685  28.421   1.414
49368W        W20984  27.882  30.537   5.101
49369W        W20985  21.816   9.758  12.177
49370W        W20986  39.944   0.133   4.808
49371W        W20987   3.219  37.080   0.816
49372W        W20988  41.822  24.938  12.418
49373W        W20989  33.677  15.693  14.846
49374W        W20990  28.886  35.719  10.625
49375W        W20991  27.500  19.918  11.104
49376W        W20992  15.280  31.901   4.991
49377W        W20993  18.711   4.101   3.365
49378W        W20994  42.353  40.622   3.648
49379W        W20995   5.499  42.229   1.685
49380W        W20996  30.651  33.581  11.461
49381W        W20997  28.935  32.138  14.281
49382W        W20998  13.243  42.037  12.888
49383W        W20999  31.390  22.122  14.798
49384W        W21000  37.883   6.788  13.829
49385W        W21001  17.595   3.864  11.879
49386W        W21002  21.365  40.990  13.825
49387W        W21003  19.763  24.776   3.196
49388W        W21004  25.042  11.368   3.095
49389W        W21005  40.499  23.603   2.740
49390W        W21006  34.341  19.468   2.646
49391W        W21007  34.980  22.209   1.964
49392W        W21008  44.669  19.702  12.029
49393W        W21009  44.689  40.546   0.200
49394W        W21010  21.569  38.134  12.562
49395W        W21011  44.893  13.242   3.204
49396W        W21012   3.632  15.857  13.831
49397W        W21013   4.713   4.015  11.974
49398W        W21014  25.031  43.388   2.927
49399W        W21015  13.173  27.839   1.184
49400W        W21016  31.886  41.402  13.456
49401W        W21017  17.843  16.030   4.152
49402W        W21018  21.968  18.172  11.645
49403W        W21019  10.177  15.741  10.613
49404W        W21020  21.782  34.357   2.783
49405W        W21021   0.024  41.320   3.272
49406W        W21022  11.420  13.865   0.750
49407W        W21023  24.119  34.965   1.969
49408W        W21024  10.729   7.416  13.389
49409W        W21025   6.032   0.501  13.802
49410W        W21026  26.892  33.081   0.916
49411W        W21027   2.870  37.117   3.579
49412W        W21028  18.704   3.969  13.245
49413W        W21029  40.324  44.708  10.654
49414W        W21030  23.759  30.191  11.164
49415W        W21031  30.675  22.735   1.303
49416W        W21032   7.258   5.954  14.372
49417W        W21033  41.392  38.825   1.366
49418W        W21034  10.910   2.749  13.730
49419W        W21035  44.023  26.265  13.079
49420W        W21036  19.440  22.923   0.893
49421W        W21037  39.545  39.968   2.796
49422W        W21038  32.002   3.452  11.580
49423W        W21039   0.203  44.565  11.662
49424W        W21040  32.149  37.437   4.790
49425W        W21041  37.618  14.744   3.215
49426W        W21042  12.164  18.111  11.990
49427W        W21043  32.625  11.723  14.430
49428W        W21044  22.970  16.773  11.200
49429W        W21045  12.966  25.668  10.678
49430W        W21046  26.584  23.559   3.739
49431W        W21047  19.727  19.780   1.016
49432W        W21048  34.977  43.236  13.804
49433W        W21049   8.199  35.017   1.269
49434W        W21050  16.278  40.725   2.662
49435W        W21051  33.910   5.731   2.804
49436W        W21052   8.721  28.060   0.975
49437W        W21053   3.092   2.397  14.462
49438W        W21054  15.644  43.708  11.197
49439W        W21055  23.643   3.649  14.338
49440W        W21056  38.115  13.216  12.426
49441W        W21057   2.016  10.470  14.322
49442W        W21058   1.002  12.331  10.300
49443W        W21059  14.679  14.758   0.465
49444W        W21060   7.379  35.119   3.939
49445W        W21061  37.941  35.824  11.953
49446W        W21062   7.759  13.287   0.925
49447W        W21063  34.637  32.975  13.489
49448W        W21064  13.129   6.717  14.004
49449W        W21065  30.952   2.658   2.676
49450W        W21066  21.084   6.482  12.199
49451W        W21067  29.358  12.854  12.954
49452W        W21068  43.974  36.079   1.285
49453W        W21069  17.525   7.176   4.149
49454W        W21070  27.152   1.601   5.100
49455W        W21071  40.119  39.444   0.397
49456W        W21072  29.016  14.663  10.669
49457W        W21073  24.024  41.000  13.376
49458W        W21074  17.496  36.528  11.090
49459W        W21075  26.018  26.023   1.125
49460W        W21076  34.332  40.543   4.105
49461W        W21077   4.320   1.863   0.675
49462W        W21078   2.740  44.518  13.568
49463W        W21079  35.120   5.364   0.465
49464W        W21080  39.464   0.685   0.992
49465W        W21081  31.863   4.161   3.233
49466W        W21082  19.234   4.508   3.333
49467W        W21083  22.994   7.718  12.030
49468W        W21084   4.361  31.798  14.455
49469W        W21085  41.314   3.775  10.543
49470W        W21086  34.534  28.894  12.017
49471W        W21087  37.369  24.137   3.898
49472W        W21088   5.939  13.944   4.314
49473W        W21089  22.721  13.718  12.329
49474W        W21090  25.122  19.524   2.788
49475W        W21091  19.865   3.848   3.618
49476W        W21092   2.979  24.832   1.276
49477W        W21093  42.386  39.305   3.371
49478W        W21094  31.859  39.789  14.427
49479W        W21095   5.011  38.178  10.189
49480W        W21096  14.202  27.997   3.742
49481W        W21097  17.224  14.617  13.428
49482W        W21098  36.633  21.399   4.197
49483W        W21099  37.974  20.184   0.225
49484W        W21100  10.785  29.560   3.707
49485W        W21101   2.468  39.219  11.079
49486W        W21102  42.960  23.751  10.746
49487W        W21103   4.815  20.276   5.017
49488W        W21104  22.179  38.504   2.842
49489W        W21105  17.282  44.011  12.131
49490W        W21106  14.008   3.867   0.063
49491W        W21107  23.213  13.062   3.583
49492W        W21108  43.517   7.782  13.084
49493W        W21109  24.236  15.927  12.060
49494W        W21110  33.614  14.821   2.829
49495W        W21111   0.882   6.625  10.269
49496W        W21112  40.908   3.730  11.491
49497W        W21113  26.991  42.517   2.521
49498W        W21114  28.005   8.724   0.445
49499W        W21115  44.559  44.780   1.351
49500W        W21116   6.645  29.553   4.120
49501W        W21117  38.060  22.720   0.713
49502W        W21118  18.134  11.764  10.498
49503W        W21119  38.760  22.115  14.895
49504W        W21120   0.753  15.887  14.867
49505W        W21121  16.339  30.412  14.585
49506W        W21122  36.475   9.766  13.618
49507W        W21123  25.906   9.264   0.603
49508W        W21124  30.323   5.126   0.453
49509W        W21125  17.755  24.195   3.216
49510W        W21126  41.828  13.357  11.678
49511W        W21127  17.049  19.436  14.265
49512W        W21128  23.573  41.022   1.931
49513W        W21129  11.210  26.483   5.047
49514W        W21130  40.804  32.925  14.248
49515W        W21131  17.205  26.371   2.395
49516W        W21132  29.219   8.759  12.257
49517W        W21133  17.813   6.687  12.663
49518W        W21134  19.887   4.800   3.598
49519W        W21135  35.545  29.345  10.806
49520W        W21136  21.718  28.086  11.634
49521W        W21137  16.557   8.865   1.379
49522W        W21138  19.564  36.952  10.728
49523W        W21139  22.693   0.734  12.900
49524W        W21140  17.132  13.644   2.438
49525W        W21141  17.334  32.866  11.140
49526W        W21142  29.036  20.115   0.218
49527W        W21143  25.454  44.359  12.977
49528W        W21144  20.613  16.668  10.300
49529W        W21145  17.804  11.247  11.115
49530W        W21146  21.936  29.046  14.470
49531W        W21147  36.143  13.282   3.882
49532W        W21148  11.492   0.707  12.389
49533W        W21149  15.683  42.714  11.344
49534W        W21150  22.825  12.091  11.985
49535W        W21151  21.992  21.545   4.011
49536W        W21152   2.222   6.945  12.525
49537W        W21153  27.647  28.065   3.758
49538W        W21154  31.141  20.346   2.249
49539W        W21155  10.252  28.571  10.621
49540W        W21156   3.378  11.635   2.841
49541W        W21157  29.456  20.099  10.660
49542W        W21158   5.260  33.464   4.505
49543W        W21159   4.208  36.410  14.641
49544W        W21160  40.147  39.800  10.546
49545W        W21161  26.311  26.436   1.272
49546W        W21162  16.236  39.283   1.799
49547W        W21163  29.011   5.024   0.322
49548W        W21164  26.568  36.140  12.180
49549W        W21165  17.641   2.988  11.084
49550W        W21166  34.495  44.961   2.185
49551W        W21167  25.625  21.004  11.066
49552W        W21168   8.933  35.379  12.067
49553W        W21169   4.393  24.585   3.304
49554W        W21170  29.487  33.403   3.182
49555W        W21171   3.998  25.109  12.233
49556W        W21172  11.363  21.597   3.315
49557W        W21173  44.184  36.584   1.360
49558W        W21174  40.845  18.311  11.843
49559W        W21175  23.463  34.384  13.924
49560W        W21176  14.882  31.652   3.176
49561W        W21177  40.036   9.653   1.373
49562W        W21178  27.740  33.339  12.370
49563W        W21179  13.185   1.013   2.035
49564W        W21180  35.497  19.853  13.760
49565W        W21181  42.941  35.483  11.388
49566W        W21182   5.676  16.057  11.468
49567W        W21183  13.963  43.440   4.580
49568W        W21184  38.348   0.193  12.812
49569W        W21185  37.146  10.243   1.022
49570W        W21186  14.088  10.666   3.666
49571W        W21187   9.801  38.539   2.886
49572W        W21188   7.539  32.058  13.746
49573W        W21189  23.983  35.138  11.468
49574W        W21190  12.860  22.214  12.566
49575W        W21191  38.004  31.460  14.888
49576W        W21192  27.440  44.942   2.296
49577W        W21193   6.937  36.234  11.566
49578W        W21194  14.273  31.984  14.906
49579W        W21195  25.068   1.095  14.432
49580W        W21196  37.922  28.162   0.006
49581W        W21197  42.182  14.317  10.812
49582W        W21198  27.977   5.760  11.428
49583W        W21199   9.816   3.954  10.661
49584W        W21200  41.386  40.216   0.862
49585W        W21201  21.212  39.560  13.848
49586W        W21202   0.010  13.343  13.195
49587W        W21203  35.649  21.716   3.177
49588W        W21204  43.471  14.638   4.655
49589W        W21205  43.709   3.618   4.088
49590W        W21206  25.487  43.940  13.567
49591W        W21207  26.540  32.353  11.690
49592W        W21208  40.059  29.638   1.967
49593W        W21209  14.170  20.614   2.861
49594W        W21210  17.093  16.255  10.758
49595W        W21211  43.856  35.009  10.697
49596W        W21212  27.498  10.342   0.520
49597W        W21213  33.809  24.104  11.960
49598W        W21214   8.249  30.077   4.967
49599W        W21215  17.292   9.737   0.680
49600W        W21216   8.273  42.671  11.569
49601W        W21217  33.664  20.577  12.058
49602W        W21218  43.934  37.458   2.598
49603W        W21219   6.064  10.792   0.473
49604W        W21220   8.174  35.572  10.667
49605W        W21221   0.769  24.226   2.214
49606W        W21222  24.925  25.987  11.631
49607W        W21223  19.618  15.643  13.938
49608W        W21224  28.155  20.567   1.405
49609W        W21225  33.902  31.485  10.745
49610W        W21226  40.983  27.568   3.180
49611W        W21227   3.981  15.203  10.391
49612W        W21228  35.927   5.367  10.606
49613W        W21229  22.455  31.588  13.254
49614W        W21230  29.409  14.647   5.019
49615W        W21231  43.311  37.106  13.097
49616W        W21232   7.679  41.325  11.250
49617W        W21233  20.535  43.521   1.780
49618W        W21234  43.986  28.217  10.918
49619W        W21235   2.994  35.088  11.077
49620W        W21236  38.530  34.927   3.662
49621W        W21237   5.500  20.122   1.929
49622W        W21238  22.955  42.310  12.824
49623W        W21239  19.352   5.322   4.701
49624W        W21240  14.908   0.466  13.672
49625W        W21241   6.691  12.819   1.058
49626W        W21242  38.957  22.246   3.592
49627W        W21243  34.435   2.325   2.338
49628W        W21244  42.528   6.769   1.222
49629W        W21245  33.538   4.027  13.128
49630W        W21246  28.570  16.094  10.212
49631W        W21247  30.976  44.321  13.607
49632W        W21248  19.042  17.124   0.430
49633W        W21249  38.597  43.506   4.884
49634W        W21250   5.635  18.003  11.986
49635W        W21251  13.934  40.761   1.942
49636W        W21252  14.027   2.102   0.210
49637W        W21253   2.815  21.973  11.982
49638W        W21254  33.986  13.262  11.163
49639W        W21255   2.176  15.617  14.895
49640W        W21256  22.703  35.334  11.889
49641W        W21257  12.750  22.258  10.757
49642W        W21258  26.110  20.727   2.664
49643W        W21259  13.607  21.023   4.462
49644W        W21260  23.173  12.621   3.855
49645W        W21261  16.662   3.320   4.827
49646W        W21262  17.464  41.848  13.625
49647W        W21263  37.644  28.651  14.020
49648W        W21264  41.672  38.143   9.850
49649W        W21265  43.788  15.312  14.197
49650W        W21266  35.652  21.074  11.809
49651W        W21267  19.012   8.318   2.253
49652W        W21268  25.633   7.126   0.211
49653W        W21269   5.453  31.868  11.055
49654W        W21270  34.504  24.761  11.947
49655W        W21271  36.550  13.262   3.092
49656W        W21272  30.542  23.512  13.812
49657W        W21273   0.369  37.907   0.770
49658W        W21274  35.894  22.317  10.676
49659W        W21275  38.898  39.999   2.285
49660W        W21276  43.431   9.946   3.254
49661W        W21277  37.875  28.581  14.551
49662W        W21278  40.487  21.634   1.644
49663W        W21279   5.687   6.209  14.017
49664W        W21280   3.312  37.428  11.972
49665W        W21281  27.375  20.789  12.009
49666W        W21282   5.330  27.714   4.636
49667W        W21283  22.822   9.554  12.008
49668W        W21284  18.570  17.083   1.300
49669W        W21285  19.747  42.443  13.341
49670W        W21286  42.966  40.724   2.353
49671W        W21287  39.096   3.285  12.471
49672W        W21288  13.137  35.671   2.162
49673W        W21289  15.771  22.938  11.841
49674W        W21290   8.699  34.884   1.197
49675W        W21291   0.254  43.878   4.116
49676W        W21292  17.412  33.700  10.689
49677W        W21293  25.192  25.620  13.538
49678W        W21294  39.023  22.150   3.081
49679W        W21295   4.482  32.463  11.600
49680W        W21296  37.324  36.019   0.538
49681W        W21297  20.721  25.486   0.820
49682W        W21298   6.811  44.534   0.119
49683W        W21299  34.533   0.275   3.185
49684W        W21300   0.335   2.421  13.460
49685W        W21301  28.665  41.362  12.907
49686W        W21302   6.819  14.545   1.887
49687W        W21303  30.084  11.659   0.968
49688W        W21304  27.424  41.469  12.374
49689W        W21305  10.635  41.756  11.964
49690W        W21306   8.126  24.349   2.920
49691W        W21307  40.414   2.673  12.534
49692W        W21308  22.260   2.249  13.434
49693W        W21309  20.079  38.907  10.275
49694W        W21310   7.863  30.397   1.211
49695W        W21311  10.858  35.029  13.029
49696W        W21312  24.145  44.496   2.670
49697W        W21313  21.435   7.293  11.106
49698W        W21314  19.215  30.503   3.126
49699W        W21315  39.854  43.271  14.752
49700W        W21316  24.106   6.954  10.959
49701W        W21317  25.985  31.914  13.398
49702W        W21318  12.791  29.538  11.263
49703W        W21319  16.285  10.860   0.759
49704W        W21320  16.706   9.295  13.372
49705W        W21321  38.360  17.660  12.637
49706W        W21322  44.854  36.526   0.611
49707W        W21323  31.987  27.321   0.639
49708W        W21324  32.118  28.432   4.784
49709W        W21325  43.985  28.574   2.554
49710W        W21326  12.651  33.935   2.973
49711W        W21327  29.725  18.371   2.770
49712W        W21328  25.966   7.438   2.513
49713W        W21329  41.893  21.355  12.074
49714W        W21330  43.318  37.827   2.327
49715W        W21331  25.959  28.978  10.473
49716W        W21332  22.187  43.736  13.980
49717W        W21333  16.851  26.087  12.329
49718W        W21334  35.570  43.058  14.908
49719W        W21335  38.950  14.745  12.165
49720W        W21336  31.653  36.407   1.757
49721W        W21337  13.646  28.545   2.446
49722W        W21338   8.457  21.498   0.739
49723W        W21339  14.759  13.274   1.018
49724W        W21340   4.281  33.787   3.683
49725W        W21341  43.336  33.099   0.403
49726W        W21342  19.760  10.276   0.366
49727W        W21343  39.857  31.614   4.573
49728W        W21344  41.338  41.126  11.204
49729W        W21345  20.964  20.602   1.268
49730W        W21346  23.689  31.946  12.823
49731W        W21347  42.035  34.031  10.752
49732W        W21348   3.560  27.718   2.260
49733W        W21349  37.057  30.589   0.069
49734W        W21350  11.136  15.807   3.631
49735W        W21351  18.766  30.489   4.517
49736W        W21352  40.221   4.031   1.090
49737W        W21353  43.247  43.440  14.317
49738W        W21354  31.952  36.141  10.171
49739W        W21355  19.574  10.172  11.522
49740W        W21356  30.518  18.192   3.293
49741W        W21357   4.168   3.917   0.562
49742W        W21358  34.681   9.130   4.721
49743W        W21359  32.514   6.886  11.130
49744W        W21360  20.451  37.524  14.708
49745W        W21361  31.413  10.227   3.684
49746W        W21362   6.885  36.564   1.380
49747W        W21363   0.513  35.464   3.890
49748W        W21364   8.235  30.233  13.145
49749W        W21365   9.776   3.404  14.934
49750W        W21366  17.801  23.189  14.738
49751W        W21367  10.772   9.330  12.481
49752W        W21368   7.701  32.982  13.829
49753W        W21369  28.304  20.040   4.003
49754W        W21370  21.068   7.254  13.963
49755W        W21371  22.211  29.326   1.454
49756W        W21372  42.994  19.629   0.792
49757W        W21373  38.946  34.852  11.945
49758W        W21374  16.142  36.995  13.174
49759W        W21375  25.116  19.816   0.447
49760W        W21376   4.408   8.584  13.395
49761W        W21377  15.913  20.914   4.277
49762W        W21378  17.575  22.549   4.700
49763W        W21379  28.421  31.171  12.013
49764W        W21380  15.622  34.872   1.804
49765W        W21381  17.027  21.877  14.750
49766W        W21382   3.974   8.919  11.114
49767W        W21383  38.819  34.465   0.831
49768W        W21384  39.000   7.313   1.324
49769W        W21385  18.175  28.903   2.313
49770W        W21386  15.065  22.040  13.858
49771W        W21387  41.885  37.661   9.915
49772W        W21388  16.798  10.610   2.787
49773W        W21389  36.866  44.683   3.671
49774W        W21390   9.595   2.848  11.533
49775W        W21391   2.872   3.888  14.106
49776W        W21392   6.335  30.330   1.569
49777W        W21393   9.113   3.565   4.230
49778W        W21394  25.756  20.683  14.500
49779W        W21395  10.277   7.288  12.639
49780W        W21396  43.629  14.560   4.161
49781W        W21397  21.582  27.620   1.906
49782W        W21398  17.278   7.848   2.194
49783W        W21399  44.822   0.213  13.812
49784W        W21400  28.686  26.403   1.812
49785W        W21401  23.931  38.190  14.634
49786W        W21402  27.625  34.754   0.307
49787W        W21403  32.616  20.886   2.500
49788W        W21404   1.219   2.322  10.698
49789W        W21405  38.660  22.012  12.046
49790W        W21406  22.409  23.113  10.083
49791W        W21407   5.268  35.857  12.694
49792W        W21408   4.315  31.860  10.960
49793W        W21409  40.747  32.686  11.286
49794W        W21410  35.948  10.995  14.652
49795W        W21411  41.511  16.099  12.485
49796W        W21412  18.784  40.392  12.601
49797W        W21413  31.452  26.240   1.667
49798W        W21414  29.895  42.777   0.397
49799W        W21415  21.733  24.165   4.595
49800W        W21416  20.738  38.464  11.655
49801W        W21417  31.406  38.699   0.625
49802W        W21418  30.859  21.019   1.656
49803W        W21419  14.188  41.081  13.939
49804W        W21420  14.343   3.776   3.856
49805W        W21421  38.522  19.482   2.643
49806W        W21422   6.419  23.883   2.733
49807W        W21423  37.554  13.733   2.616
49808W        W21424  14.832  14.667   1.521
49809W        W21425   8.674  31.596   3.475
49810W        W21426  31.777   1.220   0.992
49811W        W21427   2.256   0.025  11.076
49812W        W21428  27.497  26.841   2.293
49813W        W21429  14.461  42.029   4.155
49814W        W21430  36.450   2.354   0.287
49815W        W21431   5.248  12.141   3.204
49816W        W21432  25.357  44.013   2.145
49817W        W21433  31.575  13.291   4.507
49818W        W21434  35.191  37.512  10.394
49819W        W21435  31.481  38.587   2.308
49820W        W21436  16.706   7.050   1.885
49821W        W21437   0.392  15.966  12.342
49822W        W21438  11.295  44.898   0.561
49823W        W21439   9.261  21.802  12.798
49824W        W21440  21.577  25.254  13.421
49825W        W21441  11.138  41.615  14.836
49826W        W21442  12.163  33.099  11.938
49827W        W21443  12.866   2.976  14.956
49828W        W21444  17.873  11.626  14.272
49829W        W21445  42.085  21.661   4.420
49830W        W21446  25.874  21.831   1.961
49831W        W21447   7.348  42.476   1.689
49832W        W21448  19.170  23.714  11.638
49833W        W21449  41.351  42.482  11.467
49834W        W21450  29.874  21.072   1.495
49835W        W21451  24.269  23.588   4.889
49836W        W21452  41.862  44.181  10.216
49837W        W21453  27.964  31.017   0.294
49838W        W21454  31.560  39.608  12.511
49839W        W21455  38.334  35.558  12.340
49840W        W21456   7.279  21.257   0.551
49841W        W21457  31.410   8.185   0.552
49842W        W21458  26.015  13.336  12.886
49843W        W21459   6.244  36.242  12.729
49844W        W21460  44.014  30.502   0.925
49845W        W21461   4.924  35.097   0.459
49846W        W21462  22.599  30.993   4.537
49847W        W21463  23.719   7.720   4.127
49848W        W21464  26.006   4.463  14.036
49849W        W21465  21.841  38.426   4.119
49850W        W21466  44.495   1.282  14.009
49851W        W21467  33.521  16.428  10.270
49852W        W21468  32.330  10.140  11.123
49853W        W21469   9.891  18.240   1.969
49854W        W21470   4.060  30.666   2.349
49855W        W21471  35.332  33.115   2.253
49856W        W21472  15.164   4.444   1.951
49857W        W21473   2.512   6.299   0.966
49858W        W21474  20.939  21.205   4.056
49859W        W21475  26.774  13.650   4.974
49860W        W21476  23.506  11.840  13.277
49861W        W21477   1.350  34.343  10.623
49862W        W21478  20.571  41.746   4.707
49863W        W21479  25.697  27.184   3.939
49864W        W21480  18.572  24.648   2.817
49865W        W21481  40.014  11.526   0.698
49866W        W21482  33.013  44.325   5.395
49867W        W21483  27.636  43.340  12.055
49868W        W21484   2.379  30.488  10.610
49869W        W21485   8.450  19.234  13.820
49870W        W21486  12.449   0.967   0.355
49871W        W21487  28.305   5.851  13.978
49872W        W21488  32.564  33.847  12.356
49873W        W21489  12.067  40.444   4.279
49874W        W21490  32.143  39.793  10.320
49875W        W21491  34.335  40.793  11.588
49876W        W21492  25.217  12.611   3.503
49877W        W21493   0.021  26.178  14.371
49878W        W21494  40.495  12.981  13.332
49879W        W21495  23.057  15.444  14.148
49880W        W21496  24.664  12.886   2.342
49881W        W21497   3.204  12.568  11.133
49882W        W21498  44.385  38.860   2.830
49883W        W21499   3.351  34.168  14.961
49884W        W21500  36.973  43.586  11.154
49885W        W21501  38.629  34.838  12.568
49886W        W21502  36.080  18.053  11.746
49887W        W21503   5.907  32.891  12.933
49888W        W21504   8.386  42.376   0.910
49889W        W21505  12.759  33.895   0.967
49890W        W21506   4.857  42.819  13.521
49891W        W21507  44.241  17.780   3.388
49892W        W21508  14.015  30.710  10.220
49893W        W21509  39.068  35.452  11.062
49894W        W21510  18.055  37.797  11.123
49895W        W21511  17.677  32.211   1.242
49896W        W21512  33.421   7.185  11.489
49897W        W21513  30.906  30.386   2.302
49898W        W21514  27.637  37.018   2.352
49899W        W21515  38.847  25.881   1.658
49900W        W21516  10.572   7.486   0.292
49901W        W21517  42.941  16.434   0.878
49902W        W21518  41.535   8.248   3.632
49903W        W21519  28.520   1.019  13.484
49904W        W21520  25.217  41.809  12.325
49905W        W21521  39.171  30.080   0.280
49906W        W21522  40.504   2.163  11.010
49907W        W21523  19.238   8.335  11.481
49908W        W21524  27.022  41.545  11.156
49909W        W21525  28.035  18.083  13.088
49910W        W21526  20.134  25.521  13.047
49911W        W21527  18.187   9.288   4.036
49912W        W21528   0.405  34.830   1.536
49913W        W21529  30.423  15.594  11.952
49914W        W21530  28.887  38.193  13.378
49915W        W21531  34.133  37.310  10.811
49916W        W21532  25.741  34.362   4.116
49917W        W21533  31.525  42.955   3.066
49918W        W21534  42.771  35.981   2.746
49919W        W21535  35.685  35.424  13.347
49920W        W21536  28.870  27.818  12.060
49921W        W21537  11.149  16.833   3.573
49922W        W21538  26.854  38.446  11.745
49923W        W21539  41.798  35.407   4.277
49924W        W21540  42.724  33.025  14.161
49925W        W21541  23.298   9.713  11.759
49926W        W21542  31.670  18.166  14.394
49927W        W21543  10.612  32.032  10.449
49928W        W21544   3.061   5.298  11.443
49929W        W21545  41.500  40.357  11.570
49930W        W21546   8.930  20.177   4.471
49931W        W21547  24.095  17.404  13.954
49932W        W21548   0.343  27.159  10.698
49933W        W21549  23.001  30.257   4.330
49934W        W21550  44.492   9.819  10.116
49935W        W21551   0.275  43.534   1.723
49936W        W21552  17.533  41.548   1.898
49937W        W21553  17.628  36.320  11.545
49938W        W21554  28.107  40.384  11.131
49939W        W21555  31.726  41.223  11.255
49940W        W21556  30.752   1.687   0.641
49941W        W21557  43.857  37.812  13.394
49942W        W21558   6.943  31.306  12.146
49943W        W21559  34.656   9.269  10.224
49944W        W21560  13.330  26.804  11.135
49945W        W21561  16.358   7.784   3.213
49946W        W21562   6.178  16.044  13.464
49947W        W21563  39.963   0.955   3.302
49948W        W21564   1.297  43.500  13.952
49949W        W21565  15.366  15.854  12.040
49950W        W21566  37.041  42.793   1.835
49951W        W21567  12.009  23.963   0.763
49952W        W21568  13.781  30.967  12.400
49953W        W21569  16.028  11.038   0.337
49954W        W21570  32.924  40.913   2.247
49955W        W21571  12.205  20.057  11.977
49956W        W21572  29.469  15.629   2.571
49957W        W21573  33.789  10.146  12.995
49958W        W21574  11.788  15.271  14.980
49959W        W21575  44.444  21.485   2.853
49960W        W21576  13.997   0.736   1.874
49961W        W21577  27.651  44.347   1.207
49962W        W21578  35.003   8.867   4.406
49963W        W21579  32.576  42.873  14.587
49964W        W21580  37.406  30.937  14.493
49965W        W21581  10.103  26.195  13.977
49966W        W21582  38.814  16.812  12.615
49967W        W21583  29.618  28.350   2.672
49968W        W21584   3.381   6.732   4.350
49969W        W21585   1.212  19.316   2.242
49970W        W21586  22.165   8.292   0.714
49971W        W21587   1.282   3.750   1.543
49972W        W21588   2.267  31.987  10.130
49973W        W21589   4.783  14.039   4.196
49974W        W21590  16.782  12.830  10.591
49975W        W21591  16.341  27.859  13.622
49976W        W21592  16.808  43.396   0.243
49977W        W21593  11.592  10.429  12.616
49978W        W21594  41.768   1.688  14.677
49979W        W21595  13.331   4.534  10.728
49980W        W21596  21.951  43.851   1.756
49981W        W21597  28.466  43.909   3.722
49982W        W21598  37.378  25.105  13.389
49983W        W21599  32.135  16.810   1.886
49984W        W21600  29.941  37.001  13.883
49985W        W21601  21.395  25.001   4.523
49986W        W21602  23.184   9.697   3.777
49987W        W21603  24.072  22.190   1.892
49988W        W21604  32.593  39.315   2.742
49989W        W21605  26.054  23.457   2.086
49990W        W21606  28.170   3.914   4.582
49991W        W21607  40.878   8.336  13.058
49992W        W21608   2.740  41.971  13.929
49993W        W21609  16.206  24.238  13.431
49994W        W21610  35.058   0.679   0.244
49995W        W21611  38.519  16.472  13.571
49996W        W21612  39.054  43.832  11.574
49997W        W21613   7.202  40.586  13.419
49998W        W21614  30.167  32.198   2.899
49999W        W21615  10.074  11.433   1.237
50000W        W21616  35.174  19.543   3.422
50001W        W21617  30.807   2.426   4.258
50002W        W21618   1.507  16.717  11.996
50003W        W21619  40.889  10.746  10.570
50004W        W21620  30.142   1.486  14.863
50005W        W21621  13.315  23.492   2.752
50006W        W21622  34.005  34.593  12.623
50007W        W21623  38.137  43.287   4.952
50008W        W21624  20.069  25.458  14.480
50009W        W21625   3.964  34.904   2.831
50010W        W21626  18.989  43.437   5.133
50011W        W21627  43.759  19.680   3.309
50012W        W21628   8.662   8.674  11.077
50013W        W21629   1.333  30.340  11.847
50014W        W21630  23.861   0.100  11.568
50015W        W21631   4.621  44.450  14.258
50016W        W21632  22.106  37.831  14.770
50017W        W21633   0.511  40.923  13.022
50018W        W21634   9.058   9.362   5.018
50019W        W21635  27.879  10.312  11.666
50020W        W21636  15.866  44.200   0.362
50021W        W21637  35.502  32.636   2.059
50022W        W21638   8.355  28.221   4.334
50023W        W21639  26.299  27.965  10.392
50024W        W21640   5.583  26.104  14.330
50025W        W21641  39.767   3.870  12.112
50026W        W21642  17.251  15.756  11.590
50027W        W21643  10.239  38.563   0.852
50028W        W21644   0.460  36.480   4.691
50029W        W21645  31.014  40.157   1.287
50030W        W21646  31.956  13.824  12.025
50031W        W21647  43.968  31.409   4.657
50032W        W21648   5.672  14.583   3.758
50033W        W21649  41.113   0.973  10.957
50034W        W21650  10.225  25.940  12.019
50035W        W21651  36.219  40.308   3.308
50036W        W21652  28.520  38.841   3.893
50037W        W21653   3.432  14.728  11.511
50038W        W21654  44.516  16.545   2.827
50039W        W21655  36.444  12.336   2.633
50040W        W21656  20.705  21.302   3.609
50041W        W21657  25.269  21.959  12.947
50042W        W21658  17.081  14.857  13.895
50043W        W21659   5.535   1.756   2.697
50044W        W21660  34.252  36.028   0.384
50045W        W21661   0.862  31.038   3.460
50046W        W21662  20.286  27.120  14.398
50047W        W21663  30.943  27.453   3.772
50048W        W21664  28.163  25.561   1.739
50049W        W21665  38.794  35.593  14.550
50050W        W21666   2.299  32.692  13.874
50051W        W21667  28.747  18.227  14.982
50052W        W21668  12.971  35.907   5.016
50053W        W21669  21.066  39.806  14.422
50054W        W21670  29.674  24.081  14.848
50055W        W21671  25.739  44.925   4.525
50056W        W21672  33.067  14.689   0.978
50057W        W21673   7.422   9.890  11.485
50058W        W21674   7.987  30.949   2.103
50059W        W21675  19.192  40.162   0.663
50060W        W21676  35.498   0.408  14.935
50061W        W21677   9.272  24.121   1.863
50062W        W21678  40.838  24.064  13.533
50063W        W21679  36.613  38.228   0.895
50064W        W21680   3.477   5.828  12.003
50065W        W21681   9.178  28.912  10.838
50066W        W21682  33.185  22.513  14.438
50067W        W21683  20.794  40.453  12.621
50068W        W21684  29.206  32.104  14.721
50069W        W21685  11.644   4.906  10.313
50070W        W21686   6.549   9.170   4.892
50071W        W21687  26.895   8.323  14.973
50072W        W21688   6.247   7.991   0.486
50073W        W21689  18.993  21.591  13.866
50074W        W21690  36.030  44.403   0.320
50075W        W21691  15.622  13.702  11.174
50076W        W21692   6.894   4.446   3.116
50077W        W21693  24.660  29.471  14.268
50078W        W21694  20.698  37.459  12.072
50079W        W21695  18.784  42.015   2.630
50080W        W21696  21.029  16.573   4.525
50081W        W21697  25.709  28.997  14.858
50082W        W21698  36.435  24.908   1.923
50083W        W21699  18.075  19.803  12.002
50084W        W21700   6.367  42.099   3.874
50085W        W21701  10.826  20.229  11.254
50086W        W21702   9.418  17.679  10.668
50087W        W21703  29.927  32.424   1.400
50088W        W21704   9.229   8.773   5.284
50089W        W21705  44.736  32.677  12.145
50090W        W21706  32.039  32.598   1.135
50091W        W21707  32.890  21.505  13.533
50092W        W21708  11.903  31.628  11.494
50093W        W21709  24.600   4.776  10.664
50094W        W21710  43.133  25.850   0.986
50095W        W21711  22.487   0.498  10.139
50096W        W21712   6.784  27.218   2.621
50097W        W21713  20.107  33.982  14.928
50098W        W21714  25.235  24.519   0.192
50099W        W21715  34.278  43.525  11.898
50100W        W21716  30.903  40.090  14.413
50101W        W21717  21.915  11.270   0.905
50102W        W21718  41.881  37.890  14.500
50103W        W21719  38.621  38.379   4.084
50104W        W21720  36.893  40.310   4.649
50105W        W21721  41.630  26.178   4.409
50106W        W21722  21.502  29.259   4.886
50107W        W21723  27.250  13.765  11.283
50108W        W21724  17.859  38.906  10.904
50109W        W21725  21.233   7.314  11.617
50110W        W21726  26.498  14.676  14.254
50111W        W21727  25.677   0.236  13.980
50112W        W21728   2.412  13.776  10.508
50113W        W21729  22.693  10.130  10.759
50114W        W21730   8.100   7.553  14.256
50115W        W21731  36.149  14.019   0.563
50116W        W21732  11.289  17.280   3.332
50117W        W21733  31.461  27.429  14.940
50118W        W21734  20.994   4.965   2.718
50119W        W21735  14.090  37.246  13.951
50120W        W21736  16.008  12.495   0.268
50121W        W21737  40.140  17.787   4.240
50122W        W21738  18.553  15.812  14.974
50123W        W21739   9.822  32.495  14.754
50124W        W21740  42.673  16.635  11.003
50125W        W21741  19.602   3.695  13.991
50126W        W21742  42.557  25.369  12.644
50127W        W21743  13.841  39.139  14.334
50128W        W21744  16.691  17.743  13.868
50129W        W21745   3.421  11.109   0.257
50130W        W21746  23.445  35.646  10.780
50131W        W21747  40.197  44.390  11.095
50132W        W21748  35.430   7.508  12.975
50133W        W21749  33.589  26.001   1.047
50134W        W21750   8.659   2.464   2.734
50135W        W21751  20.636  33.458   4.889
50136W        W21752  37.440  29.592   0.228
50137W        W21753  27.118  18.660   0.871
50138W        W21754  43.582  32.970  12.525
50139W        W21755  20.165   8.758  13.995
50140W        W21756  34.873   9.691   3.841
50141W        W21757  27.104  34.943   1.526
50142W        W21758  26.181   5.919  11.726
50143W        W21759   4.936  27.017   2.809
50144W        W21760   2.612  13.997   4.970
50145W        W21761  13.820   7.799  13.236
50146W        W21762  25.778  10.059   0.338
50147W        W21763  20.254  40.754   1.702
50148W        W21764  20.546  41.742   2.359
50149W        W21765  30.528  10.682   4.914
50150W        W21766  41.381  38.867  11.428
50151W        W21767  38.294   2.953   2.653
50152W        W21768  37.565   2.889  10.674
50153W        W21769  15.711  20.812   3.307
50154W        W21770  19.148  36.478  14.386
50155W        W21771  38.371  43.867  13.822
50156W        W21772  18.606  33.345  11.597
50157W        W21773  16.688  23.037   2.170
50158W        W21774  14.905  13.833   3.623
50159W        W21775  43.620  33.028   4.131
50160W        W21776   8.766  38.907   3.659
50161W        W21777  26.030   3.405  13.782
50162W        W21778  28.007   1.408   1.274
50163W        W21779  15.284  21.968   0.849
50164W        W21780  27.960  34.024   4.337
50165W        W21781  29.496  20.070   3.144
50166W        W21782  10.635  10.836   3.837
50167W        W21783   2.132  36.176  12.896
50168W        W21784   1.689  10.423   1.776
50169W        W21785  31.021  32.703   2.836
50170W        W21786  30.000  19.101  12.649
50171W        W21787   8.870  14.859  10.729
50172W        W21788  39.033   4.271   0.727
50173W        W21789  17.409  15.589  12.064
50174W        W21790   7.968  35.339   3.188
50175W        W21791   3.709  36.343   0.681
50176W        W21792   3.329  19.602   3.661
50177W        W21793  40.272  40.073  12.038
50178W        W21794   8.371  35.178   0.327
50179W        W21795  26.937  38.814  14.398
50180W        W21796  38.018  25.483  10.685
50181W        W21797  28.196   7.409  11.519
50182W        W21798  12.392  42.259   4.594
50183W        W21799  27.081  41.028  11.074
50184W        W21800   5.501   9.205  11.896
50185W        W21801  12.885  14.095  11.431
50186W        W21802   4.118  28.441   0.336
50187W        W21803  43.979   5.752   2.346
50188W        W21804  34.149   6.555   0.133
50189W        W21805   8.988  25.148  10.641
50190W        W21806  43.737  21.622   1.802
50191W        W21807  32.221  24.518  12.507
50192W        W21808  13.099  30.987  11.427
50193W        W21809  33.610  26.213  11.710
50194W        W21810  22.992  24.796   4.054
50195W        W21811  23.628  33.018  10.629
50196W        W21812  19.926  21.418  10.345
50197W        W21813  10.614  33.387   1.350
50198W        W21814   8.954   6.956   2.701
50199W        W21815  32.716  33.362   4.463
50200W        W21816  10.663  36.551  10.708
50201W        W21817  15.882  41.582  12.735
50202W        W21818  19.660  26.625   3.088
50203W        W21819   8.070  34.223   2.305
50204W        W21820  11.855  40.718  12.073
50205W        W21821  19.166  22.093   1.860
50206W        W21822  31.411  11.576   2.186
50207W        W21823  10.766  10.930   0.300
50208W        W21824   8.592  20.114  13.414
50209W        W21825  40.363  28.789  14.927
50210W        W21826  11.116   3.941  12.572
50211W        W21827   4.685  41.112  11.118
50212W        W21828  35.776  40.029   3.360
50213W        W21829   4.309  35.980   1.936
50214W        W21830  24.009  22.535  11.130
50215W        W21831  34.057  14.688   3.676
50216W        W21832  36.295  21.958  10.795
50217W        W21833  43.371  21.660   3.173
50218W        W21834   8.814   2.731  14.549
50219W        W21835  28.389  11.836   3.583
50220W        W21836  22.077   3.724  14.823
50221W        W21837   0.024  14.293  13.446
50222W        W21838  24.159  28.051   3.713
50223W        W21839  19.716  16.977   1.850
50224W        W21840  38.514  31.507   4.034
50225W        W21841  22.616  28.205  11.615
50226W        W21842  42.094  19.262   2.612
50227W        W21843  24.666  26.649   4.167
50228W        W21844  34.713  14.533  10.077
50229W        W21845  10.891   7.714   2.977
50230W        W21846   9.319  33.054  14.299
50231W        W21847   7.892  13.635   2.433
50232W        W21848  41.822  41.758   3.435
50233W        W21849  11.190   7.192  13.459
50234W        W21850   7.572  37.567  12.021
50235W        W21851  30.513  19.626   3.605
50236W        W21852   3.255   8.275   3.842
50237W        W21853  28.984  39.035   2.172
50238W        W21854   5.883  18.252  11.558
50239W        W21855   9.301  23.552   0.043
50240W        W21856  42.655   4.911  14.841
50241W        W21857  17.533  36.351   4.733
50242W        W21858  35.198   0.101   2.354
50243W        W21859  20.007  14.706  13.961
50244W        W21860   7.089  44.236   1.605
50245W        W21861   1.617  26.013   4.050
50246W        W21862  33.958   6.244  14.052
50247W        W21863  13.297  13.798  11.671
50248W        W21864  40.018  37.419   2.726
50249W        W21865   6.852  44.221  13.828
50250W        W21866  30.129  36.499  12.078
50251W        W21867  23.958  32.838   4.642
50252W        W21868  12.354  19.238   0.835
50253W        W21869   0.273  29.242  13.561
50254W        W21870   1.035  25.086  11.455
50255W        W21871   4.024  35.633   1.315
50256W        W21872  25.114   4.366   2.381
50257W        W21873  19.816  44.254  11.649
50258W        W21874  38.340   3.417   4.178
50259W        W21875  15.334  32.601  11.076
50260W        W21876  35.593   2.288   3.679
50261W        W21877  31.989  44.977   4.652
50262W        W21878  39.238  39.731  13.845
50263W        W21879  13.238  10.367  14.754
50264W        W21880  37.787  28.686   0.127
50265W        W21881  15.685  28.428   0.150
50266W        W21882   1.452  17.644  11.958
50267W        W21883  34.152  40.341  14.511
50268W        W21884  39.918  14.337   3.361
50269W        W21885   9.240  36.995  11.926
50270W        W21886  41.971  15.353   0.729
50271W        W21887   7.478   3.009   3.546
50272W        W21888  23.443  11.528  11.574
50273W        W21889  13.061  12.140  13.257
50274W        W21890  24.523  15.289   1.420
50275W        W21891  31.931  29.120  13.323
50276W        W21892  32.894  34.863   1.788
50277W        W21893  37.960   8.375  13.036
50278W        W21894  44.807  24.905   2.723
50279W        W21895  38.349  34.937  13.873
50280W        W21896  26.512  30.688  11.072
50281W        W21897  40.107  26.921  14.915
50282W        W21898  11.333  25.447   4.123
50283W        W21899  29.402  15.640   4.184
50284W        W21900   3.785  20.537   0.397
50285W        W21901   4.395  33.544  13.952
50286W        W21902  12.158  25.084   3.217
50287W        W21903  17.142   0.332  10.531
50288W        W21904  25.513  18.166  12.550
50289W        W21905  41.173  21.260  12.509
50290W        W21906   4.290  41.532  11.609
50291W        W21907  22.618  26.216   2.943
50292W        W21908  18.152  16.012   0.318
50293W        W21909  16.113  23.303   4.259
50294W        W21910  44.957  13.714   0.511
50295W        W21911  29.661  33.554  13.771
50296W        W21912  43.746  23.036   3.196
50297W        W21913  40.597  39.801  13.894
50298W        W21914  33.154  22.243  13.111
50299W        W21915  42.540  21.792  12.794
50300W        W21916   8.847   0.032  13.034
50301W        W21917   5.950   5.212   3.705
50302W        W21918  26.642   4.653   9.952
50303W        W21919  19.963  30.616   2.191
50304W        W21920  44.645   1.683   1.318
50305W        W21921  14.079   8.852  13.484
50306W        W21922  35.030  20.056   1.245
50307W        W21923  16.678  20.681   3.797
50308W        W21924   4.402   4.247   0.218
50309W        W21925  17.962   7.266  11.028
50310W        W21926  33.992  12.569   1.218
50311W        W21927  18.078  20.012   4.176
50312W        W21928  24.721  43.010   3.590
50313W        W21929  10.835   8.731  13.869
50314W        W21930  38.257  25.518   2.816
50315W        W21931  12.498  11.450   4.745
50316W        W21932  15.753  30.691  10.818
50317W        W21933  38.973   8.419   4.684
50318W        W21934   5.295  25.822  14.658
50319W        W21935   4.186  37.422   3.765
50320W        W21936  11.240  38.105   1.664
50321W        W21937   4.428  31.385   4.173
50322W        W21938   8.666   5.844  14.963
50323W        W21939  30.613  31.673  10.884
50324W        W21940  16.206  27.172  14.413
50325W        W21941  42.983  25.499   4.158
50326W        W21942  28.559   1.759  11.180
50327W        W21943  25.579   7.001  12.449
50328W        W21944  19.400  30.120   0.985
50329W        W21945  33.307  40.772   2.548
50330W        W21946  11.374  29.318   2.460
50331W        W21947   3.947  21.388  11.605
50332W        W21948  32.586  16.829  13.783
50333W        W21949  26.208   4.009   1.847
50334W        W21950  17.140  38.865   0.791
50335W        W21951  15.301  24.954   0.673
50336W        W21952  43.038  39.858  12.497
50337W        W21953  10.829   6.844   3.632
50338W        W21954  16.898  42.856  11.086
50339W        W21955  38.976  17.329   2.457
50340W        W21956   2.948  40.768  11.671
50341W        W21957   7.352  33.171  14.338
50342W        W21958  21.787  17.175  14.503
50343W        W21959  14.093   6.158  10.583
50344W        W21960  12.716  26.425  14.222
50345W        W21961  38.537  21.266  11.583
50346W        W21962  38.146  42.424   1.405
50347W        W21963  11.759  12.140   0.840
50348W        W21964  21.572  10.351   4.917
50349W        W21965  28.471  29.042  11.384
50350W        W21966  26.699  24.764   1.823
50351W        W21967  26.452  21.099  14.741
50352W        W21968  22.035  37.491  12.052
50353W        W21969  15.160  13.531   3.255
50354W        W21970  40.852  32.396   3.284
50355W        W21971  40.660  28.487   1.903
50356W        W21972   0.571  25.595   1.625
50357W        W21973  44.304  22.650  14.471
50358W        W21974  33.515  42.454   3.213
50359W        W21975   7.918  17.356   0.756
50360W        W21976  15.904  40.448  10.725
50361W        W21977  29.590  26.485  13.922
50362W        W21978  41.948  27.066   2.296
50363W        W21979  44.417  44.971  13.535
50364W        W21980  14.921  28.890  13.453
50365W        W21981  28.955   8.588   1.318
50366W        W21982  10.022  14.662  13.238
50367W        W21983  11.255  24.757   2.330
50368W        W21984  31.641  30.053  13.831
50369W        W21985   7.357  40.469  10.638
50370W        W21986  29.886  22.000  10.668
50371W        W21987  24.053   9.207   2.737
50372W        W21988  30.194  10.128   2.640
50373W        W21989   9.096   8.703  12.063
50374W        W21990  34.855  24.211  11.229
50375W        W21991  35.408  26.008  12.894
50376W        W21992   0.995   8.868  12.073
50377W        W21993  10.308  14.319   1.300
50378W        W21994  38.237  16.894   0.495
50379W        W21995  41.757  29.057  14.807
50380W        W21996  17.097   9.788   2.673
50381W        W21997  14.689   4.914  12.919
50382W        W21998  13.575  15.830   3.654
50383W        W21999  37.319  15.657   1.969
50384W        W22000  39.806  39.463   3.318
50385W        W22001  12.057  33.192   4.170
50386W        W22002  15.753  37.046  12.413
50387W        W22003   6.505   7.304  12.004
50388W        W22004  24.754   1.958  13.466
50389W        W22005  30.308  20.828   4.951
50390W        W22006  35.098   4.868   2.294
50391W        W22007  43.018   0.531  13.817
50392W        W22008   4.385  42.600  14.727
50393W        W22009   6.758  24.159  13.084
50394W        W22010  36.193  11.836   0.735
50395W        W22011  31.629  12.396   4.402
50396W        W22012   5.779  30.441   2.744
50397W        W22013  19.321   0.387   3.196
50398W        W22014  39.999   6.664  11.628
50399W        W22015  37.469  30.002   4.663
50400W        W22016  11.799  26.631  11.164
50401W        W22017  28.373  24.210  11.938
50402W        W22018  36.553  40.023  13.001
50403W        W22019   7.121  15.373  11.380
50404W        W22020  20.079  11.168   0.534
50405W        W22021  29.037  20.169  14.217
50406W        W22022  10.612  33.907   1.395
50407W        W22023  30.658  41.006   4.938
50408W        W22024  18.354  21.042  12.497
50409W        W22025  11.381  26.929  11.175
50410W        W22026  42.427   3.439  14.863
50411W        W22027   5.725  35.273  11.551
50412W        W22028  44.931  11.546  11.104
50413W        W22029  37.005  26.032  13.574
50414W        W22030  28.417   7.699  11.134
50415W        W22031   1.403  23.210   4.259
50416W        W22032   2.106  16.741   2.396
50417W        W22033  36.106  15.752   4.665
50418W        W22034  32.408   6.838   4.761
50419W        W22035  30.838   9.829   2.425
50420W        W22036  40.497   7.916  13.953
50421W        W22037  28.851  40.629  11.579
50422W        W22038   0.587  23.120  14.477
50423W        W22039  38.006  44.686  13.532
50424W        W22040  11.430  34.491  12.543
50425W        W22041  19.783  36.231  13.319
50426W        W22042  19.707  34.203   2.812
50427W        W22043   8.309  21.301   1.424
50428W        W22044  24.535  15.862   2.398
50429W        W22045  25.056  26.691   0.795
50430W        W22046  26.100  22.155   2.772
50431W        W22047  16.772  29.413  12.827
50432W        W22048  13.988  32.811  13.684
50433W        W22049  19.096  16.122   0.305
50434W        W22050  29.066  16.810  12.563
50435W        W22051  23.315  11.240  14.064
50436W        W22052   4.307   8.331  14.254
50437W        W22053  44.445   8.688   4.603
50438W        W22054  40.849   6.097   0.647
50439W        W22055  42.330   2.795  13.854
50440W        W22056  12.687   5.288   4.535
50441W        W22057  14.215  19.829   2.367
50442W        W22058  39.931   4.461   3.585
50443W        W22059   2.560   3.330   0.239
50444W        W22060  11.734  23.730   4.890
50445W        W22061  36.100  12.379  12.436
50446W        W22062  31.026  25.491   1.768
50447W        W22063  39.721  37.961   3.734
50448W        W22064   0.687  41.114  11.034
50449W        W22065   3.253  17.491   2.771
50450W        W22066  35.679  24.717  14.336
50451W        W22067  16.617  35.350   0.731
50452W        W22068  28.012  33.520  14.321
50453W        W22069  44.515  19.519  13.372
50454W        W22070  22.965  18.859   3.192
50455W        W22071  19.143  30.453   0.685
50456W        W22072  43.999  39.874   0.545
50457W        W22073  23.215   8.004  13.932
50458W        W22074  13.745  37.522   4.142
50459W        W22075  19.144  33.906  11.120
50460W        W22076  16.147  37.777  14.820
50461W        W22077  37.915  13.728  13.883
50462W        W22078   7.761  34.586   4.879
50463W        W22079   3.664  28.123   1.207
50464W        W22080  18.651  24.391  12.558
50465W        W22081   7.812   6.722   0.167
50466W        W22082   4.121   5.197   1.937
50467W        W22083  41.539  34.447  14.899
50468W        W22084  24.246  23.025   2.312
50469W        W22085   5.174  26.085   1.584
50470W        W22086  32.866  41.405   3.975
50471W        W22087  28.525  34.764   4.063
50472W        W22088   0.214  15.817   0.532
50473W        W22089   1.757  33.988  12.875
50474W        W22090  23.671   0.440  13.998
50475W        W22091  31.549   4.870  13.823
50476W        W22092  11.191  24.994  10.391
50477W        W22093  28.190  19.209   4.434
50478W        W22094  12.787  26.115   2.468
50479W        W22095  19.502   4.358  10.741
50480W        W22096   6.073   4.953  13.772
50481W        W22097  18.773   8.776   2.371
50482W        W22098  11.815  35.995   0.033
50483W        W22099   4.010   1.586   5.036
50484W        W22100  14.981  30.179  11.061
50485W        W22101   2.008  30.040  10.605
50486W        W22102  42.752   6.738   3.218
50487W        W22103   0.836  30.609  12.225
50488W        W22104  16.050   6.351  12.414
50489W        W22105  41.959  29.374  12.860
50490W        W22106  36.544  10.488   2.179
50491W        W22107   2.360  40.560  10.574
50492W        W22108  29.335  22.268   4.843
50493W        W22109  35.363  29.311  12.167
50494W        W22110   7.145  19.600  13.614
50495W        W22111  22.381  13.413   2.742
50496W        W22112  10.407  32.126  13.029
50497W        W22113  16.781  22.642  11.033
50498W        W22114  28.686  31.552  13.321
50499W        W22115  44.755  11.229  12.444
50500W        W22116  33.611  38.793   3.692
50501W        W22117  40.928  28.861   3.478
50502W        W22118  39.373   0.889  10.944
50503W        W22119   6.367   1.518  13.002
50504W        W22120  41.972  33.925  14.519
50505W        W22121  26.726  34.470   3.923
50506W        W22122  29.603  12.396  12.946
50507W        W22123   4.359  15.290   2.200
50508W        W22124  31.807   7.261   2.183
50509W        W22125  36.147   6.899   0.453
50510W        W22126  39.027  19.331   2.833
50511W        W22127  31.399   8.476  11.136
50512W        W22128  26.145  13.858   0.304
50513W        W22129  22.234  10.055   1.870
50514W        W22130  36.372  23.108   3.839
50515W        W22131  29.951  31.579   0.070
50516W        W22132  37.086   1.654   2.733
50517W        W22133  41.344  18.869   0.847
50518W        W22134  37.422   1.244  11.571
50519W        W22135  15.877  31.173  10.935
50520W        W22136  32.453  10.355  10.655
50521W        W22137  12.697  33.111  13.055
50522W        W22138  42.300   7.206   1.882
50523W        W22139  20.503  38.831   3.813
50524W        W22140  18.659  16.614   4.307
50525W        W22141  26.070  30.974   1.802
50526W        W22142  33.302   4.944   1.979
50527W        W22143  42.482  24.439   4.139
50528W        W22144  12.256  27.662  11.611
50529W        W22145  25.343   6.244  13.411
50530W        W22146  37.300  39.106   3.219
50531W        W22147  23.987   7.372   4.397
50532W        W22148  27.624  38.500   2.350
50533W        W22149  33.899  26.186   2.373
50534W        W22150   9.925  12.326   2.417
50535W        W22151  13.343  38.416  13.344
50536W        W22152  17.973   5.977   3.817
50537W        W22153  42.300  37.288  10.702
50538W        W22154  42.413  37.016  10.271
50539W        W22155  37.396  23.197   1.233
50540W        W22156  43.782   2.335   3.668
50541W        W22157  32.012  17.265   4.875
50542W        W22158   7.722  21.940   4.178
50543W        W22159  40.257   1.233  12.485
50544W        W22160  39.782  23.166   0.334
50545W        W22161  33.127  40.627   1.877
50546W        W22162  22.969   3.402  14.919
50547W        W22163  13.289  40.855   4.235
50548W        W22164   5.720  20.141   0.787
50549W        W22165   4.871  41.598  12.127
50550W        W22166   4.885  27.925   4.489
50551W        W22167  41.906  41.302  12.888
50552W        W22168  27.067   7.661   0.807
50553W        W22169   6.137  21.245   2.347
50554W        W22170  10.682  35.871  12.831
50555W        W22171  30.063  29.085   2.306
50556W        W22172   6.406  20.599  12.040
50557W        W22173  42.811  13.237   4.845
50558W        W22174  27.467  39.570   1.836
50559W        W22175  18.337  42.937  14.353
50560W        W22176   4.382   5.364   2.358
50561W        W22177   7.668  32.143   4.035
50562W        W22178  34.616   3.194  13.611
50563W        W22179  34.099  10.319  11.102
50564W        W22180  13.595   5.905  11.323
50565W        W22181  40.535  31.012  12.991
50566W        W22182  16.754  16.214  10.339
50567W        W22183  13.831   7.237  11.799
50568W        W22184  12.223  43.690  11.272
50569W        W22185  27.647  38.036   1.432
50570W        W22186  33.090  25.908  11.619
50571W        W22187   3.645  23.403  11.149
50572W        W22188   9.199  43.026   0.211
50573W        W22189  42.958   1.707  11.630
50574W        W22190  41.642  21.109  12.428
50575W        W22191  16.308  10.393  12.060
50576W        W22192  20.487  25.261   2.623
50577W        W22193  30.960  24.279  11.205
50578W        W22194  25.523  22.076   3.640
50579W        W22195  33.582  29.178   0.428
50580W        W22196  39.082  23.098  14.805
50581W        W22197  36.470  22.575  10.218
50582W        W22198   5.166  23.964  12.415
50583W        W22199  26.217  32.032  11.907
50584W        W22200  13.841  43.240  11.961
50585W        W22201  28.985  28.496  11.617
50586W        W22202  20.971  25.519   4.536
50587W        W22203  36.223  11.301  12.426
50588W        W22204   9.246  14.510  12.849
50589W        W22205  26.556  15.867  10.015
50590W        W22206  12.693  30.079  12.425
50591W        W22207  21.421  23.191  12.969
50592W        W22208  20.480   6.485  13.584
50593W        W22209  43.822  32.079   3.180
50594W        W22210  35.976  42.052   2.185
50595W        W22211  37.876  16.766   4.677
50596W        W22212  12.345  27.419   4.214
50597W        W22213  39.410  32.587  11.625
50598W        W22214  26.764   7.775  13.366
50599W        W22215   5.029  26.164  14.915
50600W        W22216   0.803  39.228   5.110
50601W        W22217   6.179  20.220  11.669
50602W        W22218  36.126  19.842   0.877
50603W        W22219  33.056   9.900  13.487
50604W        W22220  17.834  27.693   1.307
50605W        W22221   2.461   7.357   0.983
50606W        W22222  37.507   5.318   4.400
50607W        W22223  42.372  30.377   1.798
50608W        W22224  40.555  43.062   1.466
50609W        W22225  25.648  23.205   3.419
50610W        W22226  22.198  17.321   4.620
50611W        W22227   3.947  37.265  11.331
50612W        W22228   8.083  15.081  11.889
50613W        W22229  19.206  37.362   2.795
50614W        W22230  15.586  40.750  12.509
50615W        W22231  28.378  36.988  12.832
50616W        W22232  21.219  20.495   4.842
50617W        W22233  32.511  27.879   5.249
50618W        W22234   5.950  18.256  10.765
50619W        W22235  34.720  40.147  12.626
50620W        W22236  31.622  33.053  12.109
50621W        W22237  41.448   4.348   0.740
50622W        W22238   3.664   3.784  12.162
50623W        W22239  18.739  43.968   4.472
50624W        W22240  11.114  12.146  13.775
50625W        W22241  18.790  18.257  10.944
50626W        W22242  29.560   0.386  11.613
50627W        W22243  11.355  41.167   1.492
50628W        W22244  14.168  12.191  12.616
50629W        W22245  30.895   2.992   0.669
50630W        W22246  26.263  27.306   4.986
50631W        W22247  23.515  19.054   0.390
50632W        W22248  18.002  44.832   1.017
50633W        W22249   9.820   4.847   3.629
50634W        W22250  39.263  41.951  11.893
50635W        W22251  43.410  37.801   3.257
50636W        W22252   2.000  33.521   0.813
50637W        W22253  32.898  38.279  10.677
50638W        W22254  44.354  29.237   1.279
50639W        W22255   0.081  43.503   3.770
50640W        W22256  34.424   9.898  12.964
50641W        W22257  14.908  20.495   3.448
50642W        W22258  42.970   4.721   1.195
50643W        W22259  39.962  29.814   3.708
50644W        W22260  17.234   1.879  11.655
50645W        W22261   2.356   0.400   4.052
50646W        W22262   9.103  14.835   1.236
50647W        W22263   3.880  14.376   4.564
50648W        W22264  25.172   2.751   3.418
50649W        W22265   3.817  34.109   4.444
50650W        W22266  20.512  12.207  13.042
50651W        W22267  18.385  28.006   3.133
50652W        W22268  42.035  36.641   3.698
50653W        W22269  29.391   1.937   2.812
50654W        W22270  44.860  23.817  11.116
50655W        W22271   3.015  21.695  14.955
50656W        W22272  36.500   3.926  14.275
50657W        W22273  34.808   0.716   3.051
50658W        W22274  31.643  33.402  11.559
50659W        W22275  42.335  32.353   1.236
50660W        W22276   8.843   7.326   3.407
50661W        W22277   4.774  18.331   0.405
50662W        W22278  38.061  20.826  13.391
50663W        W22279   1.837   5.972  13.170
50664W        W22280   7.598  28.634   4.155
50665W        W22281  29.176   0.926   4.127
50666W        W22282  40.507  31.899  11.061
50667W        W22283   4.018   1.978  14.968
50668W        W22284  14.835  12.209  12.010
50669W        W22285   6.303   4.909   1.012
50670W        W22286  23.137   6.432   4.975
50671W        W22287  22.261  25.027   3.059
50672W        W22288  40.599  10.270   0.803
50673W        W22289  27.213  19.452   1.397
50674W        W22290   8.352  41.449   2.206
50675W        W22291  39.840  42.706  12.930
50676W        W22292  19.528  18.695  13.573
50677W        W22293  30.862  36.462   2.613
50678W        W22294  16.823  16.115   3.281
50679W        W22295  33.590   3.265  11.567
50680W        W22296  37.424   8.767  12.208
50681W        W22297  36.883  44.894   1.963
50682W        W22298  16.797  15.047   2.767
50683W        W22299  30.155  43.088  14.376
50684W        W22300  16.936  43.303  13.252
50685W        W22301  38.772  17.282  12.865
50686W        W22302  16.197  20.267   0.851
50687W        W22303  33.469  13.657  10.616
50688W        W22304  38.632  13.797  11.136
50689W        W22305   2.674  14.558   1.429
50690W        W22306   0.218  33.101   4.615
50691W        W22307   9.137   1.561  12.507
50692W        W22308  21.729  22.099   1.907
50693W        W22309  35.506  41.399  12.452
50694W        W22310  13.901  25.561  10.636
50695W        W22311  11.866  33.691   4.229
50696W        W22312   4.050   8.622   5.021
50697W        W22313   5.457  44.067   0.640
50698W        W22314   1.076  21.110  13.482
50699W        W22315  18.762  29.989  14.558
50700W        W22316  14.940  44.426  11.481
50701W        W22317  44.773  25.843  12.535
50702W        W22318  26.435  15.550  13.418
50703W        W22319  23.490  21.005  10.977
50704W        W22320  25.086  24.220   2.340
50705W        W22321  32.969  29.595   1.460
50706W        W22322  31.721  25.636   2.397
50707W        W22323   2.523  38.820  12.812
50708W        W22324  30.015  44.156   4.654
50709W        W22325  25.584  35.356   2.201
50710W        W22326   5.475   7.778  13.537
50711W        W22327   9.451  12.198   2.692
50712W        W22328  28.900  43.333  10.642
50713W        W22329  40.098  40.727  11.484
50714W        W22330  18.956  26.221   2.163
50715W        W22331  40.817  35.012   1.681
50716W        W22332  31.657  36.969  13.432
50717W        W22333  18.334  34.951   3.787
50718W        W22334  30.091   5.946   4.109
50719W        W22335  35.746  17.095   1.933
50720W        W22336  26.030  17.818  14.331
50721W        W22337  38.758  42.994   1.354
50722W        W22338   5.553  28.144   4.837
50723W        W22339  29.368  44.875  11.223
50724W        W22340  25.805   9.720  14.444
50725W        W22341  38.024  41.212  10.975
50726W        W22342  36.176  24.108   2.359
50727W        W22343  40.033  38.829  11.514
50728W        W22344  39.181   2.956   3.108
50729W        W22345  42.501  42.914   1.450
50730W        W22346  13.876  32.546  10.631
50731W        W22347  41.125  22.479  11.980
50732W        W22348   2.002  18.415   2.854
50733W        W22349  25.101  26.218  12.053
50734W        W22350  25.501  21.637   3.909
50735W        W22351  17.295  17.504   4.598
50736W        W22352  42.771  30.929   5.116
50737W        W22353  12.726  19.030  13.033
50738W        W22354  29.154  35.632   3.175
50739W        W22355  35.036  18.368   0.084
50740W        W22356   5.894   8.617   3.294
50741W        W22357  33.172  33.432   2.929
50742W        W22358  24.065   6.884   2.225
50743W        W22359  41.356  20.304   1.656
50744W        W22360   8.773  41.583  13.354
50745W        W22361   2.788  16.354   0.437
50746W        W22362  24.040   9.773   3.234
50747W        W22363  35.586  24.333  13.460
50748W        W22364  12.342  16.638  13.889
50749W        W22365   6.301   6.964  11.549
50750W        W22366  31.845  43.066  11.416
50751W        W22367  24.320   5.915  12.515
50752W        W22368  24.013  38.547  14.257
50753W        W22369  16.548  38.883  14.402
50754W        W22370   9.171   1.016  14.732
50755W        W22371  40.835  32.710  14.779
50756W        W22372  38.067  22.941   4.274
50757W        W22373  29.995  26.755   0.400
50758W        W22374   0.500   6.241  12.343
50759W        W22375  24.212  27.732   3.297
50760W        W22376  12.281   0.909  11.679
50761W        W22377  14.316  39.833  13.940
50762W        W22378   9.800   5.307   3.892
50763W        W22379  11.746  27.093   2.957
50764W        W22380  19.058  32.447  10.592
50765W        W22381  12.222  39.926   3.081
50766W        W22382  44.410  11.171   4.172
50767W        W22383  17.002  43.244   1.322
50768W        W22384  17.563  43.907   0.873
50769W        W22385  28.943   9.721   3.462
50770W        W22386  16.863  33.180  14.104
50771W        W22387  19.504  10.122   5.147
50772W        W22388  23.155  25.964   0.534
50773W        W22389  26.433  29.982   3.149
50774W        W22390   1.524  38.348  11.141
50775W        W22391   5.848  44.975   2.716
50776W        W22392  36.536  21.678   3.772
50777W        W22393  22.680  10.853   1.888
50778W        W22394  23.569   1.994  13.430
50779W        W22395  31.640  20.101   0.353
50780W        W22396   4.742  26.928  11.149
50781W        W22397  14.618   0.151  10.826
50782W        W22398  36.132  13.837  13.559
50783W        W22399   3.269  10.703  12.195
50784W        W22400  33.886   4.329   0.139
50785W        W22401  31.624  17.227  10.722
50786W        W22402  22.415  18.913  12.081
50787W        W22403  18.785   2.890   1.876
50788W        W22404  30.669   6.882  12.449
50789W        W22405  30.976   1.428   5.059
50790W        W22406   7.442  40.974  14.348
50791W        W22407  22.215  10.717   3.866
50792W        W22408   7.930  24.030   1.201
50793W        W22409  24.678  33.626  12.494
50794W        W22410  15.221   3.455   4.805
50795W        W22411   5.916  18.978  13.447
50796W        W22412   9.841  41.903   0.301
50797W        W22413  38.788  14.518  11.662
50798W        W22414  20.613  15.639  13.919
50799W        W22415  33.126  10.597   1.079
50800W        W22416  35.541  26.748   0.112
50801W        W22417  24.561  33.535  11.576
50802W        W22418  37.339   0.878   2.400
50803W        W22419  26.348  19.536   5.023
50804W        W22420  15.706  24.552   2.630
50805W        W22421   5.396  23.700   1.470
50806W        W22422  17.094  13.489  13.576
50807W        W22423  16.739  15.139  14.232
50808W        W22424  43.134  10.065  14.249
50809W        W22425  14.998   5.714   1.770
50810W        W22426  16.686   3.821  11.436
50811W        W22427  12.804  38.591   4.112
50812W        W22428  18.074  16.624  14.610
50813W        W22429  31.607  33.906   0.205
50814W        W22430  39.514   2.402   1.800
50815W        W22431  32.582  29.196   0.437
50816W        W22432  24.479   7.178   2.907
50817W        W22433  10.194  32.616   3.701
50818W        W22434  30.359  44.916   2.925
50819W        W22435  11.842  36.019  10.069
50820W        W22436   7.451  43.662  11.130
50821W        W22437  20.251  23.698   4.842
50822W        W22438  20.130  23.861  11.474
50823W        W22439  12.293  26.492   3.353
50824W        W22440   8.288  42.017   3.101
50825W        W22441  42.881   6.243  14.520
50826W        W22442  30.315  20.157   4.274
50827W        W22443  11.574  38.436   2.823
50828W        W22444  10.244  12.196   0.066
50829W        W22445   1.115  41.458  11.089
50830W        W22446  37.589  15.349   4.142
50831W        W22447  40.493  10.910   4.559
50832W        W22448  39.281  38.285   2.333
50833W        W22449  21.724  33.167   0.292
50834W        W22450  37.298  25.639   2.671
50835W        W22451  25.555  11.998  14.268
50836W        W22452  34.098  38.514  11.876
50837W        W22453  26.057  10.349  13.374
50838W        W22454  33.512   0.834  13.558
50839W        W22455  44.125  44.895  11.079
50840W        W22456  15.041  17.773   2.112
50841W        W22457  32.809  35.554   3.790
50842W        W22458   5.770  32.353  11.938
50843W        W22459   5.295  23.236   3.448
50844W        W22460  19.624   0.812   3.231
50845W        W22461  40.097  20.520   0.783
50846W        W22462  42.041  39.979   1.472
50847W        W22463   1.318  31.423   2.417
50848W        W22464  35.927  15.782   2.040
50849W        W22465  40.615   9.134   2.300
50850W        W22466  19.678  34.946   3.606
50851W        W22467   5.811   2.803  13.608
50852W        W22468  35.882  12.067  12.030
50853W        W22469  39.368   5.976  12.553
50854W        W22470  23.029  25.201   2.367
50855W        W22471  19.730  20.603   3.181
50856W        W22472  33.190  34.413  12.281
50857W        W22473  14.097  20.228  13.832
50858W        W22474   9.003   0.363  13.777
50859W        W22475  34.923  42.825   9.915
50860W        W22476  36.427  32.886  10.710
50861W        W22477  12.948  12.267  11.900
50862W        W22478  32.005  34.187  14.418
50863W        W22479  39.496   3.859  13.124
50864W        W22480   8.390  37.119  10.451
50865W        W22481  28.085  24.715   2.371
50866W        W22482   5.861  21.637   4.723
50867W        W22483  13.670  36.566  14.977
50868W        W22484  24.714  42.611  11.197
50869W        W22485  40.281   2.298   3.404
50870W        W22486  36.841  30.874   3.689
50871W        W22487   5.666  34.838  11.867
50872W        W22488  42.785  26.108  11.181
50873W        W22489   2.078  44.455   0.591
50874W        W22490   1.785  38.903  12.438
50875W        W22491   4.844  42.448   4.637
50876W        W22492  30.385   0.556  13.507
50877W        W22493  28.252  12.553   4.645
50878W        W22494  34.089  33.959  13.570
50879W        W22495   8.577  28.226  14.590
50880W        W22496   4.309   9.329   1.779
50881W        W22497  11.473   4.433  14.370
50882W        W22498   0.488   7.899   0.070
50883W        W22499  12.701  39.861  13.176
50884W        W22500  13.693  25.902   0.455
50885W        W22501  11.855   3.021   2.473
50886W        W22502   9.257   8.805   4.752
50887W        W22503  25.708  41.106   2.720
50888W        W22504  13.626   9.847   0.849
50889W        W22505   6.580  37.019   4.151
50890W        W22506  14.058  16.517   0.167
50891W        W22507   8.488  41.821  14.219
50892W        W22508  24.101   3.616   4.515
50893W        W22509   8.772  37.586   0.825
50894W        W22510  27.585  21.655   0.269
50895W        W22511  30.048   1.148   0.569
50896W        W22512  36.213  44.271  12.009
50897W        W22513  13.650  10.698  10.733
50898W        W22514  26.950  20.743   1.665
50899W        W22515  36.816  20.031   3.837
50900W        W22516  37.339  44.712   4.559
50901W        W22517   0.635  12.301  11.150
50902W        W22518  35.343  12.671   1.192
50903W        W22519  34.512  16.390   1.733
50904W        W22520  41.475  22.234  14.041
50905W        W22521  28.985  34.594   0.457
50906W        W22522  21.193  37.369   1.435
50907W        W22523  11.205  35.503  11.078
50908W        W22524  24.440  34.344  14.777
50909W        W22525  42.782  19.274  11.278
50910W        W22526  23.777  28.103   0.660
50911W        W22527   1.013  40.377  14.832
50912W        W22528  36.434  29.373   0.963
50913W        W22529  29.989  13.501   3.681
50914W        W22530  44.468   6.959  12.630
50915W        W22531  34.817  38.971   1.276
50916W        W22532   2.765  15.259   4.628
50917W        W22533  43.880   2.913   4.767
50918W        W22534   0.644  37.393  14.150
50919W        W22535   9.298  37.116  14.999
50920W        W22536  37.047  32.558  14.568
50921W        W22537  19.082  22.917  14.444
50922W        W22538  28.086  19.234  13.627
50923W        W22539   3.497  32.037   0.013
50924W        W22540  29.123  22.214  11.992
50925W        W22541  35.989  28.478  10.750
50926W        W22542   9.682  12.297   0.420
50927W        W22543  15.653  19.302  11.605
50928W        W22544  11.324  44.479   4.805
50929W        W22545  35.542  14.333  11.958
50930W        W22546  29.458  31.936   2.540
50931W        W22547   7.883  20.014  14.572
50932W        W22548  30.963   2.173  10.591
50933W        W22549  15.632  35.865   4.312
50934W        W22550   8.639   6.326  12.170
50935W        W22551  33.565  38.949  14.551
50936W        W22552   7.766  22.126  14.993
50937W        W22553   5.522  24.686  11.438
50938W        W22554  29.923  35.430  13.785
50939W        W22555  31.844  22.194   0.885
50940W        W22556  37.619  44.518  12.048
50941W        W22557  13.388  44.360   4.557
50942W        W22558  21.732  25.965  11.129
50943W        W22559  41.468  32.176   4.865
50944W        W22560   2.080  31.326   1.371
50945W        W22561  14.278  37.707  13.822
50946W        W22562   8.432   0.463  12.436
50947W        W22563  21.373  43.087   2.789
50948W        W22564   9.055  20.185   4.963
50949W        W22565  30.773  41.957  14.916
50950W        W22566   3.141  38.451  14.948
50951W        W22567  28.796  39.062   4.613
50952W        W22568   6.143   4.179   1.740
50953W        W22569  16.000  37.111   2.306
50954W        W22570  10.887   6.558   1.376
50955W        W22571  10.728  40.579   1.108
50956W        W22572  19.998   5.260  12.565
50957W        W22573   1.874  43.600   9.652
50958W        W22574   7.239  33.149  11.128
50959W        W22575  17.215  11.090  13.341
50960W        W22576  36.355  11.617   4.346
50961W        W22577  37.453   2.558   3.631
50962W        W22578   6.577  15.813  14.347
50963W        W22579   3.399  20.187   1.966
50964W        W22580  41.081   7.379   3.455
50965W        W22581  42.552  19.604  14.813
50966W        W22582  17.018  12.473  14.525
50967W        W22583  41.731  30.985   2.246
50968W        W22584  16.805   1.746  10.682
50969W        W22585  37.793  26.142  13.145
50970W        W22586  43.265   1.587  12.090
50971W        W22587  13.150  26.146   3.075
50972W        W22588   4.851  44.061  13.816
50973W        W22589  28.135  24.379   4.742
50974W        W22590  40.110  12.411   4.207
50975W        W22591  35.582   6.415  14.647
50976W        W22592  39.914  12.438   0.465
50977W        W22593  20.131  22.761  10.436
50978W        W22594  10.235  37.199  12.354
50979W        W22595  17.449   5.296  11.526
50980W        W22596   8.935  10.313  11.146
50981W        W22597  43.328  39.266   2.333
50982W        W22598  27.466  27.950   4.685
50983W        W22599  17.590  13.270   1.604
50984W        W22600   1.764  43.765   0.795
50985W        W22601  34.626  38.339  14.018
50986W        W22602   8.320  10.732   4.250
50987W        W22603   3.920  14.551  13.451
50988W        W22604  19.263  41.281   1.779
50989W        W22605  25.620   6.962   1.297
50990W        W22606  18.644  17.581  13.277
50991W        W22607  43.456   5.413  14.858
50992W        W22608  38.716  29.382   0.813
50993W        W22609  35.520  12.860   0.240
50994W        W22610   7.666  11.054   1.740
50995W        W22611   5.937  34.077   1.736
50996W        W22612  31.438  15.184   2.254
50997W        W22613  21.023   6.344  10.673
50998W        W22614  25.167  16.809   0.955
50999W        W22615  13.893  44.302   1.848
51000W        W22616  38.633  15.664   3.755
51001W        W22617   2.784  32.023  10.126
51002W        W22618  10.882  34.472   0.726
51003W        W22619  28.073  29.707   1.342
51004W        W22620  24.001  16.930   4.082
51005W        W22621  21.020  29.971  13.122
51006W        W22622  33.677  29.673  10.764
51007W        W22623   1.839  13.822   1.841
51008W        W22624  20.102  32.581  12.000
51009W        W22625  10.882  14.323  12.532
51010W        W22626  33.007   9.158  12.879
51011W        W22627  24.241  26.032  14.768
51012W        W22628   6.613  18.781   0.766
51013W        W22629  31.037  40.373  12.554
51014W        W22630  29.028  22.146   3.028
51015W        W22631  23.659  12.617   3.587
51016W        W22632  31.619  29.402   1.142
51017W        W22633  31.912  37.568   0.263
51018W        W22634  25.688   9.068   0.179
51019W        W22635  27.520  13.184  11.116
51020W        W22636  20.304  44.358   4.566
51021W        W22637  37.073  40.904   0.815
51022W        W22638   7.230   2.705  14.425
51023W        W22639   2.084  21.206  11.532
51024W        W22640  37.011   3.351   3.393
51025W        W22641   6.201  42.257   0.824
51026W        W22642  18.569  12.078   2.819
51027W        W22643  42.224  11.511   3.122
51028W        W22644  29.429   7.605   5.192
51029W        W22645  25.781  30.787  12.021
51030W        W22646  25.327  41.404   3.577
51031W        W22647  41.461  36.343  14.936
51032W        W22648  36.042  17.278   0.207
51033W        W22649   0.878   2.342   4.610
51034W        W22650  31.205   5.450  13.346
51035W        W22651  37.803  43.268   1.301
51036W        W22652  40.103  35.247   3.423
51037W        W22653  25.003  16.303  14.099
51038W        W22654  33.467  43.963   0.857
51039W        W22655   7.777  27.523  10.872
51040W        W22656  34.263  38.409  12.594
51041W        W22657  21.809  34.410  12.279
51042W        W22658  16.218  27.725  12.934
51043W        W22659   2.948  42.254  11.734
51044W        W22660  29.018  35.934  13.928
51045W        W22661  28.994   4.781   0.812
51046W        W22662  42.724  35.660   4.043
51047W        W22663   1.338  14.101  11.165
51048W        W22664   4.476  34.326  11.482
51049W        W22665  39.514  11.096   4.565
51050W        W22666  13.340  27.555   0.427
51051W        W22667  31.138  37.874  13.452
51052W        W22668   5.852   5.867  12.676
51053W        W22669  24.270  39.297   2.764
51054W        W22670  40.858  25.908   1.712
51055W        W22671  12.920  32.257  10.941
51056W        W22672  19.516  36.436   1.263
51057W        W22673  26.762   1.801  12.999
51058W        W22674  42.401  39.148   0.192
51059W        W22675  16.722  10.820  11.458
51060W        W22676  11.849  23.741   3.214
51061W        W22677   0.299   7.780   3.916
51062W        W22678   7.428   1.218  14.404
51063W        W22679  42.686  33.835  11.567
51064W        W22680  32.078  40.574  14.795
51065W        W22681   2.735   5.890  13.368
51066W        W22682   3.838  14.937   3.638
51067W        W22683  15.214   9.301   1.915
51068W        W22684  18.085  39.956   4.831
51069W        W22685   6.888   4.848  14.776
51070W        W22686   2.698  24.122   4.543
51071W        W22687  29.230  44.340   0.886
51072W        W22688  38.254  25.984   0.798
51073W        W22689  37.802  20.587  13.004
51074W        W22690  36.923  42.777  11.431
51075W        W22691   1.256  20.006  14.546
51076W        W22692  29.844  40.108  14.891
51077W        W22693  37.875  23.613  14.118
51078W        W22694  18.420   5.894   3.604
51079W        W22695  10.055   9.229   4.551
51080W        W22696   0.697  14.198   1.507
51081W        W22697  24.213  26.372  11.350
51082W        W22698  26.854  43.307  13.358
51083W        W22699  25.689  28.529  10.479
51084W        W22700  12.444  15.853  12.948
51085W        W22701  38.525  28.322  13.005
51086W        W22702   2.736  30.287   0.734
51087W        W22703  23.439  16.039  12.003
51088W        W22704   9.390  11.883   0.345
51089W        W22705   5.426   1.931  14.051
51090W        W22706  17.557  22.641  14.323
51091W        W22707  26.643   2.332   0.998
51092W        W22708  12.588  39.671   2.804
51093W        W22709  35.655  28.243   2.323
51094W        W22710  32.507  40.627   4.567
51095W        W22711  11.324  40.334  14.425
51096W        W22712  15.305   4.264  14.398
51097W        W22713  25.226  11.384   2.081
51098W        W22714   2.419  43.439   3.157
51099W        W22715  29.379   0.653   3.727
51100W        W22716  34.954  16.525   0.374
51101W        W22717  25.021   8.986  12.204
51102W        W22718   3.304  38.100  12.089
51103W        W22719  44.310  14.876  12.969
51104W        W22720   9.020  15.972  13.314
51105W        W22721  28.551  19.138  13.894
51106W        W22722  16.809  38.955   1.241
51107W        W22723  42.224  38.013   4.626
51108W        W22724  32.582   6.258   2.367
51109W        W22725   6.942   2.875   0.058
51110W        W22726  11.361  34.896  10.488
51111W        W22727  20.076  12.847   1.681
51112W        W22728  26.514  34.416   3.022
51113W        W22729  14.773  38.806  12.961
51114W        W22730  42.297  33.378  10.698
51115W        W22731  24.375  28.531   3.829
51116W        W22732   8.867  40.586   4.061
51117W        W22733  25.973  44.426  13.026
51118W        W22734  20.157  25.565   2.318
51119W        W22735  19.361  44.413   1.837
51120W        W22736  29.201  43.711  13.133
51121W        W22737   4.828  12.482  13.716
51122W        W22738  22.743  31.111   1.876
51123W        W22739  19.200   9.914  13.199
51124W        W22740  18.241  21.478   0.351
51125W        W22741  43.385   0.551   1.929
51126W        W22742  12.525  24.436  12.861
51127W        W22743  12.467   9.245  11.242
51128W        W22744  30.821  20.669   4.650
51129W        W22745  26.163  33.711  11.541
51130W        W22746  39.050  15.035  11.737
51131W        W22747  26.213  35.290   3.653
51132W        W22748  16.658  17.545  11.603
51133W        W22749  21.119  13.767  12.956
51134W        W22750   7.985  15.168  12.494
51135W        W22751  33.958   4.443   1.421
51136W        W22752  29.928  27.353   3.648
51137W        W22753  39.267  12.220   3.619
51138W        W22754  26.551  11.845  11.529
51139W        W22755   6.315  40.509  13.102
51140W        W22756  27.212  39.095  13.969
51141W        W22757   5.435  11.808  10.607
51142W        W22758  41.734  37.046   1.222
51143W        W22759   5.692  19.671   3.271
51144W        W22760  21.569  32.999  14.177
51145W        W22761  15.840   4.105   5.276
51146W        W22762   5.323  15.754   2.351
51147W        W22763  12.463  37.440   3.614
51148W        W22764   4.131  23.562  11.108
51149W        W22765  29.242  35.309   2.241
51150W        W22766  21.151   1.500  10.728
51151W        W22767  19.774  35.939  13.742
51152W        W22768  17.702  36.056  13.932
51153W        W22769  12.075  35.204  14.977
51154W        W22770  42.614  37.486   3.884
51155W        W22771   8.113  43.014   3.668
51156W        W22772   7.827   5.585   0.405
51157W        W22773   8.208  20.467  13.461
51158W        W22774  43.234   1.710  14.943
51159W        W22775  40.006  26.727   4.758
51160W        W22776   1.280  37.918  13.002
51161W        W22777  33.071   2.800   1.670
51162W        W22778  44.497  40.607  13.045
51163W        W22779  14.617  19.613   0.619
51164W        W22780  31.693  20.989   4.987
51165W        W22781  42.082  38.176  12.890
51166W        W22782  23.558   6.701   3.948
51167W        W22783  44.463  23.223  14.843
51168W        W22784  16.955  25.544  11.083
51169W        W22785   0.803  32.624  14.712
51170W        W22786  39.281  42.422  10.711
51171W        W22787  10.605   6.889   1.050
51172W        W22788  34.041  26.490  11.418
51173W        W22789  35.011   4.869  13.478
51174W        W22790   4.971  15.181   1.862
51175W        W22791  14.803  20.230  12.607
51176W        W22792   0.739  33.255   3.262
51177W        W22793   4.454  35.484  11.907
51178W        W22794  35.461  27.017  12.434
51179W        W22795  39.974  36.177  14.856
51180W        W22796  15.116  37.780   3.288
51181W        W22797   1.145  22.666  12.483
51182W        W22798   9.264  16.636   3.679
51183W        W22799  28.695  36.607   4.126
51184W        W22800   0.849  39.592   1.509
51185W        W22801  39.532  28.345   0.324
51186W        W22802  25.707  10.364  10.699
51187W        W22803  38.651  30.458  10.458
51188W        W22804  21.728  30.984   1.697
51189W        W22805  30.072  42.576  14.464
51190W        W22806  31.418  33.185  13.899
51191W        W22807  21.351  35.710   2.839
51192W        W22808   5.294  44.246   4.350
51193W        W22809  37.739  10.747   9.843
51194W        W22810  13.791  10.844   2.909
51195W        W22811   3.400  34.565  13.282
51196W        W22812  34.493  34.195   2.494
51197W        W22813  25.407  15.655  13.618
51198W        W22814  27.262  19.094  14.740
51199W        W22815  31.582  24.928   0.969
51200W        W22816  36.548  35.051   1.911
51201W        W22817  14.658  29.385   2.842
51202W        W22818  44.463  14.681  11.844
51203W        W22819  27.013  10.149  13.897
51204W        W22820  41.012  11.378   2.183
51205W        W22821   3.867  27.170  11.049
51206W        W22822  28.912  13.524   3.690
51207W        W22823  35.467   2.417  12.081
51208W        W22824  37.639  17.374   2.190
51209W        W22825   5.336   8.585  14.550
51210W        W22826  33.664  34.900   0.339
51211W        W22827   4.813  34.425  11.095
51212W        W22828  32.479   6.384  12.276
51213W        W22829  29.848  32.322  13.848
51214W        W22830  42.813   5.790   3.664
51215W        W22831   0.734  29.183   1.864
51216W        W22832  44.593   0.153  11.109
51217W        W22833  29.598  18.548   1.387
51218W        W22834  29.940  44.851   3.241
51219W        W22835  44.640  32.760  14.440
51220W        W22836  39.319  27.158  11.711
51221W        W22837  44.451   4.591   4.169
51222W        W22838  29.215  17.651  13.435
51223W        W22839   6.459  13.712   1.930
51224W        W22840  15.697   5.692  10.682
51225W        W22841  30.728   8.828  10.623
51226W        W22842  17.354  16.780   0.312
51227W        W22843  35.417  21.054   3.738
51228W        W22844  10.876   1.895  11.128
51229W        W22845   3.785  11.156  13.999
51230W        W22846  14.580   3.883   0.343
51231W        W22847  40.473  18.756   0.919
51232W        W22848   1.767  15.142  11.243
51233W        W22849  25.203  26.564   5.076
51234W        W22850  11.778   9.145   5.080
51235W        W22851  17.366  16.226   4.185
51236W        W22852  10.111  41.992  14.842
51237W        W22853  34.149  37.518   0.394
51238W        W22854  41.007   3.157   1.654
51239W        W22855   3.047  27.841  11.234
51240W        W22856  36.864  42.381   2.589
51241W        W22857   0.844  16.291  14.519
51242W        W22858  29.917  40.361  13.582
51243W        W22859  43.463  21.018  13.821
51244W        W22860  21.004  27.498  13.392
51245W        W22861   0.635  11.631   2.633
51246W        W22862   3.871  17.073  13.326
51247W        W22863  24.498  43.964  13.329
51248W        W22864  28.514  37.979  10.360
51249W        W22865  44.350   2.881   3.081
51250W        W22866  23.743  20.444  10.680
51251W        W22867  28.549  39.807   1.283
51252W        W22868  29.381  39.864  14.847
51253W        W22869  16.393  41.642  13.980
51254W        W22870  37.558  11.182  11.081
51255W        W22871   4.261  29.332  12.550
51256W        W22872  39.097  34.680   4.247
51257W        W22873  44.460  19.126   0.887
51258W        W22874  44.158   7.158   4.115
51259W        W22875  31.823   2.564  13.976
51260W        W22876  20.115  24.383  11.512
51261W        W22877  13.570  37.952   1.558
51262W        W22878  29.623  39.442   3.227
51263W        W22879  20.885  27.678  11.078
51264W        W22880   0.102  24.154  11.438
51265W        W22881  31.662  12.614   2.169
51266W        W22882  24.269  20.219   4.848
51267W        W22883  19.141  13.311  11.974
51268W        W22884  37.183  38.756  12.952
51269W        W22885  30.434  15.239  14.919
51270W        W22886   6.844   5.369  10.766
51271W        W22887   3.266  27.866   2.966
51272W        W22888  27.561  14.216  14.959
51273W        W22889  21.131  44.986  13.012
51274W        W22890  40.014   4.694  11.108
51275W        W22891  16.526  44.723  12.938
51276W        W22892  23.392   7.647   3.710
51277W        W22893  34.557  40.653  14.726
51278W        W22894  11.602  19.064   4.717
51279W        W22895   5.489  15.169  12.947
51280W        W22896  43.211  39.701  12.032
51281W        W22897  32.975   1.833   4.717
51282W        W22898  21.429  42.839  10.713
51283W        W22899   4.739  29.944  14.858
51284W        W22900  14.803   4.335  10.635
51285W        W22901  28.969   7.605   2.487
51286W        W22902  34.562  11.169  13.400
51287W        W22903   7.220  11.055   4.187
51288W        W22904  16.198   8.854   2.669
51289W        W22905   0.575  24.781  11.871
51290W        W22906  38.388  10.410  14.185
51291W        W22907   3.081   6.497   2.896
51292W        W22908  42.603  30.938   3.157
51293W        W22909  42.799   8.390  10.861
51294W        W22910  36.817   5.813  14.389
51295W        W22911  44.044  41.347   1.695
51296W        W22912  24.498  35.173  14.029
51297W        W22913  22.779  38.915  14.467
51298W        W22914  24.468  14.091  11.948
51299W        W22915  31.826  19.276  14.412
51300W        W22916  31.548  32.312  14.472
51301W        W22917  25.531   1.520   0.082
51302W        W22918  10.258  38.800   1.334
51303W        W22919  15.800  14.679   1.252
51304W        W22920  14.803   1.513   4.582
51305W        W22921  33.867   6.357  10.733
51306W        W22922  36.798   3.757  13.885
51307W        W22923  21.890  41.811   2.726
51308W        W22924  41.216  37.428   4.121
51309W        W22925   5.472  24.723  12.540
51310W        W22926   5.302  29.549  14.932
51311W        W22927   1.056  14.545  11.581
51312W        W22928  15.664  39.905   0.560
51313W        W22929  16.783  15.583   4.470
51314W        W22930   8.264  44.358  12.974
51315W        W22931  36.123  38.523   0.567
51316W        W22932  19.228  43.035   1.469
51317W        W22933  29.895  15.770  12.634
51318W        W22934  25.102   2.946   2.310
51319W        W22935  16.308   5.710   0.393
51320W        W22936  28.304  15.542  14.863
51321W        W22937  24.683  26.750  13.029
51322W        W22938   4.564  11.701  13.832
51323W        W22939  44.383   5.138   1.808
51324W        W22940  30.521  32.061  14.552
51325W        W22941  35.101  38.378   4.525
51326W        W22942   1.814  44.734  14.867
51327W        W22943  35.623   7.831  14.485
51328W        W22944  38.803  15.121  10.901
51329W        W22945  40.288   4.476   1.915
51330W        W22946  26.631   4.696  14.485
51331W        W22947  43.814   5.921   1.854
51332W        W22948  36.164  17.580  11.968
51333W        W22949  44.896  17.850  10.651
51334W        W22950  12.012  11.603  11.563
51335W        W22951  38.894   6.782   3.325
51336W        W22952  21.735  14.523  12.552
51337W        W22953  37.820  30.182  14.769
51338W        W22954  24.473  12.255   3.751
51339W        W22955  29.486  14.878   4.578
51340W        W22956  27.173  15.679  12.275
51341W        W22957   8.868  33.863  12.706
51342W        W22958  13.362  31.899   2.749
51343W        W22959   6.660  43.271   4.108
51344W        W22960  36.510  30.011  14.972
51345W        W22961   3.374  23.677   3.880
51346W        W22962   2.838   6.925   1.910
51347W        W22963  34.508   2.475  14.059
51348W        W22964   5.737  20.954   1.388
51349W        W22965  30.901   0.351   1.740
51350W        W22966   0.465  12.649   4.534
51351W        W22967  27.092   0.294  13.978
51352W        W22968   5.433  17.814   0.004
51353W        W22969   8.752  23.476   4.612
51354W        W22970  33.988  17.324   4.182
51355W        W22971  43.347  12.804   1.292
51356W        W22972  22.128  31.443   0.862
51357W        W22973  40.113  30.087  12.448
51358W        W22974  40.224  43.724   0.985
51359W        W22975  42.805  35.889  10.432
51360W        W22976  23.288   0.533  14.369
51361W        W22977  10.277  13.302   2.290
51362W        W22978  10.175   2.248  11.995
51363W        W22979  31.657  27.697  13.701
51364W        W22980  40.509  32.550   0.784
51365W        W22981   1.330  10.439  10.641
51366W        W22982  23.485  12.713  13.807
51367W        W22983  30.149  28.639   2.757
51368W        W22984  18.299  41.129  11.789
51369W        W22985   9.625  21.617   2.900
51370W        W22986  25.912  37.813  14.498
51371W        W22987  38.585  32.089   3.133
51372W        W22988  25.326  23.205  14.056
51373W        W22989  35.613  15.587  10.333
51374W        W22990  43.856  26.509   0.340
51375W        W22991  24.461  12.644  14.152
51376W        W22992  18.863  25.014   1.468
51377W        W22993  40.948  16.561   0.885
51378W        W22994  17.750   3.638  12.339
51379W        W22995  25.760  27.151  13.586
51380W        W22996  29.468  38.403   1.755
51381W        W22997  11.800  17.012   1.778
51382W        W22998  33.131  43.400   4.615
51383W        W22999  34.511  39.096  11.270
51384W        W23000  35.631  32.647  13.412
51385W        W23001   6.831  42.495   5.058
51386W        W23002  23.727   1.767   4.721
51387W        W23003   3.305  38.507  14.445
51388W        W23004   4.963  10.097  10.956
51389W        W23005  35.017  41.781   4.224
51390W        W23006  23.919  10.639  11.599
51391W        W23007   2.182   5.678  12.237
51392W        W23008   7.227  10.905  11.574
51393W        W23009  29.071  28.366   4.767
51394W        W23010  33.624  28.957   2.262
51395W        W23011  27.138   8.087   0.368
51396W        W23012  17.336  21.754  11.115
51397W        W23013   4.460  43.894  12.900
51398W        W23014  24.742  12.085   4.184
51399W        W23015  16.605   5.717   3.680
51400W        W23016  28.567  18.999   1.796
51401W        W23017  19.768  15.071  14.263
51402W        W23018  44.945  35.739  11.136
51403W        W23019  44.470  25.243   3.627
51404W        W23020  15.826  34.375   1.760
51405W        W23021  15.769   2.216  12.396
51406W        W23022  16.091  14.203   1.290
51407W        W23023  38.305  21.566   4.652
51408W        W23024  23.446  26.580   4.124
51409W        W23025  29.159  27.210   1.390
51410W        W23026   7.114   9.467  11.297
51411W        W23027  19.567   2.265   1.556
51412W        W23028  38.713  37.628  10.786
51413W        W23029   8.369   4.824   2.821
51414W        W23030  13.389  41.025  12.984
51415W        W23031  27.612  26.145  11.929
51416W        W23032   2.517  14.816   4.737
51417W        W23033  31.256  20.591   2.910
51418W        W23034   7.753  29.123  11.548
51419W        W23035  24.046  41.749  14.304
51420W        W23036  36.034  29.212   0.269
51421W        W23037  13.886  31.094   4.634
51422W        W23038   6.678  18.353  13.035
51423W        W23039  13.915   0.298   4.532
51424W        W23040  12.595  16.222  13.691
51425W        W23041   6.933  40.057  14.821
51426W        W23042  19.817  36.599  11.766
51427W        W23043  24.076  14.642   4.878
51428W        W23044   6.078  37.288   2.348
51429W        W23045  18.693   9.626  13.984
51430W        W23046  15.854  17.741   2.896
51431W        W23047  12.642  25.523   4.636
51432W        W23048  12.510  28.778  14.681
51433W        W23049  22.037   5.941  12.964
51434W        W23050  40.883  21.539   0.407
51435W        W23051  29.303  16.749  10.460
51436W        W23052  39.829  14.242   0.477
51437W        W23053  15.679  41.900  13.076
51438W        W23054   1.932  43.155   5.101
51439W        W23055  40.614  21.800  13.875
51440W        W23056   2.867  10.338   2.365
51441W        W23057  31.372  28.471   3.619
51442W        W23058   2.168   6.193   2.877
51443W        W23059  26.536  24.813   3.844
51444W        W23060  26.966  14.140   9.624
51445W        W23061  33.092   0.490  14.549
51446W        W23062  42.446  37.419  13.412
51447W        W23063   4.804   5.249  11.855
51448W        W23064  21.976   4.338   0.516
51449W        W23065   3.772  39.525   4.171
51450W        W23066  37.735  15.984   2.121
51451W        W23067   5.154  33.035  11.237
51452W        W23068  31.505  25.235  11.882
51453W        W23069   6.127   3.937   4.731
51454W        W23070  39.794  16.657  12.666
51455W        W23071  41.416  13.996  14.124
51456W        W23072  21.057  19.517  13.920
51457W        W23073  23.756  23.107  12.892
51458W        W23074  13.159  23.256   4.351
51459W        W23075  22.157  27.758   3.664
51460W        W23076  27.406  34.514  11.136
51461W        W23077   3.377  34.377  13.769
51462W        W23078  12.145   0.746   3.836
51463W        W23079  12.381  33.075   1.745
51464W        W23080  14.590  22.367  10.936
51465W        W23081  20.243  35.611   3.176
51466W        W23082  40.721  16.722   2.260
51467W        W23083  39.976  31.998  11.145
51468W        W23084  12.607  21.710   0.347
51469W        W23085   0.102  36.009   5.667
51470W        W23086  42.270  39.512  11.029
51471W        W23087  37.443  13.227  11.072
51472W        W23088   3.626  17.197   0.453
51473W        W23089  13.614  32.214   3.532
51474W        W23090  18.634  24.082   3.617
51475W        W23091   3.621   4.448  11.171
51476W        W23092  14.629   5.256   4.334
51477W        W23093   1.484  38.877  12.929
51478W        W23094   1.279  17.157   0.315
51479W        W23095  40.889  41.413  14.347
51480W        W23096   5.215  42.942   0.461
51481W        W23097  40.474  44.160   0.800
51482W        W23098  14.607  19.809   1.116
51483W        W23099  12.143  19.144   0.032
51484W        W23100  36.428  31.015   4.425
51485W        W23101   6.009  37.040   1.763
51486W        W23102  12.099  15.624  10.663
51487W        W23103  43.810  21.161  11.543
51488W        W23104   3.207  20.471  11.002
51489W        W23105  36.781  10.647   5.101
51490W        W23106  25.567   5.656   3.709
51491W        W23107   5.464   3.716  13.930
51492W        W23108   4.983  17.682  14.122
51493W        W23109  13.693  27.494  13.365
51494W        W23110  16.618  33.551  13.816
51495W        W23111  16.241  28.294   4.056
51496W        W23112   4.516  15.326  14.809
51497W        W23113  26.779  29.860   5.106
51498W        W23114  31.517   4.121  11.618
51499W        W23115  35.655  12.083   4.759
51500W        W23116  27.101   2.322  13.697
51501W        W23117  21.871  14.708  11.098
51502W        W23118  34.903   5.910  13.435
51503W        W23119  19.204  23.937  11.180
51504W        W23120   1.866   0.824  12.432
51505W        W23121  27.915  15.697  11.163
51506W        W23122  11.378  14.326  12.364
51507W        W23123  44.610  37.179   2.287
51508W        W23124  21.827  28.046   4.566
51509W        W23125  44.704  36.694   1.423
51510W        W23126  10.474  31.486   2.197
51511W        W23127  39.017  38.814   4.130
51512W        W23128  38.838   0.243   4.709
51513W        W23129  11.164  40.307   0.878
51514W        W23130   9.738  33.958   1.432
51515W        W23131  33.923  33.985   3.159
51516W        W23132   0.271  42.024   1.750
51517W        W23133  14.139  42.163   4.539
51518W        W23134  34.930  38.841   2.681
51519W        W23135   1.942  27.689   3.283
51520W        W23136   9.372  10.731  13.987
51521W        W23137  36.962  30.969   1.862
51522W        W23138   2.664  38.903  11.454
51523W        W23139  43.118   8.003  14.892
51524W        W23140   7.626  20.490   1.424
51525W        W23141  11.372  28.401  13.908
51526W        W23142  34.348  10.684   0.304
51527W        W23143  27.456   0.141  11.517
51528W        W23144  43.740  25.169  13.958
51529W        W23145  19.254  12.339  14.742
51530W        W23146  18.690  15.108   1.662
51531W        W23147   7.748  43.844   1.676
51532W        W23148  20.156   3.359  12.327
51533W        W23149  25.577  18.367  13.395
51534W        W23150  16.065  21.289  11.152
51535W        W23151  23.088  37.199   3.212
51536W        W23152  16.135  35.127  12.904
51537W        W23153  36.067  16.618  10.733
51538W        W23154  35.307   9.428   0.863
51539W        W23155  24.246  20.181   0.916
51540W        W23156  35.947  18.382  13.897
51541W        W23157  25.133  38.921  11.930
51542W        W23158  28.489  34.385  12.868
51543W        W23159  18.189  39.017  12.663
51544W        W23160  31.493   5.973  14.525
51545W        W23161  31.606  23.710   2.674
51546W        W23162   7.385  19.662   0.817
51547W        W23163   6.808   9.906   2.914
51548W        W23164   0.297  41.819   4.122
51549W        W23165   8.768  29.948   0.253
51550W        W23166  37.399  24.366  11.379
51551W        W23167  26.203  42.815   4.243
51552W        W23168  40.774  22.764   0.963
51553W        W23169  37.478  17.821  10.939
51554W        W23170  30.096  36.239  13.320
51555W        W23171  35.974  27.797  11.888
51556W        W23172  36.671  40.430   2.429
51557W        W23173   0.218  40.402   0.307
51558W        W23174  43.873  37.536   5.185
51559W        W23175  26.623   8.769  12.825
51560W        W23176  40.523   2.011  11.571
51561W        W23177  37.740  11.757   2.294
51562W        W23178   5.835  15.972   0.009
51563W        W23179   2.770  41.531  14.231
51564W        W23180   6.757  13.366   3.366
51565W        W23181  17.013  21.104  11.508
51566W        W23182   4.374  17.492   1.874
51567W        W23183  29.683  20.129   0.293
51568W        W23184  24.949  34.322   3.242
51569W        W23185  21.612  35.356  10.400
51570W        W23186   2.295  37.643   2.937
51571W        W23187   6.436  39.979  13.034
51572W        W23188   7.318  40.955   4.461
51573W        W23189  34.182  26.894  11.988
51574W        W23190  20.448  21.009   3.967
51575W        W23191  19.450   9.726   3.763
51576W        W23192  20.684  31.477   4.434
51577W        W23193  20.444   4.687  12.038
51578W        W23194   7.569  39.592  11.115
51579W        W23195   4.463  16.776   4.173
51580W        W23196  14.584  25.603  12.017
51581W        W23197   0.330  15.696  10.336
51582W        W23198  40.329  24.226  14.781
51583W        W23199  24.258   5.207  11.955
51584W        W23200   6.190  32.968  13.397
51585W        W23201  41.215   4.938   1.950
51586W        W23202  13.497  39.994  11.649
51587W        W23203   6.937  32.045  11.494
51588W        W23204  25.256  16.835   2.758
51589W        W23205  37.241  12.697   1.393
51590W        W23206  38.198   8.807  10.821
51591W        W23207  39.870  24.997  11.646
51592W        W23208  42.012  36.324   4.590
51593W        W23209  26.735  23.708  11.726
51594W        W23210  30.622  14.645   1.789
51595W        W23211  29.913   4.429   3.019
51596W        W23212  15.290  35.405  13.027
51597W        W23213  42.621  41.618   4.137
51598W        W23214  11.805  21.162  14.275
51599W        W23215   1.995  33.080   3.233
51600W        W23216  23.935  27.977   1.930
51601W        W23217  31.871   3.057  13.036
51602W        W23218  21.280  43.292  13.956
51603W        W23219   7.994  12.783   3.560
51604W        W23220  16.680  26.480  10.701
51605W        W23221  32.387  43.472   2.821
51606W        W23222  18.608  25.195   1.904
51607W        W23223  42.250  10.449   4.556
51608W        W23224  37.910   6.369  13.503
51609W        W23225   3.938  27.367   2.259
51610W        W23226  36.323  42.508   2.832
51611W        W23227  29.616  37.472   3.386
51612W        W23228  26.109  29.378  11.264
51613W        W23229  20.176  21.248  10.756
51614W        W23230  38.442  40.831   1.558
51615W        W23231  34.275  41.870   1.313
51616W        W23232  28.400  24.772   0.705
51617W        W23233  13.080   9.111   2.319
51618W        W23234  22.837  36.371   4.006
51619W        W23235  22.835   5.686   4.099
51620W        W23236  35.499  39.583  14.866
51621W        W23237   2.384  38.045  13.529
51622W        W23238  24.760  30.302  14.957
51623W        W23239  14.564   5.934   0.801
51624W        W23240   5.159  24.802  14.778
51625W        W23241   7.728   1.679  12.454
51626W        W23242  21.323  27.196   3.656
51627W        W23243  19.114  20.730  11.863
51628W        W23244  17.667   4.269   4.166
51629W        W23245   2.510  34.051  10.637
51630W        W23246  28.719  33.071   3.838
51631W        W23247  28.573  17.817   2.238
51632W        W23248  19.660  17.347  13.511
51633W        W23249  28.967  35.483   0.988
51634W        W23250  20.819  27.785   3.645
51635W        W23251  37.536  30.028  10.735
51636W        W23252  42.584  42.252  14.889
51637W        W23253  13.838  11.605   3.883
51638W        W23254  35.568   1.282   0.714
51639W        W23255  16.367  27.877   2.470
51640W        W23256  17.630  28.129  13.555
51641W        W23257  12.558  34.323  13.840
51642W        W23258  16.187  41.554   2.305
51643W        W23259   1.451  38.790   1.484
51644W        W23260   9.682   4.474   3.992
51645W        W23261  21.815  11.795  12.917
51646W        W23262  20.125  26.955   4.235
51647W        W23263   4.814  25.417   1.331
51648W        W23264  42.094  24.540   4.487
51649W        W23265  19.690   8.601  14.510
51650W        W23266  38.552   7.031   4.967
51651W        W23267  38.285  10.178   5.014
51652W        W23268  37.828  28.998  11.440
51653W        W23269  25.734  18.893   5.226
51654W        W23270  37.857   1.759  11.296
51655W        W23271  38.445  31.217  14.032
51656W        W23272  43.922   9.597  10.687
51657W        W23273  26.790  17.754   3.203
51658W        W23274  19.776  25.654  13.882
51659W        W23275   0.376  10.612   1.357
51660W        W23276  31.427  15.024  12.330
51661W        W23277  43.598  44.751  11.987
51662W        W23278   5.720  42.253  13.480
51663W        W23279   9.728  19.537  14.973
51664W        W23280   1.673   0.905  11.055
51665W        W23281  18.829  37.605   2.544
51666W        W23282  22.983  36.218   3.113
51667W        W23283  30.128  23.812  14.925
51668W        W23284   6.250   8.163   2.149
51669W        W23285  22.999   3.865   3.397
51670W        W23286  35.444  41.203   2.019
51671W        W23287  43.517  11.411   1.143
51672W        W23288  43.264   8.468   0.190
51673W        W23289  30.946  38.894   4.636
51674W        W23290  44.840   7.078   3.727
51675W        W23291  16.089  23.455   2.404
51676W        W23292  34.373  33.771  10.543
51677W        W23293  37.059  32.192  12.042
51678W        W23294  34.668  10.852  14.884
51679W        W23295  21.049   8.281  14.340
51680W        W23296  38.428   2.733   3.575
51681W        W23297  14.241  19.726  12.155
51682W        W23298  34.006  26.110   0.761
51683W        W23299  43.395  17.521   1.785
51684W        W23300  24.015  12.719  10.309
51685W        W23301  33.808   1.280  12.952
51686W        W23302   3.452   9.806  13.540
51687W        W23303   0.263  32.645  13.957
51688W        W23304  16.208  22.171  10.683
51689W        W23305  42.271  11.830   3.523
51690W        W23306  21.382  22.091  10.195
51691W        W23307  23.007  40.579  10.442
51692W        W23308  17.136  12.194   2.263
51693W        W23309  19.707  41.361   2.737
51694W        W23310  37.391   1.750  11.495
51695W        W23311  25.492  23.614   3.127
51696W        W23312  39.480   2.747   1.438
51697W        W23313  28.393  41.843  11.644
51698W        W23314  41.705   9.649   0.285
51699W        W23315   3.395  31.866   0.983
51700W        W23316  40.903   4.545   4.204
51701W        W23317  19.074  25.056  10.648
51702W        W23318  14.289   0.233  12.312
51703W        W23319  41.286   1.932   1.798
51704W        W23320  20.667  43.059   4.122
51705W        W23321   5.663   1.347   4.280
51706W        W23322  39.319   1.437  14.470
51707W        W23323   6.720  24.400  13.536
51708W        W23324  21.672  29.100   3.825
51709W        W23325  34.159  25.972   3.733
51710W        W23326   3.679  23.998   0.260
51711W        W23327  36.260  11.982   1.655
51712W        W23328  42.088  11.091   0.323
51713W        W23329  41.325  17.307   0.889
51714W        W23330  30.655  14.117   1.729
51715W        W23331   7.587   0.566   2.596
51716W        W23332  15.993  41.092   3.536
51717W        W23333  32.146  35.115  11.904
51718W        W23334  20.607   1.946   4.610
51719W        W23335  33.072   3.598   0.227
51720W        W23336  31.645  10.408  13.236
51721W        W23337  31.062  20.166  10.855
51722W        W23338  42.423  25.951   2.949
51723W        W23339  24.656   5.331   3.685
51724W        W23340  30.207  31.963  11.557
51725W        W23341  31.504  10.803   4.515
51726W        W23342  39.717  19.081   4.527
51727W        W23343  25.144  34.503   2.432
51728W        W23344   7.837   2.006  10.728
51729W        W23345  22.407  26.025  14.364
51730W        W23346  31.228  19.267   4.793
51731W        W23347  15.128  16.107  12.872
51732W        W23348  18.751  34.647   0.414
51733W        W23349  30.917   0.651   3.560
51734W        W23350  35.165  32.659  10.710
51735W        W23351  35.438  39.736   3.143
51736W        W23352  42.048  15.307  11.566
51737W        W23353  42.423   9.640  12.563
51738W        W23354  27.504   4.308  14.960
51739W        W23355  21.086  25.214  13.254
51740W        W23356  28.586   7.915  10.676
51741W        W23357  29.909  27.855  14.865
51742W        W23358   3.857  31.045  13.788
51743W        W23359  27.890   7.893  14.432
51744W        W23360   8.223  24.018   3.839
51745W        W23361  27.617  43.611   0.000
51746W        W23362  25.685  44.477   3.811
51747W        W23363  14.239  25.122  12.857
51748W        W23364  19.424  10.163  12.012
51749W        W23365   2.539  22.062  10.279
51750W        W23366   4.425  13.146   4.185
51751W        W23367  30.413  14.048  12.226
51752W        W23368  34.666  22.395  12.033
51753W        W23369  42.036  35.870   3.296
51754W        W23370  22.681  43.449  13.919
51755W        W23371  39.877   1.307   1.948
51756W        W23372   3.126  40.381   1.339
51757W        W23373  42.731  30.145  11.906
51758W        W23374  23.204  37.815  13.262
51759W        W23375  35.757  35.317  12.102
51760W        W23376  31.478   4.316   4.707
51761W        W23377   3.475  24.243   0.929
51762W        W23378   3.867   2.318  13.061
51763W        W23379  16.077  12.826  12.038
51764W        W23380  27.177  19.233   4.445
51765W        W23381  25.544  21.717  11.713
51766W        W23382  42.022  18.789   2.450
51767W        W23383  27.947  43.125  13.462
51768W        W23384  14.788   9.635  10.598
51769W        W23385  15.510   4.721  13.448
51770W        W23386   9.961  26.833  12.975
51771W        W23387  15.713  15.827  13.519
51772W        W23388   8.424  31.646  11.196
51773W        W23389   4.647  12.568   1.615
51774W        W23390  28.616  28.192  12.655
51775W        W23391  15.162  10.241  10.373
51776W        W23392  19.174  23.099   1.886
51777W        W23393  40.464  19.609   2.954
51778W        W23394  42.984  44.544   5.070
51779W        W23395  22.660  12.635   1.374
51780W        W23396  11.395  16.297  12.318
51781W        W23397  31.572  11.162  10.807
51782W        W23398  21.497   5.551  10.856
51783W        W23399   7.503  43.642  14.403
51784W        W23400  36.519  36.873  13.956
51785W        W23401  22.931   6.880   1.794
51786W        W23402  39.010  21.683   3.304
51787W        W23403  42.927  30.202  12.680
51788W        W23404   8.870  28.636   3.249
51789W        W23405  21.086  29.400   2.716
51790W        W23406  18.328   0.196   1.964
51791W        W23407   0.892   1.849   0.998
51792W        W23408  30.207  37.516  12.611
51793W        W23409  43.292  38.430  13.501
51794W        W23410   8.328  25.248   0.995
51795W        W23411   5.368  31.898   2.374
51796W        W23412  15.905   4.158  10.118
51797W        W23413   8.858  21.469  12.980
51798W        W23414  21.631  31.467   4.385
51799W        W23415  32.313  27.110  10.375
51800W        W23416  40.156   3.934  13.892
51801W        W23417  22.578  12.237  14.867
51802W        W23418  30.407  29.257   4.563
51803W        W23419   7.869  40.522  10.472
51804W        W23420   6.921   4.772   0.295
51805W        W23421  27.865  39.575  14.003
51806W        W23422  18.544   8.243  14.567
51807W        W23423  14.043  22.619   0.448
51808W        W23424  35.270   8.601  11.446
51809W        W23425  29.515  32.751  11.109
51810W        W23426   5.494  35.554  13.951
51811W        W23427   1.180  24.484  10.202
51812W        W23428  19.296  16.156   1.532
51813W        W23429   9.858  18.222  12.042
51814W        W23430  11.979  38.858   1.727
51815W        W23431  22.750  38.618  13.453
51816W        W23432  41.390  37.558   2.780
51817W        W23433   9.669  30.187   0.404
51818W        W23434  28.687  18.600  11.119
51819W        W23435  26.873  21.723   3.739
51820W        W23436   3.725  30.664   0.580
51821W        W23437   2.216  33.547   3.328
51822W        W23438  35.199   3.782   4.168
51823W        W23439   2.242  44.504  12.856
51824W        W23440  16.077   2.382  13.948
51825W        W23441   6.512  44.503  11.171
51826W        W23442  24.259  31.216   2.315
51827W        W23443  40.786  14.083  12.105
51828W        W23444  31.217   3.282   4.285
51829W        W23445  21.751  43.870  14.488
51830W        W23446  42.868  35.259   0.882
51831W        W23447  22.670  36.392  13.333
51832W        W23448   4.422  32.952  14.781
51833W        W23449  18.847  12.079   4.482
51834W        W23450  32.661  19.113   1.153
51835W        W23451   1.412  19.449   1.517
51836W        W23452  24.232  14.767   1.307
51837W        W23453  27.290   4.415  11.107
51838W        W23454  21.337  27.704   4.059
51839W        W23455  25.918  23.182   1.360
51840W        W23456   1.962   6.983  13.041
51841W        W23457  34.161   1.853   0.920
51842W        W23458  25.949   9.611  12.017
51843W        W23459  10.215  43.344   2.495
51844W        W23460   7.654  23.420   2.633
51845W        W23461  27.451  31.598  12.383
51846W        W23462  24.954   4.647   4.822
51847W        W23463  28.111  26.485  11.477
51848W        W23464   9.844  28.030   1.694
51849W        W23465  36.693  28.592  11.427
51850W        W23466  34.934   9.375  13.410
51851W        W23467  30.395  16.269  12.499
51852W        W23468   2.355  30.410   4.119
51853W        W23469  33.641   8.336   2.263
51854W        W23470  29.461  32.662  12.078
51855W        W23471  32.227   4.815  11.992
51856W        W23472  13.873  18.121  10.614
51857W        W23473  12.309  41.751   3.698
51858W        W23474  16.794   6.831   2.346
51859W        W23475  23.587   4.432   3.114
51860W        W23476  29.103   6.910   1.882
51861W        W23477  35.566   1.334   3.978
51862W        W23478  42.791  39.500  10.349
51863W        W23479  44.902  26.341  12.605
51864W        W23480  36.059  37.391  10.566
51865W        W23481  26.652  40.612  14.303
51866W        W23482  24.057  39.919  14.235
51867W        W23483  36.431  39.342  14.501
51868W        W23484   2.435  29.087   4.094
51869W        W23485  44.457  32.901  13.606
51870W        W23486   1.814  26.581  10.628
51871W        W23487  29.950  13.251  12.394
51872W        W23488  21.609   0.884   2.684
51873W        W23489  34.538  34.420   4.234
51874W        W23490  36.023  40.559  12.274
51875W        W23491  13.902  44.243   3.249
51876W        W23492  23.606   1.697  12.444
51877W        W23493  28.934  10.808  13.122
51878W        W23494  43.752  11.295  11.435
51879W        W23495  41.802  40.852  11.155
51880W        W23496  36.005   5.394   4.095
51881W        W23497   8.560  37.624  10.324
51882W        W23498  21.504  10.067  12.482
51883W        W23499  11.561   2.779  13.584
51884W        W23500  14.620  33.902   4.076
51885W        W23501   0.649  17.584   0.978
51886W        W23502   9.918  30.664  12.660
51887W        W23503  12.148  37.779  11.903
51888W        W23504  44.476  43.848  12.659
51889W        W23505  17.052  34.990   4.014
51890W        W23506  29.407  35.174  11.662
51891W        W23507  29.421  26.087   1.974
51892W        W23508  37.162  16.097   1.181
51893W        W23509   9.298   7.430  11.516
51894W        W23510  31.032  21.851  14.423
51895W        W23511  21.430  23.158   0.934
51896W        W23512  18.341   1.455   2.091
51897W        W23513   7.787  12.310  11.603
51898W        W23514  12.362  30.568   2.901
51899W        W23515  12.847  10.084  14.483
51900W        W23516  37.831  10.323  12.045
51901W        W23517  12.879  32.077  14.575
51902W        W23518  19.342  26.945   3.725
51903W        W23519   9.203   4.898  13.281
51904W        W23520  30.489  31.705   4.570
51905W        W23521  21.594  24.803   1.317
51906W        W23522  21.419  40.536   2.751
51907W        W23523   8.569  35.051  11.574
51908W        W23524   6.801   9.877  10.721
51909W        W23525   5.254  19.386  10.439
51910W        W23526  12.646   3.263   0.360
51911W        W23527  10.143  17.217  12.612
51912W        W23528  20.109  10.859   0.098
51913W        W23529   1.007   1.269   3.671
51914W        W23530  33.351  14.219   4.034
51915W        W23531  17.185   3.422   5.003
51916W        W23532  35.017  29.867  11.219
51917W        W23533  33.542  29.550   2.323
51918W        W23534  24.834  18.782   4.098
51919W        W23535  44.516  44.024  14.457
51920W        W23536  18.712  36.591   2.472
51921W        W23537  28.215  25.509  12.480
51922W        W23538  40.944  11.243  10.730
51923W        W23539  18.818  25.135   3.697
51924W        W23540  12.577  33.934   0.492
51925W        W23541  44.678  31.646   3.526
51926W        W23542  16.091   7.670  13.795
51927W        W23543  42.601   4.441  12.436
51928W        W23544   3.086  25.438   5.799
51929W        W23545  30.415   5.178  10.867
51930W        W23546  10.131   1.967   2.042
51931W        W23547  33.952  25.659   1.922
51932W        W23548  21.137  22.926  11.468
51933W        W23549   1.091  17.334  14.833
51934W        W23550   0.709   5.392   1.802
51935W        W23551  37.889  30.090   3.417
51936W        W23552  42.655  24.752   3.288
51937W        W23553  18.304   5.149  14.707
51938W        W23554  27.580  27.528   2.361
51939W        W23555   3.093  40.044  11.141
51940W        W23556  37.986   9.280  13.005
51941W        W23557  38.233   3.218  11.685
51942W        W23558   5.262  16.273   4.420
51943W        W23559   8.913   0.254  12.433
51944W        W23560   8.761   0.707   4.538
51945W        W23561   8.072  35.546   4.024
51946W        W23562  24.866  17.187  13.595
51947W        W23563  20.704   4.888   0.542
51948W        W23564  26.930  29.588   2.534
51949W        W23565   3.264  11.680  13.404
51950W        W23566   6.455  36.771   4.604
51951W        W23567   4.952   6.745  14.019
51952W        W23568   5.868  37.800   4.098
51953W        W23569  17.695   2.388   4.956
51954W        W23570  18.409  38.173  11.124
51955W        W23571  22.891  39.977  13.756
51956W        W23572   5.367  29.345   3.167
51957W        W23573  22.564  38.008  14.477
51958W        W23574  17.919   5.477  11.599
51959W        W23575  16.801  19.990   1.347
51960W        W23576  41.348   2.658   2.882
51961W        W23577   7.311   2.489   0.807
51962W        W23578  29.932  35.929   3.658
51963W        W23579   4.197  41.261  11.189
51964W        W23580   3.997   2.190   3.273
51965W        W23581  19.579  14.868  11.142
51966W        W23582   9.673  14.278   1.797
51967W        W23583  17.588   6.113   3.482
51968W        W23584  23.720  23.248  13.393
51969W        W23585  36.056  24.680   3.688
51970W        W23586  16.796  14.143  14.011
51971W        W23587  40.338  35.418   3.853
51972W        W23588  40.015  41.373   3.237
51973W        W23589  40.524  38.906  11.730
51974W        W23590  19.691  43.524   4.649
51975W        W23591   4.393  33.670   0.488
51976W        W23592  15.812   8.776  13.894
51977W        W23593  11.918  14.034   1.301
51978W        W23594   1.530  17.004  14.841
51979W        W23595   9.940  30.366   2.702
51980W        W23596  25.097  42.347   1.396
51981W        W23597  34.570  28.551   0.034
51982W        W23598  42.530   4.941  12.389
51983W        W23599  38.832  43.449  13.192
51984W        W23600  42.508  15.141  13.349
51985W        W23601  39.749  43.854  14.054
51986W        W23602  28.998  26.552   0.093
51987W        W23603  38.111  34.927   1.954
51988W        W23604  30.947  26.088   4.054
51989W        W23605  19.824  26.865   3.843
51990W        W23606  20.384   9.196   2.632
51991W        W23607  19.246  23.403   1.487
51992W        W23608  22.239   3.946   2.378
51993W        W23609  30.189  15.811   3.679
51994W        W23610  37.288  36.989   1.539
51995W        W23611   5.763   1.211   2.711
51996W        W23612  16.610  20.535  14.813
51997W        W23613  25.678  41.985  11.959
51998W        W23614   8.259  25.690   0.729
51999W        W23615  18.263  36.954  12.994
52000W        W23616   0.627   0.726  13.094
52001W        W23617  43.385  22.168  12.804
52002W        W23618   0.413  10.170   3.418
52003W        W23619  28.529   3.417   3.219
52004W        W23620  20.580   2.722   0.167
52005W        W23621  11.258   4.971   0.909
52006W        W23622  36.485  24.251  14.694
52007W        W23623  19.223  20.809  11.358
52008W        W23624  32.156  18.301  11.605
52009W        W23625   5.436   6.575  12.534
52010W        W23626   7.728   5.785   2.193
52011W        W23627  11.591   7.891   0.637
52012W        W23628  12.878  34.184  11.070
52013W        W23629  11.795  31.318  11.894
52014W        W23630   4.786  21.114   3.353
52015W        W23631  27.481   9.893   3.533
52016W        W23632  15.248   2.930  14.918
52017W        W23633  20.694   8.223  12.560
52018W        W23634   8.741  39.470   2.826
52019W        W23635  22.190   8.324  13.463
52020W        W23636  15.178  24.713   4.389
52021W        W23637   3.425  34.481  12.271
52022W        W23638  10.598  22.204   1.858
52023W        W23639  12.880  33.916  12.856
52024W        W23640  29.176  42.423  11.563
52025W        W23641  23.866  24.156   2.674
52026W        W23642  18.801  15.760   4.148
52027W        W23643  21.385   5.047  12.024
52028W        W23644  40.782   3.954  10.618
52029W        W23645   6.290  15.160   3.653
52030W        W23646   2.467  28.999   0.745
52031W        W23647  28.062  38.528   2.658
52032W        W23648   7.855  20.503  12.128
52033W        W23649   5.505  24.123   4.228
52034W        W23650  22.290   8.819   1.325
52035W        W23651   1.872   6.279   3.295
52036W        W23652  11.077  24.622   0.410
52037W        W23653  18.157  17.693   0.403
52038W        W23654  23.985  26.454  12.559
52039W        W23655  36.503   5.591  10.760
52040W        W23656  18.111  28.245  13.719
52041W        W23657  39.422  31.885  12.803
52042W        W23658   6.938  11.014   0.723
52043W        W23659  23.054  20.644   2.843
52044W        W23660  11.032  25.976  10.547
52045W        W23661  37.853   0.999   2.411
52046W        W23662  43.722  30.605   0.457
52047W        W23663   9.637  33.478   3.437
52048W        W23664  30.373  29.108   3.286
52049W        W23665   7.223   6.766   4.362
52050W        W23666  21.753  24.855  12.477
52051W        W23667  10.916  29.362  14.052
52052W        W23668  32.111  13.651  13.392
52053W        W23669  17.265  36.787   3.405
52054W        W23670  36.491  22.957  10.581
52055W        W23671  14.180  41.211  11.553
52056W        W23672   1.367  35.599  11.659
52057W        W23673  16.170  15.739  11.521
52058W        W23674  23.640   1.620   0.929
52059W        W23675  32.807   1.425   4.976
52060W        W23676  30.467  37.986   1.144
52061W        W23677  20.187  17.746  11.377
52062W        W23678  13.320  43.836  13.434
52063W        W23679   5.774  29.176  11.714
52064W        W23680  35.075  43.858  10.410
52065W        W23681  29.958  20.613   0.838
52066W        W23682   2.440  34.070   0.356
52067W        W23683  27.587  10.731   2.295
52068W        W23684  28.338  10.862   1.881
52069W        W23685  44.732  37.012   4.091
52070W        W23686  29.712  23.622  11.098
52071W        W23687   4.185   6.644  12.374
52072W        W23688  27.888   2.915  12.432
52073W        W23689  42.516  16.672   4.333
52074W        W23690  33.602   1.816  13.600
52075W        W23691  27.034  41.120   1.667
52076W        W23692   7.348  17.910  13.144
52077W        W23693  33.957  41.052   4.652
52078W        W23694  38.652  32.101  11.419
52079W        W23695   2.233  11.207  10.787
52080W        W23696  18.681  14.268  14.809
52081W        W23697  22.530  26.036  11.089
52082W        W23698  30.145  34.254   0.831
52083W        W23699  14.117   4.709  10.649
52084W        W23700  18.766   9.379   1.774
52085W        W23701   5.437   5.906  11.433
52086W        W23702  41.303   5.725   3.293
52087W        W23703  41.486  22.854   2.519
52088W        W23704  25.539   9.304  11.500
52089W        W23705  42.407  13.142  13.565
52090W        W23706  17.793  20.041  13.088
52091W        W23707  38.026   6.064  12.100
52092W        W23708  26.004   9.945   2.708
52093W        W23709  26.600   5.707  14.396
52094W        W23710  43.292  26.428  11.495
52095W        W23711  41.406  37.039   4.404
52096W        W23712   6.050  37.806   3.218
52097W        W23713  15.696  29.060   4.098
52098W        W23714  10.119  34.364  10.990
52099W        W23715  38.807  42.387   2.211
52100W        W23716  15.697   9.934   3.531
52101W        W23717  29.972   5.329   1.829
52102W        W23718  21.070  39.576   2.380
52103W        W23719  28.426  14.681   0.327
52104W        W23720   6.526   3.689   2.284
52105W        W23721  19.318  42.815   4.448
52106W        W23722  10.369  43.916  11.502
52107W        W23723  43.358  36.320   2.210
52108W        W23724  34.375  10.180  11.541
52109W        W23725  10.650  37.381   4.205
52110W        W23726   0.843  28.113   2.017
52111W        W23727  32.612  27.218   0.312
52112W        W23728   1.854  24.264  11.760
52113W        W23729  31.891  40.583   3.516
52114W        W23730  13.509  34.476  11.581
52115W        W23731  28.056  12.876   2.185
52116W        W23732  23.161  16.223   2.593
52117W        W23733  23.160  23.709   0.446
52118W        W23734  27.482  35.041  10.534
52119W        W23735  26.482  17.148   2.872
52120W        W23736  41.573  42.625   3.638
52121W        W23737   8.948  10.156   4.435
52122W        W23738  17.245  10.842   1.906
52123W        W23739  24.598  44.767  14.099
52124W        W23740   4.498  43.814  11.557
52125W        W23741  15.022   4.258   5.219
52126W        W23742   8.774  23.844  14.738
52127W        W23743  35.819  10.558  11.972
52128W        W23744  16.696  38.630   0.842
52129W        W23745   5.689  37.909   1.436
52130W        W23746  35.040  39.793  11.645
52131W        W23747  23.142   4.767   0.956
52132W        W23748  26.511  10.691  12.152
52133W        W23749  17.048   0.857  11.163
52134W        W23750  14.729  30.830   1.030
52135W        W23751  43.685  36.866  10.722
52136W        W23752   1.586  14.828  14.476
52137W        W23753  19.259  31.467  13.555
52138W        W23754  20.263  10.078   1.308
52139W        W23755  23.648  34.467   2.355
52140W        W23756  43.513   2.501   0.238
52141W        W23757   5.499  14.900   4.258
52142W        W23758   5.460   8.884  11.477
52143W        W23759  36.120  23.201   4.721
52144W        W23760  39.275  21.506   4.767
52145W        W23761   4.983  36.529  12.093
52146W        W23762  38.472  22.991   4.636
52147W        W23763  41.697  36.608   0.927
52148W        W23764   7.005  41.855  12.860
52149W        W23765   0.062  12.395   4.181
52150W        W23766   7.332  12.071   1.879
52151W        W23767  21.634  32.217  14.846
52152W        W23768  22.143   9.755   2.898
52153W        W23769  38.444  24.626   1.514
52154W        W23770  22.503   8.155  11.718
52155W        W23771  10.613  26.590   2.770
52156W        W23772  43.088  33.848   3.177
52157W        W23773  31.643  43.977  10.947
52158W        W23774   2.399   5.729  11.568
52159W        W23775  16.320  14.340  14.011
52160W        W23776  13.271  41.741   1.288
52161W        W23777  19.089  18.719   0.457
52162W        W23778  31.129  10.238   2.326
52163W        W23779  33.029   4.375  13.291
52164W        W23780  33.032  18.266   2.686
52165W        W23781  38.868   3.936  11.060
52166W        W23782   0.794  10.297   0.729
52167W        W23783   5.600   1.734  11.686
52168W        W23784  42.020  19.653   2.059
52169W        W23785  25.924  32.643  14.930
52170W        W23786   9.291  32.609  13.630
52171W        W23787  16.225  44.624  11.019
52172W        W23788  25.116  32.549   2.908
52173W        W23789  20.019  17.083   3.373
52174W        W23790  35.443   1.262   4.697
52175W        W23791  13.538  14.856   4.066
52176W        W23792  17.883  41.391  13.983
52177W        W23793   5.140  36.062   0.439
52178W        W23794  37.630  24.781  10.636
52179W        W23795  28.466   2.566  14.181
52180W        W23796   1.450  20.212   1.932
52181W        W23797  44.488   7.915  13.303
52182W        W23798  20.112  16.306   1.587
52183W        W23799  19.773   8.923   4.150
52184W        W23800   8.599  20.559  14.463
52185W        W23801  23.270  28.122   2.338
52186W        W23802   1.637  33.933   3.590
52187W        W23803  18.538  40.689  10.263
52188W        W23804   1.203  15.537   4.153
52189W        W23805   0.246   1.063  13.012
52190W        W23806  21.257  34.189   1.708
52191W        W23807  17.265  37.487  12.479
52192W        W23808  20.989  35.126   4.151
52193W        W23809  20.352  21.005   4.486
52194W        W23810  35.880   2.817  13.467
52195W        W23811  31.521   5.135  14.773
52196W        W23812   2.577   0.336  10.228
52197W        W23813  19.753   2.065   2.892
52198W        W23814  21.481  23.059   3.653
52199W        W23815  11.109  10.814   4.068
52200W        W23816  33.674  34.299   0.264
52201W        W23817  29.623   0.282   1.269
52202W        W23818  37.994  33.629   3.731
52203W        W23819  34.521  32.459   3.064
52204W        W23820  14.093  34.015   2.790
52205W        W23821   9.022  40.837   2.391
52206W        W23822  23.155  41.763  12.480
52207W        W23823  37.542   9.499  14.981
52208W        W23824  28.782   1.862   0.764
52209W        W23825  29.263  14.985  14.123
52210W        W23826  42.099  13.659   3.839
52211W        W23827   0.426   1.272   0.476
52212W        W23828  21.024  35.949  12.329
52213W        W23829  41.463  42.217   2.746
52214W        W23830  12.268   1.502  12.884
52215W        W23831   4.265   8.261  11.942
52216W        W23832  35.895  12.575   4.594
52217W        W23833  21.720  13.633   4.619
52218W        W23834  12.863   3.354   2.748
52219W        W23835   5.957   2.305  13.444
52220W        W23836  27.756  37.811  14.895
52221W        W23837  39.371  43.956  14.405
52222W        W23838  13.880  43.706   2.337
52223W        W23839  15.714  19.302  14.193
52224W        W23840   8.844  18.504  14.608
52225W        W23841  33.540  31.941   3.139
52226W        W23842  31.725  14.358  11.211
52227W        W23843  32.580  26.002  13.161
52228W        W23844  26.228  21.097   2.246
52229W        W23845  11.360  31.864  14.397
52230W        W23846   4.898  42.153   3.695
52231W        W23847  28.081  32.690  13.440
52232W        W23848  24.434  16.404  12.118
52233W        W23849  44.827  14.673  10.539
52234W        W23850  40.924  10.298  10.840
52235W        W23851  20.027  18.078   3.581
52236W        W23852  32.930  28.413   4.641
52237W        W23853  18.703  11.704   0.780
52238W        W23854   7.132  11.821  14.774
52239W        W23855  19.651   8.103  13.126
52240W        W23856  10.211  39.614  11.204
52241W        W23857   0.351   0.344  10.613
52242W        W23858   6.627   2.811   3.251
52243W        W23859  27.147  37.998  11.199
52244W        W23860  43.977  16.797   1.977
52245W        W23861  30.052   2.203   0.916
52246W        W23862  36.076  42.058  12.603
52247W        W23863   0.850   9.857  11.100
52248W        W23864  31.316  22.580  11.562
52249W        W23865  15.595  10.666  12.413
52250W        W23866  14.869  27.606   0.439
52251W        W23867  27.779  42.677   0.079
52252W        W23868  15.210  15.771  14.255
52253W        W23869  11.207  15.692   0.999
52254W        W23870  44.324  38.775   1.815
52255W        W23871  29.144  31.912  11.123
52256W        W23872  16.384  28.586   3.609
52257W        W23873  24.981   1.754  11.668
52258W        W23874  31.703  17.233   3.734
52259W        W23875   3.703  35.624  13.564
52260W        W23876   4.634   3.121  12.980
52261W        W23877  10.883  40.782   3.090
52262W        W23878   3.411  31.318   4.134
52263W        W23879  26.071  25.202  14.312
52264W        W23880  39.621   3.924  13.978
52265W        W23881   3.801   2.667   1.041
52266W        W23882  33.359   1.375   3.703
52267W        W23883  43.851  27.393  12.133
52268W        W23884  27.352   0.739   2.744
52269W        W23885  33.951  40.228  10.750
52270W        W23886  44.843  24.236  10.825
52271W        W23887  40.117   1.240   4.237
52272W        W23888  29.393   1.323   2.181
52273W        W23889   6.752   4.433  13.047
52274W        W23890  34.475   2.028  10.704
52275W        W23891  27.098  36.360  14.389
52276W        W23892  42.829  28.253   1.657
52277W        W23893  17.704  32.023   2.715
52278W        W23894   7.928  11.328  14.363
52279W        W23895  42.527  41.515   3.203
52280W        W23896  40.424   5.627  10.033
52281W        W23897  35.354   9.785   4.086
52282W        W23898  35.750  18.728   2.323
52283W        W23899  17.250   8.932   5.126
52284W        W23900  18.512  11.489  14.515
52285W        W23901  17.782  37.567  12.435
52286W        W23902  14.787   9.755  14.383
52287W        W23903  41.360  34.894   3.286
52288W        W23904  14.199  11.030   1.330
52289W        W23905  21.436  13.797  12.540
52290W        W23906   4.198   4.269  14.713
52291W        W23907  37.155  23.920  14.005
52292W        W23908  10.088  25.452  12.085
52293W        W23909  10.328  38.548  12.370
52294W        W23910  23.995   7.415   2.450
52295W        W23911  23.851  33.141  11.084
52296W        W23912  38.818  34.392  14.947
52297W        W23913   6.177  15.852  12.390
52298W        W23914  30.040   5.158  13.082
52299W        W23915  42.710   2.730   1.429
52300W        W23916  36.505  18.212   4.056
52301W        W23917   1.029  16.356  13.068
52302W        W23918   5.746  30.627  11.956
52303W        W23919  12.877  43.054   4.559
52304W        W23920   2.706  34.376  12.956
52305W        W23921   4.874   1.161  14.389
52306W        W23922  31.162  17.803  14.259
52307W        W23923   8.993  22.836  14.029
52308W        W23924  43.859  16.988   3.397
52309W        W23925  44.515  36.490  12.950
52310W        W23926  20.059  12.612   2.129
52311W        W23927   0.903  44.335   4.996
52312W        W23928   4.912   3.936  10.609
52313W        W23929  37.367  15.582   5.057
52314W        W23930  13.006  27.100  11.430
52315W        W23931  42.077  41.945  12.169
52316W        W23932  11.157  38.855   3.695
52317W        W23933   3.405  35.644  11.645
52318W        W23934  17.861   5.679  13.006
52319W        W23935  22.637   0.208   3.202
52320W        W23936  41.875  22.053  11.625
52321W        W23937  22.578  30.633  14.524
52322W        W23938  18.601  21.904   3.343
52323W        W23939  24.577   6.292   2.616
52324W        W23940  13.205  15.794  14.327
52325W        W23941  19.908   7.016  12.136
52326W        W23942  18.982   7.043   2.718
52327W        W23943  26.257  41.097  10.311
52328W        W23944  30.055   7.941   2.203
52329W        W23945  42.896  23.123  11.427
52330W        W23946   9.951  25.468  10.763
52331W        W23947  25.627  11.661  11.140
52332W        W23948  31.706   2.699   0.342
52333W        W23949  21.229  12.832   4.678
52334W        W23950  10.908  37.371  11.694
52335W        W23951  39.991  23.491   3.717
52336W        W23952  30.658   2.904   4.099
52337W        W23953  18.591  37.876  10.478
52338W        W23954  35.096   7.158   3.430
52339W        W23955   2.979   7.431  12.203
52340W        W23956  23.908  18.723   1.677
52341W        W23957  11.959   4.238   5.048
52342W        W23958  26.843  16.593  11.189
52343W        W23959  20.544  13.397   3.578
52344W        W23960  35.309   9.885   4.591
52345W        W23961  17.694  34.311  12.058
52346W        W23962  25.928   8.783  13.551
52347W        W23963  32.444  26.663  10.621
52348W        W23964  18.067  29.203  12.916
52349W        W23965   3.215  15.600   2.849
52350W        W23966  19.122  29.351   2.077
52351W        W23967  33.034   5.703  13.808
52352W        W23968  31.048  39.290   3.181
52353W        W23969  13.896  37.052  14.834
52354W        W23970  25.139  11.283   4.606
52355W        W23971  37.854  36.787   0.022
52356W        W23972  21.012  38.408   4.571
52357W        W23973   7.786  26.132   2.326
52358W        W23974  27.441  16.508   4.190
52359W        W23975  33.048  13.362  14.478
52360W        W23976   8.607  34.933   3.639
52361W        W23977   8.382   5.717   3.796
52362W        W23978  31.516   9.826  12.580
52363W        W23979  12.145   2.413   2.472
52364W        W23980   2.411  12.725   5.032
52365W        W23981  36.434  23.248  14.449
52366W        W23982  36.273  35.363  12.568
52367W        W23983  43.870  11.638  12.199
52368W        W23984  24.733  23.448   0.735
52369W        W23985  29.130  15.267   0.446
52370W        W23986  41.042  16.664   1.395
52371W        W23987   1.907  23.756  14.838
52372W        W23988  31.482  42.600   4.533
52373W        W23989  18.282  31.940  11.429
52374W        W23990  27.595  30.034  11.158
52375W        W23991  41.452   9.675  14.844
52376W        W23992  27.624  31.133  12.570
52377W        W23993   3.636  24.994  12.596
52378W        W23994   1.275  42.097  12.936
52379W        W23995  26.477  14.012   4.234
52380W        W23996  11.463   2.289   1.169
52381W        W23997  33.621   3.953  14.854
52382W        W23998  21.065  23.635   2.156
52383W        W23999   3.907   7.707   0.036
52384W        W24000  14.696  26.384  14.600
52385W        W24001  44.829  16.925  13.190
52386W        W24002  24.269  37.303   2.577
52387W        W24003  15.582   1.931   0.978
52388W        W24004  33.773  40.206  11.499
52389W        W24005  42.043  15.720   0.343
52390W        W24006  22.539  36.053   2.312
52391W        W24007  42.863  24.303   3.273
52392W        W24008  24.221   8.248   4.698
52393W        W24009  44.325  37.142  14.942
52394W        W24010  16.188  27.738   1.749
52395W        W24011  14.781  12.835  14.129
52396W        W24012  14.779  25.084   1.467
52397W        W24013   6.464  41.084   1.857
52398W        W24014  42.988  13.621  13.576
52399W        W24015   3.967  28.827   0.884
52400W        W24016   0.338  44.957  13.689
52401W        W24017  29.237  14.158  13.360
52402W        W24018  14.453  40.047  10.283
52403W        W24019   0.540  37.587   1.144
52404W        W24020  14.358   8.975  12.088
52405W        W24021  27.192   9.142  11.153
52406W        W24022  12.360   7.778  11.954
52407W        W24023  17.112  38.459  13.960
52408W        W24024  35.566  42.876   5.050
52409W        W24025  13.076  35.895  11.392
52410W        W24026  27.445  15.178   2.743
52411W        W24027  25.945  22.576  11.998
52412W        W24028  11.535  30.592  14.749
52413W        W24029  33.118  21.281   1.275
52414W        W24030  30.041   4.293   4.040
52415W        W24031  31.632  37.617  12.604
52416W        W24032  32.673   4.556   1.020
52417W        W24033  32.825  15.522  12.163
52418W        W24034  40.748  12.301   1.398
52419W        W24035  22.134  19.691   4.067
52420W        W24036  10.618  19.088  13.409
52421W        W24037  26.963   4.284   0.879
52422W        W24038   7.255   7.479   3.692
52423W        W24039  44.311  33.623   1.438
52424W        W24040  25.662   9.576   3.361
52425W        W24041  34.005  42.086  11.204
52426W        W24042   4.254  42.826  13.857
52427W        W24043  44.139  38.989  14.782
52428W        W24044  19.499   5.922  10.129
52429W        W24045  39.905  27.706  11.191
52430W        W24046  41.404  14.382  13.176
52431W        W24047   2.936  41.281   3.386
52432W        W24048  42.314  39.324  14.712
52433W        W24049  32.072  23.601   0.541
52434W        W24050   3.620  12.743  13.972
52435W        W24051  44.072  22.484  11.615
52436W        W24052  39.032  24.267   2.700
52437W        W24053  44.276  13.167   2.259
52438W        W24054  33.992  13.106  14.475
52439W        W24055  37.728  18.818   0.461
52440W        W24056  17.338   6.890   4.543
52441W        W24057  27.410  16.059  10.480
52442W        W24058  38.462  44.476  13.331
52443W        W24059  17.976   8.690  11.107
52444W        W24060  23.676  15.899   4.555
52445W        W24061  13.905  29.018   4.666
52446W        W24062  36.939  16.910  13.345
52447W        W24063  38.020  22.490  11.958
52448W        W24064  27.423  32.538   4.131
52449W        W24065   0.779  19.343   4.142
52450W        W24066  42.691   3.136  13.991
52451W        W24067  13.645   7.359   0.510
52452W        W24068  23.360   3.036  13.620
52453W        W24069  35.361  17.621   2.843
52454W        W24070   8.975   7.987  13.399
52455W        W24071  30.575  30.134   3.186
52456W        W24072  12.448  23.023  12.348
52457W        W24073   7.861  34.382  12.430
52458W        W24074  16.543  44.968  10.249
52459W        W24075  33.469   9.840   3.141
52460W        W24076  21.798  40.946   0.895
52461W        W24077  17.858  45.000   0.043
52462W        W24078   2.254  18.209   3.902
52463W        W24079  28.449  11.230  12.468
52464W        W24080  16.120  15.108   3.350
52465W        W24081  38.900  43.943   4.106
52466W        W24082  28.871  40.042  14.815
52467W        W24083  43.531  23.289   2.243
52468W        W24084   3.747  15.642   2.681
52469W        W24085  40.787  17.534   1.895
52470W        W24086  15.384  31.724   3.034
52471W        W24087   5.664  25.235   2.157
52472W        W24088   2.991  33.416   2.874
52473W        W24089  31.714  11.134   2.241
52474W        W24090  41.369  34.729   1.500
52475W        W24091  25.555  43.913   2.617
52476W        W24092   4.389  35.143  12.467
52477W        W24093   2.161   1.896   0.488
52478W        W24094  40.466   7.872   0.758
52479W        W24095  12.858  27.878   1.703
52480W        W24096  35.520  11.011  10.369
52481W        W24097  26.995   9.174  10.689
52482W        W24098   4.266   2.451   4.540
52483W        W24099  41.080  25.105   4.959
52484W        W24100   6.400  27.674   1.440
52485W        W24101  25.972  33.973  10.526
52486W        W24102  36.984   8.461  11.104
52487W        W24103   2.793   8.396  13.844
52488W        W24104  36.581  36.518   1.166
52489W        W24105  28.716  43.494  11.880
52490W        W24106  16.295   9.258  13.066
52491W        W24107  38.182  44.877  13.978
52492W        W24108  25.316  19.676   1.497
52493W        W24109  27.559  29.844  13.980
52494W        W24110  40.542  43.377   3.393
52495W        W24111  11.331  41.828   2.279
52496W        W24112  26.685  40.403  10.679
52497W        W24113  44.697   4.451  11.864
52498W        W24114   8.113  38.426   3.398
52499W        W24115  44.178  18.544  12.985
52500W        W24116  19.322  36.885  12.036
52501W        W24117   2.033  41.715   2.744
52502W        W24118  35.580  17.717  12.563
52503W        W24119  13.251  14.165   2.222
52504W        W24120  41.952   4.746   2.652
52505W        W24121  28.528  16.338   2.290
52506W        W24122  43.347  16.870   3.926
52507W        W24123  30.941   4.960   1.971
52508W        W24124   1.063  29.623   2.631
52509W        W24125   7.858  37.890  11.681
52510W        W24126  40.823  28.448   0.850
52511W        W24127  27.022  19.695  12.500
52512W        W24128  44.054  12.609  11.187
52513W        W24129  32.600  13.676   1.899
52514W        W24130  30.124  19.949  10.663
52515W        W24131  36.563  33.872  10.752
52516W        W24132  17.306   9.876  13.959
52517W        W24133  13.473  43.863  14.426
52518W        W24134  44.500  24.276   1.388
52519W        W24135  18.523  17.618  10.572
52520W        W24136   3.320  38.187  12.933
52521W        W24137  42.491  33.296   1.402
52522W        W24138  39.382  13.711  12.904
52523W        W24139  29.896  20.295  13.490
52524W        W24140  19.579   9.244  11.589
52525W        W24141  18.081  40.048  12.480
52526W        W24142  14.041  23.277  13.014
52527W        W24143   3.739  35.823   4.156
52528W        W24144   1.982  26.362  13.331
52529W        W24145  38.612  11.089   4.138
52530W        W24146   1.253  44.793   2.643
52531W        W24147  22.457  41.880  13.588
52532W        W24148   7.362  37.558   1.391
52533W        W24149  24.811  17.042   3.459
52534W        W24150   7.151  13.817   0.337
52535W        W24151  30.922  32.352  12.964
52536W        W24152   5.828  36.009  14.672
52537W        W24153  41.707  26.694  10.689
52538W        W24154  18.224  21.370   2.742
52539W        W24155  31.634  38.336   1.861
52540W        W24156  22.148  16.249   0.886
52541W        W24157  17.794  26.954   4.857
52542W        W24158  41.436   8.139  10.721
52543W        W24159  36.335  13.724   1.826
52544W        W24160  29.227   5.721   2.201
52545W        W24161   9.641   6.040  13.046
52546W        W24162  18.836  19.253  11.587
52547W        W24163  34.023  22.994  11.129
52548W        W24164  16.820  15.305   0.206
52549W        W24165  18.638  31.800   3.351
52550W        W24166  31.454   9.413   1.136
52551W        W24167  30.530  31.850   2.807
52552W        W24168  23.059  37.013  14.783
52553W        W24169  35.154  38.373   1.925
52554W        W24170   4.430  26.098  11.505
52555W        W24171  16.664   0.309   3.351
52556W        W24172  26.633  34.917  11.543
52557W        W24173  31.465  27.778   1.777
52558W        W24174  27.207  36.078  13.975
52559W        W24175  29.149   6.006   4.526
52560W        W24176  27.690  44.150  12.541
52561W        W24177  16.669  34.677   3.824
52562W        W24178  19.886  26.032   1.131
52563W        W24179  41.041   6.917  12.937
52564W        W24180  36.569   4.983  12.243
52565W        W24181   5.879   3.274   1.323
52566W        W24182  39.378  19.005   3.085
52567W        W24183   6.395  28.528   2.018
52568W        W24184  17.711  12.170   0.949
52569W        W24185  26.255   4.688  13.486
52570W        W24186   1.018  19.006   1.880
52571W        W24187   7.294  38.220   1.797
52572W        W24188   0.961   9.777  14.717
52573W        W24189  15.815  26.888  14.616
52574W        W24190  44.408  35.617  13.082
52575W        W24191  37.348  17.897  11.458
52576W        W24192  21.069  24.692   4.184
52577W        W24193  31.052   1.247  13.365
52578W        W24194  28.078  28.861   4.066
52579W        W24195   0.485  17.534  14.035
52580W        W24196  27.551  34.360   1.294
52581W        W24197  32.175   2.232  11.985
52582W        W24198  34.772  30.724   2.744
52583W        W24199  18.716  44.850   3.797
52584W        W24200  16.575  35.712   3.754
52585W        W24201  19.975  28.520   0.138
52586W        W24202  29.390   8.443  13.086
52587W        W24203  14.966  27.126  14.602
52588W        W24204   5.769  38.466  11.191
52589W        W24205  14.327   4.921  10.227
52590W        W24206  44.119  30.011   0.078
52591W        W24207  44.938  42.497   2.736
52592W        W24208  15.554   5.292  10.349
52593W        W24209  14.172  42.170  11.130
52594W        W24210   2.842   7.435  14.005
52595W        W24211  27.166  23.522   3.222
52596W        W24212  21.641  42.217  13.429
52597W        W24213  35.161  16.372   3.070
52598W        W24214   2.652  44.847  14.363
52599W        W24215   9.265  36.549   4.398
52600W        W24216  34.463   2.707  13.609
52601W        W24217  21.331  28.699   0.489
52602W        W24218  32.063  40.001   1.382
52603W        W24219   7.923  34.079   2.936
52604W        W24220  35.106  28.156  10.179
52605W        W24221   6.131  31.655  13.418
52606W        W24222  14.564  27.119  11.462
52607W        W24223  24.003  16.410   3.236
52608W        W24224   3.810   1.231   1.003
52609W        W24225  35.313  35.359   2.925
52610W        W24226  10.404  39.480   4.621
52611W        W24227  39.380  22.818  12.071
52612W        W24228  28.943  11.304  12.890
52613W        W24229  31.954  18.110  13.927
52614W        W24230  37.536  36.296  10.559
52615W        W24231  26.838   1.566  14.870
52616W        W24232  43.615  11.140  14.208
52617W        W24233  13.879  35.111  14.947
52618W        W24234   3.919  32.390  13.544
52619W        W24235  10.356  13.661  11.478
52620W        W24236  20.785   8.555   3.739
52621W        W24237  14.237  10.721   0.430
52622W        W24238  32.985  30.348   3.239
52623W        W24239  43.550   2.435   1.213
52624W        W24240  24.694  34.346  11.156
52625W        W24241   0.470  33.440  14.372
52626W        W24242  43.525  34.152   1.247
52627W        W24243  28.060  36.180  14.042
52628W        W24244  21.704  20.716  12.275
52629W        W24245  18.477  12.729   1.778
52630W        W24246   3.306  30.194  12.291
52631W        W24247  12.358  24.749  12.016
52632W        W24248  27.217  24.570   4.288
52633W        W24249  29.089  33.780   0.818
52634W        W24250  41.297  10.723   3.357
52635W        W24251   1.435  13.771   4.711
52636W        W24252  15.585  26.963  11.005
52637W        W24253  13.062  31.710  11.961
52638W        W24254  35.543  44.304  14.522
52639W        W24255  17.614  33.206   1.117
52640W        W24256  34.451  17.837   1.207
52641W        W24257  26.449  21.043  10.884
52642W        W24258  19.263  30.013  14.766
52643W        W24259  29.599  24.128  13.929
52644W        W24260  15.123  28.067   2.783
52645W        W24261  33.692   2.812  10.394
52646W        W24262  28.511   4.717  14.391
52647W        W24263  40.752   4.700  11.870
52648W        W24264  37.277  36.564   0.710
52649W        W24265  31.990   3.860   1.723
52650W        W24266  39.551   2.776  14.320
52651W        W24267  18.613  41.741   0.428
52652W        W24268  13.410  24.524   0.149
52653W        W24269  10.250  14.749   2.224
52654W        W24270   3.757  40.136   0.290
52655W        W24271  36.982  22.061  14.225
52656W        W24272  28.468  42.045  12.136
52657W        W24273  27.475  36.763  12.404
52658W        W24274  44.670  43.440   2.897
52659W        W24275   5.088  26.043  11.081
52660W        W24276  44.035  44.788   0.360
52661W        W24277  17.239  29.803  14.000
52662W        W24278  28.563   4.370   1.385
52663W        W24279  25.140  10.393   1.695
52664W        W24280   3.259  23.094   0.636
52665W        W24281  44.441  22.247   0.449
52666W        W24282   6.303  35.087  13.566
52667W        W24283  28.507  10.654  12.200
52668W        W24284  43.342  30.461  12.936
52669W        W24285  36.060   2.880  10.588
52670W        W24286  24.242  17.111   1.880
52671W        W24287  40.295  35.224  11.518
52672W        W24288  22.986   8.776   4.610
52673W        W24289  39.052  28.635  12.883
52674W        W24290  28.476  44.451   2.171
52675W        W24291  34.434  11.516  14.098
52676W        W24292   8.696  13.706  12.189
52677W        W24293  17.759  13.567   1.215
52678W        W24294  24.650  38.822   3.330
52679W        W24295  17.703   0.019   2.754
52680W        W24296  23.420   1.872   2.431
52681W        W24297  19.685  14.226  13.901
52682W        W24298   5.331  41.519  12.367
52683W        W24299  13.323  16.079  13.905
52684W        W24300  25.745  16.124  10.002
52685W        W24301  29.657  21.097  11.652
52686W        W24302   1.981  42.968   1.825
52687W        W24303  40.480  26.127   2.025
52688W        W24304   2.562   0.689   2.203
52689W        W24305  28.546  11.854   0.424
52690W        W24306  33.413  35.430   4.368
52691W        W24307  11.774  37.524  11.638
52692W        W24308  26.532  29.510  14.803
52693W        W24309  41.813  14.265   3.333
52694W        W24310  28.286   7.286  12.842
52695W        W24311  28.355  18.801   2.214
52696W        W24312  37.674  10.762  13.006
52697W        W24313  40.084   0.277  10.703
52698W        W24314  11.056   2.838   3.732
52699W        W24315  28.472   3.671   0.582
52700W        W24316  41.878  13.463  14.333
52701W        W24317  29.916  28.996  11.591
52702W        W24318   6.887   3.887  13.825
52703W        W24319  15.992  38.713   2.851
52704W        W24320  26.192   5.284  14.699
52705W        W24321  28.630   3.356   0.209
52706W        W24322   7.999  13.840   1.778
52707W        W24323  28.169  16.010  12.840
52708W        W24324  10.392  18.547  13.901
52709W        W24325  26.971   6.118  11.969
52710W        W24326  19.145  35.054  10.909
52711W        W24327   1.532  21.490  13.024
52712W        W24328  19.025   7.715  13.638
52713W        W24329  12.626   2.748  14.318
52714W        W24330  43.234  31.927  10.695
52715W        W24331  15.228  15.865  13.324
52716W        W24332  30.599  19.208   1.860
52717W        W24333   3.246  20.223  12.854
52718W        W24334  39.400  16.304  13.095
52719W        W24335  36.369   1.320   1.874
52720W        W24336  18.544  32.299   1.362
52721W        W24337  44.428   5.489  12.629
52722W        W24338  17.763  15.535   1.291
52723W        W24339   8.427  39.800  14.256
52724W        W24340  11.625   7.692   4.900
52725W        W24341  20.280  21.018  10.195
52726W        W24342  44.981  19.798   2.730
52727W        W24343  17.345  37.562   2.725
52728W        W24344   3.654  35.606   1.892
52729W        W24345  10.855  10.280   4.523
52730W        W24346   2.825  22.592   4.169
52731W        W24347  39.521  27.649   1.893
52732W        W24348  44.585  30.940   1.269
52733W        W24349  20.297  19.796  13.450
52734W        W24350  12.327  21.516  12.595
52735W        W24351  17.045  16.352   3.788
52736W        W24352  14.715  40.968  13.837
52737W        W24353   4.682  10.389   1.306
52738W        W24354  15.094  26.221   4.532
52739W        W24355  35.632  34.521   3.341
52740W        W24356  41.517  43.364  12.337
52741W        W24357  35.486   6.726   4.859
52742W        W24358  32.190   1.350  13.859
52743W        W24359  17.744  33.080  11.930
52744W        W24360  39.494   4.732  11.074
52745W        W24361  44.076   4.123  12.410
52746W        W24362  34.458  37.574  13.361
52747W        W24363  20.768  32.537   4.452
52748W        W24364  44.537  23.047   3.764
52749W        W24365  44.302  42.034  14.405
52750W        W24366  31.303   4.201  12.090
52751W        W24367  29.901  17.102   4.492
52752W        W24368   8.802   8.923   5.003
52753W        W24369  16.154  27.565   0.816
52754W        W24370  15.640  43.038  10.446
52755W        W24371  20.657  18.706   0.762
52756W        W24372  26.615  37.877  13.020
52757W        W24373   3.130  40.863   2.265
52758W        W24374  41.530  40.318  12.450
52759W        W24375  14.547  14.782  11.524
52760W        W24376  33.674  16.661   0.094
52761W        W24377   9.854  12.594   3.611
52762W        W24378  30.920   9.596  13.381
52763W        W24379  26.249  31.533  12.057
52764W        W24380  22.232  25.519   1.372
52765W        W24381  17.710  37.388   4.571
52766W        W24382  29.526  16.151   4.198
52767W        W24383   4.734  26.439   1.211
52768W        W24384  16.205  10.795   1.680
52769W        W24385  40.754  38.124   3.743
52770W        W24386  20.406  42.981  14.577
52771W        W24387  29.433  33.988   0.444
52772W        W24388   3.915   4.643  14.377
52773W        W24389   5.845  21.874   2.712
52774W        W24390  34.965  20.270   3.739
52775W        W24391  40.367  35.975   1.040
52776W        W24392  28.040   9.711   2.879
52777W        W24393   8.382  22.912  10.932
52778W        W24394  35.333  16.282  11.128
52779W        W24395  21.291  16.866   2.740
52780W        W24396  27.865  27.167   2.159
52781W        W24397  17.239  11.585  13.460
52782W        W24398  34.421  33.920   4.388
52783W        W24399  42.876   4.144  12.106
52784W        W24400  13.633  19.893  11.013
52785W        W24401  23.613  30.513  10.647
52786W        W24402  16.829  41.364   3.231
52787W        W24403  36.529  16.540   4.664
52788W        W24404   9.096  25.490  14.205
52789W        W24405  21.149  24.956  12.809
52790W        W24406   0.646  42.053  14.340
52791W        W24407   4.234   1.503   4.589
52792W        W24408  10.671   1.404   4.258
52793W        W24409  27.403  39.424  10.635
52794W        W24410  33.477  22.784  14.778
52795W        W24411  11.225   3.380   0.114
52796W        W24412   1.065   9.194  10.586
52797W        W24413  24.523  22.051  13.829
52798W        W24414  34.288  13.764   1.036
52799W        W24415  18.477  14.226   4.087
52800W        W24416   8.428  21.515   2.388
52801W        W24417  19.563  14.449  12.085
52802W        W24418  37.232   3.322  12.885
52803W        W24419  27.521   5.681  14.398
52804W        W24420  41.939   7.638  10.921
52805W        W24421  39.111  16.675  14.471
52806W        W24422  17.699  41.400  13.482
52807W        W24423  11.822  17.182   3.327
52808W        W24424   7.251   6.864  14.484
52809W        W24425  42.053  24.427  11.558
52810W        W24426  15.007  22.640  10.747
52811W        W24427  33.157  36.032   1.148
52812W        W24428  34.463  20.462  13.157
52813W        W24429  19.068  31.211  12.563
52814W        W24430  42.723  24.955  13.937
52815W        W24431   2.816  26.492  14.310
52816W        W24432   4.865  19.169  14.964
52817W        W24433  43.601   6.264   4.068
52818W        W24434  11.861  24.688   0.886
52819W        W24435  27.095  26.066  11.989
52820W        W24436   6.106  31.083   3.807
52821W        W24437  36.055  14.829  10.635
52822W        W24438   5.177   4.820   2.733
52823W        W24439  44.331   5.366  12.140
52824W        W24440  11.721  23.068   2.894
52825W        W24441  13.092  43.623   1.886
52826W        W24442  16.156  11.284  14.014
52827W        W24443  20.211   6.468  12.068
52828W        W24444  41.839  26.020   2.941
52829W        W24445  32.567  31.719  11.100
52830W        W24446  25.555  32.645   3.797
52831W        W24447  11.605   0.492   1.222
52832W        W24448  41.967  28.112   4.539
52833W        W24449  34.635  44.956  14.033
52834W        W24450  22.226  13.254  13.943
52835W        W24451  17.558  11.897   0.166
52836W        W24452  42.461  12.343   1.788
52837W        W24453   0.704   9.717  14.280
52838W        W24454   2.475   6.355  13.417
52839W        W24455  40.215  20.918   3.366
52840W        W24456  25.494  26.881   1.823
52841W        W24457  42.165  16.600  12.916
52842W        W24458   5.340   6.653  11.154
52843W        W24459  31.453  41.045   1.385
52844W        W24460  23.740  29.498   0.703
52845W        W24461  37.454   8.571   3.741
52846W        W24462  36.480  41.790   1.985
52847W        W24463  10.091  32.580   1.358
52848W        W24464  24.020   2.351  13.901
52849W        W24465  27.202  25.538  12.570
52850W        W24466  15.771  17.349   1.291
52851W        W24467  41.848  31.016  10.828
52852W        W24468  33.465   5.466   2.840
52853W        W24469   5.808   0.944  13.991
52854W        W24470  36.885  27.033   3.784
52855W        W24471  30.695  20.040   2.415
52856W        W24472   5.544  38.488  12.568
52857W        W24473  11.670  35.868   0.923
52858W        W24474   4.895   2.527   3.063
52859W        W24475  25.410  40.419   4.952
52860W        W24476  22.559  13.650   0.349
52861W        W24477   8.867  24.214  11.216
52862W        W24478  32.363  18.736  14.471
52863W        W24479   0.258  22.484   5.104
52864W        W24480  30.864  31.004   2.039
52865W        W24481   1.034  43.612  10.765
52866W        W24482  11.794  23.530   4.185
52867W        W24483  42.441  31.455   0.799
52868W        W24484  18.890  39.609   2.768
52869W        W24485  16.568   9.504   3.965
52870W        W24486  16.020   2.370   3.940
52871W        W24487  11.117  15.728  12.460
52872W        W24488  11.203  12.182   0.236
52873W        W24489   2.693  33.994   3.703
52874W        W24490  36.975  10.172   3.337
52875W        W24491  42.430  17.592   4.452
52876W        W24492  33.543  37.627   5.050
52877W        W24493  24.009  32.056  14.274
52878W        W24494  13.093  22.112  13.433
52879W        W24495  34.473   1.134   3.067
52880W        W24496  37.071  18.995   4.554
52881W        W24497  31.470  10.761  14.984
52882W        W24498  24.497   8.685   0.227
52883W        W24499  21.210  37.374  12.779
52884W        W24500  37.641  31.594  10.438
52885W        W24501  42.437  28.634  10.841
52886W        W24502  30.373  40.269  14.369
52887W        W24503  44.529  22.856   2.752
52888W        W24504  16.545  12.234   4.406
52889W        W24505  43.379  15.291  11.820
52890W        W24506   0.931  19.693  10.770
52891W        W24507  28.103  40.058   1.187
52892W        W24508  21.616  10.146  13.507
52893W        W24509  27.559  13.694  14.893
52894W        W24510  17.146  12.905   0.833
52895W        W24511  18.648   0.857   3.577
52896W        W24512   4.272  38.280  14.804
52897W        W24513  27.918   9.907   3.877
52898W        W24514  20.654   8.294   4.624
52899W        W24515  43.401  41.857  14.999
52900W        W24516  33.651  28.602  13.871
52901W        W24517  20.514  24.692   0.358
52902W        W24518  36.378  25.960   1.783
52903W        W24519  21.678  24.391  14.355
52904W        W24520  40.354  11.725  14.712
52905W        W24521  35.868  38.409   4.335
52906W        W24522  28.466  24.424   1.063
52907W        W24523   6.133   3.863  14.322
52908W        W24524   2.386  11.639   4.141
52909W        W24525  29.736  14.383   0.224
52910W        W24526  35.887  24.140  14.984
52911W        W24527  43.269   8.636  11.212
52912W        W24528  32.400   5.131  14.862
52913W        W24529  18.191  27.185  11.628
52914W        W24530  25.623   5.329  14.739
52915W        W24531   0.349  35.363   2.906
52916W        W24532  21.094  43.834   2.270
52917W        W24533   1.030  21.953   4.963
52918W        W24534  29.495  11.257   4.094
52919W        W24535   1.280  29.941  12.159
52920W        W24536  18.695  21.474  13.218
52921W        W24537  15.146  20.577  11.150
52922W        W24538  43.923  19.105  14.929
52923W        W24539   9.762  17.479   3.831
52924W        W24540  22.020  21.024   0.300
52925W        W24541   3.751   2.013   4.964
52926W        W24542   8.355  13.483  10.752
52927W        W24543  24.273  27.921  13.489
52928W        W24544  12.274  40.885   0.265
52929W        W24545  15.589  28.940  13.938
52930W        W24546  17.903  31.925   2.221
52931W        W24547  20.657  22.444   1.276
52932W        W24548   9.808  37.083  12.607
52933W        W24549  38.259  40.829  11.213
52934W        W24550   3.380  29.069   3.297
52935W        W24551  15.244  22.124  14.833
52936W        W24552   7.719   4.884  12.896
52937W        W24553  40.270  42.812   4.571
52938W        W24554  25.254  30.585   3.803
52939W        W24555  33.461  11.571  11.177
52940W        W24556  12.129  25.655   1.884
52941W        W24557   0.443  29.525   3.393
52942W        W24558  21.048   8.893   3.104
52943W        W24559  19.804  37.461  11.602
52944W        W24560   7.914  17.656   3.185
52945W        W24561   5.617  34.053   0.154
52946W        W24562  21.627   8.330  12.138
52947W        W24563  22.201  11.585  11.901
52948W        W24564  44.643  12.438   4.522
52949W        W24565  39.804  40.986   4.155
52950W        W24566  30.392  32.588   3.159
52951W        W24567  44.016  39.143  13.386
52952W        W24568  38.769  12.258   0.959
52953W        W24569   6.301   1.989   4.757
52954W        W24570  10.392  36.947  10.164
52955W        W24571  14.354   8.298   2.391
52956W        W24572  35.372  37.562  14.805
52957W        W24573  25.605   9.825  11.523
52958W        W24574   8.508  31.699  12.917
52959W        W24575  15.701  44.438   2.868
52960W        W24576   2.189   3.280  11.166
52961W        W24577   4.381  37.384  11.053
52962W        W24578   3.272  42.493   4.648
52963W        W24579  35.945   2.807   1.279
52964W        W24580  28.860  19.652  11.159
52965W        W24581  20.809   8.949   1.167
52966W        W24582  39.524  28.638  11.383
52967W        W24583  41.691  26.944  12.513
52968W        W24584  33.342  39.342  14.799
52969W        W24585  30.386  37.264   4.143
52970W        W24586  29.234  10.065  12.026
52971W        W24587   6.229  15.011  11.133
52972W        W24588   0.549  15.154  12.034
52973W        W24589  19.800  25.019   2.560
52974W        W24590  43.356  42.692   4.289
52975W        W24591  14.490  23.976  13.558
52976W        W24592  31.517  11.907  13.522
52977W        W24593  39.513  10.656  14.379
52978W        W24594   5.332  36.334  12.517
52979W        W24595  36.690  40.837   1.771
52980W        W24596  42.907  10.918   4.538
52981W        W24597  36.080  32.805   4.595
52982W        W24598  18.226  40.623  14.101
52983W        W24599  42.734  29.708   1.371
52984W        W24600  15.885   4.735  11.110
52985W        W24601  22.622  30.131   1.853
52986W        W24602  25.217  32.691  12.986
52987W        W24603  25.480  16.700   2.215
52988W        W24604  29.942   5.857  14.316
52989W        W24605   3.600  41.518  13.029
52990W        W24606  15.844  41.385   0.789
52991W        W24607  42.008   1.464   1.984
52992W        W24608  30.534   3.120   3.635
52993W        W24609   9.210  40.251   0.024
52994W        W24610  23.239   3.416  13.961
52995W        W24611   4.899  32.388   1.864
52996W        W24612  35.371  25.130  14.199
52997W        W24613  21.033  19.699   0.305
52998W        W24614  11.656   5.469   0.246
52999W        W24615  36.066  21.306   1.855
53000W        W24616  24.993  12.325   0.393
53001W        W24617  36.951  21.649   1.325
53002W        W24618  17.257  36.496   1.307
53003W        W24619  37.360  24.725   1.421
53004W        W24620  42.798   4.316   0.214
53005W        W24621  34.414  13.580  14.018
53006W        W24622   2.432  39.400  11.549
53007W        W24623  12.285  28.884  11.163
53008W        W24624  26.142  18.196   3.136
53009W        W24625   9.129   4.735   1.404
53010W        W24626  30.724  35.865  11.572
53011W        W24627  10.949  32.431  11.560
53012W        W24628   5.225  43.643   0.407
53013W        W24629   7.182  24.172  10.803
53014W        W24630  35.587   8.220   4.243
53015W        W24631  21.275  21.888   4.033
53016W        W24632  33.038  40.589  13.919
53017W        W24633  18.380  23.005   2.107
53018W        W24634  16.703   8.507  10.818
53019W        W24635   5.495  13.307  11.975
53020W        W24636   8.530  41.298   3.120
53021W        W24637  18.763  33.150   0.320
53022W        W24638  22.539   8.468  13.989
53023W        W24639  44.724  23.756  12.345
53024W        W24640  35.601   2.523   4.140
53025W        W24641  14.065  37.506   2.175
53026W        W24642  16.208  25.148   4.665
53027W        W24643   9.059   8.305   0.932
53028W        W24644  26.219  22.267  14.700
53029W        W24645   7.901  10.119  13.561
53030W        W24646  31.429  24.133  14.278
53031W        W24647  10.133   8.496   1.839
53032W        W24648  42.167   0.991   2.204
53033W        W24649  31.469  14.916  11.771
53034W        W24650  38.334  37.514   2.835
53035W        W24651  19.999  14.302  11.847
53036W        W24652  20.079  22.908   2.380
53037W        W24653  14.657  12.861  12.582
53038W        W24654  28.899  24.607   1.391
53039W        W24655   2.006  20.770  14.708
53040W        W24656  35.892   0.539  12.592
53041W        W24657  24.745  26.530   0.255
53042W        W24658  26.874  22.994  13.083
53043W        W24659  34.841  26.858  14.286
53044W        W24660   1.311  28.720   1.407
53045W        W24661   8.656  17.262  10.467
53046W        W24662  40.038  42.836  12.458
53047W        W24663  15.207   9.352  10.740
53048W        W24664  22.794   6.799  14.457
53049W        W24665  21.718  18.129   3.372
53050W        W24666   4.924   4.261  10.999
53051W        W24667   0.856   0.969  14.512
53052W        W24668   4.198  16.243   1.157
53053W        W24669   3.751   0.475   2.407
53054W        W24670  32.892  12.700  14.096
53055W        W24671  15.227  24.168  13.142
53056W        W24672  39.330  42.380  14.128
53057W        W24673   8.031   1.879  11.176
53058W        W24674  10.949   3.758  11.205
53059W        W24675   3.427  34.048   0.996
53060W        W24676   2.621  17.294  14.603
53061W        W24677  13.961   6.240   1.197
53062W        W24678  21.054  22.967   4.916
53063W        W24679   1.741  27.366   1.635
53064W        W24680  23.427  13.388  14.459
53065W        W24681  22.619  34.057   2.913
53066W        W24682  22.064   9.979   1.082
53067W        W24683  15.561  11.261   1.117
53068W        W24684  27.477  27.090   4.713
53069W        W24685  13.279  39.789  13.458
53070W        W24686  42.489  42.879  12.832
53071W        W24687  11.011  21.770   2.948
53072W        W24688  20.547  24.140  12.630
53073W        W24689  28.972  27.659   0.266
53074W        W24690  10.331  24.670   4.396
53075W        W24691  32.187  17.415   3.750
53076W        W24692   7.789  25.386  11.189
53077W        W24693  39.866  28.546   4.523
53078W        W24694   5.108  13.379  14.075
53079W        W24695  14.571  42.742   3.653
53080W        W24696   1.799  16.503  10.791
53081W        W24697   8.751  27.746   1.412
53082W        W24698  21.690  23.743   2.957
53083W        W24699  32.571  35.012  14.314
53084W        W24700   7.323   0.892   1.925
53085W        W24701  39.962  24.717  13.006
53086W        W24702  42.286  38.412   2.010
53087W        W24703  15.182   8.917   4.634
53088W        W24704  31.167  33.578   1.775
53089W        W24705   9.686   4.358   3.502
53090W        W24706  11.247  11.299   4.022
53091W        W24707  31.055  43.833  13.431
53092W        W24708  44.782  21.927   1.961
53093W        W24709  20.062  14.388   1.835
53094W        W24710   7.374  19.248   3.168
53095W        W24711  13.906  13.292   2.786
53096W        W24712  32.672  14.256   3.549
53097W        W24713  32.198  33.008  10.524
53098W        W24714  29.585   1.858  12.049
53099W        W24715  39.069  43.790  12.395
53100W        W24716  23.604  20.525  12.051
53101W        W24717  20.187  12.722  11.593
53102W        W24718  36.332  30.461   0.813
53103W        W24719  17.617  26.260   1.306
53104W        W24720  16.457  24.590  14.960
53105W        W24721  13.271  42.665   0.981
53106W        W24722  29.667  17.332  13.483
53107W        W24723  34.837   9.172   0.806
53108W        W24724  26.687   1.943   2.801
53109W        W24725  37.132  10.801  13.898
53110W        W24726   5.240  22.529   2.297
53111W        W24727   7.014  31.772  13.857
53112W        W24728  29.208  29.482  11.584
53113W        W24729  10.915   2.860   1.401
53114W        W24730   8.348  35.096   2.300
53115W        W24731  36.115   4.271   1.717
53116W        W24732  16.297  34.821  11.467
53117W        W24733  20.168  29.546  10.360
53118W        W24734  29.611  32.921   3.203
53119W        W24735  32.151  36.329  14.557
53120W        W24736   4.805  19.587  12.448
53121W        W24737  34.413   0.079   2.704
53122W        W24738  41.978  24.024  10.640
53123W        W24739   1.784  44.651   3.344
53124W        W24740  10.285  36.599   2.175
53125W        W24741  16.709  31.202  12.515
53126W        W24742   8.984   9.901  14.815
53127W        W24743  23.009  28.164  10.765
53128W        W24744   7.361  30.446   3.596
53129W        W24745  38.594  41.035  13.600
53130W        W24746  26.725  13.804   1.828
53131W        W24747   8.679  38.083   2.586
53132W        W24748  10.928  24.026   0.848
53133W        W24749  16.733   8.462   3.728
53134W        W24750  34.064  31.933   4.593
53135W        W24751   3.433  26.671   1.261
53136W        W24752  33.779  11.373  14.834
53137W        W24753  35.613  41.904   1.425
53138W        W24754   1.348  32.461   1.417
53139W        W24755  33.588  11.095   0.448
53140W        W24756  37.457   3.500   3.991
53141W        W24757  28.161  43.105   4.191
53142W        W24758  14.464  42.947  12.564
53143W        W24759   3.252   1.248  11.513
53144W        W24760  15.797  34.847  10.567
53145W        W24761  36.903  43.940   0.528
53146W        W24762  25.193   8.234   0.693
53147W        W24763  19.764  23.181  12.723
53148W        W24764  38.394  28.985  10.799
53149W        W24765  26.069  15.389  13.076
53150W        W24766  34.886  40.912  12.794
53151W        W24767  21.615   7.873  14.431
53152W        W24768  43.331  18.937  13.856
53153W        W24769   0.294   8.921   0.036
53154W        W24770   7.991  42.128   4.798
53155W        W24771   5.404  22.051  14.051
53156W        W24772  24.405  17.297   3.306
53157W        W24773  10.416  28.608  11.135
53158W        W24774  16.663  32.076  13.362
53159W        W24775  33.289  18.064   4.003
53160W        W24776  12.159  18.686   3.276
53161W        W24777  12.326   2.262  11.994
53162W        W24778  36.079  24.500  11.538
53163W        W24779  26.959   4.942   2.416
53164W        W24780  19.119   6.774   0.488
53165W        W24781  44.226  37.992   1.206
53166W        W24782   3.236  25.533  11.908
53167W        W24783  35.171  30.987  14.550
53168W        W24784   4.395   1.867  10.037
53169W        W24785  10.161  19.124  10.702
53170W        W24786  15.311  42.892   0.275
53171W        W24787  43.795  30.746   2.223
53172W        W24788  32.528  14.169   0.896
53173W        W24789  44.990  27.083  14.430
53174W        W24790   5.857  26.675   3.883
53175W        W24791  17.320  26.487  11.045
53176W        W24792  35.843   0.843  14.904
53177W        W24793  12.191   3.716   3.303
53178W        W24794   8.237  36.637   2.319
53179W        W24795  36.990   2.285   3.838
53180W        W24796  17.605   7.052   3.162
53181W        W24797  29.164  25.546  10.591
53182W        W24798   5.965  23.635   0.230
53183W        W24799  19.628  37.399   4.702
53184W        W24800  37.385  26.668   2.446
53185W        W24801  40.510  11.899  13.304
53186W        W24802  13.248  30.163  12.371
53187W        W24803  37.694   4.716   2.279
53188W        W24804   9.825  16.923   3.862
53189W        W24805  34.906  20.288   4.266
53190W        W24806  18.480  18.729   4.583
53191W        W24807  32.540   5.939   3.748
53192W        W24808  10.194   4.954   3.073
53193W        W24809   0.312  23.236   4.659
53194W        W24810  26.276  34.941  14.790
53195W        W24811  28.554  16.360  11.176
53196W        W24812  35.875  33.478  13.811
53197W        W24813  18.151  39.664   4.022
53198W        W24814   6.912   1.694   2.910
53199W        W24815   0.502  29.658   1.760
53200W        W24816   6.838  34.133   1.175
53201W        W24817  37.947  16.139   3.799
53202W        W24818  36.146  40.900  14.442
53203W        W24819  18.797  11.004  11.295
53204W        W24820  15.311  12.405  12.017
53205W        W24821  24.113  40.912   1.221
53206W        W24822  14.167  27.525  11.606
53207W        W24823  42.396  15.293   1.970
53208W        W24824  26.474   5.163   1.637
53209W        W24825  28.976  40.078   1.162
53210W        W24826  18.155  33.014  14.039
53211W        W24827  10.411  19.708   3.728
53212W        W24828  12.096  38.344   1.896
53213W        W24829   2.884   2.895   3.742
53214W        W24830  33.846  36.509  11.616
53215W        W24831  27.184   3.696   1.755
53216W        W24832  31.518  32.889   2.786
53217W        W24833  15.041  11.201   0.379
53218W        W24834  14.593  21.995   0.463
53219W        W24835  29.460  40.936   4.918
53220W        W24836   6.148   3.405  12.463
53221W        W24837  40.018  32.312   2.942
53222W        W24838  41.438  25.222  13.607
53223W        W24839  37.591  40.294   1.245
53224W        W24840  38.443  33.882   3.692
53225W        W24841  40.292  21.019  12.437
53226W        W24842   4.214  29.113  12.081
53227W        W24843  23.959  18.568   3.060
53228W        W24844  22.629   5.181  13.898
53229W        W24845   4.022  27.705  10.298
53230W        W24846  27.293  15.478   0.885
53231W        W24847  34.361   3.931   2.796
53232W        W24848  43.726   3.240  11.312
53233W        W24849   4.639  15.716  13.965
53234W        W24850   2.307  13.106  13.532
53235W        W24851  13.816   1.742  10.680
53236W        W24852  21.310  16.615   0.759
53237W        W24853  39.068  13.231   0.873
53238W        W24854  41.562  41.190   1.816
53239W        W24855  32.984  25.089   0.131
53240W        W24856  20.728   3.944   4.552
53241W        W24857  32.177  15.871  11.028
53242W        W24858   3.907  38.748   2.149
53243W        W24859  33.137  29.248  13.297
53244W        W24860  21.525  44.778   0.430
53245W        W24861  35.441  42.381  12.220
53246W        W24862  23.777  14.307   4.571
53247W        W24863  17.192  33.319  13.094
53248W        W24864   6.804  23.721   3.647
53249W        W24865  14.688  24.057  12.891
53250W        W24866  16.699  28.533  11.770
53251W        W24867  10.385  19.311  12.996
53252W        W24868   5.692  19.280  13.840
53253W        W24869  32.710  12.935  10.665
53254W        W24870  31.598  20.516   2.494
53255W        W24871   6.232  37.149  10.573
53256W        W24872  26.130  30.927   0.669
53257W        W24873  26.416  33.586   4.151
53258W        W24874  31.148  25.292  13.720
53259W        W24875  20.022   6.922   1.866
53260W        W24876  10.417   8.021  13.466
53261W        W24877  36.335  40.217  11.988
53262W        W24878  21.597   2.898   3.573
53263W        W24879  33.504  26.095  13.126
53264W        W24880  18.981  11.326  11.668
53265W        W24881  42.516   5.877  14.420
53266W        W24882  26.098  16.703  12.887
53267W        W24883  12.996   5.875   3.761
53268W        W24884  14.537  22.633   4.512
53269W        W24885  15.735  37.361  13.076
53270W        W24886   7.836   8.841   0.661
53271W        W24887  33.136  26.532   0.487
53272W        W24888  39.525  26.764  11.970
53273W        W24889  34.474  14.375   1.758
53274W        W24890  27.263  27.706  14.326
53275W        W24891  39.771  10.609   2.879
53276W        W24892  41.780  42.053  13.498
53277W        W24893  28.892  21.037  12.560
53278W        W24894   4.284   1.763  12.488
53279W        W24895   1.845  33.482   4.308
53280W        W24896  38.445  39.487  11.862
53281W        W24897  23.674  38.472   2.724
53282W        W24898  26.013   6.772   3.587
53283W        W24899  27.512  35.130  14.333
53284W        W24900  24.744  27.461  11.919
53285W        W24901   5.965  19.605   1.927
53286W        W24902   6.781  27.170  13.564
53287W        W24903  43.309  35.936  12.686
53288W        W24904  11.196   9.701   0.284
53289W        W24905  20.569  39.025   3.187
53290W        W24906  18.002  29.584  11.209
53291W        W24907   6.683  40.100   0.918
53292W        W24908  43.776  36.438  10.983
53293W        W24909   9.750  24.503  10.419
53294W        W24910   6.224  42.315   3.364
53295W        W24911   9.800   7.051   2.780
53296W        W24912   6.883  36.308   1.823
53297W        W24913  37.077  18.744  12.478
53298W        W24914  11.528  16.770  14.488
53299W        W24915   9.307  16.633  14.290
53300W        W24916   6.394  14.783  14.349
53301W        W24917  21.082  13.625   1.296
53302W        W24918  30.985  36.103   0.828
53303W        W24919  38.813   5.349  11.047
53304W        W24920   9.250  19.231  11.450
53305W        W24921  43.682  32.248   3.671
53306W        W24922  42.991  26.649   2.859
53307W        W24923  24.788  26.191   2.528
53308W        W24924  32.074  18.661  11.116
53309W        W24925  26.017  23.193  12.879
53310W        W24926  43.680  24.758   2.307
53311W        W24927   9.325  28.805   3.726
53312W        W24928  20.003  29.279  11.186
53313W        W24929   3.592  19.161  12.260
53314W        W24930  13.716  11.075   4.853
53315W        W24931  10.775  41.012  14.242
53316W        W24932  21.060  17.987  13.842
53317W        W24933  39.196  36.578   2.639
53318W        W24934  35.116   9.369   1.380
53319W        W24935  42.284   8.741  11.636
53320W        W24936  21.246  25.174   3.259
53321W        W24937  29.969  25.622   3.787
53322W        W24938  24.217  16.640   2.788
53323W        W24939  44.749   3.679   2.179
53324W        W24940  31.779  26.731   3.704
53325W        W24941  11.255  17.231   4.943
53326W        W24942   4.286  29.409  13.934
53327W        W24943  20.951  19.803   2.733
53328W        W24944  39.463  37.524  12.975
53329W        W24945  39.304   6.851   2.245
53330W        W24946  39.397  13.507   9.460
53331W        W24947  22.543  12.221  14.352
53332W        W24948  44.933  20.712   1.316
53333W        W24949   1.027  18.758   2.766
53334W        W24950  38.861  35.641  10.621
53335W        W24951  38.939  11.675  14.429
53336W        W24952  13.796  26.058  12.061
53337W        W24953  29.946   7.426  11.182
53338W        W24954   3.019   1.060   0.032
53339W        W24955  18.053  26.537  14.573
53340W        W24956  38.510  10.372   2.268
53341W        W24957  37.655  12.276  13.834
53342W        W24958  24.427   2.840  14.310
53343W        W24959  15.899  21.958   2.270
53344W        W24960  42.269  24.190   0.912
53345W        W24961  35.571  28.038   4.708
53346W        W24962   7.396   4.175   4.431
53347W        W24963  13.312   3.379   5.044
53348W        W24964   1.324  19.011  12.018
53349W        W24965  39.101  11.866  13.938
53350W        W24966  10.275   6.954  11.141
53351W        W24967   6.295  34.030  12.890
53352W        W24968   1.108  38.967   2.860
53353W        W24969  15.738   3.623   3.630
53354W        W24970  29.606  15.547   0.859
53355W        W24971  11.551  28.636  14.848
53356W        W24972  23.237  39.971   1.858
53357W        W24973  39.450  30.457   1.524
53358W        W24974  21.752  36.415   0.375
53359W        W24975  21.640  10.859  10.692
53360W        W24976   6.934  16.168   3.639
53361W        W24977   7.432  40.004   2.247
53362W        W24978  29.480  43.896   1.301
53363W        W24979  17.793  10.977  12.842
53364W        W24980  15.741   2.299   4.519
53365W        W24981  42.777  16.173   5.024
53366W        W24982  32.614  37.436  11.722
53367W        W24983  14.243  44.407   4.620
53368W        W24984  14.787  26.483   4.221
53369W        W24985  19.618  30.872   3.630
53370W        W24986  18.670  31.187   2.162
53371W        W24987  17.602   8.893   4.705
53372W        W24988  25.532   8.048  13.595
53373W        W24989  32.119  16.716   0.978
53374W        W24990  42.162  26.769  12.556
53375W        W24991   6.317  21.281  11.714
53376W        W24992   6.280  39.923  13.528
53377W        W24993  32.059  34.792   1.721
53378W        W24994  39.593  12.672  13.000
53379W        W24995   5.731  19.148   2.614
53380W        W24996  28.564  27.513   4.392
53381W        W24997  15.839  35.612  12.039
53382W        W24998  32.520  31.337   1.322
53383W        W24999   5.287  15.269  14.370
53384W        W25000  38.317  32.990   0.256
53385W        W25001  29.915  30.460  10.373
53386W        W25002  28.604  12.866   4.414
53387W        W25003   9.387  22.084   2.830
53388W        W25004  19.281  12.236  13.381
53389W        W25005  31.368   7.285   4.160
53390W        W25006   8.889   1.790   3.726
53391W        W25007   0.005  18.194  12.013
53392W        W25008  24.665   0.644   4.282
53393W        W25009  22.579   1.801   1.766
53394W        W25010   2.723   7.645  13.137
53395W        W25011  24.217  18.187  13.282
53396W        W25012  16.025  35.371  12.460
53397W        W25013  25.133  36.349   3.452
53398W        W25014  35.388  22.058  12.558
53399W        W25015  41.854   3.233   1.664
53400W        W25016  26.610  42.908  13.548
53401W        W25017  21.471  31.981   0.323
53402W        W25018  44.192  38.533   4.145
53403W        W25019  33.855  18.101   1.343
53404W        W25020   0.707  39.936   3.890
53405W        W25021  23.154  28.606  14.289
53406W        W25022  22.225  19.799   2.069
53407W        W25023  42.269   1.692  14.798
53408W        W25024  23.669  22.535   4.597
53409W        W25025  13.441  25.791  10.352
53410W        W25026   4.833  44.319  13.361
53411W        W25027  44.471   8.370   0.762
53412W        W25028  43.317  19.027  12.945
53413W        W25029  43.336   8.865   0.524
53414W        W25030   7.726  10.886   3.085
53415W        W25031  23.067  22.698  13.889
53416W        W25032  25.900  41.823  14.528
53417W        W25033  35.079  37.873   4.655
53418W        W25034   2.988   0.841  12.888
53419W        W25035  22.295  37.243  11.250
53420W        W25036  10.271  13.050  11.545
53421W        W25037  25.604  32.319   4.639
53422W        W25038   8.640  22.154   1.931
53423W        W25039  13.234   1.429  14.285
53424W        W25040  12.714  33.679  11.528
53425W        W25041  32.932  18.206   1.225
53426W        W25042  44.414  38.045   3.245
53427W        W25043  31.392  40.972  12.021
53428W        W25044   9.276  14.133   0.469
53429W        W25045  40.778  13.186   4.087
53430W        W25046  37.635  44.809   3.115
53431W        W25047  42.264  43.970   3.697
53432W        W25048   0.593  40.728   2.812
53433W        W25049   6.318  25.065  13.375
53434W        W25050  34.907  27.625  13.313
53435W        W25051  43.522  28.997   0.022
53436W        W25052  15.829  33.655   0.719
53437W        W25053  33.672  31.180   0.335
53438W        W25054  33.917  10.656   0.020
53439W        W25055   6.720  23.200  10.611
53440W        W25056   4.843   6.116  12.032
53441W        W25057  29.045  28.621   0.385
53442W        W25058  26.620  10.187   1.102
53443W        W25059  14.037  23.882  14.404
53444W        W25060  11.737  40.592  11.408
53445W        W25061  38.803   5.940  14.739
53446W        W25062  37.907  23.139   2.464
53447W        W25063  21.235  36.433  12.399
53448W        W25064  17.667  27.408  14.922
53449W        W25065  31.679   2.801  11.952
53450W        W25066  16.173   3.820  11.505
53451W        W25067  19.622   0.311  11.776
53452W        W25068   9.329  38.282  12.137
53453W        W25069  20.918  26.019  13.426
53454W        W25070   4.647   5.780   0.866
53455W        W25071  39.434  28.462   1.298
53456W        W25072   1.889  40.341  10.733
53457W        W25073  32.161  31.118  11.533
53458W        W25074  18.525  10.110  11.828
53459W        W25075   8.621  39.265   1.839
53460W        W25076  23.560   8.876   3.536
53461W        W25077  39.386   1.734  10.936
53462W        W25078  27.106  22.752  13.889
53463W        W25079  21.548  13.845   1.751
53464W        W25080  14.652  38.794   4.008
53465W        W25081   3.285   4.932   5.063
53466W        W25082  22.600   7.292  11.448
53467W        W25083   1.289  11.248   1.309
53468W        W25084   0.568  35.190  14.596
53469W        W25085   5.314  24.118  12.958
53470W        W25086  40.317  12.423  12.425
53471W        W25087   6.437  29.070   4.164
53472W        W25088  41.827  30.102  13.482
53473W        W25089   1.226  32.441  13.431
53474W        W25090  39.855  44.825   0.785
53475W        W25091  25.660   7.948  12.329
53476W        W25092  31.622   6.555  12.435
53477W        W25093  26.644  44.693  14.326
53478W        W25094  12.647  36.089  11.164
53479W        W25095  18.119  11.170  14.376
53480W        W25096  36.020   0.385   0.676
53481W        W25097  31.894  11.583   2.427
53482W        W25098  40.953  16.082  14.498
53483W        W25099  29.633  22.665  13.621
53484W        W25100  42.082  35.674   5.650
53485W        W25101  25.145  11.161  12.525
53486W        W25102   4.633  24.525   2.838
53487W        W25103  35.959   4.840  13.083
53488W        W25104  28.869  16.604   1.433
53489W        W25105  31.548   0.934  13.268
53490W        W25106  19.178   9.413  13.015
53491W        W25107   8.754  24.117  10.722
53492W        W25108  41.075  35.517   0.513
53493W        W25109  17.631  42.866   2.230
53494W        W25110  29.238  11.196  13.321
53495W        W25111  19.310  22.508   4.251
53496W        W25112  24.063  13.240   4.687
53497W        W25113   9.785  27.607  13.304
53498W        W25114  40.915  42.364   1.862
53499W        W25115  39.208  24.494  13.538
53500W        W25116  15.852  17.244  10.678
53501W        W25117  16.258   3.126  13.460
53502W        W25118  16.707  25.456  10.650
53503W        W25119   1.484   3.910  14.296
53504W        W25120  12.051  21.126  11.519
53505W        W25121   6.266  27.993   3.764
53506W        W25122  20.240  13.149  12.972
53507W        W25123  33.051  33.860   2.696
53508W        W25124  30.625   5.941  13.447
53509W        W25125  11.340   0.385  14.857
53510W        W25126   5.448   5.399   3.745
53511W        W25127  13.369  24.001   1.047
53512W        W25128  44.873  39.514  14.979
53513W        W25129  32.356  37.617   4.205
53514W        W25130  10.645  23.461  14.424
53515W        W25131   4.753  37.505  14.046
53516W        W25132  22.264  24.112   1.208
53517W        W25133  19.828  21.047  14.767
53518W        W25134   6.747  23.309   1.910
53519W        W25135   7.426  40.480  11.605
53520W        W25136  15.021   6.149  11.009
53521W        W25137  36.116  18.319   2.732
53522W        W25138  17.984  30.025  12.009
53523W        W25139  30.169  11.580   3.684
53524W        W25140  15.762  19.118   0.068
53525W        W25141  39.464  40.045   3.840
53526W        W25142  21.488  17.270  14.939
53527W        W25143  14.003  39.918  12.510
53528W        W25144  21.341  10.395  10.581
53529W        W25145  44.483  18.230  12.035
53530W        W25146  18.617  30.955   1.190
53531W        W25147  42.477  41.973  13.029
53532W        W25148  31.588   0.440   0.347
53533W        W25149  19.696   3.357  12.126
53534W        W25150  21.782  10.092   2.695
53535W        W25151  14.124  36.490   2.657
53536W        W25152  11.064  41.874   0.727
53537W        W25153   2.825   3.738  12.171
53538W        W25154  28.424  16.880   3.699
53539W        W25155  39.663  32.159  10.642
53540W        W25156  32.606   6.788  12.588
53541W        W25157  32.909   4.973  11.509
53542W        W25158   1.997   0.341  12.176
53543W        W25159  25.767  18.670   1.028
53544W        W25160  39.861  26.221   4.930
53545W        W25161  24.589  13.651   3.487
53546W        W25162   8.647  20.132   3.509
53547W        W25163  27.696   6.887   1.892
53548W        W25164  10.914   9.116  13.001
53549W        W25165  11.132   0.820   0.824
53550W        W25166  13.172  31.484   4.978
53551W        W25167  31.174   9.885  13.773
53552W        W25168   5.790  23.695   1.870
53553W        W25169  29.424  24.729   2.132
53554W        W25170  31.021  17.989   3.740
53555W        W25171  31.984   0.610   3.652
53556W        W25172  29.460  22.669   2.623
53557W        W25173  26.346  41.324   3.768
53558W        W25174  25.533   5.194   1.420
53559W        W25175  21.640  41.976   0.049
53560W        W25176   0.348   3.830  10.747
53561W        W25177   5.931  31.490   4.869
53562W        W25178  37.015  28.594   3.616
53563W        W25179  21.256  18.772   2.415
53564W        W25180  16.599   2.406  13.942
53565W        W25181  20.067   3.150   4.193
53566W        W25182  28.440   8.962   0.662
53567W        W25183  27.035  29.168   2.948
53568W        W25184   0.915   2.257  11.101
53569W        W25185   5.271  14.367  12.497
53570W        W25186  36.305  20.574  11.128
53571W        W25187  22.505  30.623  14.009
53572W        W25188  41.949  44.077  11.938
53573W        W25189   2.310  33.280   4.199
53574W        W25190  13.250   8.762  14.425
53575W        W25191  30.398  36.887   1.974
53576W        W25192  20.432  16.648  12.138
53577W        W25193   3.686  21.019   4.709
53578W        W25194  38.287  38.871   1.794
53579W        W25195  10.444  35.437   4.074
53580W        W25196   4.829  17.709   1.784
53581W        W25197  26.980  32.795  12.808
53582W        W25198   2.009   2.540  11.705
53583W        W25199  14.837   8.770  11.254
53584W        W25200  18.554  23.978  13.112
53585W        W25201  31.981  16.999  12.449
53586W        W25202  11.464  19.065  12.980
53587W        W25203  10.119  31.653   0.358
53588W        W25204  33.871  17.689   2.883
53589W        W25205   9.811  38.125  12.947
53590W        W25206  27.002   0.922  10.546
53591W        W25207   7.843  16.173  12.054
53592W        W25208  26.266  28.754   2.795
53593W        W25209  37.456  14.072   4.370
53594W        W25210  43.284  30.069   4.296
53595W        W25211  41.744  19.499  10.708
53596W        W25212  31.365   4.979  14.292
53597W        W25213   7.188   3.142   4.450
53598W        W25214  20.640   6.171  12.036
53599W        W25215   2.779  10.729  13.899
53600W        W25216  11.551  19.043   0.276
53601W        W25217  41.855  13.220  12.175
53602W        W25218  19.793  37.660   0.375
53603W        W25219  22.736  14.294  13.441
53604W        W25220  42.904  19.999  12.159
53605W        W25221   7.427  31.452   3.049
53606W        W25222  38.838   5.641   2.649
53607W        W25223  21.432  35.408  14.695
53608W        W25224   8.425  31.894   0.349
53609W        W25225   5.892   8.380  10.762
53610W        W25226   0.487  38.124   5.088
53611W        W25227   3.922  30.908  13.297
53612W        W25228  44.739  37.968   2.143
53613W        W25229  16.019  13.031   1.358
53614W        W25230  25.229  34.024  11.902
53615W        W25231   0.189   4.058  13.793
53616W        W25232  24.049   2.366   2.787
53617W        W25233   9.669   1.662   3.270
53618W        W25234  14.812   4.211  14.562
53619W        W25235   9.841  43.716  14.336
53620W        W25236   1.466  28.517   2.816
53621W        W25237  10.413  33.904   4.171
53622W        W25238   3.013  20.763   4.028
53623W        W25239  36.674  20.865   4.108
53624W        W25240  11.484  37.822   2.378
53625W        W25241  29.134   3.840  13.323
53626W        W25242  40.591  36.305  12.931
53627W        W25243  32.611  24.521   4.138
53628W        W25244   9.876  25.085   0.305
53629W        W25245   0.102  24.099  14.284
53630W        W25246   1.837  17.215   0.679
53631W        W25247  38.803   7.284   0.183
53632W        W25248  26.711  30.789  11.830
53633W        W25249  31.944   7.357  14.343
53634W        W25250  14.858   9.917  11.451
53635W        W25251  41.921  29.557  12.051
53636W        W25252  20.879  26.243  12.951
53637W        W25253   4.286  18.628   1.045
53638W        W25254   5.165  27.459  12.103
53639W        W25255  11.063  29.030  10.829
53640W        W25256  27.915  33.817   1.922
53641W        W25257  21.111   0.471   0.764
53642W        W25258  13.641  39.661  14.452
53643W        W25259  28.855   3.412  13.399
53644W        W25260  36.689  36.795  11.898
53645W        W25261  15.682  24.114   3.366
53646W        W25262  44.169  34.634   3.783
53647W        W25263  34.595  25.638  12.429
53648W        W25264  15.860   6.583  10.077
53649W        W25265  24.245  22.750  14.031
53650W        W25266  38.480  18.719  14.407
53651W        W25267  30.233  27.251   0.546
53652W        W25268  15.343  32.365  14.674
53653W        W25269   7.237  21.405   4.527
53654W        W25270   7.218  28.100  11.819
53655W        W25271  40.332  30.856   1.440
53656W        W25272  20.856  11.373  12.048
53657W        W25273  31.593  41.386   0.129
53658W        W25274   9.894  15.434  10.943
53659W        W25275  28.344   5.830   0.185
53660W        W25276   0.284  25.142  12.922
53661W        W25277  44.449   3.452  11.208
53662W        W25278  15.141  21.683   1.301
53663W        W25279  23.022  22.419  11.119
53664W        W25280  23.198   5.691  13.415
53665W        W25281  33.308  33.007   0.416
53666W        W25282  14.813  37.985  12.102
53667W        W25283  25.730  13.612  11.055
53668W        W25284  38.470   5.038   4.592
53669W        W25285  32.279  35.827   0.372
53670W        W25286  13.642  24.181   4.575
53671W        W25287  29.927  37.318   0.587
53672W        W25288   6.772  31.665   1.233
53673W        W25289  36.512  24.116   0.973
53674W        W25290  44.795   6.540   3.699
53675W        W25291  19.235  38.179  13.652
53676W        W25292  32.865  32.491  12.404
53677W        W25293  43.829   1.110  10.480
53678W        W25294  35.522  43.382   4.654
53679W        W25295  14.923   3.434  10.709
53680W        W25296   0.268  40.456  14.308
53681W        W25297  13.501   9.155  10.621
53682W        W25298  19.725  21.015   5.008
53683W        W25299  17.674  43.498   0.242
53684W        W25300   2.748  30.696   3.969
53685W        W25301  18.803  27.483   3.642
53686W        W25302  41.941   3.499  11.916
53687W        W25303  16.023  22.476   1.286
53688W        W25304   4.442   7.228   0.704
53689W        W25305   2.657   1.539   2.512
53690W        W25306  38.931  35.417   4.625
53691W        W25307  27.513  28.024   2.628
53692W        W25308  13.257  21.513  12.887
53693W        W25309   3.272   0.472  13.598
53694W        W25310  13.312  25.382   1.146
53695W        W25311  35.882   7.136  12.963
53696W        W25312   2.384  16.257   4.594
53697W        W25313  28.283  31.476  14.405
53698W        W25314  27.186  23.037   1.908
53699W        W25315  16.870   3.895  12.518
53700W        W25316  15.240  28.564   0.467
53701W        W25317  26.914  42.307  13.989
53702W        W25318  44.434  11.140  12.837
53703W        W25319  21.956   9.427  14.698
53704W        W25320   0.725  25.630   3.818
53705W        W25321  39.414   8.708  12.884
53706W        W25322  40.401  20.471   3.133
53707W        W25323  31.316  22.343   0.291
53708W        W25324  43.326  11.479   2.423
53709W        W25325  39.462  11.317  14.970
53710W        W25326   6.813  10.576  14.804
53711W        W25327  19.130   4.018   0.834
53712W        W25328  19.195  16.342   3.624
53713W        W25329  39.404  35.332   4.894
53714W        W25330  18.936   8.119  14.235
53715W        W25331  41.602   3.513   3.848
53716W        W25332  27.653  22.087   0.545
53717W        W25333  32.119  29.017  14.708
53718W        W25334   1.792  21.145   0.709
53719W        W25335   2.889  13.074  11.821
53720W        W25336  31.204   7.248  13.490
53721W        W25337  28.931   1.708  13.374
53722W        W25338  37.295  40.956   4.341
53723W        W25339  22.954   3.823  13.834
53724W        W25340  36.930  27.842  10.887
53725W        W25341  34.907   4.222  10.916
53726W        W25342  27.057   1.977   4.145
53727W        W25343   1.130  37.779  12.484
53728W        W25344  38.781  30.183  11.190
53729W        W25345  18.134  10.640  14.377
53730W        W25346  23.251   2.774   1.926
53731W        W25347  38.386  27.529  14.830
53732W        W25348  25.161   5.289   2.247
53733W        W25349   6.233  37.431   4.095
53734W        W25350  25.570  17.033   1.365
53735W        W25351  29.627  36.121   2.378
53736W        W25352  33.025  25.955  10.626
53737W        W25353  31.203  11.810   1.322
53738W        W25354  10.396  28.230  12.867
53739W        W25355  13.224   7.568   1.367
53740W        W25356  43.772  11.853  13.088
53741W        W25357  15.970   2.325   3.394
53742W        W25358  25.909   2.797  14.274
53743W        W25359  37.758  40.315   3.723
53744W        W25360  28.399  14.243   3.243
53745W        W25361  28.997   9.663  11.052
53746W        W25362  30.200   7.857  12.625
53747W        W25363  25.238  11.225   0.711
53748W        W25364  20.863  14.561   0.845
53749W        W25365   7.315  34.593  10.680
53750W        W25366   1.387  23.558   0.653
53751W        W25367  26.021  20.663   4.602
53752W        W25368  35.814   5.533  11.496
53753W        W25369  16.651  16.379  12.978
53754W        W25370  29.619  17.796   2.370
53755W        W25371  25.007  40.878   0.070
53756W        W25372  15.323  11.627   0.323
53757W        W25373  39.356  22.190  11.621
53758W        W25374  44.345   1.312   3.855
53759W        W25375  30.613   5.694  12.571
53760W        W25376  39.306   0.211  13.394
53761W        W25377  37.996  18.488  14.478
53762W        W25378  11.905  30.853   4.126
53763W        W25379  22.650  35.547  13.937
53764W        W25380  34.696   4.272  13.058
53765W        W25381   1.975  26.116  11.598
53766W        W25382  25.487  23.648   1.224
53767W        W25383   2.327  39.696   4.914
53768W        W25384  39.760  10.479   0.560
53769W        W25385   1.950  30.892   1.632
53770W        W25386  44.245   5.081   4.187
53771W        W25387   7.527  36.047   4.945
53772W        W25388   3.821  29.506   0.033
53773W        W25389  18.990  19.673   4.666
53774W        W25390   4.624  44.391  12.908
53775W        W25391   2.384  10.749   4.429
53776W        W25392  43.544  19.660   2.811
53777W        W25393  24.513   0.855  10.304
53778W        W25394  38.123  27.950   0.459
53779W        W25395  18.632   7.420  11.283
53780W        W25396  20.751  16.292  14.526
53781W        W25397  16.277  43.524  13.962
53782W        W25398  41.801  14.746   1.992
53783W        W25399  22.152  35.166   3.005
53784W        W25400  40.123   2.874  10.688
53785W        W25401  23.873  19.523  12.942
53786W        W25402  42.396   9.851  13.530
53787W        W25403  20.094  30.440   2.806
53788W        W25404  31.670  17.653  14.344
53789W        W25405  39.322  40.780   1.224
53790W        W25406  37.867   9.153   3.225
53791W        W25407  23.527  44.980   1.207
53792W        W25408  17.012  44.765  10.183
53793W        W25409  34.151  27.788  12.370
53794W        W25410   2.930  12.121  14.046
53795W        W25411   1.445  43.752   2.695
53796W        W25412  17.094  13.390  14.096
53797W        W25413   4.867  34.425   2.886
53798W        W25414  43.240   2.981  13.358
53799W        W25415  23.663  31.764   4.990
53800W        W25416   2.345  15.172   0.705
53801W        W25417  41.547  28.467  14.312
53802W        W25418  40.413  25.635  14.464
53803W        W25419   0.691  27.396  10.997
53804W        W25420  25.695  21.978   0.481
53805W        W25421  31.817  30.600  12.068
53806W        W25422  38.737  32.801   4.996
53807W        W25423  13.191  22.549  13.821
53808W        W25424  21.157  21.088   1.302
53809W        W25425  36.876   3.170   0.676
53810W        W25426  28.868  39.819   2.607
53811W        W25427  36.149  21.709   0.941
53812W        W25428  21.997  23.755  13.356
53813W        W25429  42.728   9.165   0.830
53814W        W25430   5.868  39.626   2.077
53815W        W25431   2.257  30.390   0.911
53816W        W25432   8.455  18.109  14.607
53817W        W25433  39.924  44.452   2.150
53818W        W25434   1.293  18.457   1.251
53819W        W25435  44.749  29.195  14.439
53820W        W25436  13.270  35.994  14.545
53821W        W25437   9.391  39.725   0.124
53822W        W25438  29.114  42.187  13.048
53823W        W25439  38.442  22.560  14.970
53824W        W25440   1.692  17.067  11.106
53825W        W25441  26.808  30.950   2.371
53826W        W25442   5.375  19.766   3.662
53827W        W25443   8.155  19.248  11.802
53828W        W25444  29.925  18.599  12.549
53829W        W25445  41.770  24.668   2.987
53830W        W25446  32.513   4.358  14.171
53831W        W25447  27.489  32.467  14.914
53832W        W25448  27.631  19.187  10.702
53833W        W25449  24.935  22.665  13.439
53834W        W25450  20.730   5.719   2.800
53835W        W25451   4.742  28.003  12.700
53836W        W25452  11.688  10.685  11.407
53837W        W25453  36.696  30.588   4.555
53838W        W25454  26.260  38.956   0.809
53839W        W25455  41.333  24.610   3.311
53840W        W25456   3.916  19.687   1.889
53841W        W25457  31.495  33.555  12.014
53842W        W25458  35.974  44.859  10.718
53843W        W25459  25.141  31.057   0.710
53844W        W25460  35.407   8.434   3.290
53845W        W25461  37.853  16.492   2.242
53846W        W25462  20.190  22.975   2.883
53847W        W25463  29.908  32.512   4.088
53848W        W25464  18.761   6.798  13.481
53849W        W25465   5.130  28.056  13.049
53850W        W25466  27.158  40.180   5.025
53851W        W25467  14.845   1.469  11.835
53852W        W25468  33.454   6.721   4.651
53853W        W25469   5.411  18.984  11.626
53854W        W25470   9.925  16.223   4.327
53855W        W25471  32.386  12.072   2.734
53856W        W25472  20.134   9.207  13.395
53857W        W25473   3.750  44.747   3.638
53858W        W25474  17.370   1.936  13.916
53859W        W25475   0.807  25.237  11.034
53860W        W25476   8.455  19.872  11.683
53861W        W25477  38.891   9.662   5.268
53862W        W25478  13.339  24.913   0.902
53863W        W25479  12.164   5.770   2.357
53864W        W25480   8.954   6.349  11.265
53865W        W25481  43.311  40.234   0.248
53866W        W25482   7.111  12.313   0.306
53867W        W25483  39.439  27.851   0.264
53868W        W25484  12.655  32.884  12.087
53869W        W25485  24.300  36.403   1.989
53870W        W25486  27.767  13.323   0.364
53871W        W25487  31.596  41.823  12.399
53872W        W25488   8.324   4.583  14.954
53873W        W25489  18.221  11.573  13.438
53874W        W25490  44.919   2.168   0.672
53875W        W25491   7.133   9.748  14.916
53876W        W25492   5.979  24.696   0.973
53877W        W25493   6.358  22.935  10.866
53878W        W25494  42.385   0.959  12.323
53879W        W25495   2.761  23.114  12.426
53880W        W25496  31.176  16.353   1.792
53881W        W25497   9.422  17.522  13.906
53882W        W25498  13.600  33.526  10.418
53883W        W25499  23.675  14.848   3.697
53884W        W25500  29.049  42.438   3.180
53885W        W25501  43.736  32.753   3.729
53886W        W25502  12.745   7.217   3.339
53887W        W25503  31.444  16.779   2.632
53888W        W25504  27.567  36.284  11.155
53889W        W25505  22.591  16.508  12.845
53890W        W25506  31.055  19.991  13.792
53891W        W25507  18.255  26.087  12.446
53892W        W25508  37.789  38.096  14.459
53893W        W25509  26.965  17.542   1.702
53894W        W25510  37.009  11.108   0.930
53895W        W25511  18.325  36.766   0.002
53896W        W25512  28.419  39.914  10.547
53897W        W25513  34.890  17.549   1.358
53898W        W25514   8.895  13.264  13.550
53899W        W25515  19.567  11.672  14.919
53900W        W25516   4.219  40.235  14.040
53901W        W25517  15.691   8.372  12.042
53902W        W25518  12.565   5.637   2.836
53903W        W25519  41.047  30.671  13.431
53904W        W25520  40.515  37.769  14.899
53905W        W25521  21.791   4.808   2.245
53906W        W25522  19.498   6.349  11.441
53907W        W25523   6.827  22.282  11.841
53908W        W25524  24.595  28.051  13.860
53909W        W25525   9.135  16.550   0.808
53910W        W25526  19.269  25.543  10.684
53911W        W25527  42.314  20.118  13.890
53912W        W25528  21.420  21.073  12.054
53913W        W25529  10.461  24.619  12.159
53914W        W25530  25.526  11.502   0.320
53915W        W25531   1.834  18.477   1.994
53916W        W25532  33.955  34.583   0.939
53917W        W25533  39.027   6.180   2.717
53918W        W25534  32.648   0.220   0.303
53919W        W25535  40.491  15.385  11.465
53920W        W25536  10.004  33.102  13.057
53921W        W25537   7.353  22.523   3.750
53922W        W25538  14.066  15.853   1.753
53923W        W25539  26.150  40.859   2.548
53924W        W25540  20.834   9.960  11.151
53925W        W25541  17.180  14.347   2.991
53926W        W25542   6.688   2.430  12.543
53927W        W25543  35.129   6.510   2.181
53928W        W25544   9.274  38.359  14.325
53929W        W25545  10.781   4.055  14.983
53930W        W25546  10.111  43.310  14.766
53931W        W25547  13.594  26.772  12.110
53932W        W25548  17.959  39.791   2.649
53933W        W25549   3.598  36.528  10.811
53934W        W25550  31.484  43.488   2.962
53935W        W25551  39.483   0.761   3.234
53936W        W25552  26.139  19.277   0.268
53937W        W25553  27.878   7.297   0.652
53938W        W25554  20.035  24.072  14.474
53939W        W25555   9.177  30.899  10.644
53940W        W25556  29.690  27.940  10.611
53941W        W25557  36.273   2.052  13.506
53942W        W25558  27.089  22.152  14.325
53943W        W25559  40.888  43.237  11.998
53944W        W25560  31.995  33.290  12.401
53945W        W25561  15.590  23.319  10.425
53946W        W25562   0.958   3.864   4.309
53947W        W25563  44.456  33.735  14.645
53948W        W25564  27.158   8.646   2.162
53949W        W25565  38.869  25.743   3.535
53950W        W25566  31.178  35.294  14.366
53951W        W25567  33.507  23.708   4.992
53952W        W25568  18.664  16.086   2.860
53953W        W25569   7.132   2.486  13.909
53954W        W25570  22.723  10.963   2.737
53955W        W25571  34.460  40.836   4.524
53956W        W25572  11.081   9.180   0.255
53957W        W25573   3.508  39.790  14.487
53958W        W25574  13.150   0.963   1.530
53959W        W25575  12.181  11.447  14.795
53960W        W25576   4.129  15.255   4.423
53961W        W25577  25.463  31.014  13.456
53962W        W25578  34.348   9.055  14.290
53963W        W25579  20.132  11.129  13.946
53964W        W25580   0.339  37.906  14.190
53965W        W25581   5.786  30.606  11.429
53966W        W25582  12.905  18.771   1.476
53967W        W25583  27.023   9.085  13.975
53968W        W25584  40.563  40.867  14.024
53969W        W25585  29.585   4.280  14.996
53970W        W25586   3.558  44.878  11.566
53971W        W25587  15.730  27.465  12.944
53972W        W25588   8.232  29.133  12.966
53973W        W25589  40.659   7.445  11.708
53974W        W25590  19.814  13.782   0.783
53975W        W25591  43.471  36.931  12.549
53976W        W25592  22.700  23.531   0.699
53977W        W25593  36.000  40.822  11.834
53978W        W25594  34.875  29.921   1.859
53979W        W25595   3.389  24.424  10.342
53980W        W25596  12.882  36.660  14.590
53981W        W25597  15.122  36.264   3.068
53982W        W25598   1.233  18.523  12.134
53983W        W25599  26.538   1.971   4.196
53984W        W25600   8.378  19.759   3.802
53985W        W25601  40.103  18.036   2.439
53986W        W25602   2.499  19.587   3.855
53987W        W25603  35.305  29.166  14.299
53988W        W25604  13.543  12.262  14.521
53989W        W25605   7.902  16.238  14.265
53990W        W25606  24.828   5.499  11.429
53991W        W25607  31.870  16.470   2.807
53992W        W25608  21.704  35.403   4.665
53993W        W25609  43.252  34.206   5.684
53994W        W25610  43.954  43.930  11.892
53995W        W25611   8.144  16.030   0.602
53996W        W25612  17.119  41.515   2.210
53997W        W25613  16.477  21.684  13.590
53998W        W25614  25.463  28.984  10.324
53999W        W25615  38.497   6.722   2.034
54000W        W25616   2.044  39.512   1.170
54001W        W25617  25.581  40.461  14.715
54002W        W25618  30.001   8.720   2.829
54003W        W25619  19.185  25.752  12.614
54004W        W25620  30.198  26.939  10.791
54005W        W25621  40.979   9.974   2.278
54006W        W25622  10.569  15.144   2.280
54007W        W25623   2.651   6.507  10.312
54008W        W25624   4.352  31.018  13.602
54009W        W25625  40.339   2.392   2.478
54010W        W25626  32.097  20.344   2.637
54011W        W25627   3.070  13.482  12.085
54012W        W25628  18.209   5.665   1.531
54013W        W25629  38.784  31.491   2.422
54014W        W25630  20.764  33.145  12.982
54015W        W25631  16.199  33.921   1.652
54016W        W25632  11.204  32.600   2.405
54017W        W25633  16.822   4.469  12.530
54018W        W25634  41.048  36.841  10.346
54019W        W25635  38.460  42.973   0.473
54020W        W25636  22.123  29.173   3.135
54021W        W25637  32.100  12.665   4.928
54022W        W25638  25.124   9.594  10.685
54023W        W25639  41.495  14.771  13.959
54024W        W25640  42.827  26.563   1.395
54025W        W25641  35.931   6.758   4.572
54026W        W25642  30.025  24.511  11.590
54027W        W25643  43.876   6.844   3.168
54028W        W25644   8.528  30.679  12.208
54029W        W25645  15.088   1.154   0.785
54030W        W25646  37.293  40.610  12.116
54031W        W25647  31.637  22.995   1.126
54032W        W25648  34.641   8.796   1.990
54033W        W25649  18.151  30.987  14.541
54034W        W25650  11.733  40.162   1.779
54035W        W25651  12.126  17.345  14.846
54036W        W25652  25.983  23.997  13.810
54037W        W25653  11.861  28.238  13.938
54038W        W25654  16.319  13.198   4.646
54039W        W25655  10.144  13.835  14.296
54040W        W25656   1.523  10.761   3.186
54041W        W25657  32.529  14.647   2.794
54042W        W25658  42.808  13.211  14.887
54043W        W25659  33.921  11.733  13.974
54044W        W25660  29.440  36.125   3.666
54045W        W25661   8.339   4.432  14.284
54046W        W25662  32.393  30.099  10.738
54047W        W25663  12.810  18.010   1.876
54048W        W25664  29.930  30.483  12.557
54049W        W25665  22.292  13.903   2.879
54050W        W25666   3.239  31.924  11.544
54051W        W25667   5.161  16.197  14.579
54052W        W25668  17.740  28.449   4.759
54053W        W25669   3.220  35.151  11.529
54054W        W25670  21.495  31.914   4.021
54055W        W25671  10.618  23.132  11.122
54056W        W25672  21.434   4.151   4.566
54057W        W25673  29.240   5.541  12.464
54058W        W25674  12.786  27.210   4.073
54059W        W25675  42.200  13.124  14.884
54060W        W25676  27.005   6.820  12.529
54061W        W25677  36.274  22.175   1.615
54062W        W25678   6.183  10.544  11.560
54063W        W25679  36.547   7.828  13.482
54064W        W25680   2.519  19.297   5.024
54065W        W25681  40.491  11.790   2.614
54066W        W25682  17.629   1.679   3.673
54067W        W25683   2.942  39.801   2.136
54068W        W25684  31.719  38.843  13.287
54069W        W25685  21.146  37.500   3.338
54070W        W25686  37.044  18.237   4.089
54071W        W25687   0.906  33.271  11.165
54072W        W25688  20.204  20.327   0.261
54073W        W25689  12.879  32.989  13.528
54074W        W25690  32.480  30.195   3.242
54075W        W25691  24.952  29.626   0.573
54076W        W25692  33.140  11.873  10.909
54077W        W25693   1.241  24.674  14.390
54078W        W25694  12.677  14.108  11.940
54079W        W25695  30.486   2.444   2.840
54080W        W25696  40.002  24.564  12.507
54081W        W25697   8.658  17.205  14.143
54082W        W25698   1.498  11.342  11.206
54083W        W25699  11.374  29.981   1.042
54084W        W25700  12.429  19.744   1.811
54085W        W25701  22.113  22.399   2.849
54086W        W25702  24.212  11.842  14.490
54087W        W25703  33.913  38.471  10.833
54088W        W25704  11.619   5.451   1.679
54089W        W25705  22.006  40.958  12.156
54090W        W25706  20.754  40.986  11.015
54091W        W25707   1.087  30.078   1.425
54092W        W25708   4.303  34.764  11.649
54093W        W25709  25.708  22.413  11.545
54094W        W25710  13.751  31.886  12.912
54095W        W25711   2.343  31.134   2.818
54096W        W25712   9.168  43.764   3.156
54097W        W25713  17.120  31.372  11.151
54098W        W25714  11.582  19.737  11.223
54099W        W25715  38.784  16.013  11.024
54100W        W25716  43.071  29.610   4.249
54101W        W25717  17.573  41.472  11.565
54102W        W25718  15.126  18.713   0.716
54103W        W25719   9.292   8.381  12.523
54104W        W25720  37.954  16.827   0.939
54105W        W25721  34.057   8.895  10.898
54106W        W25722  44.590  31.749   3.041
54107W        W25723  10.456  21.261  13.099
54108W        W25724   5.705  44.773  10.542
54109W        W25725  10.536  11.343   0.047
54110W        W25726  21.067   1.332   1.147
54111W        W25727   3.198  26.046  11.908
54112W        W25728  43.400  11.401   3.290
54113W        W25729  41.025  16.153   0.344
54114W        W25730  14.548   1.378  14.881
54115W        W25731  21.770  14.626   3.685
54116W        W25732  29.580  29.557   3.689
54117W        W25733  37.779  40.651  11.955
54118W        W25734  37.872   1.234   3.792
54119W        W25735  28.201  17.646   3.417
54120W        W25736  41.951   5.203  11.178
54121W        W25737   6.215  11.141  14.282
54122W        W25738  25.568  12.982  11.747
54123W        W25739  44.434   3.992   0.181
54124W        W25740   3.981  28.150   4.677
54125W        W25741  16.321  40.937   4.416
54126W        W25742  31.942  12.107   3.579
54127W        W25743  12.088  19.595  11.314
54128W        W25744  15.084  44.027   0.303
54129W        W25745   2.441  20.022  14.298
54130W        W25746  42.244  14.577   3.351
54131W        W25747   0.921  39.817  11.725
54132W        W25748  19.343  20.011  12.440
54133W        W25749  18.480  37.202   1.308
54134W        W25750  33.514   8.358  11.408
54135W        W25751  21.170  39.281  10.718
54136W        W25752  25.942  13.384  11.982
54137W        W25753  17.581  42.981   0.849
54138W        W25754   1.920  26.589  10.063
54139W        W25755  40.869  20.177   4.320
54140W        W25756  23.123  29.039   3.888
54141W        W25757  23.494  27.917   0.239
54142W        W25758  24.900   0.826  11.215
54143W        W25759  27.006  36.831   3.828
54144W        W25760   9.857  20.315  12.647
54145W        W25761  10.683  13.091   0.390
54146W        W25762  16.163  15.554   4.216
54147W        W25763  20.749  39.558  14.800
54148W        W25764  33.381   9.811  13.014
54149W        W25765  10.434  12.333  10.552
54150W        W25766  37.350  30.044  12.901
54151W        W25767  34.921   8.171  14.213
54152W        W25768  40.814  38.381   2.403
54153W        W25769  43.043  19.052  13.384
54154W        W25770  17.904   7.132  13.243
54155W        W25771  43.922   0.489   0.280
54156W        W25772  34.694   2.536  12.843
54157W        W25773  34.859  26.085  12.456
54158W        W25774  19.475  32.358   1.327
54159W        W25775  11.623   5.991   0.171
54160W        W25776  17.305  33.942  11.622
54161W        W25777  25.377  18.836   1.320
54162W        W25778  11.809  23.173   3.779
54163W        W25779  33.847  12.330  10.768
54164W        W25780  26.576  14.401  11.836
54165W        W25781   1.618  34.531   4.278
54166W        W25782  32.217  37.043  11.043
54167W        W25783  15.682  20.158   1.745
54168W        W25784   5.836  37.443   4.479
54169W        W25785  34.882  21.981  12.464
54170W        W25786   6.708  18.172   3.356
54171W        W25787  37.760  30.717   1.286
54172W        W25788  15.231   5.241  14.562
54173W        W25789  36.616  28.022  14.568
54174W        W25790   2.409  35.527   4.188
54175W        W25791  41.155  26.523   0.737
54176W        W25792  34.024  16.626   0.460
54177W        W25793   8.979  13.227   3.990
54178W        W25794   1.453  44.572  11.121
54179W        W25795   7.085  16.206  12.007
54180W        W25796   6.894   1.375   0.665
54181W        W25797   6.196  20.795   3.189
54182W        W25798  40.420  20.904   4.261
54183W        W25799  27.919  18.129   1.149
54184W        W25800  23.602   7.357   2.090
54185W        W25801  42.550  16.901  13.099
54186W        W25802  26.433  25.565  13.104
54187W        W25803  25.907   0.802  13.385
54188W        W25804  23.509  31.147  12.551
54189W        W25805  35.375  15.076   3.329
54190W        W25806  42.936  37.919  10.499
54191W        W25807  43.603  10.650   1.963
54192W        W25808  10.195  29.740  13.667
54193W        W25809  10.292  43.307   0.391
54194W        W25810  22.741  33.749   4.707
54195W        W25811  34.984  42.601  10.430
54196W        W25812  32.751  40.691  14.737
54197W        W25813  23.963  20.720   4.514
54198W        W25814  15.351  16.780  11.977
54199W        W25815  37.874  32.060   2.708
54200W        W25816  19.243   0.802   1.408
54201W        W25817  24.464  22.255  12.877
54202W        W25818  17.604  14.838   0.412
54203W        W25819  33.612   9.077   4.255
54204W        W25820  32.007  28.542  14.489
54205W        W25821  42.906   1.058  14.753
54206W        W25822  22.561  40.991  13.360
54207W        W25823  17.103   2.857  12.526
54208W        W25824  39.986  26.649  13.184
54209W        W25825   9.290  14.498  10.734
54210W        W25826  25.952  27.929   1.396
54211W        W25827   4.795  30.435  12.118
54212W        W25828  37.546  19.676  14.284
54213W        W25829  13.431  14.072  14.455
54214W        W25830  35.395  13.297  11.038
54215W        W25831  27.998  34.278   1.010
54216W        W25832  16.806   4.694   2.817
54217W        W25833   4.381  12.688  13.883
54218W        W25834   7.242  36.516  10.671
54219W        W25835   0.048  32.015  11.620
54220W        W25836   5.912  40.232  13.259
54221W        W25837   9.707  33.243  12.639
54222W        W25838   4.135   5.738   0.804
54223W        W25839  28.935   1.225   3.771
54224W        W25840  20.619   0.705  10.731
54225W        W25841  38.524  14.351  14.415
54226W        W25842   4.884  41.005   4.436
54227W        W25843  28.552  44.182  11.082
54228W        W25844   7.952  28.430   3.791
54229W        W25845  41.441  26.940   2.153
54230W        W25846  12.256   1.447   0.425
54231W        W25847  28.421  25.977  14.911
54232W        W25848  41.765  12.371   0.263
54233W        W25849  36.345  21.338   0.386
54234W        W25850  25.212  18.907   0.308
54235W        W25851  37.022  41.568   4.374
54236W        W25852  11.596  11.858  12.399
54237W        W25853  39.573  35.897   2.431
54238W        W25854   4.705  32.404   2.765
54239W        W25855   9.099  22.054  13.617
54240W        W25856  31.992  41.577   3.811
54241W        W25857  25.525  37.481  13.742
54242W        W25858   7.851  30.659  10.692
54243W        W25859  17.532  42.412  11.592
54244W        W25860  12.325  25.958   2.668
54245W        W25861   1.734  15.327   3.710
54246W        W25862  30.285  38.518  10.477
54247W        W25863   1.374  12.560  14.941
54248W        W25864  24.425  38.032   4.587
54249W        W25865  18.577  35.831   4.152
54250W        W25866   5.785  18.267  13.011
54251W        W25867  43.580  35.101   2.681
54252W        W25868  44.286  23.938  13.870
54253W        W25869  11.431  38.533  13.009
54254W        W25870   9.864   6.307  11.844
54255W        W25871   4.809  14.774  10.763
54256W        W25872  24.028   3.962  14.470
54257W        W25873  11.322  24.988  12.421
54258W        W25874   3.935   3.933   2.591
54259W        W25875  37.155   8.309  11.547
54260W        W25876  10.850  26.719  13.012
54261W        W25877  31.538  28.784  14.380
54262W        W25878  11.266  18.817  11.145
54263W        W25879  16.126  44.750   1.361
54264W        W25880  21.569  40.066  10.508
54265W        W25881  42.423  16.653  10.548
54266W        W25882  26.639   0.821   4.467
54267W        W25883  10.148  36.379  10.853
54268W        W25884  14.997  33.594   3.339
54269W        W25885   6.104   2.740   0.458
54270W        W25886  25.508  41.335  10.685
54271W        W25887  30.620   7.648   3.412
54272W        W25888  27.363   2.980  12.390
54273W        W25889  34.837  24.625  13.911
54274W        W25890  24.908  37.524  14.970
54275W        W25891   7.443  38.018   2.286
54276W        W25892  22.300  26.634  10.568
54277W        W25893  16.666   2.058  14.423
54278W        W25894  23.802  19.625   4.255
54279W        W25895  35.145  31.540   4.365
54280W        W25896  31.900  27.715   9.913
54281W        W25897  27.299   6.255   0.045
54282W        W25898  18.422   6.280  11.628
54283W        W25899   7.753  23.026   1.396
54284W        W25900  18.634  33.008   1.825
54285W        W25901  31.139  39.393   1.888
54286W        W25902   8.384  38.529   2.918
54287W        W25903  18.143  19.177   1.193
54288W        W25904  42.285  33.471  14.478
54289W        W25905  11.936  43.352  13.005
54290W        W25906   5.939  19.585   2.831
54291W        W25907  42.434   6.489   4.801
54292W        W25908  11.850  39.322  12.080
54293W        W25909  10.135   5.431  12.486
54294W        W25910   6.451  19.152  12.443
54295W        W25911  16.868  29.932   0.324
54296W        W25912  35.226  39.487   0.739
54297W        W25913  20.326  34.038   2.361
54298W        W25914  36.957  12.318   3.906
54299W        W25915   3.936   2.403  11.429
54300W        W25916  38.009   7.917  14.632
54301W        W25917   0.966   1.466  14.299
54302W        W25918  10.799   7.921  10.469
54303W        W25919  28.739  30.483   2.827
54304W        W25920   6.369  15.936   3.007
54305W        W25921  44.293  22.959  12.510
54306W        W25922  22.702  29.637  12.571
54307W        W25923   1.913  14.064   0.824
54308W        W25924   2.129  43.960   0.473
54309W        W25925   5.286  21.088  12.984
54310W        W25926  11.938  11.669  13.824
54311W        W25927  30.432  10.660  10.683
54312W        W25928  19.688   7.821   1.792
54313W        W25929   2.794   1.682  13.371
54314W        W25930  16.333   1.277   1.283
54315W        W25931  35.079  34.315   2.652
54316W        W25932  42.555  12.385  12.005
54317W        W25933  37.659  11.312   4.623
54318W        W25934   6.736  34.374  13.467
54319W        W25935  25.516  22.796   0.661
54320W        W25936  27.467  25.791   3.901
54321W        W25937  26.202  10.659  13.813
54322W        W25938  15.111   9.356  14.321
54323W        W25939  17.528  38.369   3.160
54324W        W25940  30.881  36.595   0.620
54325W        W25941  15.770  44.812  14.793
54326W        W25942  23.270  18.143   2.937
54327W        W25943  39.011   2.856   1.636
54328W        W25944  36.136  32.677  14.904
54329W        W25945  25.445  23.692   4.145
54330W        W25946  40.542   0.258   4.869
54331W        W25947  34.537  29.945   0.763
54332W        W25948   1.186  21.090  10.755
54333W        W25949  29.479   7.232   3.168
54334W        W25950  29.144  24.245  11.513
54335W        W25951  30.903  18.784   0.262
54336W        W25952  39.867  23.483  14.884
54337W        W25953  37.857   1.763  10.781
54338W        W25954  37.055  23.658   0.308
54339W        W25955  25.377  12.830   1.195
54340W        W25956  16.301  29.639  11.638
54341W        W25957  41.695  11.566   3.304
54342W        W25958  29.933  15.121   1.310
54343W        W25959  20.395   1.422  11.201
54344W        W25960  14.441  14.169   4.567
54345W        W25961   2.796  29.128   1.758
54346W        W25962   5.590  22.102   3.195
54347W        W25963  37.181  36.815  11.759
54348W        W25964  42.230   7.878  11.293
54349W        W25965   0.810   4.183   1.363
54350W        W25966  18.236  27.615   0.324
54351W        W25967  36.754  13.081  13.813
54352W        W25968  21.207  27.375   2.727
54353W        W25969   3.118   5.288   3.896
54354W        W25970   3.762  18.121  13.523
54355W        W25971   8.586   3.923  11.517
54356W        W25972   1.048  40.491   2.737
54357W        W25973  37.969  14.339   3.241
54358W        W25974  13.881  36.575   4.166
54359W        W25975  19.611  29.345   1.143
54360W        W25976  40.474  19.991   1.386
54361W        W25977   4.660  35.048   2.283
54362W        W25978   2.360  40.459  13.490
54363W        W25979  22.940   1.735   2.160
54364W        W25980  27.098   2.033  10.697
54365W        W25981   2.817  26.161   3.160
54366W        W25982  11.317   7.487   0.761
54367W        W25983  38.554  26.146  11.091
54368W        W25984  13.615   5.457  11.578
54369W        W25985  37.497   1.534   3.606
54370W        W25986  31.085   4.361  14.933
54371W        W25987  43.567  22.088   1.984
54372W        W25988  35.902   7.390  14.471
54373W        W25989   7.544  35.229   2.939
54374W        W25990  40.707  29.649  12.825
54375W        W25991  18.000  11.126   3.991
54376W        W25992  18.608  42.304   1.492
54377W        W25993   0.898  23.764   3.345
54378W        W25994  12.348   8.821  13.946
54379W        W25995  38.806  34.397  11.013
54380W        W25996  21.240  28.759  13.028
54381W        W25997  15.278  28.754   0.999
54382W        W25998  23.615  31.451  10.650
54383W        W25999  23.683  33.543  11.390
54384W        W26000  19.192  19.007   1.266
54385W        W26001  27.472  20.993  12.461
54386W        W26002  33.157  41.853  12.447
54387W        W26003  39.871   6.940  11.016
54388W        W26004   1.491  27.113  11.386
54389W        W26005  23.027  38.366   4.944
54390W        W26006  26.129  12.286   0.450
54391W        W26007  32.263  43.218   4.856
54392W        W26008  31.525  11.671  14.505
54393W        W26009   8.763  22.718   4.495
54394W        W26010  29.539  19.827  14.869
54395W        W26011  40.493   0.462   2.820
54396W        W26012  10.118  23.159   2.928
54397W        W26013   3.227  28.736   0.436
54398W        W26014  24.748  34.597   2.805
54399W        W26015  43.780  44.717  10.753
54400W        W26016  35.539  43.102  13.053
54401W        W26017   8.159  21.504   4.912
54402W        W26018  40.295  44.072   1.739
54403W        W26019  42.371   4.062  13.415
54404W        W26020  18.680  24.171   0.725
54405W        W26021  27.083  27.115  13.241
54406W        W26022   9.956   3.997   0.635
54407W        W26023  12.208  18.210  11.497
54408W        W26024  28.947  28.618   1.429
54409W        W26025  38.824  35.621  11.514
54410W        W26026  37.936  10.419  13.926
54411W        W26027  20.640  36.968   3.593
54412W        W26028  34.079  21.256   2.719
54413W        W26029  41.876  40.882   0.991
54414W        W26030  34.112  42.941   0.375
54415W        W26031   9.582  43.774  13.494
54416W        W26032   4.971  43.518  13.834
54417W        W26033  12.794  12.001   2.326
54418W        W26034  37.298  21.194  14.981
54419W        W26035  17.965  40.454  11.087
54420W        W26036  31.613  19.721   2.852
54421W        W26037  36.669  35.930   1.221
54422W        W26038  42.497   5.688   4.599
54423W        W26039  36.407  38.551  10.670
54424W        W26040  30.158  29.391  12.947
54425W        W26041  28.949  36.658   0.183
54426W        W26042  20.306  35.643   4.572
54427W        W26043   3.760   4.403  12.002
54428W        W26044  20.610  16.814   2.127
54429W        W26045  18.905   6.890  14.002
54430W        W26046   1.555   5.892   3.204
54431W        W26047   2.214  27.868  14.180
54432W        W26048  40.952   3.976  12.447
54433W        W26049  10.469  41.464   1.424
54434W        W26050  40.905   4.442  14.426
54435W        W26051  27.676   9.519  12.892
54436W        W26052  42.826  20.751  11.172
54437W        W26053   5.950   1.265  12.817
54438W        W26054  17.765   7.994   3.048
54439W        W26055   9.135   3.184   3.706
54440W        W26056  30.003   8.673   4.840
54441W        W26057  39.970  29.379  13.907
54442W        W26058  37.406   9.848  13.990
54443W        W26059  10.683  31.411   0.982
54444W        W26060   2.212  17.107  11.161
54445W        W26061  21.238  34.654  14.088
54446W        W26062  29.987  25.703   4.624
54447W        W26063  36.511  27.931   0.910
54448W        W26064   3.384  24.116   2.376
54449W        W26065  44.156  27.548  13.578
54450W        W26066  41.788  12.224  13.859
54451W        W26067  28.487  15.683   3.228
54452W        W26068  31.105  43.246  11.394
54453W        W26069  21.747  34.553   0.781
54454W        W26070  15.748  25.733   4.698
54455W        W26071   6.146   7.500   3.709
54456W        W26072   1.151  18.966   4.094
54457W        W26073  18.182  40.606  10.645
54458W        W26074  17.813  42.789  13.384
54459W        W26075  34.906   4.957   1.278
54460W        W26076  43.918  33.599   1.796
54461W        W26077  40.353   4.802   0.376
54462W        W26078  26.202   2.867   1.220
54463W        W26079  22.550  23.927  13.438
54464W        W26080  13.010  10.995  14.331
54465W        W26081  37.142  42.349  12.395
54466W        W26082  42.724  19.652  10.881
54467W        W26083  12.873  21.008  14.930
54468W        W26084  30.419  20.511  13.438
54469W        W26085  11.079  13.830  12.564
54470W        W26086  17.706  11.115   4.429
54471W        W26087  20.820   1.387   0.680
54472W        W26088  21.213  44.459  10.338
54473W        W26089  38.517   1.514   1.902
54474W        W26090  24.214  32.483  14.438
54475W        W26091   6.225  34.514   1.740
54476W        W26092   0.262  31.803   4.212
54477W        W26093  11.678  36.402  14.577
54478W        W26094  44.043  10.505  13.173
54479W        W26095  11.832  28.161   4.081
54480W        W26096  20.341  10.301  13.329
54481W        W26097  13.568  10.986  11.166
54482W        W26098  14.512  17.363  12.929
54483W        W26099  22.023   4.765  10.558
54484W        W26100  21.507  34.358   1.257
54485W        W26101  12.158  32.407   3.713
54486W        W26102  19.210  11.646   0.300
54487W        W26103  15.112  12.099   0.246
54488W        W26104  16.358  27.705  14.106
54489W        W26105   1.657  40.078   3.329
54490W        W26106  32.440  17.138   0.977
54491W        W26107  34.021  40.557   4.507
54492W        W26108  43.046  32.909   3.268
54493W        W26109  40.031   6.006   1.365
54494W        W26110  44.436  43.990  12.140
54495W        W26111  25.966  33.886   2.880
54496W        W26112   9.154  15.545  11.409
54497W        W26113  21.546   2.996   0.518
54498W        W26114  40.064  28.901  13.718
54499W        W26115   0.376  12.378   1.923
54500W        W26116   1.946  43.827   2.234
54501W        W26117  14.577  35.620  14.357
54502W        W26118  28.892   1.221  10.666
54503W        W26119  37.101  44.722  14.849
54504W        W26120  26.921   7.778   2.539
54505W        W26121  43.428  14.222  13.849
54506W        W26122  19.600  14.206   0.427
54507W        W26123   5.561  38.400   2.150
54508W        W26124  35.411  39.606  13.933
54509W        W26125  15.327   4.899  13.910
54510W        W26126  24.279  31.743  12.519
54511W        W26127  32.115  25.105   3.122
54512W        W26128  23.733  40.756  14.827
54513W        W26129   3.756  41.936   1.065
54514W        W26130  32.693  17.574   0.839
54515W        W26131   2.245  36.388  11.216
54516W        W26132  37.798  30.172  12.056
54517W        W26133  33.461  32.272  11.121
54518W        W26134  44.176  25.101   1.207
54519W        W26135  19.756  15.657  13.437
54520W        W26136  19.180  37.868  14.471
54521W        W26137   6.720  10.077  14.877
54522W        W26138  14.508   4.480  11.043
54523W        W26139   5.372  11.824  11.486
54524W        W26140  19.719  28.275   2.260
54525W        W26141  39.510  11.401  10.534
54526W        W26142  15.216   2.760  10.489
54527W        W26143  41.609  14.805   0.711
54528W        W26144  16.366  40.442  11.612
54529W        W26145  44.968  28.315  11.112
54530W        W26146   1.688  44.176   2.547
54531W        W26147  38.870  10.192  10.829
54532W        W26148  28.181  15.531  13.077
54533W        W26149  25.968  22.577  13.478
54534W        W26150   8.611  31.123   3.698
54535W        W26151  33.036  18.052   3.159
54536W        W26152  39.885  31.915   4.143
54537W        W26153   9.488  41.548   1.317
54538W        W26154   4.755   1.997  12.486
54539W        W26155   1.291  17.130  12.514
54540W        W26156   1.351  37.455  10.313
54541W        W26157  44.838  11.425  14.484
54542W        W26158  33.309  18.166  10.841
54543W        W26159  15.543  16.849   5.113
54544W        W26160  37.471  40.936   4.988
54545W        W26161   2.764   7.448   4.139
54546W        W26162  21.449   8.916  14.831
54547W        W26163   5.926  20.069  14.823
54548W        W26164   0.931  31.151   3.968
54549W        W26165  20.613  23.446   2.053
54550W        W26166  30.866  22.189  11.190
54551W        W26167  18.375  21.321   3.640
54552W        W26168   4.743   1.200  13.289
54553W        W26169   3.426  39.507   2.386
54554W        W26170  26.924  24.275   1.740
54555W        W26171   9.289   2.919  14.434
54556W        W26172  44.062  23.221  12.137
54557W        W26173   3.985  27.645  10.825
54558W        W26174   5.613  25.533  12.565
54559W        W26175  36.054  37.955   4.510
54560W        W26176   0.758  28.189  12.104
54561W        W26177  30.347  41.033  10.826
54562W        W26178  22.147  40.197   2.166
54563W        W26179  11.647  33.955  13.502
54564W        W26180  42.033   1.011   1.245
54565W        W26181  44.175  13.687   4.086
54566W        W26182  26.677  27.633  12.508
54567W        W26183  32.193  31.477   2.908
54568W        W26184  41.799  41.579   0.320
54569W        W26185  31.802  27.815   2.820
54570W        W26186  23.005  14.691   2.860
54571W        W26187  34.482  41.053   2.658
54572W        W26188  44.161  32.435   3.732
54573W        W26189  41.737  25.590   2.232
54574W        W26190  43.768  35.581   1.236
54575W        W26191  22.786  18.254  11.499
54576W        W26192   5.182  13.870   2.260
54577W        W26193  31.264  25.455  13.086
54578W        W26194   8.307   7.757   3.889
54579W        W26195  27.578  11.973   2.225
54580W        W26196   1.278  43.489   3.133
54581W        W26197  15.298   5.991  10.585
54582W        W26198   4.749   9.745   5.026
54583W        W26199  16.718  23.703  12.945
54584W        W26200  25.623  11.603  12.002
54585W        W26201  21.096  19.253  14.374
54586W        W26202  18.098   8.040  12.041
54587W        W26203  18.654  17.048   2.221
54588W        W26204  44.867   6.143  11.638
54589W        W26205  41.282  27.689  12.886
54590W        W26206  13.055  38.099   4.162
54591W        W26207  29.054  16.524  10.985
54592W        W26208   2.774  26.753   1.143
54593W        W26209  38.831   8.118  12.623
54594W        W26210  16.437  31.383   3.921
54595W        W26211   2.941  42.308   2.213
54596W        W26212  27.665  37.561  10.657
54597W        W26213   5.845  34.438   0.393
54598W        W26214  42.990  14.862   0.978
54599W        W26215  19.628  25.562   1.878
54600W        W26216  36.175   6.663  13.184
54601W        W26217  13.310  11.630  11.571
54602W        W26218   7.943  31.960  11.594
54603W        W26219  37.568  24.201   1.863
54604W        W26220   2.488   8.793   1.040
54605W        W26221  27.402  35.541  10.654
54606W        W26222  25.043  15.804   1.827
54607W        W26223  39.091  39.981   3.483
54608W        W26224  35.560  40.376  12.417
54609W        W26225   1.223  12.690  13.331
54610W        W26226  24.957  32.496   2.420
54611W        W26227  34.442  29.880   3.162
54612W        W26228  37.560  18.599  14.231
54613W        W26229  29.559  38.171   2.622
54614W        W26230  33.445  15.813   4.148
54615W        W26231  33.266  35.858  12.573
54616W        W26232  14.857  29.409  13.456
54617W        W26233  21.752  41.187   0.399
54618W        W26234  13.151  37.914   0.744
54619W        W26235  38.377  39.558   3.558
54620W        W26236  34.822  40.940  11.449
54621W        W26237   3.136   2.448   4.533
54622W        W26238  25.765  39.684   4.214
54623W        W26239  21.841  44.900  12.460
54624W        W26240  26.848   0.565  11.169
54625W        W26241   9.145  36.023  12.169
54626W        W26242  33.298  24.781   2.821
54627W        W26243   6.772  30.738  13.015
54628W        W26244  24.967  20.688   0.837
54629W        W26245  34.963  44.679   2.169
54630W        W26246  24.757  43.875   4.234
54631W        W26247   9.686  33.106   0.199
54632W        W26248  42.934  13.742   2.334
54633W        W26249  39.800  19.731   0.389
54634W        W26250  31.398   4.006   0.635
54635W        W26251  28.038  16.776  10.619
54636W        W26252  10.130  29.972  12.402
54637W        W26253  29.468   0.000  12.216
54638W        W26254  39.808  44.442  12.348
54639W        W26255  27.568  37.637  14.443
54640W        W26256   3.023   6.603  13.879
54641W        W26257  23.258  17.177  13.563
54642W        W26258   4.303  20.581  11.679
54643W        W26259  35.312  35.557  11.975
54644W        W26260  38.142  24.766   2.367
54645W        W26261  26.266  26.603   5.079
54646W        W26262  13.664  28.284   4.004
54647W        W26263   2.324  17.652   0.705
54648W        W26264  11.866  10.168  14.390
54649W        W26265  29.169  12.685   4.101
54650W        W26266  44.050  18.811  13.398
54651W        W26267  44.415   2.833   4.772
54652W        W26268  38.445   6.290  14.921
54653W        W26269   0.767  19.289  12.918
54654W        W26270  17.983  35.946   3.281
54655W        W26271   8.106  37.401  14.336
54656W        W26272  19.131  44.487  13.887
54657W        W26273  40.159   3.889  14.440
54658W        W26274   3.317  34.008   3.718
54659W        W26275   4.528   7.675   2.296
54660W        W26276  10.445  18.526  11.164
54661W        W26277  23.226  42.902  11.970
54662W        W26278  33.865  41.562   4.575
54663W        W26279  33.674  13.235  10.385
54664W        W26280  40.255  25.574  13.928
54665W        W26281  28.695  10.601  11.247
54666W        W26282  13.552  28.657   4.731
54667W        W26283  41.316  25.394   1.461
54668W        W26284   0.725   3.321  12.535
54669W        W26285  42.108   9.310  13.498
54670W        W26286   6.697  38.124   1.449
54671W        W26287  40.433   6.345  14.066
54672W        W26288  39.360  17.031   3.180
54673W        W26289   1.918  22.714  12.847
54674W        W26290  39.880  15.271  10.654
54675W        W26291   7.980   3.041   3.734
54676W        W26292  11.566   7.556  11.619
54677W        W26293  44.263   4.469  10.373
54678W        W26294  25.052  19.238  13.360
54679W        W26295  36.918  41.477   2.075
54680W        W26296  44.553  24.999   2.261
54681W        W26297  22.506   8.565   0.940
54682W        W26298  32.138  31.006   1.234
54683W        W26299  36.642  15.304  11.490
54684W        W26300   6.499  30.241  14.250
54685W        W26301  39.470   1.519   0.914
54686W        W26302  29.028  37.908   3.290
54687W        W26303  16.775  22.459   4.238
54688W        W26304  13.816  28.152   1.016
54689W        W26305  14.035  38.017   2.292
54690W        W26306  32.759  29.098   2.162
54691W        W26307   2.476   0.205   0.453
54692W        W26308  16.352  13.362  13.533
54693W        W26309  44.231   5.870   4.541
54694W        W26310   8.639   7.335   3.878
54695W        W26311  19.212  41.560  13.835
54696W        W26312  28.552  19.248  13.388
54697W        W26313   8.969   4.506   5.052
54698W        W26314   2.273   4.228  13.799
54699W        W26315   2.237  17.583  14.044
54700W        W26316  36.013   4.553  11.689
54701W        W26317   4.262  17.373  13.512
54702W        W26318   9.829  30.084   3.160
54703W        W26319   8.315   7.319   0.422
54704W        W26320  37.682  14.798  14.778
54705W        W26321   8.192  11.658  10.781
54706W        W26322  22.535   2.868  10.410
54707W        W26323  26.593   6.605   0.346
54708W        W26324  12.168  12.606  10.888
54709W        W26325  19.644  25.614   1.355
54710W        W26326   2.306  26.432   3.233
54711W        W26327  20.688  30.392  11.085
54712W        W26328   6.872  13.380  13.444
54713W        W26329  29.180   3.753   1.808
54714W        W26330  36.129  28.081  12.307
54715W        W26331  28.452  21.306  13.832
54716W        W26332  15.348  29.897  14.074
54717W        W26333  39.900  41.745  12.578
54718W        W26334  16.092  31.662   4.198
54719W        W26335  29.504  33.469  14.818
54720W        W26336  20.567  15.921   2.658
54721W        W26337  34.093  34.037   1.224
54722W        W26338  32.951  35.352  14.069
54723W        W26339  16.194  16.549  14.753
54724W        W26340  44.621  15.320   4.789
54725W        W26341   5.223  17.553  10.522
54726W        W26342  24.521  36.988  11.587
54727W        W26343  31.609   4.358   3.679
54728W        W26344  20.935  31.635  10.696
54729W        W26345  29.653  35.237   1.434
54730W        W26346  28.365  19.994  11.441
54731W        W26347  10.081  13.317  11.155
54732W        W26348  24.044  34.248  11.510
54733W        W26349  37.436  25.887   4.853
54734W        W26350   8.971  33.635   3.506
54735W        W26351  35.887  22.281   4.352
54736W        W26352  25.437  21.458  14.885
54737W        W26353  24.580   5.318  14.933
54738W        W26354  12.734   2.805   3.513
54739W        W26355  26.807  31.293  12.847
54740W        W26356  37.641  44.925  13.895
54741W        W26357  22.808  22.990   1.320
54742W        W26358  34.603  20.958  13.286
54743W        W26359  44.967  37.177   2.804
54744W        W26360  27.881  31.746   5.070
54745W        W26361   6.900  37.081   1.324
54746W        W26362  35.578   4.307   1.735
54747W        W26363  19.296  11.060   2.257
54748W        W26364  36.392   3.048   0.861
54749W        W26365   6.293  24.673   2.179
54750W        W26366  25.667   3.445   4.648
54751W        W26367  27.544  36.289  11.998
54752W        W26368  27.539   5.361  12.062
54753W        W26369  22.087  13.846   2.399
54754W        W26370  29.137   3.775   1.241
54755W        W26371   6.655  16.290  13.541
54756W        W26372  19.634  28.119  10.471
54757W        W26373   9.733  19.951  11.786
54758W        W26374  35.421  38.606   4.186
54759W        W26375   4.198  16.517  14.383
54760W        W26376   2.526  38.840   4.250
54761W        W26377  16.153  28.512   1.463
54762W        W26378  32.572   2.257   1.209
54763W        W26379  23.166   8.464  13.403
54764W        W26380  23.551  16.999  13.156
54765W        W26381  21.670  17.748   0.716
54766W        W26382   3.007  28.996  10.406
54767W        W26383  10.283  19.082  13.857
54768W        W26384  25.629  42.797  13.552
54769W        W26385   2.422  10.067   5.229
54770W        W26386  26.620   8.681   4.479
54771W        W26387  17.562  40.455   1.485
54772W        W26388  27.576  13.378  10.087
54773W        W26389  17.053  21.526   2.163
54774W        W26390  18.605  17.711  13.794
54775W        W26391  14.586   7.888   0.969
54776W        W26392  44.387  31.936   4.395
54777W        W26393  33.002   6.736   0.343
54778W        W26394  34.233  16.857   2.522
54779W        W26395  26.406  43.784   0.442
54780W        W26396  24.578  14.866  12.566
54781W        W26397   3.868  20.883  11.648
54782W        W26398  31.590  18.298   0.794
54783W        W26399  15.418   3.544  10.897
54784W        W26400  42.126   2.248   1.867
54785W        W26401  34.614  31.540   1.782
54786W        W26402  38.506  16.170   2.766
54787W        W26403  40.520  14.260  11.640
54788W        W26404   6.727  28.136  12.018
54789W        W26405  12.310   6.863  12.907
54790W        W26406  41.441  14.081  11.492
54791W        W26407  22.085  42.232  12.326
54792W        W26408  16.495  39.856   0.237
54793W        W26409  22.704  25.880   4.341
54794W        W26410  10.886  28.038   1.981
54795W        W26411  40.227  14.970   1.374
54796W        W26412   0.697  35.228   3.253
54797W        W26413  28.885   7.139   2.282
54798W        W26414  22.049  13.417  14.413
54799W        W26415  37.636  31.088  10.588
54800W        W26416   2.172  41.809  13.041
54801W        W26417  25.242  18.547   2.550
54802W        W26418  42.261   4.073  12.536
54803W        W26419  18.250  22.117  12.405
54804W        W26420   0.904   3.709  12.865
54805W        W26421   9.378   6.084  11.125
54806W        W26422  43.783  27.443  14.397
54807W        W26423  34.113  36.525   0.327
54808W        W26424  39.369  11.326  12.897
54809W        W26425  10.903  29.466   0.788
54810W        W26426  14.690  22.231  11.453
54811W        W26427   0.769  38.854  13.881
54812W        W26428   0.457  25.418   2.521
54813W        W26429  26.688  37.887  13.949
54814W        W26430  20.031  36.831   2.197
54815W        W26431  28.543  37.370  14.208
54816W        W26432  38.232   5.233  10.389
54817W        W26433  22.536  34.695   1.848
54818W        W26434  12.518  12.490  10.472
54819W        W26435  13.341  38.211   0.366
54820W        W26436  39.079  43.779  10.682
54821W        W26437  42.814  20.269   3.375
54822W        W26438  16.398  40.004  11.913
54823W        W26439  20.487  44.686   2.317
54824W        W26440  32.960   8.810   2.760
54825W        W26441  28.672   5.485  14.029
54826W        W26442  21.024   0.101   2.861
54827W        W26443   2.817  33.227  14.357
54828W        W26444  14.681  13.253   3.731
54829W        W26445  41.833  36.126  10.230
54830W        W26446  14.991  35.498   4.196
54831W        W26447  23.273  26.916   1.487
54832W        W26448   2.530  27.628   4.576
54833W        W26449  12.399  35.569   4.293
54834W        W26450  27.147   2.565  10.718
54835W        W26451  12.361   5.024   2.717
54836W        W26452  24.191  41.362   0.183
54837W        W26453  18.986  40.066   1.638
54838W        W26454  38.736  43.755  11.990
54839W        W26455  11.155  11.446  11.519
54840W        W26456  25.129  19.224   4.232
54841W        W26457  35.325  20.650  11.059
54842W        W26458  18.773  41.369  14.051
54843W        W26459   1.787  38.492  13.795
54844W        W26460  33.983  30.365   4.503
54845W        W26461   7.722  42.915  13.843
54846W        W26462  22.046  43.086  12.013
54847W        W26463  10.837  32.896   2.713
54848W        W26464  37.194   7.033   1.988
54849W        W26465  36.835  34.883   3.285
54850W        W26466  15.356  23.840   1.703
54851W        W26467  19.078  37.708   1.699
54852W        W26468  44.466  11.398  13.294
54853W        W26469   3.829   1.362  14.002
54854W        W26470  17.565  32.944  14.743
54855W        W26471   0.370   6.366   4.445
54856W        W26472   4.100  34.727  14.799
54857W        W26473  11.842  43.262  12.073
54858W        W26474  35.091   0.520  13.943
54859W        W26475   1.762   3.830   0.431
54860W        W26476  36.114  32.290   4.584
54861W        W26477  27.083  40.887   4.498
54862W        W26478  19.034  35.625  12.587
54863W        W26479   2.864  41.356   4.743
54864W        W26480  20.299  14.309   3.768
54865W        W26481   5.336  30.181   0.362
54866W        W26482  44.000   8.558   3.639
54867W        W26483  33.986  32.985  11.469
54868W        W26484  10.501  24.098  12.955
54869W        W26485  10.533   2.854  11.167
54870W        W26486  21.913  17.304   2.110
54871W        W26487  30.999   9.364   0.844
54872W        W26488  28.942  35.834  11.918
54873W        W26489  41.648  10.108  11.512
54874W        W26490  42.912  40.759   3.333
54875W        W26491   9.735  16.415   3.865
54876W        W26492  20.467  10.667  10.677
54877W        W26493   5.416  42.899  14.436
54878W        W26494  30.007  33.757   0.746
54879W        W26495   2.714  43.011   4.727
54880W        W26496  40.239   4.843   3.227
54881W        W26497  24.480   3.787  13.861
54882W        W26498   1.508  10.817  14.349
54883W        W26499   9.892  38.578  12.661
54884W        W26500  43.880  25.031  14.433
54885W        W26501  31.164  42.283  14.973
54886W        W26502  42.373  32.342  14.026
54887W        W26503  34.544  37.597   1.712
54888W        W26504   9.252  24.195   4.811
54889W        W26505  40.163  29.156  12.296
54890W        W26506  42.849  34.070  12.371
54891W        W26507  38.840  13.682  12.865
54892W        W26508   9.837   6.677   1.188
54893W        W26509  28.937  23.888   4.156
54894W        W26510  31.463  36.441  13.931
54895W        W26511  13.081   6.611   0.975
54896W        W26512  20.541  24.545  12.961
54897W        W26513   0.056  27.399  14.883
54898W        W26514  19.497   3.635   1.306
54899W        W26515  22.695  40.564  14.836
54900W        W26516  26.503  35.067   4.982
54901W        W26517   6.533  28.765  11.526
54902W        W26518  29.117  12.612   2.620
54903W        W26519  12.546  17.876   2.426
54904W        W26520  12.590  24.274   4.822
54905W        W26521  17.602  33.127   1.725
54906W        W26522  20.013  43.484  11.621
54907W        W26523   9.921  25.030   1.806
54908W        W26524   3.978  33.100   2.197
54909W        W26525  32.030  15.352  11.018
54910W        W26526   9.118  13.491  10.555
54911W        W26527  36.618  26.097   3.806
54912W        W26528  18.580  22.247  12.935
54913W        W26529  33.158  12.300  12.851
54914W        W26530  31.486  20.416   3.346
54915W        W26531  36.852  13.585  12.999
54916W        W26532  14.860  42.277   2.716
54917W        W26533   5.088  21.788  11.639
54918W        W26534  24.717  20.762   0.398
54919W        W26535  36.401  44.309  10.013
54920W        W26536  26.236   4.875   0.861
54921W        W26537  17.519  19.939   4.305
54922W        W26538  29.451  37.219  14.013
54923W        W26539  26.453  42.429  13.202
54924W        W26540  41.500   9.358   4.479
54925W        W26541  38.908  11.572   0.515
54926W        W26542  30.461  25.695  13.082
54927W        W26543  40.254  42.922  14.896
54928W        W26544  10.139  12.733   4.641
54929W        W26545   5.344  25.581  11.115
54930W        W26546  36.979  25.501  14.337
54931W        W26547   7.080  38.259   0.522
54932W        W26548   7.753  29.011   4.498
54933W        W26549  13.686  15.584  14.228
54934W        W26550   6.809  34.409  12.522
54935W        W26551   4.478  40.481   2.338
54936W        W26552  30.755  44.327   0.678
54937W        W26553  34.057  29.926   0.128
54938W        W26554  10.141  32.663   4.623
54939W        W26555  42.397  35.484   0.629
54940W        W26556  34.779  31.388   4.669
54941W        W26557  28.102  30.220  11.082
54942W        W26558  35.193  31.363  14.110
54943W        W26559   0.537  26.110   1.840
54944W        W26560  30.261  21.663   2.899
54945W        W26561  37.397  35.769   1.484
54946W        W26562  44.848  20.743   0.333
54947W        W26563  44.330  21.252  11.687
54948W        W26564   7.188  42.798   1.104
54949W        W26565  11.659  34.351   3.071
54950W        W26566   4.455  23.869  14.795
54951W        W26567  37.418   5.845   4.156
54952W        W26568  14.742  29.289  11.017
54953W        W26569   1.646  15.024  12.956
54954W        W26570  36.265  12.205  10.811
54955W        W26571   0.771  37.403  12.620
54956W        W26572  41.906  10.436   0.910
54957W        W26573  23.635  12.519   0.490
54958W        W26574  30.859   4.526  13.484
54959W        W26575  37.856  12.879   2.797
54960W        W26576  16.294  26.877  14.837
54961W        W26577  22.625  28.884   3.219
54962W        W26578  36.396  33.526  13.424
54963W        W26579  33.923  28.420   0.198
54964W        W26580   3.490  17.716   1.894
54965W        W26581  37.125  22.356  13.808
54966W        W26582   4.180   0.577   2.672
54967W        W26583  31.324  11.612   0.501
54968W        W26584  23.757  11.483  14.215
54969W        W26585  16.561   2.703  13.487
54970W        W26586  37.558   9.401   2.443
54971W        W26587   5.951  13.149   2.592
54972W        W26588  34.934  33.930   4.123
54973W        W26589  37.452   4.706   3.115
54974W        W26590  16.034  12.181  13.129
54975W        W26591  17.690  40.878  11.378
54976W        W26592  42.213   5.022   2.234
54977W        W26593  33.764  27.507   3.166
54978W        W26594  29.915  41.308   3.248
54979W        W26595  16.530  27.101   4.296
54980W        W26596  39.102  38.328   1.784
54981W        W26597  34.419  32.433  13.908
54982W        W26598   5.385   7.498  11.563
54983W        W26599  24.070  18.200  14.723
54984W        W26600  44.528  36.732   4.620
54985W        W26601  44.767  42.275   2.294
54986W        W26602  33.242   6.916   0.983
54987W        W26603  44.418  38.917  14.361
54988W        W26604  43.439  28.647  10.476
54989W        W26605  11.667   7.207   4.644
54990W        W26606  24.394  19.128  11.212
54991W        W26607  13.553  36.422   3.796
54992W        W26608  42.484  43.453  11.572
54993W        W26609  39.479  37.577   0.797
54994W        W26610   3.884  35.881   0.835
54995W        W26611   6.660   0.349   0.011
54996W        W26612  20.349   8.039   4.307
54997W        W26613  38.801  44.802  11.597
54998W        W26614   7.999  36.047  10.745
54999W        W26615  24.071   4.491   2.804
55000W        W26616  28.753  43.548  12.867
55001W        W26617  16.735  30.558   3.939
55002W        W26618   7.913  39.136  10.274
55003W        W26619  28.172  24.082  12.413
55004W        W26620   6.411  41.949  14.423
55005W        W26621  12.620  30.059   3.772
55006W        W26622  26.922  19.220  11.106
55007W        W26623  38.036   4.256  11.903
55008W        W26624  23.347  37.991  12.459
55009W        W26625  11.818   0.315   4.695
55010W        W26626  27.067  40.929  11.957
55011W        W26627  10.083  34.101   2.212
55012W        W26628  19.970  23.194  14.542
55013W        W26629   2.748  27.453  11.098
55014W        W26630  40.584  41.044  10.792
55015W        W26631  24.067   8.451  10.383
55016W        W26632  34.154  39.343  10.774
55017W        W26633  26.498   0.241   3.207
55018W        W26634  22.504  40.985  12.336
55019W        W26635  33.525  25.588   0.694
55020W        W26636  27.105  23.435   3.728
55021W        W26637  30.181  17.704   1.487
55022W        W26638  21.001  13.695   0.291
55023W        W26639  41.113  16.810   3.076
55024W        W26640   9.322  24.046   2.386
55025W        W26641  30.041  29.775   1.934
55026W        W26642  22.089  36.911   0.825
55027W        W26643  33.474  25.469   1.192
55028W        W26644  14.322  35.390  12.995
55029W        W26645  29.913  23.663   5.001
55030W        W26646  20.197  27.427  11.514
55031W        W26647  32.030  20.135  12.565
55032W        W26648  11.272  41.693   3.706
55033W        W26649   3.970   2.551   2.209
55034W        W26650  23.073  14.573  12.497
55035W        W26651   1.446  38.522  12.464
55036W        W26652  27.109  27.699   2.466
55037W        W26653  21.355  42.242   3.289
55038W        W26654  21.285  39.905  11.525
55039W        W26655   3.562  41.446  11.190
55040W        W26656   5.200  28.253  12.564
55041W        W26657   1.065  14.814   4.948
55042W        W26658   6.054  34.804   3.652
55043W        W26659  11.347  15.478   5.012
55044W        W26660  32.244  28.228   0.379
55045W        W26661  36.115  19.895  11.625
55046W        W26662  10.095  18.112  14.008
55047W        W26663   4.002  31.428  12.446
55048W        W26664  28.797   2.729  13.739
55049W        W26665   3.469  20.639  13.787
55050W        W26666  18.279  38.799  10.528
55051W        W26667  42.913   9.875  13.379
55052W        W26668  21.062  14.294   4.481
55053W        W26669  13.912  21.517   3.755
55054W        W26670  20.224  19.646   4.544
55055W        W26671  20.321  24.009   0.850
55056W        W26672  34.238  23.321  14.029
55057W        W26673  25.997   0.992   0.158
55058W        W26674   8.512  36.570   3.376
55059W        W26675  16.299  27.264  12.247
55060W        W26676  32.068  27.940   4.973
55061W        W26677   7.358  25.724   0.387
55062W        W26678  30.567  38.861   1.379
55063W        W26679  33.446  10.940   3.332
55064W        W26680  16.824  31.052   2.228
55065W        W26681  14.726   1.540   0.935
55066W        W26682  19.657  21.783   3.759
55067W        W26683  25.099  26.004  10.772
55068W        W26684   0.354  26.244  13.820
55069W        W26685  16.038  42.951   0.789
55070W        W26686  29.438   0.836  14.397
55071W        W26687  12.298  12.202  12.517
55072W        W26688  34.578  15.141  14.842
55073W        W26689   1.700  21.936   3.929
55074W        W26690  39.718  24.039   3.696
55075W        W26691   0.783  40.051  11.254
55076W        W26692  26.577  32.022  14.218
55077W        W26693  16.767  27.438  11.641
55078W        W26694   7.862  21.607  14.287
55079W        W26695  37.866   7.938  11.040
55080W        W26696  13.618  12.221   3.276
55081W        W26697  17.793  42.941   2.746
55082W        W26698  11.634  44.522   1.186
55083W        W26699  41.816  42.696   0.305
55084W        W26700  18.370   8.830   4.184
55085W        W26701   1.268  29.898   2.240
55086W        W26702   9.320  19.619  11.762
55087W        W26703  19.350  30.143  13.866
55088W        W26704  16.239   7.362   2.906
55089W        W26705  32.478   9.360   0.726
55090W        W26706   0.985  41.726  14.550
55091W        W26707   9.706  35.297   4.923
55092W        W26708   7.739  14.337  11.545
55093W        W26709  11.743  22.254   4.752
55094W        W26710   1.862   0.870   1.935
55095W        W26711  26.650  21.124   4.533
55096W        W26712   6.530  33.522   5.040
55097W        W26713  21.676  40.215  12.172
55098W        W26714  26.450  23.158  14.921
55099W        W26715   9.394   7.121  11.128
55100W        W26716  30.648  19.730   4.153
55101W        W26717  18.232  23.618  10.749
55102W        W26718   2.216   9.586  14.500
55103W        W26719  20.597   8.758   2.415
55104W        W26720  21.273  33.182  12.939
55105W        W26721  21.232  44.538  13.375
55106W        W26722  11.906  37.432  13.593
55107W        W26723  38.167  20.940   9.946
55108W        W26724  24.189  19.760  14.025
55109W        W26725  15.078  37.954  14.963
55110W        W26726  38.993  36.339  12.036
55111W        W26727  19.465  35.594  13.974
55112W        W26728   2.385  24.626   0.219
55113W        W26729  35.373  29.631   2.229
55114W        W26730  33.987  13.412   4.305
55115W        W26731  30.188  35.626   0.664
55116W        W26732  30.304   5.188   4.113
55117W        W26733  43.887  34.786  14.936
55118W        W26734   8.289   7.744  12.917
55119W        W26735   2.121   2.524   2.732
55120W        W26736  14.647   6.328  12.696
55121W        W26737  38.868  21.830  10.763
55122W        W26738  36.169  23.302  14.910
55123W        W26739  29.643  16.470   2.670
55124W        W26740  44.420  37.337  14.455
55125W        W26741   5.119  29.087  11.539
55126W        W26742  39.022  38.067  11.594
55127W        W26743  32.713  38.794  11.548
55128W        W26744  23.034  34.369  10.516
55129W        W26745  41.621  28.636   2.260
55130W        W26746  25.463  10.851  13.948
55131W        W26747  23.998  38.774   4.020
55132W        W26748  21.715  28.059  13.331
55133W        W26749   3.686   9.148  10.763
55134W        W26750   9.254  14.262  11.187
55135W        W26751  44.503  39.966  12.048
55136W        W26752  40.316  17.184  11.051
55137W        W26753   3.422  40.974   2.723
55138W        W26754  32.020   1.391   3.662
55139W        W26755  24.759   6.754   4.694
55140W        W26756  21.743  17.516   1.692
55141W        W26757  38.387  25.087   0.915
55142W        W26758  30.840   9.878   1.565
55143W        W26759  43.724  38.476   3.715
55144W        W26760  11.648  11.799   4.465
55145W        W26761  22.725  32.078   0.492
55146W        W26762  40.210   3.098   3.332
55147W        W26763  44.135  42.932  11.500
55148W        W26764  26.534   3.376  13.965
55149W        W26765   1.431  36.928  13.044
55150W        W26766  12.991   2.355  13.851
55151W        W26767   6.669  16.123  11.654
55152W        W26768  17.136  11.303   3.605
55153W        W26769  21.108  44.428   0.520
55154W        W26770  39.476   9.796  11.428
55155W        W26771  24.249  17.527   2.224
55156W        W26772  41.540  15.739  12.858
55157W        W26773  42.262  35.978   2.840
55158W        W26774  33.490   4.920  11.512
55159W        W26775  26.742  35.087   4.503
55160W        W26776   9.854   9.295   2.781
55161W        W26777  17.149  31.727   4.985
55162W        W26778  24.195  40.002   3.347
55163W        W26779   7.884  27.065  12.946
55164W        W26780  44.678  39.057   3.339
55165W        W26781  43.860  28.269  13.119
55166W        W26782  28.079  41.052  11.985
55167W        W26783  30.526   5.711  14.352
55168W        W26784   4.239  26.696   2.867
55169W        W26785  20.602  10.607   0.331
55170W        W26786  24.673  17.958  13.362
55171W        W26787  24.973  25.185  13.751
55172W        W26788   5.157  32.476  12.944
55173W        W26789  40.342  23.471   4.103
55174W        W26790  16.780  42.766   3.776
55175W        W26791   7.377  27.457  11.173
55176W        W26792   4.759  31.193   0.436
55177W        W26793  30.831  20.200   4.411
55178W        W26794   9.728   3.033   1.007
55179W        W26795  17.931  32.878   3.290
55180W        W26796  44.078  14.442  13.143
55181W        W26797   2.351  26.819  13.176
55182W        W26798   0.040  36.369   1.681
55183W        W26799  18.739  25.220  11.941
55184W        W26800  19.046  33.701   1.492
55185W        W26801  19.413  21.524  10.486
55186W        W26802  35.127  44.332   2.506
55187W        W26803   3.647  39.022  12.898
55188W        W26804   4.739  27.155  12.165
55189W        W26805  29.037  38.659  14.776
55190W        W26806  33.668  42.186  14.344
55191W        W26807   2.298  26.462  10.415
55192W        W26808  34.240  16.147   1.325
55193W        W26809  28.966  11.439  11.533
55194W        W26810  21.741  17.145  13.960
55195W        W26811   7.156  34.442   0.922
55196W        W26812  20.075   7.427   1.812
55197W        W26813  10.263  40.106  12.570
55198W        W26814  41.647  11.728   1.846
55199W        W26815  19.325   7.813  14.044
55200W        W26816  30.302   1.362  10.684
55201W        W26817  42.352  36.067  12.936
55202W        W26818   8.212  19.649  12.974
55203W        W26819   8.830  32.378  13.646
55204W        W26820  20.969  41.062   0.655
55205W        W26821  26.512  37.798   0.880
55206W        W26822  25.942  40.335  12.485
55207W        W26823  16.722  16.151   0.286
55208W        W26824   9.708  27.595  10.727
55209W        W26825   3.205  33.095   4.767
55210W        W26826  30.499  13.327   0.041
55211W        W26827  19.770  28.370  11.165
55212W        W26828  43.252   9.692   2.471
55213W        W26829  20.039  32.840  12.451
55214W        W26830   4.088  31.396  13.348
55215W        W26831  27.779  31.451  13.304
55216W        W26832  38.914  16.056  10.504
55217W        W26833  21.541  43.300  13.324
55218W        W26834  11.617  24.233   1.668
55219W        W26835  34.547  34.089  12.443
55220W        W26836  42.295  37.302  11.563
55221W        W26837   6.772  12.411  13.577
55222W        W26838   0.765  29.942  13.317
55223W        W26839  40.560   9.931  12.520
55224W        W26840  42.694  40.273   3.139
55225W        W26841  32.149  37.377  13.455
55226W        W26842  11.954  24.035   2.114
55227W        W26843  25.504  27.186  10.875
55228W        W26844   7.271  38.135   3.765
55229W        W26845  34.913   3.693  12.942
55230W        W26846   2.980  35.454   2.235
55231W        W26847   2.499  37.507  13.573
55232W        W26848  24.370   9.861   4.460
55233W        W26849  35.598  44.329  12.446
55234W        W26850  40.735  39.253   0.882
55235W        W26851  23.182  34.896   1.517
55236W        W26852  26.034  21.308  11.059
55237W        W26853  30.915  41.472  14.500
55238W        W26854  37.539  21.037   0.925
55239W        W26855  13.436   8.158  12.526
55240W        W26856  21.284  29.996   3.621
55241W        W26857   0.779  34.054   4.663
55242W        W26858  23.309   1.975   1.198
55243W        W26859  41.324  36.905   3.376
55244W        W26860  24.960   2.387   4.794
55245W        W26861  38.324  11.758   0.665
55246W        W26862  15.039  16.833  14.858
55247W        W26863  30.541  11.859   2.740
55248W        W26864  21.032  36.613   2.421
55249W        W26865   7.228  26.696   2.879
55250W        W26866  44.594  31.085   0.304
55251W        W26867   1.271  40.974  13.551
55252W        W26868  33.044  22.514  14.948
55253W        W26869  22.680  38.109   2.028
55254W        W26870  40.444  30.598  10.670
55255W        W26871  26.686  30.130   1.683
55256W        W26872  11.616  33.245  13.986
55257W        W26873   9.393  30.017   2.874
55258W        W26874  44.153  10.767   0.986
55259W        W26875  43.929   8.303   2.359
55260W        W26876   6.983  40.068  10.714
55261W        W26877   0.246  20.004  14.359
55262W        W26878  24.092  36.940  11.003
55263W        W26879  40.073   5.258  11.752
55264W        W26880  23.212  13.116  14.006
55265W        W26881   1.361  30.555  12.320
55266W        W26882  40.995  23.571  13.516
55267W        W26883  24.090  18.641  13.522
55268W        W26884  34.609  13.307   4.833
55269W        W26885  28.493  26.583   3.901
55270W        W26886   8.920  38.395  12.440
55271W        W26887  38.237  24.100   3.619
55272W        W26888   6.176  27.302   1.177
55273W        W26889   8.726   2.158  10.770
55274W        W26890  27.390   8.995   0.412
55275W        W26891   0.022  30.384  10.628
55276W        W26892  19.334  38.852   3.037
55277W        W26893   8.926   2.732   3.570
55278W        W26894   0.412  31.637   2.875
55279W        W26895  15.981  33.484  11.667
55280W        W26896   9.145   1.662   4.187
55281W        W26897  39.985  10.302   5.184
55282W        W26898  17.564  40.935   1.241
55283W        W26899  23.641  39.263  12.954
55284W        W26900  21.698  15.812   1.489
55285W        W26901  41.522  24.927   3.775
55286W        W26902  28.121  11.723  14.928
55287W        W26903  44.785  44.447  14.336
55288W        W26904  27.097   6.167  11.118
55289W        W26905  32.911   6.663  10.767
55290W        W26906   7.818  33.182  10.700
55291W        W26907  36.076  27.541  10.913
55292W        W26908  11.255  43.222  13.829
55293W        W26909   2.208  33.095   1.856
55294W        W26910  25.536  32.006  10.731
55295W        W26911  36.255   3.908   2.906
55296W        W26912   3.390   8.999  14.860
55297W        W26913  41.528  21.698   3.732
55298W        W26914  40.951  36.430  14.544
55299W        W26915  22.623  33.352  11.979
55300W        W26916  33.390  13.813  12.074
55301W        W26917   9.070  11.405   0.309
55302W        W26918  41.260  36.197   2.840
55303W        W26919  15.397   8.308  12.472
55304W        W26920  30.133   3.205   4.901
55305W        W26921   5.415  10.072   4.678
55306W        W26922  12.552  34.373   2.722
55307W        W26923  28.935   4.258   1.756
55308W        W26924  11.850   5.257  14.803
55309W        W26925  39.489  15.073   1.793
55310W        W26926   8.163   5.680  10.515
55311W        W26927  10.222  43.404   4.859
55312W        W26928  41.240  18.641   4.235
55313W        W26929  13.539  35.512  12.371
55314W        W26930  34.821  33.528  11.648
55315W        W26931   0.241   5.705  14.226
55316W        W26932  16.649  21.197  13.879
55317W        W26933  40.628  22.153   1.704
55318W        W26934  42.229  18.801  14.562
55319W        W26935  28.377  42.314  11.039
55320W        W26936  18.493  10.086   5.015
55321W        W26937   3.911  21.362   0.936
55322W        W26938  23.149  40.913   3.189
55323W        W26939   0.787  38.831   4.799
55324W        W26940  25.141  18.727  13.174
55325W        W26941  27.057  29.907   0.298
55326W        W26942  26.264  23.042   0.392
55327W        W26943  28.932   4.714  11.819
55328W        W26944  15.093  42.653  14.286
55329W        W26945   1.167  36.925  11.467
55330W        W26946  35.281  24.724   4.111
55331W        W26947  29.394  35.008   1.035
55332W        W26948  27.789  29.048   3.365
55333W        W26949  32.293  28.353   5.258
55334W        W26950  43.518  27.020   1.908
55335W        W26951  20.207  37.867   3.764
55336W        W26952   3.934   5.496   1.559
55337W        W26953   3.881  29.431   2.408
55338W        W26954   8.490  19.319   4.086
55339W        W26955  43.987  38.480   5.568
55340W        W26956  12.694   4.535  13.027
55341W        W26957  12.201  29.738  14.497
55342W        W26958  26.197  11.584   0.923
55343W        W26959   4.791  25.021  10.647
55344W        W26960  32.898   6.362  12.601
55345W        W26961  23.108   9.621  12.786
55346W        W26962  27.489   9.711   2.158
55347W        W26963   7.539   8.401  11.463
55348W        W26964  33.036  27.061  14.340
55349W        W26965  44.835  10.862  13.059
55350W        W26966  18.161  20.221  13.885
55351W        W26967  16.767   6.439  11.894
55352W        W26968   7.259  41.886   4.869
55353W        W26969   6.408  10.647   0.136
55354W        W26970  24.103   9.699   1.674
55355W        W26971  27.957  40.617  14.734
55356W        W26972  24.155  42.330   1.668
55357W        W26973  42.236  21.160   0.260
55358W        W26974  25.166   7.635  10.676
55359W        W26975  34.077  35.884  14.920
55360W        W26976  17.589   5.407  12.025
55361W        W26977  29.999  20.444  12.092
55362W        W26978   1.803  28.200  12.865
55363W        W26979  28.558   0.496  13.653
55364W        W26980   8.519   4.051   2.939
55365W        W26981  13.709   0.774  14.890
55366W        W26982  43.493  29.351   1.791
55367W        W26983  24.457  17.639   2.921
55368W        W26984   6.690   8.201   3.517
55369W        W26985  35.666  24.147  11.659
55370W        W26986  29.462  19.339   1.000
55371W        W26987  44.235  41.970   3.278
55372W        W26988  34.283  33.450   0.808
55373W        W26989   7.622   5.722   1.211
55374W        W26990  38.930  24.843   5.126
55375W        W26991  27.595  43.103  14.836
55376W        W26992  31.468  35.278   2.790
55377W        W26993  11.360  38.329  11.125
55378W        W26994  38.826   3.839   2.713
55379W        W26995   1.445  33.028   3.243
55380W        W26996  14.221  40.545   0.391
55381W        W26997  44.699  27.200  12.929
55382W        W26998  33.168  10.229  11.223
55383W        W26999  37.790  19.257   3.296
55384W        W27000  27.189   8.653   3.672
55385W        W27001  36.562  24.031   3.361
55386W        W27002   1.854  10.835  11.680
55387W        W27003  22.766  18.602  12.986
55388W        W27004   8.762  43.212   2.788
55389W        W27005  10.659   9.448   3.282
55390W        W27006  29.233  28.374  14.020
55391W        W27007  28.411  34.920   2.287
55392W        W27008  28.674   5.129  12.544
55393W        W27009  44.938   7.044  12.458
55394W        W27010  23.897  37.057  12.619
55395W        W27011  32.950  19.596   3.382
55396W        W27012  38.504  30.996   0.743
55397W        W27013  17.362  38.463   1.762
55398W        W27014   3.522  36.978   4.148
55399W        W27015  12.098  12.325  12.001
55400W        W27016  11.395  32.249  11.131
55401W        W27017  40.745  32.577  13.418
55402W        W27018  16.938  36.044   2.386
55403W        W27019  27.120  30.398   0.094
55404W        W27020  17.781   3.755   0.430
55405W        W27021  22.496  29.940  11.199
55406W        W27022   5.903   4.197  11.430
55407W        W27023  22.031   5.914   1.202
55408W        W27024  37.455  14.351   3.483
55409W        W27025  43.515  42.474  13.493
55410W        W27026  27.100  13.787   4.079
55411W        W27027  43.365  15.155   0.766
55412W        W27028  25.462   9.078  11.985
55413W        W27029  36.338   9.815   3.752
55414W        W27030   7.674   6.771  13.297
55415W        W27031  19.816  16.784   0.360
55416W        W27032   3.724  37.519   4.941
55417W        W27033   8.918  44.487  13.033
55418W        W27034  44.814  19.205   1.306
55419W        W27035  44.339   1.445  13.530
55420W        W27036  34.097   8.816  12.475
55421W        W27037  19.374  10.218   2.843
55422W        W27038   6.825  24.481   0.747
55423W        W27039   5.391  25.089   1.707
55424W        W27040  26.159  17.157  13.113
55425W        W27041  22.166  38.853   3.237
55426W        W27042  23.286   9.377  11.042
55427W        W27043  32.354  36.163   0.763
55428W        W27044  23.211  21.672  12.403
55429W        W27045  42.900  21.455  13.081
55430W        W27046  40.088  38.569   1.265
55431W        W27047  25.566  21.009  13.884
55432W        W27048   7.443   9.015   1.274
55433W        W27049  37.400   2.220  14.046
55434W        W27050  35.593  37.451  14.318
55435W        W27051   3.364  13.232   3.614
55436W        W27052  15.918  19.737   3.732
55437W        W27053  35.590   6.294  10.617
55438W        W27054   3.762  34.096   0.289
55439W        W27055  26.535   6.619   1.695
55440W        W27056   5.209  15.200   0.523
55441W        W27057  31.618  11.230  11.824
55442W        W27058   3.273  42.009  12.916
55443W        W27059   8.623   7.404  14.585
55444W        W27060   0.894  37.889   0.873
55445W        W27061  25.041  33.212  12.928
55446W        W27062  26.738  33.016   3.152
55447W        W27063   1.486  17.288  13.383
55448W        W27064  36.928  15.810  10.779
55449W        W27065  32.178   8.642  12.799
55450W        W27066  19.666  36.007   4.316
55451W        W27067  23.296  14.789  11.710
55452W        W27068  24.341  33.313  11.053
55453W        W27069   4.603  38.564  13.801
55454W        W27070  32.459   0.684   0.320
55455W        W27071  15.114   8.291  12.903
55456W        W27072  32.990  33.601  10.167
55457W        W27073  12.129   8.296  13.061
55458W        W27074  23.384  20.182  12.418
55459W        W27075  35.015  14.591   2.883
55460W        W27076  38.394   2.971  14.813
55461W        W27077  28.594  26.151  14.453
55462W        W27078  37.560  26.946   4.852
55463W        W27079  18.016  13.530  13.099
55464W        W27080  39.806   2.344  14.267
55465W        W27081  39.131  39.086  13.415
55466W        W27082   2.214   1.996   1.233
55467W        W27083  39.776  21.680  13.453
55468W        W27084  20.942  43.041  10.755
55469W        W27085  24.391  11.299  14.978
55470W        W27086  36.666  44.443  14.911
55471W        W27087  12.176  26.498   4.378
55472W        W27088  41.338  41.503  10.527
55473W        W27089   4.726  42.272   4.156
55474W        W27090  44.403  32.725  10.336
55475W        W27091   7.255  19.130  13.831
55476W        W27092  23.123  42.451  10.355
55477W        W27093  42.563  26.098   1.319
55478W        W27094  11.724  28.600   4.340
55479W        W27095  42.335   4.514   0.249
55480W        W27096  14.223   1.790  12.100
55481W        W27097  38.146  14.716   2.938
55482W        W27098  27.523   8.728   0.881
55483W        W27099  31.138  37.405   3.660
55484W        W27100   3.305  23.090  11.464
55485W        W27101  40.187  29.100  10.331
55486W        W27102  15.092  33.169   1.712
55487W        W27103  14.310  40.414  13.170
55488W        W27104  20.743  42.104   2.032
55489W        W27105   5.438  16.099   1.774
55490W        W27106   0.336   9.665   1.401
55491W        W27107  17.654   3.401  14.054
55492W        W27108  22.779  40.126   2.351
55493W        W27109  13.594  20.333   0.820
55494W        W27110  10.614  34.144  14.852
55495W        W27111  33.194  15.471   0.011
55496W        W27112   6.225  17.743   4.416
55497W        W27113  31.209   9.281  12.076
55498W        W27114  36.340  42.880  11.466
55499W        W27115  11.796   3.121   1.336
55500W        W27116  33.218   6.247   0.500
55501W        W27117  21.128  25.381   1.142
55502W        W27118   1.902  33.141   2.331
55503W        W27119  23.435   1.008  10.627
55504W        W27120  20.771  10.274  12.387
55505W        W27121  36.531  21.243   2.463
55506W        W27122  28.047  25.400  13.321
55507W        W27123  35.659  37.362   2.840
55508W        W27124  24.257  33.021  12.394
55509W        W27125   5.865   6.135   1.729
55510W        W27126  32.191  15.096   4.072
55511W        W27127  41.487   5.952   2.858
55512W        W27128   9.947  39.981  14.397
55513W        W27129  20.122  10.771  11.089
55514W        W27130  26.045  39.295   2.413
55515W        W27131  31.080  11.143   0.510
55516W        W27132   7.229   8.306  14.063
55517W        W27133  20.728  38.560   3.345
55518W        W27134  26.766   6.823  14.466
55519W        W27135   1.541  40.843  13.076
55520W        W27136   8.751  32.617   4.344
55521W        W27137  38.377  12.406  11.559
55522W        W27138  19.796  22.156   2.898
55523W        W27139  10.474  34.797  10.783
55524W        W27140  10.337  37.853  12.124
55525W        W27141  12.663   9.940   2.306
55526W        W27142   5.606   6.951   4.360
55527W        W27143  12.387  19.630  13.862
55528W        W27144   3.686  44.772   3.126
55529W        W27145  33.441  11.942  14.005
55530W        W27146  11.776  11.724  14.302
55531W        W27147  38.975  14.556  14.563
55532W        W27148   8.763  40.528  14.730
55533W        W27149  43.268  39.114   2.848
55534W        W27150  37.984  28.080  10.722
55535W        W27151  36.897   6.157  11.075
55536W        W27152   7.608  16.139   4.396
55537W        W27153  32.479   9.385  12.947
55538W        W27154  18.825   7.227  12.938
55539W        W27155  21.545  25.903  14.538
55540W        W27156  42.835  34.074   4.561
55541W        W27157  35.665  34.592   1.367
55542W        W27158  36.060  36.493  11.586
55543W        W27159  24.621  12.007   3.295
55544W        W27160  35.892   4.856  10.418
55545W        W27161  25.186  43.184   3.806
55546W        W27162  26.103   4.490   2.169
55547W        W27163  15.187   5.254  11.126
55548W        W27164  11.922  33.982  11.088
55549W        W27165  25.112  10.108  10.670
55550W        W27166  11.765  14.789  14.762
55551W        W27167   3.535   9.269   0.265
55552W        W27168  40.907  32.699   1.358
55553W        W27169   4.561  16.892  14.394
55554W        W27170  29.512  24.783  13.466
55555W        W27171   4.853  23.053   4.276
55556W        W27172  13.178  24.710   2.822
55557W        W27173  18.668  44.251  11.128
55558W        W27174  43.963   3.575   1.374
55559W        W27175  36.078  13.334   4.685
55560W        W27176  13.283  37.880  13.774
55561W        W27177  22.109  12.208  12.992
55562W        W27178  27.712  38.995   0.395
55563W        W27179  35.529  14.081  14.798
55564W        W27180  37.748   3.320   0.842
55565W        W27181  44.050  12.259   3.854
55566W        W27182  19.297   3.347   4.851
55567W        W27183  33.517   0.998   3.134
55568W        W27184  19.284  25.983   1.372
55569W        W27185  35.504  36.409   0.713
55570W        W27186   7.563  21.088  12.934
55571W        W27187   0.707  39.390  12.912
55572W        W27188  32.594  17.528   4.058
55573W        W27189  33.994  10.622   1.529
55574W        W27190  18.742   5.689   9.836
55575W        W27191   0.729  21.436  11.555
55576W        W27192   4.315  31.936  10.456
55577W        W27193  29.368   9.202  12.489
55578W        W27194  40.528   0.071   1.808
55579W        W27195  28.107  27.620   4.623
55580W        W27196  44.416  44.715  12.637
55581W        W27197  30.807  27.548  12.600
55582W        W27198  41.296   6.223  10.707
55583W        W27199  44.318   1.528   2.811
55584W        W27200   8.659  18.070  10.234
55585W        W27201  27.023  36.937   0.819
55586W        W27202  37.241  16.610   1.324
55587W        W27203  31.418  21.884   3.952
55588W        W27204  38.912  32.659   3.754
55589W        W27205  27.766  39.034  14.418
55590W        W27206   1.473  39.035   0.503
55591W        W27207   1.666  21.158  14.117
55592W        W27208   1.822  12.568  14.180
55593W        W27209  22.335   7.973  13.818
55594W        W27210   6.720  42.978  13.413
55595W        W27211  17.123  38.578   4.271
55596W        W27212  44.796  21.520  11.494
55597W        W27213  18.105  17.603  14.448
55598W        W27214  38.939   2.853   3.556
55599W        W27215  39.508   8.893   4.163
55600W        W27216  43.911  25.677  10.729
55601W        W27217  40.116  24.071  12.410
55602W        W27218  36.052  19.770   1.828
55603W        W27219  41.426  42.885   0.035
55604W        W27220  34.803   3.804   1.895
55605W        W27221   8.280  17.391  11.230
55606W        W27222  34.639  38.006  12.074
55607W        W27223  37.437  13.340   2.045
55608W        W27224  20.156   0.282   4.340
55609W        W27225   4.050  38.432   4.783
55610W        W27226  20.170   8.837  14.513
55611W        W27227  23.626  11.190   1.193
55612W        W27228  31.534   2.383   2.421
55613W        W27229  42.327  40.879  11.210
55614W        W27230   1.821   1.242   0.040
55615W        W27231  43.466   3.346  10.799
55616W        W27232   8.358  35.512   1.347
55617W        W27233  24.690   9.774  12.506
55618W        W27234  32.872  10.256  14.838
55619W        W27235  11.809  37.987  10.366
55620W        W27236  10.048  11.248  13.049
55621W        W27237  33.399   2.334  10.325
55622W        W27238  40.930   6.147   1.228
55623W        W27239   7.235  42.688   2.585
55624W        W27240   9.184  36.401  14.314
55625W        W27241  29.983  37.086   3.309
55626W        W27242   6.634  33.534   2.263
55627W        W27243  40.919  38.051   1.497
55628W        W27244  27.658  14.147  10.493
55629W        W27245  26.430  28.170   3.206
55630W        W27246   9.311  10.709  11.995
55631W        W27247  10.806  13.783  11.217
55632W        W27248  26.768   6.417   3.918
55633W        W27249   9.639  16.390   0.690
55634W        W27250   6.289  24.716  13.770
55635W        W27251  29.933  13.306   0.844
55636W        W27252  37.863  21.319   4.865
55637W        W27253  42.979  19.152   0.572
55638W        W27254   1.823  37.527  14.785
55639W        W27255  37.521  21.123  14.518
55640W        W27256  30.747  32.140   4.708
55641W        W27257  29.468  17.337  11.170
55642W        W27258  18.736  29.462   1.319
55643W        W27259  35.130  40.954  12.337
55644W        W27260  23.943   4.423   0.915
55645W        W27261  33.858  17.798   2.382
55646W        W27262  20.485  18.268   4.864
55647W        W27263  14.855  44.420  13.559
55648W        W27264   2.425  40.558  12.463
55649W        W27265   8.790  23.004  10.639
55650W        W27266  43.372  29.879  14.835
55651W        W27267  35.455  40.493   4.646
55652W        W27268  10.191  28.003  11.859
55653W        W27269  19.225  37.452  14.134
55654W        W27270  13.768  29.970   0.713
55655W        W27271  24.534  27.008  10.343
55656W        W27272   9.625   1.113   1.804
55657W        W27273  37.029  21.561  10.448
55658W        W27274   4.022  10.860   1.756
55659W        W27275  12.510  12.718   1.919
55660W        W27276   8.411  39.140   1.320
55661W        W27277  18.749  35.411   0.011
55662W        W27278   3.840  42.886  12.110
55663W        W27279  16.597  19.028  14.921
55664W        W27280  19.459  35.966   4.797
55665W        W27281   0.485  38.993  12.149
55666W        W27282  35.146  22.199  12.982
55667W        W27283  32.473  33.048  12.433
55668W        W27284  40.989  25.370  12.063
55669W        W27285  32.948  35.269   4.181
55670W        W27286   3.417  16.720  14.949
55671W        W27287  36.389  43.111  10.609
55672W        W27288  17.371  38.569  12.473
55673W        W27289  42.450  23.393   4.150
55674W        W27290  39.073  43.271  10.720
55675W        W27291  27.938  18.762   4.235
55676W        W27292  44.333   2.918  13.753
55677W        W27293  34.587  21.420   0.369
55678W        W27294  39.963   7.443  11.114
55679W        W27295  23.327   8.224  12.924
55680W        W27296  21.690  18.567   3.072
55681W        W27297  38.923  39.461   2.361
55682W        W27298  19.164   5.894  13.218
55683W        W27299  34.175  13.653   4.732
55684W        W27300  18.560  38.161  12.167
55685W        W27301  15.127  42.505   4.852
55686W        W27302  17.147   3.362   4.015
55687W        W27303   3.944  44.127   0.336
55688W        W27304  10.278  22.577  12.107
55689W        W27305  19.066   7.247   0.282
55690W        W27306  36.511  34.450   3.866
55691W        W27307  21.603  12.834  10.612
55692W        W27308   7.332   9.806  10.993
55693W        W27309  21.502  18.678  11.212
55694W        W27310  15.942   8.103   5.223
55695W        W27311  29.735  12.605   0.363
55696W        W27312   3.239  12.781  11.593
55697W        W27313   5.392  15.458   2.774
55698W        W27314  41.547  29.041   4.943
55699W        W27315  26.211   9.935   4.707
55700W        W27316  22.436   2.040   4.576
55701W        W27317  12.282  21.576   3.257
55702W        W27318   3.227  31.907  13.027
55703W        W27319  44.141  34.657  12.023
55704W        W27320  29.492  15.021   0.823
55705W        W27321  21.727  22.312  13.004
55706W        W27322  16.749  40.088  14.811
55707W        W27323  27.031  16.838   4.191
55708W        W27324  20.541  32.917  12.471
55709W        W27325  43.885  27.785  10.657
55710W        W27326  32.021  28.295   9.801
55711W        W27327  43.316  31.574   0.316
55712W        W27328  10.242  21.340   1.850
55713W        W27329   7.297  24.109  14.450
55714W        W27330  34.204   2.576  10.946
55715W        W27331   5.267  13.699   1.297
55716W        W27332  15.989  22.260  11.134
55717W        W27333  19.237  41.317  10.797
55718W        W27334  39.566  26.444  13.473
55719W        W27335  31.303  21.988  13.123
55720W        W27336   9.277   3.776  12.591
55721W        W27337   4.590   3.909   1.325
55722W        W27338   4.255  16.223   2.575
55723W        W27339   7.505  30.406  12.824
55724W        W27340  34.774  15.056   0.352
55725W        W27341  41.266  32.913  14.497
55726W        W27342  31.560  31.348  14.276
55727W        W27343  11.481  25.886  11.966
55728W        W27344  21.270  40.484  13.397
55729W        W27345  10.332   0.948   0.352
55730W        W27346   1.247  26.138  11.052
55731W        W27347   6.640  12.772  13.909
55732W        W27348  33.650  30.420  12.423
55733W        W27349  28.193  40.253   3.697
55734W        W27350  30.441   4.399   1.210
55735W        W27351  30.373  44.965   1.768
55736W        W27352   1.850  41.829  10.698
55737W        W27353  42.453  27.626  12.457
55738W        W27354   0.686  32.555   3.786
55739W        W27355  44.617  12.643  12.485
55740W        W27356  19.052  13.494  13.806
55741W        W27357  26.614   1.855  14.462
55742W        W27358  31.509  11.700   3.129
55743W        W27359  21.058  34.623   0.443
55744W        W27360   9.789  24.267   2.316
55745W        W27361  38.946  14.309   2.768
55746W        W27362  37.440  20.332  13.382
55747W        W27363  21.585  37.541   3.760
55748W        W27364   5.043  17.156   3.141
55749W        W27365  31.509   7.058   3.702
55750W        W27366  16.768  26.650   1.664
55751W        W27367  13.645  37.302   2.912
55752W        W27368  13.886  30.316   0.302
55753W        W27369  41.891  11.246   2.305
55754W        W27370  19.517  10.394   4.306
55755W        W27371  10.747  24.533  13.153
55756W        W27372  16.692  20.875  13.467
55757W        W27373  23.596  34.546   0.331
55758W        W27374  32.987  25.124   2.391
55759W        W27375  32.934  16.177   4.251
55760W        W27376   8.944  30.140   2.284
55761W        W27377  11.531  39.291  12.493
55762W        W27378  27.387   4.217   1.768
55763W        W27379  31.697  15.306  12.044
55764W        W27380  29.637  27.741  13.605
55765W        W27381  29.357  31.432   1.998
55766W        W27382  22.242  30.957   0.022
55767W        W27383  33.162  44.820   1.680
55768W        W27384  22.722  22.694   4.666
55769W        W27385  15.659  23.213  10.930
55770W        W27386  12.793  38.558   5.036
55771W        W27387  42.772  22.269   4.513
55772W        W27388   8.363  39.894  13.112
55773W        W27389  11.083   0.412   1.194
55774W        W27390  10.660  24.576   1.660
55775W        W27391  16.665  14.673  13.057
55776W        W27392  34.563  28.056   1.811
55777W        W27393   1.956  17.575   1.518
55778W        W27394  10.428   9.082   4.113
55779W        W27395  11.415  43.074   3.202
55780W        W27396  10.852  24.963  14.887
55781W        W27397  36.531  29.140   1.428
55782W        W27398  10.739  12.355  13.413
55783W        W27399  35.274  14.946   0.328
55784W        W27400  24.119   8.434  10.888
55785W        W27401  19.173  16.853  10.721
55786W        W27402   0.994   2.493   3.680
55787W        W27403   7.730  32.097   4.526
55788W        W27404   8.037  13.564  14.373
55789W        W27405  21.199  19.726   2.217
55790W        W27406  42.319  18.438  14.932
55791W        W27407   4.273  19.142   4.407
55792W        W27408  11.825  13.324   2.409
55793W        W27409  41.051   7.120   2.296
55794W        W27410  36.332  13.642   0.873
55795W        W27411   7.372  22.703   2.218
55796W        W27412  36.919  31.790  12.889
55797W        W27413  30.942  32.990   0.414
55798W        W27414   9.921  27.220   2.627
55799W        W27415   7.211   8.984   1.727
55800W        W27416  18.827   4.369  11.578
55801W        W27417   5.936   7.342   4.412
55802W        W27418   8.514  33.535   1.175
55803W        W27419  28.231  42.537   1.321
55804W        W27420  23.221  42.299  14.300
55805W        W27421   0.319  31.570  11.753
55806W        W27422   1.543   5.189  12.626
55807W        W27423  36.296  34.218  14.266
55808W        W27424  11.647  30.172  13.798
55809W        W27425   1.542   8.026   2.060
55810W        W27426   3.953  22.194   2.718
55811W        W27427  21.970  26.954   4.409
55812W        W27428  16.123   4.404  13.879
55813W        W27429   4.191   3.322  14.048
55814W        W27430  39.878  16.373   2.667
55815W        W27431  33.615  10.759  11.584
55816W        W27432  11.265  31.982  12.999
55817W        W27433  14.097  40.852  10.786
55818W        W27434  20.257  29.848   0.015
55819W        W27435   6.171  44.995  13.377
55820W        W27436  13.172  37.938  12.846
55821W        W27437  21.620  15.108   0.048
55822W        W27438   3.219  36.553   0.788
55823W        W27439  25.071  15.178  11.802
55824W        W27440  31.434  34.469  11.956
55825W        W27441  11.172  34.103   4.810
55826W        W27442  36.564  32.923   4.773
55827W        W27443   8.962   9.126  11.097
55828W        W27444  41.478  19.028  11.066
55829W        W27445  42.390   5.487  11.137
55830W        W27446  19.472  10.809  10.529
55831W        W27447  22.436  14.138   1.995
55832W        W27448  44.929  13.825   1.057
55833W        W27449  11.459  18.759  11.985
55834W        W27450  18.318  41.633  14.113
55835W        W27451  23.005   0.430  12.050
55836W        W27452  22.086  43.435   0.406
55837W        W27453  44.170   1.739   1.657
55838W        W27454  29.984  43.211   1.590
55839W        W27455   2.412  43.916   2.910
55840W        W27456  41.840  20.235  12.073
55841W        W27457  40.412  24.242  13.777
55842W        W27458  34.943  28.575  12.113
55843W        W27459  44.602  37.946  12.476
55844W        W27460   6.640  20.023  12.618
55845W        W27461  20.614   6.281  14.785
55846W        W27462  28.454  15.491   2.735
55847W        W27463  16.176  37.368   3.889
55848W        W27464  14.228  30.194   0.665
55849W        W27465  36.992  25.253   4.344
55850W        W27466  31.561  19.608  10.341
55851W        W27467  39.072  38.454   3.238
55852W        W27468  30.021  26.481  14.399
55853W        W27469  16.646   4.839  10.396
55854W        W27470  11.387  40.894   1.957
55855W        W27471  41.946  28.478  10.757
55856W        W27472   3.786  35.952   0.300
55857W        W27473  11.098  35.259  13.446
55858W        W27474  43.099  38.371  14.944
55859W        W27475  38.490  22.058  13.604
55860W        W27476  28.399  36.533  14.216
55861W        W27477  41.793   0.205  11.116
55862W        W27478  35.623  32.244   1.218
55863W        W27479  32.812  22.909  11.700
55864W        W27480  32.781  24.635   0.303
55865W        W27481  32.443  38.340  10.924
55866W        W27482  28.414   1.932  14.774
55867W        W27483  23.085  16.900   3.207
55868W        W27484   8.255   6.168   3.121
55869W        W27485  18.867  13.252   3.188
55870W        W27486   9.256  39.079   4.945
55871W        W27487  31.380  42.010  11.967
55872W        W27488   4.029  25.740  14.897
55873W        W27489  21.531   2.856  10.868
55874W        W27490  30.184  38.993  13.222
55875W        W27491  10.272  23.091  13.013
55876W        W27492  23.627   3.767   4.720
55877W        W27493  23.051  16.773   2.268
55878W        W27494   4.196  19.734   2.363
55879W        W27495   6.410  44.687  14.323
55880W        W27496  31.704  22.159  14.348
55881W        W27497   5.610  33.308  11.219
55882W        W27498  32.559  37.822  14.488
55883W        W27499  41.565  29.715  12.377
55884W        W27500  11.105   3.715  14.733
55885W        W27501  12.749  30.636  13.470
55886W        W27502  39.979   5.200  12.292
55887W        W27503  29.559  13.072   2.044
55888W        W27504   3.220  39.280   1.434
55889W        W27505   0.159  15.674   4.160
55890W        W27506  10.411  16.739   1.727
55891W        W27507  16.498  18.602  12.573
55892W        W27508   6.934  16.537   4.120
55893W        W27509   1.195  18.152   0.416
55894W        W27510  37.868  32.970  14.951
55895W        W27511  39.175  21.059  11.576
55896W        W27512  16.959  25.252  13.882
55897W        W27513  14.681  38.875  11.191
55898W        W27514  35.445   1.150   2.742
55899W        W27515  26.563  32.138   3.261
55900W        W27516   6.117  44.291  12.159
55901W        W27517  28.864  44.548  14.923
55902W        W27518  17.799  18.647  11.536
55903W        W27519  33.802   4.897   1.984
55904W        W27520  15.069   3.965   4.641
55905W        W27521   0.185  16.115  14.161
55906W        W27522   9.228  38.806  14.000
55907W        W27523  29.515  43.022   1.794
55908W        W27524  16.582  40.426   2.259
55909W        W27525  13.913   8.329   0.735
55910W        W27526  13.095  16.824  13.225
55911W        W27527  11.448  27.155  14.823
55912W        W27528  25.402  14.307  12.376
55913W        W27529  23.333  10.128  14.794
55914W        W27530  22.805   6.299   3.740
55915W        W27531  30.807  25.541   2.758
55916W        W27532  12.789  30.590  12.942
55917W        W27533  33.885  24.510  12.773
55918W        W27534  43.838   2.759  11.770
55919W        W27535  21.632  25.182  12.887
55920W        W27536  23.590  16.924   0.078
55921W        W27537  31.362   4.289   3.226
55922W        W27538  19.147  31.906   2.534
55923W        W27539  31.157  21.254   2.131
55924W        W27540  24.026   6.206   1.736
55925W        W27541  37.832  10.369  11.525
55926W        W27542  39.911  28.209   1.462
55927W        W27543  14.183   8.012   4.585
55928W        W27544  23.050  23.988  11.220
55929W        W27545  32.492  27.133  14.394
55930W        W27546  12.656  33.929  14.504
55931W        W27547  10.173  38.167   4.148
55932W        W27548   6.494  28.461  13.894
55933W        W27549  10.084  35.150   0.975
55934W        W27550  14.682  24.541   1.584
55935W        W27551   8.757  43.540   1.873
55936W        W27552  16.838  14.708   1.160
55937W        W27553  13.017  37.984  13.349
55938W        W27554  40.887   2.258   4.690
55939W        W27555  26.991  41.805  13.837
55940W        W27556  14.121   6.346  11.043
55941W        W27557  42.647  14.714   3.657
55942W        W27558   3.373   4.281   2.882
55943W        W27559  15.084  33.470  10.707
55944W        W27560  10.878   6.388   3.407
55945W        W27561   8.698  41.567   2.688
55946W        W27562  18.544  22.416   1.368
55947W        W27563  29.476  40.074   0.700
55948W        W27564  40.730   4.477  10.475
55949W        W27565  37.061  33.096   4.763
55950W        W27566  30.606  34.020  12.197
55951W        W27567   7.778  25.606   2.225
55952W        W27568  13.139  37.128   1.185
55953W        W27569  33.115  27.476   4.289
55954W        W27570  10.213  14.682  14.769
55955W        W27571   7.678  35.081   2.460
55956W        W27572  43.763  42.378   4.446
55957W        W27573  28.917   3.275   2.074
55958W        W27574  30.698  11.835   1.344
55959W        W27575   9.739  31.062  14.859
55960W        W27576  44.435  44.603   4.428
55961W        W27577  19.107  41.551  11.832
55962W        W27578  36.888   8.092  13.773
55963W        W27579  33.855  43.946   0.007
55964W        W27580  28.313  30.543   4.819
55965W        W27581  26.971  34.952  11.921
55966W        W27582   2.894  14.651  13.461
55967W        W27583   7.819  14.707  12.295
55968W        W27584  30.849   0.277  13.992
55969W        W27585   5.271  19.621  14.069
55970W        W27586  10.186  43.845  12.436
55971W        W27587  12.296   0.871  10.344
55972W        W27588  13.135   7.804   0.746
55973W        W27589  31.921  26.685   4.199
55974W        W27590  31.094  18.951   3.736
55975W        W27591  42.119  43.038   2.336
55976W        W27592   0.441  12.597   2.943
55977W        W27593  41.321  22.674   1.693
55978W        W27594  37.223  10.728  14.987
55979W        W27595  39.175   4.236   1.225
55980W        W27596  16.171  22.657  14.376
55981W        W27597   1.379  40.320   0.222
55982W        W27598  23.216  24.539   4.500
55983W        W27599  20.641  32.517   3.214
55984W        W27600  21.638   7.115   4.196
55985W        W27601  11.170   7.515   1.273
55986W        W27602  35.256  21.497  13.385
55987W        W27603  14.705  39.028  13.862
55988W        W27604  39.570  26.160   0.454
55989W        W27605   6.638   1.951   1.430
55990W        W27606  19.239  20.952   2.767
55991W        W27607  23.967  42.093  12.541
55992W        W27608  21.213  12.327  13.504
55993W        W27609  24.551  21.483   4.930
55994W        W27610  33.517  40.335  13.989
55995W        W27611  33.672  26.907  12.163
55996W        W27612  13.042  29.023   0.461
55997W        W27613   8.673  36.128  14.401
55998W        W27614  34.468   3.157  14.529
55999W        W27615  24.322   1.947  14.623
56000W        W27616  15.116  40.721  10.784
56001W        W27617  39.808  34.287  11.885
56002W        W27618   9.236  24.287  13.373
56003W        W27619  16.587  41.088  13.001
56004W        W27620   0.249  35.864  14.671
56005W        W27621  43.757  16.622   3.746
56006W        W27622   8.854  18.156  12.087
56007W        W27623  23.768  31.035   2.267
56008W        W27624   0.902  39.956   1.867
56009W        W27625   2.700  36.436  14.523
56010W        W27626  37.851   5.526   4.094
56011W        W27627  31.804  42.953   0.104
56012W        W27628  41.421  18.899   1.817
56013W        W27629  26.698  10.922  14.825
56014W        W27630  29.474  17.186  14.636
56015W        W27631  30.357  26.081  14.018
56016W        W27632  35.461  21.974  13.399
56017W        W27633  43.476  41.765   4.305
56018W        W27634   4.991  31.674  11.451
56019W        W27635  43.882  22.006   0.051
56020W        W27636   2.913  24.661   9.771
56021W        W27637  11.719  36.402  14.073
56022W        W27638  20.313  38.707  10.694
56023W        W27639  37.449  32.523   0.292
56024W        W27640  16.400  41.732  12.659
56025W        W27641   1.737  26.727  11.652
56026W        W27642  25.557   2.142  13.882
56027W        W27643  14.091  41.403   1.514
56028W        W27644   0.560  13.049   2.575
56029W        W27645  35.875  14.400   2.783
56030W        W27646  36.195  16.107  14.980
56031W        W27647  34.407   6.428   3.756
56032W        W27648  17.847  25.877  12.643
56033W        W27649  34.487  33.004   2.530
56034W        W27650   2.833  22.152   9.837
56035W        W27651   2.225  12.545   0.833
56036W        W27652  44.488  42.274  12.015
56037W        W27653  35.097  33.122   4.889
56038W        W27654  35.114   4.470  14.558
56039W        W27655  36.111   1.443  13.842
56040W        W27656   7.583  40.784  12.099
56041W        W27657  42.028   0.369  11.540
56042W        W27658  37.347  43.539   1.458
56043W        W27659  19.514  13.425   4.270
56044W        W27660  18.303  22.587   1.819
56045W        W27661   6.347  26.327   4.604
56046W        W27662  13.714  40.426  14.826
56047W        W27663  16.035  37.953   4.539
56048W        W27664  25.119  40.075  12.201
56049W        W27665  10.798  25.183   0.369
56050W        W27666   8.306   4.562   2.351
56051W        W27667  13.250  31.803   1.859
56052W        W27668  17.138  21.812   4.727
56053W        W27669  11.988  24.126  11.550
56054W        W27670  19.194  28.574   4.083
56055W        W27671   8.841   2.743  13.037
56056W        W27672   1.707  12.858  12.455
56057W        W27673  12.174  21.113   3.589
56058W        W27674   7.640   8.132   0.389
56059W        W27675  29.518  12.455  11.644
56060W        W27676  36.514  41.894   0.240
56061W        W27677  18.319  14.252  12.840
56062W        W27678  32.204  14.882  14.651
56063W        W27679  13.104  38.029   3.299
56064W        W27680  30.622  32.077   5.236
56065W        W27681  25.179  15.824   2.849
56066W        W27682   7.689  12.856  10.661
56067W        W27683  40.264  29.718   0.739
56068W        W27684  24.632  27.191  11.373
56069W        W27685  31.665   5.187   3.231
56070W        W27686  17.852  13.416  13.601
56071W        W27687  10.236  44.980  11.362
56072W        W27688  44.834  38.780   0.235
56073W        W27689  29.082  19.246  11.713
56074W        W27690  26.062  42.540   3.667
56075W        W27691   5.610   8.739  13.020
56076W        W27692  42.422   4.858   4.064
56077W        W27693  18.044   8.403   3.321
56078W        W27694  16.184  15.025  14.909
56079W        W27695  40.029  18.564  13.976
56080W        W27696  30.568   2.123   0.821
56081W        W27697  32.008  15.503  13.714
56082W        W27698   3.192  20.652  13.213
56083W        W27699   1.954  13.229   4.161
56084W        W27700  14.886   3.985  14.092
56085W        W27701  44.418   5.823  11.566
56086W        W27702   6.254   2.186  12.412
56087W        W27703   4.812  11.319   1.273
56088W        W27704   1.970  16.042  12.531
56089W        W27705   5.924   6.643  13.893
56090W        W27706  43.047  40.471  14.883
56091W        W27707  23.102   2.340  11.413
56092W        W27708  28.753  39.032  14.446
56093W        W27709  16.189  25.093   0.574
56094W        W27710  25.179  26.708  11.866
56095W        W27711  30.856   5.030  10.664
56096W        W27712   2.843  13.644   0.779
56097W        W27713   5.861  33.360   0.014
56098W        W27714  21.783  14.027   0.761
56099W        W27715   0.543  41.418   3.358
56100W        W27716  36.870   8.338  14.244
56101W        W27717  42.838  26.599  14.772
56102W        W27718  16.345  15.579   0.947
56103W        W27719   6.758  44.794   3.184
56104W        W27720  44.134   0.405  11.163
56105W        W27721  17.984   4.727  13.076
56106W        W27722  44.746  34.650  13.301
56107W        W27723  28.985  31.544   1.099
56108W        W27724  40.336  28.222  11.161
56109W        W27725  30.867  29.148  12.402
56110W        W27726   1.126  26.265   1.237
56111W        W27727  29.085  27.632  12.828
56112W        W27728  41.488  31.225   0.452
56113W        W27729  11.554  28.323  10.216
56114W        W27730  19.023  21.194  10.409
56115W        W27731  29.535  27.659  12.516
56116W        W27732   7.828   6.178   4.812
56117W        W27733  24.014   6.669  13.846
56118W        W27734  14.783  39.854   2.472
56119W        W27735  34.977  36.936   4.169
56120W        W27736  40.683  19.712   4.944
56121W        W27737  43.538  20.606   3.817
56122W        W27738  13.408  16.775  12.824
56123W        W27739   5.738   1.203   1.281
56124W        W27740   3.784  12.784  11.620
56125W        W27741  26.166  14.245   4.576
56126W        W27742   0.843  18.325   5.011
56127W        W27743   2.232  14.242  14.095
56128W        W27744  32.958  33.983  11.555
56129W        W27745  10.131  20.145   2.782
56130W        W27746  16.098  17.960  14.462
56131W        W27747   8.792   7.240   1.916
56132W        W27748  34.371  24.865  13.530
56133W        W27749  44.823   8.469   1.911
56134W        W27750  34.089  33.647   1.910
56135W        W27751  17.024   1.209   3.675
56136W        W27752  40.586  25.939   0.405
56137W        W27753  32.346  44.951   0.596
56138W        W27754   5.790   9.060  13.365
56139W        W27755   7.826  18.130  12.132
56140W        W27756  12.033   1.920  14.487
56141W        W27757  44.342  42.887  12.816
56142W        W27758  17.998  10.215   3.638
56143W        W27759   8.511  40.936   2.216
56144W        W27760   3.728  25.970  11.068
56145W        W27761  39.196  35.945  11.231
56146W        W27762  25.633  35.823  10.370
56147W        W27763  41.166  22.135   4.844
56148W        W27764  14.880  44.948   4.027
56149W        W27765  34.922  11.467  13.097
56150W        W27766   9.804  13.243   1.889
56151W        W27767  15.869   6.671   0.369
56152W        W27768  37.043  27.768  14.364
56153W        W27769  37.493  32.827   4.693
56154W        W27770  23.291  34.012   1.164
56155W        W27771   1.741   3.914   1.304
56156W        W27772  31.050  11.307   0.023
56157W        W27773  17.345  28.161   4.543
56158W        W27774  24.579  29.324  13.692
56159W        W27775   7.053  24.567  14.336
56160W        W27776  28.983  20.953   4.670
56161W        W27777   7.797   1.509  11.979
56162W        W27778  28.923   8.809   3.499
56163W        W27779  21.450   8.816   2.277
56164W        W27780  25.106  23.435  13.041
56165W        W27781   2.690  30.535   4.522
56166W        W27782  37.628  36.441   4.567
56167W        W27783  40.016  21.726  12.076
56168W        W27784  10.191  16.258  10.710
56169W        W27785   1.795  40.516   4.291
56170W        W27786  30.552  25.943   4.375
56171W        W27787  41.450  36.630  11.533
56172W        W27788  24.797   2.421   3.759
56173W        W27789   4.214  37.000   0.300
56174W        W27790  16.801  42.888  10.226
56175W        W27791  21.995   6.133  14.971
56176W        W27792  21.553  17.626  10.842
56177W        W27793  40.782   3.838   2.377
56178W        W27794  18.182  44.952  10.651
56179W        W27795  30.864   9.210   1.864
56180W        W27796  23.967  10.176   4.704
56181W        W27797  41.053  27.700  12.445
56182W        W27798  25.860  40.871  14.424
56183W        W27799  36.506   7.309   3.287
56184W        W27800   2.279  13.838   4.611
56185W        W27801  27.211  30.527   3.402
56186W        W27802   9.528   1.944  11.382
56187W        W27803  29.515  43.046   5.099
56188W        W27804  34.341  17.692  13.123
56189W        W27805   2.708  17.446   4.149
56190W        W27806   1.350  35.059  11.699
56191W        W27807  23.673  38.933   2.252
56192W        W27808  18.056   7.724  14.950
56193W        W27809  16.838  44.729  12.517
56194W        W27810   3.487  32.056   4.753
56195W        W27811   4.776  13.646   2.860
56196W        W27812   8.938  16.657  12.830
56197W        W27813  35.522  20.711   5.002
56198W        W27814  44.842  17.533  11.051
56199W        W27815  37.151   1.303  13.837
56200W        W27816  10.332  31.210   0.201
56201W        W27817   8.801  24.544   3.196
56202W        W27818  12.793  21.549  14.381
56203W        W27819  14.776  35.508   1.896
56204W        W27820  17.370   7.682   3.123
56205W        W27821  30.884  37.019   0.947
56206W        W27822  29.709  29.547  10.693
56207W        W27823  17.484  33.703   0.989
56208W        W27824  37.492  10.057  13.518
56209W        W27825  33.632  17.884   1.927
56210W        W27826  12.347  38.040  10.513
56211W        W27827  30.514  38.600   3.015
56212W        W27828   4.288  44.479   2.834
56213W        W27829  29.887  17.168  11.412
56214W        W27830  19.680  15.964   0.772
56215W        W27831  36.810  28.622  13.068
56216W        W27832  13.853  10.185   3.639
56217W        W27833   7.747  17.755   3.737
56218W        W27834  43.477  41.436  13.472
56219W        W27835  30.459  16.225  14.808
56220W        W27836  38.598  39.131   3.791
56221W        W27837  20.483  42.863  10.655
56222W        W27838   2.939  22.541   2.779
56223W        W27839  40.521  42.094  12.860
56224W        W27840  17.810  27.986   4.334
56225W        W27841   7.154  28.097  12.316
56226W        W27842  31.562  22.805   0.414
56227W        W27843  16.862  17.091   0.510
56228W        W27844  33.310  24.056  12.045
56229W        W27845  40.285  37.901  14.034
56230W        W27846   5.306  19.219  14.438
56231W        W27847   4.264  37.515   1.777
56232W        W27848  20.584   7.895  11.221
56233W        W27849  40.571  41.049  13.529
56234W        W27850   1.784  10.628  12.179
56235W        W27851   6.412   6.853   4.107
56236W        W27852  42.860  19.115  10.809
56237W        W27853  28.466   3.409  14.735
56238W        W27854   2.799  18.772  12.830
56239W        W27855   8.866  38.503   1.201
56240W        W27856  30.069  29.395  14.951
56241W        W27857  19.097  17.375  12.733
56242W        W27858  26.357   8.688  13.263
56243W        W27859  15.110  11.378  11.103
56244W        W27860  36.756  40.276   3.314
56245W        W27861  43.278  29.512  14.020
56246W        W27862  40.412  23.822   3.741
56247W        W27863  11.238  30.325  12.586
56248W        W27864   4.909  21.075  12.178
56249W        W27865   4.655  41.794   1.257
56250W        W27866  44.989  16.607  14.054
56251W        W27867  32.210  39.013  10.721
56252W        W27868  15.583   6.818  13.785
56253W        W27869  17.110  18.335   2.380
56254W        W27870  15.588  27.881  14.971
56255W        W27871   0.059  35.246  11.197
56256W        W27872  30.899  34.384   1.306
56257W        W27873  44.452  36.858   0.479
56258W        W27874  43.273  12.763   4.363
56259W        W27875  25.034  19.784   2.352
56260W        W27876  10.318  23.607   0.285
56261W        W27877  44.374   0.496  10.490
56262W        W27878  26.756  21.516  14.867
56263W        W27879   3.028  27.016  12.879
56264W        W27880  37.662  34.503   2.413
56265W        W27881  11.733  22.203   3.586
56266W        W27882  21.504  18.859   1.141
56267W        W27883  38.906  42.801   3.634
56268W        W27884  43.233  39.634  12.933
56269W        W27885   8.833  23.642  12.891
56270W        W27886  11.119  26.268  14.837
56271W        W27887  10.905   2.861   2.354
56272W        W27888   7.670  24.614   2.216
56273W        W27889   9.164  36.598  11.032
56274W        W27890  27.934   3.753  11.494
56275W        W27891  11.118  43.535  12.195
56276W        W27892  37.582  36.633   5.205
56277W        W27893  12.221  18.681  11.344
56278W        W27894  37.847  12.364  14.698
56279W        W27895   6.834  27.276   4.548
56280W        W27896   2.275   3.338  10.308
56281W        W27897  35.855  34.215   0.075
56282W        W27898  36.871  26.663  12.930
56283W        W27899  10.670  20.947  13.947
56284W        W27900   0.680  12.505  11.627
56285W        W27901   5.965  10.843   2.190
56286W        W27902  24.042  18.764   3.626
56287W        W27903  22.098  30.660   1.366
56288W        W27904  10.719  31.637  13.810
56289W        W27905  18.673  44.061   9.861
56290W        W27906  22.764   8.266   0.011
56291W        W27907  42.924  37.881   3.552
56292W        W27908   4.742  23.887   2.975
56293W        W27909  39.898  20.902   4.828
56294W        W27910   0.258  10.405  11.446
56295W        W27911  37.544   5.389   1.304
56296W        W27912   1.228  42.850  12.808
56297W        W27913  43.000  31.703   1.802
56298W        W27914  30.458   8.729  13.095
56299W        W27915  34.034  11.327  14.361
56300W        W27916   6.233  21.633   0.975
56301W        W27917  13.340  20.404   3.466
56302W        W27918  19.514  26.989  13.948
56303W        W27919  21.609  11.704  12.445
56304W        W27920   4.124  25.488   3.482
56305W        W27921   6.428  36.417  11.703
56306W        W27922   1.761   0.313  11.714
56307W        W27923  31.775   1.483  12.878
56308W        W27924  20.163  29.709  12.111
56309W        W27925   6.171   6.378   0.476
56310W        W27926  44.425  28.920   2.156
56311W        W27927  10.807  13.112  13.921
56312W        W27928   2.219  22.131  12.515
56313W        W27929  33.197   2.985   1.210
56314W        W27930  44.879   3.220  13.953
56315W        W27931  21.249  24.667   3.268
56316W        W27932   4.516  15.000  12.059
56317W        W27933  23.022  43.940  12.685
56318W        W27934   2.185  22.652  12.416
56319W        W27935   4.772  35.739   0.678
56320W        W27936  36.868  10.607  10.082
56321W        W27937  32.489  17.928   3.724
56322W        W27938  23.183  17.742   4.692
56323W        W27939  13.667  15.555  10.750
56324W        W27940  21.952  25.598   4.919
56325W        W27941   6.842  19.020  14.584
56326W        W27942   7.700  26.721   0.432
56327W        W27943  27.375  32.948  14.031
56328W        W27944   9.783  44.002  11.260
56329W        W27945   5.988  18.195   1.843
56330W        W27946  12.321  27.928  12.100
56331W        W27947  36.992  30.023  13.346
56332W        W27948  29.901  41.424   2.724
56333W        W27949  27.220  28.623   4.165
56334W        W27950  42.170   9.729   4.297
56335W        W27951  13.190  37.336  13.654
56336W        W27952   1.695  34.096   4.580
56337W        W27953   2.830   2.307  12.183
56338W        W27954  38.935  37.097   1.151
56339W        W27955   8.756   7.053   0.529
56340W        W27956  24.598  33.042  11.483
56341W        W27957  18.779  28.398   1.275
56342W        W27958  42.983  33.863   1.027
56343W        W27959  33.933   6.888  10.541
56344W        W27960  26.639  40.450   2.336
56345W        W27961  18.947   8.536  12.592
56346W        W27962   8.113  28.222  11.471
56347W        W27963  39.984  36.252  11.580
56348W        W27964  41.224   9.163  13.329
56349W        W27965  15.750  40.346   3.842
56350W        W27966  33.493   3.265   2.158
56351W        W27967  27.574  26.169   3.111
56352W        W27968  11.587  19.771  12.609
56353W        W27969  44.758  41.999   1.842
56354W        W27970   4.646  39.121   1.332
56355W        W27971  17.864  35.640  11.174
56356W        W27972  26.078  15.664  11.920
56357W        W27973  15.838  38.469  11.470
56358W        W27974  32.564   5.440  12.102
56359W        W27975  37.972   3.967  10.555
56360W        W27976  35.186  38.882  14.536
56361W        W27977  23.288  25.674   2.344
56362W        W27978  12.226   7.632  14.344
56363W        W27979  27.510  37.354   4.569
56364W        W27980  14.631  15.639   3.608
56365W        W27981  38.650  35.195   4.999
56366W        W27982  26.212  30.062  13.883
56367W        W27983  32.362  41.893  13.492
56368W        W27984  21.268   0.817   4.352
56369W        W27985  15.630  11.392  11.093
56370W        W27986  28.156  40.426   5.023
56371W        W27987  27.443  36.879   3.318
56372W        W27988  34.171  22.694  12.099
56373W        W27989  43.598  29.157  10.455
56374W        W27990  28.047  16.155  10.957
56375W        W27991  18.108  17.280  10.676
56376W        W27992  32.675  19.694   5.066
56377W        W27993   4.037   4.751  11.195
56378W        W27994   6.203  37.961  14.404
56379W        W27995  21.980   6.382  11.997
56380W        W27996   1.438  14.061   0.340
56381W        W27997  35.137  25.012  10.692
56382W        W27998  33.907  12.240  11.577
56383W        W27999  28.131  40.399  10.233
56384W        W28000  14.317  41.268  10.574
56385W        W28001  25.118  17.288   3.768
56386W        W28002  37.009   0.068   2.436
56387W        W28003  15.494   6.836  12.039
56388W        W28004  35.914   4.708   1.539
56389W        W28005  35.443  30.732   3.756
56390W        W28006  39.451  14.752  12.000
56391W        W28007   3.491  12.363  11.712
56392W        W28008  27.299  26.569  12.048
56393W        W28009   0.297  42.687   3.080
56394W        W28010   2.854   0.369   4.348
56395W        W28011  21.679  25.942   1.965
56396W        W28012  29.882   2.561   3.854
56397W        W28013  33.436   1.736   9.779
56398W        W28014  36.105  13.301  12.355
56399W        W28015  41.297  14.823   3.894
56400W        W28016   0.407  38.355  14.960
56401W        W28017  40.973  13.804  10.755
56402W        W28018  35.594  10.768   3.415
56403W        W28019  15.184  33.334   3.756
56404W        W28020   5.183  37.333   2.248
56405W        W28021  14.710  28.776  11.102
56406W        W28022  29.449  22.148  10.905
56407W        W28023  26.261  39.959   1.001
56408W        W28024  21.689  42.846  14.249
56409W        W28025  36.123  36.231   1.819
56410W        W28026   8.287   2.295  10.473
56411W        W28027  23.274  31.601  12.583
56412W        W28028  16.263  32.212  12.886
56413W        W28029  39.484  16.341  12.133
56414W        W28030  10.207  15.420  12.496
56415W        W28031   2.138  41.391   0.702
56416W        W28032  42.236  13.802  12.025
56417W        W28033  30.641   1.340  10.270
56418W        W28034  12.736  28.506   0.906
56419W        W28035  13.766  35.959   0.454
56420W        W28036  28.546   6.288   0.836
56421W        W28037  13.361  32.875   0.378
56422W        W28038  18.148  41.518  12.102
56423W        W28039  11.407  38.378   3.709
56424W        W28040  19.554  35.523  13.448
56425W        W28041  10.208  42.494   2.158
56426W        W28042  19.578   7.293   3.680
56427W        W28043   0.023  13.640  14.223
56428W        W28044  21.054  19.022   0.812
56429W        W28045  44.952  13.214  14.550
56430W        W28046   1.436  34.400  11.620
56431W        W28047  26.932  12.768   5.018
56432W        W28048   9.359  19.639   0.878
56433W        W28049  29.299   9.736   4.180
56434W        W28050  19.103   5.247   0.463
56435W        W28051  14.764  27.245   4.572
56436W        W28052  30.462  39.247   2.281
56437W        W28053  19.902   3.419   1.034
56438W        W28054  23.066   6.811  12.653
56439W        W28055  35.407  14.039  13.209
56440W        W28056   8.326  18.650  14.728
56441W        W28057  36.513  13.709   0.272
56442W        W28058   6.918  22.203   0.852
56443W        W28059   3.427  37.520  14.097
56444W        W28060  36.098  13.102   0.788
56445W        W28061  21.737  39.988  14.288
56446W        W28062  15.733   6.319   3.672
56447W        W28063  11.508  31.846   2.187
56448W        W28064  36.892  40.835  11.329
56449W        W28065   3.283  31.944   0.466
56450W        W28066  20.253   6.421   4.667
56451W        W28067   2.741  44.745  11.976
56452W        W28068   1.696  33.473   3.374
56453W        W28069  44.030  32.520  12.478
56454W        W28070   9.783  39.056   2.807
56455W        W28071  26.923  35.120   3.199
56456W        W28072  36.960  40.979   2.261
56457W        W28073  25.217  30.051   0.713
56458W        W28074  22.250   9.838   3.907
56459W        W28075  16.824  29.236   2.401
56460W        W28076   0.760   6.776   0.042
56461W        W28077   6.231  40.316   2.243
56462W        W28078  34.651   7.727  13.586
56463W        W28079   4.236  32.011   1.308
56464W        W28080  24.040  39.566   0.690
56465W        W28081   8.379  26.494  10.843
56466W        W28082  39.338  26.618   0.348
56467W        W28083   1.052  43.427   0.196
56468W        W28084  15.770  36.142  10.770
56469W        W28085  39.442  38.907  12.588
56470W        W28086  34.071  34.116   0.718
56471W        W28087  33.010  12.580  12.383
56472W        W28088  17.726   3.699  13.433
56473W        W28089   4.458  21.735  12.467
56474W        W28090  17.651  37.985  10.411
56475W        W28091  44.524   3.376   3.078
56476W        W28092  15.417  27.252   2.881
56477W        W28093  18.517   1.764   3.616
56478W        W28094  43.562  35.863   5.048
56479W        W28095  28.068  28.973   2.925
56480W        W28096  11.377   1.095   2.306
56481W        W28097  25.168   0.401  13.983
56482W        W28098  44.019   2.560   0.255
56483W        W28099  17.019  41.527  10.882
56484W        W28100  33.541   1.907   1.507
56485W        W28101  38.004  19.184  13.732
56486W        W28102  30.594  13.313   2.885
56487W        W28103  39.932  35.507   4.680
56488W        W28104  22.147  13.206   0.720
56489W        W28105  18.586  10.626   0.789
56490W        W28106   5.764   9.188   0.672
56491W        W28107   7.226  33.237   1.729
56492W        W28108  27.772  13.715  11.343
56493W        W28109  31.912  38.390   3.165
56494W        W28110  42.612  35.919  13.367
56495W        W28111   0.883  11.830  13.466
56496W        W28112  16.466   9.395   1.380
56497W        W28113  18.772  20.160   2.582
56498W        W28114  32.056   8.977  10.710
56499W        W28115  14.617  20.450   2.649
56500W        W28116  14.623  17.118   0.024
56501W        W28117  28.687  17.672   4.166
56502W        W28118   6.114  18.190   4.113
56503W        W28119  33.670  44.491  13.373
56504W        W28120  21.486   7.842  11.118
56505W        W28121   6.264   7.435  10.232
56506W        W28122  37.303  38.880  13.432
56507W        W28123  31.659  25.654  14.076
56508W        W28124  39.461  33.137  14.024
56509W        W28125  38.324  39.603  14.001
56510W        W28126   2.929   0.827   5.149
56511W        W28127  10.945  36.012  12.379
56512W        W28128  28.168  23.107   0.387
56513W        W28129   8.712   9.678   1.305
56514W        W28130  42.097  24.742  11.124
56515W        W28131  39.748   9.908  13.403
56516W        W28132  25.049   1.175   1.868
56517W        W28133  25.002  20.683   4.816
56518W        W28134   8.799  16.197   1.217
56519W        W28135  19.958  38.374  10.555
56520W        W28136  30.671  29.997  14.272
56521W        W28137  43.081   7.198   1.270
56522W        W28138   0.321   0.176  14.362
56523W        W28139   5.802  31.445  11.200
56524W        W28140  26.187  22.618  11.547
56525W        W28141  41.942  17.797  14.460
56526W        W28142  15.165  22.653  12.522
56527W        W28143   4.352  40.731  13.901
56528W        W28144  20.171  12.687   2.987
56529W        W28145  34.261   4.157   4.092
56530W        W28146  27.011  40.395  11.992
56531W        W28147  37.898  17.217  14.636
56532W        W28148  28.825   6.873   1.413
56533W        W28149  44.752  11.206  14.950
56534W        W28150  29.640  34.997   2.372
56535W        W28151  27.363  12.281   0.058
56536W        W28152  13.128  12.284  14.837
56537W        W28153  42.900  15.223  11.075
56538W        W28154  22.024   6.646   1.852
56539W        W28155  33.357   2.267   9.806
56540W        W28156  29.086  25.642  12.829
56541W        W28157  22.508  35.491   3.463
56542W        W28158  24.224  30.415   3.687
56543W        W28159  37.134   2.727  11.530
56544W        W28160  36.406   7.713   1.968
56545W        W28161  23.094  35.353   4.088
56546W        W28162  42.293  20.808  12.883
56547W        W28163  43.644  12.552  12.348
56548W        W28164  23.660  15.194   0.828
56549W        W28165  13.635  14.044   0.878
56550W        W28166  41.411  28.991   1.267
56551W        W28167  38.451  31.716  14.981
56552W        W28168   4.591  22.210   1.098
56553W        W28169  25.606   3.939  11.509
56554W        W28170  18.126   1.997  11.666
56555W        W28171   7.498   9.236   0.402
56556W        W28172  39.518  13.236   5.200
56557W        W28173  39.449  18.533  13.480
56558W        W28174  10.857  22.938   3.469
56559W        W28175  12.799   4.225  10.271
56560W        W28176  28.936  15.289  11.898
56561W        W28177  32.172  39.594   2.750
56562W        W28178   4.319   8.659  12.527
56563W        W28179  18.276  29.375  13.354
56564W        W28180  14.767  26.597   1.538
56565W        W28181  27.109  30.917   3.071
56566W        W28182  31.034   4.346  12.522
56567W        W28183  38.767   7.125  13.859
56568W        W28184  38.135   8.829  14.702
56569W        W28185   7.789  40.852   0.538
56570W        W28186  34.244  10.413   3.264
56571W        W28187  15.846  10.126  11.978
56572W        W28188  44.210   6.458  14.731
56573W        W28189   4.424   7.441  14.340
56574W        W28190  21.803   7.908   2.672
56575W        W28191  38.661   8.821  14.609
56576W        W28192  26.504  28.018   3.694
56577W        W28193  15.220   9.398   0.263
56578W        W28194  23.968  16.141   1.457
56579W        W28195  34.689  16.929  14.271
56580W        W28196   8.317  27.574  14.068
56581W        W28197  30.406  44.394  12.555
56582W        W28198  28.563  17.591   0.715
56583W        W28199   1.749  35.820  12.934
56584W        W28200  34.939  16.084  14.558
56585W        W28201   2.080  33.928  11.527
56586W        W28202   3.514   9.951  14.513
56587W        W28203  23.438  21.592  14.790
56588W        W28204  30.605  35.837  13.950
56589W        W28205  36.433  42.304   0.538
56590W        W28206  28.038  10.863  13.343
56591W        W28207   7.927  29.960  12.195
56592W        W28208  40.111  33.363   2.175
56593W        W28209   3.956   2.521  14.799
56594W        W28210  15.641  32.990   4.271
56595W        W28211  41.817  37.530  12.394
56596W        W28212  10.463  35.033   0.041
56597W        W28213  13.443  23.001   2.879
56598W        W28214  29.122  25.712   2.200
56599W        W28215  25.484  35.302  14.411
56600W        W28216   7.094   0.876   0.299
56601W        W28217  42.467  41.247  13.526
56602W        W28218  17.454  14.960  11.434
56603W        W28219  23.169  33.088  14.967
56604W        W28220  26.149  13.832  12.081
56605W        W28221  17.708  14.684  13.265
56606W        W28222   0.962  13.967   4.602
56607W        W28223  43.336   8.402  10.750
56608W        W28224  43.987   8.370  12.388
56609W        W28225  22.959  23.126   0.848
56610W        W28226  29.087   4.237  11.800
56611W        W28227  44.831  25.452   2.762
56612W        W28228  25.035  20.015  12.505
56613W        W28229  37.895  16.986   2.411
56614W        W28230  11.723  43.299  14.536
56615W        W28231  43.690  24.966   1.316
56616W        W28232  38.966  16.226   1.924
56617W        W28233  17.752  40.847  10.361
56618W        W28234  37.788  26.013   1.702
56619W        W28235  42.346  20.037   0.296
56620W        W28236  32.016   7.693   3.129
56621W        W28237  21.167  33.060   3.768
56622W        W28238  40.582  39.721  10.827
56623W        W28239  28.719  10.180  12.084
56624W        W28240   3.276  44.515   3.766
56625W        W28241  35.151  17.384  13.416
56626W        W28242  28.569  21.785   2.256
56627W        W28243  44.504  23.748  14.999
56628W        W28244   5.815   1.809  11.205
56629W        W28245  37.939  39.405  11.044
56630W        W28246  25.039  30.986   1.671
56631W        W28247  27.970  18.008  13.974
56632W        W28248  31.094  12.054   0.277
56633W        W28249   4.837  27.888  11.095
56634W        W28250  18.265  13.850  12.173
56635W        W28251  43.542  28.581  12.837
56636W        W28252  10.906  18.562  13.863
56637W        W28253  34.307  15.091  13.443
56638W        W28254  29.451  36.297   2.887
56639W        W28255  44.873   8.336   0.455
56640W        W28256  30.012   2.908  13.567
56641W        W28257  36.196   0.521  12.149
56642W        W28258  43.707   7.263  12.524
56643W        W28259  34.374  14.152  13.490
56644W        W28260   3.249   5.120  14.936
56645W        W28261   5.104   9.879  11.422
56646W        W28262  30.946  44.872   3.516
56647W        W28263  29.481  28.217  11.515
56648W        W28264  21.447  30.851   5.110
56649W        W28265   3.788  43.634   0.385
56650W        W28266   9.101  22.510  11.553
56651W        W28267  27.187  35.392   0.892
56652W        W28268  15.395   0.650   0.316
56653W        W28269  17.521  29.641  14.418
56654W        W28270  16.176  11.085   4.720
56655W        W28271  40.871  13.722   0.933
56656W        W28272  18.257   0.919  13.595
56657W        W28273  40.973   0.312  13.222
56658W        W28274   1.307  27.016  13.572
56659W        W28275   5.746  11.072  14.076
56660W        W28276   6.484   9.758  14.531
56661W        W28277  22.972  18.590   4.650
56662W        W28278  12.918   3.734   5.025
56663W        W28279   7.002  32.679   2.349
56664W        W28280  31.131  21.575  12.863
56665W        W28281  44.371  26.225  12.369
56666W        W28282  28.948  27.272  13.317
56667W        W28283  19.732  24.110  11.726
56668W        W28284   8.626  42.211  14.900
56669W        W28285  33.568  15.312  11.166
56670W        W28286  21.999   0.241  11.007
56671W        W28287  31.704   2.058   2.805
56672W        W28288   6.139  35.606  11.539
56673W        W28289  44.531  35.023  12.064
56674W        W28290  17.810  42.346  14.769
56675W        W28291  38.513  17.199  12.431
56676W        W28292   9.225  17.461   4.929
56677W        W28293  19.318  25.977   1.892
56678W        W28294  25.739  35.482   4.622
56679W        W28295  11.085  18.734   0.329
56680W        W28296  14.861  16.209  11.502
56681W        W28297  37.335   0.022  10.860
56682W        W28298   9.331  19.748   5.074
56683W        W28299  21.622  16.847   0.355
56684W        W28300  41.524   7.693  12.134
56685W        W28301   4.293  44.214   1.369
56686W        W28302  19.484  38.491  10.726
56687W        W28303  21.866   1.720  11.408
56688W        W28304  23.541  37.884  14.411
56689W        W28305  43.320  27.687  10.653
56690W        W28306  21.990  15.529   3.271
56691W        W28307  38.362  12.168   1.798
56692W        W28308  40.258   6.813   0.341
56693W        W28309   0.796  16.997   4.210
56694W        W28310   0.727  33.202   4.606
56695W        W28311  24.108   5.930   0.777
56696W        W28312  19.092  13.663   1.417
56697W        W28313  44.688  35.653   4.479
56698W        W28314  26.029  12.391  12.095
56699W        W28315   8.327  11.732   2.244
56700W        W28316  21.658  32.601  14.499
56701W        W28317  15.767  26.117   3.848
56702W        W28318  40.326  27.559   2.375
56703W        W28319  31.581   9.920   4.700
56704W        W28320  27.033  35.773   0.128
56705W        W28321   8.858  26.400  14.536
56706W        W28322  42.134  34.051  11.624
56707W        W28323  28.914   1.695   0.245
56708W        W28324  21.135  32.176   3.217
56709W        W28325  31.435  24.265  11.936
56710W        W28326  38.603  40.027   3.641
56711W        W28327   8.835  39.708  13.881
56712W        W28328  37.537  38.653   0.707
56713W        W28329  22.313  30.612   3.339
56714W        W28330   5.936  43.741   4.055
56715W        W28331   5.309  17.683   4.307
56716W        W28332  23.013   8.942  13.349
56717W        W28333   1.601  32.673   0.994
56718W        W28334  27.036  40.620  14.798
56719W        W28335  17.769  40.846   1.799
56720W        W28336  35.591  10.206  13.428
56721W        W28337  25.818  44.326  10.704
56722W        W28338   0.673  23.218   5.468
56723W        W28339  35.417  26.224   0.824
56724W        W28340  34.467  31.373   2.262
56725W        W28341   2.203  32.484  13.417
56726W        W28342  41.272  29.618  13.409
56727W        W28343   6.630  30.163   4.666
56728W        W28344  14.617   8.424   3.400
56729W        W28345  31.092  30.838   5.448
56730W        W28346  22.163  20.998  11.573
56731W        W28347  36.570  32.393   4.911
56732W        W28348  12.234  43.224  13.876
56733W        W28349  18.213  36.462   4.710
56734W        W28350   8.856  26.298  10.771
56735W        W28351  20.716  41.628   0.010
56736W        W28352  19.663  19.213  12.885
56737W        W28353  12.241  32.021   1.863
56738W        W28354  21.195  32.270   4.269
56739W        W28355   2.942  13.098  11.307
56740W        W28356  16.784  21.289   2.830
56741W        W28357   6.691  28.994  13.262
56742W        W28358  23.130  13.389   1.338
56743W        W28359  18.530   4.112   4.913
56744W        W28360   3.006  44.856  13.947
56745W        W28361  16.808  26.911   3.322
56746W        W28362  21.207  42.197   4.133
56747W        W28363  30.116  19.945  13.834
56748W        W28364  26.034  33.157  12.879
56749W        W28365   4.417  40.954   1.198
56750W        W28366  36.915  28.559   2.180
56751W        W28367   0.382  42.647  11.484
56752W        W28368  37.994  18.436   5.019
56753W        W28369  31.397  34.406   0.279
56754W        W28370   2.768   1.516   0.031
56755W        W28371  33.660  18.589   4.281
56756W        W28372  23.175  20.681  12.474
56757W        W28373   0.876  22.944   3.696
56758W        W28374  16.102  10.326   0.777
56759W        W28375  12.143  44.621   1.365
56760W        W28376  38.791   5.872   4.554
56761W        W28377   0.266  34.041   2.205
56762W        W28378  13.777  29.504   1.896
56763W        W28379  32.149  13.594   1.645
56764W        W28380   3.883  30.449   4.589
56765W        W28381   0.562  21.554   2.119
56766W        W28382  41.418  23.718   1.778
56767W        W28383  43.714  14.859  14.471
56768W        W28384  26.091  32.481  12.402
56769W        W28385  22.769  18.823   4.230
56770W        W28386  36.265   4.773  11.292
56771W        W28387   8.909  44.965  11.596
56772W        W28388  37.522  32.543   1.220
56773W        W28389  22.843  29.776   4.246
56774W        W28390  28.447  31.648   2.857
56775W        W28391  28.903  21.642  14.368
56776W        W28392  20.682  25.752   3.594
56777W        W28393  35.068   3.420   1.660
56778W        W28394   0.009  34.985   2.789
56779W        W28395  43.702  10.414   2.705
56780W        W28396   5.577   9.394   4.597
56781W        W28397   3.484  20.986   3.918
56782W        W28398  22.729  26.147   1.900
56783W        W28399  31.646  10.017  13.605
56784W        W28400  20.532   8.642   4.204
56785W        W28401  15.596  23.838  10.256
56786W        W28402   4.375  38.067   4.529
56787W        W28403  16.098  39.870  12.782
56788W        W28404  41.778  22.039  14.410
56789W        W28405   8.657  41.040  13.394
56790W        W28406   5.616  24.134  11.793
56791W        W28407  26.634  22.573  14.812
56792W        W28408  23.227  44.822  12.233
56793W        W28409  19.283  12.682   1.435
56794W        W28410  33.805  33.481  11.387
56795W        W28411  32.520  29.220   9.816
56796W        W28412   7.680   3.227  14.758
56797W        W28413   4.979  24.515  10.720
56798W        W28414  18.518  30.256  14.949
56799W        W28415  38.808   6.786  14.262
56800W        W28416   1.811  34.480   3.228
56801W        W28417  11.691  40.848  13.832
56802W        W28418  17.143  42.018  10.718
56803W        W28419  30.537  31.181  12.089
56804W        W28420   8.709  29.640   2.280
56805W        W28421  32.055  43.563  14.655
56806W        W28422  42.977  23.312   0.622
56807W        W28423   5.325  30.358  11.507
56808W        W28424   3.302  28.871   4.790
56809W        W28425   1.427  12.361   4.283
56810W        W28426  28.949  10.002  14.305
56811W        W28427  36.086  30.564   3.019
56812W        W28428  12.189  33.593   3.781
56813W        W28429  42.842   5.794  11.150
56814W        W28430  35.943  29.276   4.124
56815W        W28431  12.147  44.180  14.905
56816W        W28432  41.457  28.386  11.915
56817W        W28433  16.692  33.181  10.641
56818W        W28434  37.339   5.820  11.099
56819W        W28435   7.507  24.988  13.206
56820W        W28436   4.982  36.547   0.277
56821W        W28437  38.784   9.395   0.368
56822W        W28438  15.817  21.354  12.555
56823W        W28439   7.706  11.438   4.199
56824W        W28440  20.116  27.592  12.910
56825W        W28441  27.463  16.326   2.643
56826W        W28442   1.525  17.107   3.102
56827W        W28443  13.377  38.903   0.859
56828W        W28444  22.522   1.650   0.312
56829W        W28445  13.324  34.362  13.375
56830W        W28446  10.896   7.562  11.068
56831W        W28447  40.288  32.835  12.816
56832W        W28448  16.261  40.566   0.455
56833W        W28449  27.421   1.453  11.087
56834W        W28450   7.601  13.544   0.480
56835W        W28451  36.866  13.663   3.045
56836W        W28452  40.789   8.755   4.898
56837W        W28453  32.682  25.023   1.840
56838W        W28454  28.568  14.138  14.914
56839W        W28455  26.036   7.412  11.587
56840W        W28456  22.235  42.050  12.777
56841W        W28457  21.804  32.851  13.738
56842W        W28458  24.870  35.103  12.836
56843W        W28459  43.474  31.678  12.343
56844W        W28460   3.480  28.872  14.754
56845W        W28461  38.759  19.082   2.435
56846W        W28462  14.518   9.354   2.505
56847W        W28463  31.236  11.570  11.648
56848W        W28464  15.067  43.966  13.686
56849W        W28465  41.899  44.274   4.157
56850W        W28466  10.122  29.491   1.901
56851W        W28467  34.328  29.164  10.703
56852W        W28468  43.265  42.785   0.742
56853W        W28469  18.885  44.400  11.583
56854W        W28470  44.071  36.896  10.367
56855W        W28471  40.871  38.996   2.841
56856W        W28472  38.537  12.835  14.491
56857W        W28473  28.727  41.496  11.490
56858W        W28474  30.199  30.549   3.875
56859W        W28475  24.479  27.470   2.141
56860W        W28476  16.297  29.638   3.267
56861W        W28477  16.186  16.197   9.933
56862W        W28478  18.278   4.340  12.364
56863W        W28479  12.677  21.106   4.407
56864W        W28480  19.991  33.161  10.732
56865W        W28481   6.754  42.305  12.692
56866W        W28482   4.666   0.836  10.595
56867W        W28483  31.584  27.873   0.888
56868W        W28484  40.599  32.446  12.955
56869W        W28485  26.617  16.609  13.580
56870W        W28486  28.542  18.133   0.460
56871W        W28487  27.136  31.025  11.646
56872W        W28488   8.703  10.590  14.446
56873W        W28489  40.362  39.496   3.722
56874W        W28490   5.727   3.750   1.855
56875W        W28491  30.006  31.352  12.173
56876W        W28492  15.143  27.514  12.442
56877W        W28493  38.551  10.245  14.919
56878W        W28494   7.068  40.336   1.164
56879W        W28495  26.522   2.747  11.248
56880W        W28496  39.553  10.162  10.558
56881W        W28497  29.060  24.703   3.397
56882W        W28498  21.895  34.916   3.926
56883W        W28499   4.209  32.540  12.626
56884W        W28500  15.814  16.396   4.264
56885W        W28501  38.369  25.703  11.629
56886W        W28502  40.111   8.868  10.620
56887W        W28503  43.700  18.611  13.714
56888W        W28504  30.608  14.372   0.442
56889W        W28505  38.064  40.104  12.612
56890W        W28506  31.021  26.534  10.210
56891W        W28507  15.324  12.831  12.875
56892W        W28508  18.377  15.439   0.268
56893W        W28509   6.639  24.691  13.084
56894W        W28510  38.517  34.368  10.561
56895W        W28511   7.912  15.212   3.615
56896W        W28512  12.695  14.101   1.520
56897W        W28513  35.118   8.735  10.957
56898W        W28514  14.846  44.673   3.104
56899W        W28515  30.679  44.360   3.537
56900W        W28516  20.070  23.820  14.011
56901W        W28517  22.586  20.191  11.163
56902W        W28518   0.020  16.819   0.753
56903W        W28519   5.922  33.857  14.799
56904W        W28520  24.905   0.996   2.838
56905W        W28521  13.535  23.689   3.733
56906W        W28522  43.294  20.326  12.062
56907W        W28523  39.792   8.907   1.851
56908W        W28524  17.982  26.155  10.587
56909W        W28525   6.795  10.754  12.494
56910W        W28526   5.503   0.046   5.530
56911W        W28527   7.414  40.017   3.148
56912W        W28528  29.462   7.620  11.095
56913W        W28529  22.497  43.826  12.732
56914W        W28530  42.212  32.991   3.624
56915W        W28531  12.301  24.232  11.955
56916W        W28532  44.331  39.566  13.342
56917W        W28533  32.048  11.314  11.577
56918W        W28534  41.412  32.572   4.074
56919W        W28535  31.632  37.102   4.158
56920W        W28536   1.571  44.873   1.657
56921W        W28537  22.048   3.412  13.845
56922W        W28538  19.057  20.970   4.222
56923W        W28539  19.737  35.488   3.683
56924W        W28540  37.939  13.554  12.874
56925W        W28541  35.844   1.334   3.016
56926W        W28542   4.403  33.585   1.830
56927W        W28543  18.172  26.049   1.022
56928W        W28544   5.428  36.892  11.424
56929W        W28545  11.753   7.887   2.187
56930W        W28546  23.905  14.733  14.339
56931W        W28547  20.493  27.395   2.287
56932W        W28548   1.257  33.881   2.375
56933W        W28549  27.558  31.960  14.006
56934W        W28550  11.924  25.045  12.086
56935W        W28551  32.144   2.005   2.228
56936W        W28552  26.481   6.787  12.113
56937W        W28553  30.396  30.034  11.036
56938W        W28554   7.646  30.781  12.485
56939W        W28555  27.710  44.529  13.392
56940W        W28556  10.078  23.672   9.798
56941W        W28557   1.416  25.022  11.997
56942W        W28558   4.466  34.853   4.586
56943W        W28559  35.127  23.420  11.451
56944W        W28560  19.178  15.834   0.723
56945W        W28561  14.625   5.246  11.489
56946W        W28562  35.880  20.139  13.092
56947W        W28563  19.550   5.473   3.679
56948W        W28564  44.201  16.011  10.393
56949W        W28565   9.400  31.570  13.357
56950W        W28566   7.236  39.511   1.398
56951W        W28567  27.447  11.214  14.780
56952W        W28568   9.737  41.853   1.682
56953W        W28569   3.770  38.810  13.396
56954W        W28570  42.018  23.573  12.069
56955W        W28571  10.611  29.881   1.310
56956W        W28572  35.414   1.291   1.819
56957W        W28573   1.734  28.540   0.537
56958W        W28574   8.801  19.041  10.678
56959W        W28575  32.982  35.340  14.934
56960W        W28576  17.120   7.395   2.768
56961W        W28577  18.677   3.632   0.156
56962W        W28578  24.177  25.474  11.586
56963W        W28579   2.361  20.294  12.518
56964W        W28580  17.810  33.897   2.906
56965W        W28581  25.208   3.829  11.189
56966W        W28582  24.751  29.427   3.437
56967W        W28583  43.701  27.425   3.903
56968W        W28584  17.960  11.187  11.663
56969W        W28585   5.597   0.354   0.857
56970W        W28586  42.135   3.777  14.197
56971W        W28587  30.581   1.907   2.667
56972W        W28588  19.708   0.546   2.744
56973W        W28589  19.053   1.930   2.370
56974W        W28590  26.001  36.429   4.576
56975W        W28591  22.757  15.232  11.758
56976W        W28592  38.929  41.870   2.066
56977W        W28593  25.343  18.715   4.134
56978W        W28594  34.591   9.899  14.840
56979W        W28595  37.933  35.832  14.176
56980W        W28596  20.607  23.218   1.589
56981W        W28597  18.174  11.407  12.103
56982W        W28598  23.675  17.201  10.806
56983W        W28599  35.150  25.515   4.742
56984W        W28600   6.819   7.281  14.252
56985W        W28601  30.653   2.203   3.805
56986W        W28602  30.715  41.881   4.323
56987W        W28603   8.910  29.220  12.563
56988W        W28604  13.107   1.361   4.174
56989W        W28605  14.495   8.085   4.166
56990W        W28606  41.363   6.078  14.293
56991W        W28607  29.834  29.988   5.013
56992W        W28608  43.352  39.450  11.617
56993W        W28609  30.789   8.760   0.309
56994W        W28610   8.789  14.770   0.682
56995W        W28611   0.191  35.065   3.342
56996W        W28612  27.480  37.402   3.155
56997W        W28613   7.720   3.326  12.893
56998W        W28614  43.859   4.179   1.228
56999W        W28615  14.214  30.980  14.651
57000W        W28616   0.179  38.780  13.944
57001W        W28617  16.307  10.311   4.267
57002W        W28618  20.691  36.050   0.608
57003W        W28619   4.883  30.638   2.971
57004W        W28620  32.584  17.813  14.932
57005W        W28621   1.115   0.266   0.008
57006W        W28622  29.824  20.705   4.823
57007W        W28623  16.598  36.824  12.368
57008W        W28624   1.740  39.044   0.066
57009W        W28625  21.163  14.951  11.527
57010W        W28626  36.279  29.683   4.106
57011W        W28627  43.323  26.453  13.776
57012W        W28628  35.172  42.947   2.764
57013W        W28629  37.386  26.515  13.121
57014W        W28630  42.367  33.947  11.175
57015W        W28631   6.397  11.628  14.353
57016W        W28632   8.893  40.025  14.312
57017W        W28633   4.526  43.964   0.926
57018W        W28634  35.335  15.601  11.597
57019W        W28635  43.309  44.489  12.372
57020W        W28636  44.955  38.573  10.142
57021W        W28637  12.484  22.095   3.272
57022W        W28638  44.731  24.487   2.285
57023W        W28639   9.825   2.765  14.464
57024W        W28640  34.112   2.770   0.873
57025W        W28641   8.352   0.911   4.839
57026W        W28642   3.929  22.122   5.557
57027W        W28643  44.382   1.674  12.562
57028W        W28644  26.350  20.305   4.794
57029W        W28645  34.586  38.873   4.545
57030W        W28646   7.024  35.801   3.708
57031W        W28647   9.376   1.164  11.614
57032W        W28648  43.256   1.719   0.760
57033W        W28649  24.196   3.656  12.889
57034W        W28650  44.260   2.235  14.941
57035W        W28651   1.726  25.095   3.111
57036W        W28652  44.818  32.946  13.973
57037W        W28653  18.235  15.150   4.537
57038W        W28654  44.400  29.982  11.484
57039W        W28655  28.860   4.797  12.971
57040W        W28656   9.290   1.481  14.941
57041W        W28657  25.804  28.850  12.681
57042W        W28658   0.684  38.507  12.046
57043W        W28659   9.206  10.849   3.838
57044W        W28660  42.035  35.850   0.871
57045W        W28661  42.966   2.521  13.077
57046W        W28662  26.225  43.889  14.958
57047W        W28663  21.277  26.261   1.256
57048W        W28664  26.149  10.047   2.144
57049W        W28665  28.642  43.094  13.141
57050W        W28666   6.175   6.270  12.633
57051W        W28667  21.073  34.879  14.989
57052W        W28668  42.938   5.854  12.446
57053W        W28669  38.925  19.084  12.409
57054W        W28670  29.000   1.942   2.264
57055W        W28671   3.441  33.985  12.545
57056W        W28672  21.604  42.694   4.778
57057W        W28673  10.319  39.924   2.867
57058W        W28674  17.465  42.333   4.627
57059W        W28675  27.749   6.264  13.953
57060W        W28676   7.710  19.232  11.539
57061W        W28677  19.746  19.065  12.403
57062W        W28678  18.090  18.599  10.575
57063W        W28679  29.344  37.773  13.148
57064W        W28680  30.152  18.638  10.659
57065W        W28681   9.176  38.781  10.654
57066W        W28682  25.021  17.239  12.459
57067W        W28683  29.928  31.214   1.922
57068W        W28684  16.291  28.377   2.357
57069W        W28685  25.312   5.600  10.695
57070W        W28686  29.858  36.840   1.840
57071W        W28687  38.512   3.789   3.832
57072W        W28688  38.759  24.370  13.024
57073W        W28689  34.938  23.992   1.012
57074W        W28690  40.986   6.939  10.713
57075W        W28691  19.599  24.063  14.198
57076W        W28692  23.185   0.271  12.509
57077W        W28693  20.744  31.855  12.336
57078W        W28694  43.278  37.524  14.849
57079W        W28695  38.084  22.438   4.110
57080W        W28696  26.007   6.342  14.995
57081W        W28697  31.576  27.663   5.510
57082W        W28698   7.820   8.895  14.314
57083W        W28699  12.415  25.228  13.415
57084W        W28700  13.657  18.400  14.377
57085W        W28701  44.537   4.164   2.008
57086W        W28702  33.229  43.536   2.419
57087W        W28703   6.649   2.557  10.716
57088W        W28704  14.826   0.932   2.118
57089W        W28705  19.266  13.800  12.056
57090W        W28706  38.009  10.222   0.437
57091W        W28707  42.580  25.573   1.804
57092W        W28708  16.170  11.760  12.145
57093W        W28709  41.612  34.128  11.701
57094W        W28710  37.280  26.127   1.771
57095W        W28711   8.371  36.447   3.856
57096W        W28712   8.654  30.514  11.538
57097W        W28713  30.615   3.380  13.090
57098W        W28714  44.198  37.937   4.562
57099W        W28715   4.749  33.182  12.565
57100W        W28716   5.131  26.135   1.029
57101W        W28717  31.281  40.735   1.783
57102W        W28718   6.766  38.458   1.856
57103W        W28719  26.475  10.795   0.312
57104W        W28720   6.243  13.067  11.522
57105W        W28721  35.839   4.522  12.526
57106W        W28722  12.368  22.099   1.972
57107W        W28723  22.789   1.476  13.748
57108W        W28724  22.608  25.194   2.086
57109W        W28725   2.000  11.295   4.789
57110W        W28726  42.787  20.787   2.735
57111W        W28727   9.217   8.089  12.952
57112W        W28728   9.389  12.544  11.748
57113W        W28729  31.942  19.535   0.738
57114W        W28730  25.582  16.764  11.697
57115W        W28731  27.076  19.593  14.757
57116W        W28732  16.650   8.820  13.609
57117W        W28733   3.794  34.512  14.438
57118W        W28734  40.596   2.955  14.983
57119W        W28735  26.073  11.855  12.154
57120W        W28736   8.938  23.704  10.977
57121W        W28737  32.680   2.800   1.200
57122W        W28738   5.171   5.659  14.570
57123W        W28739  33.485   7.796   0.000
57124W        W28740  33.636  26.941  13.498
57125W        W28741  39.780  18.033   0.928
57126W        W28742  11.598   5.695  14.754
57127W        W28743   8.896  42.651   4.780
57128W        W28744  36.537  13.310  11.184
57129W        W28745  38.079  22.743   3.280
57130W        W28746  30.234  33.193  12.368
57131W        W28747   3.865  44.708   1.256
57132W        W28748  39.462  30.652  12.597
57133W        W28749  27.123  13.373  12.479
57134W        W28750   1.304  23.895  13.043
57135W        W28751   4.765  10.199  13.919
57136W        W28752  39.766  38.835   1.560
57137W        W28753  13.018  36.503  12.005
57138W        W28754  23.523  26.556   2.206
57139W        W28755   6.019  33.906  10.924
57140W        W28756  18.804   5.935  14.896
57141W        W28757  18.124  34.542   4.677
57142W        W28758  35.542  39.878   1.698
57143W        W28759  31.584  17.456   1.356
57144W        W28760  31.558  13.280   0.206
57145W        W28761  11.570  34.926  11.591
57146W        W28762  26.569   1.207  10.479
57147W        W28763  32.625  17.090   3.062
57148W        W28764  42.514  40.762  12.227
57149W        W28765   9.955   3.927   0.122
57150W        W28766  14.573  40.968  12.499
57151W        W28767  32.884  28.373   1.007
57152W        W28768  27.716  42.470  11.976
57153W        W28769  35.989  25.131   5.135
57154W        W28770  35.430  27.040   1.984
57155W        W28771  25.463  20.293   2.885
57156W        W28772  37.480  34.367   1.677
57157W        W28773  37.150  30.863  10.593
57158W        W28774  14.788  33.372   2.907
57159W        W28775  44.260  35.040   3.457
57160W        W28776   1.237   1.025   4.709
57161W        W28777  21.508  37.845   3.267
57162W        W28778  40.909   7.886  13.586
57163W        W28779  43.269  36.746   3.331
57164W        W28780  23.008  17.568  10.575
57165W        W28781  20.955  15.419  10.328
57166W        W28782   8.251   2.984   0.866
57167W        W28783  35.840  28.754   0.362
57168W        W28784  23.736  22.982   1.433
57169W        W28785  20.176   2.841   2.873
57170W        W28786  30.290  34.009   4.545
57171W        W28787  38.440  21.424   3.694
57172W        W28788  34.438  12.641  13.045
57173W        W28789  12.600  31.060  11.581
57174W        W28790  12.285  43.751  11.757
57175W        W28791  44.723   8.902   4.218
57176W        W28792  13.263  10.414  11.999
57177W        W28793  18.986  32.181   4.618
57178W        W28794   7.696  22.190  12.204
57179W        W28795  27.541  30.692   0.247
57180W        W28796   2.798  18.356  10.674
57181W        W28797   7.121  22.579  13.959
57182W        W28798  39.177  26.989  13.967
57183W        W28799   2.387  30.090   1.816
57184W        W28800  26.685  36.780  11.981
57185W        W28801  21.095  40.489  13.871
57186W        W28802  33.157  15.254   2.773
57187W        W28803  22.655   0.909   1.228
57188W        W28804  12.136   2.374   1.947
57189W        W28805  11.640  16.728   2.665
57190W        W28806  22.540  43.416   4.647
57191W        W28807   9.686  34.057  11.651
57192W        W28808  40.900  43.313  11.477
57193W        W28809  15.859  32.976  13.908
57194W        W28810  37.867  17.322  10.692
57195W        W28811   0.578  42.559   4.733
57196W        W28812   2.994  18.712   0.954
57197W        W28813   3.526   0.779   4.248
57198W        W28814  30.202  23.012  14.447
57199W        W28815   9.938  12.693   0.227
57200W        W28816  38.889  38.649   3.679
57201W        W28817  12.311  18.505  13.431
57202W        W28818   3.884  20.063  13.733
57203W        W28819  24.114  18.563  12.025
57204W        W28820  10.369  42.002   0.303
57205W        W28821  36.891  15.270  10.742
57206W        W28822  28.825  25.158   0.588
57207W        W28823  18.019  35.879   0.385
57208W        W28824  28.702  42.590   4.718
57209W        W28825  21.635  36.030   1.905
57210W        W28826   4.300  41.085  10.720
57211W        W28827  41.293   7.331   0.873
57212W        W28828   1.915   2.545   3.573
57213W        W28829   1.901  30.461  12.393
57214W        W28830   8.782  33.239   4.269
57215W        W28831  24.694  19.529   0.490
57216W        W28832  37.585  41.244  14.559
57217W        W28833  39.908  26.214   1.390
57218W        W28834  41.809  12.993   2.169
57219W        W28835  21.122  34.100   3.024
57220W        W28836   3.657  42.837   3.089
57221W        W28837  29.428   2.695  12.412
57222W        W28838  28.733  28.572  13.447
57223W        W28839  35.842  16.262   3.795
57224W        W28840   2.900  30.127   1.668
57225W        W28841  40.689  17.524  11.622
57226W        W28842  18.966  28.532  11.461
57227W        W28843  39.350   4.883   4.268
57228W        W28844   8.711  44.479  13.942
57229W        W28845  10.435   5.440  11.172
57230W        W28846   4.868  25.668  14.924
57231W        W28847  28.518  12.847   1.424
57232W        W28848  30.179   2.330   1.770
57233W        W28849  22.487  32.917   2.169
57234W        W28850  26.912  15.679   4.571
57235W        W28851  27.206  31.217  13.539
57236W        W28852  24.428  40.907  13.040
57237W        W28853  21.995  34.896  14.541
57238W        W28854  22.616   4.936   2.684
57239W        W28855  10.856  42.533  14.564
57240W        W28856  23.524  39.538  12.080
57241W        W28857  25.494  43.929  10.664
57242W        W28858  44.762   1.170   1.461
57243W        W28859  11.148   9.884   4.129
57244W        W28860  11.408   6.178  10.611
57245W        W28861  10.336  36.904   3.895
57246W        W28862   2.549  11.800   2.329
57247W        W28863  39.539  44.782  13.214
57248W        W28864  31.098  20.075  14.700
57249W        W28865   2.331  21.102   9.946
57250W        W28866  33.216  32.272   1.906
57251W        W28867   3.692  10.279  12.939
57252W        W28868  39.697  17.867   0.432
57253W        W28869   5.413  41.843   4.294
57254W        W28870  44.835   6.171   1.475
57255W        W28871  12.652  21.183   4.929
57256W        W28872   6.748   5.377  11.688
57257W        W28873  32.671  10.764   0.910
57258W        W28874  42.823   4.202  11.199
57259W        W28875   0.809   8.317  14.977
57260W        W28876  31.180  10.659  12.549
57261W        W28877  11.788  44.371  13.969
57262W        W28878  20.046  43.999  13.894
57263W        W28879   3.715   9.276   3.395
57264W        W28880  43.891  40.280   2.482
57265W        W28881  37.073   9.370  12.567
57266W        W28882  16.783  25.353   5.001
57267W        W28883   4.142  18.182   4.306
57268W        W28884  43.551  23.762  12.088
57269W        W28885  18.078  28.227  11.612
57270W        W28886   7.209  17.522  11.562
57271W        W28887  15.831  30.013  13.921
57272W        W28888  34.470  20.580  13.652
57273W        W28889  30.660  41.848   3.802
57274W        W28890  11.320   1.892  13.629
57275W        W28891  39.792  30.794  14.891
57276W        W28892  19.156   4.370   2.367
57277W        W28893   2.839  24.441  10.260
57278W        W28894   8.771  38.795   4.193
57279W        W28895  14.611  25.961   0.437
57280W        W28896  13.545   1.190   9.935
57281W        W28897  34.909  40.315   4.989
57282W        W28898  25.906   1.933  11.303
57283W        W28899  36.433  17.140  11.691
57284W        W28900  41.950   6.491   4.575
57285W        W28901  44.263  15.106   0.862
57286W        W28902  25.530  28.766   1.447
57287W        W28903  21.604  28.544   1.259
57288W        W28904  22.559  25.702   3.866
57289W        W28905  38.417  44.927  11.253
57290W        W28906  44.933  32.690   3.327
57291W        W28907  38.424  11.068   5.010
57292W        W28908  34.528  16.598  12.773
57293W        W28909   0.465  37.204  10.636
57294W        W28910   3.297  24.122  13.553
57295W        W28911   4.416  26.257  14.376
57296W        W28912  24.424  13.747   1.282
57297W        W28913  27.947  16.720   3.779
57298W        W28914  15.719  39.404   1.733
57299W        W28915  30.971  29.604   0.958
57300W        W28916  16.757  30.021   0.843
57301W        W28917  24.113  37.342  10.663
57302W        W28918  42.131  34.815   2.292
57303W        W28919  15.847  28.831  14.828
57304W        W28920  18.432  21.139   2.313
57305W        W28921  26.544  18.452  13.436
57306W        W28922  19.960  27.398   2.300
57307W        W28923  20.256  41.269   1.851
57308W        W28924  22.221  33.938  13.454
57309W        W28925  42.627   5.331   3.349
57310W        W28926  33.038   5.948   3.160
57311W        W28927  12.375  37.460  12.751
57312W        W28928  27.525  44.501  12.893
57313W        W28929  24.471   3.907  11.617
57314W        W28930   8.610  22.553  11.686
57315W        W28931  39.449  43.996   1.300
57316W        W28932  33.529  32.514   0.487
57317W        W28933  28.131  28.100  11.969
57318W        W28934  15.154  20.155   3.731
57319W        W28935  40.363  27.137  10.628
57320W        W28936  28.407   9.885   4.116
57321W        W28937  11.445   9.150  11.082
57322W        W28938  26.285  21.891   4.039
57323W        W28939   8.664   7.972   0.928
57324W        W28940  26.974   0.733   3.701
57325W        W28941  11.552  19.083   1.325
57326W        W28942  32.468  38.787  12.786
57327W        W28943  43.296  28.987  14.086
57328W        W28944  34.305  33.867  11.945
57329W        W28945  44.030  30.283   2.256
57330W        W28946  10.355   3.335   4.642
57331W        W28947   0.478  16.117   4.188
57332W        W28948   7.313  21.588  11.598
57333W        W28949  12.567  42.039  11.964
57334W        W28950   8.220  23.580   0.962
57335W        W28951  38.878  43.484   2.238
57336W        W28952   3.772  26.395   0.352
57337W        W28953  31.125  24.960  12.886
57338W        W28954  25.879   8.258  14.838
57339W        W28955   4.549   1.895   4.465
57340W        W28956  26.018  35.598   3.240
57341W        W28957   2.120  43.913  14.299
57342W        W28958  11.384  12.805   0.126
57343W        W28959   0.855  27.757  12.495
57344W        W28960  36.673  40.856  14.366
57345W        W28961  28.054   8.451  11.636
57346W        W28962  31.950  35.076   4.108
57347W        W28963   2.873  32.002   3.285
57348W        W28964  36.522  23.046   3.312
57349W        W28965   0.612   2.659   4.949
57350W        W28966  42.897  17.640  11.977
57351W        W28967  32.533  21.241  10.721
57352W        W28968   6.611  39.371  11.640
57353W        W28969  35.932  10.004   1.469
57354W        W28970  26.850  11.368   3.266
57355W        W28971  28.153  31.900   1.140
57356W        W28972  30.524  19.018  11.341
57357W        W28973  14.106  28.207  12.460
57358W        W28974  44.508   6.499  13.896
57359W        W28975  31.509  44.005   2.925
57360W        W28976  20.196  24.903   2.865
57361W        W28977  19.544  37.961  12.414
57362W        W28978   5.779  16.698   0.305
57363W        W28979  35.279   2.927   3.980
57364W        W28980  35.375  22.861  13.689
57365W        W28981  27.196  41.620   0.773
57366W        W28982  10.256  29.567  11.211
57367W        W28983  15.358  33.182   1.277
57368W        W28984   4.096  39.005   1.728
57369W        W28985   2.565  36.078   4.958
57370W        W28986  26.939   3.361   3.310
57371W        W28987   3.929  24.724  13.422
57372W        W28988  35.877  15.600   1.538
57373W        W28989  25.597  27.588   1.697
57374W        W28990  36.908  27.154  14.884
57375W        W28991  44.464   8.213   0.170
57376W        W28992  20.229  27.258  13.578
57377W        W28993   4.250  30.955   3.615
57378W        W28994  34.245  22.115   3.299
57379W        W28995  44.645   2.031   0.249
57380W        W28996  20.763  12.389  14.345
57381W        W28997  24.521   4.230  10.805
57382W        W28998  36.424  12.853  12.079
57383W        W28999   2.959   6.598  10.711
57384W        W29000   7.870  18.449   2.421
57385W        W29001  33.036  44.298  12.429
57386W        W29002  19.511  36.002   3.201
57387W        W29003   1.837  44.240  14.599
57388W        W29004  34.146  40.483   0.008
57389W        W29005  41.387  21.764   1.795
57390W        W29006   1.810  19.329  14.798
57391W        W29007  44.936  38.503   1.413
57392W        W29008   4.458  34.530   1.987
57393W        W29009  34.059  39.800  11.481
57394W        W29010  41.326  22.160   4.350
57395W        W29011  34.661  38.481   0.399
57396W        W29012  41.491  24.181  10.715
57397W        W29013  38.723   7.684   4.154
57398W        W29014  34.133   7.948  10.600
57399W        W29015   6.994  21.073   1.909
57400W        W29016  30.126  44.457   2.267
57401W        W29017   7.817  21.628  11.356
57402W        W29018  11.687  42.726  12.069
57403W        W29019  35.662  38.140   1.251
57404W        W29020  24.197  21.175   1.722
57405W        W29021  24.134  20.527  14.395
57406W        W29022   2.858  41.274  10.712
57407W        W29023  38.979  41.275   3.280
57408W        W29024  23.069  33.889   0.371
57409W        W29025  42.829  16.250   1.357
57410W        W29026  10.010  30.575   3.174
57411W        W29027   6.797  24.700  11.666
57412W        W29028  36.429  15.687   0.179
57413W        W29029  37.765  44.194   3.741
57414W        W29030  39.488  17.023  11.532
57415W        W29031  12.680  29.127  12.007
57416W        W29032  38.081  14.784  10.568
57417W        W29033   2.723  14.211  10.501
57418W        W29034  23.746   0.918   2.219
57419W        W29035  25.011  23.731   3.320
57420W        W29036  35.684  13.244  11.458
57421W        W29037   0.222  30.981  12.982
57422W        W29038  16.525  32.666  11.543
57423W        W29039  18.011  16.143  14.377
57424W        W29040  32.666  34.128   1.143
57425W        W29041  28.463  41.501   4.119
57426W        W29042  31.114   9.197  10.399
57427W        W29043  34.077  32.985  10.491
57428W        W29044   4.612  15.062   4.516
57429W        W29045  37.562  29.683   5.050
57430W        W29046  18.699  38.572  13.553
57431W        W29047  42.333  20.775  13.395
57432W        W29048  18.159  21.528  14.370
57433W        W29049  26.495   2.393   3.334
57434W        W29050  40.566  44.435  10.211
57435W        W29051  19.692  40.816   3.545
57436W        W29052  33.505  33.924   4.496
57437W        W29053  28.201  15.268  11.242
57438W        W29054   9.336  20.067  13.915
57439W        W29055   6.953  10.102  12.496
57440W        W29056   9.350  28.508  13.922
57441W        W29057  33.561   8.769   1.048
57442W        W29058  25.331  39.274   0.182
57443W        W29059   5.451  11.344  12.324
57444W        W29060  38.142  42.895   4.165
57445W        W29061  14.370  20.832   2.406
57446W        W29062  11.278   3.367  13.163
57447W        W29063  15.119  15.850   1.835
57448W        W29064  13.226  29.693  11.475
57449W        W29065   2.111  13.523  11.950
57450W        W29066  41.515  29.096   3.643
57451W        W29067  17.581  40.552  14.898
57452W        W29068   0.260   3.412  12.342
57453W        W29069  11.656  19.602   1.304
57454W        W29070  22.030  15.731   2.720
57455W        W29071  25.609  24.720  12.466
57456W        W29072   3.747  29.093   4.672
57457W        W29073   8.252  25.834   2.922
57458W        W29074  14.609   1.710  13.008
57459W        W29075  39.717  28.739   3.647
57460W        W29076  42.370  21.213  10.495
57461W        W29077  24.121  30.538  10.770
57462W        W29078   6.029   1.170   2.255
57463W        W29079  15.665  20.206  12.057
57464W        W29080  31.577   5.374  12.973
57465W        W29081  14.033  14.844   0.518
57466W        W29082  40.089  39.339  11.456
57467W        W29083  21.823  11.647  13.418
57468W        W29084  19.733  16.195   4.615
57469W        W29085  42.204   5.563   2.408
57470W        W29086  42.078  30.215  12.616
57471W        W29087  40.924  18.242   4.343
57472W        W29088   5.373  36.987  13.573
57473W        W29089  25.432  26.794  10.531
57474W        W29090  30.015   2.047   0.216
57475W        W29091  33.923  33.647   0.485
57476W        W29092  37.163   7.768  12.083
57477W        W29093  14.325   8.673  13.916
57478W        W29094  21.369   2.196  13.865
57479W        W29095  38.305   0.935   3.959
57480W        W29096  21.508   4.926   2.693
57481W        W29097  35.232  42.689   4.092
57482W        W29098   8.149  39.650   4.223
57483W        W29099  33.573   0.487   3.038
57484W        W29100  23.988  23.052   0.979
57485W        W29101  10.259   1.434  10.714
57486W        W29102  22.164  18.508  10.417
57487W        W29103   0.507   3.316   0.576
57488W        W29104  28.830  36.483   1.520
57489W        W29105  37.278  15.674   3.350
57490W        W29106  13.216  23.500  14.237
57491W        W29107  21.590  31.011  13.560
57492W        W29108  42.697  25.896   2.221
57493W        W29109  13.766  21.943  14.332
57494W        W29110   4.969  35.690  13.515
57495W        W29111  32.993  36.180  12.190
57496W        W29112  14.624  13.859  14.300
57497W        W29113   0.296   3.264  14.737
57498W        W29114  40.567  30.817   5.051
57499W        W29115  44.768  33.126   2.138
57500W        W29116  41.871   1.711  13.402
57501W        W29117   7.822  17.635   2.665
57502W        W29118  13.273  28.961   2.436
57503W        W29119   5.208  41.047  14.533
57504W        W29120  36.919  25.085  13.136
57505W        W29121  15.832  11.137  12.407
57506W        W29122  14.208   3.397  12.850
57507W        W29123  19.014  15.816   1.817
57508W        W29124   9.565  23.666   3.297
57509W        W29125   3.237  26.415  13.609
57510W        W29126  13.083   8.591   2.359
57511W        W29127  14.234   7.435  12.051
57512W        W29128  33.015   2.530   4.843
57513W        W29129  28.490  20.489  11.578
57514W        W29130  16.201   9.771  13.031
57515W        W29131  23.003  17.693   0.275
57516W        W29132  41.729  10.613   3.125
57517W        W29133  24.977  21.213   0.351
57518W        W29134  26.440  30.445   1.332
57519W        W29135   6.819  44.907   2.685
57520W        W29136  35.321   2.459  14.347
57521W        W29137  32.396  23.006  14.352
57522W        W29138   7.634  17.263   2.997
57523W        W29139  36.521  36.791  12.374
57524W        W29140  15.003  33.831   2.865
57525W        W29141  15.580  32.231  10.505
57526W        W29142  22.148  24.590   2.283
57527W        W29143  35.312  17.868   3.325
57528W        W29144  30.745  30.104   4.849
57529W        W29145   9.918  12.297  10.611
57530W        W29146  37.972  42.916   4.636
57531W        W29147  14.162   9.700   2.385
57532W        W29148  43.786   7.785   2.371
57533W        W29149  30.143   4.681  11.193
57534W        W29150  18.216  10.135   4.106
57535W        W29151  37.195  14.540   2.942
57536W        W29152   8.655  26.704   2.907
57537W        W29153  35.450  26.208   4.400
57538W        W29154  19.781  31.506  13.797
57539W        W29155  21.524  11.923  10.767
57540W        W29156  27.761  29.494  14.299
57541W        W29157  41.459  41.579  12.954
57542W        W29158  37.860  35.974  12.823
57543W        W29159   7.287  10.230  12.853
57544W        W29160  38.343  13.974   3.278
57545W        W29161  25.978  18.768   0.197
57546W        W29162  14.425  32.596  10.489
57547W        W29163  31.488  39.933   0.328
57548W        W29164   0.980  23.192   1.927
57549W        W29165   3.668  27.132   1.314
57550W        W29166  34.437  27.614  14.473
57551W        W29167  21.249   4.702   4.026
57552W        W29168   9.416  13.569  13.919
57553W        W29169  24.950   3.172   3.190
57554W        W29170  28.037  26.213   2.844
57555W        W29171   1.973  27.162   3.264
57556W        W29172  20.810  27.624   4.136
57557W        W29173  22.150  34.532  11.709
57558W        W29174  12.624  11.363  12.711
57559W        W29175   4.893  41.381   0.268
57560W        W29176   6.015  19.161   2.191
57561W        W29177  17.773  13.252  11.157
57562W        W29178   1.841  17.699   0.505
57563W        W29179   0.538  25.760  14.893
57564W        W29180  30.150  44.896  14.296
57565W        W29181  16.798  24.581  12.843
57566W        W29182  29.728   8.929   4.002
57567W        W29183  37.736  31.751   3.980
57568W        W29184  31.528   6.219  13.658
57569W        W29185  31.338   2.843  10.979
57570W        W29186  17.337  14.678   2.449
57571W        W29187   6.758   4.837   4.796
57572W        W29188  10.650   3.166   3.614
57573W        W29189  33.531  29.924  14.401
57574W        W29190   5.687   0.431   4.752
57575W        W29191  28.592   1.821   1.348
57576W        W29192  17.594   6.236   1.246
57577W        W29193  20.135  11.452  12.025
57578W        W29194   5.027  37.887  11.159
57579W        W29195  20.167  22.960   4.716
57580W        W29196  10.608   1.762   0.860
57581W        W29197  39.275  12.844  13.827
57582W        W29198   6.879   0.735  11.146
57583W        W29199   6.496  15.731   1.423
57584W        W29200  25.733  34.184   1.957
57585W        W29201  31.895  10.927  13.050
57586W        W29202  41.366  42.586  13.162
57587W        W29203  11.468  21.290  12.254
57588W        W29204   1.263   2.576  14.985
57589W        W29205  34.858  25.030   0.994
57590W        W29206  41.564   7.645  10.573
57591W        W29207  19.639  32.666   4.083
57592W        W29208   7.783  38.012  12.169
57593W        W29209  10.850   7.457   4.240
57594W        W29210   9.789  39.431  14.905
57595W        W29211   8.356  14.351  11.204
57596W        W29212   7.570  40.998   5.211
57597W        W29213  41.598  28.369   3.067
57598W        W29214  38.482  33.983   1.856
57599W        W29215  22.298  40.108  11.563
57600W        W29216  31.677  29.747  12.462
57601W        W29217  27.585  39.345   1.386
57602W        W29218  44.725  30.841  13.081
57603W        W29219  12.618  20.661  10.686
57604W        W29220  25.839   1.291  12.904
57605W        W29221   2.858  26.756  13.320
57606W        W29222  19.766  11.469  13.828
57607W        W29223  10.758  22.165  11.133
57608W        W29224   2.827  43.628  10.698
57609W        W29225  35.574  19.833  14.301
57610W        W29226   9.652  10.730   4.660
57611W        W29227  19.341  27.997   3.182
57612W        W29228  11.358  37.487   4.767
57613W        W29229   0.376  21.295  14.945
57614W        W29230  22.584  23.085   1.772
57615W        W29231  24.077  35.512   4.350
57616W        W29232  22.042  10.261   4.666
57617W        W29233  35.131  10.159   3.254
57618W        W29234  24.749  37.537   2.428
57619W        W29235  12.416  41.988  12.458
57620W        W29236  36.417  43.791   0.373
57621W        W29237  26.116  22.178  13.815
57622W        W29238   4.795  17.694  12.356
57623W        W29239  37.102  38.947   3.672
57624W        W29240   4.624   2.777   4.739
57625W        W29241  43.563   1.685  10.315
57626W        W29242   4.933  27.562  13.985
57627W        W29243  43.588  10.135  14.470
57628W        W29244  14.759  18.754   1.852
57629W        W29245  22.713  38.575   2.286
57630W        W29246  39.877  15.028  12.058
57631W        W29247  17.213  29.237  11.344
57632W        W29248  38.310   4.655   4.242
57633W        W29249  40.794  20.613   4.059
57634W        W29250   8.394  37.336   3.680
57635W        W29251  34.109  26.479  12.885
57636W        W29252   3.774  17.785  11.471
57637W        W29253  35.991  38.860   4.093
57638W        W29254  25.211  12.185  11.621
57639W        W29255   3.651  36.863  11.203
57640W        W29256  19.745  32.485  13.419
57641W        W29257  12.741  33.458  14.276
57642W        W29258   7.842  34.559   2.751
57643W        W29259  36.337  33.034  13.542
57644W        W29260  15.311  24.141   1.250
57645W        W29261  41.982  24.878   2.040
57646W        W29262  27.378  17.827   4.192
57647W        W29263  22.541  44.257   0.921
57648W        W29264  32.715   0.337   4.541
57649W        W29265  30.917  44.590   4.351
57650W        W29266  15.077  17.224  12.068
57651W        W29267   7.238  30.060   2.684
57652W        W29268   2.748  13.971  11.425
57653W        W29269  34.583   8.226  11.460
57654W        W29270  12.851  43.298   3.262
57655W        W29271  18.569  38.865   3.881
57656W        W29272  39.770   7.493   1.777
57657W        W29273   1.913  42.819  11.891
57658W        W29274  10.657  43.482  12.574
57659W        W29275  11.547   4.910   2.249
57660W        W29276  35.606  17.267  12.347
57661W        W29277  28.078  38.076   2.914
57662W        W29278   5.841   5.666  10.658
57663W        W29279   3.947  23.435   5.037
57664W        W29280   9.648  28.925   0.824
57665W        W29281  23.653  38.642   0.921
57666W        W29282  20.404  21.926   1.423
57667W        W29283  32.025  44.458  10.022
57668W        W29284  30.993  33.434   1.306
57669W        W29285  43.076  16.227  12.609
57670W        W29286  44.925  32.646   4.233
57671W        W29287  15.022  10.941   3.797
57672W        W29288  14.547  35.537   3.217
57673W        W29289  11.173  21.157  10.383
57674W        W29290  20.890  24.867  14.787
57675W        W29291  29.591  43.432  10.765
57676W        W29292  11.633  37.987  12.838
57677W        W29293  21.127  41.068   4.678
57678W        W29294  35.842  17.724   0.437
57679W        W29295  28.070  24.737   4.377
57680W        W29296  14.761  26.264  14.102
57681W        W29297   6.473  18.929   2.293
57682W        W29298  10.811   1.921   4.286
57683W        W29299  41.609  22.504  12.838
57684W        W29300  33.792  43.524  11.671
57685W        W29301  42.527  24.970  10.637
57686W        W29302  43.782  41.263   3.655
57687W        W29303  23.640  38.169  10.733
57688W        W29304   1.249  12.142   0.876
57689W        W29305  37.834  34.445   4.130
57690W        W29306  28.114  41.043  12.973
57691W        W29307  28.201   8.280  13.391
57692W        W29308  24.424  35.113  13.051
57693W        W29309  42.939  23.380  13.757
57694W        W29310  26.459  38.960  13.389
57695W        W29311  23.244   5.267  13.068
57696W        W29312  32.569  42.925   3.958
57697W        W29313  37.301  25.998  13.166
57698W        W29314  34.582  25.770   3.967
57699W        W29315  11.579   9.315   3.207
57700W        W29316  24.162  22.687   4.889
57701W        W29317  43.720  42.735   1.661
57702W        W29318  29.175   4.503   0.397
57703W        W29319  13.202   1.985  11.381
57704W        W29320   0.347   8.875  14.384
57705W        W29321  30.926  17.517  12.041
57706W        W29322   1.289  38.976   4.783
57707W        W29323   7.452  15.215  13.373
57708W        W29324  44.425  19.020  11.648
57709W        W29325   8.682  11.664   1.832
57710W        W29326  18.838  18.364   1.793
57711W        W29327   1.454  14.707   1.350
57712W        W29328  15.640  36.035   2.676
57713W        W29329  34.573   5.939   0.323
57714W        W29330   5.657  38.354  12.077
57715W        W29331  16.436   0.685   0.413
57716W        W29332  39.136  26.946   0.794
57717W        W29333  40.291  13.152   2.597
57718W        W29334  32.686   2.901  11.960
57719W        W29335  23.936  36.802   1.827
57720W        W29336  40.170  14.727   3.737
57721W        W29337  10.800  12.227   4.526
57722W        W29338   1.672  42.846  11.449
57723W        W29339   8.122  15.339  14.011
57724W        W29340   2.166  18.682  14.901
57725W        W29341  43.924   0.960  12.884
57726W        W29342  40.529  12.378   4.523
57727W        W29343  22.803  31.896  13.491
57728W        W29344  23.729  44.955  14.693
57729W        W29345  23.920  43.269   4.245
57730W        W29346   1.353  23.546  12.137
57731W        W29347   1.822  11.552   2.872
57732W        W29348  37.815   3.762   3.127
57733W        W29349   5.954  17.082   4.664
57734W        W29350   6.901  41.999   1.654
57735W        W29351  42.436  30.354   0.994
57736W        W29352   5.492  18.534  11.447
57737W        W29353  41.009  38.194   1.015
57738W        W29354  32.469  21.518  12.956
57739W        W29355  14.460   3.665   0.847
57740W        W29356  27.658  41.849   3.734
57741W        W29357   7.095  29.465  11.309
57742W        W29358   7.529   3.312  12.128
57743W        W29359  13.863  39.539  13.970
57744W        W29360  42.041  44.111  13.293
57745W        W29361  20.611  25.717   0.363
57746W        W29362  29.882  19.103  10.654
57747W        W29363  12.335   8.919   4.230
57748W        W29364  25.240  43.664  14.901
57749W        W29365   7.870   2.750  13.824
57750W        W29366  24.019  29.873   1.838
57751W        W29367  12.726   4.412   3.974
57752W        W29368   0.810   9.910  13.312
57753W        W29369  40.848   3.773   4.784
57754W        W29370  24.131   8.860  11.166
57755W        W29371  10.259  30.327   4.049
57756W        W29372  30.112   4.154  11.182
57757W        W29373  32.384  18.985   3.751
57758W        W29374  34.611  40.495  11.269
57759W        W29375   7.206  25.221   2.128
57760W        W29376  11.171  33.634   0.268
57761W        W29377  42.575  14.110  13.570
57762W        W29378  13.627  42.977   1.492
57763W        W29379   7.584  13.833  12.200
57764W        W29380  28.079  23.469   3.165
57765W        W29381  31.891   0.654   1.865
57766W        W29382  28.908  38.358  11.584
57767W        W29383   3.714  30.997   3.803
57768W        W29384  14.213  14.501  12.941
57769W        W29385  40.635   9.605   1.402
57770W        W29386   1.690   1.294  10.712
57771W        W29387  27.385   1.811   1.433
57772W        W29388  15.607  19.627   0.210
57773W        W29389  38.046  19.746   4.154
57774W        W29390  27.853  33.217   3.749
57775W        W29391  16.225  22.002   2.858
57776W        W29392  26.175  18.837  10.701
57777W        W29393   3.280  14.637  13.819
57778W        W29394  13.311  39.514   4.079
57779W        W29395  22.435  20.037  12.941
57780W        W29396   8.013   8.725  12.942
57781W        W29397   2.932   1.470  12.912
57782W        W29398  28.429  11.071  12.964
57783W        W29399  14.097  29.466  11.563
57784W        W29400  15.768  12.244  13.600
57785W        W29401   0.242  22.558   3.306
57786W        W29402  15.104   7.843  12.443
57787W        W29403  12.461   6.157   5.037
57788W        W29404  32.430  39.611  12.462
57789W        W29405  38.754  16.172  14.839
57790W        W29406  33.706  41.738   3.653
57791W        W29407   4.508  35.916  13.386
57792W        W29408  39.057  10.601   1.321
57793W        W29409  13.231   1.123  11.689
57794W        W29410  32.932  31.655   3.730
57795W        W29411   9.313  38.619   2.742
57796W        W29412  28.970   7.673  10.900
57797W        W29413  43.323  26.753  14.606
57798W        W29414  24.213  31.947  11.054
57799W        W29415  15.688  25.325  14.081
57800W        W29416  20.272  27.806   4.575
57801W        W29417  18.804  11.957   0.340
57802W        W29418  12.108  39.404   2.834
57803W        W29419  15.502  44.377   4.888
57804W        W29420   7.852   2.200   2.107
57805W        W29421  40.550   1.268  10.239
57806W        W29422  39.585  28.664  13.737
57807W        W29423  38.578  36.924  12.873
57808W        W29424  42.988  37.559   0.304
57809W        W29425   8.908  44.879   1.737
57810W        W29426   1.240  41.973  13.896
57811W        W29427   0.312   1.167  11.016
57812W        W29428  30.022  29.351  11.180
57813W        W29429  41.314  32.453  14.819
57814W        W29430  43.644  29.507   0.067
57815W        W29431  12.845  26.243  11.847
57816W        W29432  14.820  19.136   0.744
57817W        W29433  31.098  28.426  14.268
57818W        W29434  24.448  11.474  13.090
57819W        W29435  31.646  10.888   2.715
57820W        W29436  25.644   9.873   5.053
57821W        W29437  34.642  14.172   2.198
57822W        W29438  20.742  21.576  10.835
57823W        W29439  35.328  14.817  12.940
57824W        W29440  37.463  28.051  12.944
57825W        W29441   0.514  28.914   2.339
57826W        W29442  19.074  16.588  11.654
57827W        W29443  23.720  38.367   1.361
57828W        W29444  28.563  10.765  13.486
57829W        W29445   3.232   7.176   4.579
57830W        W29446  32.640   6.162  14.493
57831W        W29447   4.732  29.572   1.757
57832W        W29448   9.499   7.067  10.222
57833W        W29449  43.484   3.818   1.253
57834W        W29450  20.778   2.221   5.018
57835W        W29451  21.679   8.441   1.324
57836W        W29452   5.251   2.491  13.045
57837W        W29453  11.045  30.010   3.664
57838W        W29454  42.079  31.188   1.873
57839W        W29455  30.894  34.450  11.943
57840W        W29456   2.032  36.782   3.634
57841W        W29457  28.036  41.517  13.774
57842W        W29458  28.729  11.880   4.061
57843W        W29459   7.600  28.318  11.549
57844W        W29460  41.453  38.480  11.123
57845W        W29461   1.909   9.313   3.747
57846W        W29462  33.561   6.447  13.765
57847W        W29463   6.406  16.838  14.603
57848W        W29464  43.949  31.685  12.142
57849W        W29465  43.952  36.558  12.860
57850W        W29466  38.472  12.777  11.213
57851W        W29467  41.766  21.264   3.646
57852W        W29468  14.193  16.847   2.157
57853W        W29469  34.047   6.734   2.745
57854W        W29470   3.762  31.271  10.853
57855W        W29471  34.370  14.799   0.209
57856W        W29472  14.294  43.918  11.718
57857W        W29473   8.499  18.311   0.078
57858W        W29474  38.525  26.248   0.444
57859W        W29475  27.014   7.166   0.684
57860W        W29476   5.976  26.158   4.169
57861W        W29477   6.012  10.756  13.750
57862W        W29478  29.928  26.075   2.118
57863W        W29479  12.390   0.906  14.290
57864W        W29480  43.768  11.266  12.539
57865W        W29481  38.485   6.919  13.410
57866W        W29482  23.305   9.221  13.022
57867W        W29483  22.076  21.065   3.283
57868W        W29484  38.008  14.140   0.295
57869W        W29485  19.322   4.415  12.517
57870W        W29486  15.091  34.384  10.428
57871W        W29487  16.801  36.291   0.861
57872W        W29488  39.404  10.960  10.763
57873W        W29489   6.130  17.442   2.260
57874W        W29490  42.880  19.764  11.358
57875W        W29491  40.769  42.355  13.857
57876W        W29492  30.437   9.548  11.130
57877W        W29493  14.133   0.186  14.398
57878W        W29494  12.306  42.249   0.837
57879W        W29495   5.084   3.416   0.774
57880W        W29496  36.110  21.795   3.481
57881W        W29497  27.669   2.364  11.933
57882W        W29498  39.606   1.214  13.004
57883W        W29499  39.035  34.557  12.388
57884W        W29500  32.998   6.192   3.612
57885W        W29501  44.135  10.023   4.995
57886W        W29502  26.422  32.497   1.367
57887W        W29503  35.932  30.869  11.902
57888W        W29504  40.787  30.877  12.588
57889W        W29505  34.928  30.182  12.999
57890W        W29506  38.037   3.466   1.358
57891W        W29507  31.026  12.977  11.179
57892W        W29508   2.202  39.273  13.876
57893W        W29509  30.950  20.806   0.357
57894W        W29510  43.128  15.727  11.151
57895W        W29511  37.058   7.726  13.435
57896W        W29512  32.373   1.815   1.367
57897W        W29513  20.019  25.248   1.763
57898W        W29514   5.540  10.182  12.565
57899W        W29515   2.434  29.933   3.772
57900W        W29516   7.703  23.103  12.485
57901W        W29517  19.200  37.318   3.347
57902W        W29518  19.771   6.585  12.379
57903W        W29519  12.339   0.723  14.788
57904W        W29520  17.247  37.841   0.786
57905W        W29521   0.705  23.949   0.292
57906W        W29522  26.772  41.000  13.901
57907W        W29523   5.707  19.715   1.425
57908W        W29524   0.298   7.750  13.549
57909W        W29525   6.869  26.020   2.512
57910W        W29526  35.364  27.113  11.491
57911W        W29527  18.617  41.027  14.867
57912W        W29528  14.785  42.403   3.261
57913W        W29529  12.283  29.834   3.157
57914W        W29530  10.176  42.821  10.056
57915W        W29531  33.678  37.314   3.827
57916W        W29532  12.381  33.978  13.322
57917W        W29533  23.135  36.505   2.696
57918W        W29534  37.818   8.647  10.534
57919W        W29535  25.003   9.350  11.134
57920W        W29536  14.337  37.865  13.100
57921W        W29537   0.324  23.519   0.761
57922W        W29538   0.433  26.865   3.224
57923W        W29539  19.821  33.982   3.302
57924W        W29540  16.605   2.214   2.323
57925W        W29541  12.218  20.828  14.340
57926W        W29542  16.685  29.912  12.906
57927W        W29543   7.796  14.339   3.072
57928W        W29544  39.078  21.945  11.220
57929W        W29545  29.652   5.432   2.308
57930W        W29546  24.151  42.657   4.684
57931W        W29547  19.282  24.586  10.679
57932W        W29548   4.797  35.102  14.432
57933W        W29549  25.475   9.044  13.424
57934W        W29550  39.002   5.965  14.252
57935W        W29551  12.134   5.893   0.744
57936W        W29552  42.945   1.300  14.288
57937W        W29553  37.050  24.948   0.610
57938W        W29554  29.811  10.517  12.816
57939W        W29555  37.957  40.477  12.946
57940W        W29556  12.134  26.032  10.722
57941W        W29557   7.642  28.156  12.134
57942W        W29558  43.993  24.988  13.525
57943W        W29559  33.215  27.606  12.118
57944W        W29560  22.686  31.924  11.193
57945W        W29561  11.791  14.677  13.340
57946W        W29562  18.582  27.163   4.202
57947W        W29563   1.423  34.990   1.557
57948W        W29564  33.089  22.661   0.441
57949W        W29565  40.365   9.849   0.625
57950W        W29566  31.951  10.251   2.692
57951W        W29567  17.736  41.277  10.669
57952W        W29568  33.202   9.586   1.302
57953W        W29569  31.136   3.042   2.259
57954W        W29570  14.009  23.968   1.688
57955W        W29571   7.029  19.671   1.181
57956W        W29572  41.539  18.177   0.352
57957W        W29573   1.305  42.067   4.210
57958W        W29574   3.697   8.184  13.750
57959W        W29575  18.512  19.521  12.136
57960W        W29576   6.437  43.284  13.783
57961W        W29577  31.689  23.625  13.410
57962W        W29578  29.009  36.541  14.701
57963W        W29579  44.338  37.526   3.240
57964W        W29580  12.388  23.491  12.578
57965W        W29581  22.309  37.485  10.796
57966W        W29582   9.441  32.293  14.448
57967W        W29583   9.531   9.935  12.364
57968W        W29584  15.268  18.908  14.822
57969W        W29585  12.238  20.582  12.093
57970W        W29586   4.668  39.536  13.865
57971W        W29587  36.464  36.163  11.617
57972W        W29588  30.846  11.605  11.295
57973W        W29589   5.440  33.133   2.709
57974W        W29590   4.216  19.649   3.266
57975W        W29591   9.432  42.494  12.872
57976W        W29592  26.687  35.073  11.066
57977W        W29593   2.823  12.210  11.169
57978W        W29594  43.318  44.924   0.741
57979W        W29595  32.941   8.666   0.399
57980W        W29596  40.003  33.585  14.392
57981W        W29597   0.955  26.827   3.672
57982W        W29598   9.904  21.971  14.787
57983W        W29599  32.874  19.263  12.150
57984W        W29600  20.133  14.180  14.177
57985W        W29601  42.383   0.431  13.025
57986W        W29602  29.700   0.891   4.092
57987W        W29603  28.219   5.759   1.447
57988W        W29604  14.794  22.008  10.638
57989W        W29605   5.582  14.176  11.726
57990W        W29606  44.274   1.245   2.374
57991W        W29607  30.001   7.944  11.177
57992W        W29608  31.231   1.846   2.023
57993W        W29609   2.998  33.962  11.033
57994W        W29610   1.206   1.360   2.103
57995W        W29611  22.184  43.016   1.438
57996W        W29612   0.407  16.227   0.779
57997W        W29613  35.865  15.057  12.355
57998W        W29614  12.744  33.180  11.580
57999W        W29615   1.832  37.065   0.071
58000W        W29616  43.418   0.330   2.406
58001W        W29617  18.746  42.391  13.830
58002W        W29618  37.909  33.925  12.989
58003W        W29619  24.390   4.337   1.808
58004W        W29620  36.315   4.393   1.157
58005W        W29621  39.503  18.688  14.887
58006W        W29622  35.579   6.766  11.890
58007W        W29623  19.666  39.375  11.931
58008W        W29624  23.263  42.139   4.196
58009W        W29625  32.111  11.076  13.520
58010W        W29626  21.973  25.048   1.583
58011W        W29627  21.019   6.411   3.200
58012W        W29628  43.416   2.723   4.533
58013W        W29629   9.291  30.175  13.113
58014W        W29630  41.361   1.356   0.881
58015W        W29631  34.052  40.499  13.724
58016W        W29632  37.533  43.438  13.913
58017W        W29633   7.874   8.421   4.307
58018W        W29634  40.996  25.459  12.909
58019W        W29635  39.095  17.329  13.767
58020W        W29636   5.336  10.684  14.328
58021W        W29637  39.271  22.186  14.825
58022W        W29638  33.541  27.464  13.421
58023W        W29639  36.022  38.276  13.764
58024W        W29640  12.846  35.577  10.572
58025W        W29641   0.041  11.050  10.994
58026W        W29642  42.851  35.824  12.904
58027W        W29643  22.905  39.656  13.292
58028W        W29644  15.995  15.802  10.653
58029W        W29645  10.139  15.664   4.240
58030W        W29646   6.425  15.613  11.988
58031W        W29647  31.775  11.622   4.036
58032W        W29648  23.680  41.693  13.952
58033W        W29649  22.447  36.920   2.237
58034W        W29650  34.026   0.356  14.959
58035W        W29651  16.566  33.046   1.790
58036W        W29652   9.835  20.964  10.687
58037W        W29653  34.545  39.849  11.653
58038W        W29654   7.473  42.143   0.213
58039W        W29655  42.086   4.488  12.863
58040W        W29656  42.296  29.011  14.828
58041W        W29657  44.196  38.631   5.118
58042W        W29658  42.114  25.767  10.729
58043W        W29659  16.323  33.397   2.145
58044W        W29660   0.978  35.621  14.988
58045W        W29661  38.515  27.476   3.070
58046W        W29662   3.420  20.712  10.495
58047W        W29663   0.069  13.252   2.315
58048W        W29664  41.271  21.409  14.633
58049W        W29665  14.309  34.236  10.328
58050W        W29666   8.104  15.590  14.486
58051W        W29667  31.051  42.729   4.230
58052W        W29668  21.527   1.888  10.558
58053W        W29669   3.876   9.790  13.836
58054W        W29670  32.654  22.224  13.041
58055W        W29671  23.934  24.687   1.796
58056W        W29672  11.294  13.358  13.391
58057W        W29673  14.487  36.035  13.375
58058W        W29674  14.651   1.296  13.879
58059W        W29675  23.140  27.583   4.615
58060W        W29676  15.222  22.008   2.755
58061W        W29677  23.904  32.621   3.112
58062W        W29678  27.218  30.259  13.836
58063W        W29679  33.677  42.967  13.916
58064W        W29680  21.726  26.894  12.784
58065W        W29681   2.446  37.842  13.999
58066W        W29682   9.277  15.768  12.881
58067W        W29683  32.408   8.278  11.078
58068W        W29684  42.073  16.949   3.712
58069W        W29685  18.477  25.486   0.441
58070W        W29686  20.602   5.018   4.620
58071W        W29687  24.045  40.395   3.884
58072W        W29688  34.351  20.022  14.906
58073W        W29689   8.443  26.652  14.378
58074W        W29690  36.041   5.325  12.825
58075W        W29691  41.597  30.527  11.666
58076W        W29692  25.737  37.497   2.193
58077W        W29693  37.189  40.889  14.416
58078W        W29694  42.016  27.720   4.164
58079W        W29695  10.154  30.038  12.901
58080W        W29696  23.104  28.745   0.197
58081W        W29697  34.648   0.034   1.675
58082W        W29698  42.882  42.220   2.568
58083W        W29699  11.702   8.426  10.709
58084W        W29700  27.588   3.317  14.794
58085W        W29701  14.945   1.909  11.594
58086W        W29702  18.129   4.307   4.571
58087W        W29703  12.805  30.578  11.568
58088W        W29704  26.544   0.540  11.626
58089W        W29705  39.273  42.880   4.468
58090W        W29706   9.642  13.901  12.101
58091W        W29707  10.315   0.063  11.948
58092W        W29708  21.780  24.692   4.699
58093W        W29709  25.146  16.266  14.783
58094W        W29710  24.942  28.959  14.373
58095W        W29711  31.852   8.311   0.301
58096W        W29712  16.033  12.679   3.168
58097W        W29713  31.333  18.189   1.771
58098W        W29714   8.091  41.555   3.114
58099W        W29715  12.084  16.237   2.085
58100W        W29716   1.309   9.874   4.070
58101W        W29717   7.848   1.017   3.655
58102W        W29718  21.516  19.771   4.915
58103W        W29719  22.421   8.347   1.922
58104W        W29720   2.250  33.820  14.884
58105W        W29721  31.168   8.995  10.868
58106W        W29722  25.649  32.298   2.881
58107W        W29723  37.816   5.723  14.496
58108W        W29724  44.302  24.159   4.401
58109W        W29725  18.029  39.027  13.575
58110W        W29726  43.388  19.399   5.129
58111W        W29727  28.241  26.825  10.847
58112W        W29728  43.226  21.835  10.513
58113W        W29729  39.116  20.783   2.831
58114W        W29730  16.227  17.614  13.528
58115W        W29731  13.871  18.407  13.903
58116W        W29732  12.077  37.112   4.172
58117W        W29733   4.184  36.529  13.057
58118W        W29734   1.198  17.807  11.538
58119W        W29735  21.728  44.385  11.578
58120W        W29736  36.736  38.298  14.935
58121W        W29737   8.400  28.537  14.987
58122W        W29738  12.133  28.874  12.887
58123W        W29739   5.843   9.251  11.489
58124W        W29740  20.576  26.501   2.167
58125W        W29741  38.945  34.697   1.936
58126W        W29742   2.646   1.718   1.324
58127W        W29743  27.617  22.087  14.988
58128W        W29744  15.543  22.516  13.520
58129W        W29745   4.718   0.964  12.551
58130W        W29746  31.494  28.055  12.685
58131W        W29747  38.952  31.873  14.850
58132W        W29748  18.931  41.959   0.771
58133W        W29749  41.336  24.984  11.307
58134W        W29750  43.965  35.821  14.863
58135W        W29751   8.530  28.220   1.407
58136W        W29752   1.770  26.218  11.038
58137W        W29753   3.032   5.589  14.869
58138W        W29754  18.177   2.821  10.781
58139W        W29755   7.979   9.139  13.312
58140W        W29756  36.792   7.306  13.265
58141W        W29757  25.364  36.738   1.733
58142W        W29758   3.433  17.064  14.033
58143W        W29759  30.915  19.640   1.749
58144W        W29760   1.660  33.515  10.708
58145W        W29761   3.450  34.341   4.184
58146W        W29762  36.215  39.586  13.617
58147W        W29763  16.161  36.165   3.170
58148W        W29764  20.995  33.878  12.510
58149W        W29765  38.492  18.623   3.360
58150W        W29766   5.769   9.199   0.157
58151W        W29767  16.168  44.840  11.997
58152W        W29768  34.907  36.303  14.844
58153W        W29769  13.736  22.166   4.525
58154W        W29770  39.921  36.831  13.271
58155W        W29771  27.454  17.063  12.517
58156W        W29772   7.407  42.395   2.202
58157W        W29773  24.209  24.471  11.460
58158W        W29774  10.679  29.980  13.456
58159W        W29775  12.208   8.583  10.748
58160W        W29776  23.554  44.869   1.719
58161W        W29777  28.464  42.042   4.090
58162W        W29778  42.395  16.568   1.394
58163W        W29779  11.229  20.945   1.865
58164W        W29780   5.945  28.075   0.496
58165W        W29781  43.403  27.519   1.777
58166W        W29782  41.206  30.162  13.471
58167W        W29783  13.762   8.288  12.117
58168W        W29784  40.056  27.639  12.561
58169W        W29785  44.882  24.068  10.325
58170W        W29786  28.731  34.786  11.122
58171W        W29787  15.444  35.872  12.919
58172W        W29788  42.430  12.312  13.022
58173W        W29789  36.934  39.425   0.048
58174W        W29790  38.981  23.605   4.580
58175W        W29791  44.003  11.568  13.492
58176W        W29792  37.407  26.371  13.616
58177W        W29793  32.858  43.184   3.327
58178W        W29794   7.533  10.351  13.258
58179W        W29795  41.268  11.268  11.638
58180W        W29796   1.216  30.911  13.989
58181W        W29797  31.170  15.569   4.631
58182W        W29798  42.090  11.634  14.453
58183W        W29799  19.211  11.108  12.079
58184W        W29800  36.322  30.288   3.396
58185W        W29801  24.986  44.439   4.272
58186W        W29802  42.464  37.821  11.556
58187W        W29803   6.244   2.489  12.858
58188W        W29804  10.905  39.820  11.362
58189W        W29805   6.139  33.013  11.124
58190W        W29806   1.886  42.275  13.954
58191W        W29807  33.581  10.568  12.075
58192W        W29808  26.735   8.459  14.003
58193W        W29809  16.724  14.099  10.449
58194W        W29810   8.613  17.559  10.892
58195W        W29811  17.654  34.913  14.475
58196W        W29812  12.107  39.798   1.694
58197W        W29813  24.459  36.594  13.972
58198W        W29814   9.632  41.008  10.370
58199W        W29815   3.856  20.566   1.362
58200W        W29816  36.756   5.253   2.908
58201W        W29817  12.831   0.296  11.039
58202W        W29818  32.144  15.721   2.333
58203W        W29819  42.984  34.647  10.038
58204W        W29820  35.829   7.810   3.632
58205W        W29821  32.023  38.091   4.041
58206W        W29822  23.167  40.512   0.458
58207W        W29823   9.726  25.373   4.690
58208W        W29824  15.343   5.823   1.382
58209W        W29825  25.478   0.265   4.841
58210W        W29826  21.578  44.206  12.890
58211W        W29827  11.211  18.624   0.823
58212W        W29828   5.857  38.611  11.670
58213W        W29829   3.476  22.448  14.399
58214W        W29830  11.715  28.039  12.158
58215W        W29831  17.652  31.236  13.575
58216W        W29832  35.182   0.833  12.581
58217W        W29833  32.079  21.799  14.398
58218W        W29834   3.761  23.815   1.017
58219W        W29835  43.461  28.919   3.114
58220W        W29836   3.551  11.284   4.799
58221W        W29837  38.827  30.556  12.949
58222W        W29838  18.324  32.148   2.412
58223W        W29839   5.335   7.196   3.658
58224W        W29840  18.590  20.290   1.770
58225W        W29841   3.850   6.669   4.597
58226W        W29842  10.417  33.194   0.887
58227W        W29843   1.537  14.763   2.735
58228W        W29844   5.359   4.876   0.873
58229W        W29845   6.867  44.863   4.163
58230W        W29846   8.720  22.827   3.554
58231W        W29847  36.094  41.968   1.271
58232W        W29848  21.630   9.572  12.607
58233W        W29849  37.937  23.571   0.114
58234W        W29850  29.889   1.433   2.290
58235W        W29851  38.960  31.943  12.589
58236W        W29852  33.015  20.173  12.107
58237W        W29853  36.081  41.961  12.066
58238W        W29854   9.673  42.590  11.549
58239W        W29855  14.222  30.969  14.154
58240W        W29856  31.442  12.464  11.498
58241W        W29857   7.892  25.402   2.713
58242W        W29858  38.397   6.736  14.606
58243W        W29859   7.942  26.615   1.261
58244W        W29860  21.008   6.321  13.631
58245W        W29861  31.200  24.717  10.521
58246W        W29862  44.077  35.199  13.060
58247W        W29863   2.262   9.417   2.809
58248W        W29864  10.059   2.657   0.797
58249W        W29865  14.808  32.023   0.064
58250W        W29866  37.405   8.104  13.511
58251W        W29867  32.103  16.515   1.462
58252W        W29868  37.041  13.273   3.336
58253W        W29869  31.640   8.840   4.777
58254W        W29870  41.384  40.323   4.344
58255W        W29871   3.613  34.443   3.675
58256W        W29872  35.559  24.645   3.599
58257W        W29873  12.156   5.266   4.314
58258W        W29874  43.507  29.872  14.323
58259W        W29875  15.834   3.871   0.014
58260W        W29876  38.085  12.779  10.239
58261W        W29877  34.454  40.166   0.927
58262W        W29878  44.797  31.046  11.301
58263W        W29879   8.221  31.472   3.709
58264W        W29880  40.464  32.410   0.207
58265W        W29881  14.322  25.119  11.724
58266W        W29882  11.312  25.619   3.339
58267W        W29883  39.015  28.962  14.903
58268W        W29884  20.775  16.645  12.621
58269W        W29885   2.675  25.034  12.414
58270W        W29886   1.185   0.006  11.968
58271W        W29887   2.776  24.788  14.861
58272W        W29888  27.876  12.137  13.969
58273W        W29889   1.686  16.780   3.798
58274W        W29890   2.598   6.945  11.579
58275W        W29891  17.782  19.530   4.168
58276W        W29892  12.293  17.149  13.814
58277W        W29893  10.162  25.222   2.251
58278W        W29894  34.170  39.464   0.035
58279W        W29895  33.327  32.598   4.416
58280W        W29896   4.303  42.497   4.557
58281W        W29897  24.282   1.955  14.098
58282W        W29898   7.756  36.563   1.735
58283W        W29899  28.169  26.614   9.846
58284W        W29900  23.089   3.381  11.701
58285W        W29901  14.718  32.017   2.791
58286W        W29902  17.109  31.519  13.714
58287W        W29903  29.188  38.837  10.750
58288W        W29904  43.367  29.539  12.442
58289W        W29905  16.485  43.782  12.576
58290W        W29906  13.164   3.250   0.332
58291W        W29907  13.914  43.538  11.505
58292W        W29908   7.723  12.701   2.655
58293W        W29909   4.541  37.876  10.959
58294W        W29910  21.762  10.577  12.053
58295W        W29911  16.257  17.874   0.833
58296W        W29912  43.738   8.786   2.323
58297W        W29913   0.715  33.043  12.883
58298W        W29914  40.124  17.600   2.123
58299W        W29915  17.868  35.069  14.919
58300W        W29916  16.243  26.569   4.999
58301W        W29917   0.788  41.510  11.973
58302W        W29918  26.421  28.490  14.821
58303W        W29919  29.585   2.317   0.640
58304W        W29920  34.861   5.150   3.634
58305W        W29921  27.697  27.548   4.937
58306W        W29922  17.116   6.653  14.254
58307W        W29923  25.310  31.662  10.395
58308W        W29924  25.341  16.031  13.212
58309W        W29925   2.994  39.986  12.020
58310W        W29926  43.819  30.530   2.718
58311W        W29927  16.759  30.099  10.939
58312W        W29928  40.883  26.453  10.189
58313W        W29929   6.885  24.167  12.206
58314W        W29930  10.271  26.170   4.345
58315W        W29931  37.936   0.338  14.026
58316W        W29932  15.281   8.806   4.149
58317W        W29933   8.190  14.355   4.703
58318W        W29934  13.210  21.210   4.159
58319W        W29935  41.068  11.641  13.500
58320W        W29936  14.289  26.807  11.096
58321W        W29937  44.243  24.263   3.890
58322W        W29938  43.869  13.051   4.051
58323W        W29939   4.797  30.603  13.627
58324W        W29940   5.007   3.059  11.988
58325W        W29941  20.266  34.612   4.329
58326W        W29942  36.504  30.104   4.711
58327W        W29943  38.715  31.904  10.329
58328W        W29944   7.214  20.508   4.649
58329W        W29945  39.558  26.630   1.854
58330W        W29946   3.663  12.700   0.076
58331W        W29947  44.336   9.221   4.563
58332W        W29948   9.280  17.751  13.462
58333W        W29949  27.180  28.599  10.962
58334W        W29950  39.454   2.891   0.225
58335W        W29951  27.081  25.025   4.517
58336W        W29952  18.750  26.732  13.921
58337W        W29953  41.500  25.224  12.092
58338W        W29954  23.073  19.197   4.041
58339W        W29955  39.579   4.468  12.469
58340W        W29956   4.348  27.079   2.322
58341W        W29957  31.137  38.657  13.987
58342W        W29958  27.181  37.955  11.704
58343W        W29959   1.885  23.271  11.464
58344W        W29960  41.662  21.087   1.009
58345W        W29961  28.427   4.943   4.184
58346W        W29962   2.861   0.633  13.353
58347W        W29963  22.854  35.545  12.842
58348W        W29964  30.977  17.293   3.197
58349W        W29965   5.840  17.930  13.410
58350W        W29966  14.328  12.019  14.464
58351W        W29967  22.544   7.284   0.224
58352W        W29968   5.673  41.329  14.517
58353W        W29969  41.295  28.088   3.805
58354W        W29970  32.542  13.764   0.261
58355W        W29971  39.609  15.627   3.646
58356W        W29972  35.991   2.276   1.348
58357W        W29973  41.934  10.139   3.173
58358W        W29974   4.983  28.613  11.672
58359W        W29975  38.286  30.849   2.735
58360W        W29976  14.748  41.535  10.490
58361W        W29977  23.243   7.481  13.856
58362W        W29978  30.044  34.499   2.591
58363W        W29979  35.820  11.662   5.027
58364W        W29980  34.134   4.029  13.933
58365W        W29981   3.283  11.109  11.483
58366W        W29982   4.519  26.610  13.774
58367W        W29983  31.626  10.275   3.164
58368W        W29984  42.882   8.799   4.389
58369W        W29985   5.622  26.481   2.875
58370W        W29986  42.570  31.951   0.559
58371W        W29987  40.066  27.352   3.312
58372W        W29988  35.814   6.826   2.868
58373W        W29989  11.290   2.684  14.479
58374W        W29990  37.014  41.286  13.563
58375W        W29991  15.215   8.142  12.015
58376W        W29992  39.917  43.605   2.627
58377W        W29993  33.306  22.682   2.395
58378W        W29994   2.664   3.845   3.845
58379W        W29995  41.568  42.961   1.432
58380W        W29996  23.799   1.294   0.550
58381W        W29997  23.043  21.272   4.212
58382W        W29998  16.941   4.270  14.246
58383W        W29999   1.978  26.163   0.876
58384W        W30000   1.338   4.243   1.349
58385W        W30001   8.812  38.064  11.902
58386W        W30002  13.091  22.106  14.875
58387W        W30003   2.735   4.638  12.377
58388W        W30004   2.463  27.587   1.435
58389W        W30005  36.100   1.403  11.442
58390W        W30006  11.156  26.385   4.091
58391W        W30007  25.817   7.858   0.704
58392W        W30008  20.628   2.341  14.269
58393W        W30009  30.188  26.992  10.281
58394W        W30010   2.953  28.464  12.539
58395W        W30011  15.584  14.371  12.041
58396W        W30012  17.190   1.268  11.887
58397W        W30013  32.881  24.286  11.894
58398W        W30014  31.561  37.536   2.330
58399W        W30015  43.820  12.996  13.440
58400W        W30016  18.261  41.487   3.891
58401W        W30017  28.101   5.619  13.432
58402W        W30018  38.958  29.154   3.127
58403W        W30019  11.199  33.986  12.451
58404W        W30020  23.686   5.788   0.479
58405W        W30021  16.647   9.870   1.455
58406W        W30022  15.850  44.963  12.420
58407W        W30023   5.827  43.433   4.444
58408W        W30024   4.996  24.141   4.547
58409W        W30025  36.230  12.820  14.783
58410W        W30026  44.149  26.528  13.506
58411W        W30027  31.857  16.235  11.235
58412W        W30028  12.992  38.970  13.538
58413W        W30029  17.183  38.733  12.954
58414W        W30030   8.400   5.340   2.756
58415W        W30031  35.108  35.284  14.913
58416W        W30032  22.512  17.426  11.408
58417W        W30033   3.500  17.088  14.562
58418W        W30034   9.247  33.341   1.774
58419W        W30035  23.070   3.313  12.437
58420W        W30036   9.306  17.207  14.558
58421W        W30037  12.904  42.266   3.219
58422W        W30038   8.353  12.697   0.734
58423W        W30039   0.668  28.857  11.318
58424W        W30040  42.539  11.824  13.939
58425W        W30041  43.270  28.199   0.522
58426W        W30042  40.382  22.435   0.815
58427W        W30043   8.650  39.596   4.369
58428W        W30044   8.682  39.863   0.911
58429W        W30045  24.204  20.748   0.389
58430W        W30046  36.343  31.130  14.994
58431W        W30047  20.368  28.565   0.462
58432W        W30048  31.406  25.053  12.369
58433W        W30049  20.076  40.773  11.970
58434W        W30050  40.309  41.820   3.210
58435W        W30051   7.242  31.993  12.847
58436W        W30052  16.587  42.301  14.462
58437W        W30053  11.247  42.366   2.458
58438W        W30054  40.855  16.033  11.099
58439W        W30055  34.650   0.959  12.364
58440W        W30056  14.193  26.091   4.579
58441W        W30057  15.841  13.735  14.530
58442W        W30058  14.140  44.573   4.134
58443W        W30059  10.584   0.450   0.320
58444W        W30060  15.046  28.168  12.125
58445W        W30061  12.767   2.334   0.235
58446W        W30062  17.712  33.938  12.454
58447W        W30063  24.317  35.930   1.361
58448W        W30064  39.917   7.226   4.689
58449W        W30065  16.986  24.722  14.917
58450W        W30066  27.387   0.524  11.185
58451W        W30067  40.540  27.141   2.139
58452W        W30068  12.702  28.837  13.703
58453W        W30069  18.096  31.562   0.930
58454W        W30070  42.880  23.291   4.508
58455W        W30071  29.956  27.632   0.343
58456W        W30072  13.722  39.458   3.747
58457W        W30073   2.406  38.789  13.989
58458W        W30074  19.181  28.042   4.481
58459W        W30075  39.535  17.052  13.557
58460W        W30076   5.948  43.386  12.420
58461W        W30077   0.703  18.640   0.295
58462W        W30078   1.989  14.743  12.128
58463W        W30079  35.862  33.086   1.665
58464W        W30080  12.274   7.817   1.151
58465W        W30081  23.534  26.453   1.703
58466W        W30082  37.072  18.532   3.645
58467W        W30083  11.790  18.105   0.352
58468W        W30084  35.092  43.883  11.424
58469W        W30085  20.393   0.752   4.291
58470W        W30086  38.669  30.184   0.340
58471W        W30087   4.269   2.747   0.791
58472W        W30088   0.342  41.072   1.444
58473W        W30089   5.820   7.335   2.340
58474W        W30090  27.177  12.356   4.520
58475W        W30091  28.279  32.157  11.449
58476W        W30092  16.288   7.734  11.827
58477W        W30093  12.638   4.883   1.382
58478W        W30094  31.425  17.751  12.014
58479W        W30095  29.024  23.574   2.823
58480W        W30096  31.986   3.242   0.806
58481W        W30097  19.547  12.199   3.273
58482W        W30098  27.740  28.672   1.811
58483W        W30099  40.200  40.929  14.990
58484W        W30100  24.762  18.753  11.322
58485W        W30101   5.506  37.812  11.351
58486W        W30102  32.128  16.447  11.638
58487W        W30103  14.497  34.826  13.888
58488W        W30104  37.951   9.135   2.694
58489W        W30105  40.883  33.213  10.641
58490W        W30106  29.067  15.403  12.847
58491W        W30107  24.486  25.033  10.711
58492W        W30108  28.762  33.379  10.700
58493W        W30109  17.350   9.158  10.604
58494W        W30110  17.838   0.607   4.585
58495W        W30111  23.198  23.915  12.205
58496W        W30112   4.971   5.864   3.593
58497W        W30113  32.954  23.705   1.534
58498W        W30114  16.116  14.393   0.313
58499W        W30115  21.515  24.906  12.021
58500W        W30116  20.624   8.654  10.747
58501W        W30117  32.405  18.829   4.782
58502W        W30118  44.164  43.486   2.845
58503W        W30119  36.884  11.729  10.893
58504W        W30120   3.509   0.319  12.400
58505W        W30121   0.009  27.705  13.933
58506W        W30122  35.523  42.254   0.370
58507W        W30123  15.159   4.477   9.810
58508W        W30124  27.813  35.490   3.128
58509W        W30125  16.708  26.905  11.627
58510W        W30126   9.455  43.529   3.538
58511W        W30127   5.615  40.498  14.801
58512W        W30128  36.594  29.664  13.425
58513W        W30129  44.515  12.696  10.567
58514W        W30130  41.653  25.561  10.729
58515W        W30131   1.104  24.072   5.253
58516W        W30132  24.095  39.810   2.665
58517W        W30133  11.034  17.331   2.889
58518W        W30134  24.576   4.413   3.529
58519W        W30135  44.452  27.625   2.736
58520W        W30136  37.568  18.509   3.785
58521W        W30137  29.960  28.125   0.729
58522W        W30138  37.379  25.162  14.439
58523W        W30139  23.349  29.302   1.570
58524W        W30140  11.913  26.075  14.387
58525W        W30141   1.526  10.301  14.344
58526W        W30142   1.923  25.455  12.287
58527W        W30143  37.998  21.697   0.831
58528W        W30144  40.088  10.170  10.620
58529W        W30145  42.446  20.764   1.509
58530W        W30146   5.319  41.071   4.698
58531W        W30147  29.363  32.450   3.953
58532W        W30148  44.913  29.221  11.916
58533W        W30149  23.005  25.960   2.714
58534W        W30150  31.513  25.681  10.990
58535W        W30151  14.046  42.312  13.973
58536W        W30152  19.287   5.808  14.663
58537W        W30153   1.896  12.204   0.018
58538W        W30154   6.118   5.160  14.231
58539W        W30155  12.727   7.822  13.788
58540W        W30156  41.144   1.648  14.432
58541W        W30157  33.368  43.920   9.850
58542W        W30158   6.775  10.389  12.916
58543W        W30159  28.481  42.915   3.834
58544W        W30160  41.904  26.004   1.983
58545W        W30161   5.847   3.995  13.091
58546W        W30162  41.396  41.997  11.262
58547W        W30163  16.555  18.061   4.232
58548W        W30164  25.604   9.868  10.660
58549W        W30165  32.715  16.983   2.036
58550W        W30166   8.126  12.778   0.252
58551W        W30167  29.437  10.276  11.576
58552W        W30168  36.066  21.963   3.979
58553W        W30169  11.808   5.998  10.891
58554W        W30170   4.952  24.419   0.409
58555W        W30171  22.606  19.210   5.103
58556W        W30172  31.680   2.192  14.334
58557W        W30173  33.004  44.887  11.756
58558W        W30174  12.350   8.640  11.991
58559W        W30175  14.820   7.418  11.653
58560W        W30176  15.158  24.011  11.207
58561W        W30177   9.092  43.257   3.180
58562W        W30178  29.982  44.004   1.070
58563W        W30179  32.682  37.869  12.037
58564W        W30180  34.049  10.331  14.327
58565W        W30181  34.037  25.242   3.349
58566W        W30182  15.098  30.119  14.463
58567W        W30183  26.522  22.042  12.498
58568W        W30184  13.904  12.552  12.874
58569W        W30185  43.812  35.038  13.526
58570W        W30186  34.646   4.022  13.922
58571W        W30187  31.779  42.371  10.695
58572W        W30188  33.950  43.578  12.686
58573W        W30189  26.582  15.214   3.894
58574W        W30190  44.908  28.723  14.287
58575W        W30191  35.948  40.306   4.591
58576W        W30192  18.761  23.423   2.252
58577W        W30193  19.730  21.825  14.299
58578W        W30194  29.733  23.133  14.316
58579W        W30195  20.492  16.697  13.107
58580W        W30196   7.999  26.451  14.222
58581W        W30197  11.186  36.938  14.785
58582W        W30198   3.864  42.379   0.803
58583W        W30199  11.205  19.241  14.898
58584W        W30200  21.607  20.195  12.184
58585W        W30201  23.516   4.634   1.731
58586W        W30202   6.890  18.017  10.702
58587W        W30203   0.621   9.830   0.902
58588W        W30204  29.601  35.324  14.607
58589W        W30205   4.906  17.159  11.137
58590W        W30206  19.804  29.566   0.281
58591W        W30207  16.957  31.218   0.298
58592W        W30208   3.944  44.376   4.954
58593W        W30209  12.733  22.032   3.757
58594W        W30210  29.013  39.434  12.787
58595W        W30211  31.004  13.625   2.884
58596W        W30212  15.631  17.793   1.497
58597W        W30213  34.484  43.030   0.913
58598W        W30214  16.537  38.273   0.341
58599W        W30215   9.582   2.014  13.084
58600W        W30216  11.218   5.822  12.117
58601W        W30217  40.485  26.673   9.925
58602W        W30218  11.865  31.021   0.505
58603W        W30219  42.488   8.121   3.725
58604W        W30220  17.780  17.669   5.202
58605W        W30221  25.585  24.473  13.773
58606W        W30222  36.098   9.023   1.250
58607W        W30223  32.880  27.740  11.271
58608W        W30224   2.200  37.370  12.474
58609W        W30225   6.100   0.335   0.931
58610W        W30226  27.209  25.050  13.835
58611W        W30227  17.989  35.246   4.041
58612W        W30228   3.856  23.483  12.899
58613W        W30229  38.184  20.433   2.684
58614W        W30230  14.117  43.460   2.775
58615W        W30231  35.912   1.947  13.891
58616W        W30232  17.148  36.158   2.835
58617W        W30233  20.723  37.560   2.206
58618W        W30234  40.279  30.994  12.499
58619W        W30235  12.739  42.348  12.671
58620W        W30236  26.990  16.860   0.436
58621W        W30237  15.182  13.576  13.939
58622W        W30238  18.175  14.774  10.609
58623W        W30239  18.274  37.514  10.777
58624W        W30240   9.313  36.339  10.586
58625W        W30241  13.686  40.370   3.697
58626W        W30242  42.759  36.322  13.080
58627W        W30243   2.235  28.699  14.843
58628W        W30244   9.877   3.405   3.867
58629W        W30245  12.927   9.248  14.552
58630W        W30246  30.047  31.123  11.303
58631W        W30247  14.369  21.982  14.987
58632W        W30248   9.305   4.869   2.915
58633W        W30249   7.675  29.482   0.571
58634W        W30250   1.313  17.457  12.926
58635W        W30251  44.380  22.732  14.999
58636W        W30252  17.285  18.155   1.954
58637W        W30253   3.216  28.476   0.005
58638W        W30254  22.644  10.716   4.143
58639W        W30255   7.738  25.061  13.660
58640W        W30256  31.570  18.581   4.323
58641W        W30257  11.715  18.778   0.948
58642W        W30258   6.721   8.674   5.068
58643W        W30259  18.270  14.808  12.923
58644W        W30260  40.082  22.458  11.547
58645W        W30261   1.678   1.735  11.029
58646W        W30262  43.944  12.769   4.521
58647W        W30263  27.417  11.555  11.914
58648W        W30264  28.411  44.068   0.419
58649W        W30265  38.973   6.115   0.582
58650W        W30266  20.139  41.417  12.306
58651W        W30267  44.908   8.113   0.936
58652W        W30268  31.181  29.390   4.547
58653W        W30269   9.799  28.514   4.561
58654W        W30270  44.366  26.711   1.656
58655W        W30271  31.109  33.993  12.046
58656W        W30272  32.359  15.665  12.041
58657W        W30273  38.067  10.111  12.476
58658W        W30274  14.749  39.205   3.720
58659W        W30275  21.912  23.990   0.074
58660W        W30276  23.080  32.646   0.910
58661W        W30277  35.312   0.909   2.186
58662W        W30278   1.288  32.797  14.747
58663W        W30279  30.841  17.272  11.168
58664W        W30280  42.005  36.232  14.059
58665W        W30281  40.888  23.965   4.556
58666W        W30282  24.907  19.177  11.036
58667W        W30283  16.623  18.581   1.383
58668W        W30284  40.159  35.778  11.514
58669W        W30285  12.769  39.035   0.320
58670W        W30286   0.959  43.373  13.448
58671W        W30287  43.860  42.985  13.013
58672W        W30288  14.211  33.690   3.757
58673W        W30289  44.438  20.186  12.086
58674W        W30290  38.467  25.782  10.734
58675W        W30291  30.589  26.247  11.649
58676W        W30292  32.682   7.717  14.688
58677W        W30293  20.211  35.666  13.805
58678W        W30294   2.145   2.009  10.183
58679W        W30295  37.515  44.436   1.853
58680W        W30296  14.175  31.621   0.281
58681W        W30297   2.394  12.086  14.098
58682W        W30298  17.857  11.487   0.331
58683W        W30299  32.634  10.827  10.784
58684W        W30300  25.665  35.008  10.986
58685W        W30301  40.997  31.478   3.804
58686W        W30302   5.169   8.147  14.294
58687W        W30303   9.360  24.976   4.881
58688W        W30304  27.604  16.765  13.851
58689W        W30305  37.052  18.906  11.529
58690W        W30306  32.850  38.193   2.210
58691W        W30307   4.735  18.116  11.462
58692W        W30308  22.217  14.789   0.726
58693W        W30309  32.192  19.890   4.899
58694W        W30310  29.462  36.388  14.373
58695W        W30311   9.108  32.200   2.239
58696W        W30312   9.343  34.174   1.183
58697W        W30313  15.439  37.139   4.714
58698W        W30314   1.279   3.452  14.444
58699W        W30315  41.104   1.932   3.419
58700W        W30316  34.190  13.918   4.273
58701W        W30317  33.923  19.198  12.092
58702W        W30318  31.770  14.573  14.767
58703W        W30319   5.008  18.563  12.468
58704W        W30320  39.693   9.106  11.416
58705W        W30321  39.746   0.932   2.806
58706W        W30322   5.015  37.968  10.670
58707W        W30323   0.614  20.068   2.301
58708W        W30324  28.725  23.946  14.259
58709W        W30325  37.316   7.554  14.401
58710W        W30326  41.832  32.490   1.337
58711W        W30327  15.312  22.014  10.651
58712W        W30328  30.483   7.876  13.439
58713W        W30329  31.231  43.256  12.393
58714W        W30330  18.670  23.245   1.767
58715W        W30331  25.151  32.810  13.885
58716W        W30332  21.281  36.735  14.847
58717W        W30333  15.370  19.737   4.632
58718W        W30334  11.502   7.851  12.370
58719W        W30335   2.422  12.618  13.481
58720W        W30336  25.750  20.254   0.781
58721W        W30337   4.835   0.448  12.374
58722W        W30338  33.477  17.827   3.279
58723W        W30339  35.391   2.912  11.086
58724W        W30340   1.722  44.445  11.566
58725W        W30341  32.224  29.758  11.093
58726W        W30342  15.290  39.322   3.280
58727W        W30343  35.777  11.797  13.473
58728W        W30344  17.177  36.530  14.209
58729W        W30345  42.882   1.884   0.289
58730W        W30346   2.076  37.151  13.367
58731W        W30347  37.871  13.575   5.608
58732W        W30348   1.207  15.358  10.397
58733W        W30349   8.156  32.649  12.107
58734W        W30350  12.545   1.530  12.439
58735W        W30351  38.788  18.701   1.115
58736W        W30352  19.275   4.491   1.030
58737W        W30353  25.121  40.010   2.249
58738W        W30354   2.827  38.940   1.475
58739W        W30355  23.940  42.984   5.053
58740W        W30356  38.689  41.392  14.944
58741W        W30357  33.411  17.194   4.150
58742W        W30358   2.781   7.966  11.114
58743W        W30359  15.334  18.595   1.177
58744W        W30360  20.835  16.105  14.037
58745W        W30361  15.453  44.525  11.462
58746W        W30362  23.018  18.632  11.202
58747W        W30363  44.067  42.627   2.059
58748W        W30364  33.969  30.026   4.111
58749W        W30365  26.241  19.831  13.059
58750W        W30366  17.497  26.496   4.488
58751W        W30367  20.005  11.150  11.519
58752W        W30368   0.066  23.217  10.690
58753W        W30369  33.464   0.846  14.573
58754W        W30370  30.902  28.172   1.435
58755W        W30371  12.552  38.062  10.991
58756W        W30372  22.591  12.102   1.372
58757W        W30373  14.150  23.494   4.240
58758W        W30374  20.696   6.258  13.020
58759W        W30375  26.451   0.191  13.440
58760W        W30376  13.063  27.786   3.701
58761W        W30377  40.464  33.520   0.766
58762W        W30378  24.415  24.446  14.901
58763W        W30379  37.653  35.345   2.917
58764W        W30380  21.451  11.388  11.569
58765W        W30381  35.108  26.000  10.641
58766W        W30382   4.642  29.040   2.643
58767W        W30383  18.137  40.928   4.622
58768W        W30384   8.944  19.320   1.731
58769W        W30385  32.933  26.453  10.715
58770W        W30386  16.327  19.606   0.532
58771W        W30387  10.689  10.171  14.804
58772W        W30388   1.226  15.275   3.692
58773W        W30389  17.811  18.718   4.119
58774W        W30390   6.694  29.041   1.005
58775W        W30391   8.660  20.049  14.443
58776W        W30392  35.810  41.786   3.427
58777W        W30393  20.308   7.770   3.864
58778W        W30394  20.203  17.822  10.881
58779W        W30395  41.297  12.733   0.346
58780W        W30396  33.478  34.593  11.194
58781W        W30397  27.700  40.839  12.373
58782W        W30398  18.477  31.359  10.840
58783W        W30399  44.416  28.561   3.758
58784W        W30400  26.555  37.447  11.631
58785W        W30401  23.064   4.762   0.450
58786W        W30402  27.551   8.961  13.764
58787W        W30403  32.645  11.332  12.920
58788W        W30404  44.680   4.885   0.382
58789W        W30405  44.923  30.158  14.782
58790W        W30406  30.156  43.865   3.206
58791W        W30407   7.731   8.476  14.012
58792W        W30408  10.781   6.538  12.982
58793W        W30409  13.776  25.809   3.811
58794W        W30410  36.839  32.786  12.846
58795W        W30411  32.987  33.526  13.564
58796W        W30412  22.246  36.056   2.772
58797W        W30413  19.184  26.424   3.126
58798W        W30414  22.020   4.211  13.367
58799W        W30415  20.585  27.176   0.036
58800W        W30416  25.997  17.200   2.154
58801W        W30417  16.136  41.343  11.148
58802W        W30418  15.876  15.833  12.087
58803W        W30419  31.450  39.048  11.088
58804W        W30420  28.972   4.633  14.589
58805W        W30421  35.042  27.071   2.595
58806W        W30422  24.742  32.955   2.323
58807W        W30423  14.293   2.870   2.673
58808W        W30424   9.930  12.817  11.164
58809W        W30425  11.225  15.900  14.031
58810W        W30426  43.799  31.882  14.781
58811W        W30427   2.333  37.147   3.416
58812W        W30428   3.084  18.252   4.585
58813W        W30429   4.330  25.636   4.366
58814W        W30430   8.973  35.094  10.763
58815W        W30431  26.664   9.071   2.942
58816W        W30432   6.606  42.485  13.545
58817W        W30433  33.309   5.325  14.014
58818W        W30434  41.718  19.336   0.024
58819W        W30435   1.852  18.824  11.172
58820W        W30436  10.867  27.201   3.660
58821W        W30437  16.924  36.117   1.333
58822W        W30438  42.854  22.943  10.415
58823W        W30439  39.400  43.331   4.717
58824W        W30440   7.061  20.029   2.772
58825W        W30441  14.345  43.562  12.130
58826W        W30442   3.426   4.413  12.850
58827W        W30443  13.560  39.880   1.881
58828W        W30444  22.990  40.328   4.861
58829W        W30445  19.457  43.256  14.030
58830W        W30446  23.150  43.924  12.137
58831W        W30447   7.892  38.310   4.816
58832W        W30448  29.863  42.411  13.998
58833W        W30449   5.615  42.815  13.909
58834W        W30450  43.756  41.055  13.255
58835W        W30451  20.699   3.279  13.943
58836W        W30452  17.176  13.618   0.576
58837W        W30453  10.063   6.322   4.084
58838W        W30454  15.562  35.350   3.252
58839W        W30455  13.542  10.772   2.453
58840W        W30456  23.205  10.710   0.945
58841W        W30457  15.564  36.887   2.116
58842W        W30458  33.949   5.481  14.831
58843W        W30459  13.511  22.503  13.425
58844W        W30460   4.407   6.778   2.213
58845W        W30461  22.097  21.538  13.302
58846W        W30462  18.504  32.197   3.633
58847W        W30463   5.435  18.740  13.693
58848W        W30464  37.537  33.851  10.759
58849W        W30465  21.153  41.801  10.591
58850W        W30466   9.280  25.767  12.463
58851W        W30467   4.356  22.955   4.207
58852W        W30468  12.106  14.636   3.722
58853W        W30469  13.096  26.867   1.420
58854W        W30470  38.796  31.408   0.741
58855W        W30471  20.029  24.502  12.851
58856W        W30472  39.063  42.590   4.106
58857W        W30473  26.475  31.690  12.485
58858W        W30474  28.545  18.167  11.380
58859W        W30475  27.501  28.775   0.527
58860W        W30476  12.191  11.829   0.757
58861W        W30477  13.640  32.832   1.231
58862W        W30478  35.537  43.384   2.356
58863W        W30479  42.257  18.527   4.159
58864W        W30480   8.900  34.016  14.412
58865W        W30481  32.108  30.463  13.045
58866W        W30482  42.774   4.762  14.372
58867W        W30483  14.251  13.210   1.064
58868W        W30484  37.433   6.919   4.201
58869W        W30485  10.996  11.308   1.792
58870W        W30486  28.181  43.383   2.947
58871W        W30487  25.109  40.289   2.703
58872W        W30488  23.907  20.997   4.050
58873W        W30489  13.563  39.334   0.678
58874W        W30490  37.838   1.218  11.242
58875W        W30491  17.176   4.684   5.402
58876W        W30492  39.298  11.846   0.259
58877W        W30493  21.543   9.387   4.259
58878W        W30494  26.589  43.028  11.602
58879W        W30495  23.178   3.969   2.476
58880W        W30496  35.091  14.150   0.785
58881W        W30497  29.916  34.134   0.391
58882W        W30498   9.252  23.299  10.809
58883W        W30499  34.217  16.566  11.080
58884W        W30500  30.394  24.954  10.663
58885W        W30501  25.306  34.469  12.538
58886W        W30502  24.100  35.699  12.837
58887W        W30503   7.268   4.938  14.453
58888W        W30504  14.041  42.276  12.921
58889W        W30505  11.627  31.785  14.839
58890W        W30506   7.198  19.001   3.667
58891W        W30507   2.874  35.382   4.460
58892W        W30508  33.223  41.525  10.316
58893W        W30509   8.363  32.934   4.186
58894W        W30510  10.248   5.375   4.120
58895W        W30511   0.259  29.942  14.469
58896W        W30512  18.479  42.720   1.807
58897W        W30513   3.606   5.167   1.846
58898W        W30514  12.104  31.583  12.580
58899W        W30515  16.469   1.785   5.113
58900W        W30516  26.774   5.688   3.311
58901W        W30517  26.758  30.525  13.362
58902W        W30518  36.227  33.061   2.051
58903W        W30519  31.006  11.790  10.834
58904W        W30520  44.948  22.734   3.844
58905W        W30521   6.839  26.144   3.811
58906W        W30522  24.524  37.898   3.789
58907W        W30523  32.812  34.556  14.500
58908W        W30524  39.600   7.489  12.092
58909W        W30525  20.091  37.876  14.575
58910W        W30526  18.475  17.681  14.811
58911W        W30527  17.996  22.630  12.457
58912W        W30528  43.042  38.595  12.085
58913W        W30529  27.597  33.728   4.521
58914W        W30530   3.889  31.639   3.201
58915W        W30531   7.199  42.508   3.059
58916W        W30532  17.465  27.649   4.541
58917W        W30533  11.698  19.508   3.191
58918W        W30534   6.876  32.994   1.132
58919W        W30535  20.317   1.876   5.035
58920W        W30536  37.923  14.203  11.440
58921W        W30537  23.079  40.370  12.422
58922W        W30538  21.571  44.318   0.699
58923W        W30539  43.252  23.262   3.124
58924W        W30540  36.177  43.188   3.428
58925W        W30541  25.132   9.861   1.760
58926W        W30542  33.510  34.661  13.433
58927W        W30543  22.043   7.126   0.408
58928W        W30544  36.330  11.092  10.674
58929W        W30545  26.003   8.692   0.959
58930W        W30546  11.276  21.480   4.714
58931W        W30547  24.221  23.532  14.496
58932W        W30548  19.775  20.088  13.316
58933W        W30549   4.306  37.414   2.291
58934W        W30550  25.515  25.126  10.628
58935W        W30551  34.815  38.698   0.852
58936W        W30552  13.562  25.854  10.865
58937W        W30553  12.473  19.863  11.537
58938W        W30554  16.080   9.073   5.128
58939W        W30555  28.192  12.373   0.413
58940W        W30556  28.430  26.471  12.243
58941W        W30557  19.861  43.586  14.130
58942W        W30558  27.886  38.476  14.356
58943W        W30559  12.475  40.038  14.027
58944W        W30560   0.194  29.956   3.253
58945W        W30561  21.513  32.600   0.944
58946W        W30562  33.854  41.833  13.982
58947W        W30563  42.265  20.105   1.759
58948W        W30564  19.942  44.309  10.089
58949W        W30565  20.457  37.114   2.295
58950W        W30566  33.992  28.911   0.239
58951W        W30567  30.671  18.815   0.800
58952W        W30568  44.078  33.068   3.304
58953W        W30569  18.992  25.994  10.661
58954W        W30570  41.349  42.966   4.619
58955W        W30571  39.676  29.415   1.657
58956W        W30572   8.672  38.287   4.283
58957W        W30573  34.052  20.478   3.117
58958W        W30574  24.326   7.048  10.499
58959W        W30575  13.668  21.501   4.231
58960W        W30576  27.604  23.231   3.840
58961W        W30577   1.459   5.843   4.377
58962W        W30578  36.408  44.783   2.130
58963W        W30579   1.680   5.202  14.793
58964W        W30580  19.179  40.187  11.557
58965W        W30581  42.401  39.289  12.428
58966W        W30582  26.683  35.899   3.433
58967W        W30583   6.843  14.691  10.735
58968W        W30584  20.471  37.418   3.751
58969W        W30585  14.424   6.415  13.564
58970W        W30586  11.652   6.221   2.829
58971W        W30587   9.954  28.821  11.193
58972W        W30588   5.748  36.105   0.697
58973W        W30589  29.651   5.915   4.375
58974W        W30590  37.364  16.386  14.502
58975W        W30591  21.773  17.087  10.361
58976W        W30592  38.947   1.479   2.238
58977W        W30593  11.596  26.240   0.759
58978W        W30594   4.970  23.665  13.168
58979W        W30595  10.429  44.481  11.432
58980W        W30596  33.333   1.843   4.065
58981W        W30597  20.354  35.945  11.152
58982W        W30598   1.733   4.314   4.508
58983W        W30599  34.644  34.982  11.656
58984W        W30600  19.635  33.232   1.010
58985W        W30601  12.235  11.737  13.416
58986W        W30602  24.793  43.111  11.146
58987W        W30603  19.264  22.036  12.383
58988W        W30604  14.975  35.087   0.173
58989W        W30605  26.661  24.477  14.025
58990W        W30606  37.964   5.538  13.267
58991W        W30607   5.628  44.379   4.757
58992W        W30608   3.864   5.626  11.628
58993W        W30609   2.604  44.930  10.617
58994W        W30610  10.863   2.859   3.247
58995W        W30611  26.607  36.028   1.474
58996W        W30612   1.508   7.204   3.816
58997W        W30613  35.470  33.159  13.529
58998W        W30614  29.443  15.284   1.281
58999W        W30615  14.642  37.401  12.079
59000W        W30616  13.173  41.739  14.287
59001W        W30617  11.738  42.655   1.306
59002W        W30618   0.434  33.614   4.587
59003W        W30619  38.498  40.316   1.706
59004W        W30620   7.800  22.401  13.052
59005W        W30621  40.753  14.581  12.017
59006W        W30622   8.818  29.575  10.807
59007W        W30623  28.602   0.648  13.140
59008W        W30624  17.164  34.311   2.182
59009W        W30625   4.834  42.301  13.512
59010W        W30626  14.201  15.866  10.022
59011W        W30627  35.104  12.191   4.210
59012W        W30628   7.306  23.229   2.249
59013W        W30629   1.906   8.526   1.739
59014W        W30630  16.357   3.322  11.359
59015W        W30631   9.651  44.781   0.902
59016W        W30632  15.031  14.165  14.437
59017W        W30633  21.717  29.686  14.890
59018W        W30634  44.352  29.427   3.282
59019W        W30635  18.762  19.124  13.530
59020W        W30636  40.018  12.839  11.113
59021W        W30637  26.304  38.886  12.891
59022W        W30638  16.052  12.943   2.269
59023W        W30639  10.325  26.574  14.311
59024W        W30640  42.185  36.899   5.302
59025W        W30641  23.676   7.752  14.966
59026W        W30642  29.189  22.590  14.957
59027W        W30643  17.342  10.830   0.398
59028W        W30644  31.447   8.867   3.757
59029W        W30645  35.817  42.033  11.148
59030W        W30646  32.958   5.213   4.987
59031W        W30647  34.614   3.833   1.414
59032W        W30648  16.705  23.445   4.147
59033W        W30649  30.900  39.277   1.372
59034W        W30650  30.938  26.850  14.086
59035W        W30651  17.752  15.077  10.628
59036W        W30652  12.395  12.673  13.086
59037W        W30653  38.397  43.889   0.703
59038W        W30654  11.197  31.910   1.777
59039W        W30655   8.926  38.523   4.657
59040W        W30656  19.127  31.458   2.293
59041W        W30657  20.583  24.543  10.785
59042W        W30658  17.717   5.951   0.800
59043W        W30659  15.790   7.597  11.492
59044W        W30660  24.654   8.391  14.831
59045W        W30661  33.953   8.443   3.130
59046W        W30662  31.188  43.395   2.207
59047W        W30663  18.552  30.867   9.861
59048W        W30664  37.512  33.333   2.743
59049W        W30665   0.016   1.792  13.544
59050W        W30666   5.724   9.759   3.334
59051W        W30667  33.312   4.844   4.965
59052W        W30668  27.908  39.750   0.792
59053W        W30669  23.741   4.592  14.708
59054W        W30670   2.408  19.182  14.314
59055W        W30671   9.760   0.536  11.159
59056W        W30672   1.456  23.336   2.723
59057W        W30673   1.464  27.216   1.231
59058W        W30674  43.472  25.398  14.379
59059W        W30675  24.340  44.956  10.871
59060W        W30676  21.772  24.666   3.248
59061W        W30677   1.732   4.836  11.371
59062W        W30678  32.627   3.418   2.409
59063W        W30679   9.434  40.868   3.297
59064W        W30680  36.395  11.426  11.589
59065W        W30681  15.361  18.564  13.818
59066W        W30682  32.295  30.355  11.166
59067W        W30683  18.118  29.982  13.436
59068W        W30684  18.600  43.030  11.984
59069W        W30685  35.773  35.960   0.366
59070W        W30686  21.219  14.826  13.649
59071W        W30687   5.191  41.373   4.254
59072W        W30688  24.232  40.895   4.337
59073W        W30689  36.147   5.834  12.660
59074W        W30690  18.176  40.589  11.984
59075W        W30691  17.538  24.019  12.958
59076W        W30692  13.682  24.996  11.431
59077W        W30693  10.232  20.259  11.507
59078W        W30694  28.108   3.883   3.740
59079W        W30695  20.337  31.143  12.947
59080W        W30696  12.849  16.803   3.263
59081W        W30697  28.818  44.396   4.838
59082W        W30698  33.633  21.013  11.627
59083W        W30699  17.565  38.070  12.459
59084W        W30700  18.809  10.522   4.906
59085W        W30701  39.243  18.288  11.869
59086W        W30702  24.092  13.509  13.388
59087W        W30703  18.544  16.624  12.345
59088W        W30704  28.577  22.253  10.622
59089W        W30705  14.333  17.702   1.314
59090W        W30706  13.827  16.008  10.401
59091W        W30707  30.122  36.605   3.071
59092W        W30708  32.156   6.274   2.695
59093W        W30709   7.684  25.674  11.581
59094W        W30710   9.290   1.465  11.186
59095W        W30711  11.591  22.189  12.635
59096W        W30712  38.054  13.629  11.831
59097W        W30713   8.067  21.797  13.837
59098W        W30714  43.788  42.509   3.957
59099W        W30715  41.740  21.015  10.805
59100W        W30716  29.439  36.302  14.873
59101W        W30717  38.468  20.620  14.590
59102W        W30718  41.440  36.059  13.371
59103W        W30719  16.876  12.793   0.401
59104W        W30720  13.075   2.943   1.816
59105W        W30721  37.228  29.924   2.802
59106W        W30722  14.320   2.916  13.005
59107W        W30723  39.141  41.891   0.784
59108W        W30724   9.206  22.200  13.132
59109W        W30725  29.970   7.857  14.944
59110W        W30726  24.663  19.155  14.636
59111W        W30727  24.787  28.055   2.276
59112W        W30728   0.492  44.199  11.115
59113W        W30729  39.395  14.144   0.140
59114W        W30730  35.988  27.508   2.264
59115W        W30731  38.238  10.708   1.807
59116W        W30732  36.396  22.672   0.959
59117W        W30733  34.882   0.192  11.495
59118W        W30734  22.173  34.956   0.933
59119W        W30735  28.609  19.172   3.677
59120W        W30736  15.663  29.469  13.952
59121W        W30737   4.470  38.556  12.417
59122W        W30738  36.422  30.333  11.166
59123W        W30739  34.946  23.908   2.676
59124W        W30740   6.254   8.956  12.568
59125W        W30741  23.169   8.232   1.393
59126W        W30742   2.458  40.203   4.774
59127W        W30743   1.543  22.241   0.289
59128W        W30744   6.814  10.964  10.781
59129W        W30745   0.664  21.599  12.030
59130W        W30746  36.553  16.057  10.509
59131W        W30747  10.400  44.910   1.860
59132W        W30748  24.558  20.580   4.530
59133W        W30749  43.322  28.683  12.132
59134W        W30750  21.709  12.842  11.174
59135W        W30751  41.564  19.048   4.276
59136W        W30752   4.176   6.307   4.791
59137W        W30753   3.195  14.740  12.329
59138W        W30754  21.009  18.975  13.949
59139W        W30755   2.953  27.569  11.654
59140W        W30756  43.359  14.041   5.250
59141W        W30757  21.666  16.209   0.628
59142W        W30758   5.182  11.878   4.755
59143W        W30759  24.506  42.399   1.133
59144W        W30760   6.226  20.753   1.539
59145W        W30761  19.762  10.674  11.453
59146W        W30762   3.193  32.941  14.565
59147W        W30763   7.996   1.172   4.510
59148W        W30764  32.543  42.997   5.216
59149W        W30765  27.044  28.665  13.853
59150W        W30766  10.653  21.573  14.911
59151W        W30767  11.309  32.391   1.948
59152W        W30768  19.190  30.595   1.704
59153W        W30769  14.120   9.784  13.414
59154W        W30770  16.549   4.373   0.751
59155W        W30771  14.215  22.676  12.035
59156W        W30772  15.094   1.206   2.790
59157W        W30773  14.294   8.830  14.421
59158W        W30774  13.421  37.282  14.912
59159W        W30775  16.853  27.987  12.456
59160W        W30776   4.381  37.880   0.261
59161W        W30777  16.010   1.428   3.821
59162W        W30778  31.041  37.496   0.738
59163W        W30779  35.884  13.784   3.930
59164W        W30780  25.580   5.134  12.504
59165W        W30781  39.891  27.224   2.824
59166W        W30782   8.422  44.825   4.147
59167W        W30783  41.737  12.020  14.338
59168W        W30784  21.056   4.852   4.471
59169W        W30785  29.923  37.982  14.444
59170W        W30786   1.007  37.818  10.394
59171W        W30787  35.517  21.499  11.049
59172W        W30788   1.466   2.659  11.092
59173W        W30789  38.042  28.099   1.913
59174W        W30790  15.285  38.914  10.746
59175W        W30791  16.005  33.186  13.095
59176W        W30792   9.332  38.465  11.638
59177W        W30793  35.182  30.729   1.823
59178W        W30794  42.915  41.836  13.303
59179W        W30795  24.062  30.392   1.936
59180W        W30796  42.197  33.386   0.944
59181W        W30797  30.123   8.749   1.786
59182W        W30798  27.600  24.721   1.685
59183W        W30799  32.394  10.953  13.963
59184W        W30800  18.347  44.807  14.258
59185W        W30801  34.532   3.175   3.394
59186W        W30802  18.821  29.180  11.847
59187W        W30803   1.348  44.290  14.370
59188W        W30804  28.610   5.326  13.533
59189W        W30805  12.414  44.806   1.768
59190W        W30806  17.458  19.159  10.489
59191W        W30807  25.116  13.620  14.789
59192W        W30808  30.520  10.627   1.045
59193W        W30809   0.522  36.157  14.315
59194W        W30810  24.878  37.578   3.575
59195W        W30811  21.229  30.604   9.982
59196W        W30812   1.427  33.949  10.952
59197W        W30813   6.126  32.485  13.169
59198W        W30814  42.293  23.474   3.157
59199W        W30815  15.437  28.750   3.768
59200W        W30816  26.876   8.352   2.782
59201W        W30817   7.777  34.364  11.374
59202W        W30818  15.502  26.241   1.282
59203W        W30819   3.243  33.569   3.329
59204W        W30820  35.382  15.991  10.622
59205W        W30821  11.828   0.576  14.878
59206W        W30822  31.554   1.285   2.395
59207W        W30823  40.225  13.087  13.984
59208W        W30824  11.619   5.862  12.427
59209W        W30825  20.595  25.453   4.012
59210W        W30826   0.762  33.057   2.433
59211W        W30827  31.020  23.848   5.074
59212W        W30828   5.798   8.234   2.466
59213W        W30829  25.669  36.972   3.087
59214W        W30830  22.106  10.286   4.151
59215W        W30831  44.959   1.583  11.548
59216W        W30832  35.115  11.186  12.076
59217W        W30833  14.463  43.241   4.627
59218W        W30834  38.924  31.060   1.104
59219W        W30835  10.136   6.799  13.378
59220W        W30836  44.364  32.624   0.799
59221W        W30837  18.662  22.603  11.120
59222W        W30838  32.135   3.282  12.516
59223W        W30839  38.300  12.113   3.672
59224W        W30840  43.281  23.327   4.107
59225W        W30841  14.976  26.496  12.689
59226W        W30842  28.413  43.995   1.829
59227W        W30843  13.746   0.156  12.469
59228W        W30844  30.690  19.017   4.760
59229W        W30845  27.697  42.081  14.268
59230W        W30846  40.507  41.580  12.945
59231W        W30847  10.166  17.773   3.672
59232W        W30848  10.267   5.912  13.478
59233W        W30849  26.029  30.542   2.126
59234W        W30850  26.871  25.477   1.366
59235W        W30851  12.239  21.082   3.064
59236W        W30852   9.711   0.288   2.788
59237W        W30853  31.978  20.202   4.559
59238W        W30854  37.048  32.391   1.939
59239W        W30855  12.432  25.498   3.333
59240W        W30856  10.640  24.559  14.516
59241W        W30857  21.647  15.205   4.888
59242W        W30858  17.635   3.192  13.563
59243W        W30859  34.211  44.524   9.759
59244W        W30860  30.242  11.776   4.159
59245W        W30861  33.987  22.847   1.190
59246W        W30862  40.925  36.506  11.278
59247W        W30863  42.448  31.197   4.791
59248W        W30864  35.811  20.615  12.821
59249W        W30865  19.322  24.697  14.435
59250W        W30866  13.128  35.872  10.890
59251W        W30867   1.894  14.300   2.084
59252W        W30868  43.866  41.181  14.496
59253W        W30869  43.526  19.994   4.460
59254W        W30870  13.676  25.787  14.955
59255W        W30871  18.873  27.996  12.119
59256W        W30872   1.392  31.555  12.489
59257W        W30873  17.987   7.306   4.019
59258W        W30874  17.058  31.503   1.661
59259W        W30875   2.209   2.061  11.591
59260W        W30876  35.494  31.216   0.399
59261W        W30877  20.611  43.978   2.158
59262W        W30878  36.483   8.151   4.986
59263W        W30879   2.610   9.303  12.082
59264W        W30880  23.402  40.784   2.364
59265W        W30881  32.543   0.331  13.938
59266W        W30882  31.292  41.904   2.210
59267W        W30883  41.748  43.941   3.748
59268W        W30884  33.454   8.619   1.839
59269W        W30885  38.403  42.692   3.522
59270W        W30886  13.992   8.973  10.791
59271W        W30887  40.812  21.878   1.303
59272W        W30888   2.071   9.587  13.063
59273W        W30889  15.711  34.536  14.241
59274W        W30890  33.163  37.599   4.634
59275W        W30891  20.548   0.251  11.919
59276W        W30892   7.826  15.391   1.814
59277W        W30893  12.567   7.530   4.452
59278W        W30894  40.360  17.911  12.056
59279W        W30895  21.804  32.485   2.860
59280W        W30896  24.497  34.582  10.749
59281W        W30897   1.250  27.504   2.552
59282W        W30898   2.013  33.574  12.110
59283W        W30899  26.216   4.933   3.694
59284W        W30900  14.669  29.480   4.558
59285W        W30901  23.075  12.018  13.503
59286W        W30902  37.622  16.813  14.424
59287W        W30903  32.865  18.813  12.464
59288W        W30904  21.036  35.117   0.842
59289W        W30905  18.176  32.935  12.988
59290W        W30906   5.776  35.101   3.209
59291W        W30907  10.657   7.381   1.245
59292W        W30908  26.520  24.182   4.469
59293W        W30909  20.324  44.735  12.755
59294W        W30910  29.078  15.094  10.927
59295W        W30911   1.798  20.581   4.706
59296W        W30912  25.735   3.711   3.717
59297W        W30913   2.065  32.491   0.865
59298W        W30914  35.991   8.180  10.927
59299W        W30915  31.962  15.949   2.779
59300W        W30916  40.829   9.838   1.814
59301W        W30917  24.107   2.151   3.280
59302W        W30918  10.668   9.962   3.311
59303W        W30919  23.956  40.874  12.873
59304W        W30920  17.130  36.966  12.201
59305W        W30921  14.790  24.361  13.807
59306W        W30922  40.370  19.324  14.234
59307W        W30923  24.544   1.487  13.412
59308W        W30924  43.755   5.131   4.040
59309W        W30925  37.945   9.690   1.287
59310W        W30926   5.835  33.628  12.582
59311W        W30927  21.667  21.756   4.369
59312W        W30928  17.033  37.617   3.633
59313W        W30929   4.428   9.519   0.446
59314W        W30930  36.846   6.474  10.627
59315W        W30931  41.826   1.393   3.175
59316W        W30932  10.466  30.200   2.536
59317W        W30933  13.137  18.537   1.950
59318W        W30934  23.981  28.978   3.354
59319W        W30935  22.264  43.846  10.429
59320W        W30936  15.864   9.428   4.765
59321W        W30937  35.690  36.837   0.496
59322W        W30938  44.933  33.023  11.800
59323W        W30939   3.769  28.015  13.641
59324W        W30940  44.802   4.668   4.631
59325W        W30941  40.877  15.520  11.131
59326W        W30942   4.173   0.138   1.490
59327W        W30943  37.913   2.315  14.862
59328W        W30944  24.712  33.314   4.697
59329W        W30945  14.252  24.461  13.628
59330W        W30946  22.535  29.658  11.642
59331W        W30947  20.401  12.684  14.592
59332W        W30948  33.685  14.112  10.764
59333W        W30949  41.097  26.546   3.631
59334W        W30950  21.087  25.574  14.570
59335W        W30951  33.531  14.205  14.020
59336W        W30952   3.953   7.167   0.865
59337W        W30953  32.639  31.065   0.284
59338W        W30954  19.086  36.343  11.198
59339W        W30955  27.875  32.994   0.183
59340W        W30956   3.090  15.149  13.465
59341W        W30957   3.748   0.240   3.809
59342W        W30958  13.821   4.365  14.101
59343W        W30959  37.540  43.967   1.227
59344W        W30960  11.665  26.194  14.843
59345W        W30961  44.754  21.717   1.083
59346W        W30962  15.993  43.072  13.874
59347W        W30963  26.025  10.396   2.973
59348W        W30964  29.125  39.771  10.457
59349W        W30965  41.323  15.269  11.111
59350W        W30966   6.129  44.386   4.953
59351W        W30967  43.038  27.399  11.636
59352W        W30968  18.870  21.807  14.353
59353W        W30969  21.204  33.396  12.485
59354W        W30970  25.858  27.140   0.002
59355W        W30971  29.713  27.821   3.749
59356W        W30972  31.874  21.397  11.334
59357W        W30973  28.114  34.142   0.114
59358W        W30974  25.138  11.454  11.109
59359W        W30975   8.632  18.712   3.722
59360W        W30976  12.856  16.764  13.961
59361W        W30977  42.344  25.027  12.251
59362W        W30978  13.345  15.508   0.138
59363W        W30979  23.700   8.346  13.315
59364W        W30980  22.785  15.380   2.683
59365W        W30981  13.711  17.154   2.316
59366W        W30982   6.579  27.030  11.287
59367W        W30983  16.117  33.904  14.876
59368W        W30984   7.640  36.074   0.889
59369W        W30985  11.146  39.364  10.917
59370W        W30986   9.244  26.690  11.539
59371W        W30987  39.701  25.529  13.821
59372W        W30988  32.136  41.571  13.055
59373W        W30989   2.907  31.520  11.657
59374W        W30990  44.824  25.662   3.214
59375W        W30991  24.009  22.665  10.094
59376W        W30992  13.226  40.225   4.849
59377W        W30993  39.783  44.868  11.488
59378W        W30994  22.348  36.818   3.667
59379W        W30995  31.553   5.463  14.372
59380W        W30996  38.086  25.443  14.959
59381W        W30997  35.820  37.480  11.540
59382W        W30998  19.514  40.052  14.378
59383W        W30999  34.872  20.703  12.359
59384W        W31000  21.020  32.161  11.300
59385W        W31001  30.511  10.230  10.936
59386W        W31002  33.334  22.208   0.310
59387W        W31003   0.443  14.222  10.963
59388W        W31004   7.341  30.946   3.410
59389W        W31005   3.705  42.729  11.594
59390W        W31006  35.008   7.709   4.263
59391W        W31007  36.922  11.055   2.182
59392W        W31008  17.193  15.534   4.790
59393W        W31009   9.880  21.725   0.852
59394W        W31010  19.098   0.246  14.797
59395W        W31011  16.622   0.433  10.448
59396W        W31012  20.719  19.473   4.292
59397W        W31013  39.174  28.553   1.746
59398W        W31014  33.203  37.553   2.774
59399W        W31015   5.104  28.327   3.155
59400W        W31016  33.588  23.032   3.819
59401W        W31017  17.423   1.862   1.783
59402W        W31018  27.442   0.603   1.673
59403W        W31019  15.633  13.680   4.168
59404W        W31020  11.689   2.998  14.525
59405W        W31021  15.711  13.091   1.914
59406W        W31022   6.806  32.996  11.999
59407W        W31023  27.653  12.229  11.179
59408W        W31024  22.746   2.409   1.934
59409W        W31025  38.314  11.361  11.559
59410W        W31026  37.284  31.130   3.800
59411W        W31027  42.494   9.899  14.860
59412W        W31028  18.117  29.687   2.731
59413W        W31029   8.273  19.139  10.971
59414W        W31030   8.343   9.202  12.302
59415W        W31031  32.147   7.253   3.356
59416W        W31032  42.847  13.572   3.316
59417W        W31033  17.844   7.331  14.592
59418W        W31034  42.200  38.302   5.069
59419W        W31035  26.682   5.963  13.544
59420W        W31036  14.005  42.038  12.448
59421W        W31037  20.788  14.165  13.530
59422W        W31038   0.744  25.856   2.600
59423W        W31039  40.792   5.689   0.960
59424W        W31040  27.460  30.665  13.110
59425W        W31041  39.104   4.998  11.282
59426W        W31042  19.809   4.874   0.249
59427W        W31043  20.060  30.218   4.099
59428W        W31044  17.854  44.712   5.028
59429W        W31045  18.158   9.576  14.314
59430W        W31046  18.077  17.803  12.131
59431W        W31047   5.729  23.171   1.826
59432W        W31048  36.615  42.026   3.754
59433W        W31049  10.991  38.254   3.176
59434W        W31050  42.300  28.165  11.559
59435W        W31051  42.554  35.935   0.898
59436W        W31052  21.322  32.312   2.735
59437W        W31053  17.524  20.949  12.094
59438W        W31054  15.297  31.693  10.233
59439W        W31055  23.345  21.884   1.287
59440W        W31056  39.468  11.230  14.412
59441W        W31057  21.073  38.897  11.058
59442W        W31058  35.595  25.763  11.532
59443W        W31059  33.299  40.243   0.285
59444W        W31060  17.169  17.163  12.136
59445W        W31061  34.211  42.874  10.813
59446W        W31062  35.179   9.497  12.743
59447W        W31063  31.930  18.485   1.236
59448W        W31064   4.219  32.669   2.868
59449W        W31065  26.213   8.835   2.970
59450W        W31066  14.704  18.737  12.667
59451W        W31067  27.629  38.832  11.644
59452W        W31068  24.482  22.200  12.022
59453W        W31069  25.947  36.459  11.641
59454W        W31070  33.388  43.023   4.047
59455W        W31071  10.192   6.682   4.499
59456W        W31072  19.830  26.890   4.713
59457W        W31073  30.911  21.851   3.285
59458W        W31074   9.822  23.297   2.204
59459W        W31075  43.805  21.080   2.775
59460W        W31076   7.244  37.447  12.627
59461W        W31077  32.876  16.156   4.801
59462W        W31078  14.208   9.884   4.166
59463W        W31079  13.600  16.729   0.825
59464W        W31080   0.293  16.937  12.651
59465W        W31081  21.825  39.400  12.547
59466W        W31082  43.452  13.814   0.273
59467W        W31083  38.066   4.030  11.050
59468W        W31084  29.422   5.409  11.978
59469W        W31085  16.533  42.031   0.801
59470W        W31086  18.890  39.800  11.377
59471W        W31087   7.126  15.336  12.333
59472W        W31088  14.454  26.019   2.750
59473W        W31089  19.770  19.098   0.563
59474W        W31090  27.998   8.712   2.458
59475W        W31091   1.707  41.801   4.065
59476W        W31092  39.666  42.901   1.300
59477W        W31093  31.468  30.197  14.312
59478W        W31094  43.554  31.101   0.371
59479W        W31095  17.261  20.027  10.649
59480W        W31096  20.100  43.254   1.829
59481W        W31097  42.103  21.056   1.783
59482W        W31098  27.103   6.922  11.588
59483W        W31099   3.278   5.258  13.815
59484W        W31100   8.221  42.484   1.952
59485W        W31101  16.640  22.147  13.797
59486W        W31102  22.884  11.688  14.814
59487W        W31103  22.265  10.679  14.210
59488W        W31104   3.480   0.791  11.569
59489W        W31105  13.175  30.134   0.059
59490W        W31106  17.533  36.021  11.124
59491W        W31107  12.332  19.597  10.835
59492W        W31108  34.944  30.629  14.858
59493W        W31109  42.887  20.057   3.906
59494W        W31110  34.182   6.247  13.045
59495W        W31111  30.372  10.274   3.732
59496W        W31112   4.852  44.262   4.636
59497W        W31113  22.273  36.980   4.615
59498W        W31114  29.219  26.927   3.906
59499W        W31115  31.624  24.045  13.094
59500W        W31116  12.117  34.050  12.413
59501W        W31117   8.995  26.545  13.371
59502W        W31118  43.983  18.224   4.746
59503W        W31119  25.994  22.357  11.122
59504W        W31120  41.435   3.958   1.937
59505W        W31121   4.815  16.717  11.423
59506W        W31122   8.752  12.870   1.031
59507W        W31123  29.657   3.883  11.937
59508W        W31124  10.258  40.577  12.340
59509W        W31125  20.328  40.486  12.410
59510W        W31126  17.236  31.833  12.077
59511W        W31127  31.019  28.122   0.930
59512W        W31128   4.170   6.945  14.411
59513W        W31129  10.297  29.041   3.784
59514W        W31130  17.206  25.679  10.665
59515W        W31131  12.165   9.276   1.970
59516W        W31132  24.130  10.144  12.070
59517W        W31133   8.233  11.783  11.664
59518W        W31134   6.915   6.908  12.673
59519W        W31135   5.852   2.717   2.632
59520W        W31136  27.754   6.676  12.996
59521W        W31137  28.277  40.410  12.765
59522W        W31138  13.675   5.340   3.916
59523W        W31139  33.645  29.133   4.567
59524W        W31140  34.464  23.824   3.672
59525W        W31141  42.521  19.868  11.699
59526W        W31142  27.458  38.371   3.390
59527W        W31143   1.205   1.341  10.832
59528W        W31144  33.534   6.700   2.131
59529W        W31145  11.609  24.947  12.953
59530W        W31146  34.631   9.164   4.216
59531W        W31147  39.547   7.420   4.124
59532W        W31148  18.010   2.566   1.786
59533W        W31149  37.940  37.036  14.529
59534W        W31150  14.589  22.579   1.204
59535W        W31151  29.976   2.603  11.126
59536W        W31152  36.472   3.471   1.578
59537W        W31153   3.825  24.361   9.794
59538W        W31154   4.473  29.785  14.408
59539W        W31155  20.530  33.900  11.117
59540W        W31156  27.616  43.135   1.763
59541W        W31157  41.048  10.304   2.660
59542W        W31158  32.459  40.294   4.159
59543W        W31159  31.153  32.810  12.868
59544W        W31160  21.171  24.262  10.815
59545W        W31161  34.520  40.407  11.992
59546W        W31162   5.861  11.064   1.313
59547W        W31163  34.773  33.069   2.090
59548W        W31164  26.366  13.993  10.307
59549W        W31165  39.756  17.279   1.039
59550W        W31166   8.977   1.037  12.916
59551W        W31167  20.075  42.004   2.310
59552W        W31168   7.821  36.581  14.035
59553W        W31169  39.733  15.692   3.133
59554W        W31170  18.607  41.050   3.812
59555W        W31171  40.324   3.527   0.996
59556W        W31172  23.943  13.280   2.716
59557W        W31173  26.921  37.517  14.844
59558W        W31174  15.264  25.095   3.156
59559W        W31175  14.163  40.508   1.391
59560W        W31176  33.114  31.630   4.215
59561W        W31177  24.456   1.013   0.919
59562W        W31178   1.016  27.493   1.360
59563W        W31179  35.334  40.014   0.826
59564W        W31180  43.633  30.449  13.880
59565W        W31181  38.530   7.454  10.674
59566W        W31182  13.230  20.923   2.230
59567W        W31183  31.251  40.244  13.051
59568W        W31184  14.029  30.229   3.845
59569W        W31185  30.914   9.965  11.932
59570W        W31186   4.097  23.922  11.987
59571W        W31187  42.539   1.974  11.458
59572W        W31188  17.740  22.184  12.441
59573W        W31189  18.415   0.724  14.067
59574W        W31190   0.983  27.815  13.985
59575W        W31191   9.807   3.800  14.577
59576W        W31192   6.129  11.870   2.630
59577W        W31193  35.506  16.894  11.622
59578W        W31194  38.918  26.472   0.867
59579W        W31195  20.219  28.451  14.486
59580W        W31196  20.543  13.868  14.295
59581W        W31197  10.306  22.107   3.644
59582W        W31198  24.491  15.510  11.191
59583W        W31199  22.534  32.647   0.882
59584W        W31200  18.659  22.451  13.453
59585W        W31201  39.977   2.652   3.233
59586W        W31202  22.558  16.233   3.259
59587W        W31203  13.215  43.519   0.402
59588W        W31204  13.202  20.544  11.906
59589W        W31205   7.753   5.432   3.379
59590W        W31206   9.794  20.543   4.070
59591W        W31207   7.377  17.595   1.934
59592W        W31208  25.097  26.158   3.507
59593W        W31209   1.424   9.345   3.236
59594W        W31210  26.533  34.259   0.449
59595W        W31211  27.985  34.546   4.469
59596W        W31212  30.239  31.522   3.127
59597W        W31213  11.145  17.290  12.308
59598W        W31214   4.109  36.179   4.333
59599W        W31215  33.787  24.071  14.478
59600W        W31216  21.031   6.893   4.398
59601W        W31217  16.758   3.447   4.329
59602W        W31218  20.059  44.930   0.234
59603W        W31219  29.152  38.344  10.553
59604W        W31220  31.187  14.881   4.174
59605W        W31221  11.565   8.126  11.100
59606W        W31222   6.907  16.657   1.292
59607W        W31223  39.489   4.277   1.794
59608W        W31224  14.776  21.768  14.747
59609W        W31225  14.160  41.273   4.421
59610W        W31226  21.149  31.232  14.408
59611W        W31227  22.669  29.136   3.655
59612W        W31228  20.514  36.570  14.738
59613W        W31229  25.217   0.991  11.584
59614W        W31230  19.797  25.947  11.972
59615W        W31231  24.455  23.178  14.926
59616W        W31232  34.982   3.170   3.637
59617W        W31233  28.268  40.998   2.164
59618W        W31234  31.507   3.769   2.601
59619W        W31235  33.448  35.914   0.720
59620W        W31236   6.897  40.458   2.614
59621W        W31237  29.543   8.703  12.649
59622W        W31238  13.281  34.502  11.134
59623W        W31239  20.594  40.484  13.967
59624W        W31240  30.518   0.066  13.491
59625W        W31241  11.096   7.249   3.802
59626W        W31242   9.008  18.249   0.021
59627W        W31243  23.771   2.825   2.770
59628W        W31244  15.212   5.169   3.200
59629W        W31245  23.746  39.457   0.280
59630W        W31246   2.639   0.464  12.934
59631W        W31247  13.659  34.992   4.113
59632W        W31248  34.452  44.317   1.409
59633W        W31249  43.377  26.364   0.548
59634W        W31250  19.984  28.721   3.387
59635W        W31251  38.446   6.443  10.688
59636W        W31252  35.011  41.134  10.628
59637W        W31253   1.469   5.112   2.714
59638W        W31254  25.557   9.403   3.825
59639W        W31255  13.903  42.504  10.771
59640W        W31256  34.529   0.327   4.457
59641W        W31257  19.298  18.264  10.785
59642W        W31258  32.425   0.833  13.028
59643W        W31259  40.309  38.318   2.595
59644W        W31260  12.018   8.418   2.958
59645W        W31261   1.674  38.864  11.600
59646W        W31262  23.893  39.107  12.526
59647W        W31263  39.212  13.341   1.365
59648W        W31264  19.855  44.141   3.882
59649W        W31265  18.794  26.705   0.815
59650W        W31266  31.613  14.800   0.746
59651W        W31267   1.978   7.947   3.820
59652W        W31268  34.963  10.356   2.800
59653W        W31269   0.896  30.531   1.627
59654W        W31270   5.189   8.958  10.562
59655W        W31271  30.151  37.467   4.708
59656W        W31272  19.508  26.615  12.603
59657W        W31273   7.118   6.718   4.846
59658W        W31274   2.665  21.249   1.238
59659W        W31275  12.219   7.128  14.288
59660W        W31276  43.298  33.452   1.735
59661W        W31277  25.455   4.410   0.837
59662W        W31278  40.228  14.583   2.304
59663W        W31279  20.172   4.308  12.364
59664W        W31280  43.403  13.291  13.486
59665W        W31281   2.452  14.966  12.018
59666W        W31282  44.949  15.123  12.530
59667W        W31283  26.048  24.675  14.435
59668W        W31284  16.147  17.563  11.585
59669W        W31285  41.723  18.214  12.151
59670W        W31286  19.162  30.717  12.513
59671W        W31287  31.765   1.940  11.958
59672W        W31288  22.089  30.917   0.874
59673W        W31289  13.640  18.057   1.379
59674W        W31290  17.671  20.739  10.341
59675W        W31291  12.987  23.325  10.732
59676W        W31292  28.394   4.510  12.947
59677W        W31293  13.923  18.797   3.924
59678W        W31294  19.626   6.797   1.518
59679W        W31295  16.083   8.418   0.715
59680W        W31296  25.671  18.536   2.222
59681W        W31297  11.676  38.799   3.774
59682W        W31298   8.329  14.801  12.702
59683W        W31299   3.697  22.090   0.168
59684W        W31300  17.330  30.494  13.429
59685W        W31301   9.236  30.471   4.698
59686W        W31302  17.153  13.886  12.620
59687W        W31303  12.267  31.105   0.888
59688W        W31304  23.314  18.780  13.113
59689W        W31305   8.103  34.901   3.668
59690W        W31306  39.238  31.676   2.250
59691W        W31307   5.260   5.549  13.550
59692W        W31308  41.863  41.171  12.401
59693W        W31309   8.001  21.754  12.264
59694W        W31310  34.413  24.898   2.492
59695W        W31311  34.684  40.615   0.743
59696W        W31312  23.552  43.709  13.999
59697W        W31313   2.887   8.613  10.667
59698W        W31314  20.569  14.835  12.875
59699W        W31315  33.037  44.206   4.034
59700W        W31316   1.438   0.925   5.630
59701W        W31317  24.199  20.368   3.199
59702W        W31318  31.905  18.692  12.980
59703W        W31319  25.635  43.994   3.134
59704W        W31320  10.165  17.887   3.172
59705W        W31321   5.432   5.349   2.813
59706W        W31322   0.883  12.636   2.668
59707W        W31323  35.138   9.350   4.634
59708W        W31324  20.827   0.975  12.033
59709W        W31325  35.461  14.543   0.580
59710W        W31326  43.246  37.292   3.357
59711W        W31327  20.502  40.552  11.628
59712W        W31328  11.353  20.604  13.966
59713W        W31329   8.751  14.301   4.968
59714W        W31330  27.114  31.009   3.584
59715W        W31331  14.605  19.191  12.403
59716W        W31332  32.499  19.478  13.909
59717W        W31333  29.611  18.289  14.499
59718W        W31334  37.150  23.317  12.608
59719W        W31335   9.427  35.809   0.719
59720W        W31336  25.346  38.687   2.984
59721W        W31337  32.482  16.289   4.492
59722W        W31338  35.910  30.298  11.154
59723W        W31339  38.549   4.242   2.236
59724W        W31340  29.012   0.121  13.815
59725W        W31341  21.562   7.073  10.602
59726W        W31342  11.346  16.849  14.984
59727W        W31343  10.245  30.808  12.279
59728W        W31344  44.656   3.767   4.534
59729W        W31345  41.921  38.753  14.459
59730W        W31346  27.589   5.157   4.259
59731W        W31347  40.035  17.614   3.309
59732W        W31348   7.405  20.168  14.760
59733W        W31349  21.040  12.548   1.795
59734W        W31350  38.829  37.125   3.309
59735W        W31351   9.908  44.433  14.758
59736W        W31352  17.260  18.268  12.156
59737W        W31353  38.012  34.669   2.857
59738W        W31354   0.977   5.457   3.747
59739W        W31355   1.201  19.832   4.478
59740W        W31356  41.992  43.327   1.477
59741W        W31357   2.241  29.422  12.108
59742W        W31358  18.244  42.468  12.501
59743W        W31359  16.863   6.564   0.581
59744W        W31360  19.497  28.689   0.361
59745W        W31361  39.099  32.586  10.795
59746W        W31362  14.429  40.329   2.920
59747W        W31363  25.135  32.107  14.368
59748W        W31364  42.057  42.018  10.680
59749W        W31365  33.400  26.008  11.242
59750W        W31366   3.313  33.418  13.407
59751W        W31367   5.885   4.222  10.438
59752W        W31368   8.381  12.080   4.485
59753W        W31369  28.490   5.341   1.641
59754W        W31370  37.118  26.466   2.837
59755W        W31371  30.149   3.627  11.096
59756W        W31372  43.930  17.203   2.509
59757W        W31373   3.840  15.389  12.767
59758W        W31374  13.273   9.953   4.538
59759W        W31375  30.977  10.156  11.421
59760W        W31376   9.606  26.423   2.790
59761W        W31377   7.387  40.258   2.690
59762W        W31378  30.801  44.427   4.844
59763W        W31379  22.738  28.481   4.549
59764W        W31380  38.034  28.626  11.739
59765W        W31381  13.073  13.881  11.006
59766W        W31382  24.243  29.673  11.570
59767W        W31383  38.371  14.293   1.261
59768W        W31384   3.280  35.870   2.188
59769W        W31385   7.238  35.576  14.386
59770W        W31386   9.660  15.055  14.044
59771W        W31387  44.051  37.252  10.751
59772W        W31388  15.146  30.029   0.990
59773W        W31389  34.917  44.444  10.205
59774W        W31390  18.603  17.279   4.522
59775W        W31391  34.619  18.137   2.727
59776W        W31392   7.723  17.642  14.152
59777W        W31393  18.815   2.280   2.929
59778W        W31394  11.108   1.518   4.539
59779W        W31395  42.398  24.053   1.905
59780W        W31396  33.522  41.494  11.727
59781W        W31397  41.996  28.688  14.515
59782W        W31398  42.883   7.246  14.305
59783W        W31399  40.798  43.777  11.963
59784W        W31400  10.195  36.487   0.642
59785W        W31401  41.759  32.976  14.274
59786W        W31402   9.572  25.769  10.543
59787W        W31403  34.900  22.026   1.007
59788W        W31404  27.358  10.913   1.861
59789W        W31405  35.360  33.579   1.355
59790W        W31406  21.526   2.487   4.314
59791W        W31407  28.610  15.172  14.669
59792W        W31408  37.601  33.935  13.999
59793W        W31409   6.858   4.649  14.299
59794W        W31410  26.008  24.507   3.923
59795W        W31411  37.389   1.843  10.588
59796W        W31412  11.329  43.302  10.693
59797W        W31413   9.184   5.591   1.738
59798W        W31414  36.468  27.240   4.119
59799W        W31415  36.132   8.353   0.393
59800W        W31416   8.841  16.199  12.553
59801W        W31417  21.894  41.407  12.990
59802W        W31418  14.306  17.351  12.444
59803W        W31419  27.707   2.886  11.945
59804W        W31420   9.283  38.857  14.514
59805W        W31421  43.287   2.841  12.816
59806W        W31422  23.908   5.378  13.326
59807W        W31423  27.680  33.372  13.930
59808W        W31424  27.610   0.201  10.840
59809W        W31425  28.943  13.787   1.939
59810W        W31426  12.815  20.133  14.953
59811W        W31427  19.528  28.505  12.552
59812W        W31428  25.204  16.757  14.939
59813W        W31429   0.744  14.599   3.252
59814W        W31430  29.402  26.946   0.836
59815W        W31431  42.431   2.653   1.875
59816W        W31432  38.846  43.731  13.623
59817W        W31433  37.773  34.190   4.579
59818W        W31434  18.217  33.265   4.125
59819W        W31435  36.436  28.251   4.113
59820W        W31436  29.568  33.465   4.691
59821W        W31437  10.414  18.748   3.741
59822W        W31438  23.492  32.385   2.358
59823W        W31439  27.051  34.249   2.059
59824W        W31440  11.362  29.017   2.877
59825W        W31441  42.744   7.151  13.510
59826W        W31442  14.306   7.656   1.382
59827W        W31443  23.145  32.186  13.778
59828W        W31444  32.055  19.566   3.108
59829W        W31445  14.301  25.004   2.475
59830W        W31446   9.113  18.591   3.626
59831W        W31447   7.324  29.180  14.463
59832W        W31448   7.879  44.303  13.340
59833W        W31449  21.868  36.629   3.471
59834W        W31450   0.433  14.677   1.330
59835W        W31451   2.188  24.774   0.968
59836W        W31452  35.608   1.754   3.680
59837W        W31453  35.416  30.217  11.197
59838W        W31454  19.670  33.975  11.206
59839W        W31455  35.314  44.011   1.442
59840W        W31456  27.233   5.751   0.263
59841W        W31457   2.501  41.259   3.097
59842W        W31458  38.790  12.746  13.678
59843W        W31459   2.822   9.229   3.466
59844W        W31460  34.910  40.590  13.623
59845W        W31461  35.627  12.284   1.391
59846W        W31462  39.486   9.873  13.849
59847W        W31463  24.142  10.614  12.284
59848W        W31464   5.207   5.662   1.399
59849W        W31465  41.279  12.808   3.669
59850W        W31466  16.760  31.047   3.681
59851W        W31467   0.260   2.196  14.332
59852W        W31468  29.699  34.259   3.412
59853W        W31469   7.928  24.600  10.925
59854W        W31470   3.901  19.838   0.808
59855W        W31471  13.307  38.046  14.253
59856W        W31472  32.918  40.283  11.513
59857W        W31473  22.160  18.793   3.641
59858W        W31474  38.840   5.437  12.055
59859W        W31475  14.817  19.056   2.727
59860W        W31476  22.963  26.448  11.127
59861W        W31477  13.902   6.729   2.426
59862W        W31478  20.221  11.633   2.368
59863W        W31479  42.542  31.696  14.889
59864W        W31480  11.097  41.978  12.030
59865W        W31481  40.263  40.951   1.451
59866W        W31482  36.757  20.062  12.797
59867W        W31483  36.702  17.350  12.096
59868W        W31484  41.117   9.269  14.904
59869W        W31485  15.139  14.541   0.454
59870W        W31486  42.854  35.443  13.284
59871W        W31487  29.756  20.945  13.150
59872W        W31488  42.191  30.365  14.283
59873W        W31489  21.528  21.036  14.483
59874W        W31490   1.269  39.011  12.473
59875W        W31491  23.501  25.168  12.919
59876W        W31492   1.981   0.199  13.662
59877W        W31493   9.598  38.958  12.856
59878W        W31494  23.178   6.167  11.525
59879W        W31495   2.349  26.716   1.487
59880W        W31496  36.174  25.458   2.294
59881W        W31497  29.001  20.526   0.537
59882W        W31498   5.942  24.729  12.258
59883W        W31499  12.939   5.995  14.489
59884W        W31500  33.572  19.940  12.865
59885W        W31501  43.806   4.723   3.303
59886W        W31502   0.755  23.726   3.992
59887W        W31503  39.995  10.281   1.925
59888W        W31504   6.415  38.876  11.563
59889W        W31505  38.541  15.110  13.440
59890W        W31506  23.161   7.845  10.570
59891W        W31507  35.344   1.211  12.914
59892W        W31508  20.322  22.839  13.961
59893W        W31509  23.055   7.369  10.811
59894W        W31510  25.795  28.388   4.114
59895W        W31511  13.664   7.889   0.530
59896W        W31512  20.140  15.908   3.791
59897W        W31513  42.771  31.306  11.264
59898W        W31514  15.124   5.733  14.429
59899W        W31515  11.199   5.757   0.429
59900W        W31516  39.481  20.399   2.339
59901W        W31517  39.907  32.019  10.195
59902W        W31518  14.283   8.401   1.739
59903W        W31519  24.702  20.443  12.458
59904W        W31520  14.565  16.583   0.031
59905W        W31521  32.952   8.111  12.907
59906W        W31522  35.563   0.730  12.951
59907W        W31523  39.988   2.199  10.774
59908W        W31524   4.373  14.900  11.078
59909W        W31525  34.161  42.578  11.940
59910W        W31526  20.932   4.176  13.842
59911W        W31527  32.127  33.583  11.564
59912W        W31528  23.755  30.695  11.113
59913W        W31529  32.593  11.262  13.441
59914W        W31530  11.706   5.615   1.150
59915W        W31531  12.165   0.250  13.098
59916W        W31532   1.711  17.612   1.955
59917W        W31533  28.405  13.627   3.729
59918W        W31534  15.038  31.437  13.024
59919W        W31535  21.218  25.233   2.235
59920W        W31536  15.744  14.661  14.914
59921W        W31537  26.424  17.152  12.256
59922W        W31538  13.179   8.420   3.641
59923W        W31539  37.823  41.067  12.296
59924W        W31540  33.191  26.120   3.638
59925W        W31541  26.933  30.570   1.515
59926W        W31542  22.148  26.340   2.707
59927W        W31543  15.292   8.607   3.281
59928W        W31544  17.364  32.436  14.082
59929W        W31545  43.999  16.768   1.443
59930W        W31546  40.269  33.075   3.515
59931W        W31547  19.559  20.404   1.107
59932W        W31548  24.497  18.964  13.474
59933W        W31549   9.848  15.057  11.823
59934W        W31550  33.530  28.461   2.428
59935W        W31551  43.361  23.678  11.624
59936W        W31552   8.654  22.327   4.149
59937W        W31553  20.140  43.811   9.993
59938W        W31554  28.117  40.917  11.136
59939W        W31555   9.497  12.688   3.255
59940W        W31556   9.869   0.800   2.764
59941W        W31557  43.368  41.962   3.359
59942W        W31558   6.012   5.990   2.756
59943W        W31559  12.067  12.164  14.242
59944W        W31560  43.242  38.447  11.566
59945W        W31561  31.331  19.300   2.849
59946W        W31562  16.692  22.757   3.204
59947W        W31563  43.254  42.206   4.372
59948W        W31564  15.710  36.865  12.906
59949W        W31565  22.281  32.411  13.833
59950W        W31566  23.157  14.024   4.568
59951W        W31567  38.699  11.569  13.929
59952W        W31568  32.380  22.165   4.637
59953W        W31569  15.787  20.285  14.386
59954W        W31570  22.997   0.847   3.526
59955W        W31571  23.118   4.287   3.687
59956W        W31572   7.497   3.995  13.148
59957W        W31573  24.128  43.604  14.769
59958W        W31574  27.872  12.929  10.789
59959W        W31575  15.315  29.524   3.178
59960W        W31576  22.499   7.836   1.433
59961W        W31577  35.076  44.450  14.725
59962W        W31578   7.341   4.978   2.251
59963W        W31579  11.302  18.578   4.659
59964W        W31580  34.590  20.078   3.224
59965W        W31581  36.826  31.364   3.786
59966W        W31582  11.699  36.482  10.353
59967W        W31583  38.318   5.280  10.893
59968W        W31584  21.330  23.552   4.327
59969W        W31585   9.737  25.013  14.445
59970W        W31586  32.896  13.647  14.881
59971W        W31587  27.454   8.699   4.134
59972W        W31588  11.197  17.626  13.446
59973W        W31589  15.061  18.192  11.891
59974W        W31590  40.861   3.625  12.834
59975W        W31591  22.779  44.441   4.619
59976W        W31592  24.462  32.026  10.604
59977W        W31593  28.062  41.494  14.862
59978W        W31594  20.250  17.690   0.384
59979W        W31595  11.147  25.256  13.003
59980W        W31596  22.502  31.645   2.709
59981W        W31597  39.801  37.410   1.840
59982W        W31598  26.915  18.603  14.857
59983W        W31599  30.449   3.750   2.335
59984W        W31600   3.967  23.310  12.047
59985W        W31601  31.650  15.808  14.848
59986W        W31602  24.236  23.760  13.940
59987W        W31603  27.744  25.206  14.053
59988W        W31604   4.969  23.396   1.414
59989W        W31605   9.241  43.462   2.734
59990W        W31606  37.419  32.597  12.551
59991W        W31607  33.188  34.084   1.212
59992W        W31608  27.875  11.205   1.839
59993W        W31609  39.521  18.616   4.596
59994W        W31610  11.613  21.663  13.815
59995W        W31611  29.249  23.270  14.359
59996W        W31612  18.095   4.672   2.338
59997W        W31613  36.548  37.477  10.669
59998W        W31614  40.302   3.340  14.785
59999W        W31615   5.740  27.581  13.489
60000W        W31616   5.491  22.653   1.334
60001W        W31617   4.341   0.360  10.609
60002W        W31618   7.333  33.957  12.895
60003W        W31619  20.793  32.175  11.938
60004W        W31620  35.033  32.392   0.426
60005W        W31621  26.462  23.282   4.281
60006W        W31622  31.890  29.133  11.375
60007W        W31623  16.283  42.843   3.466
60008W        W31624  30.260  19.655   3.139
60009W        W31625  23.306   5.879  12.400
60010W        W31626  32.476  37.027   2.606
60011W        W31627  19.730   6.292   3.282
60012W        W31628  21.307  31.394  11.603
60013W        W31629  13.724  30.559  13.063
60014W        W31630  41.545  42.472   2.301
60015W        W31631  26.639   2.360  14.587
60016W        W31632   7.466  12.812   3.620
60017W        W31633  34.516   7.017  12.956
60018W        W31634   3.475  41.979   5.214
60019W        W31635  14.801  23.103   4.553
60020W        W31636  26.793  12.981   1.754
60021W        W31637  39.000  21.214  13.881
60022W        W31638  23.287  11.555  12.903
60023W        W31639  19.266   9.548  14.365
60024W        W31640  44.762  36.887   0.058
60025W        W31641   7.344  20.171   3.176
60026W        W31642  19.813  28.903  12.735
60027W        W31643  14.337  36.716  10.718
60028W        W31644   0.753   8.554  12.415
60029W        W31645  10.082  43.071   1.815
60030W        W31646   7.172   1.745   2.440
60031W        W31647  16.096   2.210   2.181
60032W        W31648  37.949   8.608   1.219
60033W        W31649  16.445  34.913   4.740
60034W        W31650  32.449   3.759  11.133
60035W        W31651   8.789  44.221   5.106
60036W        W31652   5.511  38.066   0.970
60037W        W31653  12.132  11.249   4.398
60038W        W31654  40.486   0.508   3.749
60039W        W31655  24.551  12.909  13.174
60040W        W31656  38.332   5.391  11.912
60041W        W31657  13.642  36.295   2.828
60042W        W31658  10.843   5.591  11.860
60043W        W31659   7.169  18.010   0.399
60044W        W31660  14.329   6.566   5.501
60045W        W31661   7.419  32.867   3.172
60046W        W31662  44.522  41.977  11.585
60047W        W31663  39.937  22.687  12.310
60048W        W31664  41.277  22.771  13.267
60049W        W31665  27.047  42.833  10.514
60050W        W31666   6.961  13.176  13.932
60051W        W31667  42.105   7.072   0.484
60052W        W31668  15.755  12.126  12.690
60053W        W31669  33.975   7.408  10.658
60054W        W31670  37.929   2.358   3.351
60055W        W31671  12.534  23.764  13.007
60056W        W31672  23.904   2.817  14.350
60057W        W31673  23.494  15.633  11.619
60058W        W31674  15.617   8.829   1.441
60059W        W31675  35.317  25.392   0.493
60060W        W31676  15.589   9.866   4.754
60061W        W31677  42.682  24.943   2.431
60062W        W31678  39.943  22.497   1.500
60063W        W31679  31.227  21.474   4.228
60064W        W31680  37.580  29.534  10.899
60065W        W31681  38.806  38.019  11.100
60066W        W31682  12.205  44.245   1.745
60067W        W31683  34.445   5.017  11.379
60068W        W31684  34.811  21.320   5.193
60069W        W31685  33.006  11.767   3.239
60070W        W31686   6.955  12.366  14.571
60071W        W31687  43.740  18.986   1.303
60072W        W31688  43.114   0.917  11.203
60073W        W31689   4.476  15.149   4.024
60074W        W31690  37.078  22.597  11.104
60075W        W31691  30.106  39.911  12.518
60076W        W31692  33.514  44.801  12.957
60077W        W31693  12.808   8.862  14.204
60078W        W31694   8.942  35.894  13.470
60079W        W31695   7.197  37.685   4.043
60080W        W31696   4.385  35.851   1.022
60081W        W31697  43.825   6.460   1.770
60082W        W31698  37.556  41.366  12.617
60083W        W31699  17.253  28.965   2.263
60084W        W31700  12.259  17.904   0.368
60085W        W31701  18.801  24.145   1.713
60086W        W31702  40.986  34.318  12.508
60087W        W31703  23.019  36.061   4.564
60088W        W31704  36.319  38.825  11.112
60089W        W31705   4.649  10.088   2.406
60090W        W31706  20.030  10.417  10.716
60091W        W31707  35.934  38.476  13.288
60092W        W31708  44.370  32.398  10.728
60093W        W31709  11.901  43.441   4.233
60094W        W31710   6.246   8.420   3.673
60095W        W31711  24.167  30.982  14.004
60096W        W31712  22.463  14.641  14.341
60097W        W31713   9.681  12.384  14.313
60098W        W31714  32.428  39.815  12.004
60099W        W31715   6.491   5.881  13.817
60100W        W31716  23.771  35.632   3.763
60101W        W31717  42.349  42.457  11.478
60102W        W31718  29.911  22.618   2.866
60103W        W31719  41.920   7.183  12.140
60104W        W31720  26.610  39.516   2.398
60105W        W31721  37.549   0.316   1.752
60106W        W31722  31.611  13.033  12.012
60107W        W31723  33.383  40.527  11.494
60108W        W31724  22.766  35.562   4.438
60109W        W31725  21.978   2.519   2.177
60110W        W31726  36.042  29.105   1.223
60111W        W31727  22.622  42.918  14.703
60112W        W31728  28.032  16.711  12.050
60113W        W31729  14.698  35.785  12.957
60114W        W31730   5.958   5.266  12.025
60115W        W31731  20.185  38.831   4.814
60116W        W31732  37.980   9.684  10.770
60117W        W31733  27.765  35.570   4.793
60118W        W31734  42.740  34.596  11.865
60119W        W31735  12.070  40.554  14.902
60120W        W31736  29.345  29.555   4.213
60121W        W31737  20.851  42.572   2.292
60122W        W31738  17.755   8.740  10.620
60123W        W31739  19.852  10.087   3.397
60124W        W31740   0.433   8.723  13.402
60125W        W31741  32.628  30.956   2.669
60126W        W31742  15.049  40.588   2.258
60127W        W31743  22.240  16.104   4.014
60128W        W31744  42.445   4.512   2.173
60129W        W31745  18.320  42.112  13.944
60130W        W31746  26.614  35.546  13.035
60131W        W31747  17.158  36.347  12.869
60132W        W31748  42.335   6.361  14.321
60133W        W31749  18.329  39.097  10.930
60134W        W31750  26.442  33.177  10.693
60135W        W31751  14.122   1.968   0.691
60136W        W31752  38.991  34.939  11.017
60137W        W31753  35.643  14.519  14.492
60138W        W31754  40.991  35.304  13.401
60139W        W31755  20.347  38.820   0.854
60140W        W31756  36.972   9.144   3.226
60141W        W31757  19.636  16.497  11.657
60142W        W31758  21.643  30.131  13.935
60143W        W31759  13.671  39.951   3.238
60144W        W31760  40.943   8.515  10.556
60145W        W31761  13.059  36.869  11.219
60146W        W31762   0.973  14.520  13.095
60147W        W31763  25.468   7.314  14.745
60148W        W31764  18.610   6.910  10.525
60149W        W31765  19.215  30.076   3.906
60150W        W31766  34.580  36.467  14.458
60151W        W31767   7.613  25.072   4.187
60152W        W31768   8.430  18.296   4.076
60153W        W31769  43.358   3.480   2.156
60154W        W31770  40.970   5.829   3.694
60155W        W31771  16.589   9.854   4.991
60156W        W31772  15.808  34.160  13.349
60157W        W31773  44.007  40.898  10.572
60158W        W31774  35.130  24.402   3.698
60159W        W31775  34.977  34.903   1.809
60160W        W31776  21.261  28.899   2.647
60161W        W31777  24.415  23.028   0.680
60162W        W31778  15.207  19.068   1.886
60163W        W31779  34.286   7.116  12.048
60164W        W31780  14.690  10.143  12.978
60165W        W31781  22.294  32.946  11.014
60166W        W31782  34.813  20.755   0.297
60167W        W31783  34.689   1.970   2.777
60168W        W31784  44.724  12.631   1.311
60169W        W31785  29.658   4.283   2.437
60170W        W31786  20.533  14.675   4.074
60171W        W31787  16.614   8.113   2.764
60172W        W31788  15.157   5.677  10.206
60173W        W31789  26.659  31.520   3.288
60174W        W31790   2.781  35.993   0.114
60175W        W31791  38.903  14.131   4.487
60176W        W31792  42.945   0.780  14.280
60177W        W31793   4.615  32.656   3.204
60178W        W31794  40.063   2.366  12.758
60179W        W31795  21.982  30.115   4.323
60180W        W31796  10.898   9.752   4.591
60181W        W31797   1.692  11.085  13.012
60182W        W31798  40.899  12.154   3.259
60183W        W31799   3.884   5.070   3.667
60184W        W31800  41.825  19.461   4.534
60185W        W31801  23.449  39.160  11.735
60186W        W31802  27.346   5.239  10.770
60187W        W31803   8.088  17.079  11.608
60188W        W31804  19.298  38.148   3.704
60189W        W31805  13.405  41.810   0.264
60190W        W31806  17.469   9.764  11.064
60191W        W31807   0.818  19.251  11.993
60192W        W31808  31.118   9.815   1.984
60193W        W31809  13.908  18.018   5.104
60194W        W31810  28.668  20.330  13.886
60195W        W31811  23.027  34.835  14.504
60196W        W31812  44.190  33.180   0.744
60197W        W31813  25.358   3.460  14.895
60198W        W31814   1.207  17.600   1.773
60199W        W31815  13.289  23.194   4.855
60200W        W31816  25.547   3.392  13.543
60201W        W31817  32.546  29.873  12.547
60202W        W31818   9.102  14.580  11.551
60203W        W31819  27.679  24.580   3.129
60204W        W31820  26.167  24.170   4.844
60205W        W31821  36.337   7.101  13.949
60206W        W31822  28.448  12.279   4.205
60207W        W31823   1.542  38.394   2.285
60208W        W31824  43.775  33.162  13.055
60209W        W31825   1.286   0.155  10.507
60210W        W31826  41.353   5.415   2.670
60211W        W31827  39.717  13.861   3.318
60212W        W31828   1.315  28.107   4.654
60213W        W31829   7.502  21.107   1.008
60214W        W31830  11.041  28.895  13.069
60215W        W31831  32.410  11.960  14.009
60216W        W31832  32.522  29.665   4.670
60217W        W31833  34.936  18.250   3.148
60218W        W31834  25.609  17.548   4.660
60219W        W31835   3.476  11.547   1.403
60220W        W31836   8.103   7.115  10.754
60221W        W31837  20.293   7.396   4.280
60222W        W31838   6.390  30.673   1.949
60223W        W31839   0.357  12.372  13.508
60224W        W31840  44.742  18.361   2.899
60225W        W31841  38.555  13.298   5.403
60226W        W31842  36.153  39.383  10.461
60227W        W31843  34.338  23.281  14.968
60228W        W31844  37.979  21.610  12.621
60229W        W31845   4.770  40.387   1.801
60230W        W31846   5.188  34.975   2.264
60231W        W31847   3.958  19.311   3.649
60232W        W31848   8.532  42.774   2.648
60233W        W31849  44.229  25.361  12.002
60234W        W31850  29.883  25.176   4.602
60235W        W31851  41.986  24.677  11.997
60236W        W31852  15.071  30.130   3.205
60237W        W31853  25.063   9.408  12.520
60238W        W31854  42.989  14.248   2.398
60239W        W31855  18.790   8.682  12.123
60240W        W31856  11.769  23.245  14.921
60241W        W31857  44.310   3.492  11.977
60242W        W31858  10.276  15.146  14.536
60243W        W31859   6.225  22.788   2.229
60244W        W31860  11.302   6.430  13.026
60245W        W31861  41.182  28.325  11.067
60246W        W31862   8.124  20.421  12.577
60247W        W31863  22.220   4.285   4.908
60248W        W31864   6.116  35.928   1.022
60249W        W31865  41.940   1.270  14.935
60250W        W31866  34.564  22.408   4.726
60251W        W31867  25.121  23.997  14.327
60252W        W31868  19.389   7.682   0.352
60253W        W31869  14.569  14.799   3.015
60254W        W31870  26.694   5.857  11.059
60255W        W31871   3.194  21.250   1.281
60256W        W31872  12.305  33.309  13.925
60257W        W31873  39.334   3.412   2.005
60258W        W31874   1.930  11.594   1.371
60259W        W31875   3.436   7.386   3.584
60260W        W31876  19.925   3.886   2.677
60261W        W31877  41.979  17.582   4.188
60262W        W31878  36.619  24.734   0.850
60263W        W31879  26.120  18.317  10.665
60264W        W31880   7.000  17.157   2.172
60265W        W31881   1.771  23.623  11.120
60266W        W31882  11.814  18.571   4.623
60267W        W31883   3.233  20.490  14.261
60268W        W31884  13.810  31.967   4.433
60269W        W31885  35.403  23.242  12.188
60270W        W31886  28.095   2.641  13.311
60271W        W31887   7.938  34.541   0.841
60272W        W31888   0.859  16.804  14.397
60273W        W31889  32.489  40.063   1.045
60274W        W31890  36.384  17.193  13.984
60275W        W31891  17.263   2.282  10.255
60276W        W31892   5.734   3.828   1.346
60277W        W31893  42.617  19.693  13.934
60278W        W31894  30.859  12.743   0.785
60279W        W31895   1.257  21.435  11.647
60280W        W31896  16.642   1.419   4.068
60281W        W31897   0.664  13.318  12.013
60282W        W31898  41.928  15.233   2.194
60283W        W31899  23.419  35.068   2.725
60284W        W31900  25.677   2.336  12.513
60285W        W31901  19.942  37.493   5.120
60286W        W31902   2.946  15.163   2.704
60287W        W31903  14.684   9.852   2.320
60288W        W31904  36.716  39.990  12.304
60289W        W31905  16.563  42.338   1.251
60290W        W31906  12.032  21.211   1.617
60291W        W31907  42.426  10.271   0.263
60292W        W31908   6.067   3.257  13.495
60293W        W31909  38.299  18.565  12.967
60294W        W31910  36.132  12.326  13.574
60295W        W31911   6.214  28.011  13.806
60296W        W31912  29.049  32.619  11.317
60297W        W31913  37.295  36.081  11.379
60298W        W31914  24.148  40.282   2.888
60299W        W31915  27.665  21.822  12.005
60300W        W31916   3.508  29.605  11.505
60301W        W31917  38.691  14.195   5.325
60302W        W31918   2.318  36.866  12.478
60303W        W31919  21.131   7.217   0.446
60304W        W31920  19.507  13.962   4.217
60305W        W31921  24.734   7.409  11.558
60306W        W31922  17.735  17.063   0.084
60307W        W31923  27.583  15.328   2.058
60308W        W31924  31.522  19.505  11.396
60309W        W31925  19.203  17.227   2.898
60310W        W31926  21.086  16.225  12.490
60311W        W31927   3.347  25.126   4.947
60312W        W31928  27.545  28.047  12.368
60313W        W31929   0.837   1.031   2.872
60314W        W31930  10.751  21.454  10.464
60315W        W31931   0.137  20.473  11.039
60316W        W31932  38.320  29.799   0.440
60317W        W31933  38.143   1.479   0.367
60318W        W31934  16.826  19.238  12.928
60319W        W31935  42.975   9.582  14.337
60320W        W31936  26.161  25.567  12.655
60321W        W31937  31.507  23.886  13.839
60322W        W31938  22.655  32.566   2.892
60323W        W31939  24.135  10.441   5.133
60324W        W31940   8.285   3.490  11.684
60325W        W31941   4.459   9.418  12.164
60326W        W31942  28.097  43.648   0.497
60327W        W31943  42.220  11.176   4.172
60328W        W31944  15.377  27.523   0.333
60329W        W31945  35.425  19.324  14.406
60330W        W31946  36.129  17.658  14.826
60331W        W31947  14.138  13.683   4.056
60332W        W31948  29.980  24.016  11.430
60333W        W31949  30.460   7.709   4.901
60334W        W31950  32.032  26.966   3.116
60335W        W31951  30.613   7.326  10.944
60336W        W31952  42.281  40.135   2.844
60337W        W31953  26.841  25.997  11.477
60338W        W31954  40.515  27.871  14.861
60339W        W31955  38.434  29.951   3.526
60340W        W31956  42.889  42.967  14.799
60341W        W31957   5.218  19.935   1.526
60342W        W31958   6.938  39.906   2.380
60343W        W31959  22.715  41.809  12.078
60344W        W31960  33.060   8.838  14.447
60345W        W31961  17.764  23.569   5.001
60346W        W31962  31.155   6.630  11.193
60347W        W31963  34.979  15.686  13.655
60348W        W31964   0.934  22.037   3.219
60349W        W31965  26.812  37.106   3.412
60350W        W31966  24.625  24.218   5.042
60351W        W31967   2.221  33.211  13.868
60352W        W31968  23.015  17.809   1.631
60353W        W31969  44.386  36.338   0.476
60354W        W31970  22.622  39.079   3.201
60355W        W31971  35.940  30.089  13.798
60356W        W31972   2.190   4.028   1.690
60357W        W31973  26.462  38.376  14.062
60358W        W31974  12.272  40.491   2.892
60359W        W31975  10.183  40.952  13.619
60360W        W31976  10.323  20.571  11.976
60361W        W31977  27.370  16.278  14.807
60362W        W31978  38.312  12.145  12.836
60363W        W31979  25.901  13.163   0.865
60364W        W31980  30.060   3.321  12.597
60365W        W31981  33.038   4.197  12.415
60366W        W31982  44.769   2.818   3.376
60367W        W31983  37.381   3.772  14.713
60368W        W31984  44.582  19.125   3.410
60369W        W31985   6.088  34.018  11.419
60370W        W31986  32.099  42.251  11.110
60371W        W31987  28.612  35.567  14.093
60372W        W31988   4.667  15.680   0.765
60373W        W31989  44.387   4.208  10.797
60374W        W31990  23.580  37.815  12.901
60375W        W31991  40.966  11.912  13.058
60376W        W31992  28.881  10.154   3.740
60377W        W31993  37.036  33.536   4.501
60378W        W31994  35.051   3.886   2.346
60379W        W31995  20.206  36.618   1.615
60380W        W31996  34.118   9.600   1.486
60381W        W31997  21.583   9.190  14.397
60382W        W31998  27.345  36.536   4.658
60383W        W31999   7.036  10.233  13.371
60384W        W32000  20.706  44.681   3.237
60385W        W32001  30.834  21.476  11.627
60386W        W32002   5.337  12.642   1.389
60387W        W32003   7.818  11.798   2.357
60388W        W32004  30.222  22.912   1.067
60389W        W32005   7.454  36.883  10.973
60390W        W32006   7.258  23.034  13.718
60391W        W32007  13.243  27.241   4.550
60392W        W32008  25.259  20.271   4.589
60393W        W32009  30.460  30.430   1.146
60394W        W32010  14.756  26.629  13.722
60395W        W32011  34.674  11.924  10.736
60396W        W32012   3.182  32.998   0.422
60397W        W32013   3.864   6.377  11.216
60398W        W32014   3.276  42.948  13.006
60399W        W32015  22.476  11.196   2.244
60400W        W32016  38.912  39.320  12.075
60401W        W32017  21.236  21.190   3.638
60402W        W32018  31.342   0.433   0.831
60403W        W32019  32.092  31.969   3.238
60404W        W32020  23.159   0.348   3.801
60405W        W32021  43.842  14.611   0.465
60406W        W32022   7.267   8.680   2.982
60407W        W32023  30.583  35.596  14.939
60408W        W32024   7.297  13.426   4.226
60409W        W32025   9.820  11.906  14.404
60410W        W32026  26.230  33.071   4.257
60411W        W32027   5.411  18.316  14.961
60412W        W32028  30.407  38.852  12.036
60413W        W32029  29.961  37.968  13.003
60414W        W32030  33.956   5.830  11.895
60415W        W32031   9.186  26.600   0.527
60416W        W32032  44.795  29.138  13.060
60417W        W32033  26.189   2.106   4.551
60418W        W32034  30.119  16.611  10.738
60419W        W32035  17.625   1.503   0.942
60420W        W32036  20.596   1.049  12.497
60421W        W32037  31.799  24.476   4.656
60422W        W32038  37.293  35.945  14.580
60423W        W32039  38.908   4.623   2.672
60424W        W32040  23.949  12.142  12.538
60425W        W32041  17.849  33.948   0.693
60426W        W32042  22.991  43.324   1.886
60427W        W32043  29.076  40.839   4.082
60428W        W32044  41.711  40.032   0.372
60429W        W32045  23.141  25.972  12.051
60430W        W32046  31.163   3.403   1.466
60431W        W32047  13.176  14.559  13.416
60432W        W32048  30.105  40.377  12.312
60433W        W32049  14.218  42.520   4.146
60434W        W32050  11.784  41.065   0.338
60435W        W32051  11.585  21.921   2.280
60436W        W32052   8.285   2.852  12.348
60437W        W32053   2.519  10.341  14.281
60438W        W32054  11.171   4.693  11.975
60439W        W32055  39.533  18.169  12.846
60440W        W32056  17.052  22.510  14.527
60441W        W32057  30.929  17.033  10.304
60442W        W32058   2.897  22.627   0.464
60443W        W32059   4.799  37.027   0.329
60444W        W32060  22.196   1.325  10.911
60445W        W32061  16.614  33.154   4.155
60446W        W32062  15.711   4.709   1.277
60447W        W32063   7.485  15.218  11.052
60448W        W32064   1.095  31.239  14.377
60449W        W32065  33.218  14.853  13.453
60450W        W32066  41.014  18.259   1.425
60451W        W32067   1.867   8.695   2.432
60452W        W32068   3.070   0.752   4.046
60453W        W32069  43.394  20.352   0.393
60454W        W32070  30.078  32.891   3.390
60455W        W32071  39.642  12.560   2.328
60456W        W32072  29.667   5.747  11.653
60457W        W32073  11.825   9.827  13.977
60458W        W32074  16.601  36.910   2.840
60459W        W32075  35.580  24.562  14.918
60460W        W32076  39.475  24.532  13.091
60461W        W32077  37.588  22.777   4.169
60462W        W32078   6.214   8.794  10.919
60463W        W32079  36.649  27.372   2.824
60464W        W32080   3.283  30.372   1.386
60465W        W32081  36.966   6.313  11.993
60466W        W32082  28.562  41.362   2.385
60467W        W32083  20.494  39.698   4.535
60468W        W32084  25.122  29.979   0.223
60469W        W32085  40.270  22.215   4.634
60470W        W32086  10.560  11.384   1.073
60471W        W32087  28.015  34.658  12.160
60472W        W32088  37.319  35.313   1.234
60473W        W32089  10.650   9.232  13.906
60474W        W32090  10.808  23.531   4.549
60475W        W32091  38.376  12.134  11.106
60476W        W32092   4.654  17.361   2.768
60477W        W32093  43.810   2.249  11.935
60478W        W32094  16.488  13.132   4.167
60479W        W32095  24.099   8.676   2.702
60480W        W32096  42.801  39.177  11.337
60481W        W32097  24.609  39.069   2.421
60482W        W32098  11.724   6.319  13.316
60483W        W32099  43.926  20.081  14.699
60484W        W32100  14.003  35.585  12.557
60485W        W32101  38.919  30.938  10.365
60486W        W32102   0.512   4.255   3.131
60487W        W32103  40.970  42.344  12.927
60488W        W32104   3.626  23.713  12.056
60489W        W32105  25.947  35.981   4.861
60490W        W32106  14.253  44.613   0.339
60491W        W32107  27.502  17.965  11.081
60492W        W32108  16.318  26.784  10.483
60493W        W32109  22.442   4.243   4.257
60494W        W32110  25.824   6.254  13.596
60495W        W32111  25.513   7.690   3.458
60496W        W32112  21.346  41.729  12.370
60497W        W32113  31.600  20.770  14.911
60498W        W32114   9.892  18.235   2.822
60499W        W32115   8.924  13.350  14.078
60500W        W32116  41.438  10.597   0.795
60501W        W32117   5.380  32.080  13.365
60502W        W32118  25.336  28.179  10.651
60503W        W32119  11.002  13.196   1.271
60504W        W32120  23.906   4.264  12.083
60505W        W32121  16.299  18.812   3.711
60506W        W32122  26.895  33.328  12.893
60507W        W32123   7.962  39.382  12.124
60508W        W32124   2.848  24.865  13.088
60509W        W32125   9.291  15.252   3.638
60510W        W32126  28.564  38.494   2.748
60511W        W32127   5.919  35.298  10.725
60512W        W32128   9.624  39.321   0.380
60513W        W32129  14.222   1.818   2.715
60514W        W32130   8.224  33.546  14.701
60515W        W32131  17.525  44.770  10.159
60516W        W32132  38.531  36.849   0.329
60517W        W32133  36.477   9.079   3.801
60518W        W32134  27.676   9.458   0.424
60519W        W32135  27.714   5.923   2.973
60520W        W32136   8.914  44.233  14.834
60521W        W32137  28.526  35.851   4.060
60522W        W32138  38.342  42.538   4.495
60523W        W32139  20.139  17.916  13.875
60524W        W32140  28.502  43.003  12.642
60525W        W32141  37.141  42.089   4.249
60526W        W32142   5.902   9.803   1.268
60527W        W32143  18.997  38.195   4.548
60528W        W32144  26.587   0.744   3.230
60529W        W32145  31.569  32.126  12.500
60530W        W32146  11.107  31.828   2.734
60531W        W32147  42.623   4.819   2.580
60532W        W32148   0.190   3.969   2.847
60533W        W32149  17.817  36.092   0.889
60534W        W32150  29.302  21.442   5.079
60535W        W32151   4.250  15.427  11.930
60536W        W32152  40.218   5.363   4.080
60537W        W32153  42.498  13.167  14.461
60538W        W32154  43.345  16.341  13.031
60539W        W32155  40.270  15.643  10.646
60540W        W32156  15.815  36.413  14.906
60541W        W32157   7.903  32.376  13.373
60542W        W32158  39.844  40.809  14.590
60543W        W32159   9.359  31.061   2.735
60544W        W32160  33.456  28.140  14.972
60545W        W32161  40.457  37.011   4.129
60546W        W32162  44.700  30.144  12.042
60547W        W32163   4.249  11.298  12.058
60548W        W32164  40.413   0.884   0.491
60549W        W32165   0.114   1.196  11.866
60550W        W32166   6.658  29.628  12.628
60551W        W32167  33.491  27.124  13.022
60552W        W32168   4.745  26.637   3.087
60553W        W32169  20.480  28.581  11.666
60554W        W32170  17.366   2.528   3.542
60555W        W32171  23.565  13.836  14.694
60556W        W32172  21.300  18.299   2.170
60557W        W32173  20.396  42.367   0.325
60558W        W32174  43.363   9.289   4.493
60559W        W32175  43.426   6.843  13.064
60560W        W32176  28.014   8.344   3.236
60561W        W32177  27.878  25.976  11.532
60562W        W32178  36.647  26.220  10.640
60563W        W32179  43.989  37.372  12.054
60564W        W32180  16.571  20.315   0.479
60565W        W32181  10.312  26.703  12.367
60566W        W32182  25.585  12.443  10.589
60567W        W32183  43.724  34.012   0.111
60568W        W32184  23.626  28.059   3.681
60569W        W32185  14.737  17.515   0.431
60570W        W32186   1.131  39.182   1.420
60571W        W32187   2.427   8.698   1.557
60572W        W32188  33.775  30.000   4.844
60573W        W32189  14.640   2.299  13.849
60574W        W32190  34.157  26.195   3.261
60575W        W32191  14.020  28.384  11.646
60576W        W32192  13.485   8.670   5.037
60577W        W32193  11.599  19.033   2.743
60578W        W32194   4.972  37.070  11.597
60579W        W32195  41.517  26.562  12.015
60580W        W32196  20.033  42.636  14.453
60581W        W32197  40.739  33.858  11.881
60582W        W32198  37.471  13.182   2.534
60583W        W32199  25.875   6.755  12.868
60584W        W32200   8.196  35.345  13.357
60585W        W32201   9.084  20.217  13.487
60586W        W32202  44.750  33.466  12.523
60587W        W32203  42.956  40.860  10.483
60588W        W32204  19.327  43.697   2.439
60589W        W32205   7.500  22.847   4.126
60590W        W32206  20.170  21.620   1.042
60591W        W32207  18.120   6.522   2.348
60592W        W32208  27.053  38.528   0.716
60593W        W32209  25.884   3.407   3.329
60594W        W32210  10.608  41.901  14.818
60595W        W32211   4.344   5.670  11.079
60596W        W32212  41.185  21.956  11.896
60597W        W32213  14.581  31.682  13.789
60598W        W32214   8.362  20.683  11.920
60599W        W32215  12.657  15.848  14.399
60600W        W32216   2.402  36.516  10.374
60601W        W32217  23.543   9.653  13.646
60602W        W32218  24.483  19.027   3.665
60603W        W32219  19.058  27.621   2.410
60604W        W32220  11.158   1.765   0.901
60605W        W32221  40.493  26.968  13.607
60606W        W32222   7.275   5.343   1.216
60607W        W32223   4.894  27.851   3.189
60608W        W32224   4.863  14.797   1.491
60609W        W32225  27.081  34.394   1.553
60610W        W32226  29.467  36.811  14.876
60611W        W32227  37.352   2.156   1.402
60612W        W32228  15.825  26.028  14.042
60613W        W32229  30.816  12.582   5.059
60614W        W32230  35.343   1.420  12.400
60615W        W32231  13.320  37.674  14.612
60616W        W32232  22.484  14.341  11.677
60617W        W32233  29.414  32.505   1.379
60618W        W32234  41.515  11.005  13.074
60619W        W32235  15.848  39.011  12.049
60620W        W32236  32.729  42.147  11.563
60621W        W32237   5.225  35.461   3.634
60622W        W32238   4.546  20.859   5.074
60623W        W32239  32.800  12.204  14.257
60624W        W32240   3.792  29.957   4.741
60625W        W32241  19.195  42.061  11.155
60626W        W32242   0.934  28.430   3.767
60627W        W32243   8.623  36.689  14.332
60628W        W32244  39.587   5.440   1.283
60629W        W32245  35.264  11.126   2.478
60630W        W32246   8.794   0.727  14.924
60631W        W32247  28.755  11.090  11.138
60632W        W32248  41.526   3.254   3.396
60633W        W32249  35.911  12.501  10.068
60634W        W32250  26.533   5.083  11.437
60635W        W32251  30.706   9.974  14.007
60636W        W32252  34.065  12.592   5.000
60637W        W32253   6.385  23.536  14.891
60638W        W32254  27.686  26.684   3.285
60639W        W32255   2.537  15.113   4.183
60640W        W32256  40.893  18.100  14.177
60641W        W32257  18.559  38.982  14.366
60642W        W32258  17.768  16.880   3.754
60643W        W32259  14.658  34.632  12.056
60644W        W32260  40.270   5.264   2.847
60645W        W32261   2.604   5.868  12.026
60646W        W32262   1.251  13.547  13.337
60647W        W32263  35.029  18.786  13.644
60648W        W32264   6.296  38.307  10.936
60649W        W32265   9.158   6.158  14.277
60650W        W32266  14.469  39.385  14.674
60651W        W32267   3.929   3.432  10.487
60652W        W32268  18.260   9.261   1.795
60653W        W32269  36.623  17.772  13.384
60654W        W32270  14.513  33.985  14.510
60655W        W32271  28.131   1.208  14.724
60656W        W32272  19.559   9.077  13.002
60657W        W32273  37.528  16.671   2.643
60658W        W32274  42.893  21.598  14.372
60659W        W32275  21.626  29.059   1.749
60660W        W32276  27.097  28.177  12.632
60661W        W32277  34.492   5.183   1.527
60662W        W32278  35.293  28.145  14.688
60663W        W32279  39.471  37.075   4.350
60664W        W32280  11.197  22.482   4.708
60665W        W32281  26.613  23.040   2.761
60666W        W32282  28.970   7.384   3.286
60667W        W32283   7.505  36.809   0.578
60668W        W32284  12.016  33.730  13.004
60669W        W32285   2.401  31.678   0.491
60670W        W32286  13.207  21.649  11.920
60671W        W32287  29.676  17.293   1.831
60672W        W32288   8.979  12.658   3.346
60673W        W32289  16.650   9.458  11.945
60674W        W32290  36.015  38.821   4.642
60675W        W32291  17.937  36.024   4.596
60676W        W32292  14.691  20.465   4.035
60677W        W32293   1.926  34.863  14.398
60678W        W32294   2.047   9.169  10.475
60679W        W32295  20.303   1.381   3.496
60680W        W32296   5.801  44.070  11.412
60681W        W32297  40.072  20.027   1.719
60682W        W32298  24.215  20.562   1.321
60683W        W32299  22.000  36.073  11.978
60684W        W32300  44.404   0.698   0.480
60685W        W32301  42.805  23.913  13.872
60686W        W32302  29.660   0.353  14.524
60687W        W32303  33.596   1.173  10.263
60688W        W32304  18.988   9.764   4.147
60689W        W32305  36.367  18.637  12.020
60690W        W32306  41.034  41.175  14.794
60691W        W32307  17.565  26.960   0.697
60692W        W32308  32.099  23.072   2.410
60693W        W32309  39.757  37.332   3.170
60694W        W32310  17.147  16.632  14.443
60695W        W32311  14.826  41.218  12.041
60696W        W32312   0.555   9.235  10.621
60697W        W32313   8.325   8.635   3.351
60698W        W32314  11.365  39.421  11.924
60699W        W32315  29.011  25.111  14.580
60700W        W32316  33.631  13.160   1.803
60701W        W32317   9.917  18.682  11.892
60702W        W32318   7.770  30.911   4.983
60703W        W32319  19.090  16.696   4.015
60704W        W32320   6.766  39.408   1.600
60705W        W32321  24.843   7.704   3.650
60706W        W32322  35.043  15.110   0.800
60707W        W32323  35.692  39.311  10.694
60708W        W32324  26.189  35.121  11.645
60709W        W32325  38.170  44.694   2.915
60710W        W32326  36.478  30.133  13.606
60711W        W32327  24.455  29.594   1.805
60712W        W32328  33.949   0.000   4.218
60713W        W32329   9.568  32.987  13.850
60714W        W32330   4.430  40.115   1.517
60715W        W32331   7.783  27.636   0.494
60716W        W32332  33.469  10.607   4.159
60717W        W32333  25.003   6.901  14.030
60718W        W32334   6.037  29.885   1.940
60719W        W32335  30.453  27.710  12.971
60720W        W32336  40.969  39.774  11.155
60721W        W32337  26.894   5.718  13.945
60722W        W32338  22.871  23.647   1.961
60723W        W32339  22.451  35.918  10.679
60724W        W32340  39.394  24.246   1.363
60725W        W32341   6.101  41.237   4.746
60726W        W32342  37.977  28.172  13.063
60727W        W32343  14.151  15.120   0.964
60728W        W32344  11.325  29.588   3.729
60729W        W32345  22.134  16.541   3.144
60730W        W32346   0.896  37.570   3.763
60731W        W32347   5.634  37.643  13.938
60732W        W32348  24.520  31.492   2.785
60733W        W32349  33.942  11.125  11.712
60734W        W32350  26.115  32.616  11.617
60735W        W32351  24.224  41.738   4.155
60736W        W32352   6.972  30.165  14.860
60737W        W32353  11.420  10.133  10.963
60738W        W32354  41.081  39.811   2.201
60739W        W32355   8.098  11.316  13.067
60740W        W32356  18.977   3.917   4.190
60741W        W32357   6.805  27.403  12.591
60742W        W32358   4.019   7.705   2.166
60743W        W32359  19.347  36.627  12.595
60744W        W32360   0.632  10.343  11.101
60745W        W32361   9.478  38.365  13.874
60746W        W32362   7.538  24.603  14.483
60747W        W32363   6.499  35.480   3.503
60748W        W32364  36.761   7.852   1.000
60749W        W32365  28.448   5.741  14.446
60750W        W32366  20.225   7.873  12.978
60751W        W32367  21.593   2.941  13.173
60752W        W32368  20.057  11.236  12.952
60753W        W32369  23.311  20.508  11.118
60754W        W32370  19.168  14.697   4.472
60755W        W32371   3.704  10.788  14.966
60756W        W32372  13.595   4.714   0.786
60757W        W32373  11.630  23.085   2.392
60758W        W32374  35.312   3.864   1.894
60759W        W32375  13.166  33.063  12.031
60760W        W32376   2.126   5.437   1.835
60761W        W32377  18.654  22.224   1.909
60762W        W32378  20.287   1.673   4.075
60763W        W32379  38.749   0.761  13.372
60764W        W32380  13.886   9.709  12.026
60765W        W32381   7.841   3.683   1.418
60766W        W32382  14.205  30.698   0.560
60767W        W32383   5.885   4.684  13.371
60768W        W32384   4.479   0.308   1.897
60769W        W32385  30.424  27.639  12.070
60770W        W32386  29.689   6.603  10.051
60771W        W32387  15.327  37.737   1.022
60772W        W32388  40.747  23.276   0.787
60773W        W32389  34.412  14.146  11.595
60774W        W32390  26.910  35.294  10.099
60775W        W32391  41.883  12.350  11.459
60776W        W32392  32.059  13.687  12.536
60777W        W32393  44.577  14.217  11.617
60778W        W32394   1.889  42.278  14.831
60779W        W32395  19.788  21.560  10.839
60780W        W32396  10.228  34.014   3.224
60781W        W32397   0.756  25.805  13.973
60782W        W32398  30.462   0.173  14.886
60783W        W32399   8.870  33.853  14.891
60784W        W32400  15.168  34.271   4.739
60785W        W32401  37.964  42.532  11.967
60786W        W32402  14.714  33.538  12.868
60787W        W32403   0.517  26.369  13.189
60788W        W32404  11.583  31.054  11.524
60789W        W32405  37.117   3.697  12.541
60790W        W32406   6.907  43.875  12.855
60791W        W32407  24.223  22.531  11.613
60792W        W32408  24.161  21.712  12.421
60793W        W32409  32.555  27.639  14.274
60794W        W32410  25.655  26.633  13.586
60795W        W32411  13.105  18.091  11.226
60796W        W32412  33.454  13.230   3.612
60797W        W32413  34.137  34.084  10.873
60798W        W32414  36.443  40.861  11.103
60799W        W32415  20.208  14.751  11.596
60800W        W32416  32.494  10.437  13.996
60801W        W32417  13.672   4.948   1.209
60802W        W32418  10.780  31.814  13.286
60803W        W32419  27.316  31.282   4.541
60804W        W32420  17.478  15.556  14.073
60805W        W32421  11.930  14.342  14.524
60806W        W32422  17.618  17.643  14.213
60807W        W32423  26.709  28.961   0.692
60808W        W32424  44.508   4.077   4.143
60809W        W32425   5.888  25.433  12.987
60810W        W32426  21.162  26.999  13.326
60811W        W32427  10.076   3.240  11.969
60812W        W32428  14.291  24.908   1.523
60813W        W32429  11.050  13.064  11.992
60814W        W32430  32.660  18.114  14.384
60815W        W32431  34.704  23.515   0.296
60816W        W32432  31.117  27.415  10.716
60817W        W32433  42.690  38.408  10.315
60818W        W32434  27.928  35.351   4.023
60819W        W32435  43.941  28.363  11.933
60820W        W32436  11.121   9.269   4.524
60821W        W32437   5.350  44.544   9.828
60822W        W32438  28.879   8.489  13.082
60823W        W32439   6.296  37.610  10.359
60824W        W32440   3.335   1.291   3.150
60825W        W32441  34.022  34.500  13.515
60826W        W32442  26.990  25.749   2.297
60827W        W32443  21.726   5.744  14.700
60828W        W32444   6.941  13.666  12.757
60829W        W32445  22.075  42.098   4.630
60830W        W32446  38.852  34.708  13.448
60831W        W32447  15.121  20.996  13.882
60832W        W32448   8.672  13.305   0.751
60833W        W32449  22.793  39.342   0.391
60834W        W32450  28.511   8.152   4.909
60835W        W32451   5.117  12.720  13.333
60836W        W32452  28.553  23.118   3.214
60837W        W32453  23.702  35.661   4.740
60838W        W32454  24.202   0.514   0.370
60839W        W32455   5.625  26.170  14.846
60840W        W32456  19.596  36.994   3.192
60841W        W32457  43.567  43.863  14.325
60842W        W32458  13.802   7.602  10.437
60843W        W32459   3.528  16.287  12.620
60844W        W32460   9.874   5.871  10.698
60845W        W32461  32.549  42.544   4.337
60846W        W32462  12.542   6.624  13.334
60847W        W32463  15.344  18.562  10.755
60848W        W32464  23.108  19.209   3.534
60849W        W32465   8.332  33.082  14.509
60850W        W32466   2.965   4.970  12.077
60851W        W32467  28.175  35.104   3.638
60852W        W32468  25.738  30.654  14.740
60853W        W32469  13.591  13.203   3.192
60854W        W32470  37.772  43.471  10.501
60855W        W32471  30.405   6.102  11.249
60856W        W32472  10.108  39.056   4.543
60857W        W32473  18.447  12.060   4.145
60858W        W32474  35.610  15.344   4.262
60859W        W32475   9.706  33.551  13.061
60860W        W32476  34.901  34.591  14.365
60861W        W32477  18.532  16.663  14.886
60862W        W32478  32.889  29.857   3.397
60863W        W32479  16.765  44.085   5.055
60864W        W32480  22.566  26.664  13.579
60865W        W32481  14.313  15.159   4.351
60866W        W32482  44.800  35.143  12.517
60867W        W32483  26.569  10.199   5.116
60868W        W32484  38.945  40.338  13.132
60869W        W32485  36.380  25.934  14.890
60870W        W32486  20.555  44.828  11.039
60871W        W32487  16.082  37.022   0.901
60872W        W32488  23.946  25.905   2.779
60873W        W32489  20.673  19.152   1.798
60874W        W32490  19.566  40.957   4.034
60875W        W32491  12.361  32.721  12.916
60876W        W32492   1.215  24.576   1.714
60877W        W32493  23.753  27.150  12.022
60878W        W32494   1.387  17.162   3.598
60879W        W32495  18.817  42.947   2.822
60880W        W32496  32.901  42.786   4.744
60881W        W32497   1.417  40.997  10.652
60882W        W32498  18.071  18.102   4.141
60883W        W32499   9.212  30.116   1.404
60884W        W32500  44.433   0.681   3.793
60885W        W32501  10.461  30.858   1.875
60886W        W32502  25.736   3.949   4.560
60887W        W32503  16.279  32.144   4.088
60888W        W32504  35.460  20.848  13.967
60889W        W32505  12.554  26.760  11.385
60890W        W32506  29.392  42.051   4.158
60891W        W32507  38.305  17.801  11.200
60892W        W32508  22.167  17.391  10.190
60893W        W32509  40.032  19.201   1.254
60894W        W32510  19.575  35.908  12.969
60895W        W32511  18.118  16.354  13.063
60896W        W32512   4.367  25.924   0.941
60897W        W32513  31.671  43.424  10.585
60898W        W32514   2.772  29.443   2.199
60899W        W32515  21.716  18.069  10.632
60900W        W32516   0.236  34.455   1.870
60901W        W32517  42.353   3.876   4.690
60902W        W32518  24.446  30.924   3.645
60903W        W32519  33.599   5.191   4.108
60904W        W32520  16.775  27.637  13.020
60905W        W32521  38.390   9.326   4.203
60906W        W32522  22.151  17.848   0.940
60907W        W32523  20.869  17.083   4.354
60908W        W32524  17.692  29.567  12.006
60909W        W32525  36.913  40.794  12.842
60910W        W32526  18.720   4.906  12.383
60911W        W32527  43.785  35.581   0.308
60912W        W32528  30.617  27.942   2.746
60913W        W32529  33.689  33.166   1.268
60914W        W32530  32.605  22.596   0.273
60915W        W32531  34.795  21.667   3.753
60916W        W32532  17.133   6.242   3.253
60917W        W32533   5.165   5.757   4.046
60918W        W32534   9.389  19.579   3.765
60919W        W32535  13.582   1.733  11.134
60920W        W32536  38.416  23.426  12.909
60921W        W32537  29.083  13.304  12.883
60922W        W32538  26.040  30.424  12.486
60923W        W32539  11.001  41.564   1.521
60924W        W32540  25.000  30.029   4.605
60925W        W32541  22.860  43.381   4.227
60926W        W32542   6.340   0.363   1.392
60927W        W32543  16.303  39.028   1.343
60928W        W32544   0.874  20.765   2.168
60929W        W32545  28.783  21.636   4.147
60930W        W32546  14.344  15.624   0.821
60931W        W32547  30.147  35.443   2.214
60932W        W32548  37.205  41.734  13.061
60933W        W32549  42.950   3.575   4.718
60934W        W32550  36.435  17.028  14.959
60935W        W32551  13.537   6.843   0.967
60936W        W32552  40.408  24.855   2.254
60937W        W32553  24.917  21.401  14.878
60938W        W32554  18.286   2.399   2.220
60939W        W32555  36.333  30.123  12.085
60940W        W32556  15.368  43.312   4.091
60941W        W32557  38.038  13.151   3.731
60942W        W32558  44.488  10.600  14.360
60943W        W32559  10.771  21.066   1.635
60944W        W32560  39.018   4.552   3.692
60945W        W32561  23.724  33.334   1.501
60946W        W32562  19.640   7.733  10.437
60947W        W32563  27.546  39.992   4.736
60948W        W32564  17.962  19.511  13.537
60949W        W32565  41.878  17.110  12.937
60950W        W32566  26.116  39.385  14.541
60951W        W32567  16.643  11.380   3.931
60952W        W32568  10.085  43.998   1.030
60953W        W32569  22.588  37.954  13.938
60954W        W32570  30.578   7.204  12.822
60955W        W32571  41.278  27.876  13.724
60956W        W32572   7.978  11.082  11.153
60957W        W32573  40.565  12.657   1.747
60958W        W32574   0.987  42.919  14.482
60959W        W32575  23.663  18.021   4.636
60960W        W32576  26.728  24.056  12.908
60961W        W32577  31.170   0.405   4.527
60962W        W32578  14.793  10.682  10.696
60963W        W32579  20.370   8.287   3.847
60964W        W32580  15.832   4.313  13.453
60965W        W32581  26.058  11.609  11.669
60966W        W32582  13.254   7.646   0.252
60967W        W32583  24.346  18.824   1.403
60968W        W32584  30.899  10.913  12.066
60969W        W32585  26.736  13.710  11.251
60970W        W32586  28.580  34.093  13.291
60971W        W32587   3.386   5.270  10.701
60972W        W32588  12.039  22.056   1.021
60973W        W32589   8.592  31.868  12.436
60974W        W32590  43.324   5.860   3.811
60975W        W32591  40.698  33.146   3.764
60976W        W32592  36.638  11.203   4.547
60977W        W32593  28.697  33.617  13.978
60978W        W32594  43.409  42.717  13.051
60979W        W32595  22.587  28.663   2.768
60980W        W32596   8.873  40.603  14.224
60981W        W32597   5.414   8.012   4.949
60982W        W32598  34.970  12.342  10.587
60983W        W32599  33.547  44.751   0.434
60984W        W32600  37.293   6.770  11.340
60985W        W32601  12.282  16.174   3.618
60986W        W32602  11.235  38.735  13.434
60987W        W32603   6.319  23.048  12.335
60988W        W32604  22.944  25.266  14.251
60989W        W32605  26.496  17.091   3.806
60990W        W32606  13.497  44.470  14.954
60991W        W32607   1.707   5.194   4.148
60992W        W32608  12.263  11.086   0.152
60993W        W32609   3.325  43.059  11.439
60994W        W32610  44.742  25.099  12.849
60995W        W32611  25.191  39.964   3.696
60996W        W32612  22.651  43.300   1.480
60997W        W32613  44.965  14.195   4.087
60998W        W32614  35.052  42.430   3.340
60999W        W32615  14.165  39.798  12.042
61000W        W32616   6.394   8.069   0.974
61001W        W32617  44.888  31.783   2.231
61002W        W32618  34.568  30.403   0.997
61003W        W32619  27.173  18.176   1.052
61004W        W32620   0.414   8.037  11.224
61005W        W32621  44.845  18.241   1.425
61006W        W32622  10.382  30.132   4.502
61007W        W32623  40.040  18.102  11.559
61008W        W32624   0.175  31.001  12.137
61009W        W32625  13.085  31.609  14.932
61010W        W32626   9.857   6.893   1.945
61011W        W32627  18.012  36.637   0.887
61012W        W32628  22.526   3.444   2.804
61013W        W32629  22.922  40.276   3.666
61014W        W32630  35.988  17.032  11.023
61015W        W32631   6.280   6.011   3.207
61016W        W32632   3.547  28.685  14.129
61017W        W32633   9.487  11.155   3.552
61018W        W32634  24.853  44.400  13.827
61019W        W32635  13.181  26.465   4.094
61020W        W32636  22.774  13.753   2.785
61021W        W32637  29.608  42.329  14.443
61022W        W32638  40.249  19.137  14.691
61023W        W32639  40.305   1.324   2.369
61024W        W32640   9.959  34.833  10.799
61025W        W32641  20.046  41.764  11.938
61026W        W32642  30.862  14.151  10.826
61027W        W32643  21.597  16.315  12.405
61028W        W32644  38.299  10.694  11.139
61029W        W32645   0.757  16.296  11.562
61030W        W32646  28.642  38.519   4.738
61031W        W32647   8.860  18.261  11.168
61032W        W32648  19.279  27.652  13.883
61033W        W32649  35.059  23.786  12.914
61034W        W32650  28.081  11.368   1.320
61035W        W32651   3.300   1.084   5.423
61036W        W32652   5.244  35.574  11.141
61037W        W32653  19.922  12.699  14.366
61038W        W32654  12.097  23.071   1.646
61039W        W32655  42.465   7.725   3.363
61040W        W32656   2.759   4.375  13.909
61041W        W32657  21.345  34.523   3.670
61042W        W32658   6.249  38.523   2.810
61043W        W32659   8.828  38.269   5.117
61044W        W32660   4.789  22.351   0.623
61045W        W32661   7.836   7.815   1.027
61046W        W32662  29.486  17.097  12.620
61047W        W32663   7.145  19.696   3.188
61048W        W32664  27.131  14.533   1.015
61049W        W32665  44.041   7.497  13.984
61050W        W32666  25.822  17.763  12.413
61051W        W32667  32.484  43.810  14.461
61052W        W32668  14.345  20.049  14.902
61053W        W32669  12.094  15.152  11.209
61054W        W32670  16.161  29.944  12.466
61055W        W32671  32.051  20.997  14.849
61056W        W32672  35.086  19.810   4.403
61057W        W32673  21.752  16.641  14.742
61058W        W32674  25.650  16.557   1.199
61059W        W32675  34.022  32.686  10.908
61060W        W32676  14.179  15.809  12.469
61061W        W32677  19.511   6.882  14.582
61062W        W32678  13.709  41.276  13.806
61063W        W32679  30.625  12.762   3.113
61064W        W32680  15.119   4.764  14.392
61065W        W32681  17.744  22.278  10.678
61066W        W32682  21.633  40.055   2.325
61067W        W32683   1.468  44.297   3.830
61068W        W32684   2.308   5.734   2.672
61069W        W32685  18.379  17.527   3.327
61070W        W32686  37.294  20.674   3.927
61071W        W32687  19.230  27.764  12.852
61072W        W32688  27.157   6.195  13.565
61073W        W32689   5.379   4.193   1.114
61074W        W32690  33.439  17.223  13.832
61075W        W32691  31.140  30.904   4.872
61076W        W32692   2.959  44.335  12.189
61077W        W32693  17.243  42.530   1.764
61078W        W32694   0.082  37.087   4.485
61079W        W32695  26.619  20.721   2.951
61080W        W32696  33.573  24.560   4.388
61081W        W32697  40.096  27.104   4.100
61082W        W32698  31.463  20.079  10.540
61083W        W32699  22.109  24.745  10.794
61084W        W32700  35.160  18.104   2.723
61085W        W32701  11.194  12.094  11.147
61086W        W32702  33.843   0.329   5.070
61087W        W32703   7.570  42.000  11.803
61088W        W32704  10.403   5.255   1.369
61089W        W32705  26.295   6.278  13.415
61090W        W32706   5.751  12.222  11.540
61091W        W32707  41.472  44.453   4.410
61092W        W32708  10.526  32.965   2.298
61093W        W32709  42.031  27.181   1.400
61094W        W32710  23.629  22.231   0.963
61095W        W32711  14.345  20.100  11.482
61096W        W32712  41.871   0.041   3.657
61097W        W32713   9.418  40.556   4.061
61098W        W32714   1.420  37.506  12.138
61099W        W32715  33.074  38.628   4.571
61100W        W32716   4.794  28.375  11.236
61101W        W32717   4.525   2.085  14.273
61102W        W32718  26.557  10.894  13.474
61103W        W32719  21.462  11.958  13.780
61104W        W32720  19.664  44.179  12.661
61105W        W32721  39.607  11.570   3.219
61106W        W32722  17.346  15.143  13.524
61107W        W32723   0.339  42.772   0.426
61108W        W32724  21.521  26.958  11.073
61109W        W32725  21.006  30.453   4.973
61110W        W32726  33.031  36.055  12.986
61111W        W32727  10.718  31.807  10.917
61112W        W32728  14.172   8.603   0.326
61113W        W32729   6.866  40.760   1.917
61114W        W32730  40.649  41.084   4.585
61115W        W32731  16.640  18.187  12.816
61116W        W32732  31.712  27.333  13.299
61117W        W32733  20.683  39.619   1.433
61118W        W32734  22.760  32.863  12.008
61119W        W32735   9.930  22.026   2.731
61120W        W32736  29.047  32.359   0.447
61121W        W32737  35.853  40.958   1.376
61122W        W32738  15.769  11.730  13.069
61123W        W32739  14.361  28.572  14.189
61124W        W32740  35.151  15.440   4.542
61125W        W32741  37.263  20.453  13.926
61126W        W32742   5.900  11.817   3.364
61127W        W32743   0.708  44.970   1.798
61128W        W32744  15.255  26.542  10.724
61129W        W32745   2.466  31.649  12.592
61130W        W32746  13.175   3.974  14.156
61131W        W32747  21.586  16.331   1.621
61132W        W32748  12.581  26.207   3.664
61133W        W32749  41.153  29.176  10.699
61134W        W32750  40.306  23.499   0.973
61135W        W32751  22.007   0.685   1.867
61136W        W32752   7.872  39.445   0.732
61137W        W32753   6.983  27.023   1.059
61138W        W32754   9.533  17.134  10.713
61139W        W32755  43.922  26.821   2.843
61140W        W32756  31.877   0.955  13.747
61141W        W32757  13.093  17.568   1.889
61142W        W32758  36.226  30.490  13.919
61143W        W32759  15.333  14.235  12.926
61144W        W32760  33.241  20.755   4.131
61145W        W32761  17.673  40.490   0.974
61146W        W32762  19.646   1.238  11.581
61147W        W32763  10.551   7.706  14.820
61148W        W32764  28.537   6.713  12.106
61149W        W32765  23.683   4.272   0.415
61150W        W32766   1.784  35.088   1.164
61151W        W32767  31.848   0.651  14.849
61152W        W32768   1.424  37.096  12.491
61153W        W32769  34.509  18.812  11.016
61154W        W32770   0.621  21.775   5.639
61155W        W32771  43.505  15.221   3.227
61156W        W32772  28.042  17.147  10.210
61157W        W32773  25.545  26.378  14.005
61158W        W32774   5.491   1.473  12.977
61159W        W32775  29.471  25.932  14.863
61160W        W32776   8.912  14.164  12.378
61161W        W32777  21.479  38.365   1.384
61162W        W32778  23.514   2.297  11.092
61163W        W32779  42.850  38.572   0.391
61164W        W32780   7.654  44.000   3.680
61165W        W32781  16.359   4.217  13.393
61166W        W32782  17.847  25.212  14.151
61167W        W32783   1.878  29.424  12.647
61168W        W32784  18.155  16.310  12.210
61169W        W32785  30.954   5.949   0.803
61170W        W32786  32.038   4.889  13.612
61171W        W32787  39.564  18.747  13.937
61172W        W32788   4.894  44.876   1.409
61173W        W32789  41.407  17.810   1.721
61174W        W32790  21.661  19.061   4.352
61175W        W32791  19.214  36.554  11.658
61176W        W32792  29.862  40.235   4.298
61177W        W32793  41.582  44.013  13.513
61178W        W32794  36.254  12.813   1.833
61179W        W32795  15.818  39.747   0.054
61180W        W32796  14.010  37.077   4.178
61181W        W32797  12.584  34.306  10.643
61182W        W32798  17.195  17.774   3.661
61183W        W32799  43.412  29.856   1.795
61184W        W32800  27.708   3.400  12.304
61185W        W32801  12.467  14.660  14.058
61186W        W32802  13.246  33.472  13.995
61187W        W32803   6.244  42.386  12.552
61188W        W32804   8.297  34.468  14.757
61189W        W32805  44.264  30.599  12.714
61190W        W32806   7.572  11.743  13.966
61191W        W32807   5.261  24.174  11.445
61192W        W32808   7.230  27.845   3.331
61193W        W32809   4.499  28.471  11.659
61194W        W32810  19.507   8.804   1.694
61195W        W32811  24.965   2.498   0.037
61196W        W32812  26.446   3.554  11.516
61197W        W32813  10.912  24.384  14.945
61198W        W32814   8.777  31.026  11.884
61199W        W32815  24.119  13.884   1.689
61200W        W32816  31.886  24.211  14.055
61201W        W32817   7.403  29.923  12.023
61202W        W32818  26.378  11.894   1.300
61203W        W32819  29.962  30.883  13.473
61204W        W32820  32.686  21.309   3.597
61205W        W32821  36.611  18.322   3.183
61206W        W32822  19.288  41.780   3.590
61207W        W32823  14.191  11.682  11.278
61208W        W32824  20.172  40.717  10.540
61209W        W32825  38.267  22.026   4.364
61210W        W32826   3.316   0.905  13.281
61211W        W32827  30.876  26.757   2.393
61212W        W32828  35.534  26.139  14.296
61213W        W32829   7.836  39.505  14.836
61214W        W32830  41.863   0.672  14.955
61215W        W32831   1.304   4.685  12.593
61216W        W32832   8.373  39.046   2.252
61217W        W32833  32.228  16.325   0.372
61218W        W32834  17.704  15.552   2.732
61219W        W32835  41.047  43.570  12.382
61220W        W32836   1.077  29.139  10.570
61221W        W32837  17.710   9.384  14.533
61222W        W32838  37.830  25.894  14.800
61223W        W32839  21.018  10.417  11.365
61224W        W32840   4.227  29.013   4.463
61225W        W32841  31.521   4.908   3.665
61226W        W32842  43.564  41.920   0.481
61227W        W32843  19.573  24.517   0.364
61228W        W32844  28.122  12.600  12.471
61229W        W32845  36.498  42.998   2.897
61230W        W32846  27.019  38.014   0.858
61231W        W32847  18.882  28.111  13.011
61232W        W32848  37.968  42.997  12.313
61233W        W32849  21.572   5.689  11.485
61234W        W32850   4.492  40.940   0.282
61235W        W32851  13.699   8.756   4.109
61236W        W32852  12.867  34.407   1.211
61237W        W32853   5.388  19.497   2.822
61238W        W32854   0.815  17.033  10.305
61239W        W32855  23.458  14.023   3.298
61240W        W32856  23.023  41.389  12.137
61241W        W32857  18.578  33.607  14.264
61242W        W32858  31.439  32.104   4.372
61243W        W32859  37.236  42.478  13.938
61244W        W32860  22.333  25.450   4.294
61245W        W32861  26.105   8.817  12.788
61246W        W32862  14.301   5.794   0.337
61247W        W32863  42.405  38.745   2.661
61248W        W32864  23.313  18.225   1.472
61249W        W32865  26.702  16.639   3.612
61250W        W32866  28.125  10.362  13.478
61251W        W32867  25.085   8.951   1.917
61252W        W32868  36.895  33.385  13.915
61253W        W32869  22.024  16.243   2.716
61254W        W32870  10.035  34.909   2.651
61255W        W32871  10.705  35.814   4.350
61256W        W32872  13.557  16.918   3.672
61257W        W32873  35.200  26.910  12.846
61258W        W32874   8.846  17.169   2.262
61259W        W32875  33.695  32.638   2.825
61260W        W32876  19.443  24.525  11.988
61261W        W32877  23.962  20.909  12.123
61262W        W32878  39.350  40.038   0.753
61263W        W32879   5.829  26.594   4.393
61264W        W32880  24.688  33.879   3.376
61265W        W32881   2.220   8.751  10.927
61266W        W32882  28.411  12.368  14.515
61267W        W32883  23.479  34.903  13.917
61268W        W32884  17.744  12.911  13.488
61269W        W32885  10.854  24.655   3.175
61270W        W32886  13.146  34.394  14.016
61271W        W32887  40.885  16.827  12.419
61272W        W32888  36.105   1.966   2.794
61273W        W32889  23.265   0.840   3.086
61274W        W32890  21.122  39.786  10.618
61275W        W32891   6.777   1.178  13.032
61276W        W32892  20.549  18.686  14.787
61277W        W32893  29.263  35.760  12.303
61278W        W32894  25.488  20.140   0.297
61279W        W32895  33.480   3.814   3.758
61280W        W32896  35.511  11.306   1.652
61281W        W32897  22.735  42.346   1.451
61282W        W32898   5.748  10.885  10.673
61283W        W32899  30.657  42.695   3.171
61284W        W32900   2.954  37.304   2.214
61285W        W32901  33.045   8.200  11.919
61286W        W32902  36.644  24.159  12.545
61287W        W32903  33.880  14.095   2.779
61288W        W32904  25.741  40.463   2.100
61289W        W32905  36.481  21.036  10.995
61290W        W32906   3.744  31.669   0.312
61291W        W32907   6.248   4.072   3.822
61292W        W32908  36.974  24.217   3.578
61293W        W32909   6.130  29.646  12.547
61294W        W32910  41.951   6.108  11.683
61295W        W32911  36.520  29.363   5.094
61296W        W32912  35.932  21.011   0.519
61297W        W32913  25.714  39.413   1.298
61298W        W32914  39.945  14.052   1.432
61299W        W32915  39.326  29.529   3.137
61300W        W32916  44.455  14.326   4.538
61301W        W32917   2.818  20.756   3.515
61302W        W32918  15.271  44.712   2.733
61303W        W32919   1.415   6.934   0.459
61304W        W32920  35.163  30.678  11.254
61305W        W32921  11.171  38.948  11.241
61306W        W32922  27.488  21.763   4.306
61307W        W32923  30.047  36.500  13.738
61308W        W32924  31.911  31.017  10.659
61309W        W32925  37.805  23.424  13.644
61310W        W32926  23.516  30.814   1.864
61311W        W32927  20.046   9.839  12.684
61312W        W32928   6.261  32.662  14.765
61313W        W32929   0.415  10.392   2.932
61314W        W32930  35.845  16.201   2.391
61315W        W32931  24.155  32.719   1.877
61316W        W32932  37.167   3.457   2.145
61317W        W32933  39.369  13.294  14.042
61318W        W32934  22.815  28.057  12.054
61319W        W32935  23.064  44.965   2.001
61320W        W32936  20.275  33.191   4.137
61321W        W32937   3.332  24.873   1.738
61322W        W32938  20.220  36.958   4.400
61323W        W32939  29.898  38.116  10.454
61324W        W32940  32.905  19.962   0.998
61325W        W32941  22.418  28.505  13.557
61326W        W32942  16.331  37.958  14.309
61327W        W32943  17.646  37.508   0.719
61328W        W32944  18.054  13.622  10.783
61329W        W32945  38.811  38.800   1.768
61330W        W32946  40.950  13.619   4.571
61331W        W32947  15.024  39.861   4.704
61332W        W32948  16.842  14.627  14.285
61333W        W32949  31.927  22.567   1.701
61334W        W32950  13.860  20.218  12.551
61335W        W32951  15.394   7.912  11.569
61336W        W32952   1.720  42.180   2.683
61337W        W32953  27.067  19.364  14.263
61338W        W32954  17.201  18.223  10.104
61339W        W32955  26.373  23.653   2.821
61340W        W32956  43.788  15.690   0.502
61341W        W32957  19.962  34.406   4.694
61342W        W32958   8.660  22.211  12.485
61343W        W32959  17.837   5.771  11.164
61344W        W32960   5.502  13.072   2.320
61345W        W32961  20.082  36.510   3.042
61346W        W32962   1.798  21.062   4.058
61347W        W32963  10.183  19.763   1.400
61348W        W32964   5.347  13.166   1.361
61349W        W32965  20.135   8.924  10.711
61350W        W32966   1.288  28.633  12.551
61351W        W32967  15.349  17.396   3.688
61352W        W32968  12.930   7.216  11.319
61353W        W32969  11.685  25.682   2.761
61354W        W32970  28.240  28.569  13.352
61355W        W32971  20.934   0.288  14.793
61356W        W32972  39.129   6.329  12.886
61357W        W32973  22.529  32.340   1.534
61358W        W32974   5.807  31.818  14.938
61359W        W32975  43.845  37.547   4.633
61360W        W32976  17.299   2.822   1.849
61361W        W32977  30.590   3.477   2.752
61362W        W32978  11.726  41.683   1.935
61363W        W32979   7.332  14.158   3.296
61364W        W32980  26.034  17.378   3.726
61365W        W32981  29.188  10.036   0.753
61366W        W32982  27.474  17.349  14.840
61367W        W32983  39.414  44.389   4.743
61368W        W32984  23.803   3.963  13.454
61369W        W32985  36.805  28.624   0.390
61370W        W32986   0.682  24.914   5.546
61371W        W32987  24.045  44.467   3.205
61372W        W32988  30.192  37.367   2.834
61373W        W32989  17.990  42.880   1.838
61374W        W32990   6.671  24.065  10.722
61375W        W32991   9.142  27.094   3.261
61376W        W32992  33.448   8.665   2.657
61377W        W32993  41.245   9.443   0.391
61378W        W32994   6.440  39.619   0.359
61379W        W32995  29.671   7.205   2.631
61380W        W32996  20.294   0.445   0.387
61381W        W32997  13.935   4.473   1.182
61382W        W32998  13.698  17.549   4.880
61383W        W32999  31.246  22.949   2.556
61384W        W33000   9.240  31.209   0.004
61385W        W33001   8.800  42.326   1.255
61386W        W33002  11.164  21.689  12.304
61387W        W33003   7.738  19.975  11.205
61388W        W33004  36.408  27.242  13.469
61389W        W33005  34.860  10.657   0.332
61390W        W33006   4.435  39.550  13.378
61391W        W33007  17.195  39.998   4.593
61392W        W33008  35.440  27.166   0.444
61393W        W33009  35.322  18.773   1.436
61394W        W33010  41.750   5.743  10.427
61395W        W33011   0.759  43.821   4.915
61396W        W33012   6.381  20.268   1.562
61397W        W33013  39.181  35.627   0.466
61398W        W33014  38.269  28.934  14.450
61399W        W33015  43.823   6.064   3.631
61400W        W33016  11.589  40.273  14.865
61401W        W33017  26.254  20.509   1.212
61402W        W33018  17.825   1.971   4.603
61403W        W33019  16.272   9.883   2.743
61404W        W33020  33.511   2.255  14.326
61405W        W33021   8.837  32.915  11.112
61406W        W33022  33.346  26.091  14.537
61407W        W33023  35.922  30.028   4.836
61408W        W33024  44.289  31.456  12.449
61409W        W33025  10.786   7.573  14.347
61410W        W33026   3.796  29.001   1.684
61411W        W33027  10.875  13.598  12.993
61412W        W33028  43.736   7.629   0.321
61413W        W33029  18.318  34.086  11.571
61414W        W33030   0.877  29.696  12.374
61415W        W33031   5.925  19.596  11.150
61416W        W33032  13.523  35.619  11.090
61417W        W33033  13.763   8.865  14.405
61418W        W33034  44.412   3.343   1.170
61419W        W33035  41.956   9.685   0.729
61420W        W33036   4.419   1.778  14.671
61421W        W33037  25.002  15.961   5.190
61422W        W33038  34.448  15.750   0.676
61423W        W33039  14.849   8.884   0.901
61424W        W33040  41.052  17.885  11.589
61425W        W33041  23.441  35.120  14.389
61426W        W33042  12.813  14.577  12.417
61427W        W33043   9.130   6.197   3.568
61428W        W33044  42.033  38.811  13.363
61429W        W33045  15.120   6.683   1.786
61430W        W33046  36.288  19.358  12.389
61431W        W33047  35.066  10.225   2.265
61432W        W33048  40.123  15.324   3.098
61433W        W33049  31.704  23.765   3.553
61434W        W33050  31.150  33.615   2.813
61435W        W33051  32.227  34.663   3.286
61436W        W33052  41.407  41.113  12.038
61437W        W33053  19.743  44.314   3.053
61438W        W33054   0.910   6.305  13.644
61439W        W33055  31.189  34.382   4.765
61440W        W33056  26.689  22.806  11.517
61441W        W33057  31.200  12.189  12.841
61442W        W33058  37.950  43.210   2.701
61443W        W33059  15.670  15.574   2.644
61444W        W33060  19.567  35.545   2.353
61445W        W33061  34.934  38.034   0.340
61446W        W33062  10.946  29.965   1.688
61447W        W33063  37.313  11.677  14.861
61448W        W33064   0.505  36.620  10.639
61449W        W33065  34.565  31.615  12.456
61450W        W33066  34.003   0.365  10.189
61451W        W33067  39.881   1.763  14.935
61452W        W33068  41.787  15.662  12.407
61453W        W33069  43.676  27.345   2.683
61454W        W33070  10.847  12.626   1.334
61455W        W33071  10.719  16.385   2.703
61456W        W33072  26.106  11.441  12.602
61457W        W33073  16.566   2.796   4.691
61458W        W33074  34.874  12.834  13.968
61459W        W33075   7.442  27.575   3.722
61460W        W33076   8.240   1.616   4.349
61461W        W33077  36.601  35.926   1.741
61462W        W33078  15.712   3.971   1.745
61463W        W33079  37.581  25.899  13.591
61464W        W33080  13.729  34.170   3.938
61465W        W33081  12.276  25.616  12.393
61466W        W33082  10.895  43.830   2.769
61467W        W33083  39.490  20.182  14.505
61468W        W33084   7.212  12.559   1.765
61469W        W33085  12.724  16.463  12.354
61470W        W33086  27.300  30.439   2.915
61471W        W33087  42.122  42.424  10.994
61472W        W33088  12.414  19.640  14.831
61473W        W33089  33.227  19.087  13.436
61474W        W33090  15.733   8.264  13.765
61475W        W33091  22.201  12.868   1.478
61476W        W33092  36.208  30.559   4.776
61477W        W33093   8.744  10.503  13.546
61478W        W33094  11.164  34.139  11.576
61479W        W33095  34.139   4.754  12.051
61480W        W33096  26.573  29.390  12.101
61481W        W33097  35.395   8.709   3.714
61482W        W33098   7.359  14.613   0.917
61483W        W33099  25.071   2.015  13.859
61484W        W33100   2.957  19.638   1.469
61485W        W33101  37.573  24.288  10.810
61486W        W33102  26.653  33.556   3.675
61487W        W33103  29.488  33.679   4.218
61488W        W33104  14.169  32.927   2.292
61489W        W33105   0.168  13.280  13.772
61490W        W33106  20.191  40.576   9.804
61491W        W33107   5.839  14.900  13.838
61492W        W33108  43.975  34.640  10.370
61493W        W33109  31.820   6.020  11.855
61494W        W33110  42.154  41.335   1.393
61495W        W33111  24.545  15.057  10.570
61496W        W33112  14.492  27.203  14.360
61497W        W33113  33.537  18.077  12.600
61498W        W33114  30.068  17.478   1.025
61499W        W33115  20.913  41.193   4.218
61500W        W33116  33.032  35.088   3.664
61501W        W33117   5.204  16.158   3.918
61502W        W33118  20.538  13.302  10.653
61503W        W33119  14.362  26.981  11.987
61504W        W33120  21.063   4.670   0.868
61505W        W33121   9.714  41.603   4.559
61506W        W33122  17.674  22.543  11.618
61507W        W33123   2.219   9.120  14.306
61508W        W33124   4.796  40.471   2.745
61509W        W33125  18.695  32.033  13.913
61510W        W33126  44.562  41.292   2.055
61511W        W33127  42.541  30.505  11.532
61512W        W33128  21.179  17.008  13.946
61513W        W33129  33.408   2.199  14.829
61514W        W33130  33.614   8.195   3.660
61515W        W33131  29.095  10.166   0.194
61516W        W33132   9.830  18.747  12.409
61517W        W33133  23.780  20.551   2.294
61518W        W33134   7.743  17.645  12.962
61519W        W33135  40.385   1.097  11.997
61520W        W33136  17.767  36.839   3.505
61521W        W33137  28.130  43.507  14.964
61522W        W33138  33.371  23.061  10.488
61523W        W33139  19.697  20.137   0.225
61524W        W33140   7.305  12.532   0.755
61525W        W33141   8.592  40.742  11.186
61526W        W33142  20.208   4.388  13.821
61527W        W33143  19.859  10.854   3.623
61528W        W33144  22.804  20.018  11.608
61529W        W33145  11.675   1.856   0.878
61530W        W33146  39.846   0.210  14.494
61531W        W33147  18.121  41.581   0.349
61532W        W33148  21.375  41.901   2.696
61533W        W33149  22.157  33.034   3.976
61534W        W33150   9.157  12.223   3.128
61535W        W33151  11.062  18.321  14.814
61536W        W33152  32.380  38.267  11.866
61537W        W33153  10.400  30.341  12.063
61538W        W33154   2.067  14.141   4.198
61539W        W33155  13.044   0.079   3.549
61540W        W33156  24.122  14.185   0.773
61541W        W33157  16.831   3.382  12.331
61542W        W33158  24.912   7.291   4.638
61543W        W33159  43.911  12.311   3.321
61544W        W33160   3.443  12.242  14.897
61545W        W33161  22.245  33.974   1.724
61546W        W33162  41.278  22.986  11.976
61547W        W33163  44.911  37.843  11.056
61548W        W33164  26.628  41.015   3.266
61549W        W33165  29.572   9.411   0.315
61550W        W33166  38.322  21.413  14.079
61551W        W33167  31.010  39.246  14.695
61552W        W33168  19.059  30.407  11.376
61553W        W33169   1.563  22.245  10.287
61554W        W33170   8.107  18.685  11.158
61555W        W33171  36.544  13.508  13.487
61556W        W33172  20.085  37.847  12.061
61557W        W33173  40.988  18.033   1.922
61558W        W33174  18.528  15.266   0.713
61559W        W33175  39.059  42.830  13.325
61560W        W33176  23.348  17.113  11.178
61561W        W33177   5.007  41.412   3.233
61562W        W33178  12.247   2.842   2.755
61563W        W33179  11.603  43.867   0.872
61564W        W33180  39.292  23.155   2.143
61565W        W33181  25.930  40.797   0.391
61566W        W33182  25.654   1.455   9.896
61567W        W33183  24.265  23.149  12.168
61568W        W33184  26.086   9.087  13.941
61569W        W33185  38.949  14.844  13.623
61570W        W33186  12.621  35.349   2.947
61571W        W33187   6.848  24.684   4.911
61572W        W33188   0.271  12.671   1.225
61573W        W33189  19.214  28.412  12.105
61574W        W33190  32.390  26.000   0.474
61575W        W33191   9.476  34.387  12.019
61576W        W33192  19.346  16.108  11.781
61577W        W33193  23.244   5.593   0.700
61578W        W33194   5.247   7.142   1.242
61579W        W33195   2.738   9.220  13.521
61580W        W33196  42.363   8.834  14.683
61581W        W33197  23.778   9.809  14.081
61582W        W33198  22.308  11.606   4.269
61583W        W33199  43.944  17.588  11.121
61584W        W33200  32.909  15.697   1.877
61585W        W33201  16.634  17.678  10.197
61586W        W33202  30.162  32.672  13.347
61587W        W33203  37.651   7.869  11.937
61588W        W33204  26.113  22.047   4.500
61589W        W33205   2.739   0.308  11.563
61590W        W33206  38.561  22.643  14.044
61591W        W33207   8.906  34.387   1.017
61592W        W33208  14.028   2.938   0.749
61593W        W33209   1.700  22.170  12.575
61594W        W33210  11.157  12.818  10.689
61595W        W33211   4.734   7.927   3.798
61596W        W33212  18.295  25.084  12.133
61597W        W33213  22.618   1.756  14.426
61598W        W33214  12.693  43.802  11.100
61599W        W33215  20.571  18.481  12.452
61600W        W33216   5.312  42.467  10.810
61601W        W33217   0.997  33.455   2.206
61602W        W33218  42.059  34.589  14.812
61603W        W33219  10.764  17.538  11.958
61604W        W33220  40.799  20.880  12.543
61605W        W33221  44.700   8.357  13.113
61606W        W33222   0.889  43.652  14.770
61607W        W33223  43.294   5.014  11.131
61608W        W33224  42.331  34.844  11.520
61609W        W33225  31.104  22.958  11.828
61610W        W33226  16.989  23.525  10.364
61611W        W33227  29.072   1.967   1.193
61612W        W33228  24.223  42.009  11.104
61613W        W33229  44.066  16.183  12.656
61614W        W33230   7.362  32.889   2.665
61615W        W33231  27.892  43.180   3.328
61616W        W33232  34.865  30.951  14.125
61617W        W33233  10.834  44.897  12.232
61618W        W33234  22.491  28.050  10.733
61619W        W33235  22.353  36.558   3.201
61620W        W33236  14.819  12.901   1.356
61621W        W33237  20.095  32.304  10.760
61622W        W33238  11.262  25.384   1.830
61623W        W33239  40.559   2.721   3.285
61624W        W33240  17.780  10.434   0.188
61625W        W33241  40.411  19.185  12.905
61626W        W33242  29.628  37.946  13.547
61627W        W33243  20.534  11.155  10.813
61628W        W33244  22.677  14.567  10.570
61629W        W33245  44.874   5.719  12.467
61630W        W33246  39.598  42.879  13.388
61631W        W33247   4.780   9.416  14.373
61632W        W33248  16.355  29.834   1.938
61633W        W33249  18.423  22.243   3.756
61634W        W33250  34.586  30.406   3.154
61635W        W33251   3.417  33.698   1.929
61636W        W33252   1.494  31.809  12.043
61637W        W33253  27.949  10.336  12.671
61638W        W33254  44.095  37.169   2.181
61639W        W33255  11.597  20.761  13.443
61640W        W33256  15.685   9.131   0.208
61641W        W33257  35.780  36.449  12.058
61642W        W33258   5.872  14.368  13.751
61643W        W33259  35.421  40.927   4.916
61644W        W33260  16.759  11.160  11.079
61645W        W33261  33.974  36.876   1.707
61646W        W33262  43.039   5.812  10.147
61647W        W33263  11.198  39.228  10.416
61648W        W33264  31.647  18.207  11.690
61649W        W33265  43.429  17.201   3.140
61650W        W33266  39.409  19.029   3.615
61651W        W33267  15.605  23.755  12.054
61652W        W33268   4.341  21.012   0.960
61653W        W33269   5.722  36.752   3.962
61654W        W33270  29.531  34.204   4.190
61655W        W33271  28.728  39.370  11.969
61656W        W33272   5.076   6.611  12.894
61657W        W33273  20.157  27.105  13.062
61658W        W33274  26.480  43.624  10.757
61659W        W33275  14.036   8.417   2.814
61660W        W33276  10.129   5.167   2.592
61661W        W33277  41.751  44.860  11.625
61662W        W33278  22.979   8.366   0.912
61663W        W33279   4.341   7.454  10.594
61664W        W33280  19.120  25.244  13.817
61665W        W33281  11.294  18.585  12.954
61666W        W33282   7.736   2.372   3.999
61667W        W33283  27.046  41.123   0.727
61668W        W33284  21.881  19.824   1.644
61669W        W33285   8.908   3.480   2.145
61670W        W33286  44.041  41.465   3.248
61671W        W33287  20.665  20.279  12.941
61672W        W33288   0.180  26.644   3.630
61673W        W33289   7.892  24.986   0.904
61674W        W33290  23.470  29.847  11.642
61675W        W33291  39.738  18.687   1.284
61676W        W33292  34.628   6.364  13.352
61677W        W33293  32.445  25.501  11.428
61678W        W33294  12.123  19.105  11.613
61679W        W33295  39.239  18.278  11.164
61680W        W33296  30.978   0.502  12.643
61681W        W33297  26.578  26.945  14.013
61682W        W33298  36.321   5.869  14.529
61683W        W33299   0.661  30.793  14.309
61684W        W33300  17.282  32.929  14.280
61685W        W33301  26.726  26.246   2.733
61686W        W33302   3.718   0.975   3.314
61687W        W33303  19.226  19.611  14.726
61688W        W33304   0.396   9.267   4.652
61689W        W33305  28.600  26.536  12.932
61690W        W33306  31.041   8.024   5.059
61691W        W33307  14.518  15.816  14.505
61692W        W33308  31.146  32.194  14.826
61693W        W33309  42.457  28.926   4.572
61694W        W33310  34.936  40.779   2.711
61695W        W33311   3.276   8.383   0.674
61696W        W33312  40.584  10.065  13.392
61697W        W33313   3.719  25.883   0.302
61698W        W33314   8.632  23.115  14.342
61699W        W33315  33.102   1.433   0.473
61700W        W33316  43.222  32.654  13.321
61701W        W33317  32.238  26.017   2.733
61702W        W33318  14.503  31.721   3.714
61703W        W33319  17.819  14.299  12.954
61704W        W33320  17.622   7.197   1.790
61705W        W33321   9.450  37.447  12.354
61706W        W33322  23.088  41.201   4.549
61707W        W33323  35.952  20.637  13.320
61708W        W33324  25.561  20.215  14.434
61709W        W33325   1.844  28.773   3.368
61710W        W33326   9.954  39.308   4.112
61711W        W33327  38.031  23.985  10.779
61712W        W33328  15.940  34.421   4.157
61713W        W33329  15.305  36.189  12.495
61714W        W33330  40.795  12.666  10.665
61715W        W33331  14.831  15.233   2.810
61716W        W33332  14.187  13.676   3.129
61717W        W33333  19.635  25.683   4.583
61718W        W33334   1.543  30.414   3.107
61719W        W33335  40.888  20.508  12.184
61720W        W33336  18.187  22.749   3.677
61721W        W33337  11.909  38.331  13.128
61722W        W33338  10.349  23.679  10.697
61723W        W33339  19.102  33.502   0.080
61724W        W33340   2.475  25.209   0.803
61725W        W33341  23.646  14.286   0.506
61726W        W33342  13.638  37.617   2.515
61727W        W33343  24.994   7.093   2.826
61728W        W33344  43.368   3.998  12.162
61729W        W33345  22.485  21.260  13.513
61730W        W33346  41.991   8.303  13.777
61731W        W33347  15.058  18.804   5.436
61732W        W33348  41.966  37.562   4.606
61733W        W33349  33.470  35.529  14.981
61734W        W33350   8.234  34.225   1.804
61735W        W33351  14.614  30.704   0.166
61736W        W33352  32.161  14.368   3.601
61737W        W33353  33.177  23.839   3.798
61738W        W33354  13.111  42.117   1.915
61739W        W33355  27.226  32.926   1.283
61740W        W33356  17.222  10.216  14.385
61741W        W33357   0.252  15.260  11.637
61742W        W33358  27.642  13.783  11.955
61743W        W33359  17.179  39.029  10.340
61744W        W33360  35.467  21.105   4.639
61745W        W33361  26.010  25.377   2.420
61746W        W33362  21.524  13.345   4.200
61747W        W33363  40.046  22.752   0.537
61748W        W33364  19.548  30.093  13.303
61749W        W33365  19.294  40.146  10.712
61750W        W33366  13.995   9.857   0.484
61751W        W33367   2.551  33.961  12.441
61752W        W33368  43.759  14.203  12.275
61753W        W33369  25.093  40.110   3.217
61754W        W33370  32.115  23.978   1.427
61755W        W33371   4.520   4.678   1.527
61756W        W33372   8.439  30.097   2.360
61757W        W33373  43.729  26.689   0.829
61758W        W33374  39.677  35.562   0.404
61759W        W33375   1.879  21.790  12.259
61760W        W33376  28.988   9.873  13.501
61761W        W33377   2.756  22.625   5.032
61762W        W33378  17.482   0.274  11.489
61763W        W33379  10.308   5.506  14.224
61764W        W33380  27.042  16.338  10.716
61765W        W33381  15.334   8.571  11.135
61766W        W33382  21.594  15.112   2.407
61767W        W33383  34.605  19.040   2.780
61768W        W33384  36.602  24.804  12.411
61769W        W33385  19.596  42.316   3.741
61770W        W33386  28.548  13.682   3.233
61771W        W33387   3.471  23.700  12.581
61772W        W33388  30.364  36.534   0.509
61773W        W33389  31.463  38.061   2.279
61774W        W33390   0.862  10.199   3.163
61775W        W33391  25.625  23.787  11.417
61776W        W33392  41.469  32.073   1.206
61777W        W33393  40.319  35.991  11.965
61778W        W33394  38.284  25.537   3.649
61779W        W33395  19.889  17.460   0.970
61780W        W33396   5.747   0.548  14.929
61781W        W33397   3.491  40.863   4.034
61782W        W33398  11.278  40.425   1.757
61783W        W33399  26.135  22.729   2.777
61784W        W33400   2.448  34.499  14.451
61785W        W33401  40.983  15.187   0.709
61786W        W33402  10.238  31.980  11.627
61787W        W33403  13.973  21.086   1.911
61788W        W33404  35.950  21.330   4.723
61789W        W33405  42.998   9.906  14.726
61790W        W33406  10.087  31.145   2.283
61791W        W33407  30.436  39.276   4.152
61792W        W33408  40.434  26.047  14.072
61793W        W33409  11.580  34.732  12.089
61794W        W33410   9.204  32.859   3.248
61795W        W33411  24.639  16.561   4.594
61796W        W33412  38.256  10.771   9.947
61797W        W33413  16.759  13.190  13.275
61798W        W33414  35.946  29.026  14.778
61799W        W33415  11.503  32.148   3.119
61800W        W33416  29.490  40.605   3.084
61801W        W33417  14.111   7.207  10.540
61802W        W33418  40.401  44.062  13.036
61803W        W33419   3.480  28.756  11.582
61804W        W33420  25.546   4.762   1.776
61805W        W33421  19.604  32.071   2.292
61806W        W33422  11.681  21.713  11.450
61807W        W33423  21.082   8.236   1.789
61808W        W33424  41.054  36.721   2.030
61809W        W33425  27.687  23.043  13.527
61810W        W33426  43.997  11.385  13.008
61811W        W33427  12.962  33.475   3.292
61812W        W33428  34.605  19.946   4.557
61813W        W33429   0.089  21.140  13.187
61814W        W33430  18.789  44.990   3.293
61815W        W33431  25.135  10.927  14.716
61816W        W33432  44.491  25.954   0.968
61817W        W33433  29.934  24.983  11.394
61818W        W33434   2.875  36.498   0.015
61819W        W33435  27.032  39.962  13.424
61820W        W33436  36.819  22.015  10.720
61821W        W33437   8.043  41.329  14.864
61822W        W33438  11.270   1.455  11.439
61823W        W33439  10.185  31.865  12.462
61824W        W33440  39.999  27.866   3.347
61825W        W33441  24.111  34.374   0.217
61826W        W33442   0.483  28.584  11.916
61827W        W33443   2.436  29.885   0.823
61828W        W33444   2.493   2.480  12.579
61829W        W33445  18.671  32.311   4.110
61830W        W33446   1.342   2.697   1.945
61831W        W33447  36.160  28.987  12.418
61832W        W33448  12.143  34.881  11.141
61833W        W33449   0.457  39.380   1.228
61834W        W33450  12.113  22.000  11.390
61835W        W33451   6.414   8.309  10.730
61836W        W33452  39.567  11.712   0.914
61837W        W33453   2.811  40.764  10.729
61838W        W33454   0.344   0.375  13.364
61839W        W33455  42.460  34.176   4.203
61840W        W33456  33.931  16.883  13.585
61841W        W33457  34.582  31.883   4.531
61842W        W33458  19.703   4.835  12.543
61843W        W33459   8.391   6.852   0.856
61844W        W33460  27.708   0.790  13.144
61845W        W33461  23.662   5.309  10.735
61846W        W33462  28.388  13.060  13.120
61847W        W33463  36.989  38.915   4.189
61848W        W33464  26.816  17.431  10.127
61849W        W33465  15.756  41.096  12.877
61850W        W33466  32.545  22.108   3.232
61851W        W33467  32.073   5.199   2.757
61852W        W33468   5.948  32.006   0.399
61853W        W33469  38.865   8.623   0.382
61854W        W33470  40.475  24.150  12.082
61855W        W33471  39.891  17.118  14.462
61856W        W33472   9.219  31.058  12.652
61857W        W33473  39.956  34.775   4.295
61858W        W33474  25.463   2.894  11.232
61859W        W33475  39.406  33.947   2.156
61860W        W33476   7.204  19.992   4.691
61861W        W33477  11.236   4.390   0.890
61862W        W33478   4.380   6.438  11.447
61863W        W33479  31.303  27.011  12.045
61864W        W33480   8.170  35.576  12.494
61865W        W33481  26.241  41.482   5.135
61866W        W33482  44.736   5.797  14.301
61867W        W33483  15.701  25.208   0.415
61868W        W33484  31.708  26.394   0.774
61869W        W33485  27.021  11.892  11.758
61870W        W33486  38.245  21.755   2.724
61871W        W33487  35.341  44.896  13.501
61872W        W33488  44.843  20.670  12.975
61873W        W33489  13.240   1.525  13.740
61874W        W33490  44.644   5.852   0.330
61875W        W33491  13.120  22.260   1.354
61876W        W33492  41.534  35.286   0.676
61877W        W33493  13.642  25.571  14.015
61878W        W33494  12.735  22.335  13.061
61879W        W33495  13.611  43.461   1.953
61880W        W33496  43.700  26.676   4.160
61881W        W33497  36.290  21.083   3.413
61882W        W33498  34.936  23.482   0.801
61883W        W33499  31.388  13.888   3.159
61884W        W33500   1.494  15.082   4.125
61885W        W33501  39.764   6.843   3.451
61886W        W33502  30.536   1.483  12.002
61887W        W33503   5.471   4.385  14.326
61888W        W33504  17.798  22.554   4.235
61889W        W33505  12.700   3.884   3.260
61890W        W33506  13.049  36.420   3.897
61891W        W33507  38.287  10.179   3.622
61892W        W33508   2.178  27.865   4.154
61893W        W33509  35.023  36.816   1.737
61894W        W33510  36.814  13.066  12.841
61895W        W33511  31.920  41.787  14.272
61896W        W33512  37.905  29.517  13.895
61897W        W33513  22.486  28.897   1.369
61898W        W33514  37.446   9.086   1.517
61899W        W33515  10.550  36.956  13.811
61900W        W33516  15.304  39.866  12.073
61901W        W33517   4.265  11.346   1.836
61902W        W33518  40.874  24.753   0.762
61903W        W33519  16.625  11.812  11.799
61904W        W33520   3.631  30.398   5.036
61905W        W33521  41.425  14.383   4.663
61906W        W33522   2.556  23.610   3.581
61907W        W33523  10.254  13.380   0.528
61908W        W33524   7.393  18.977   1.688
61909W        W33525  29.541   7.935  11.497
61910W        W33526  36.960  25.713  12.892
61911W        W33527  31.555  34.630  11.089
61912W        W33528  35.245  17.213  10.339
61913W        W33529  32.469  23.489   2.326
61914W        W33530  26.385  41.916  14.567
61915W        W33531   3.302  29.034   1.864
61916W        W33532   2.485   5.246   2.846
61917W        W33533  41.233  29.959   0.046
61918W        W33534  21.102  16.373  10.969
61919W        W33535  43.732  31.606   2.980
61920W        W33536  31.181  20.106   2.727
61921W        W33537  10.871  32.385   1.161
61922W        W33538  31.062  19.010   3.161
61923W        W33539   1.130  22.609  10.172
61924W        W33540  38.781  11.597  11.527
61925W        W33541  24.256  35.919   2.701
61926W        W33542  37.063  35.669   0.900
61927W        W33543  25.801  42.602   0.701
61928W        W33544   8.830   4.927   3.685
61929W        W33545  21.236  17.498   1.563
61930W        W33546  10.603   8.921   0.345
61931W        W33547  34.509   8.789   1.091
61932W        W33548  21.214  13.911  10.672
61933W        W33549  10.276  34.631  11.379
61934W        W33550   0.878  21.198   1.229
61935W        W33551  23.411  31.881   2.313
61936W        W33552  24.080  36.789  14.915
61937W        W33553  20.054  25.218  13.940
61938W        W33554  14.147  12.730   4.158
61939W        W33555  43.438  27.020   3.402
61940W        W33556  38.444  28.254  10.901
61941W        W33557  16.639   0.758  13.108
61942W        W33558  24.005  29.100   5.053
61943W        W33559  44.454   9.481   2.710
61944W        W33560  33.922  34.647   1.907
61945W        W33561  44.321  35.497   2.547
61946W        W33562  31.463  16.778  10.530
61947W        W33563  35.445  15.583   3.314
61948W        W33564   5.954  41.176   3.110
61949W        W33565  22.129  21.567   4.534
61950W        W33566  28.648  40.271   1.531
61951W        W33567  33.930  38.615  14.420
61952W        W33568  31.464  12.713  14.504
61953W        W33569  34.141  30.148  13.361
61954W        W33570   0.720   7.614   0.427
61955W        W33571   0.861  23.130   0.904
61956W        W33572  11.801  33.834   3.413
61957W        W33573  16.025  25.941  11.004
61958W        W33574  12.239  22.765   4.095
61959W        W33575  23.333   6.209   3.750
61960W        W33576  34.192   5.727  12.848
61961W        W33577  15.444  19.551  10.969
61962W        W33578  18.745  11.680  12.017
61963W        W33579  39.254  36.009  14.170
61964W        W33580  27.419  24.241   1.660
61965W        W33581  18.421  35.780   2.173
61966W        W33582  44.224   9.428   1.728
61967W        W33583  31.922   0.687  11.902
61968W        W33584   8.902  41.998  11.719
61969W        W33585  22.193  28.022  11.419
61970W        W33586  34.843   9.234   1.793
61971W        W33587   9.597  42.059   1.223
61972W        W33588  23.364  21.675  10.681
61973W        W33589  20.584  17.634  13.940
61974W        W33590  35.447  44.828  12.995
61975W        W33591  29.509  14.447  10.672
61976W        W33592  41.961   2.869   0.241
61977W        W33593  43.136  26.545  11.025
61978W        W33594  14.816  35.403  11.035
61979W        W33595  15.558  11.990  14.510
61980W        W33596  31.648  41.536  13.899
61981W        W33597  35.069   5.194  13.904
61982W        W33598   3.733   1.397   9.708
61983W        W33599   8.161  13.261  12.493
61984W        W33600  42.848  10.332  14.961
61985W        W33601  33.176  43.927   0.382
61986W        W33602  38.472   2.066   4.796
61987W        W33603  24.090  21.692   1.740
61988W        W33604   1.377  39.526  11.592
61989W        W33605   7.412  16.634   1.432
61990W        W33606  14.178  23.370  14.763
61991W        W33607   3.414  24.702  14.405
61992W        W33608   4.487  43.088  14.877
61993W        W33609   5.926  37.553  12.511
61994W        W33610   9.380  17.277   0.086
61995W        W33611  16.426  24.112   0.220
61996W        W33612  28.198  10.777  12.574
61997W        W33613   4.167  37.199  11.869
61998W        W33614  31.027  25.216   0.885
61999W        W33615  18.035  24.200  12.522
62000W        W33616   6.950  15.613   4.194
62001W        W33617   2.801   7.937  14.111
62002W        W33618  44.738  38.209   3.677
62003W        W33619  11.832  26.266   1.847
62004W        W33620  33.042  10.850   2.796
62005W        W33621  11.583   0.698  13.491
62006W        W33622  27.042  18.337  13.560
62007W        W33623  36.100  39.288  11.983
62008W        W33624  25.769  20.060  12.130
62009W        W33625  12.005  29.356  10.696
62010W        W33626   5.193  37.956  14.648
62011W        W33627  30.643  28.182  12.947
62012W        W33628  15.267  35.407  10.741
62013W        W33629  10.444  18.024  11.240
62014W        W33630  29.403  41.344  12.615
62015W        W33631  40.468  23.517   1.806
62016W        W33632   9.361  13.664   0.242
62017W        W33633   4.866  36.472   1.218
62018W        W33634  19.551  11.847  13.147
62019W        W33635  21.539  22.316   0.543
62020W        W33636  32.755  10.755   1.433
62021W        W33637  22.225  35.508  13.554
62022W        W33638  19.805  43.023  11.696
62023W        W33639  22.581  14.362   2.910
62024W        W33640  39.466  42.674   3.151
62025W        W33641  23.448  30.059  12.114
62026W        W33642   0.575  35.642  14.349
62027W        W33643   7.314  34.381  11.151
62028W        W33644  38.094  24.491   4.051
62029W        W33645  13.213  21.121   3.645
62030W        W33646   8.166   7.304   3.680
62031W        W33647   8.069   6.640   1.205
62032W        W33648  26.190   3.478   3.755
62033W        W33649  43.844  23.515  11.750
62034W        W33650  38.371  41.104   2.375
62035W        W33651   4.315  16.626  12.715
62036W        W33652  39.087  20.095  12.350
62037W        W33653  26.080   6.319   4.790
62038W        W33654  25.776  11.806   1.123
62039W        W33655  18.540  18.831  14.813
62040W        W33656  11.494  21.724  13.300
62041W        W33657  41.609  42.395  11.006
62042W        W33658  10.478  42.035  12.528
62043W        W33659   9.161  42.812  14.252
62044W        W33660  33.472  22.288   1.769
62045W        W33661  15.152  11.346  11.970
62046W        W33662  27.430   7.297   2.285
62047W        W33663  28.326   1.808  13.804
62048W        W33664  21.137  31.841   2.793
62049W        W33665   6.073  40.197  12.723
62050W        W33666   9.879  35.580  10.716
62051W        W33667  13.314   2.707  13.961
62052W        W33668  41.440   4.801   1.446
62053W        W33669  37.233  26.479  10.967
62054W        W33670  17.687  33.054  12.847
62055W        W33671   7.329  26.358   3.277
62056W        W33672  14.178   6.165  12.539
62057W        W33673  13.229  40.497  14.983
62058W        W33674  28.778  35.299   3.214
62059W        W33675  20.314  26.231   4.911
62060W        W33676  24.100  28.780  11.431
62061W        W33677  33.784  10.270  10.668
62062W        W33678   7.805  20.011  14.050
62063W        W33679  38.939   3.049   4.847
62064W        W33680   2.990  27.575   1.559
62065W        W33681  32.262  29.272   2.159
62066W        W33682   0.042   9.835   3.384
62067W        W33683  25.098   0.239   3.398
62068W        W33684   1.813   0.376   9.793
62069W        W33685  35.669  25.525   2.238
62070W        W33686  12.256  15.341   1.728
62071W        W33687  14.158  18.543  13.476
62072W        W33688  44.788  18.604   0.661
62073W        W33689   3.659  30.978  11.245
62074W        W33690  32.898  21.758  13.090
62075W        W33691  33.275  13.562   3.224
62076W        W33692  35.492   3.608  12.611
62077W        W33693  42.330  15.743  11.553
62078W        W33694  25.763  19.104  13.991
62079W        W33695  39.817  14.558  14.019
62080W        W33696  20.709  44.692  13.111
62081W        W33697  10.143  15.371  11.548
62082W        W33698  34.450  15.170   3.455
62083W        W33699   1.392  26.668   1.910
62084W        W33700  29.140  11.820   3.278
62085W        W33701   0.945  16.363  10.596
62086W        W33702  21.665  34.983  13.952
62087W        W33703  34.957  30.922   3.616
62088W        W33704  43.050  44.104   3.192
62089W        W33705   0.471  17.748   2.811
62090W        W33706   1.229  20.703  11.996
62091W        W33707  41.436  40.930  14.612
62092W        W33708  20.667  12.891   3.091
62093W        W33709  15.632  13.713   3.333
62094W        W33710  32.056  40.529  11.887
62095W        W33711  30.585  27.203  14.243
62096W        W33712   6.559  15.386   1.797
62097W        W33713  41.399  21.523   1.140
62098W        W33714  26.449  32.362   4.238
62099W        W33715   1.811  42.327  10.688
62100W        W33716   2.944  34.191  13.472
62101W        W33717  23.209  14.710  12.977
62102W        W33718  12.230  11.197   2.336
62103W        W33719  13.859  37.274  12.872
62104W        W33720  34.038   4.814   1.024
62105W        W33721  22.929  19.576   0.846
62106W        W33722  32.135   4.028   2.353
62107W        W33723   7.005  26.487  14.380
62108W        W33724  18.540  38.561   2.388
62109W        W33725  42.544  21.012  14.772
62110W        W33726  42.580   1.384  10.671
62111W        W33727  16.182  24.745   3.844
62112W        W33728  19.500   6.467   0.236
62113W        W33729  11.889  21.211  12.575
62114W        W33730  33.595  37.739  11.938
62115W        W33731   1.229   2.639   2.975
62116W        W33732  24.109   8.124  13.967
62117W        W33733   9.625  11.887  10.707
62118W        W33734  29.297   0.371  11.124
62119W        W33735  15.223  43.393   0.490
62120W        W33736  32.187  44.912  11.429
62121W        W33737  25.251  34.602   2.917
62122W        W33738   9.121  42.444  10.609
62123W        W33739  32.013  19.303   4.078
62124W        W33740  40.154  22.222  12.042
62125W        W33741  38.696   1.467  11.313
62126W        W33742   5.878  18.453  13.488
62127W        W33743  21.113  16.749   2.230
62128W        W33744  35.927  21.794  11.159
62129W        W33745   1.360   2.569   4.657
62130W        W33746   9.295  29.362  10.639
62131W        W33747  17.631  43.288  10.285
62132W        W33748  12.198  36.834  11.026
62133W        W33749  24.394  18.978  11.716
62134W        W33750  11.496  23.431  13.194
62135W        W33751   1.591   1.665  14.837
62136W        W33752   8.695  36.746   2.923
62137W        W33753   5.142  42.868   4.604
62138W        W33754  37.502   6.227   2.380
62139W        W33755   0.501  12.844   1.674
62140W        W33756  43.456   4.694  10.757
62141W        W33757  37.918  16.916   1.894
62142W        W33758  13.695  23.692  13.125
62143W        W33759   8.870  16.326  14.388
62144W        W33760  33.827  30.362   2.781
62145W        W33761  30.973   6.447   0.963
62146W        W33762  23.680   3.962  11.226
62147W        W33763  18.782  42.783   1.362
62148W        W33764   1.801  20.703  12.874
62149W        W33765  28.014  14.644   2.607
62150W        W33766  29.419  13.256  14.750
62151W        W33767  13.083  10.860   4.399
62152W        W33768  31.926   9.640   1.362
62153W        W33769  31.445   8.896  12.875
62154W        W33770   3.752  17.948  14.473
62155W        W33771  40.816   1.678   3.852
62156W        W33772   4.721  21.217   0.038
62157W        W33773  13.715  19.916  14.882
62158W        W33774  10.214  43.422   3.848
62159W        W33775  39.945  27.850   0.676
62160W        W33776  30.150  32.461  10.688
62161W        W33777  39.646  32.389   4.117
62162W        W33778  18.083  16.694   1.759
62163W        W33779  33.213  42.337  13.560
62164W        W33780  34.828  42.101   4.829
62165W        W33781  15.649  38.975  14.696
62166W        W33782  31.503   1.753   1.013
62167W        W33783  21.159  25.860   0.911
62168W        W33784  36.250  44.710   4.495
62169W        W33785   9.413   9.425  12.483
62170W        W33786  22.551  14.692  12.452
62171W        W33787  42.592  27.701   0.884
62172W        W33788  15.858  30.089   4.720
62173W        W33789  19.708  24.166  10.712
62174W        W33790  43.385  25.011   2.957
62175W        W33791  34.919  28.548  14.106
62176W        W33792  34.086   1.814  13.416
62177W        W33793  26.679   0.510  10.400
62178W        W33794  26.496  36.754   0.809
62179W        W33795  27.284  15.607   1.394
62180W        W33796  12.299  36.311  11.461
62181W        W33797  16.053  18.168   4.232
62182W        W33798  38.588  41.528  11.572
62183W        W33799   7.618   7.826  14.276
62184W        W33800  41.945   5.899   3.906
62185W        W33801  15.299  40.788   0.738
62186W        W33802  18.697  36.144  13.855
62187W        W33803  22.061   9.400   4.276
62188W        W33804  34.065   0.808   5.049
62189W        W33805   1.957  28.561  14.417
62190W        W33806  14.241  37.065   1.214
62191W        W33807   8.880   4.024  13.578
62192W        W33808  38.721  31.529   1.289
62193W        W33809  21.795   2.496  12.927
62194W        W33810   3.968  17.111  11.550
62195W        W33811  36.878  22.582  10.620
62196W        W33812  15.650  13.774  14.053
62197W        W33813  14.244  14.367   2.090
62198W        W33814  22.802   6.726  10.716
62199W        W33815  15.519  24.587  14.802
62200W        W33816  18.700  22.728   3.711
62201W        W33817  28.014  33.487   4.289
62202W        W33818  35.465  33.098  12.055
62203W        W33819   7.688   7.177  14.225
62204W        W33820  23.278  36.874  13.374
62205W        W33821  32.458  43.070   1.840
62206W        W33822  10.658  36.924  12.469
62207W        W33823  14.981  33.889   1.000
62208W        W33824  17.546  27.391   0.969
62209W        W33825  20.529   5.714   1.485
62210W        W33826  25.245  20.782   2.366
62211W        W33827  30.084   7.960   4.073
62212W        W33828  13.737  34.970  12.164
62213W        W33829  13.566   4.411   2.323
62214W        W33830  12.017  31.966   2.351
62215W        W33831   1.634  40.720  11.039
62216W        W33832  40.782  42.069   4.068
62217W        W33833   5.692  14.194  10.934
62218W        W33834  44.101  33.158  14.513
62219W        W33835  30.706   5.521  10.489
62220W        W33836  10.964   5.192  12.578
62221W        W33837  26.500  39.075  14.359
62222W        W33838   1.281  23.046   1.443
62223W        W33839  10.187  12.534   2.844
62224W        W33840  41.934  21.178  12.853
62225W        W33841  41.282  34.981   1.952
62226W        W33842   8.111  42.406   4.352
62227W        W33843   4.382  36.965  14.769
62228W        W33844   5.351  14.515   4.578
62229W        W33845  33.551  36.357   1.022
62230W        W33846  13.034   0.344   2.138
62231W        W33847  41.419   0.464  13.419
62232W        W33848   7.547  14.772  11.318
62233W        W33849  38.225  38.805  12.562
62234W        W33850  17.425  25.149  12.207
62235W        W33851  36.601   4.382   1.594
62236W        W33852  16.934  31.419   4.020
62237W        W33853  25.137  29.798  14.759
62238W        W33854  31.601  23.569  11.121
62239W        W33855  16.305  36.796  14.929
62240W        W33856  29.878  33.344   4.259
62241W        W33857   2.891  37.056  12.972
62242W        W33858   5.369  14.833  12.358
62243W        W33859  39.805  42.471  13.897
62244W        W33860  36.164  43.775   4.140
62245W        W33861  29.026   2.278   4.337
62246W        W33862  13.417  25.233   3.682
62247W        W33863   7.303  17.796  14.965
62248W        W33864  34.992  21.212   0.081
62249W        W33865  32.453   7.462  12.073
62250W        W33866  28.626   0.396   2.403
62251W        W33867   2.843  28.781  12.111
62252W        W33868  20.613   7.624  10.782
62253W        W33869  29.353  17.698   1.942
62254W        W33870  24.019   7.349  11.262
62255W        W33871  39.321  21.003   3.375
62256W        W33872  19.723  29.569  14.253
62257W        W33873  12.579  33.135   3.286
62258W        W33874  34.678  19.605  14.938
62259W        W33875  16.861  31.765   0.234
62260W        W33876  39.965  33.168   3.120
62261W        W33877   4.954  38.455   3.366
62262W        W33878  18.001  30.227  12.978
62263W        W33879  39.829   3.183  14.509
62264W        W33880  12.659  38.820  13.144
62265W        W33881   8.189  33.589   2.972
62266W        W33882  27.631  24.803   3.613
62267W        W33883  19.310  35.882   0.653
62268W        W33884   5.606  22.978  12.372
62269W        W33885  30.072  20.767  11.685
62270W        W33886  12.331  26.594   1.859
62271W        W33887  35.884  22.413   3.816
62272W        W33888  38.407  13.374   2.031
62273W        W33889  41.727  37.555   1.396
62274W        W33890   6.002   7.683   0.804
62275W        W33891  41.897   0.309  12.850
62276W        W33892  12.111  12.439   0.246
62277W        W33893  39.860  23.297  12.179
62278W        W33894  35.580  32.211  13.103
62279W        W33895  18.885  43.511  10.675
62280W        W33896   3.199  15.653  14.038
62281W        W33897  10.441  23.203   3.326
62282W        W33898   7.816  25.941   0.823
62283W        W33899  40.952  33.821  12.334
62284W        W33900   2.003  35.176  14.799
62285W        W33901   6.787   8.574   3.181
62286W        W33902  44.544  44.623  11.041
62287W        W33903  35.568   7.277   1.781
62288W        W33904  36.495  35.760   4.093
62289W        W33905   2.778  30.234  12.230
62290W        W33906  24.008  17.260  12.914
62291W        W33907  20.456  44.958   0.557
62292W        W33908   4.827  44.361   1.606
62293W        W33909  22.057  24.557   1.378
62294W        W33910  24.463  34.894  12.554
62295W        W33911  44.507  15.600   1.251
62296W        W33912   8.858  30.630   0.581
62297W        W33913   6.431  20.747   0.017
62298W        W33914  23.224  41.411  13.509
62299W        W33915  10.073   0.625  14.312
62300W        W33916  19.796  12.229  12.459
62301W        W33917   3.998  26.089  13.490
62302W        W33918  14.590  34.646   0.855
62303W        W33919   6.183   6.773   1.336
62304W        W33920  36.931  14.126  14.807
62305W        W33921  42.437  38.553  12.970
62306W        W33922  26.766  25.473  14.451
62307W        W33923  10.334  43.420  10.630
62308W        W33924  33.962  25.637   0.960
62309W        W33925   1.940  41.338   2.149
62310W        W33926  22.756  40.894   4.225
62311W        W33927  25.536  24.019  13.521
62312W        W33928  32.990  32.511   1.155
62313W        W33929  41.849  19.769  12.948
62314W        W33930  23.681  16.199  10.754
62315W        W33931  23.496  12.793   2.739
62316W        W33932   0.954   5.172   1.396
62317W        W33933  16.854  42.820   0.377
62318W        W33934   2.570  24.215  14.305
62319W        W33935  24.211  27.948   0.916
62320W        W33936  23.057   6.549  11.852
62321W        W33937  27.497   2.841   3.804
62322W        W33938   4.134  22.483   2.336
62323W        W33939  22.485  30.155   4.282
62324W        W33940  38.508  39.797   4.093
62325W        W33941   6.705   5.410  13.917
62326W        W33942  40.908  11.128   3.091
62327W        W33943  10.045   2.803  11.306
62328W        W33944  14.253  14.864  11.974
62329W        W33945  16.333  31.583  12.569
62330W        W33946  27.599  40.461  10.885
62331W        W33947  19.888  26.526  12.965
62332W        W33948  37.350  10.342  11.743
62333W        W33949  21.269  44.366   4.847
62334W        W33950  14.681  11.513   2.851
62335W        W33951  28.681   3.177   4.433
62336W        W33952  39.006  14.405  12.579
62337W        W33953  25.272  12.103   1.727
62338W        W33954   6.351  35.330  12.719
62339W        W33955  25.827  17.266  11.635
62340W        W33956  10.873  27.990  14.885
62341W        W33957  42.171  35.982   1.909
62342W        W33958  12.316  33.450  14.760
62343W        W33959  36.893  14.644  14.882
62344W        W33960  13.559  42.951  14.273
62345W        W33961  24.135  28.650   4.346
62346W        W33962   6.932  44.259   2.446
62347W        W33963  23.602  15.727   0.404
62348W        W33964  19.676   9.594  14.037
62349W        W33965   4.254  41.289   1.815
62350W        W33966  30.912  25.975  13.205
62351W        W33967   8.699  40.436   2.265
62352W        W33968  23.098  22.637   2.938
62353W        W33969   8.307  25.460  12.378
62354W        W33970  16.957  16.840   2.361
62355W        W33971   3.354   0.271   0.366
62356W        W33972  18.847  32.902  12.145
62357W        W33973  11.847  27.458  14.396
62358W        W33974  37.918  33.525  13.788
62359W        W33975   3.194  33.453  10.772
62360W        W33976   5.356  34.662   1.821
62361W        W33977  42.887  29.169   2.111
62362W        W33978  36.395   4.861  14.505
62363W        W33979  11.874   1.734   4.707
62364W        W33980  34.897  11.126   4.138
62365W        W33981  43.327  14.101  14.849
62366W        W33982   0.110  40.078  13.916
62367W        W33983  16.552  10.003   3.778
62368W        W33984  15.705   2.796   2.687
62369W        W33985  39.284  11.967   1.270
62370W        W33986   8.168  17.303   2.883
62371W        W33987   2.679  14.390  13.860
62372W        W33988  38.394  10.359  13.672
62373W        W33989  26.053  21.818  11.044
62374W        W33990   2.054  42.662  13.172
62375W        W33991  20.007   2.689   3.346
62376W        W33992  26.379  39.126   4.571
62377W        W33993  13.739  13.343   0.390
62378W        W33994   3.380  44.017   1.391
62379W        W33995  12.212  25.394  11.143
62380W        W33996  30.878   8.273   4.072
62381W        W33997  11.793  26.750  14.877
62382W        W33998  34.892  25.576   0.893
62383W        W33999   9.349  35.059  13.885
62384W        W34000   8.897  32.040  12.846
62385W        W34001  25.471   8.701   2.206
62386W        W34002   7.499   4.195   0.438
62387W        W34003  21.427  43.237   0.642
62388W        W34004  39.830  38.327   0.494
62389W        W34005  34.537  25.187   0.148
62390W        W34006  44.887  20.199  12.668
62391W        W34007  25.873  37.076  12.925
62392W        W34008  25.964  13.621   2.833
62393W        W34009  25.924  26.262   1.567
62394W        W34010  22.580  35.443  10.833
62395W        W34011  28.837  15.857   1.885
62396W        W34012   6.839   4.097   2.331
62397W        W34013   1.839  41.319   3.821
62398W        W34014  12.831  37.644  12.553
62399W        W34015  31.179   9.520  10.792
62400W        W34016  12.607  14.173   2.905
62401W        W34017  33.076  28.158  13.284
62402W        W34018   2.680  33.597  10.846
62403W        W34019   3.758  35.386   0.925
62404W        W34020  22.605  24.145  11.450
62405W        W34021  24.684  23.300  12.806
62406W        W34022  14.122   3.543  10.124
62407W        W34023  25.579   9.985  14.872
62408W        W34024  25.641  25.520   4.579
62409W        W34025   5.470  10.675  11.061
62410W        W34026  36.461  27.202   2.328
62411W        W34027  32.697  39.997  13.365
62412W        W34028  37.240  27.019  14.496
62413W        W34029  18.612  18.782   0.712
62414W        W34030   5.692   5.308  14.978
62415W        W34031  11.907  11.339   3.670
62416W        W34032  33.526  41.768  14.986
62417W        W34033  42.542  26.537   0.527
62418W        W34034   0.523  22.771  13.873
62419W        W34035   9.915   9.681   3.786
62420W        W34036  24.178   1.773   2.907
62421W        W34037   6.911   8.463  13.379
62422W        W34038  13.638  42.292  12.096
62423W        W34039  33.090  13.584   1.746
62424W        W34040   5.394   9.875   2.331
62425W        W34041  40.227  36.937   4.576
62426W        W34042  10.059  40.626   2.267
62427W        W34043  17.952  18.728   4.591
62428W        W34044  22.444   3.671  12.520
62429W        W34045  15.287  42.164  10.637
62430W        W34046  21.985  38.919   4.208
62431W        W34047  20.514   6.858   4.369
62432W        W34048  33.899   1.104   4.036
62433W        W34049  22.566  31.452  13.750
62434W        W34050   3.441   2.038   1.538
62435W        W34051  20.070  28.974   1.252
62436W        W34052  21.729  35.517   0.676
62437W        W34053   3.838   6.380  12.088
62438W        W34054  18.092  20.583   0.913
62439W        W34055  38.053  17.026  13.338
62440W        W34056   6.982  30.648   0.392
62441W        W34057  38.405   5.713   0.008
62442W        W34058  15.931  11.108   2.739
62443W        W34059  13.282   7.697  13.845
62444W        W34060   8.432   3.667  14.944
62445W        W34061  43.278  19.226   1.445
62446W        W34062   3.020  38.926   0.510
62447W        W34063  15.740  41.867  10.651
62448W        W34064  44.720  18.729  13.844
62449W        W34065  40.579  42.014   2.304
62450W        W34066  36.919  11.629  10.395
62451W        W34067  20.155  11.408  10.522
62452W        W34068   6.222  17.567   0.459
62453W        W34069  41.939  32.056  10.248
62454W        W34070  14.550   7.412   3.268
62455W        W34071  23.556  35.063   0.210
62456W        W34072  10.952  27.829   0.400
62457W        W34073  26.504  19.085   1.374
62458W        W34074   7.505  39.979  10.781
62459W        W34075   6.780  30.894   1.697
62460W        W34076   0.278  36.188   0.673
62461W        W34077  23.615  25.476   2.754
62462W        W34078  25.350   0.351  12.093
62463W        W34079  38.962  15.198  10.408
62464W        W34080   9.914   1.799   4.587
62465W        W34081  28.979   9.789   4.881
62466W        W34082  26.164  20.154   4.348
62467W        W34083  34.434  30.966  13.818
62468W        W34084  28.299  40.004  13.101
62469W        W34085  40.573  21.845  12.098
62470W        W34086   3.193  22.647   0.927
62471W        W34087  44.512  20.248   4.188
62472W        W34088  39.902  12.846   4.086
62473W        W34089   8.925  23.123  12.935
62474W        W34090  16.768   2.846  14.878
62475W        W34091  14.259  24.431   0.072
62476W        W34092  43.696   1.257  12.023
62477W        W34093   5.653  20.231   0.258
62478W        W34094  36.127  43.000   3.906
62479W        W34095  18.778   9.769   4.656
62480W        W34096   8.928  28.875   2.757
62481W        W34097  35.436  30.999  13.831
62482W        W34098  19.125   3.937  12.393
62483W        W34099   0.085  28.964  10.640
62484W        W34100  24.257  15.501  10.735
62485W        W34101  44.029  44.550  11.783
62486W        W34102  26.072   5.650  11.312
62487W        W34103  25.959  21.459   4.087
62488W        W34104  29.813   1.695  12.496
62489W        W34105  10.413  35.996  10.638
62490W        W34106  38.105  44.410  14.558
62491W        W34107  25.731  21.179   0.805
62492W        W34108  18.019  19.185   3.844
62493W        W34109  23.378  39.694  12.988
62494W        W34110  23.714   6.677   4.434
62495W        W34111  23.026  38.368  11.584
62496W        W34112   3.028   2.326  12.655
62497W        W34113   8.876  20.788   2.724
62498W        W34114  23.664  21.011   1.742
62499W        W34115   4.823  41.810   2.396
62500W        W34116   8.133  21.622   4.386
62501W        W34117  38.058  17.378   0.112
62502W        W34118   6.841  11.805  10.871
62503W        W34119   9.091   9.689   2.711
62504W        W34120  30.525   0.367  10.900
62505W        W34121  41.881  22.930  12.654
62506W        W34122   5.797  35.586  11.136
62507W        W34123   4.231  33.280   3.592
62508W        W34124  37.610  17.523  11.718
62509W        W34125  44.649  17.015   5.015
62510W        W34126  43.417  13.872  10.917
62511W        W34127   5.876   9.452  13.675
62512W        W34128  37.984   6.529   0.764
62513W        W34129  22.420  17.892  11.555
62514W        W34130  38.019  33.535   2.313
62515W        W34131  25.087  42.723   2.248
62516W        W34132   5.834  15.412  14.618
62517W        W34133  30.673  35.005  14.026
62518W        W34134   5.024  23.681   3.352
62519W        W34135  26.098  15.533   0.830
62520W        W34136  23.517  22.532   1.914
62521W        W34137  18.545  12.184  12.041
62522W        W34138  16.105  13.680  11.524
62523W        W34139  35.589   8.912  11.181
62524W        W34140  16.600  36.404  11.607
62525W        W34141  34.853  27.887   4.181
62526W        W34142   6.594  38.888   2.743
62527W        W34143  15.218   3.188   4.197
62528W        W34144  39.800  17.264   3.023
62529W        W34145  42.922   5.900   5.067
62530W        W34146  13.075  19.217   1.275
62531W        W34147  12.609  28.445  14.126
62532W        W34148  41.407   2.515  13.417
62533W        W34149  35.511  38.134  13.515
62534W        W34150  38.312  11.336   2.270
62535W        W34151  25.403  31.987  11.615
62536W        W34152   9.460   6.961  13.833
62537W        W34153  13.305  21.928  12.583
62538W        W34154   9.162  39.579   3.170
62539W        W34155  34.855  29.082  12.404
62540W        W34156  28.041  37.477  13.440
62541W        W34157  38.041   0.687   2.900
62542W        W34158  29.497  24.977   3.251
62543W        W34159  44.216  18.711  13.869
62544W        W34160  14.849  19.788  10.649
62545W        W34161  44.315  25.481   1.958
62546W        W34162  12.726   4.833   4.283
62547W        W34163  30.338  36.058   1.828
62548W        W34164   8.300  30.828   4.881
62549W        W34165   2.043  17.205  14.744
62550W        W34166   3.844   6.433   0.382
62551W        W34167  32.454  27.433  11.292
62552W        W34168   0.726  20.944  14.739
62553W        W34169   8.287  41.253  12.408
62554W        W34170   5.392  25.680  13.791
62555W        W34171  31.110  38.082  12.009
62556W        W34172  21.297  37.464  13.679
62557W        W34173  16.643  11.339   4.869
62558W        W34174  19.505   1.522  11.153
62559W        W34175  35.192  10.769  14.907
62560W        W34176  15.567   1.511  14.824
62561W        W34177  40.996  18.784  11.705
62562W        W34178  24.727  36.493  11.488
62563W        W34179  17.254  22.869   1.825
62564W        W34180   2.363  18.695  13.293
62565W        W34181  34.176  43.988  12.446
62566W        W34182  18.075   4.295  11.151
62567W        W34183  33.637  41.074  13.430
62568W        W34184   5.967  26.145  13.396
62569W        W34185  13.009  30.101  13.371
62570W        W34186  16.211  23.554   2.958
62571W        W34187  20.529  38.789  13.451
62572W        W34188   8.341   6.340   2.617
62573W        W34189  26.132   7.916  12.556
62574W        W34190  30.070  40.404  10.823
62575W        W34191  18.757  19.108   0.316
62576W        W34192   2.967  37.006   4.092
62577W        W34193  13.549  44.788   1.178
62578W        W34194   3.857   9.968  11.821
62579W        W34195  21.658  42.778   0.688
62580W        W34196   1.472  18.073   1.788
62581W        W34197  39.374   1.249  13.523
62582W        W34198  31.846  27.096  14.827
62583W        W34199   0.959  14.187  13.489
62584W        W34200   2.389  22.574  10.529
62585W        W34201   6.737   7.320   2.471
62586W        W34202   5.411  24.975  13.391
62587W        W34203   1.736  16.036   3.394
62588W        W34204  14.138   0.795   3.634
62589W        W34205  18.150  41.841   4.509
62590W        W34206   0.222  10.044  11.025
62591W        W34207  38.864  11.784  12.543
62592W        W34208  11.631  35.722  11.249
62593W        W34209  38.922  30.164   4.642
62594W        W34210  15.807  14.711  13.380
62595W        W34211   7.812  10.762   0.710
62596W        W34212   6.305  25.041   4.540
62597W        W34213   4.748   0.271  13.403
62598W        W34214   2.500  20.348   2.402
62599W        W34215  43.340  27.223  14.391
62600W        W34216  30.163  16.506   2.769
62601W        W34217  29.979  41.411   4.583
62602W        W34218   7.363  37.103   3.176
62603W        W34219   0.930  13.585  10.583
62604W        W34220  42.748   8.660   2.294
62605W        W34221  27.963   0.162   2.027
62606W        W34222  27.221  17.609   2.898
62607W        W34223   7.256   4.233  12.437
62608W        W34224   0.217  31.261  14.941
62609W        W34225   5.788  33.444   0.532
62610W        W34226   9.440  40.830   4.524
62611W        W34227  43.575  21.165  13.258
62612W        W34228   1.585  23.829  14.403
62613W        W34229  15.144  23.190   3.321
62614W        W34230  40.453  34.727  11.611
62615W        W34231   4.971  15.296  13.841
62616W        W34232  36.130  11.450   3.588
62617W        W34233  11.102  27.956  13.985
62618W        W34234  13.339  26.353   1.600
62619W        W34235   3.241  30.064   0.948
62620W        W34236  18.650  16.086  10.960
62621W        W34237  26.329  40.862  14.586
62622W        W34238  10.777  22.929  12.878
62623W        W34239  42.870  19.176   4.604
62624W        W34240  38.018  36.384  12.104
62625W        W34241  14.771  14.640   4.883
62626W        W34242   6.425  42.775  12.976
62627W        W34243  41.231  21.016   0.302
62628W        W34244  33.430   3.955   1.969
62629W        W34245  39.390  17.774  13.820
62630W        W34246  35.861  41.248   0.249
62631W        W34247  27.467  21.883  11.131
62632W        W34248   7.821  42.897   0.472
62633W        W34249  26.636  40.874   0.924
62634W        W34250  15.105  20.665  14.531
62635W        W34251  36.273  10.155   1.880
62636W        W34252  23.171   6.815   2.607
62637W        W34253  12.246  41.475   4.123
62638W        W34254   8.614  13.230  12.996
62639W        W34255  38.885  33.464  10.689
62640W        W34256  20.664  22.935   2.094
62641W        W34257  25.256  24.533  12.116
62642W        W34258  30.463  20.477   2.180
62643W        W34259  35.971   4.340  13.871
62644W        W34260  29.149  35.566   0.029
62645W        W34261  42.063  14.759  14.921
62646W        W34262  22.036   5.182   4.028
62647W        W34263  44.190  34.163  14.361
62648W        W34264  42.340  18.697  13.637
62649W        W34265   7.912  44.938  11.966
62650W        W34266  40.440   9.044  14.322
62651W        W34267  38.830   8.649  11.133
62652W        W34268  25.285  27.474  12.595
62653W        W34269  25.675   6.421  11.656
62654W        W34270  18.123  41.061   3.083
62655W        W34271  37.257   2.659  12.287
62656W        W34272  13.337  12.526   0.273
62657W        W34273  33.844  11.721   4.655
62658W        W34274  24.514  40.526   4.599
62659W        W34275  42.849   4.245  14.352
62660W        W34276  14.735  11.126  14.988
62661W        W34277  36.622  22.232  13.835
62662W        W34278  11.302  15.082   0.028
62663W        W34279  38.033  39.520   2.255
62664W        W34280  31.903   4.829  10.721
62665W        W34281  22.047   8.368   3.378
62666W        W34282  11.169  14.413   1.656
62667W        W34283  40.041  18.685   4.649
62668W        W34284   8.681  31.118  10.890
62669W        W34285  37.533   9.950  10.909
62670W        W34286  12.436  25.634  10.718
62671W        W34287   7.933  13.725  12.566
62672W        W34288  15.674   9.550   3.190
62673W        W34289  31.640  21.746   0.058
62674W        W34290   2.875  34.259  14.296
62675W        W34291   0.538   1.492   1.930
62676W        W34292   2.905  27.562  14.598
62677W        W34293  40.551   8.385  11.796
62678W        W34294  23.695   6.931  13.069
62679W        W34295  21.153  22.051  12.149
62680W        W34296  38.913  40.476   3.700
62681W        W34297  28.946  29.154   3.364
62682W        W34298  34.655  35.735   4.916
62683W        W34299   2.360  13.806  14.891
62684W        W34300  38.724  34.388   1.569
62685W        W34301   0.912  36.466  11.588
62686W        W34302  12.663  18.628   0.518
62687W        W34303   6.819  17.626  14.870
62688W        W34304  18.019   4.681  14.453
62689W        W34305  43.515  14.716  13.966
62690W        W34306  43.034  34.468  10.531
62691W        W34307  13.509  43.988   2.039
62692W        W34308   2.317   9.670   0.004
62693W        W34309  36.177  18.102  14.476
62694W        W34310  24.330   9.934   0.656
62695W        W34311  43.187  19.256   1.955
62696W        W34312   9.807  14.484  10.578
62697W        W34313  17.991  10.779   2.371
62698W        W34314  16.517  33.857   2.603
62699W        W34315   9.750  16.814  12.454
62700W        W34316  23.714  43.273   3.772
62701W        W34317  35.300  32.436   0.850
62702W        W34318  17.205  32.093   0.439
62703W        W34319  26.571  40.965  12.988
62704W        W34320  16.161  33.915   2.185
62705W        W34321  20.594  20.306  13.862
62706W        W34322  24.685  22.496  12.460
62707W        W34323  20.544   1.001  13.435
62708W        W34324  24.045  44.030  10.485
62709W        W34325  40.507  41.797   1.816
62710W        W34326  12.634  23.736  10.661
62711W        W34327  21.102  14.811  12.996
62712W        W34328  22.224   5.467  12.928
62713W        W34329   4.436  27.606  14.127
62714W        W34330  20.157  13.426  14.820
62715W        W34331  16.370  37.344   4.896
62716W        W34332  25.293  31.132   0.232
62717W        W34333  39.744  44.042   0.097
62718W        W34334   0.546  23.411   1.214
62719W        W34335  35.534  26.703   0.639
62720W        W34336   9.232  29.693   2.257
62721W        W34337   9.693  16.054   0.257
62722W        W34338  13.231  22.402  10.607
62723W        W34339   2.415  44.553   1.905
62724W        W34340  11.572  35.992   2.823
62725W        W34341  16.059  26.567   0.193
62726W        W34342   8.873  27.556   0.879
62727W        W34343  16.220   6.045   0.940
62728W        W34344  13.413   6.638   3.884
62729W        W34345  24.898   4.426   1.887
62730W        W34346   2.501   5.483  12.593
62731W        W34347  44.239  44.972   4.124
62732W        W34348  10.304   0.948   5.027
62733W        W34349  10.881   8.709  11.771
62734W        W34350  42.910  21.586   1.248
62735W        W34351  42.159   9.584  13.950
62736W        W34352  10.716   6.383   2.912
62737W        W34353  13.414  16.018  10.082
62738W        W34354  18.153  36.411   0.450
62739W        W34355  32.147   7.274   4.652
62740W        W34356  26.453  11.876  13.447
62741W        W34357  21.619  20.202   4.631
62742W        W34358   4.159  39.082   3.917
62743W        W34359  25.216  21.484   1.217
62744W        W34360  29.988  28.183  13.449
62745W        W34361  15.660  36.480  11.516
62746W        W34362  42.195  39.833  13.300
62747W        W34363   1.892  19.628  13.271
62748W        W34364  15.897  16.210  11.474
62749W        W34365  15.230   8.795   1.822
62750W        W34366  44.434  37.854   0.326
62751W        W34367  43.784  17.763  14.486
62752W        W34368  26.494  24.599   2.750
62753W        W34369  30.445  25.597   1.447
62754W        W34370  38.835   4.801   1.865
62755W        W34371  20.318  15.252  13.142
62756W        W34372  40.264  28.098  11.664
62757W        W34373  23.935  29.067   1.316
62758W        W34374  35.489  27.819  13.852
62759W        W34375  13.796   3.999  10.132
62760W        W34376  33.361  17.188  12.440
62761W        W34377  26.148   4.179   4.211
62762W        W34378  39.757  12.548   3.630
62763W        W34379  28.372  38.315  14.472
62764W        W34380  10.405  18.293   2.935
62765W        W34381  28.205  19.615  12.787
62766W        W34382  35.955  42.298   3.174
62767W        W34383  21.409  37.075   3.603
62768W        W34384  20.434   3.764   2.745
62769W        W34385  11.189   4.896  12.931
62770W        W34386  32.504  35.162  14.859
62771W        W34387   0.487  22.493   3.747
62772W        W34388  20.278  25.727  11.926
62773W        W34389  39.532  16.174  12.602
62774W        W34390  31.448  18.993  12.530
62775W        W34391  40.576  37.886  11.104
62776W        W34392  28.137  22.235   1.302
62777W        W34393  13.701  26.103   4.743
62778W        W34394  29.158  10.325   4.147
62779W        W34395   5.647  17.223   0.303
62780W        W34396  18.008   1.167   1.768
62781W        W34397  26.475  22.445   1.366
62782W        W34398   9.674  37.424   3.343
62783W        W34399  16.572  14.229  14.479
62784W        W34400  31.613  31.490   0.013
62785W        W34401  42.710   7.891  14.512
62786W        W34402  28.699  40.181   3.667
62787W        W34403  36.091  42.139   3.676
62788W        W34404  22.544  26.381   4.307
62789W        W34405  38.162  39.906  14.955
62790W        W34406   6.105  41.009  14.255
62791W        W34407  10.222  14.590  10.936
62792W        W34408  15.046  12.673   3.143
62793W        W34409   5.008  25.102  13.669
62794W        W34410  24.487  13.176   2.748
62795W        W34411  26.047   7.592  13.004
62796W        W34412  42.861  41.347  11.947
62797W        W34413  39.585  11.048  12.506
62798W        W34414  18.193  17.654  13.007
62799W        W34415  32.119  41.878   2.624
62800W        W34416  43.660  40.674   0.929
62801W        W34417   0.735  36.131  13.070
62802W        W34418  36.060  39.914  14.847
62803W        W34419  35.332  39.111   1.367
62804W        W34420   2.026  22.962  10.498
62805W        W34421  13.666  32.549   1.777
62806W        W34422  44.954  33.594   2.296
62807W        W34423  19.761   7.865  12.090
62808W        W34424  41.853  10.123   0.450
62809W        W34425  12.971   2.918  10.471
62810W        W34426  44.312  11.177   0.196
62811W        W34427   0.206  24.874  12.500
62812W        W34428  24.127  40.355  11.984
62813W        W34429   9.367  42.398   4.745
62814W        W34430   2.003   5.290   0.209
62815W        W34431  41.846  39.593   4.650
62816W        W34432  13.202  31.088   2.431
62817W        W34433  16.103   4.332   1.617
62818W        W34434  26.090  39.829  12.461
62819W        W34435  22.013  34.296   1.317
62820W        W34436  32.191  14.295  14.597
62821W        W34437  12.580   6.018  11.540
62822W        W34438  23.029   9.994   2.010
62823W        W34439   5.790  28.746   1.349
62824W        W34440  11.963  22.601  11.100
62825W        W34441  17.781  20.295   2.342
62826W        W34442   3.020  35.136   2.700
62827W        W34443  35.405   4.826   9.865
62828W        W34444  39.523   4.748   3.770
62829W        W34445  15.141  12.145   3.860
62830W        W34446  42.872  40.593   4.558
62831W        W34447  24.498  13.881   0.152
62832W        W34448  42.880  32.333  11.540
62833W        W34449   9.624  27.107  13.879
62834W        W34450  35.987  35.533  14.416
62835W        W34451  37.776  36.132  11.176
62836W        W34452  16.042  11.093   3.279
62837W        W34453  31.859  34.515  10.254
62838W        W34454  43.598   4.563  14.857
62839W        W34455  37.813  24.576  14.039
62840W        W34456  34.731  16.727  13.235
62841W        W34457   4.753   4.766   5.044
62842W        W34458  38.504   0.255   1.205
62843W        W34459  32.170  13.254   0.800
62844W        W34460  37.466   4.869  10.663
62845W        W34461  40.375  15.229  14.995
62846W        W34462  35.197  42.780  13.839
62847W        W34463  16.035  13.350   5.078
62848W        W34464  23.920   8.869  10.703
62849W        W34465  34.556  26.516   1.745
62850W        W34466  27.957   4.315   2.723
62851W        W34467  44.328  29.494  14.524
62852W        W34468   1.510   8.727   0.508
62853W        W34469  30.628  34.310   3.185
62854W        W34470   5.634  35.050   2.011
62855W        W34471   0.240   3.867   1.329
62856W        W34472   4.290  13.478   2.693
62857W        W34473  19.531  15.766   0.314
62858W        W34474  33.270  37.282  12.724
62859W        W34475   0.098  30.272   5.379
62860W        W34476  30.098  43.308  11.647
62861W        W34477  19.551  20.829   4.072
62862W        W34478  23.189   3.819  12.948
62863W        W34479  43.965  17.164   0.621
62864W        W34480  15.855  13.126  12.405
62865W        W34481  31.027   7.691  14.538
62866W        W34482   9.785  11.617  13.935
62867W        W34483   8.491   7.222   2.710
62868W        W34484  19.998   8.278   0.677
62869W        W34485  11.380  21.216   4.262
62870W        W34486  24.782  41.909  13.021
62871W        W34487  20.384  15.622   1.430
62872W        W34488  29.347   3.070   5.179
62873W        W34489  26.386  32.929   0.978
62874W        W34490  34.978  20.790   3.570
62875W        W34491  34.221  44.484   2.169
62876W        W34492  12.617  40.486  14.256
62877W        W34493   4.174  38.276  13.853
62878W        W34494  31.079   7.113   1.165
62879W        W34495  44.849   4.799  14.852
62880W        W34496   2.351  28.119   4.576
62881W        W34497  10.997  42.101  12.711
62882W        W34498  35.136  27.250  11.068
62883W        W34499   2.002  12.052   3.647
62884W        W34500  37.592  31.193  11.421
62885W        W34501  34.119   7.666   2.502
62886W        W34502   9.648   4.695  11.106
62887W        W34503  35.764   4.242   2.682
62888W        W34504   7.952  39.011  10.782
62889W        W34505   5.930  26.134   0.859
62890W        W34506  25.871  25.023   1.999
62891W        W34507   5.057  38.349   2.157
62892W        W34508   1.945  22.650   1.396
62893W        W34509  26.699  24.239  10.725
62894W        W34510  17.553  18.167   0.019
62895W        W34511  38.917   2.099  10.786
62896W        W34512  19.558  11.816  12.628
62897W        W34513  27.259  37.445   5.008
62898W        W34514  20.998  18.764   1.962
62899W        W34515  14.792  26.633  11.411
62900W        W34516  40.868  16.146   3.679
62901W        W34517  24.142  44.333  10.033
62902W        W34518  23.123  16.459  12.108
62903W        W34519  32.724  40.517   1.004
62904W        W34520  18.255  29.099  14.338
62905W        W34521   3.588   0.418  11.199
62906W        W34522   1.013  11.315  14.971
62907W        W34523  34.521  25.005   2.004
62908W        W34524  18.204   5.175   2.258
62909W        W34525  16.771  24.765  13.816
62910W        W34526   1.198  41.211   0.962
62911W        W34527  28.630  15.737  12.886
62912W        W34528  31.374  26.884  14.913
62913W        W34529  17.293  10.269   0.440
62914W        W34530  37.075   8.847   2.759
62915W        W34531   8.944  16.014   4.191
62916W        W34532  40.723  33.960   0.816
62917W        W34533   1.032  11.686   0.783
62918W        W34534   2.894   4.284   2.658
62919W        W34535  36.220  22.098  12.962
62920W        W34536  40.495  36.115   2.451
62921W        W34537  10.238  35.225   4.933
62922W        W34538  41.956  31.486  13.774
62923W        W34539  25.449  15.829   2.151
62924W        W34540  43.298   6.309  12.445
62925W        W34541  28.530  14.279  14.365
62926W        W34542  37.068  17.866   2.761
62927W        W34543   3.406   5.776  11.469
62928W        W34544  17.732  18.098  12.335
62929W        W34545  36.686  12.070   1.357
62930W        W34546  31.881  37.195  10.000
62931W        W34547  10.298  15.336   3.028
62932W        W34548   8.954  34.587  10.744
62933W        W34549  34.314   5.434  13.856
62934W        W34550   8.670  21.588  14.742
62935W        W34551  30.401   7.647  11.323
62936W        W34552  34.973  16.467   2.370
62937W        W34553  31.392   9.546  14.379
62938W        W34554  27.646  12.556  14.733
62939W        W34555   5.428   9.844   2.875
62940W        W34556   6.777  13.209  12.910
62941W        W34557  29.834   9.880   2.343
62942W        W34558  20.393   7.992   0.461
62943W        W34559  33.153  42.336  14.391
62944W        W34560  35.289   0.522   3.137
62945W        W34561  41.224   2.160   2.269
62946W        W34562  10.632  11.613  11.571
62947W        W34563  22.374  24.454  14.747
62948W        W34564  36.433  44.657   4.978
62949W        W34565  38.611  20.765  10.770
62950W        W34566  24.455  37.992  11.927
62951W        W34567   5.796  36.203   4.954
62952W        W34568  24.990   6.442  14.931
62953W        W34569  14.218  10.500  11.436
62954W        W34570  28.563  10.413  13.908
62955W        W34571  27.418  36.586  13.336
62956W        W34572  32.049  27.946   3.310
62957W        W34573  42.478  20.274  13.406
62958W        W34574   9.305   2.460   1.857
62959W        W34575   7.189  16.707  14.775
62960W        W34576  12.794  13.792   1.959
62961W        W34577   7.301   1.086   0.740
62962W        W34578  31.369  33.368   4.103
62963W        W34579  27.133  24.729   4.937
62964W        W34580  16.217  29.424  12.646
62965W        W34581   4.500  35.607   0.227
62966W        W34582  31.417   5.833  12.163
62967W        W34583   0.214  19.489  12.677
62968W        W34584  34.644  22.857  12.258
62969W        W34585  38.398  43.180  13.031
62970W        W34586  41.494  32.849   1.931
62971W        W34587  24.464  15.619   4.111
62972W        W34588  37.269  37.122   0.863
62973W        W34589  37.060   4.603   1.455
62974W        W34590   1.675  31.047  11.646
62975W        W34591   8.740  26.789  11.639
62976W        W34592   6.918  15.723  12.009
62977W        W34593  13.299  14.380  12.511
62978W        W34594  44.798  36.436   3.388
62979W        W34595  38.815  31.957   4.958
62980W        W34596  11.675   5.955   5.178
62981W        W34597   7.218   6.816  13.070
62982W        W34598  17.121   5.646  11.317
62983W        W34599  34.743  13.118  11.861
62984W        W34600  23.477  38.274   3.168
62985W        W34601  29.742  31.504   3.232
62986W        W34602  42.465  27.999  14.257
62987W        W34603  12.020  30.640  14.879
62988W        W34604  18.503  36.850  12.526
62989W        W34605  28.515  27.117  13.025
62990W        W34606  12.146  12.400  14.721
62991W        W34607  14.682   0.373   1.520
62992W        W34608  36.562  16.066  11.545
62993W        W34609  14.064  40.458  11.157
62994W        W34610  29.685  38.549  11.276
62995W        W34611  26.660  11.808   0.862
62996W        W34612  12.714   9.865  12.468
62997W        W34613  32.259  31.506   3.409
62998W        W34614  28.237  26.639   1.820
62999W        W34615   5.210  23.016  14.453
63000W        W34616  10.090   1.578   2.383
63001W        W34617  34.690  18.331   3.663
63002W        W34618  43.417  39.974  11.226
63003W        W34619  43.198   8.788  13.814
63004W        W34620  29.606  14.551   1.839
63005W        W34621   9.310  31.661  13.850
63006W        W34622  38.799  21.466  14.277
63007W        W34623   6.426  41.576   2.000
63008W        W34624  24.383  10.317  14.616
63009W        W34625   7.768  37.085   5.001
63010W        W34626  30.491  14.165  13.083
63011W        W34627  33.005  40.571  13.067
63012W        W34628   3.907  19.512   0.412
63013W        W34629  15.282  41.518   5.153
63014W        W34630  18.857   2.122  13.746
63015W        W34631  14.984   6.620  10.111
63016W        W34632  43.478  42.704   2.137
63017W        W34633  30.733   4.056  11.801
63018W        W34634  32.845  26.970   1.637
63019W        W34635  19.659  33.111   0.512
63020W        W34636  43.036  34.520   5.314
63021W        W34637  27.976  19.251  14.489
63022W        W34638  27.800  33.936   2.413
63023W        W34639  14.699  23.077  10.884
63024W        W34640  19.166   0.425  13.436
63025W        W34641  20.493  10.234  14.019
63026W        W34642   6.316  23.603   1.852
63027W        W34643  20.966  22.190  12.609
63028W        W34644  44.197   8.318  13.229
63029W        W34645   7.941  10.586  11.947
63030W        W34646   0.401  39.432  10.686
63031W        W34647   5.593  18.165  11.112
63032W        W34648  29.570   5.642   1.825
63033W        W34649  20.576  14.332   3.138
63034W        W34650  11.325   7.392  14.849
63035W        W34651  41.934   2.408   3.266
63036W        W34652  28.374  13.874  13.531
63037W        W34653  30.861  43.049  10.997
63038W        W34654   6.880  15.847   1.768
63039W        W34655  17.245  30.108   2.777
63040W        W34656  35.831  32.966   4.161
63041W        W34657  10.147   2.883  13.273
63042W        W34658  44.251  36.367  12.492
63043W        W34659  34.883  32.774   1.677
63044W        W34660  40.293  31.899  14.502
63045W        W34661  40.407   4.402  12.243
63046W        W34662  20.588   3.213  12.064
63047W        W34663  12.286  17.573  11.210
63048W        W34664  14.151  43.248  13.413
63049W        W34665   2.094  35.041   0.288
63050W        W34666  38.823   1.253   3.697
63051W        W34667   0.769  17.278   2.834
63052W        W34668  17.011  30.477  11.179
63053W        W34669   7.453  34.564  12.129
63054W        W34670  34.305  33.499  11.550
63055W        W34671   1.196   8.355   4.167
63056W        W34672  32.103  22.153   2.412
63057W        W34673  19.849  38.285  11.063
63058W        W34674   3.518   3.384   3.400
63059W        W34675  12.851  42.518   4.551
63060W        W34676   5.392   0.262  11.454
63061W        W34677  32.636   2.516   1.643
63062W        W34678  36.993  26.976   2.743
63063W        W34679  12.582  14.866  12.825
63064W        W34680   3.884  14.838  10.754
63065W        W34681  36.905  22.586  14.741
63066W        W34682  41.733  37.466   0.398
63067W        W34683   3.735  22.566  13.410
63068W        W34684   6.328   7.620   2.330
63069W        W34685   8.322  31.008   0.694
63070W        W34686  44.837  44.969   4.430
63071W        W34687  15.538  37.820   5.188
63072W        W34688   9.625  18.939  10.641
63073W        W34689  42.736   5.812   3.171
63074W        W34690  15.531  12.642   4.246
63075W        W34691  28.720  30.071   3.706
63076W        W34692  30.913  27.503   9.877
63077W        W34693  17.779  31.213   1.201
63078W        W34694  28.449   1.448  10.421
63079W        W34695  37.823  42.113   4.667
63080W        W34696  24.420  25.772  12.961
63081W        W34697  11.716   2.063  11.125
63082W        W34698   6.772  17.135  12.919
63083W        W34699  32.148   9.048  14.888
63084W        W34700  27.198  32.623   0.823
63085W        W34701   4.701  15.762  10.767
63086W        W34702   0.902  21.074   0.723
63087W        W34703  33.623   4.016  13.953
63088W        W34704  41.160  31.213  12.449
63089W        W34705  36.346  28.313  11.696
63090W        W34706  40.655  43.895   2.423
63091W        W34707   8.741   2.606  10.531
63092W        W34708  25.866   3.747  14.420
63093W        W34709   0.750  28.522   0.228
63094W        W34710  35.030  33.803   2.736
63095W        W34711   9.727  24.105   0.981
63096W        W34712  33.537   9.592  13.492
63097W        W34713   7.258  40.175   0.373
63098W        W34714   3.903  34.435  11.508
63099W        W34715  25.955  13.852   5.503
63100W        W34716  36.442  25.728  10.666
63101W        W34717  41.433  27.223   1.714
63102W        W34718  21.421  37.594  14.819
63103W        W34719  10.137  39.064   0.904
63104W        W34720  33.401  39.831  14.962
63105W        W34721  14.712  14.084  12.383
63106W        W34722  13.210  20.004   0.715
63107W        W34723   1.735   2.449   0.285
63108W        W34724  14.304   8.513   4.608
63109W        W34725  14.568  26.375   0.114
63110W        W34726  38.883  14.742   1.773
63111W        W34727  41.155  14.334   2.737
63112W        W34728  38.578  17.573   2.703
63113W        W34729   8.654  20.497   0.346
63114W        W34730   0.224  42.946  13.457
63115W        W34731  22.978  44.975   1.494
63116W        W34732   4.516  20.352  11.142
63117W        W34733  23.265  41.282  12.597
63118W        W34734   8.673   5.728  13.408
63119W        W34735   6.709  32.141  13.692
63120W        W34736   0.783   5.215   2.299
63121W        W34737  43.793   1.688   0.580
63122W        W34738  35.471  39.499   4.161
63123W        W34739  27.173   4.100  11.977
63124W        W34740  26.711  29.088  12.519
63125W        W34741   4.424  29.807  11.485
63126W        W34742  14.714  24.104  12.382
63127W        W34743  25.731  23.646   0.773
63128W        W34744   3.511  22.192  12.936
63129W        W34745  24.674  15.860  10.857
63130W        W34746  25.680  22.484  13.901
63131W        W34747   9.260  30.683  14.852
63132W        W34748  15.349  40.306  12.349
63133W        W34749   5.362  17.640   2.350
63134W        W34750  34.127  43.860   3.129
63135W        W34751   1.691  13.231  12.078
63136W        W34752  13.011   6.739   4.509
63137W        W34753  17.189   4.310   3.935
63138W        W34754  19.510   0.460  13.883
63139W        W34755  31.392   9.866  12.072
63140W        W34756  40.250   9.700   3.602
63141W        W34757   5.241   0.884  14.165
63142W        W34758   0.569  43.331  10.787
63143W        W34759  42.656   0.841   4.645
63144W        W34760   5.835   1.326  14.348
63145W        W34761  28.481  25.645  14.054
63146W        W34762  16.330   2.826  13.030
63147W        W34763  21.659   2.644  14.597
63148W        W34764  23.585   4.917   3.802
63149W        W34765  30.995  24.694  12.482
63150W        W34766  37.479  27.332  10.185
63151W        W34767  16.870  22.030  14.254
63152W        W34768   2.555  41.771   4.543
63153W        W34769  33.741  18.387  11.063
63154W        W34770  20.204  16.975  10.269
63155W        W34771  28.120  12.681  11.634
63156W        W34772  27.477  34.921  11.987
63157W        W34773  27.816  13.659  10.478
63158W        W34774  15.246  33.947  11.189
63159W        W34775  30.964  33.049  10.603
63160W        W34776   6.690  24.034   0.436
63161W        W34777  21.223   5.717  14.923
63162W        W34778   0.019  24.988   1.425
63163W        W34779   7.246  41.423   4.641
63164W        W34780  30.608   9.270   0.172
63165W        W34781   6.906  41.734   3.599
63166W        W34782  37.734  26.012   0.833
63167W        W34783  33.371  25.237  14.371
63168W        W34784  32.155  14.599  12.468
63169W        W34785   7.226  21.265   2.360
63170W        W34786  19.694  23.275   1.718
63171W        W34787  41.380   3.509   1.709
63172W        W34788   8.357   6.514  13.446
63173W        W34789  34.275  17.600  12.614
63174W        W34790  24.442  29.903  11.984
63175W        W34791   6.645  25.228   1.245
63176W        W34792  44.812  26.115  11.288
63177W        W34793  11.678   3.467   4.512
63178W        W34794   3.293   0.016   3.721
63179W        W34795  36.921  20.105  13.277
63180W        W34796   9.310  30.574   4.186
63181W        W34797  31.990   6.426   4.450
63182W        W34798  36.958  26.089  12.258
63183W        W34799  18.186  40.498   3.231
63184W        W34800   7.142   2.730  10.820
63185W        W34801   4.375  11.572  10.699
63186W        W34802  44.884   2.141   1.199
63187W        W34803  14.142   8.688  11.625
63188W        W34804  37.006  16.105   3.306
63189W        W34805  16.285  12.659  10.639
63190W        W34806  11.359  16.774  13.999
63191W        W34807   0.546  24.473   2.874
63192W        W34808  38.036  31.202   3.328
63193W        W34809  30.231  43.797   0.193
63194W        W34810  23.479  33.462  10.906
63195W        W34811  13.817  35.103   2.293
63196W        W34812  37.463  31.864  11.259
63197W        W34813   9.815   7.599  11.610
63198W        W34814  28.547  22.870  12.158
63199W        W34815  14.295  23.962  11.127
63200W        W34816  33.272   4.373  14.087
63201W        W34817   7.279  38.237  13.867
63202W        W34818  15.629   1.160  13.856
63203W        W34819   0.539  39.767  13.785
63204W        W34820  28.501  16.104  10.714
63205W        W34821  42.834  40.853  13.572
63206W        W34822  34.332  41.756  11.966
63207W        W34823  42.292   8.353   2.316
63208W        W34824   3.856  32.617  10.364
63209W        W34825   8.150  27.055   2.274
63210W        W34826  40.295  30.580  12.847
63211W        W34827  43.282  22.517  13.821
63212W        W34828   3.375  31.478   0.639
63213W        W34829  27.991  26.972   4.015
63214W        W34830  21.816  29.706  10.170
63215W        W34831   0.801  17.338  14.390
63216W        W34832  20.360  44.441  13.939
63217W        W34833  33.652  43.174   0.422
63218W        W34834  18.365   1.724  12.949
63219W        W34835  38.439  28.509  12.072
63220W        W34836  29.655  15.998   2.907
63221W        W34837  36.100  18.644   1.945
63222W        W34838  15.811  32.937  11.650
63223W        W34839   7.314  24.732  11.516
63224W        W34840  42.355  34.594   4.505
63225W        W34841  13.225  36.994  13.035
63226W        W34842  43.954  41.635   0.767
63227W        W34843  16.302  41.888   0.298
63228W        W34844  11.866  35.214  12.932
63229W        W34845  15.784   7.392   0.965
63230W        W34846   9.594  40.937   0.817
63231W        W34847  39.347  36.130   2.843
63232W        W34848  10.399  32.186  12.105
63233W        W34849  36.589  44.383  11.040
63234W        W34850  14.648  36.522   0.783
63235W        W34851  30.486  38.830   0.005
63236W        W34852   4.553  19.593  10.043
63237W        W34853   6.149  32.149  14.782
63238W        W34854  16.146  26.168  11.462
63239W        W34855  39.651  19.457  12.660
63240W        W34856  40.216  18.702  13.056
63241W        W34857  39.999   1.362   2.983
63242W        W34858  29.436  14.177  11.119
63243W        W34859  18.031  22.526   1.384
63244W        W34860  18.189  35.937  14.051
63245W        W34861  22.655  44.837   4.300
63246W        W34862  10.929  22.744  11.000
63247W        W34863   2.146  10.355   3.521
63248W        W34864  24.945  21.036  14.472
63249W        W34865   0.958  41.254  10.628
63250W        W34866  15.108  43.387   3.062
63251W        W34867  13.698  11.728  10.692
63252W        W34868  21.297  26.730  13.849
63253W        W34869   4.729  23.981   3.639
63254W        W34870  15.108  19.709  13.070
63255W        W34871   0.939  36.967  12.341
63256W        W34872  26.455  12.313   2.266
63257W        W34873  30.646   3.240   2.295
63258W        W34874  40.490  30.524  12.354
63259W        W34875   4.846  10.854   4.702
63260W        W34876   3.662  11.867  11.635
63261W        W34877  29.655  16.647   4.197
63262W        W34878  17.114   1.452  13.923
63263W        W34879   9.786   6.851   3.248
63264W        W34880  25.605   6.098   0.210
63265W        W34881  39.340  19.018   1.849
63266W        W34882  35.035   0.778  14.391
63267W        W34883   3.957  29.545  13.392
63268W        W34884  40.455  43.194  12.271
63269W        W34885   2.534  10.193  10.651
63270W        W34886  36.440   0.508   0.303
63271W        W34887   0.364  23.494  13.502
63272W        W34888  26.669  23.013  13.606
63273W        W34889  18.794  37.625   0.551
63274W        W34890  11.618  37.366   4.245
63275W        W34891   0.743  36.445  11.106
63276W        W34892  21.263  15.199  14.014
63277W        W34893  41.496   1.225   2.811
63278W        W34894  13.457  38.290   3.744
63279W        W34895  36.548  43.440   2.670
63280W        W34896  15.397   1.787  11.378
63281W        W34897   3.210  32.696   1.737
63282W        W34898   4.474   7.700   4.620
63283W        W34899   7.930  11.657   0.332
63284W        W34900   8.181  16.098   1.130
63285W        W34901  39.406   2.285  13.464
63286W        W34902  29.383  34.530   1.259
63287W        W34903  27.037  11.244   0.804
63288W        W34904  34.473   2.220  11.683
63289W        W34905  38.586  27.716   0.292
63290W        W34906   7.743  26.509  11.638
63291W        W34907   6.158  13.403   1.663
63292W        W34908  12.293  11.005   2.873
63293W        W34909  18.732   6.250  12.038
63294W        W34910   4.886   4.417  12.945
63295W        W34911  43.288  33.593  11.982
63296W        W34912  14.755  17.090  12.494
63297W        W34913   6.296  26.736  14.214
63298W        W34914   5.071  43.499   2.166
63299W        W34915  15.267  40.539   3.774
63300W        W34916  14.534  15.083   1.369
63301W        W34917   3.279  30.480  10.634
63302W        W34918   8.938  43.594   4.564
63303W        W34919  26.636  20.595  10.618
63304W        W34920  30.967  12.742   2.692
63305W        W34921   9.136  27.994  13.919
63306W        W34922   8.256  40.549   3.153
63307W        W34923  17.240  21.618  14.330
63308W        W34924  43.479   7.332   4.557
63309W        W34925  34.489   8.193   4.780
63310W        W34926  25.805  31.193   3.655
63311W        W34927  13.570  43.568   3.752
63312W        W34928  35.255  23.642  14.798
63313W        W34929  23.072  18.574  13.546
63314W        W34930   8.401  44.421   1.485
63315W        W34931  39.727   7.111  11.475
63316W        W34932  12.631  13.707  14.457
63317W        W34933  33.708  18.554  10.410
63318W        W34934  40.996  23.510  14.044
63319W        W34935  30.313  30.048   4.035
63320W        W34936  35.542   3.330   0.688
63321W        W34937   9.833  15.580  13.888
63322W        W34938  37.526   5.274  14.708
63323W        W34939   0.282  31.018  11.127
63324W        W34940  16.199  21.591   1.213
63325W        W34941  28.551   3.953   1.029
63326W        W34942  23.748  10.807  14.520
63327W        W34943   7.544  26.326  12.307
63328W        W34944   3.482  20.673  12.769
63329W        W34945  44.953   4.416  12.812
63330W        W34946  15.264  21.480   2.742
63331W        W34947  36.013   1.730   1.270
63332W        W34948  18.058  22.090   4.101
63333W        W34949  28.807  18.773   3.069
63334W        W34950  26.504  12.571  12.023
63335W        W34951  39.889  40.072   0.074
63336W        W34952  11.813  10.403   1.171
63337W        W34953  15.653  39.395   1.188
63338W        W34954   5.035   0.348   2.514
63339W        W34955  11.588   9.299   0.405
63340W        W34956  27.179  13.804  12.214
63341W        W34957  23.722  42.068   1.866
63342W        W34958  38.267  18.037  13.020
63343W        W34959  30.385   2.142  13.953
63344W        W34960  23.193  16.161   4.531
63345W        W34961   8.161  26.295   0.934
63346W        W34962  36.912  24.816   1.685
63347W        W34963  42.280  25.738   4.836
63348W        W34964  34.065  14.918  14.804
63349W        W34965  29.456  20.815   0.755
63350W        W34966   7.413  33.941  11.398
63351W        W34967  43.955   0.557  11.618
63352W        W34968  37.586  10.385   4.141
63353W        W34969   5.837   7.360   2.902
63354W        W34970  42.736  14.257   3.866
63355W        W34971  29.615  40.564   4.616
63356W        W34972   6.863   8.875   3.621
63357W        W34973  25.256  34.108   1.673
63358W        W34974  25.555  34.391   4.589
63359W        W34975  21.432  34.436   2.135
63360W        W34976  37.825  33.380  12.754
63361W        W34977   0.446  19.512  11.672
63362W        W34978  18.611   6.851   0.768
63363W        W34979  15.017  30.642   3.241
63364W        W34980  42.825   4.315  13.455
63365W        W34981   0.422   0.425   1.784
63366W        W34982  40.814  38.439   3.304
63367W        W34983  18.009  33.955   1.350
63368W        W34984  40.192  21.257   4.574
63369W        W34985  10.958  37.277   1.798
63370W        W34986  24.996  14.745  10.957
63371W        W34987   5.011  32.515   4.442
63372W        W34988  44.389  13.393  12.021
63373W        W34989  17.202   1.325  11.380
63374W        W34990  17.355  44.255   0.556
63375W        W34991  20.664  44.179  13.130
63376W        W34992  15.014  27.123   1.903
63377W        W34993  26.572  41.535   3.334
63378W        W34994  32.024   3.481  14.390
63379W        W34995  10.930   4.613  11.522
63380W        W34996  12.792  27.496  13.722
63381W        W34997   0.297  22.036  10.974
63382W        W34998   8.950  35.892   4.455
63383W        W34999  37.938   4.654  13.053
63384W        W35000  11.240  17.142   2.431
63385W        W35001  32.533  20.216  14.730
63386W        W35002  42.503  28.095   2.933
63387W        W35003  38.388  42.242  12.046
63388W        W35004   9.417   7.137   4.625
63389W        W35005  21.552  40.325   3.891
63390W        W35006   3.307  15.351  14.432
63391W        W35007  13.880  17.629  12.472
63392W        W35008  14.431   4.057  14.871
63393W        W35009  26.052  23.541  12.039
63394W        W35010  36.007  21.909  10.352
63395W        W35011  18.168  22.153   2.194
63396W        W35012  39.036  22.778   2.392
63397W        W35013  21.678  30.525   4.297
63398W        W35014  44.867   0.023   0.231
63399W        W35015  19.645  25.261   3.281
63400W        W35016  20.099  40.336   1.423
63401W        W35017  13.147  20.016  10.960
63402W        W35018  21.422  16.138  10.643
63403W        W35019  29.594  40.194  11.663
63404W        W35020  10.063  32.130   2.223
63405W        W35021  17.685  20.179   3.439
63406W        W35022  19.761   2.239   3.377
63407W        W35023  20.037  10.782  12.600
63408W        W35024  32.974   0.701   1.154
63409W        W35025   7.186  18.980   4.559
63410W        W35026   6.741  43.206  12.905
63411W        W35027  33.682  30.645  14.791
63412W        W35028  22.240   5.651  14.837
63413W        W35029  28.512  14.608  10.641
63414W        W35030   5.007   6.314  12.479
63415W        W35031  12.719  39.839   2.293
63416W        W35032  15.725  41.783   2.375
63417W        W35033  25.609  36.447   3.253
63418W        W35034  10.472   6.322   4.902
63419W        W35035  21.555  17.686  13.792
63420W        W35036   5.256  31.481   4.629
63421W        W35037  34.440   7.693   2.101
63422W        W35038  31.216   8.197  14.505
63423W        W35039  13.102  13.164  12.869
63424W        W35040  44.895  26.009   2.676
63425W        W35041   9.670  29.071  13.353
63426W        W35042  41.506  29.162  13.010
63427W        W35043   5.802   6.839  11.302
63428W        W35044  11.125  15.061   0.498
63429W        W35045   2.919  29.752   3.677
63430W        W35046  37.797  24.580   2.729
63431W        W35047  14.278  39.555   0.131
63432W        W35048   4.480  10.243  12.439
63433W        W35049  23.083  18.107  10.663
63434W        W35050  14.262  28.803   0.340
63435W        W35051  38.536   7.237  11.130
63436W        W35052  20.239  16.799   0.802
63437W        W35053   2.561  31.128  13.438
63438W        W35054  14.515  26.058   3.279
63439W        W35055  43.142  40.264   3.406
63440W        W35056   8.700  36.842   1.765
63441W        W35057  14.363  26.888   0.842
63442W        W35058  29.883  20.231   1.206
63443W        W35059  35.991  32.180  10.342
63444W        W35060  38.603  38.497  11.107
63445W        W35061  33.056  34.810  14.062
63446W        W35062   1.682  19.695   4.136
63447W        W35063  12.018   6.764  13.376
63448W        W35064  31.615  18.169  12.969
63449W        W35065  11.818  40.195  12.327
63450W        W35066  16.481   0.989   0.850
63451W        W35067   0.242   5.787  11.919
63452W        W35068  36.115  10.229   0.102
63453W        W35069  25.009  30.034   1.704
63454W        W35070  30.909  12.287  10.687
63455W        W35071  26.579   8.746  11.440
63456W        W35072  23.181  29.834  12.479
63457W        W35073  43.927  22.547  14.841
63458W        W35074  21.435  34.118   0.808
63459W        W35075  15.091   3.937  10.760
63460W        W35076  35.367  28.716   1.677
63461W        W35077   3.190  25.693  13.277
63462W        W35078  19.779  36.854   3.670
63463W        W35079  21.873   1.291  13.367
63464W        W35080  23.201   5.245   3.896
63465W        W35081  39.130  28.966  13.481
63466W        W35082  33.441  31.724  12.063
63467W        W35083  25.439  19.389   2.385
63468W        W35084  27.172  11.627  12.563
63469W        W35085  18.630  28.343   3.443
63470W        W35086  35.537  11.360   0.231
63471W        W35087  42.544  34.453   1.028
63472W        W35088  27.484  31.220   2.891
63473W        W35089  16.607   2.193   4.798
63474W        W35090  27.191  12.262   1.933
63475W        W35091  21.819  22.684  12.533
63476W        W35092  27.134  33.990   1.221
63477W        W35093  32.375  24.093   3.950
63478W        W35094  33.669   5.918  12.626
63479W        W35095   6.103  34.620   4.165
63480W        W35096  40.817  20.097  13.726
63481W        W35097   0.470   7.451  11.849
63482W        W35098  24.281   7.094  11.628
63483W        W35099  20.793   1.723   4.193
63484W        W35100   3.193   9.957   2.301
63485W        W35101  27.427  32.977  14.894
63486W        W35102  29.026  16.157  11.926
63487W        W35103  24.036  13.619   2.134
63488W        W35104   6.859   3.180   2.306
63489W        W35105  19.175  38.056  13.140
63490W        W35106  24.409   5.410  10.586
63491W        W35107   7.449   1.252  12.614
63492W        W35108  22.802  12.878  11.771
63493W        W35109  10.907  35.892  14.604
63494W        W35110  15.382  25.911  12.418
63495W        W35111  42.432  30.929  14.372
63496W        W35112  29.404   9.637  13.316
63497W        W35113   3.815  36.914  12.987
63498W        W35114  24.135  35.510  13.770
63499W        W35115  22.020   0.924  11.723
63500W        W35116  35.409  28.483  11.889
63501W        W35117  30.345  12.247  12.580
63502W        W35118  43.497   6.352  13.873
63503W        W35119  14.945   7.191   4.674
63504W        W35120  41.824   6.948   0.024
63505W        W35121   1.885  21.614   2.239
63506W        W35122   9.064  17.311  11.718
63507W        W35123  26.983  30.491  12.390
63508W        W35124  34.120   6.492   4.176
63509W        W35125  16.053  39.249  11.118
63510W        W35126  38.601  25.050   2.341
63511W        W35127  10.278  36.980  12.816
63512W        W35128  23.976  38.379   1.805
63513W        W35129  21.316  31.939   1.311
63514W        W35130  21.783   3.855   4.804
63515W        W35131  32.771  36.576   3.846
63516W        W35132   5.371  23.160  11.953
63517W        W35133  27.385   0.444  14.397
63518W        W35134   2.805  16.627  11.610
63519W        W35135  31.157   2.802   4.058
63520W        W35136  35.110  40.485  12.604
63521W        W35137  26.447  26.261   1.744
63522W        W35138  32.226  39.340  11.117
63523W        W35139  15.209  23.386   1.945
63524W        W35140  24.416  17.862   4.234
63525W        W35141  12.925   1.858   3.877
63526W        W35142   7.263  10.539  12.440
63527W        W35143  44.381  32.104   1.061
63528W        W35144   2.892  26.201  10.666
63529W        W35145  17.024  16.596  14.967
63530W        W35146  36.475  38.498   1.876
63531W        W35147  17.675  40.200   2.448
63532W        W35148  20.708  11.929   3.234
63533W        W35149  25.988  44.623  11.707
63534W        W35150  28.074  31.866  13.914
63535W        W35151  34.006  27.516  12.801
63536W        W35152  34.594   3.437   4.883
63537W        W35153  38.904  12.101   3.270
63538W        W35154  18.644  37.498  13.865
63539W        W35155  26.964  44.900   0.498
63540W        W35156   8.676  15.581  11.267
63541W        W35157  20.367  34.359   3.883
63542W        W35158  19.706  23.090  12.215
63543W        W35159  29.199  32.575  14.927
63544W        W35160   8.163  33.264   5.067
63545W        W35161   8.168  15.274   0.201
63546W        W35162  13.656  35.787  14.161
63547W        W35163   5.359  39.446  12.438
63548W        W35164  37.341  26.395  14.960
63549W        W35165  11.859  31.995  12.382
63550W        W35166  15.521  15.176   4.665
63551W        W35167  17.349  36.509  12.413
63552W        W35168  11.946   6.388  10.057
63553W        W35169  27.192  11.743   0.890
63554W        W35170   1.909  34.640   2.182
63555W        W35171  44.878   0.524   3.570
63556W        W35172  28.696  14.194  11.529
63557W        W35173  21.330  20.783  11.044
63558W        W35174  39.850  29.259   4.671
63559W        W35175   4.266  37.372   0.704
63560W        W35176  21.236  18.210  14.436
63561W        W35177  12.322  35.238  14.532
63562W        W35178  17.494  37.475  12.003
63563W        W35179  35.035  26.587  12.433
63564W        W35180  32.033   9.115  12.933
63565W        W35181  24.602   3.335  11.601
63566W        W35182  13.627  41.378   3.690
63567W        W35183  11.723  25.629  10.843
63568W        W35184   4.317  13.339  12.444
63569W        W35185  34.433  32.066   4.026
63570W        W35186  11.806  19.717   4.953
63571W        W35187  27.013  39.323  14.388
63572W        W35188  13.967   5.841   1.774
63573W        W35189   7.820  35.589  11.529
63574W        W35190  38.862   2.256  11.560
63575W        W35191   0.416  13.297  14.221
63576W        W35192  11.319  28.067   1.672
63577W        W35193  29.654  25.723   0.298
63578W        W35194  35.064   7.344   1.565
63579W        W35195  41.396  17.589   3.413
63580W        W35196  12.737   6.735   2.191
63581W        W35197  28.001  28.952  13.600
63582W        W35198  40.449  10.795  14.275
63583W        W35199  24.866  34.653  14.810
63584W        W35200  41.489  29.760   1.798
63585W        W35201  22.253  44.791  11.111
63586W        W35202   1.811   9.225  11.862
63587W        W35203  20.621  18.727  11.999
63588W        W35204  21.040  35.399  13.546
63589W        W35205  32.140   3.851  10.682
63590W        W35206   8.093   2.775   0.396
63591W        W35207  26.111  25.466   1.931
63592W        W35208  22.732  17.110  13.266
63593W        W35209   2.945  30.394  14.234
63594W        W35210  14.683  31.118  11.996
63595W        W35211   0.922  31.026   2.407
63596W        W35212  11.600  25.695   4.540
63597W        W35213  25.789  28.076  14.346
63598W        W35214  20.519  23.200  13.550
63599W        W35215  38.273  15.808   1.853
63600W        W35216  33.947  31.648   3.261
63601W        W35217   5.256  32.936   3.618
63602W        W35218  19.762  16.737  10.115
63603W        W35219   6.829  29.475  14.030
63604W        W35220   5.795   5.852   3.240
63605W        W35221  11.393  22.102   0.116
63606W        W35222  28.630  24.216  11.478
63607W        W35223   2.938   1.968   4.772
63608W        W35224  26.226  21.648  13.092
63609W        W35225  19.533  43.833  14.976
63610W        W35226  20.964   8.605  12.003
63611W        W35227  14.728   8.242   4.603
63612W        W35228   8.228  17.487  14.263
63613W        W35229  22.028   2.858  14.315
63614W        W35230   4.304   8.736  11.449
63615W        W35231  27.656   2.905   1.608
63616W        W35232   8.495  27.734   3.195
63617W        W35233  14.490  44.447  12.396
63618W        W35234  42.962  44.785  12.595
63619W        W35235  42.913   2.014  12.995
63620W        W35236   9.246  36.104  11.194
63621W        W35237  37.126  29.058  13.044
63622W        W35238   1.852  31.481  12.848
63623W        W35239  36.894  30.354  12.072
63624W        W35240  14.971  22.558  14.412
63625W        W35241  28.934  24.666   2.915
63626W        W35242  31.794  18.100   4.405
63627W        W35243  25.412  11.380  12.927
63628W        W35244  10.310   3.762   0.906
63629W        W35245  37.341   8.956   0.624
63630W        W35246  23.200   1.200   2.109
63631W        W35247   0.290   3.310  13.348
63632W        W35248  44.814  41.180  11.162
63633W        W35249  38.588  22.517   3.258
63634W        W35250  26.671  17.133   3.339
63635W        W35251  10.257  26.178   2.323
63636W        W35252   1.623  44.538   1.249
63637W        W35253  11.924   4.998   0.241
63638W        W35254   8.174  34.318   4.547
63639W        W35255  43.948   6.965   1.750
63640W        W35256  15.794  36.586  11.041
63641W        W35257  20.607  35.499  14.440
63642W        W35258  12.710  33.397   3.755
63643W        W35259  24.705  22.119   1.206
63644W        W35260  17.324   9.325   4.634
63645W        W35261  24.380  24.605   0.852
63646W        W35262  39.967  37.585   1.392
63647W        W35263  41.866  44.637   0.850
63648W        W35264   5.912  23.479   1.422
63649W        W35265  33.021  32.054   3.284
63650W        W35266   5.697  44.599  12.243
63651W        W35267  18.273   4.564  11.538
63652W        W35268  27.886   3.717   4.198
63653W        W35269  12.292  35.650   1.504
63654W        W35270  18.020  40.797   2.676
63655W        W35271  20.801  10.788   4.310
63656W        W35272  42.028  41.152   4.866
63657W        W35273   0.999  42.365   3.243
63658W        W35274  30.216  42.241  11.514
63659W        W35275   7.080  39.751  11.101
63660W        W35276  40.452  38.207  12.535
63661W        W35277  43.006  43.252  12.424
63662W        W35278  14.689  24.253  14.835
63663W        W35279   8.983   0.470   4.944
63664W        W35280  28.971  37.443  13.887
63665W        W35281  36.153  42.190  14.403
63666W        W35282  11.261  33.010   4.581
63667W        W35283   1.189  35.335   3.178
63668W        W35284  38.554  23.081   2.832
63669W        W35285  23.087  35.619  11.470
63670W        W35286  10.963   7.971  12.869
63671W        W35287  33.392   2.847  11.377
63672W        W35288  41.813  14.775  14.448
63673W        W35289  34.719   9.664  12.543
63674W        W35290  30.351  41.298  13.361
63675W        W35291   8.418  43.285  13.118
63676W        W35292  38.266  11.549   4.972
63677W        W35293  25.753  29.901   4.319
63678W        W35294  17.234  11.278  14.100
63679W        W35295  39.781  20.534  11.357
63680W        W35296   2.468  24.625   3.387
63681W        W35297  36.547   6.697   0.787
63682W        W35298  16.799   0.955   1.251
63683W        W35299  11.603  14.259  14.916
63684W        W35300   2.103  29.061   1.166
63685W        W35301  17.326  29.925   1.740
63686W        W35302  27.181  35.864   2.658
63687W        W35303  41.747  41.705  12.489
63688W        W35304   9.300  37.448   5.074
63689W        W35305   7.311  36.803   1.552
63690W        W35306   5.682   0.909   4.563
63691W        W35307   2.135  19.065  13.821
63692W        W35308  24.029  42.176   1.170
63693W        W35309   6.185  40.330   3.223
63694W        W35310  37.855  27.550   0.703
63695W        W35311  26.040  17.138  12.598
63696W        W35312  10.397  23.779   4.368
63697W        W35313  35.876  43.947  12.918
63698W        W35314  11.193   4.203  11.107
63699W        W35315   0.351  43.436   4.352
63700W        W35316  11.334   1.384   1.477
63701W        W35317  42.338   5.026  14.431
63702W        W35318  33.156  44.458  13.684
63703W        W35319   1.950  19.681   2.256
63704W        W35320  14.030  24.127   2.686
63705W        W35321  34.200  38.963   4.156
63706W        W35322   0.420  22.191   0.902
63707W        W35323  32.878  11.157  13.874
63708W        W35324  35.389  33.105   3.245
63709W        W35325  16.207  29.428   1.266
63710W        W35326  32.028   0.847  12.400
63711W        W35327  42.404  31.048  13.486
63712W        W35328  44.080  35.903   5.057
63713W        W35329  40.736   9.555  13.553
63714W        W35330  38.419  26.653  11.010
63715W        W35331   4.205  10.355  12.905
63716W        W35332  23.335  23.522   4.477
63717W        W35333  35.152   8.105  11.605
63718W        W35334  26.243  39.544   0.020
63719W        W35335   3.698   8.468   1.842
63720W        W35336   1.733   5.343  11.619
63721W        W35337   4.706   2.156  11.617
63722W        W35338  27.704  31.948   3.301
63723W        W35339   7.260   1.453  11.184
63724W        W35340  32.184  36.755   2.283
63725W        W35341  29.115  33.036  14.150
63726W        W35342  24.682  12.798   3.716
63727W        W35343  11.745  18.185  10.722
63728W        W35344   6.292  13.911   2.846
63729W        W35345  25.702  16.050   4.630
63730W        W35346  20.681   0.230   1.897
63731W        W35347  27.171  25.213   0.667
63732W        W35348  37.044   5.083  12.573
63733W        W35349  37.461  19.056   3.833
63734W        W35350   4.860  24.825   3.215
63735W        W35351  36.856   7.514  11.491
63736W        W35352   1.132  39.890  14.616
63737W        W35353   8.836  15.161   3.406
63738W        W35354  37.499  32.923  10.579
63739W        W35355  11.923  25.742  13.919
63740W        W35356  40.374  40.595  12.042
63741W        W35357  28.454  13.358   1.282
63742W        W35358   5.901   4.659   1.774
63743W        W35359  33.101  30.380   1.678
63744W        W35360  33.553  20.090  10.295
63745W        W35361  22.984   1.321   1.198
63746W        W35362  11.401   5.065  10.754
63747W        W35363  22.275   5.224   2.329
63748W        W35364  21.129  39.505   3.672
63749W        W35365  13.229  42.613  12.896
63750W        W35366  31.470  20.984  14.431
63751W        W35367  10.463  34.394   1.973
63752W        W35368   2.891  13.438  12.593
63753W        W35369  30.843   8.580   2.929
63754W        W35370  19.747   7.708  14.386
63755W        W35371  13.565  41.825  14.712
63756W        W35372  35.798  32.508   0.802
63757W        W35373   6.677  43.200  11.171
63758W        W35374  39.817  39.278   0.772
63759W        W35375  11.364  42.028   4.152
63760W        W35376   2.927  30.185  13.200
63761W        W35377  37.932  22.213   0.810
63762W        W35378  13.368  36.669   1.269
63763W        W35379  33.841  32.684   4.228
63764W        W35380  27.225   0.814  12.935
63765W        W35381  10.559  19.236  14.899
63766W        W35382  33.740   4.792  12.906
63767W        W35383  19.838   3.387   0.009
63768W        W35384  14.347  35.772  11.605
63769W        W35385  31.984  32.873   1.884
63770W        W35386  43.273  24.576   4.675
63771W        W35387  33.102   6.996   3.245
63772W        W35388  36.657  32.392  11.577
63773W        W35389  14.199  25.650   4.842
63774W        W35390   3.676   7.450   2.778
63775W        W35391   4.077  14.305  14.303
63776W        W35392   9.173  35.858  14.371
63777W        W35393  29.980  29.491  13.867
63778W        W35394  30.480  28.495   0.045
63779W        W35395  29.966   6.160   0.212
63780W        W35396   8.740  33.012   2.347
63781W        W35397  14.169  13.015  10.758
63782W        W35398  12.365  13.691   3.481
63783W        W35399  43.426   6.352  11.483
63784W        W35400  42.019  28.521  13.086
63785W        W35401   3.883  14.050   0.876
63786W        W35402  28.559  12.811   1.981
63787W        W35403  37.040   8.905  10.865
63788W        W35404  11.677  29.609   0.214
63789W        W35405  30.330  24.598   4.101
63790W        W35406  18.320  38.888   2.022
63791W        W35407  17.127  34.345  11.366
63792W        W35408  13.509  20.713  13.378
63793W        W35409  16.709   1.569   0.374
63794W        W35410   8.808  22.707  11.178
63795W        W35411  25.547  31.495  10.815
63796W        W35412  17.915   2.908  11.946
63797W        W35413  13.503  12.275   2.764
63798W        W35414   1.312  22.987   2.282
63799W        W35415   3.365  13.334   4.229
63800W        W35416  38.118   5.004   2.354
63801W        W35417  36.477   8.339  11.070
63802W        W35418  10.141  27.565  14.430
63803W        W35419  34.021  29.414   0.230
63804W        W35420  14.064  36.580   3.670
63805W        W35421  19.197  26.938   4.220
63806W        W35422  19.446  22.192  10.921
63807W        W35423  27.518   2.910  14.469
63808W        W35424  17.047   5.455   3.906
63809W        W35425  44.002  42.033  12.008
63810W        W35426  12.632   6.481  14.001
63811W        W35427  19.117  21.553  12.459
63812W        W35428  13.580  16.766  14.452
63813W        W35429   8.452  13.306  13.885
63814W        W35430  30.532  22.375  12.488
63815W        W35431  39.422   0.006  11.155
63816W        W35432  19.100  20.506  10.985
63817W        W35433  10.960  37.347  12.532
63818W        W35434  40.893  22.621  13.565
63819W        W35435   9.571  19.104  14.599
63820W        W35436   6.246  14.058   2.330
63821W        W35437  34.008   9.699   0.965
63822W        W35438  42.352  24.673   3.692
63823W        W35439  29.392  18.192  10.760
63824W        W35440  40.324  17.574  10.691
63825W        W35441   2.742  40.888  13.480
63826W        W35442  16.539   3.822   3.196
63827W        W35443  39.544   5.218   3.556
63828W        W35444  26.504  43.247  14.255
63829W        W35445  44.452  36.091  13.829
63830W        W35446  10.738  14.154  14.016
63831W        W35447  10.615  40.015  10.562
63832W        W35448  23.524  16.136   4.106
63833W        W35449  23.083   7.950   0.502
63834W        W35450  42.795  31.522   0.415
63835W        W35451   3.163  31.091  12.599
63836W        W35452  21.533  10.320   3.912
63837W        W35453   6.845  22.570   0.456
63838W        W35454   1.754  35.749   1.973
63839W        W35455  21.632  16.187  13.360
63840W        W35456  42.005  37.880   4.182
63841W        W35457  21.067   8.914  10.731
63842W        W35458   4.043  24.040   4.229
63843W        W35459  19.441   1.029  11.047
63844W        W35460  23.071  25.487  12.950
63845W        W35461  15.563  22.972  14.861
63846W        W35462   8.334   1.431  11.032
63847W        W35463  31.591   9.400  12.969
63848W        W35464  13.648  42.649  13.858
63849W        W35465  19.662  21.518  11.591
63850W        W35466  27.494  41.811  11.177
63851W        W35467  22.179  44.104  14.381
63852W        W35468  30.232  10.602  11.490
63853W        W35469  24.472  22.280  11.216
63854W        W35470   9.196  39.618   2.647
63855W        W35471  44.418  39.438  14.304
63856W        W35472  16.764  26.950   4.796
63857W        W35473  33.349  20.038   4.258
63858W        W35474  12.761  14.235   4.679
63859W        W35475  40.403  27.742  11.309
63860W        W35476  44.307  15.327   3.618
63861W        W35477  39.553   2.852  11.722
63862W        W35478  22.551  34.367  14.910
63863W        W35479  44.843  39.994  12.460
63864W        W35480  19.109  34.483   4.140
63865W        W35481  26.550  41.226   4.234
63866W        W35482   2.465  43.985  12.855
63867W        W35483  44.695  37.623  10.195
63868W        W35484   0.063   1.547  13.103
63869W        W35485  26.111  40.052  14.861
63870W        W35486  16.572  36.486  13.352
63871W        W35487   5.838  28.217   1.436
63872W        W35488  30.726  10.280  10.476
63873W        W35489  26.497  44.083  12.486
63874W        W35490  15.042  38.959  13.394
63875W        W35491  11.133  25.201  13.870
63876W        W35492  32.797  31.255  10.967
63877W        W35493   9.168   7.817   0.795
63878W        W35494   7.121   6.745   3.299
63879W        W35495  31.138  31.290   2.394
63880W        W35496   7.733  11.062  12.786
63881W        W35497  32.067  42.461  11.992
63882W        W35498  36.202  14.802   2.919
63883W        W35499  18.289  16.936  11.063
63884W        W35500  42.505  16.471  14.403
63885W        W35501  27.910  11.819  11.959
63886W        W35502   7.721  41.183   4.727
63887W        W35503  32.367  32.179  14.448
63888W        W35504  39.449  34.155  14.068
63889W        W35505  44.317  20.063   0.903
63890W        W35506   8.684   4.264  12.762
63891W        W35507  24.097  11.823  13.983
63892W        W35508   9.572  14.139   4.504
63893W        W35509  10.590  35.042   1.000
63894W        W35510   8.236   0.707   3.192
63895W        W35511   0.338  42.029   1.205
63896W        W35512   3.919  34.417  12.545
63897W        W35513  13.709  33.937   3.243
63898W        W35514  40.456   6.231   2.761
63899W        W35515  40.722  21.963   3.553
63900W        W35516  35.908  23.442  13.302
63901W        W35517  38.583  18.527  11.638
63902W        W35518  16.050  39.817   1.819
63903W        W35519  41.419  42.026   5.059
63904W        W35520  33.544   8.858  10.699
63905W        W35521  11.162   9.894  14.703
63906W        W35522   6.600  12.256   0.387
63907W        W35523  17.256  35.958  12.542
63908W        W35524  35.587  31.899  14.865
63909W        W35525  19.606  25.433   5.066
63910W        W35526  25.619  30.072  12.582
63911W        W35527  26.414  32.493  14.035
63912W        W35528   4.333  43.355   0.915
63913W        W35529  42.375  15.380   4.751
63914W        W35530   0.264  36.285   3.234
63915W        W35531   1.349  22.553  10.651
63916W        W35532  29.041  23.458  13.413
63917W        W35533  13.738  12.328   1.430
63918W        W35534   6.298  33.574   3.134
63919W        W35535   4.187  10.195   3.272
63920W        W35536  43.757  19.608  12.141
63921W        W35537  40.843   8.896   1.761
63922W        W35538  23.215  29.254   0.224
63923W        W35539  32.460  12.205  12.403
63924W        W35540  29.552  27.673  11.018
63925W        W35541  12.905  12.696  13.036
63926W        W35542  23.454   7.338   3.156
63927W        W35543  19.585   1.290  12.638
63928W        W35544  10.355  28.152  10.889
63929W        W35545  30.633  41.920   0.512
63930W        W35546  29.493  37.067   4.626
63931W        W35547  26.517  26.929  11.856
63932W        W35548   6.923  17.878   1.818
63933W        W35549   3.487  41.250   2.266
63934W        W35550  33.523  15.595  11.615
63935W        W35551  41.607   1.191  12.974
63936W        W35552  33.591  22.023  10.703
63937W        W35553  13.639   5.768   4.599
63938W        W35554  16.708   0.301  13.941
63939W        W35555  34.084   6.671  11.474
63940W        W35556  41.101  43.815   0.450
63941W        W35557   0.878  41.607  14.061
63942W        W35558  22.175  31.956  10.557
63943W        W35559   6.301  28.105  14.877
63944W        W35560  20.134  17.980  12.162
63945W        W35561   4.662  37.379   1.462
63946W        W35562   6.204  24.793   0.302
63947W        W35563  29.197  17.334   1.600
63948W        W35564  36.605  27.725   1.422
63949W        W35565   8.238  41.595   0.274
63950W        W35566  14.747  42.797   1.454
63951W        W35567  19.797  22.488   2.169
63952W        W35568  12.390  17.807  14.857
63953W        W35569  36.904   7.206  14.288
63954W        W35570  18.811  18.759   3.779
63955W        W35571   0.035  25.119  13.847
63956W        W35572  14.539  41.416   1.256
63957W        W35573  26.636   6.158  11.483
63958W        W35574  37.596   3.797  12.783
63959W        W35575  31.892   5.504   2.311
63960W        W35576  13.182  27.048  12.386
63961W        W35577  22.543  15.219   0.311
63962W        W35578  17.280  40.924  10.121
63963W        W35579  10.781  32.616   3.160
63964W        W35580  29.155   6.868  11.504
63965W        W35581  33.962   0.031  11.627
63966W        W35582  37.335  37.444   1.801
63967W        W35583  12.594  20.202   1.978
63968W        W35584   0.533  20.484  12.417
63969W        W35585  43.527  36.500   4.622
63970W        W35586  34.946  26.202   0.013
63971W        W35587  30.385  17.816   2.896
63972W        W35588  20.548  28.306   2.208
63973W        W35589  30.435   8.485  14.058
63974W        W35590   4.754  15.734   1.735
63975W        W35591   7.940   6.695  13.740
63976W        W35592  13.638  26.677   4.219
63977W        W35593  16.564  32.821   3.629
63978W        W35594   7.699  20.081  12.528
63979W        W35595  38.338   3.374  13.986
63980W        W35596   0.918  15.637   1.124
63981W        W35597   8.775  18.012   0.457
63982W        W35598   7.884  11.420  14.861
63983W        W35599   5.192  44.646   4.650
63984W        W35600  40.686  43.872  13.434
63985W        W35601   5.401  31.028  12.889
63986W        W35602  28.974   9.643   2.470
63987W        W35603  11.130  31.216   1.190
63988W        W35604  22.543  29.184   2.798
63989W        W35605  21.054  12.153  10.254
63990W        W35606  24.937  12.389  11.236
63991W        W35607  38.890   0.308  14.292
63992W        W35608   7.602  24.673   0.407
63993W        W35609  15.263  38.467  14.309
63994W        W35610  13.367  27.186  11.896
63995W        W35611  21.712   2.205  11.572
63996W        W35612   6.381  28.477   3.616
63997W        W35613  17.621  14.659  11.801
63998W        W35614  20.192  29.128   3.711
63999W        W35615  28.910  18.304   1.273
64000W        W35616  24.719   2.204   0.996
64001W        W35617  24.632  13.822  12.363
64002W        W35618  41.278  18.671   1.326
64003W        W35619  44.443  11.641   2.338
64004W        W35620  30.038   0.474  14.976
64005W        W35621  27.195  12.869  12.567
64006W        W35622  24.643  18.040   3.827
64007W        W35623  11.266  27.949  11.007
64008W        W35624  26.335  34.971   4.070
64009W        W35625   3.226  34.031   4.608
64010W        W35626  12.298  22.662  13.926
64011W        W35627  26.814  17.202  11.901
64012W        W35628   4.741  15.595   4.106
64013W        W35629  37.279  32.463   5.043
64014W        W35630  23.919  37.286  14.923
64015W        W35631  16.217  23.927  13.015
64016W        W35632  13.664   4.826  14.407
64017W        W35633  12.804   0.041   4.020
64018W        W35634   5.111  22.273   3.157
64019W        W35635   5.676  11.890   0.891
64020W        W35636  18.372  41.975   0.802
64021W        W35637  19.238  36.122  12.595
64022W        W35638  26.414   6.396  11.074
64023W        W35639  33.138  28.112  11.579
64024W        W35640   5.647  29.145  13.507
64025W        W35641  42.435  10.315   2.454
64026W        W35642  18.088   3.923  12.045
64027W        W35643  35.008   8.314  10.643
64028W        W35644  13.649  36.495   0.501
64029W        W35645  10.820   6.308  12.361
64030W        W35646  24.381  41.104   2.498
64031W        W35647  14.170  32.098   1.965
64032W        W35648   3.835  31.631   1.341
64033W        W35649  14.673  30.825  13.489
64034W        W35650   3.516  14.923   5.037
64035W        W35651   3.734  44.945   2.195
64036W        W35652  13.751   3.869  13.922
64037W        W35653  30.004   4.361  11.638
64038W        W35654  37.537  13.124   4.060
64039W        W35655   7.194  36.811   1.001
64040W        W35656  44.924  44.233   4.700
64041W        W35657  28.169  20.484  13.989
64042W        W35658   5.265   1.321   2.565
64043W        W35659  43.930   6.893  12.843
64044W        W35660  24.490  33.539   0.637
64045W        W35661  32.461   4.182  11.472
64046W        W35662  39.497   2.519   0.994
64047W        W35663   6.665  25.226  11.076
64048W        W35664  42.935  36.726   0.935
64049W        W35665  21.583  37.149  14.029
64050W        W35666  44.972  12.268   2.855
64051W        W35667   1.901   8.268  12.658
64052W        W35668   0.384  32.800  10.512
64053W        W35669  22.033  37.881  12.404
64054W        W35670  16.090   2.699   4.516
64055W        W35671  10.884   8.816  12.434
64056W        W35672  40.919   9.175   4.171
64057W        W35673  29.096  17.937   3.926
64058W        W35674  34.659  37.362  10.534
64059W        W35675  38.377  28.569   2.159
64060W        W35676  31.926  10.357  11.374
64061W        W35677  36.971   8.229  12.821
64062W        W35678   4.930  22.006   3.875
64063W        W35679   9.798  41.127  14.893
64064W        W35680   6.278  15.721  10.693
64065W        W35681   6.111   5.761  14.277
64066W        W35682  32.835  37.335  10.396
64067W        W35683   1.783  37.940  11.458
64068W        W35684  38.813  27.966  11.142
64069W        W35685  32.060   9.489  10.633
64070W        W35686  18.851  34.922   2.471
64071W        W35687  13.644  41.251   4.219
64072W        W35688   8.863  10.828  13.948
64073W        W35689  40.413  32.138   3.626
64074W        W35690  33.930   4.607  11.579
64075W        W35691  16.577   3.937   0.425
64076W        W35692  12.876   7.334  12.534
64077W        W35693   2.142  22.599   0.919
64078W        W35694  41.596  28.007  11.105
64079W        W35695  43.504   6.791  12.553
64080W        W35696   8.464  29.554   0.041
64081W        W35697   3.328  19.020  14.535
64082W        W35698   3.828  27.431   0.937
64083W        W35699  15.887  28.003   2.416
64084W        W35700  32.562   0.453   5.032
64085W        W35701  14.450  30.259  11.922
64086W        W35702   7.684  13.396   2.873
64087W        W35703  39.341  42.453  13.612
64088W        W35704  16.043   8.160   1.179
64089W        W35705  11.247  44.449   3.648
64090W        W35706   9.400   7.885   2.389
64091W        W35707  36.880  40.767   3.742
64092W        W35708  23.093  12.292   1.328
64093W        W35709  35.182  11.079   3.713
64094W        W35710  10.162   7.734  13.112
64095W        W35711  26.224  38.801   3.648
64096W        W35712  22.154  22.418  13.365
64097W        W35713  32.399   8.775   1.222
64098W        W35714  27.933  40.044  12.159
64099W        W35715  16.449   0.544   2.806
64100W        W35716  44.557   1.516  13.051
64101W        W35717   1.078  44.009  10.419
64102W        W35718  33.417  13.793   0.493
64103W        W35719  28.172  20.428   0.074
64104W        W35720  25.480   4.624   2.733
64105W        W35721  24.095  26.132   2.349
64106W        W35722  30.736  30.636   4.073
64107W        W35723   2.882   7.160   1.436
64108W        W35724   3.790  27.167  11.581
64109W        W35725  26.169   0.790   1.058
64110W        W35726  44.346  40.545  13.535
64111W        W35727  34.560  16.064  13.553
64112W        W35728  33.091  29.492   1.961
64113W        W35729  36.867  21.846  12.451
64114W        W35730  21.783  24.186  11.615
64115W        W35731  33.683   6.751   4.121
64116W        W35732  25.231  43.973  11.200
64117W        W35733  41.866   6.260   3.065
64118W        W35734  14.293  38.482   2.182
64119W        W35735  23.775  22.789  11.536
64120W        W35736  36.984   9.658   3.281
64121W        W35737   7.234  12.159  10.724
64122W        W35738   6.644  19.181  12.989
64123W        W35739  12.770  31.109   0.403
64124W        W35740  17.107  25.142  10.798
64125W        W35741  41.011  12.723   4.107
64126W        W35742   9.069  34.730   3.623
64127W        W35743  10.247  43.829   0.583
64128W        W35744  33.402  29.593  13.020
64129W        W35745  13.813  10.589   4.764
64130W        W35746   1.456  33.606  14.409
64131W        W35747  34.604  39.538  12.084
64132W        W35748  30.983  35.470   2.811
64133W        W35749  35.851  21.182  10.356
64134W        W35750  25.789  24.938   3.724
64135W        W35751  43.706  41.198   0.869
64136W        W35752  41.958  37.428   2.805
64137W        W35753  24.140  37.049   1.388
64138W        W35754  32.327  43.388   4.151
64139W        W35755  19.984  28.383  11.637
64140W        W35756  12.904  23.123   1.425
64141W        W35757  21.888  23.599   1.890
64142W        W35758  29.453   3.801   2.466
64143W        W35759  13.591  13.639  12.634
64144W        W35760  20.492   9.358   1.238
64145W        W35761  43.479  14.101   4.740
64146W        W35762  24.784   2.992   4.336
64147W        W35763  34.562  16.586   3.771
64148W        W35764  18.289  38.443  12.856
64149W        W35765  42.620   3.355   0.894
64150W        W35766  30.528  18.263   0.121
64151W        W35767  27.950   4.753   4.128
64152W        W35768  22.805  31.526  12.891
64153W        W35769  11.913  38.743   0.920
64154W        W35770   4.902  43.324   4.707
64155W        W35771  13.861  38.701   0.899
64156W        W35772  41.065  14.004   4.217
64157W        W35773  23.015  32.234   2.277
64158W        W35774  10.154  40.007  10.775
64159W        W35775  44.716   7.326  12.913
64160W        W35776  32.134  38.869  12.358
64161W        W35777  11.721   9.296   3.694
64162W        W35778  26.334  12.079   1.799
64163W        W35779  30.102  38.651   4.173
64164W        W35780  16.574  40.540  13.010
64165W        W35781  39.587  17.762   1.325
64166W        W35782  31.523  38.333  14.064
64167W        W35783  40.554  16.294  12.356
64168W        W35784  23.322  24.877  13.318
64169W        W35785  26.494  31.151   0.379
64170W        W35786  24.677   7.907   0.023
64171W        W35787  13.333  36.342  10.679
64172W        W35788  27.042  13.726  11.731
64173W        W35789   3.000  25.182   0.772
64174W        W35790  26.863  32.887  10.523
64175W        W35791   7.673  21.691   0.922
64176W        W35792  31.364  30.908  11.444
64177W        W35793   2.909   9.492   4.905
64178W        W35794  17.894   6.650   1.318
64179W        W35795  40.639  14.916  11.644
64180W        W35796   4.193  43.943   3.744
64181W        W35797  10.431  36.508  12.739
64182W        W35798   3.284  22.148  14.819
64183W        W35799  43.997  20.625  12.588
64184W        W35800  24.112  26.220  10.409
64185W        W35801  25.752  14.700  13.048
64186W        W35802  23.645  43.489   1.735
64187W        W35803   2.547   7.856   3.889
64188W        W35804  44.526  38.867  10.131
64189W        W35805  38.057  44.183  13.525
64190W        W35806  34.586  10.324   3.652
64191W        W35807  12.583  27.115   3.612
64192W        W35808  35.983  38.335   4.854
64193W        W35809  41.086   5.386   4.528
64194W        W35810  43.440  27.077   4.897
64195W        W35811  25.962   6.710   4.094
64196W        W35812  13.340  25.340   2.408
64197W        W35813   0.923  25.167  11.935
64198W        W35814  14.317  14.101  10.712
64199W        W35815   4.859  14.747  13.617
64200W        W35816  43.907  32.372  10.518
64201W        W35817  14.735  12.817   0.408
64202W        W35818  41.457   7.015  11.889
64203W        W35819   2.269  18.174   1.432
64204W        W35820  43.550  39.776  12.558
64205W        W35821  39.242  28.556   3.674
64206W        W35822  24.691  16.797   0.730
64207W        W35823  44.427  34.470   4.191
64208W        W35824  31.598  43.143   0.543
64209W        W35825  28.911  29.138  11.150
64210W        W35826   0.321  22.657   2.791
64211W        W35827  13.151   0.903   4.566
64212W        W35828  14.587  30.324  13.538
64213W        W35829  12.785  20.601   4.161
64214W        W35830  38.861  42.640   0.371
64215W        W35831  26.136  31.499   0.564
64216W        W35832  39.702  44.765  12.730
64217W        W35833  20.753  37.549   0.157
64218W        W35834  30.570  20.216  13.858
64219W        W35835   0.916  35.782  12.179
64220W        W35836  32.089  14.600   0.578
64221W        W35837  24.541  33.221   2.696
64222W        W35838   4.507  23.814   2.392
64223W        W35839  27.063  16.909   1.328
64224W        W35840  18.568   3.715   1.509
64225W        W35841  30.325  36.399   0.018
64226W        W35842  12.766  44.562  10.580
64227W        W35843  32.929   2.518   3.153
64228W        W35844  28.446  34.593  13.352
64229W        W35845   4.253  43.962  14.909
64230W        W35846  16.727  19.580  13.869
64231W        W35847  33.932  20.625  11.389
64232W        W35848  20.565  43.331  10.970
64233W        W35849  43.183  19.464  11.012
64234W        W35850  31.644  39.259   3.602
64235W        W35851  31.083   9.860   1.061
64236W        W35852  23.106  43.299  10.498
64237W        W35853  33.706  26.217   3.635
64238W        W35854  25.500   2.534  14.960
64239W        W35855  17.752  17.857  13.249
64240W        W35856  28.124   7.645   2.039
64241W        W35857  13.673  37.070  13.702
64242W        W35858  28.952  30.887   2.495
64243W        W35859  21.989  41.366  14.404
64244W        W35860   0.024  26.021  13.470
64245W        W35861  34.991   7.235  13.032
64246W        W35862  11.786  40.570  14.453
64247W        W35863  23.450  29.262  14.763
64248W        W35864  31.047  15.608  10.266
64249W        W35865  38.217  11.072   4.505
64250W        W35866  11.857  39.007   0.491
64251W        W35867  19.181   4.896  12.586
64252W        W35868  10.690   3.394   2.389
64253W        W35869   1.405  42.436   4.628
64254W        W35870  44.315  30.854  13.983
64255W        W35871  21.725  19.047   3.779
64256W        W35872  11.498  16.195   1.339
64257W        W35873  34.485  17.599  10.376
64258W        W35874  13.749   2.897  14.768
64259W        W35875  34.054  33.572  13.934
64260W        W35876   7.951   3.680  14.758
64261W        W35877  20.153   4.304   3.622
64262W        W35878  30.129  16.661  14.905
64263W        W35879  17.966  21.199  12.088
64264W        W35880  35.189  17.077  10.829
64265W        W35881  22.158  27.372   2.781
64266W        W35882  32.882  24.493   1.234
64267W        W35883  12.345  22.124   0.603
64268W        W35884   8.779   0.563   3.157
64269W        W35885  28.499  33.823   3.201
64270W        W35886   8.491  35.973  10.621
64271W        W35887  18.556  23.127  12.980
64272W        W35888  15.851  16.777  12.089
64273W        W35889  43.044  15.992  11.605
64274W        W35890  30.208  10.221  10.498
64275W        W35891  23.113  40.772  11.515
64276W        W35892   9.688  43.838   1.952
64277W        W35893  19.267   1.955  10.679
64278W        W35894  27.299   4.939  11.190
64279W        W35895  36.450  12.306  11.428
64280W        W35896   7.588  24.017   0.799
64281W        W35897  13.412  43.424  10.802
64282W        W35898  24.906  32.630   4.405
64283W        W35899  13.897  34.560   3.589
64284W        W35900  10.850  42.844  13.698
64285W        W35901  26.537  39.038   3.307
64286W        W35902   2.971   2.513  14.958
64287W        W35903  37.520  35.991   0.052
64288W        W35904   6.316  23.217   3.163
64289W        W35905  13.237  22.659  12.057
64290W        W35906  33.778  18.454   0.033
64291W        W35907  10.625  18.749   2.711
64292W        W35908  21.210   9.474   2.457
64293W        W35909  17.591  40.781   4.755
64294W        W35910  12.914  34.362   3.757
64295W        W35911   3.977   4.327  12.876
64296W        W35912  38.393  12.169   3.180
64297W        W35913  34.095  30.865   4.579
64298W        W35914  42.415  38.830   4.286
64299W        W35915   8.937  43.426   3.638
64300W        W35916  16.979  19.721   2.904
64301W        W35917  24.518  16.138  13.488
64302W        W35918  34.639  27.188  11.116
64303W        W35919  25.200   5.693   2.594
64304W        W35920  15.715  36.946   3.118
64305W        W35921   0.449  15.146   4.175
64306W        W35922  13.665   1.338  14.018
64307W        W35923  23.091  15.698  11.256
64308W        W35924   0.555   5.254  12.394
64309W        W35925  24.893  16.245   4.272
64310W        W35926   3.325  25.664  10.983
64311W        W35927  36.554  32.081  12.091
64312W        W35928   6.257  42.040   0.314
64313W        W35929  17.625  36.521  13.408
64314W        W35930  21.353  35.505  12.974
64315W        W35931  24.388  12.436  14.658
64316W        W35932  12.438   3.694  12.891
64317W        W35933   2.576  21.503   4.588
64318W        W35934  44.464  25.631   0.445
64319W        W35935  18.856  34.374  13.033
64320W        W35936  32.594  34.825   3.740
64321W        W35937  11.541  16.760   3.206
64322W        W35938  34.212  35.367  13.569
64323W        W35939  10.644  12.826  10.595
64324W        W35940  38.763  18.851  12.977
64325W        W35941  29.517  42.208   1.287
64326W        W35942  16.814  29.120   1.342
64327W        W35943  30.402  36.535   2.402
64328W        W35944   2.529  29.448  13.460
64329W        W35945  38.540  15.525   2.262
64330W        W35946  31.064   8.899   2.247
64331W        W35947  18.344  43.489   2.318
64332W        W35948  21.735   5.938   4.550
64333W        W35949   8.600  34.490   1.519
64334W        W35950   9.663  32.166  10.881
64335W        W35951  33.727  24.703   0.514
64336W        W35952   0.312   8.448  11.618
64337W        W35953  23.954  31.864  10.618
64338W        W35954   1.988  40.693  12.863
64339W        W35955   3.830  31.237  12.899
64340W        W35956  28.238   5.412  12.561
64341W        W35957   5.491  37.467  14.830
64342W        W35958   6.995   8.400   4.434
64343W        W35959  17.358   1.964   0.919
64344W        W35960  19.262  40.834   2.609
64345W        W35961  33.951  37.640   0.852
64346W        W35962  17.532  21.458  12.174
64347W        W35963   0.269  26.997  11.868
64348W        W35964  29.959   5.405  14.573
64349W        W35965  27.217  28.596  14.319
64350W        W35966  44.512  35.468   1.736
64351W        W35967  38.327  32.688  14.830
64352W        W35968  18.718  41.334  11.575
64353W        W35969  19.828  18.341  13.373
64354W        W35970  14.207  43.896   4.571
64355W        W35971  21.521  32.985  12.449
64356W        W35972  22.458  38.398  14.176
64357W        W35973  19.234  10.166   3.957
64358W        W35974  29.786  24.516  14.415
64359W        W35975   6.794  32.168   2.947
64360W        W35976  31.005   1.508   9.872
64361W        W35977  23.471   5.180   0.949
64362W        W35978   5.652  19.823  11.676
64363W        W35979  14.208  24.576  10.483
64364W        W35980   5.114  37.537  12.086
64365W        W35981  19.517  33.499  11.107
64366W        W35982  11.332   2.800   4.167
64367W        W35983  18.574  25.697   0.906
64368W        W35984   8.861   8.088   0.462
64369W        W35985  14.643  20.179   3.146
64370W        W35986   3.402   3.330   2.919
64371W        W35987  22.134   9.663  11.208
64372W        W35988  26.112   8.936  11.379
64373W        W35989  21.807  26.678   0.472
64374W        W35990  32.054  28.607   2.500
64375W        W35991  27.099  40.337  14.372
64376W        W35992  42.929  37.090  14.408
64377W        W35993  23.402   8.438   3.290
64378W        W35994  33.177  41.484  12.095
64379W        W35995  36.726  37.745  13.970
64380W        W35996  29.119  38.034   2.281
64381W        W35997  28.659  19.753   1.358
64382W        W35998  24.122  12.201   3.284
64383W        W35999  33.899  25.179   1.221
64384W        W36000  14.958   7.162  10.243
64385W        W36001   4.254   9.634   0.939
64386W        W36002  18.405  30.613   3.739
64387W        W36003  22.049   7.877   3.141
64388W        W36004  16.816   0.330   1.949
64389W        W36005   6.847  19.015  10.555
64390W        W36006  33.317  19.647  11.064
64391W        W36007  22.652  26.996   4.478
64392W        W36008  12.145  10.858  13.359
64393W        W36009  23.550  15.928  11.196
64394W        W36010  27.509  21.351   1.305
64395W        W36011   4.378  18.590   4.682
64396W        W36012  10.155  16.094   1.969
64397W        W36013  10.234  24.297  10.992
64398W        W36014  32.651  29.174  13.136
64399W        W36015  39.555  32.135   1.184
64400W        W36016  18.305   8.841   3.236
64401W        W36017  11.039   7.238   0.273
64402W        W36018  14.594  16.633  13.429
64403W        W36019  21.075   3.718   3.048
64404W        W36020  37.417  37.727  10.449
64405W        W36021  32.633   1.832  10.214
64406W        W36022  24.968  39.272  13.055
64407W        W36023   2.983  13.540   1.726
64408W        W36024   5.784  44.136   2.321
64409W        W36025   3.929   5.240  14.395
64410W        W36026  13.615   7.776  14.249
64411W        W36027  32.941   2.196   4.068
64412W        W36028  16.294  23.524  11.502
64413W        W36029   3.915  16.684   4.207
64414W        W36030   5.533  12.084  11.051
64415W        W36031   9.808   1.059  13.423
64416W        W36032  11.068  28.632   4.624
64417W        W36033   0.643  13.018  11.601
64418W        W36034  25.046  12.329   1.285
64419W        W36035   1.331  27.030  10.377
64420W        W36036  19.339  27.332  10.738
64421W        W36037   6.852  28.028   0.705
64422W        W36038  11.833  17.513   4.214
64423W        W36039   7.555  33.928  12.435
64424W        W36040  41.540   4.346   0.203
64425W        W36041  21.620   4.249  14.720
64426W        W36042  10.508  42.971   3.133
64427W        W36043  44.975  38.436   2.315
64428W        W36044  16.738   1.316  10.352
64429W        W36045  37.395  35.970   4.497
64430W        W36046   6.386   6.768  12.024
64431W        W36047  37.615   6.373  12.611
64432W        W36048  37.390  24.995  11.915
64433W        W36049  43.437  29.434   3.249
64434W        W36050  32.046   8.157   4.804
64435W        W36051  40.268  29.889   3.271
64436W        W36052  17.078  10.429   4.958
64437W        W36053  17.206  22.357   2.647
64438W        W36054   8.590  10.284   2.245
64439W        W36055  37.932  24.630   0.553
64440W        W36056  26.493  10.286   3.796
64441W        W36057  37.373  20.913  13.482
64442W        W36058   6.431  17.544  12.026
64443W        W36059  41.855  33.140   3.233
64444W        W36060   1.738  20.693   2.748
64445W        W36061  12.560  12.208  13.876
64446W        W36062  11.835   7.266   4.162
64447W        W36063  20.091  38.947  11.148
64448W        W36064   1.731  21.991  10.697
64449W        W36065  19.803  16.059  11.489
64450W        W36066  34.590  23.601  12.912
64451W        W36067  22.101  23.311  13.615
64452W        W36068  17.498  39.395   1.658
64453W        W36069   3.793   8.221  14.269
64454W        W36070  36.094  38.795   2.736
64455W        W36071  12.802  29.980   4.270
64456W        W36072  44.516  27.455  14.858
64457W        W36073   6.364  22.967  14.203
64458W        W36074   8.021   5.545   4.163
64459W        W36075  14.994  34.945  13.981
64460W        W36076   4.316  33.477   0.970
64461W        W36077  18.130  36.450   3.342
64462W        W36078  13.867  43.912   2.825
64463W        W36079  37.975  29.489  11.211
64464W        W36080   5.015  15.285   3.197
64465W        W36081  44.533  20.278  13.923
64466W        W36082  16.068   6.389   2.371
64467W        W36083  35.971  15.215   4.644
64468W        W36084  26.783  18.586   3.712
64469W        W36085   9.175  15.377   2.164
64470W        W36086  22.192  29.999  10.436
64471W        W36087  37.946   2.992   0.506
64472W        W36088  33.229  14.274   2.212
64473W        W36089  20.641  40.529  10.722
64474W        W36090  15.105  18.730   2.263
64475W        W36091  11.120  24.744  12.844
64476W        W36092   8.114  27.939   1.382
64477W        W36093   5.269  44.773  12.478
64478W        W36094   3.323   3.764  11.527
64479W        W36095  32.436  39.812  12.947
64480W        W36096   0.123  31.475   1.883
64481W        W36097  39.989   4.606  13.432
64482W        W36098  14.356  44.499   2.305
64483W        W36099  14.328  22.776  11.057
64484W        W36100  37.653  42.025   4.176
64485W        W36101  43.450  21.514   3.659
64486W        W36102   1.561   9.837   3.152
64487W        W36103  26.177  11.877  14.550
64488W        W36104  35.369   9.420  14.961
64489W        W36105   3.311  28.095   2.015
64490W        W36106   6.076  18.074  12.260
64491W        W36107  28.446   3.446   1.640
64492W        W36108   2.900  18.725   0.432
64493W        W36109  43.302  18.819   2.205
64494W        W36110  25.584  20.491  11.116
64495W        W36111  25.509  17.696   1.918
64496W        W36112   3.662  32.149   4.226
64497W        W36113  40.311   4.134   3.725
64498W        W36114  37.023   4.195   3.329
64499W        W36115  29.976  24.719  12.553
64500W        W36116  15.348  10.835   4.183
64501W        W36117  43.890  33.352   4.832
64502W        W36118  28.441  19.597   2.770
64503W        W36119  33.955  14.128  14.356
64504W        W36120  38.971  42.538  12.878
64505W        W36121  37.668  43.330   4.703
64506W        W36122  19.941  42.502  12.847
64507W        W36123  43.991  19.597   0.060
64508W        W36124  33.770  22.327   3.246
64509W        W36125  34.977  37.884   1.768
64510W        W36126   9.525  24.705   0.271
64511W        W36127  17.557  29.908   0.292
64512W        W36128  32.161  23.673  11.870
64513W        W36129  25.526  34.052  14.963
64514W        W36130  41.834  42.478  10.544
64515W        W36131  21.542  10.763   2.152
64516W        W36132  22.531  20.400  12.559
64517W        W36133   8.855  43.439  11.981
64518W        W36134  14.923   6.162  13.558
64519W        W36135  20.758  43.811   3.920
64520W        W36136  44.124   3.406   3.630
64521W        W36137  13.636   1.902  12.011
64522W        W36138  11.108  13.360  11.252
64523W        W36139  18.818  32.271   2.398
64524W        W36140  24.761  16.140   2.879
64525W        W36141  35.858   6.423   1.934
64526W        W36142  17.145  31.039  13.471
64527W        W36143   6.392  33.467   0.838
64528W        W36144   8.004   4.201   0.551
64529W        W36145  10.510  10.656  12.239
64530W        W36146  33.490  23.051   1.274
64531W        W36147  19.017  26.935  10.788
64532W        W36148  40.173  30.405  13.314
64533W        W36149  41.753  28.656  13.513
64534W        W36150   0.647  14.967  14.678
64535W        W36151  30.467  21.195   2.908
64536W        W36152  15.624  44.668  13.780
64537W        W36153   9.134  18.155  10.655
64538W        W36154  26.266   2.894   4.499
64539W        W36155  41.569   1.240   1.339
64540W        W36156   6.257  28.180  12.525
64541W        W36157  29.418  18.830   4.515
64542W        W36158  39.518   5.813  11.390
64543W        W36159   5.600  42.700   1.210
64544W        W36160   3.802  43.296   2.869
64545W        W36161  36.730  16.703   1.237
64546W        W36162  28.962  14.707   1.198
64547W        W36163  20.625  28.144   0.284
64548W        W36164   5.011  21.142   5.029
64549W        W36165   4.348   9.752   1.437
64550W        W36166  32.449  35.412   2.468
64551W        W36167   1.381  25.321   3.451
64552W        W36168   2.008   9.928  13.454
64553W        W36169  25.979  15.895  13.008
64554W        W36170   5.858   0.753   3.005
64555W        W36171  36.958  29.111   3.849
64556W        W36172  42.672   6.639  12.160
64557W        W36173  28.118  35.834   2.744
64558W        W36174  41.832   4.760   0.238
64559W        W36175   5.637   7.622   3.716
64560W        W36176   9.792   1.871   2.829
64561W        W36177  37.345  38.842  14.325
64562W        W36178  13.232   8.193   0.429
64563W        W36179  33.717  17.562  12.488
64564W        W36180  26.851  39.576   3.635
64565W        W36181  26.897  14.062   2.235
64566W        W36182   9.626   6.265   3.751
64567W        W36183   3.220  11.785  12.460
64568W        W36184  40.016   4.225  14.829
64569W        W36185  36.580  28.373  14.978
64570W        W36186   1.769   2.984  11.904
64571W        W36187  35.173  30.236   1.584
64572W        W36188   0.275  44.211   0.374
64573W        W36189   5.534  15.643   0.408
64574W        W36190   7.662  41.953   2.346
64575W        W36191  15.591  27.454   3.785
64576W        W36192  33.301  19.287   0.381
64577W        W36193  24.629  32.709   2.767
64578W        W36194  16.811  21.270   1.301
64579W        W36195   3.364  38.066   0.915
64580W        W36196  39.110   2.948  12.859
64581W        W36197   7.877  31.417  11.868
64582W        W36198  15.229  24.132  14.460
64583W        W36199  17.023   2.500   2.190
64584W        W36200  44.841  17.744   1.197
64585W        W36201  23.484  28.663   3.752
64586W        W36202  43.009   0.303  13.345
64587W        W36203   8.353  37.738  13.387
64588W        W36204   8.664   0.051   4.572
64589W        W36205   0.723  17.645   1.999
64590W        W36206  37.008   0.930  11.602
64591W        W36207  29.570  31.018  12.839
64592W        W36208   7.419  11.220  14.857
64593W        W36209  11.781   8.390   2.217
64594W        W36210  14.170  12.818   2.733
64595W        W36211  37.073  16.449   2.774
64596W        W36212  17.736  43.821  13.512
64597W        W36213  34.695  36.397   1.734
64598W        W36214  44.544  32.235  11.568
64599W        W36215  42.122  30.387  14.879
64600W        W36216  33.511  19.472  13.127
64601W        W36217  27.853  44.859  12.108
64602W        W36218  13.162  11.046   1.436
64603W        W36219  41.844   5.577   0.049
64604W        W36220  29.426  18.368  11.234
64605W        W36221  16.286  28.232  11.603
64606W        W36222  20.854   8.736   0.283
64607W        W36223  36.048  12.423   3.415
64608W        W36224  25.924  14.065  14.849
64609W        W36225  20.364  42.064  12.537
64610W        W36226  30.435  18.807  12.628
64611W        W36227  26.064   7.945   2.655
64612W        W36228   2.364  44.990   2.777
64613W        W36229  38.295  15.565  13.483
64614W        W36230  35.418  11.808   1.245
64615W        W36231  15.177   5.676   3.212
64616W        W36232   3.507   6.922   2.748
64617W        W36233   7.760   5.264   2.241
64618W        W36234  21.625  44.853  14.916
64619W        W36235  37.819  34.179  14.890
64620W        W36236   6.364  32.347  14.377
64621W        W36237   0.921  29.229  11.067
64622W        W36238   1.345  20.965   1.413
64623W        W36239   2.594   2.868  14.927
64624W        W36240  30.765   2.809  12.117
64625W        W36241  14.051  29.714  13.932
64626W        W36242   2.735  35.909   2.935
64627W        W36243   7.515   2.998  13.502
64628W        W36244  22.993  33.514  11.124
64629W        W36245  20.566  11.659  10.706
64630W        W36246  25.508  35.103  10.501
64631W        W36247  42.741  42.998   0.520
64632W        W36248  39.471  23.962   2.799
64633W        W36249  43.400  20.700  13.398
64634W        W36250  19.194   8.733  14.846
64635W        W36251   1.787   5.922   3.694
64636W        W36252   0.429  29.657  11.101
64637W        W36253  34.482  14.281  11.072
64638W        W36254  21.813  18.237  11.130
64639W        W36255  28.382  44.818  12.160
64640W        W36256  38.745  33.372  11.738
64641W        W36257  36.882   5.516  11.663
64642W        W36258  16.585  18.524  11.690
64643W        W36259  31.673  22.591   4.739
64644W        W36260  12.179   2.172   4.533
64645W        W36261  20.129  31.491   2.725
64646W        W36262  19.202  26.044   0.352
64647W        W36263  29.072  13.818  11.414
64648W        W36264   6.951   9.127  12.145
64649W        W36265  23.137   6.953   4.090
64650W        W36266   4.625  43.594  14.825
64651W        W36267  36.577  42.460  11.628
64652W        W36268  24.058  17.687  13.497
64653W        W36269  43.721  19.787  11.608
64654W        W36270   0.898  37.382   3.278
64655W        W36271  29.695  36.369   1.716
64656W        W36272  19.203  19.200  11.158
64657W        W36273  33.353  10.961  13.795
64658W        W36274  24.609  11.464  13.579
64659W        W36275  12.058  41.237  12.011
64660W        W36276  33.339  41.365  12.587
64661W        W36277  26.065   2.458  12.880
64662W        W36278  33.509   0.213  11.052
64663W        W36279  12.310  41.354   2.628
64664W        W36280  21.836  23.628  11.470
64665W        W36281  42.776  31.014  10.753
64666W        W36282  21.646  31.251   0.856
64667W        W36283  37.762  22.503  10.561
64668W        W36284  21.741   0.919   3.656
64669W        W36285   2.894  42.009   1.332
64670W        W36286  27.105   4.412   3.553
64671W        W36287  25.205   1.767   1.746
64672W        W36288   1.266  23.651  13.538
64673W        W36289  12.039  27.598  12.409
64674W        W36290  27.175  23.582  11.408
64675W        W36291  18.753  29.180   1.756
64676W        W36292  11.242  39.372  14.494
64677W        W36293   3.156   1.712   0.348
64678W        W36294  30.038  22.006   1.241
64679W        W36295  25.678  40.753   1.211
64680W        W36296  29.170  22.534   3.864
64681W        W36297  20.348  12.137   1.147
64682W        W36298  40.762   7.655   3.777
64683W        W36299   9.694  44.617  10.259
64684W        W36300  31.848  41.964   1.309
64685W        W36301  29.628   2.417  13.509
64686W        W36302  25.355  24.578   0.675
64687W        W36303   8.923  35.091  12.990
64688W        W36304  26.626   6.725   2.188
64689W        W36305  36.872  11.233  14.020
64690W        W36306  15.891  27.064   0.135
64691W        W36307  32.008  33.464   0.675
64692W        W36308  23.299  41.824   3.252
64693W        W36309  32.989  41.893   4.190
64694W        W36310  21.706   5.467  12.875
64695W        W36311  36.715  19.690  11.052
64696W        W36312   4.304  23.588  10.626
64697W        W36313  18.956   0.887   1.837
64698W        W36314   2.736  22.758   3.210
64699W        W36315  12.616  32.558  14.314
64700W        W36316  42.827  39.521  11.723
64701W        W36317  15.531  30.871   5.060
64702W        W36318  18.477  29.634   3.619
64703W        W36319  43.288  38.836  13.839
64704W        W36320  17.173  22.741   5.089
64705W        W36321  10.400  33.129  12.713
64706W        W36322  23.765  43.484  12.500
64707W        W36323  27.995  37.213  12.103
64708W        W36324  17.960  19.180   2.088
64709W        W36325   8.021  32.150  14.077
64710W        W36326  32.872   1.212   2.454
64711W        W36327  15.164  39.262  11.158
64712W        W36328   8.321  15.379  10.977
64713W        W36329  10.136  22.524  11.589
64714W        W36330  38.671  19.069   4.680
64715W        W36331  29.120   3.558  11.044
64716W        W36332  38.370  31.618   3.179
64717W        W36333  11.792   3.437  10.983
64718W        W36334  30.571   7.871   3.895
64719W        W36335  44.884  41.564   0.829
64720W        W36336  44.396   8.875   0.949
64721W        W36337  14.816  29.486  12.154
64722W        W36338  20.968   8.526   0.893
64723W        W36339   9.737  16.208  11.409
64724W        W36340  22.790  22.198  14.756
64725W        W36341  10.031  15.730   2.783
64726W        W36342  39.113  11.048  13.236
64727W        W36343  15.185  34.622   0.367
64728W        W36344  10.183  43.889   4.674
64729W        W36345   9.120  36.916  11.439
64730W        W36346  19.220  43.692  11.962
64731W        W36347  20.229  24.308   1.642
64732W        W36348  41.352  15.300  13.031
64733W        W36349  12.606  44.325  12.335
64734W        W36350  37.114  36.380   4.650
64735W        W36351   4.004  36.033  13.357
64736W        W36352  17.032  33.601  12.412
64737W        W36353  23.276   6.417   1.442
64738W        W36354  17.135  30.558   1.187
64739W        W36355  18.226  13.120  11.454
64740W        W36356  11.929  37.388  14.989
64741W        W36357  41.381  42.479  14.555
64742W        W36358  19.149  40.529   4.918
64743W        W36359  20.041  11.243   4.025
64744W        W36360  31.902  24.091  13.550
64745W        W36361  11.650   5.207  12.867
64746W        W36362  31.996  15.658   5.034
64747W        W36363  35.075  13.551   1.650
64748W        W36364  28.867   0.238  13.320
64749W        W36365  36.686   0.044   0.075
64750W        W36366  12.713  22.756  11.507
64751W        W36367  26.789  35.909  10.946
64752W        W36368  40.869  33.942  13.440
64753W        W36369   2.272  29.889  14.456
64754W        W36370  16.172  21.278   3.393
64755W        W36371  17.805  43.390   1.688
64756W        W36372  16.186  23.227   1.954
64757W        W36373   5.221  23.200  13.121
64758W        W36374   0.498   4.892   2.810
64759W        W36375  19.062  18.254  12.977
64760W        W36376  43.226  22.094   2.364
64761W        W36377   3.349  13.595   4.694
64762W        W36378  33.655   3.834  12.167
64763W        W36379  38.861  29.127  13.070
64764W        W36380  14.332  11.349   1.977
64765W        W36381  10.804  42.305  13.634
64766W        W36382   6.361   6.268  13.488
64767W        W36383  31.516  44.879  14.637
64768W        W36384   1.015  10.717   3.030
64769W        W36385  41.046  35.478   1.945
64770W        W36386  10.251   4.492  13.860
64771W        W36387   5.247  17.532   0.858
64772W        W36388  27.088  42.491   1.471
64773W        W36389  13.867   6.369  13.512
64774W        W36390  33.089  18.246  13.370
64775W        W36391  18.157  22.720  11.609
64776W        W36392   5.273  12.827  11.519
64777W        W36393  18.226   2.225   2.746
64778W        W36394  40.994  20.700  13.009
64779W        W36395  35.910  38.360  11.909
64780W        W36396  26.111  17.525  14.756
64781W        W36397  20.711   8.237   2.370
64782W        W36398  12.160  38.980   3.143
64783W        W36399  13.092   1.435  14.835
64784W        W36400  44.928  44.535   1.636
64785W        W36401  41.079   5.261  14.317
64786W        W36402  40.915  36.459   2.490
64787W        W36403   4.204   1.479  11.778
64788W        W36404   3.829  42.387   1.324
64789W        W36405  20.116  36.012   2.877
64790W        W36406   6.312  22.523  13.076
64791W        W36407  28.443  41.940   3.260
64792W        W36408  25.898  25.641  13.086
64793W        W36409  31.438  27.202  14.477
64794W        W36410  14.276  38.439  13.377
64795W        W36411   5.784  32.626  12.487
64796W        W36412  17.297  10.410  14.889
64797W        W36413  11.556  15.851   2.731
64798W        W36414   1.844   8.413   3.671
64799W        W36415  36.809   8.106  11.859
64800W        W36416   8.492  21.695  12.153
64801W        W36417   6.486  27.039  10.384
64802W        W36418  30.493   9.222   3.702
64803W        W36419  15.915   5.085  12.585
64804W        W36420  22.624  37.627   0.822
64805W        W36421  29.889  29.383   3.302
64806W        W36422  15.942  20.007   4.177
64807W        W36423  26.583  18.227   3.408
64808W        W36424   8.936  40.837   1.907
64809W        W36425  38.027  17.545   2.792
64810W        W36426  29.462  21.873   0.498
64811W        W36427   9.372   4.615   0.179
64812W        W36428   8.212  30.840  13.887
64813W        W36429  25.169  33.590   4.637
64814W        W36430   6.569  21.012  12.917
64815W        W36431  29.092  14.175  10.526
64816W        W36432   8.726  21.988   3.292
64817W        W36433  15.839  34.534  12.389
64818W        W36434   8.469  23.357   2.327
64819W        W36435  28.038   1.454   0.745
64820W        W36436  23.219  33.999   1.661
64821W        W36437  18.869   6.401   0.808
64822W        W36438  44.337  24.072  12.481
64823W        W36439  35.135  42.814  12.015
64824W        W36440  34.200  32.129  11.607
64825W        W36441  19.749   6.869   0.020
64826W        W36442   8.853  26.024   1.759
64827W        W36443  20.576  41.580  11.655
64828W        W36444  16.899  27.908  10.752
64829W        W36445  27.909  42.694  11.554
64830W        W36446  17.533   8.296  10.777
64831W        W36447  36.440  27.799  11.619
64832W        W36448   1.055  21.955  11.483
64833W        W36449  13.011  19.085  11.554
64834W        W36450  11.383  12.631  12.077
64835W        W36451  34.128  34.961   2.312
64836W        W36452  35.794  19.497  11.497
64837W        W36453   0.930  27.951  14.536
64838W        W36454  23.045  11.387   4.179
64839W        W36455   9.099  38.414   0.311
64840W        W36456  32.352  10.587  12.057
64841W        W36457  16.551   8.884   4.738
64842W        W36458  20.993  44.585   3.650
64843W        W36459   1.475  31.061  12.572
64844W        W36460  15.431  38.334  14.792
64845W        W36461  44.405  11.980  10.458
64846W        W36462  31.098  24.477   0.395
64847W        W36463  20.248  22.386  11.318
64848W        W36464  43.048  22.220   1.850
64849W        W36465  42.418  18.115  11.247
64850W        W36466  18.024  13.889   0.396
64851W        W36467  44.071  38.512  14.562
64852W        W36468   2.346   1.243  14.437
64853W        W36469  26.555   0.074   2.281
64854W        W36470  41.135  34.968   3.749
64855W        W36471  34.361  42.446   2.633
64856W        W36472  35.637  41.899  12.334
64857W        W36473  43.332   1.151   1.329
64858W        W36474   3.100   1.761   3.149
64859W        W36475  25.658   1.999   1.536
64860W        W36476  11.736   6.205  12.799
64861W        W36477  26.792   0.775   0.724
64862W        W36478  34.699  31.425  13.925
64863W        W36479   7.280  40.232  11.159
64864W        W36480  27.418  36.382   2.795
64865W        W36481  33.880   4.290  12.858
64866W        W36482  39.268  37.821   1.719
64867W        W36483   3.582  37.868  10.634
64868W        W36484  44.593  21.454  12.564
64869W        W36485  22.006  12.280  11.661
64870W        W36486  37.975  29.118  14.878
64871W        W36487  38.031  38.320  12.595
64872W        W36488  18.129  28.030   0.664
64873W        W36489  35.969  22.111  13.425
64874W        W36490  35.600  18.545  12.514
64875W        W36491  39.282  29.642   0.677
64876W        W36492  27.861  24.085   0.347
64877W        W36493   5.994  10.494  12.511
64878W        W36494  23.259  17.223   4.770
64879W        W36495  29.532  20.505   4.024
64880W        W36496  29.985  16.152   0.001
64881W        W36497  38.814  30.653   2.276
64882W        W36498  34.407  26.398   0.925
64883W        W36499  16.197  40.577   4.762
64884W        W36500   5.251  34.449  13.424
64885W        W36501  38.107  21.125  11.977
64886W        W36502   3.251   5.653   1.858
64887W        W36503  41.785   1.776  10.291
64888W        W36504  38.743  39.822  12.095
64889W        W36505  31.017  16.402  13.333
64890W        W36506  41.018  30.398  12.564
64891W        W36507  30.546   2.704  14.841
64892W        W36508  25.077  15.556  11.013
64893W        W36509  40.322   5.596  14.927
64894W        W36510  44.279  34.649   2.814
64895W        W36511  10.849  19.111  13.890
64896W        W36512   1.242  38.564   0.400
64897W        W36513  44.174  27.617   1.708
64898W        W36514  41.764   8.311  14.772
64899W        W36515  13.183  23.031  14.020
64900W        W36516  16.543  39.460   1.208
64901W        W36517  32.601   9.813  12.490
64902W        W36518   9.383  30.587  12.823
64903W        W36519  18.276  10.809   2.817
64904W        W36520  22.975  14.672   1.932
64905W        W36521   5.175  19.526   1.190
64906W        W36522  30.630  35.581  13.156
64907W        W36523   7.468  16.565   4.153
64908W        W36524  31.879  41.307   4.245
64909W        W36525  39.840   0.789   1.844
64910W        W36526  14.293  11.078  13.653
64911W        W36527   3.430  25.547   2.933
64912W        W36528  14.155  22.000   1.254
64913W        W36529  31.146  12.583  12.450
64914W        W36530  26.076  11.961  12.709
64915W        W36531  35.051  24.399  14.784
64916W        W36532  37.282  22.937  12.958
64917W        W36533   7.167   0.885  12.321
64918W        W36534  43.057  25.246  12.627
64919W        W36535   7.299   7.250  12.424
64920W        W36536  10.300  44.066  11.995
64921W        W36537  10.746   7.350  10.640
64922W        W36538  23.622   5.251   4.212
64923W        W36539  30.426  31.068   4.066
64924W        W36540  41.856  38.504  10.629
64925W        W36541  42.529  17.097   2.221
64926W        W36542  31.724  28.126   4.616
64927W        W36543  17.539   8.194   0.532
64928W        W36544  34.417   6.835  12.451
64929W        W36545  34.084  11.906   4.210
64930W        W36546  27.864  18.475   1.605
64931W        W36547  16.314  21.216  13.414
64932W        W36548  42.213  28.032   0.804
64933W        W36549  33.175   9.210  12.005
64934W        W36550  43.450  19.450  13.851
64935W        W36551  32.644  40.865  11.140
64936W        W36552  18.166  22.420   2.701
64937W        W36553  18.607  24.585  13.900
64938W        W36554  12.171   4.773  12.938
64939W        W36555   5.806   9.194  12.843
64940W        W36556  28.546  37.553   4.458
64941W        W36557  44.726  27.152   2.674
64942W        W36558  25.930  43.008   0.402
64943W        W36559   1.914  20.046  14.095
64944W        W36560  18.824   4.763   2.839
64945W        W36561  28.552  44.370   4.376
64946W        W36562  27.498  41.721  13.531
64947W        W36563  15.113  19.771   0.281
64948W        W36564  35.560   3.461   1.729
64949W        W36565   8.853   0.204  14.756
64950W        W36566  37.764  20.579   3.695
64951W        W36567  23.898   2.457   1.295
64952W        W36568  40.795  14.386   3.144
64953W        W36569   3.210  24.051   4.661
64954W        W36570  44.762  10.292  11.528
64955W        W36571  20.506  22.058   2.303
64956W        W36572  20.325   4.779   2.682
64957W        W36573  26.043  17.270   2.660
64958W        W36574  42.966  11.368  13.445
64959W        W36575  33.925  19.236   1.367
64960W        W36576  21.061  34.377  13.517
64961W        W36577  19.763   3.349   4.582
64962W        W36578  27.683  28.375  11.997
64963W        W36579  30.828  35.411   3.809
64964W        W36580  38.664  21.577  13.725
64965W        W36581  16.657   8.239   3.262
64966W        W36582  13.254  27.498   4.086
64967W        W36583   6.924   5.816  11.124
64968W        W36584  30.675  23.110   0.897
64969W        W36585  32.541  32.915  11.931
64970W        W36586  44.041  41.417  13.037
64971W        W36587  43.557  18.289   3.817
64972W        W36588   8.877  38.974   1.457
64973W        W36589  14.292  39.378  11.477
64974W        W36590  19.356  26.007   3.771
64975W        W36591  23.107   9.931   0.249
64976W        W36592  20.632  36.183  12.714
64977W        W36593   1.876   7.451   4.545
64978W        W36594  23.071  24.512   2.724
64979W        W36595  16.258  36.829  11.131
64980W        W36596   5.036   7.118  14.815
64981W        W36597  30.644  38.278   2.635
64982W        W36598  27.008  13.130  14.378
64983W        W36599  32.121  41.969   0.375
64984W        W36600  28.719  20.973   1.767
64985W        W36601   1.290  39.509   1.858
64986W        W36602  30.018   4.191  12.133
64987W        W36603  30.268  41.598   0.356
64988W        W36604  19.327  27.226  11.705
64989W        W36605  16.652  43.298   4.633
64990W        W36606  12.132  22.551   1.251
64991W        W36607  24.549  24.812  12.871
64992W        W36608  19.498  18.721   2.316
64993W        W36609  20.476  37.388  13.370
64994W        W36610  28.523   2.072  10.414
64995W        W36611  14.073   4.459   2.207
64996W        W36612  28.411  33.851  12.000
64997W        W36613  13.816  19.232  14.908
64998W        W36614  17.062  32.411  13.211
64999W        W36615   7.446  28.055   0.447
65000W        W36616  36.836  30.163   2.571
65001W        W36617  30.028   7.628   0.419
65002W        W36618  43.554  35.013  11.111
65003W        W36619  15.341  39.946  14.887
65004W        W36620   3.526  18.221  11.059
65005W        W36621  27.584   6.867  10.686
65006W        W36622  23.515   7.421   2.646
65007W        W36623  29.377  21.077  12.370
65008W        W36624  30.710  13.340   0.513
65009W        W36625   5.076   1.375   9.911
65010W        W36626   7.777  29.535  12.466
65011W        W36627  16.168  16.683  10.707
65012W        W36628  44.517   6.253  11.987
65013W        W36629   1.436  43.955  10.793
65014W        W36630  30.603  16.090  12.031
65015W        W36631  21.676  11.839   3.208
65016W        W36632  38.144   2.757   3.110
65017W        W36633   2.312  25.971  14.608
65018W        W36634  22.146   1.549   3.152
65019W        W36635   2.897  23.062   2.803
65020W        W36636  13.288  22.147  12.073
65021W        W36637  37.856  38.509   2.382
65022W        W36638  13.530  16.578  11.566
65023W        W36639  18.127   6.554  13.989
65024W        W36640  19.041   1.004   0.982
65025W        W36641  42.703  10.357   0.952
65026W        W36642  38.064  14.576  14.512
65027W        W36643  37.900  37.073   4.906
65028W        W36644  10.173  30.915  11.152
65029W        W36645  23.592  19.700   1.121
65030W        W36646  15.838   0.438   2.657
65031W        W36647  41.460  21.623   2.317
65032W        W36648  40.879  33.374  11.943
65033W        W36649   5.654  32.809  14.047
65034W        W36650   7.672  43.419   4.153
65035W        W36651  29.417  24.472   3.088
65036W        W36652   7.416  39.858  14.981
65037W        W36653  40.579   7.942  10.848
65038W        W36654   8.643  32.629  14.433
65039W        W36655  16.347  25.061  13.720
65040W        W36656  18.125   2.271  12.132
65041W        W36657  39.578   7.641  10.731
65042W        W36658  35.473  20.515   1.774
65043W        W36659  38.591  34.317  12.606
65044W        W36660  29.022  14.226  14.585
65045W        W36661  26.754  36.481   2.262
65046W        W36662   1.566  31.022  10.650
65047W        W36663  26.025  42.315   4.123
65048W        W36664  23.260  31.250  11.674
65049W        W36665  44.546  25.412  11.497
65050W        W36666   4.866  39.565   0.205
65051W        W36667  31.353  32.595  11.985
65052W        W36668  19.101   8.935   4.565
65053W        W36669   6.869  33.507  12.613
65054W        W36670  19.109   2.575  12.452
65055W        W36671  25.059  35.541   4.103
65056W        W36672  26.787  26.241   0.451
65057W        W36673  32.148  24.961   4.822
65058W        W36674  33.759  22.245   4.757
65059W        W36675  11.792  44.865   3.154
65060W        W36676  44.209  33.393  12.380
65061W        W36677   8.183  36.830   1.837
65062W        W36678  27.564  29.709  11.586
65063W        W36679  43.405  25.170   3.522
65064W        W36680   5.668  32.381   2.557
65065W        W36681   6.791  35.367   1.682
65066W        W36682   4.855  30.843  14.995
65067W        W36683  38.265  35.129   1.221
65068W        W36684  41.536   7.153   3.610
65069W        W36685  21.202  13.418  13.498
65070W        W36686  34.182   8.231   0.846
65071W        W36687   6.873  25.507   1.797
65072W        W36688  38.764   7.805  11.485
65073W        W36689   9.966  15.612   0.316
65074W        W36690  42.989  36.886   0.055
65075W        W36691  41.293  17.750   1.213
65076W        W36692  28.722  13.634   0.940
65077W        W36693  35.173  43.689   3.322
65078W        W36694   8.707  43.349  10.936
65079W        W36695  27.635   5.199   4.795
65080W        W36696   5.875  24.650  14.477
65081W        W36697   3.640   1.546   1.387
65082W        W36698   2.685  29.665   1.717
65083W        W36699  43.791  21.975  14.050
65084W        W36700  10.817  14.981   3.855
65085W        W36701  34.010  39.103   4.640
65086W        W36702   4.401  18.672  13.850
65087W        W36703  27.150  33.031  10.975
65088W        W36704   9.798   4.425  12.442
65089W        W36705  42.545  40.576  12.800
65090W        W36706   9.346  21.622   1.644
65091W        W36707  17.281  13.597  11.232
65092W        W36708   2.934  31.681  11.153
65093W        W36709  30.482  16.960   1.698
65094W        W36710   8.253  39.363   3.602
65095W        W36711  26.653  12.156   0.466
65096W        W36712  26.644  24.734  12.189
65097W        W36713  22.263  13.414  11.131
65098W        W36714  27.498  17.275   1.627
65099W        W36715  21.676  38.334   3.233
65100W        W36716   3.943  14.793   0.506
65101W        W36717  37.405  10.891   2.296
65102W        W36718  28.939  30.186   4.161
65103W        W36719  26.094  30.855   0.144
65104W        W36720  10.836  40.449  11.515
65105W        W36721  26.539  23.600  10.774
65106W        W36722  24.259   6.701   4.505
65107W        W36723  38.868  21.623  12.359
65108W        W36724  16.679  24.247  13.664
65109W        W36725  41.005  24.236   0.922
65110W        W36726  41.249   6.852  11.140
65111W        W36727  11.614  12.155  13.957
65112W        W36728  40.314  39.805   4.161
65113W        W36729  41.546  11.765  13.759
65114W        W36730  18.493  27.224  13.905
65115W        W36731   7.325  43.289  12.070
65116W        W36732   0.886  32.422   4.252
65117W        W36733   5.114  27.594   2.782
65118W        W36734   5.652  35.808  11.587
65119W        W36735  31.086  30.596   2.741
65120W        W36736  13.022  40.210  14.075
65121W        W36737  18.445  40.766   0.283
65122W        W36738  19.849  42.255  12.011
65123W        W36739   5.941  16.286   1.776
65124W        W36740  30.493   4.358  10.942
65125W        W36741  33.638  14.713   0.825
65126W        W36742   7.634  26.464  14.989
65127W        W36743   7.767   7.695   3.718
65128W        W36744  16.904  15.764  11.984
65129W        W36745   4.468  30.107  11.903
65130W        W36746   7.172  17.809   0.862
65131W        W36747  17.577  38.945   2.926
65132W        W36748  10.804  29.192   4.589
65133W        W36749  35.864  38.761  13.892
65134W        W36750   1.584   2.211  11.648
65135W        W36751  19.464   2.695   1.265
65136W        W36752  36.677  20.486   2.618
65137W        W36753  20.297  23.612  14.460
65138W        W36754  35.658  40.750   1.837
65139W        W36755  31.015  31.484  10.622
65140W        W36756  17.541   7.743   0.854
65141W        W36757  37.459  32.329  13.437
65142W        W36758   8.581  17.195  11.594
65143W        W36759  13.307   4.501  14.221
65144W        W36760  13.335  41.419  13.325
65145W        W36761  37.034  29.332  13.911
65146W        W36762  30.131  26.982  11.687
65147W        W36763  15.589   0.008  11.360
65148W        W36764  35.511  44.811  14.400
65149W        W36765  11.891   5.836  13.357
65150W        W36766  33.602  31.459   0.760
65151W        W36767  37.728  29.061  14.421
65152W        W36768  30.467   7.877   0.245
65153W        W36769  26.236   8.597  13.949
65154W        W36770  34.891  17.007   4.638
65155W        W36771  33.825   6.329   4.606
65156W        W36772  10.830  15.028  12.054
65157W        W36773  33.983  15.554  13.391
65158W        W36774   7.874  30.441   0.292
65159W        W36775  34.671  26.723   0.633
65160W        W36776  24.244  33.928   3.105
65161W        W36777   3.190  44.294  13.285
65162W        W36778  43.320  23.069  13.571
65163W        W36779  35.668  33.363   2.608
65164W        W36780  42.926   1.833   1.731
65165W        W36781  40.801  26.454  10.711
65166W        W36782  35.032  43.021   0.373
65167W        W36783  25.176  28.728  12.118
65168W        W36784   4.237  41.310   2.711
65169W        W36785  29.431   4.397  14.480
65170W        W36786   5.212   3.195  10.396
65171W        W36787  36.887   3.221   1.781
65172W        W36788  24.795   2.149   5.204
65173W        W36789  21.318   5.430  13.240
65174W        W36790  13.831  17.581   1.295
65175W        W36791  33.548  27.958  14.468
65176W        W36792  21.758  42.787   2.934
65177W        W36793  18.084   7.487   2.610
65178W        W36794  31.774  12.205  11.998
65179W        W36795   4.411  22.437   2.792
65180W        W36796  21.477  39.878   0.229
65181W        W36797  37.581  40.818  14.049
65182W        W36798  12.245  22.559  14.830
65183W        W36799  35.551  12.557  10.447
65184W        W36800  12.664   9.996   1.058
65185W        W36801  30.144  28.376  11.153
65186W        W36802  34.996  43.219  14.872
65187W        W36803   2.405  32.161   4.919
65188W        W36804  41.352  26.623   0.250
65189W        W36805  18.176  15.816   1.221
65190W        W36806  34.956  21.716  10.428
65191W        W36807  37.614  31.798  14.862
65192W        W36808  26.960  28.025   1.878
65193W        W36809   3.497  24.636   4.805
65194W        W36810   3.549  40.575   2.231
65195W        W36811   9.378  20.650   2.841
65196W        W36812  19.633  39.944   4.878
65197W        W36813  42.560   8.181   1.878
65198W        W36814   1.365   3.373   3.262
65199W        W36815  42.715  26.759   1.875
65200W        W36816  14.044  31.097   1.863
65201W        W36817  30.927   3.624  11.029
65202W        W36818  39.856  41.768   1.516
65203W        W36819  29.616  14.641   3.295
65204W        W36820  38.966  41.650  10.975
65205W        W36821   6.993   3.176  12.074
65206W        W36822   2.699  25.801  14.922
65207W        W36823  37.371  29.380   4.033
65208W        W36824  17.561   5.857  11.578
65209W        W36825  29.951  23.028  11.674
65210W        W36826  41.016  29.155  13.407
65211W        W36827  38.743  17.719   2.180
65212W        W36828  31.963  11.315  13.967
65213W        W36829  37.823  26.341  13.931
65214W        W36830   2.380  44.812  10.173
65215W        W36831  22.650  18.674   1.239
65216W        W36832  31.013  43.997   3.730
65217W        W36833   4.551  38.856   4.153
65218W        W36834  35.436   8.798  13.221
65219W        W36835   1.772  25.392  13.308
65220W        W36836  18.701  29.316   3.262
65221W        W36837  20.038  38.386   2.380
65222W        W36838  29.595   9.624   1.927
65223W        W36839  36.136  30.135  10.707
65224W        W36840  17.858  24.286  12.060
65225W        W36841  44.487   9.392   2.197
65226W        W36842  29.859  29.411   4.937
65227W        W36843  41.468  35.467  11.493
65228W        W36844   9.372   9.547  14.756
65229W        W36845  13.237  23.062  14.525
65230W        W36846  33.968  43.042  12.603
65231W        W36847  30.419   6.675   3.232
65232W        W36848  25.897   0.244  11.082
65233W        W36849  10.617   9.785  13.281
65234W        W36850  32.357  33.047  12.970
65235W        W36851  10.254  31.319   1.762
65236W        W36852   1.210  39.326  14.776
65237W        W36853  10.375   3.320   9.906
65238W        W36854   2.488  10.753   2.797
65239W        W36855  41.532  20.577   0.284
65240W        W36856  21.233  13.380   4.676
65241W        W36857  23.011  16.751  14.472
65242W        W36858  13.844  12.759   4.620
65243W        W36859  32.511  30.086  13.027
65244W        W36860  10.879  26.637  13.897
65245W        W36861  32.189   3.257  11.147
65246W        W36862  20.914  20.943  12.010
65247W        W36863  13.362  37.386   4.702
65248W        W36864  16.656  25.019   0.226
65249W        W36865  20.846  15.692   1.697
65250W        W36866  22.506   6.185  14.861
65251W        W36867  19.179  11.932   0.722
65252W        W36868  32.336  21.602   0.889
65253W        W36869  15.920  13.783   3.753
65254W        W36870   0.948  44.095  13.811
65255W        W36871   3.850  41.432  13.473
65256W        W36872  22.361  29.705   4.050
65257W        W36873  37.079  34.383  11.537
65258W        W36874  33.555  17.588   1.226
65259W        W36875   6.778  25.939  12.577
65260W        W36876  30.136   9.890   1.069
65261W        W36877  26.152  36.023  11.392
65262W        W36878  29.115  12.878   4.573
65263W        W36879   2.848  43.476  14.507
65264W        W36880  26.944   5.251   0.707
65265W        W36881  36.736  25.686  11.093
65266W        W36882  43.837   7.243   2.239
65267W        W36883  42.962  43.611   3.144
65268W        W36884  16.322  31.496   2.859
65269W        W36885  36.261   4.846  12.661
65270W        W36886   9.716   5.071  14.777
65271W        W36887  35.839  25.009  14.908
65272W        W36888  39.429  42.786   2.647
65273W        W36889   3.760  41.953   0.556
65274W        W36890  33.488  35.534  11.844
65275W        W36891  33.542  39.969   1.936
65276W        W36892  33.054  35.820   2.748
65277W        W36893  41.908   5.463   2.011
65278W        W36894  33.174   4.814   0.203
65279W        W36895  20.473  40.763   2.161
65280W        W36896  35.013  33.640  13.047
65281W        W36897  42.986  35.722   0.710
65282W        W36898   6.337  29.606  13.039
65283W        W36899  16.160  26.727  11.560
65284W        W36900  39.606  35.479  13.398
65285W        W36901  11.406  29.258   0.472
65286W        W36902  26.033   7.707  12.075
65287W        W36903  24.238  24.038   3.612
65288W        W36904  16.131  16.304  12.053
65289W        W36905  37.848  39.403  11.559
65290W        W36906  32.200  44.496   0.409
65291W        W36907  44.935  23.564  12.780
65292W        W36908  42.904  34.272   0.691
65293W        W36909  34.186  11.033  14.771
65294W        W36910   9.838  22.534   1.498
65295W        W36911  33.013  28.604   2.882
65296W        W36912  36.967  34.992   4.344
65297W        W36913  16.379  13.720  12.042
65298W        W36914  16.929  37.129   3.792
65299W        W36915  36.177  29.119   3.230
65300W        W36916  27.566  36.055   3.912
65301W        W36917  32.592  24.924   1.262
65302W        W36918  39.552  20.439  12.726
65303W        W36919  13.156  36.487   1.712
65304W        W36920  28.249  29.410  13.539
65305W        W36921  34.068  42.514   4.238
65306W        W36922  33.648  19.347   3.651
65307W        W36923  16.817  35.330   1.194
65308W        W36924  31.449  21.248  11.100
65309W        W36925  18.852  29.122  14.982
65310W        W36926   3.437  40.533  11.654
65311W        W36927  17.184  12.885   3.710
65312W        W36928  24.024   6.943   4.113
65313W        W36929   9.031  24.537   0.218
65314W        W36930  30.181  19.056   0.705
65315W        W36931   1.587   8.228   0.342
65316W        W36932  17.577   8.457   3.137
65317W        W36933   4.991   8.448  12.583
65318W        W36934  17.613  37.214   0.290
65319W        W36935  11.892  30.617   3.638
65320W        W36936  31.509   8.360  14.919
65321W        W36937  37.032  13.666   2.560
65322W        W36938  13.868  18.671   1.301
65323W        W36939  22.276   6.284   1.480
65324W        W36940  26.869  33.858   4.124
65325W        W36941  22.881  24.371  14.791
65326W        W36942  36.217  19.591  11.206
65327W        W36943  19.144  13.623   3.928
65328W        W36944  35.693  31.654   2.393
65329W        W36945   7.686  42.891  10.727
65330W        W36946   2.726  35.388  12.845
65331W        W36947  25.123  14.105  13.809
65332W        W36948   1.809   8.353  11.704
65333W        W36949  12.237  16.470  13.387
65334W        W36950   9.190  16.129   1.726
65335W        W36951   5.745  25.136   5.035
65336W        W36952  18.702  12.011   4.992
65337W        W36953   4.193  13.724   2.242
65338W        W36954  18.491  35.241   5.062
65339W        W36955  27.234  35.588   4.681
65340W        W36956  32.653   3.910   2.218
65341W        W36957  36.143  25.413   1.391
65342W        W36958  11.827  15.877   3.195
65343W        W36959  22.169  16.003   4.518
65344W        W36960   7.701   2.917  10.433
65345W        W36961   2.365  16.816  12.577
65346W        W36962  31.186  12.573   3.131
65347W        W36963  12.362   7.273  12.538
65348W        W36964  29.571  43.932  10.905
65349W        W36965  13.169  10.654  10.615
65350W        W36966  30.243  26.605  13.435
65351W        W36967  14.860  18.542   2.782
65352W        W36968  21.042  20.424   0.479
65353W        W36969   5.656  33.378  12.997
65354W        W36970   8.362  32.152  14.522
65355W        W36971  23.435  14.627   0.027
65356W        W36972  23.561  17.451   3.546
65357W        W36973   4.185  27.239   3.639
65358W        W36974   7.920  21.142  11.154
65359W        W36975   9.748  42.441   2.422
65360W        W36976  30.526  19.973  14.803
65361W        W36977  40.192  11.158  13.957
65362W        W36978   2.454   8.442   2.316
65363W        W36979   1.077  34.098   1.829
65364W        W36980   6.098  28.416  12.966
65365W        W36981  32.367  35.838  12.287
65366W        W36982   1.400   4.590   2.705
65367W        W36983  14.989   9.357  12.517
65368W        W36984   2.770  25.647   0.793
65369W        W36985  14.538  18.516  11.016
65370W        W36986  19.649   1.949  12.860
65371W        W36987   2.520  21.831   0.087
65372W        W36988   4.890   8.238   4.167
65373W        W36989  33.262  29.738  14.812
65374W        W36990  39.906  40.572   1.478
65375W        W36991   3.863  20.850   0.836
65376W        W36992  38.450  32.783  12.516
65377W        W36993  39.365  39.637  12.899
65378W        W36994  34.934  15.526   0.478
65379W        W36995   5.463  15.295  10.830
65380W        W36996  35.530  32.930  14.994
65381W        W36997  36.417   7.390   1.351
65382W        W36998  35.472  26.505   3.135
65383W        W36999  35.125  42.580   4.906
65384W        W37000  34.012  14.816  12.344
65385W        W37001  27.686  40.352   1.480
65386W        W37002  36.308  23.025   0.349
65387W        W37003  18.748   9.661  10.576
65388W        W37004   0.625  31.877   3.340
65389W        W37005  40.919   9.816  13.078
65390W        W37006  14.585  24.028   4.377
65391W        W37007  40.355  40.881   0.514
65392W        W37008  37.157  27.072  12.622
65393W        W37009  32.542   9.352  10.538
65394W        W37010   9.864  40.926  14.416
65395W        W37011   7.227  12.077  11.612
65396W        W37012  38.728   5.411   4.335
65397W        W37013   6.452   5.220   4.602
65398W        W37014  16.228  38.791   0.879
65399W        W37015  20.099  13.890   1.749
65400W        W37016  13.954  30.587   2.087
65401W        W37017  27.200  24.026   3.711
65402W        W37018   5.322  41.309  12.831
65403W        W37019  22.783  30.381  11.225
65404W        W37020   8.228  32.927   3.692
65405W        W37021  15.911  37.615   4.901
65406W        W37022  16.198  23.953  14.768
65407W        W37023  15.198  25.726   4.407
65408W        W37024  39.408  40.476  13.345
65409W        W37025  28.436  13.223   2.272
65410W        W37026  18.131   3.397   5.137
65411W        W37027  15.166   4.832   5.062
65412W        W37028   5.327   7.704  14.530
65413W        W37029   7.695  39.913   0.480
65414W        W37030  31.453  44.964  13.602
65415W        W37031  29.455  40.599   3.608
65416W        W37032  13.528  16.351   3.768
65417W        W37033   8.777  43.730   2.775
65418W        W37034   9.323   5.282  10.680
65419W        W37035  43.732   2.326  14.802
65420W        W37036  35.603  36.622   3.601
65421W        W37037  11.702  41.934  10.399
65422W        W37038   5.364  36.902  14.550
65423W        W37039  39.904  38.415   3.895
65424W        W37040  27.154  34.566  12.499
65425W        W37041   2.811  33.319  13.473
65426W        W37042  17.352   7.142  12.028
65427W        W37043  30.697  14.887  12.653
65428W        W37044  40.284  29.920  13.458
65429W        W37045   3.822  34.642   4.519
65430W        W37046   6.754  15.299   4.544
65431W        W37047   9.490  36.839  13.429
65432W        W37048  43.466  22.011  13.274
65433W        W37049  19.339   4.592   2.790
65434W        W37050   3.403  13.052  12.004
65435W        W37051  10.866  31.864   9.754
65436W        W37052  15.686  24.428  14.302
65437W        W37053  41.594  10.033   0.917
65438W        W37054  14.391  32.822  12.165
65439W        W37055   6.758  14.655  11.667
65440W        W37056  42.804  20.784  12.614
65441W        W37057  35.942  36.547   4.842
65442W        W37058  43.004  37.602   3.019
65443W        W37059  37.376  13.253  12.096
65444W        W37060   6.839  32.375  14.554
65445W        W37061   6.892  15.410   2.218
65446W        W37062  27.484   1.184  12.519
65447W        W37063   3.123  10.723   2.159
65448W        W37064  32.427  10.292  12.608
65449W        W37065  20.521  29.023   2.013
65450W        W37066  43.427  14.685   1.732
65451W        W37067   6.918  29.338   0.354
65452W        W37068   9.182  38.853   5.529
65453W        W37069   2.740  30.110   3.280
65454W        W37070  28.411  40.002   4.843
65455W        W37071  26.464  22.652  11.994
65456W        W37072  28.264  31.090   4.978
65457W        W37073  39.058  20.768  12.043
65458W        W37074   3.172  36.657  14.336
65459W        W37075   8.708  18.649   1.474
65460W        W37076  15.566   0.965   1.722
65461W        W37077  41.920  36.971  10.513
65462W        W37078  17.673  26.610   2.145
65463W        W37079  43.715  40.853  11.524
65464W        W37080  10.608  14.355   3.887
65465W        W37081   0.018  43.425   2.516
65466W        W37082  14.587  30.070  14.374
65467W        W37083   3.334  11.087   0.771
65468W        W37084  28.876  37.576  11.152
65469W        W37085  21.596  39.495  11.516
65470W        W37086  29.291  29.563   9.749
65471W        W37087  42.115  12.941  10.424
65472W        W37088  27.409  10.712   4.289
65473W        W37089  33.005  15.759  13.375
65474W        W37090  13.159  17.632  11.020
65475W        W37091   5.357  29.116   1.301
65476W        W37092  38.224  37.446   1.706
65477W        W37093  42.477  38.080   1.080
65478W        W37094  37.738  43.421   1.805
65479W        W37095   9.612   0.080  13.180
65480W        W37096   1.420  24.980   1.990
65481W        W37097  15.638  17.259   4.081
65482W        W37098  36.950  13.593  14.743
65483W        W37099  23.737  30.677  12.578
65484W        W37100  10.643  34.397   1.185
65485W        W37101  27.251  17.567   3.779
65486W        W37102  20.730  41.470   1.961
65487W        W37103  42.941  19.288  13.885
65488W        W37104  13.209  10.812   3.849
65489W        W37105  32.438  44.255  12.151
65490W        W37106   3.760  43.185  10.687
65491W        W37107  26.576   8.910  13.698
65492W        W37108  28.742  28.432   1.868
65493W        W37109  42.244   2.943   4.459
65494W        W37110  29.058   6.875  14.841
65495W        W37111  35.201  32.671   1.286
65496W        W37112  41.379  27.753   1.781
65497W        W37113  24.790   9.288   2.191
65498W        W37114  11.111  27.380  12.127
65499W        W37115  30.982  28.127  12.456
65500W        W37116  41.903  18.754   0.002
65501W        W37117   4.751  20.825   9.804
65502W        W37118  36.455  18.050  14.974
65503W        W37119   4.637  40.286  10.764
65504W        W37120   3.191  11.956   0.324
65505W        W37121  10.100  26.074  14.998
65506W        W37122  21.972  36.845  13.804
65507W        W37123  40.322  25.967   4.773
65508W        W37124  17.837   3.185  10.619
65509W        W37125  21.663  16.359   3.214
65510W        W37126  24.084  16.194   4.740
65511W        W37127  42.027  31.421  10.508
65512W        W37128   8.551  27.140  13.846
65513W        W37129  35.988  20.700  13.839
65514W        W37130  33.922   1.978   4.692
65515W        W37131  16.814  20.200  13.060
65516W        W37132  27.841   0.747   4.964
65517W        W37133  23.658  37.087  10.715
65518W        W37134   4.904   4.318  12.357
65519W        W37135  19.539   3.438   3.668
65520W        W37136   0.564  43.380   3.848
65521W        W37137   8.142  41.882  11.889
65522W        W37138   3.521  23.497   0.368
65523W        W37139  35.026  21.440   4.746
65524W        W37140  30.010  18.196   3.206
65525W        W37141  16.333  14.025  11.223
65526W        W37142   8.765  32.923  11.617
65527W        W37143  27.445  44.919  14.353
65528W        W37144  39.181  35.170  14.051
65529W        W37145  37.285  18.682   2.183
65530W        W37146  43.061  34.870  12.975
65531W        W37147  37.527   7.693   1.318
65532W        W37148  15.891   6.813   1.272
65533W        W37149  21.698   6.892   2.796
65534W        W37150  40.531  13.107  10.637
65535W        W37151   5.364   5.241   0.500
65536W        W37152   8.378  24.817   4.898
65537W        W37153  44.017  31.038   3.375
65538W        W37154  37.815  31.010   0.058
65539W        W37155  37.146  21.474   0.870
65540W        W37156  18.578  22.577  13.947
65541W        W37157  12.398  26.123   4.661
65542W        W37158  29.969  22.088  11.671
65543W        W37159   8.851  24.595   4.075
65544W        W37160   6.249   9.114  10.155
65545W        W37161  27.932  38.523  12.856
65546W        W37162  36.603  28.193  10.642
65547W        W37163  13.230  21.199   2.675
65548W        W37164  25.141  38.414   1.304
65549W        W37165   1.486  37.910   0.224
65550W        W37166  33.235  28.156   1.795
65551W        W37167  12.366   9.306  12.960
65552W        W37168  22.489  36.598   0.996
65553W        W37169  13.108  32.359   2.700
65554W        W37170   5.728  38.377   1.647
65555W        W37171  29.377  17.642   0.406
65556W        W37172  22.547  32.278  10.283
65557W        W37173  35.569  22.113   4.740
65558W        W37174  21.355  24.656  14.849
65559W        W37175   4.940  22.936   2.230
65560W        W37176  30.396  43.027  13.316
65561W        W37177  35.663  19.599   0.951
65562W        W37178  32.123  12.531   0.495
65563W        W37179  32.685  10.246   2.152
65564W        W37180  17.143  30.105   4.550
65565W        W37181  28.639   7.856   3.702
65566W        W37182  39.716  38.145   4.591
65567W        W37183   1.166  17.074  11.116
65568W        W37184   1.257   7.475   1.235
65569W        W37185  25.132   3.943   3.346
65570W        W37186   2.473  22.973  14.968
65571W        W37187  12.895  12.775  14.495
65572W        W37188  24.781  18.360  13.036
65573W        W37189  36.578  38.969  11.534
65574W        W37190  40.798  25.166  11.571
65575W        W37191   0.795   4.802  12.477
65576W        W37192  17.496  32.509  13.569
65577W        W37193  17.323  27.797   1.222
65578W        W37194   1.476  43.267   0.452
65579W        W37195  20.031  10.365   4.277
65580W        W37196  31.052  38.121  13.926
65581W        W37197  11.156  15.198  12.855
65582W        W37198   5.500   0.366   4.268
65583W        W37199   3.927  13.848   2.741
65584W        W37200  37.774  26.723   3.367
65585W        W37201  36.203  22.667   4.126
65586W        W37202   6.478  10.874  13.896
65587W        W37203  26.035   7.175  12.029
65588W        W37204   5.971  38.965   3.892
65589W        W37205  32.007  16.866  10.696
65590W        W37206  29.961  30.989  14.463
65591W        W37207  42.580  11.220   1.095
65592W        W37208  23.984  20.669  14.891
65593W        W37209  35.600  31.023   1.763
65594W        W37210  36.571  27.995   3.697
65595W        W37211  42.045   8.404   2.813
65596W        W37212  17.241   3.253   0.346
65597W        W37213  36.480  27.229   1.443
65598W        W37214  24.779  41.991  12.151
65599W        W37215  11.780  19.486  13.004
65600W        W37216  25.602  44.832  13.673
65601W        W37217  37.899  44.488  10.278
65602W        W37218  19.199  44.667  13.057
65603W        W37219  15.346   7.351  11.579
65604W        W37220  23.008   5.858   2.129
65605W        W37221  24.614  39.627  12.905
65606W        W37222  20.714  16.217  12.890
65607W        W37223  41.325  43.931   3.214
65608W        W37224  28.668  19.649   2.307
65609W        W37225  29.682  25.658   4.219
65610W        W37226   9.780  13.137  12.441
65611W        W37227   6.470  30.109  14.760
65612W        W37228   0.525   4.218   2.205
65613W        W37229  33.642  10.030  11.137
65614W        W37230  16.783  29.032   1.926
65615W        W37231  25.576   8.932   1.192
65616W        W37232  29.013  21.495   4.617
65617W        W37233  30.952  36.369  11.049
65618W        W37234  38.688  24.692  13.447
65619W        W37235  27.599   6.902  13.445
65620W        W37236  42.363   7.427  11.111
65621W        W37237  17.185  14.225   4.635
65622W        W37238  43.198  38.475   3.781
65623W        W37239  34.409   5.488   3.669
65624W        W37240  29.834  23.999  14.377
65625W        W37241  12.773  36.258   0.247
65626W        W37242  19.583  36.506   2.312
65627W        W37243  33.896   1.479   9.922
65628W        W37244   6.697   3.275  14.854
65629W        W37245  16.081  42.941  14.912
65630W        W37246  17.230  39.977   4.079
65631W        W37247  32.741  16.713  14.799
65632W        W37248   4.432  13.992   2.613
65633W        W37249  41.894   4.481   1.025
65634W        W37250  14.545  21.626  11.987
65635W        W37251  16.343  26.510   1.903
65636W        W37252   6.145  34.180   0.867
65637W        W37253  34.072  24.140  14.890
65638W        W37254  13.633  35.441   1.627
65639W        W37255  16.192  34.124  12.986
65640W        W37256  24.155  32.971  10.676
65641W        W37257  39.777  31.862   2.884
65642W        W37258  32.862   4.398   0.030
65643W        W37259  44.453  23.238   1.431
65644W        W37260   4.261  41.450   1.333
65645W        W37261  39.971   1.390   1.053
65646W        W37262   4.733  41.765  14.391
65647W        W37263  28.729  19.411   4.547
65648W        W37264  19.484   2.786   3.298
65649W        W37265  14.722  18.030  14.054
65650W        W37266  14.884  26.946  11.813
65651W        W37267  31.957  34.078  11.771
65652W        W37268  32.682  30.436  14.912
65653W        W37269  29.267  27.549  11.457
65654W        W37270  40.335  23.850  11.088
65655W        W37271  10.437  42.959   2.222
65656W        W37272  43.536  15.312   2.289
65657W        W37273   4.933  15.738   1.241
65658W        W37274   0.795  28.248   2.503
65659W        W37275  40.386  30.088  14.403
65660W        W37276  44.536  38.725  13.073
65661W        W37277  18.733  19.645   0.501
65662W        W37278  10.989  10.675  13.046
65663W        W37279  44.135  10.713   3.260
65664W        W37280   4.768  39.239  14.811
65665W        W37281  38.742  33.213   2.384
65666W        W37282  25.050  33.914   1.237
65667W        W37283  24.789  25.042   2.612
65668W        W37284  25.859   5.488  13.137
65669W        W37285   8.190  36.357  14.325
65670W        W37286  28.637   5.720   3.824
65671W        W37287  37.548  35.503  12.817
65672W        W37288  44.492  19.207   3.911
65673W        W37289  13.701   9.684   4.336
65674W        W37290   4.407  42.026  11.494
65675W        W37291  24.071   1.876  11.257
65676W        W37292  14.487   2.910  10.232
65677W        W37293  18.266  39.384  13.032
65678W        W37294  29.887  35.273   4.139
65679W        W37295   8.607   6.298  13.043
65680W        W37296  25.717  22.719   2.453
65681W        W37297  17.804  42.821   3.763
65682W        W37298   6.308  43.538   2.776
65683W        W37299  34.146  25.122   1.665
65684W        W37300  13.244   9.405   2.757
65685W        W37301  39.441  17.138   2.653
65686W        W37302  29.647  23.039  12.313
65687W        W37303  36.026  22.767   1.399
65688W        W37304  28.950  27.339  11.867
65689W        W37305  32.161   8.718   0.398
65690W        W37306  41.458  12.654   2.307
65691W        W37307  28.710  30.217   1.785
65692W        W37308  25.104  15.290   0.750
65693W        W37309  35.570  12.203   3.241
65694W        W37310  31.907  26.714  13.953
65695W        W37311   8.128  35.814   1.717
65696W        W37312  43.275  27.475   3.626
65697W        W37313  17.058  32.382   2.197
65698W        W37314  23.911   3.736   3.220
65699W        W37315  16.501  28.377  13.636
65700W        W37316   9.612  22.506   3.210
65701W        W37317  32.447  41.050  10.654
65702W        W37318   6.619   5.988  14.323
65703W        W37319  29.990  32.972   0.759
65704W        W37320  25.543  41.205  13.486
65705W        W37321  43.207  31.189  12.415
65706W        W37322   8.607  11.855   0.937
65707W        W37323   5.269  31.369  11.059
65708W        W37324  16.992  33.620   2.713
65709W        W37325  32.892  25.174  14.092
65710W        W37326   4.774  41.110  12.040
65711W        W37327  11.782  35.494   2.908
65712W        W37328  21.838  18.065  13.552
65713W        W37329  37.556  35.865   0.985
65714W        W37330  39.357  15.567  11.056
65715W        W37331   9.507   1.984   1.863
65716W        W37332   0.733  41.996   2.003
65717W        W37333  29.950  13.067   4.150
65718W        W37334  35.021  22.372  11.671
65719W        W37335  40.871  32.914   3.339
65720W        W37336  33.517  40.396   1.645
65721W        W37337  22.586  23.747   2.420
65722W        W37338  13.796  43.760   3.319
65723W        W37339  17.808  32.929   4.120
65724W        W37340  13.031   1.356  12.420
65725W        W37341  41.916  13.240   4.087
65726W        W37342  36.092  44.000   1.710
65727W        W37343  29.450   5.408   1.392
65728W        W37344  31.310  40.214   1.709
65729W        W37345  25.647  13.257   1.432
65730W        W37346   0.269  25.297  14.853
65731W        W37347  43.656  41.363  11.480
65732W        W37348   7.473   8.217   4.581
65733W        W37349  25.503  25.825  13.924
65734W        W37350   7.845  37.791  13.549
65735W        W37351  22.160  11.609   3.250
65736W        W37352  42.469  17.069   3.134
65737W        W37353  41.185  21.041   1.228
65738W        W37354  35.912   1.334   2.111
65739W        W37355  14.127  18.623  14.377
65740W        W37356  35.550   5.185   2.252
65741W        W37357  28.981  28.946  13.157
65742W        W37358  40.048   4.412   2.533
65743W        W37359  38.050  17.816  13.446
65744W        W37360  18.052   1.339  14.734
65745W        W37361  40.703  24.597  13.541
65746W        W37362  29.502  31.173   3.611
65747W        W37363   6.437  32.712   1.059
65748W        W37364   0.385   8.936   2.735
65749W        W37365  28.999  34.419  11.575
65750W        W37366  34.990  44.798  11.843
65751W        W37367  22.676  30.899   2.343
65752W        W37368  36.021   8.444  14.017
65753W        W37369  28.959   0.964  12.044
65754W        W37370  20.407  40.781  12.949
65755W        W37371  41.441  41.970   0.349
65756W        W37372  26.948  10.383   2.687
65757W        W37373  17.149   6.701  13.016
65758W        W37374  20.083   4.387   0.808
65759W        W37375  10.397  24.213   0.848
65760W        W37376  21.589  31.533   2.781
65761W        W37377   7.060  17.264   3.614
65762W        W37378  27.851  16.476  14.744
65763W        W37379  23.224  42.479  13.788
65764W        W37380  12.316  25.977   3.185
65765W        W37381   2.356   6.858   0.316
65766W        W37382  17.547  30.899  12.617
65767W        W37383  27.564  41.343  14.997
65768W        W37384  12.632   7.927  14.277
65769W        W37385  42.409  11.759  14.857
65770W        W37386  39.045  32.396  13.883
65771W        W37387  13.340   7.833  12.973
65772W        W37388   7.227  36.953   3.740
65773W        W37389  42.051  13.122   3.048
65774W        W37390  33.519  38.392  14.202
65775W        W37391  42.073  16.848  13.379
65776W        W37392  42.030  24.659   2.532
65777W        W37393  35.006  28.166  13.340
65778W        W37394  32.993  24.595  14.822
65779W        W37395  24.403  19.472   1.642
65780W        W37396  13.100  26.380   0.825
65781W        W37397  36.101  18.180   0.450
65782W        W37398  18.456  12.399   2.288
65783W        W37399  38.332  32.092  10.636
65784W        W37400   0.373  21.432  14.065
65785W        W37401  39.221  22.725  12.700
65786W        W37402  21.942   4.903  12.869
65787W        W37403  16.329  20.134   0.035
65788W        W37404   3.300  29.275  10.078
65789W        W37405  33.803  27.159  14.843
65790W        W37406  34.445  39.381   4.507
65791W        W37407  41.010  13.998  13.791
65792W        W37408  32.540  24.844  14.880
65793W        W37409  35.123  34.880  11.545
65794W        W37410  17.560  28.928   2.788
65795W        W37411  43.406  21.608  12.928
65796W        W37412   0.471  26.663   1.806
65797W        W37413  37.629  40.223  11.194
65798W        W37414  39.276  43.953  13.791
65799W        W37415  23.234  11.764   4.858
65800W        W37416  20.678  37.468  14.216
65801W        W37417   2.782  20.160   0.180
65802W        W37418  34.018  15.039  11.268
65803W        W37419  26.237  42.214  12.747
65804W        W37420   4.257  37.178  12.969
65805W        W37421  43.578  31.460  11.355
65806W        W37422  37.065  14.742  10.754
65807W        W37423  25.598   2.592  11.985
65808W        W37424  43.249  18.618  11.514
65809W        W37425  29.524  13.717   3.067
65810W        W37426  26.388   2.286  10.588
65811W        W37427  19.239  15.526  12.560
65812W        W37428  39.349  36.707  12.434
65813W        W37429  40.289  43.810   3.386
65814W        W37430   7.098  16.279  13.868
65815W        W37431  33.406  40.115  14.470
65816W        W37432   5.617   6.869   3.086
65817W        W37433   2.844  14.730  10.673
65818W        W37434  29.028   0.300  11.575
65819W        W37435  10.505  28.095   0.237
65820W        W37436  19.775  40.762  11.173
65821W        W37437  20.278   8.724  13.489
65822W        W37438  37.991  40.344   0.900
65823W        W37439  14.524   9.711  13.937
65824W        W37440  10.072  26.633   2.118
65825W        W37441  13.418  30.131   4.889
65826W        W37442   9.584  13.216  11.260
65827W        W37443  32.454  33.666   1.003
65828W        W37444  14.531  18.180  11.882
65829W        W37445  14.116  43.026   4.298
65830W        W37446   7.913  22.942   2.747
65831W        W37447  37.405  29.399  12.094
65832W        W37448  36.518  39.799  13.990
65833W        W37449  31.067  39.866  13.338
65834W        W37450  26.072   4.754   1.348
65835W        W37451  34.021  38.278  14.893
65836W        W37452  29.071  34.472   2.796
65837W        W37453   8.346  33.059  11.873
65838W        W37454  29.965  41.768  13.333
65839W        W37455  36.389  22.171   2.641
65840W        W37456   8.254  44.998  13.748
65841W        W37457  26.134  20.299  13.255
65842W        W37458   1.250  38.373  10.669
65843W        W37459  16.144  32.586   0.418
65844W        W37460  35.889  30.559   3.510
65845W        W37461  17.838   0.463  11.074
65846W        W37462  29.237   3.303   3.948
65847W        W37463  33.400  44.876   2.172
65848W        W37464  16.720  36.837  11.385
65849W        W37465  42.742  17.328   0.881
65850W        W37466  12.403  42.590  14.406
65851W        W37467  43.377  34.452   4.086
65852W        W37468  17.306  21.634  10.057
65853W        W37469  44.151  41.250  14.053
65854W        W37470  21.283  40.464   2.258
65855W        W37471  22.167  20.151   4.290
65856W        W37472  10.789  31.114   4.091
65857W        W37473  32.138  19.047   2.341
65858W        W37474  15.096   9.072  13.511
65859W        W37475   0.694  40.157  12.528
65860W        W37476  34.945  14.577   1.770
65861W        W37477  40.290   6.221  11.542
65862W        W37478  29.101  27.564   2.876
65863W        W37479  30.660  15.072  14.406
65864W        W37480  27.971  42.452   2.255
65865W        W37481  41.708   6.393   0.904
65866W        W37482  27.546  42.853  11.238
65867W        W37483   1.456  10.654  13.477
65868W        W37484  41.413  17.459  12.764
65869W        W37485  30.378  28.969  12.447
65870W        W37486  24.671  18.625  14.557
65871W        W37487   5.740  28.454  14.541
65872W        W37488  25.686  21.681  12.211
65873W        W37489  10.067  12.739  14.358
65874W        W37490  27.704  40.539  11.402
65875W        W37491  24.174  15.607   3.677
65876W        W37492  37.583  26.162   2.586
65877W        W37493  43.568  38.828   2.181
65878W        W37494  19.332  17.728   2.900
65879W        W37495  15.987  26.896  12.449
65880W        W37496  21.423  34.575  13.210
65881W        W37497  44.782  16.643   4.663
65882W        W37498  17.733   9.636  14.986
65883W        W37499  32.598  44.755   3.377
65884W        W37500  13.116  34.432  10.494
65885W        W37501  39.460   3.049   2.441
65886W        W37502   5.325  24.980   0.676
65887W        W37503  21.783  17.347  11.213
65888W        W37504  40.748  12.837   1.272
65889W        W37505  44.359  26.764   2.550
65890W        W37506  15.683  34.378  12.881
65891W        W37507  30.068  21.585   0.267
65892W        W37508  36.655  26.627  11.884
65893W        W37509  13.071  15.771   1.018
65894W        W37510  32.959  37.033  11.599
65895W        W37511  17.262   5.916   4.791
65896W        W37512  25.814  27.467  12.700
65897W        W37513  44.674  42.497   3.680
65898W        W37514   6.753  12.356  10.643
65899W        W37515   4.288  22.073  14.543
65900W        W37516  11.724  20.684  12.031
65901W        W37517  24.905  36.671  10.698
65902W        W37518   0.066  21.546   2.262
65903W        W37519  15.215  38.403   4.732
65904W        W37520  41.400  32.623   4.596
65905W        W37521   8.866  37.868   0.354
65906W        W37522  12.823  38.687  13.974
65907W        W37523  40.406  25.193   1.672
65908W        W37524  18.121   2.510   4.655
65909W        W37525  41.529   2.337   0.900
65910W        W37526   7.452  25.160   2.835
65911W        W37527  19.872   9.161  13.855
65912W        W37528  17.550  39.882  14.351
65913W        W37529  11.387  41.787   0.297
65914W        W37530  25.645  42.968  10.177
65915W        W37531   8.877  27.005   1.705
65916W        W37532  33.525   1.512   3.204
65917W        W37533  35.069  10.235  14.385
65918W        W37534  32.570  19.725   3.055
65919W        W37535   6.394  35.632   0.278
65920W        W37536  18.565  26.568   3.767
65921W        W37537  29.654  25.738  13.522
65922W        W37538  43.323  11.573  14.309
65923W        W37539  10.315  40.445   2.718
65924W        W37540   1.502  42.880  10.975
65925W        W37541  11.978  44.774  10.623
65926W        W37542  38.052  42.867   0.172
65927W        W37543  39.384  24.207  14.762
65928W        W37544   8.814  32.050  11.983
65929W        W37545  22.715   8.753   0.212
65930W        W37546  29.052  25.588  14.334
65931W        W37547  16.194  25.619   4.430
65932W        W37548  18.741   8.359  13.789
65933W        W37549  27.728   8.244   0.800
65934W        W37550  35.044  24.887   1.463
65935W        W37551  28.618  13.811   4.532
65936W        W37552   7.232  20.575   4.128
65937W        W37553  33.969  44.521  11.582
65938W        W37554   8.696  21.598  11.562
65939W        W37555  24.668  19.222  12.505
65940W        W37556  42.044  33.413   0.271
65941W        W37557   4.061  19.106   2.088
65942W        W37558  14.106  20.595  14.222
65943W        W37559  30.646  24.327  14.191
65944W        W37560  37.978  24.966   4.218
65945W        W37561   1.710  34.615   1.347
65946W        W37562  18.759   5.632  13.011
65947W        W37563  10.557  31.158  10.572
65948W        W37564   2.620   9.071   5.021
65949W        W37565  23.992  32.688  14.885
65950W        W37566   0.718  31.002  11.390
65951W        W37567  15.230  38.819   3.205
65952W        W37568  21.984   7.831  11.168
65953W        W37569  17.817  40.454  14.432
65954W        W37570   6.315   0.675   2.261
65955W        W37571   6.257  44.730   3.332
65956W        W37572  42.573  34.761  12.886
65957W        W37573  14.595  19.288   1.181
65958W        W37574   4.263  10.267   1.588
65959W        W37575   0.077   2.859  11.476
65960W        W37576   1.399  22.256  14.077
65961W        W37577  39.762  16.458   0.011
65962W        W37578   0.179  30.479  12.346
65963W        W37579  30.268  13.871  11.513
65964W        W37580   7.117  20.065  11.498
65965W        W37581  44.276  26.181  10.540
65966W        W37582  22.917  12.608   0.064
65967W        W37583  42.504  43.371   3.129
65968W        W37584  28.729  30.600   3.337
65969W        W37585   8.304  23.123  10.471
65970W        W37586  20.517  12.846   0.096
65971W        W37587  27.984   2.359   2.395
65972W        W37588  17.200   3.820   3.791
65973W        W37589  28.413   7.840  14.403
65974W        W37590   2.300   2.759  11.214
65975W        W37591   9.149  34.631   1.429
65976W        W37592  10.365   6.334   3.644
65977W        W37593  40.346   4.410  13.743
65978W        W37594  12.108  22.322  13.431
65979W        W37595  36.560  18.883  12.452
65980W        W37596  19.719  15.882   4.178
65981W        W37597  42.996  27.512   4.593
65982W        W37598  13.703   2.214   4.912
65983W        W37599  10.077  13.649   4.131
65984W        W37600  17.348   2.678   2.869
65985W        W37601  22.582  32.652   3.850
65986W        W37602  44.098  39.071  11.840
65987W        W37603  17.865  44.287   0.615
65988W        W37604  27.561  18.293  13.804
65989W        W37605  10.183  38.977  13.506
65990W        W37606  15.400  23.676  14.784
65991W        W37607  24.887  25.102  14.372
65992W        W37608  26.592   8.232   4.682
65993W        W37609  31.201  27.268   1.471
65994W        W37610  41.291  37.646  10.608
65995W        W37611  16.533  31.459  14.941
65996W        W37612  35.003  35.369  10.663
65997W        W37613  27.074   0.097  11.176
65998W        W37614  24.963  39.790   2.703
65999W        W37615  30.440  40.088  11.176
66000W        W37616  22.776  20.261   0.664
66001W        W37617  44.301   0.844   1.403
66002W        W37618   7.812  18.713  14.974
66003W        W37619  22.711  12.316  10.547
66004W        W37620  34.639  13.730   1.410
66005W        W37621  28.207  19.544  11.761
66006W        W37622  42.811  23.552  14.261
66007W        W37623   3.716  29.001  11.991
66008W        W37624  18.059  34.514  11.749
66009W        W37625  31.339   6.728  13.349
66010W        W37626  28.069  44.121   1.461
66011W        W37627  43.072  29.759  11.109
66012W        W37628  36.534  40.305   4.184
66013W        W37629  13.808  26.639  13.580
66014W        W37630  22.081   9.337   0.594
66015W        W37631  10.165  12.820  12.418
66016W        W37632  43.302  25.026   0.383
66017W        W37633   8.054  36.960  12.942
66018W        W37634  21.816  12.884   4.142
66019W        W37635  13.875  10.193   1.706
66020W        W37636   7.241   7.328  13.937
66021W        W37637  27.115  17.296  13.556
66022W        W37638  42.022  42.814   1.211
66023W        W37639  37.980  32.502   0.950
66024W        W37640   8.936  29.822   2.704
66025W        W37641  17.159  36.439   0.511
66026W        W37642  19.071  26.285  11.538
66027W        W37643  31.744  43.659  12.472
66028W        W37644  43.444  31.481   4.326
66029W        W37645  40.108  18.592  11.721
66030W        W37646  43.349  37.955  14.113
66031W        W37647  24.003  25.734   1.637
66032W        W37648  29.127  19.567   0.052
66033W        W37649  14.056  26.628   3.755
66034W        W37650  39.526  28.853   0.353
66035W        W37651   7.704  16.591   4.674
66036W        W37652  37.624  22.552  12.986
66037W        W37653  19.588  29.625   4.529
66038W        W37654  27.924   2.932   1.178
66039W        W37655  41.387   7.754   4.748
66040W        W37656   0.002  44.826   2.313
66041W        W37657  18.836   3.163  13.900
66042W        W37658  18.814  34.372  13.939
66043W        W37659  42.586   3.985  11.626
66044W        W37660  27.145  23.827   4.576
66045W        W37661  15.581  38.566   1.406
66046W        W37662  23.032  14.045  10.469
66047W        W37663  12.520  43.815  14.852
66048W        W37664  29.123   4.671  13.575
66049W        W37665   7.632  31.638  12.540
66050W        W37666  12.798   4.184  14.423
66051W        W37667   1.936  12.842  13.747
66052W        W37668  20.353  10.659   4.584
66053W        W37669  10.387  27.434   4.816
66054W        W37670  25.545  32.172   1.780
66055W        W37671  44.978   3.687  13.511
66056W        W37672  31.020  35.254  12.415
66057W        W37673  13.410  43.881   2.551
66058W        W37674  29.508   8.105  14.865
66059W        W37675  31.874  40.493   1.359
66060W        W37676  20.465   6.528   2.583
66061W        W37677  38.922  20.446  11.117
66062W        W37678   5.220  18.140   2.292
66063W        W37679  42.268  31.590   0.318
66064W        W37680  31.200  27.464   5.090
66065W        W37681  29.707  24.923  13.000
66066W        W37682  40.403  15.781  11.126
66067W        W37683   8.737  29.093  10.610
66068W        W37684  21.348   3.654  13.017
66069W        W37685   2.087   2.644  14.923
66070W        W37686  37.502  40.325  13.226
66071W        W37687  22.421  27.587   3.236
66072W        W37688  15.133  32.185  10.244
66073W        W37689  13.791  19.503  10.726
66074W        W37690   4.897  18.460   4.603
66075W        W37691  32.008  18.942  14.781
66076W        W37692   5.371  38.010   1.885
66077W        W37693  18.819  26.608   4.210
66078W        W37694   6.125   6.979   3.102
66079W        W37695  41.735  25.467  11.617
66080W        W37696  15.148   6.429   2.729
66081W        W37697   2.221  37.407   4.431
66082W        W37698  14.317   5.133  11.065
66083W        W37699  43.411  26.392  10.196
66084W        W37700  20.803   7.606  11.615
66085W        W37701   7.683  12.719   4.598
66086W        W37702  26.634   2.234  12.653
66087W        W37703   1.774  11.066   2.609
66088W        W37704  33.337   3.584   4.910
66089W        W37705   4.958  35.462   2.327
66090W        W37706  30.486   9.046  11.151
66091W        W37707  13.613  22.282  13.943
66092W        W37708  23.097  19.103  10.420
66093W        W37709   8.891  32.950   0.823
66094W        W37710  24.881  36.184  10.539
66095W        W37711  42.760  41.464   2.234
66096W        W37712   6.400  19.517  10.119
66097W        W37713  32.459  20.228   4.328
66098W        W37714  39.782  36.678   4.477
66099W        W37715  13.081  39.847  10.666
66100W        W37716  32.553  24.326  14.965
66101W        W37717  30.514  18.170   4.654
66102W        W37718   8.208  18.194   3.217
66103W        W37719  19.774   5.965  14.535
66104W        W37720  43.465  37.893   1.437
66105W        W37721   4.901  12.132  14.878
66106W        W37722  31.233  15.200  13.431
66107W        W37723   6.344  33.457  14.401
66108W        W37724  18.256  16.186  10.585
66109W        W37725  13.325   5.229  14.835
66110W        W37726  29.203  10.595  11.247
66111W        W37727  15.528  39.864   1.825
66112W        W37728  10.657  25.459   4.685
66113W        W37729  24.159  33.604   1.374
66114W        W37730  29.215  27.884   3.860
66115W        W37731  28.584  17.395  12.073
66116W        W37732  11.214  31.465  13.105
66117W        W37733  12.557  23.483  14.921
66118W        W37734  35.547   2.025  10.809
66119W        W37735   1.736  12.000   3.221
66120W        W37736   6.364   2.885  12.514
66121W        W37737  33.492  20.114  11.942
66122W        W37738   2.771  10.339   4.932
66123W        W37739  37.153   5.073  13.930
66124W        W37740   2.892   8.336   3.441
66125W        W37741  28.814  28.206   3.688
66126W        W37742  34.790  34.199  12.905
66127W        W37743   9.400   8.897  12.449
66128W        W37744  28.535  17.156  11.544
66129W        W37745  20.256  30.409  10.774
66130W        W37746   7.095   2.202  12.288
66131W        W37747   0.487  34.853   2.951
66132W        W37748  13.470  11.226   3.117
66133W        W37749  28.721  39.879  13.901
66134W        W37750  11.994  39.296  14.973
66135W        W37751  33.341  10.357   4.595
66136W        W37752  21.739  17.276   3.354
66137W        W37753  23.008  33.989  12.353
66138W        W37754  26.114  17.209   3.234
66139W        W37755  13.071  23.975  14.362
66140W        W37756  30.015  27.793  12.357
66141W        W37757   1.280  13.842  14.337
66142W        W37758   1.345  29.014  11.860
66143W        W37759  28.169  38.353  10.392
66144W        W37760  25.864  34.556  14.010
66145W        W37761   3.896   9.214  12.887
66146W        W37762  25.048  20.683  10.490
66147W        W37763  27.110  20.272  11.218
66148W        W37764  24.992  39.117   1.690
66149W        W37765  10.299  41.757  14.370
66150W        W37766  27.716   0.732  12.639
66151W        W37767  19.769  17.361   4.115
66152W        W37768   4.260  39.273  14.983
66153W        W37769  37.025  14.265   0.771
66154W        W37770  16.387  11.321   2.919
66155W        W37771  43.876  20.229   4.727
66156W        W37772   0.985  17.063   3.260
66157W        W37773  12.210  33.461  10.836
66158W        W37774  26.004   4.851   4.606
66159W        W37775  29.734  31.390  11.007
66160W        W37776  25.590  33.007   1.401
66161W        W37777  24.262  27.381  12.416
66162W        W37778  44.320   1.294  14.927
66163W        W37779  14.165  27.177   4.619
66164W        W37780  43.022  27.978  10.991
66165W        W37781  31.981  38.296  12.193
66166W        W37782  37.434  33.052   0.341
66167W        W37783  42.204  21.757  14.289
66168W        W37784  16.156  33.352   1.668
66169W        W37785  10.118   7.639   0.506
66170W        W37786  11.960  25.619  11.958
66171W        W37787  18.142  10.400  12.101
66172W        W37788  14.937  15.181  11.528
66173W        W37789  11.508   8.194   4.160
66174W        W37790  15.036   4.875   2.246
66175W        W37791  17.604   3.515   2.654
66176W        W37792   5.373  15.844   4.753
66177W        W37793  31.145  15.797  14.743
66178W        W37794  13.812  38.331   1.300
66179W        W37795  23.170   0.857   1.106
66180W        W37796  18.319   1.848  10.740
66181W        W37797  37.770  15.210  10.570
66182W        W37798  17.304  22.575  10.633
66183W        W37799  29.338  12.817  14.218
66184W        W37800  42.799   4.287   2.552
66185W        W37801  38.829  30.583   5.348
66186W        W37802  11.813  16.743  11.124
66187W        W37803  41.122  36.696   2.917
66188W        W37804  27.044   5.404  14.329
66189W        W37805  34.658  14.734   0.814
66190W        W37806  20.960  24.461   0.152
66191W        W37807  43.834  30.636  12.994
66192W        W37808  39.453  38.523   4.833
66193W        W37809  11.383  36.337  12.471
66194W        W37810  10.110  10.363   0.482
66195W        W37811   8.627  21.239   4.160
66196W        W37812   5.947  20.586   0.009
66197W        W37813  20.767  30.972   4.280
66198W        W37814  44.713  17.581   3.343
66199W        W37815  23.143  21.415   2.444
66200W        W37816  23.403  37.005  12.516
66201W        W37817  23.133  37.564  10.228
66202W        W37818  41.855  23.967   1.195
66203W        W37819  30.334   2.492   0.535
66204W        W37820  17.142  24.086  13.839
66205W        W37821  40.867  40.596  10.733
66206W        W37822  20.525   3.637   1.314
66207W        W37823  34.649  31.964   1.437
66208W        W37824  12.859  28.109   2.170
66209W        W37825  16.648  20.938   3.350
66210W        W37826  14.643  44.944   0.419
66211W        W37827  10.298  14.336   5.088
66212W        W37828   1.484  33.556  13.008
66213W        W37829   0.315  31.453   1.222
66214W        W37830   9.112  33.950   0.768
66215W        W37831  25.709  11.763   3.539
66216W        W37832   9.350  15.092  14.569
66217W        W37833   4.652   7.252  13.039
66218W        W37834  38.901  36.612   4.391
66219W        W37835  15.088   1.928   1.210
66220W        W37836  34.646   3.344   0.405
66221W        W37837  29.909   0.342  12.577
66222W        W37838   9.074  20.822  12.581
66223W        W37839  18.535   0.837   0.899
66224W        W37840  14.231  38.968   2.347
66225W        W37841  18.690  11.408  12.511
66226W        W37842  25.543  36.412   4.349
66227W        W37843   5.172  12.905  12.041
66228W        W37844  11.221   3.647  10.759
66229W        W37845   5.987  15.021  12.985
66230W        W37846   5.576  21.790  11.806
66231W        W37847  41.819   7.340  13.631
66232W        W37848  37.955   3.299  14.792
66233W        W37849   2.228  44.060   0.965
66234W        W37850  10.287   5.661   2.364
66235W        W37851   9.031  10.307   1.275
66236W        W37852  26.506  43.783  13.330
66237W        W37853   0.389   7.050   3.164
66238W        W37854  35.851  38.007   3.993
66239W        W37855  23.153  23.212  10.700
66240W        W37856   4.778  14.777   0.972
66241W        W37857   1.877  37.055   0.602
66242W        W37858  28.697  43.368   2.910
66243W        W37859   4.245  40.585  14.433
66244W        W37860   1.666  36.956  11.605
66245W        W37861  43.107  11.738  11.483
66246W        W37862   1.310  10.376   3.943
66247W        W37863   2.966  28.615  11.635
66248W        W37864   0.550  20.376   4.038
66249W        W37865   4.243   0.456   4.654
66250W        W37866  10.148  22.434  14.751
66251W        W37867  31.175  24.729  12.003
66252W        W37868   1.597   6.837  11.706
66253W        W37869  44.123  12.393  14.783
66254W        W37870  36.418  18.657   3.819
66255W        W37871  40.021   5.763  11.535
66256W        W37872  16.644  32.560  12.935
66257W        W37873  28.845  11.608   3.641
66258W        W37874  11.784  17.076  13.970
66259W        W37875  20.123  14.132   4.229
66260W        W37876  29.854   1.533   0.290
66261W        W37877   0.144  21.836  13.798
66262W        W37878  38.735  12.292  11.902
66263W        W37879   1.892  27.027  10.354
66264W        W37880  22.869   4.107  12.027
66265W        W37881  16.308   9.975  11.780
66266W        W37882   9.069  27.465  11.123
66267W        W37883   1.135  33.594  11.545
66268W        W37884  11.535  21.678   2.789
66269W        W37885  43.467  35.520  10.223
66270W        W37886  16.047  25.451  11.182
66271W        W37887   6.642  44.838  12.513
66272W        W37888  18.039  28.034   1.692
66273W        W37889  34.625   1.811   3.643
66274W        W37890  10.675  18.806  14.291
66275W        W37891  25.798  24.859  14.022
66276W        W37892  10.570  29.956  11.033
66277W        W37893  13.318  14.598  13.949
66278W        W37894  38.634  26.912   0.920
66279W        W37895  19.165  17.341   3.412
66280W        W37896  13.365  40.940  11.223
66281W        W37897  16.677   9.612   2.934
66282W        W37898   9.697  33.460   4.472
66283W        W37899   4.159  31.465   3.716
66284W        W37900  28.174   7.359   2.893
66285W        W37901   1.033   1.757  14.973
66286W        W37902  38.552  26.401   1.765
66287W        W37903  32.570  20.673  13.681
66288W        W37904  40.418  30.827   2.306
66289W        W37905  18.111  28.758  11.590
66290W        W37906  11.655  24.095   3.518
66291W        W37907   8.207  14.073  11.602
66292W        W37908  27.506  41.248   4.117
66293W        W37909  31.086   5.218   3.746
66294W        W37910  35.940  17.858  13.900
66295W        W37911  28.493  23.512   3.528
66296W        W37912  15.632   7.996   1.899
66297W        W37913   6.918   7.871   3.879
66298W        W37914  37.544  44.609  13.305
66299W        W37915  41.543  44.934   3.260
66300W        W37916   2.323  33.434  14.340
66301W        W37917   4.784  40.819  12.471
66302W        W37918   5.829  19.167  14.345
66303W        W37919  39.260  14.900  14.273
66304W        W37920   9.192  22.623   2.251
66305W        W37921   0.284  12.830   2.161
66306W        W37922  28.384  21.165  12.444
66307W        W37923  11.672  35.519  14.921
66308W        W37924  11.791  25.232  12.549
66309W        W37925   9.183  23.167  14.398
66310W        W37926  22.040  10.134  11.917
66311W        W37927  13.770  17.123  12.633
66312W        W37928  10.606  27.073  13.893
66313W        W37929  19.660  22.996   0.420
66314W        W37930  21.178  33.678  14.036
66315W        W37931  20.651  29.653   2.807
66316W        W37932   6.662  26.153   1.530
66317W        W37933  17.915  17.738   3.346
66318W        W37934  16.199  29.660  13.874
66319W        W37935  11.881  24.557  11.902
66320W        W37936   2.956  13.525  11.575
66321W        W37937   9.317   6.583  10.240
66322W        W37938   7.751   0.805   3.012
66323W        W37939  21.193  32.861   4.337
66324W        W37940  16.600  25.065  14.717
66325W        W37941   5.996  35.344   3.616
66326W        W37942   9.724  26.480  11.122
66327W        W37943  11.190  23.034  12.548
66328W        W37944   7.430  32.402   2.485
66329W        W37945   0.987  10.406  13.459
66330W        W37946  17.608  16.361   3.736
66331W        W37947  25.945   3.537   2.458
66332W        W37948   7.613  19.658   5.067
66333W        W37949  10.785  20.268   4.384
66334W        W37950  33.341  28.693   4.515
66335W        W37951  35.387   6.204   3.352
66336W        W37952  32.851   8.316   1.845
66337W        W37953  31.358  14.716  13.466
66338W        W37954  39.800  24.020   4.600
66339W        W37955   9.591   1.402   1.345
66340W        W37956  19.591  10.668  11.924
66341W        W37957  14.841  18.778  10.674
66342W        W37958   7.417  13.636  14.193
66343W        W37959  35.018   0.668  12.131
66344W        W37960  34.646  40.691   2.295
66345W        W37961  20.116  42.388  13.998
66346W        W37962  32.464  14.120   2.645
66347W        W37963   4.484  28.996   0.001
66348W        W37964  25.854  15.810   2.479
66349W        W37965  39.050  20.064   2.325
66350W        W37966  12.711  15.674   4.695
66351W        W37967  42.528   0.397   2.819
66352W        W37968  31.214  38.971  11.523
66353W        W37969  39.478   1.328  14.943
66354W        W37970  31.352  21.347   2.677
66355W        W37971   0.763   8.782  10.757
66356W        W37972  43.874  17.063  14.181
66357W        W37973   3.054  16.696  12.038
66358W        W37974  41.390  37.467  12.064
66359W        W37975  11.405   1.498   2.626
66360W        W37976   3.318  26.189   0.466
66361W        W37977  21.192   9.674   1.530
66362W        W37978  30.619  30.646  10.557
66363W        W37979  38.388  31.300   1.755
66364W        W37980  31.379  21.745   2.329
66365W        W37981  32.691  39.363   0.338
66366W        W37982  44.142  26.743  11.161
66367W        W37983  18.090  27.732  12.514
66368W        W37984   4.050  30.051  13.522
66369W        W37985  15.726  41.529  11.902
66370W        W37986  43.837  38.880  14.236
66371W        W37987  24.136  30.201  11.546
66372W        W37988  23.306   7.873   2.806
66373W        W37989   3.271   5.626   3.100
66374W        W37990  35.149  33.481  14.477
66375W        W37991   6.907  23.940  11.163
66376W        W37992  30.487  10.738   0.044
66377W        W37993  34.943  33.982   2.261
66378W        W37994  14.701  16.293  10.557
66379W        W37995  20.617   7.480   2.278
66380W        W37996   7.703   1.985  13.338
66381W        W37997   4.003  22.485  12.968
66382W        W37998  29.721  26.152   1.119
66383W        W37999   2.476  29.125  13.854
66384W        W38000   3.907  24.818  10.020
66385W        W38001  19.753  35.950  14.780
66386W        W38002  25.104  29.066   3.603
66387W        W38003  22.453  32.809  10.106
66388W        W38004  27.184  19.197  12.589
66389W        W38005  44.692  44.301  12.492
66390W        W38006  29.467  44.507   3.203
66391W        W38007  13.741  37.929   0.465
66392W        W38008  14.852  24.043   2.846
66393W        W38009   1.727  19.785  11.053
66394W        W38010  16.694  30.048   4.086
66395W        W38011  44.454  17.230  14.846
66396W        W38012  13.327   2.494   1.779
66397W        W38013  43.714   5.660   3.344
66398W        W38014  19.212  34.872   0.825
66399W        W38015  29.927  36.956   3.845
66400W        W38016  27.044   1.804  13.786
66401W        W38017  38.881  37.567   4.733
66402W        W38018  42.037   2.307   0.986
66403W        W38019  12.272  17.319   1.518
66404W        W38020  34.238  21.821  12.017
66405W        W38021   8.324  26.732   0.696
66406W        W38022   3.982  16.559   0.792
66407W        W38023  30.865  13.721   0.818
66408W        W38024   5.030   4.746   2.200
66409W        W38025  21.268  10.682  10.997
66410W        W38026  43.946  12.398   0.766
66411W        W38027  25.096  12.835   2.644
66412W        W38028  42.597   9.842   3.773
66413W        W38029  21.505  27.002   4.631
66414W        W38030   4.728  26.993  12.655
66415W        W38031  37.142   0.373  10.546
66416W        W38032   6.474  25.620  14.319
66417W        W38033  13.123  44.107   1.663
66418W        W38034  36.537  40.998   2.792
66419W        W38035  29.040  27.720   3.386
66420W        W38036  24.030  42.801   0.269
66421W        W38037  37.525  18.746   4.616
66422W        W38038  35.909  39.800   2.883
66423W        W38039   0.967  35.526   0.858
66424W        W38040  12.755  28.635  13.171
66425W        W38041  44.645  11.827   2.778
66426W        W38042  17.093   5.224   4.363
66427W        W38043   2.913  42.767  11.026
66428W        W38044  38.770  11.168  14.727
66429W        W38045  37.106  36.913  11.059
66430W        W38046  23.438  18.074  12.168
66431W        W38047  38.573  20.014  12.047
66432W        W38048  40.259  40.873   3.365
66433W        W38049   3.512  24.741   5.315
66434W        W38050   6.932   4.305  11.609
66435W        W38051   7.723  35.632  14.224
66436W        W38052  26.149  40.851   3.972
66437W        W38053  34.761  38.376  12.781
66438W        W38054  12.745  37.543  13.451
66439W        W38055   8.873   0.235   2.654
66440W        W38056  22.380   4.335   0.856
66441W        W38057  28.421  26.005   3.146
66442W        W38058  30.589  29.931  10.012
66443W        W38059   1.515  26.528  13.613
66444W        W38060   2.040   7.158   0.695
66445W        W38061  25.409  13.114   1.865
66446W        W38062  36.733   9.963   1.696
66447W        W38063  13.868  14.178  10.400
66448W        W38064  31.351  10.374   4.746
66449W        W38065   9.170   3.292   1.230
66450W        W38066  16.668  15.780  14.564
66451W        W38067  39.083  19.994  10.927
66452W        W38068  33.460   6.752   0.016
66453W        W38069  37.636  25.698   1.264
66454W        W38070  38.342  39.227   3.083
66455W        W38071  27.055  28.227  13.547
66456W        W38072  12.713  39.886   4.338
66457W        W38073  18.691  12.667  11.986
66458W        W38074  16.238  41.986   2.640
66459W        W38075  11.649  38.912   4.684
66460W        W38076  22.567  27.441   4.229
66461W        W38077  23.670  22.711   0.749
66462W        W38078   9.847   5.734   4.179
66463W        W38079  28.696  32.000  12.466
66464W        W38080  18.827  42.414  14.955
66465W        W38081  41.462  20.592   1.230
66466W        W38082  25.250  18.340   1.398
66467W        W38083  32.440  25.078  14.371
66468W        W38084  15.325  26.575   0.272
66469W        W38085   6.758  13.674  11.921
66470W        W38086  19.530  10.576  14.360
66471W        W38087  15.708  18.539  11.145
66472W        W38088  15.970   1.902   1.774
66473W        W38089  36.915   1.446   0.211
66474W        W38090   3.287  12.659   4.473
66475W        W38091  23.800  34.887  11.060
66476W        W38092  17.002   5.412   3.400
66477W        W38093  41.813  10.594  13.141
66478W        W38094   6.779  31.296  13.842
66479W        W38095   7.709   5.995  12.148
66480W        W38096  43.795  14.232   1.440
66481W        W38097  16.208  10.760  10.691
66482W        W38098  19.415   0.701   4.076
66483W        W38099  36.089  44.740   3.164
66484W        W38100  39.552  40.833   4.576
66485W        W38101  11.402  31.537  11.590
66486W        W38102  10.790  21.255   4.797
66487W        W38103  28.391  29.218   0.299
66488W        W38104   3.308  29.341   2.293
66489W        W38105  29.921   9.221   1.649
66490W        W38106   4.858  16.190  12.605
66491W        W38107  19.588   9.160   4.618
66492W        W38108   9.661  25.453   1.684
66493W        W38109  17.661  35.590   1.492
66494W        W38110  20.055  36.254   0.084
66495W        W38111   4.257   4.815  12.502
66496W        W38112  14.512   5.766  11.551
66497W        W38113  25.676  32.115   3.897
66498W        W38114  44.219   7.815   0.401
66499W        W38115  40.794  12.574  12.448
66500W        W38116  34.126  18.268   3.672
66501W        W38117  23.797  41.269   1.469
66502W        W38118  25.693  14.187   0.690
66503W        W38119  30.815   6.154  14.450
66504W        W38120   0.354  19.108   4.468
66505W        W38121  10.257  31.018  14.730
66506W        W38122   6.704  14.543   1.388
66507W        W38123   8.267  44.495  13.619
66508W        W38124  38.364  10.722   0.867
66509W        W38125  24.226   3.311  12.514
66510W        W38126  12.010   2.769  13.278
66511W        W38127   2.887  36.857   1.917
66512W        W38128  37.411   5.535   1.799
66513W        W38129  43.691  21.615  10.609
66514W        W38130   8.216  18.714   0.779
66515W        W38131   0.754  40.658  14.293
66516W        W38132  10.106  28.088   1.229
66517W        W38133  22.134  34.237  14.059
66518W        W38134  18.600   3.484  10.990
66519W        W38135   2.053  21.847   1.833
66520W        W38136  11.216  26.885  12.035
66521W        W38137  22.004  44.325  11.121
66522W        W38138  28.758   8.351   0.841
66523W        W38139  39.888  26.026  10.472
66524W        W38140  21.011  27.725  11.967
66525W        W38141  26.767  33.005  12.381
66526W        W38142  40.071  18.107   1.387
66527W        W38143  12.878  38.361   0.864
66528W        W38144  20.624   5.724  13.061
66529W        W38145  19.663   4.611  12.995
66530W        W38146  37.148  17.240   0.445
66531W        W38147  40.845  26.781  13.290
66532W        W38148  40.743   1.023  12.354
66533W        W38149  35.933   5.843   2.652
66534W        W38150  18.494   3.931   1.048
66535W        W38151  40.867  19.565   1.076
66536W        W38152  26.143  13.238   1.305
66537W        W38153  31.263  11.218   4.696
66538W        W38154  18.033  28.118   2.772
66539W        W38155  24.897  13.263  11.157
66540W        W38156  25.597  13.720  14.367
66541W        W38157   6.978  37.809   1.788
66542W        W38158  18.210   9.511  11.448
66543W        W38159  22.597  24.022  14.519
66544W        W38160  24.938   3.276   0.693
66545W        W38161   0.962  13.622  12.900
66546W        W38162  39.473  21.005  13.897
66547W        W38163  14.757   5.408   3.001
66548W        W38164   7.726  27.207  12.379
66549W        W38165  33.675  42.541   1.234
66550W        W38166  15.807  40.049  11.055
66551W        W38167  20.963  40.296  11.572
66552W        W38168  19.062   1.853  13.367
66553W        W38169  38.313   0.635  14.819
66554W        W38170  17.822  13.799   3.690
66555W        W38171   4.524  20.576  14.905
66556W        W38172  25.515   5.800  12.895
66557W        W38173  40.875   0.862   0.244
66558W        W38174  37.157  12.199   1.214
66559W        W38175   3.271  40.562  10.647
66560W        W38176  40.136  18.078  13.817
66561W        W38177   1.890   0.541   2.902
66562W        W38178  31.923  23.043   4.664
66563W        W38179  29.072  34.836   3.462
66564W        W38180  32.155  13.065  11.545
66565W        W38181   3.949  33.893  12.552
66566W        W38182  16.638   0.316  14.465
66567W        W38183  36.497  25.729  11.565
66568W        W38184  31.991  33.495   1.189
66569W        W38185  44.384  35.179   2.954
66570W        W38186  16.313  27.377   0.050
66571W        W38187  22.682  23.491   1.247
66572W        W38188   1.748   6.772  12.621
66573W        W38189  20.004  37.904  14.075
66574W        W38190  42.613   2.233   1.608
66575W        W38191  10.656  26.470   4.155
66576W        W38192  14.159   8.148   3.236
66577W        W38193   6.756  15.524  14.770
66578W        W38194  20.817  40.369  14.417
66579W        W38195  17.601  19.681   5.207
66580W        W38196  37.111  27.102   0.837
66581W        W38197  18.402  19.048  12.341
66582W        W38198   9.324  28.692   0.459
66583W        W38199  27.249  11.815  10.287
66584W        W38200  38.832  13.265  13.837
66585W        W38201   7.692  20.466   3.395
66586W        W38202  34.367   2.016   4.084
66587W        W38203  21.976  41.987   0.453
66588W        W38204  21.771  28.429   0.766
66589W        W38205  10.377  11.072  12.536
66590W        W38206  36.961  24.965   1.160
66591W        W38207  38.459  30.093   4.052
66592W        W38208  35.950  34.764   2.682
66593W        W38209  25.315   2.398   0.436
66594W        W38210  23.889  13.862  13.762
66595W        W38211  27.990  25.652  13.881
66596W        W38212  25.550  28.121   1.686
66597W        W38213  34.974  37.964  10.717
66598W        W38214  27.637  15.873   3.335
66599W        W38215  10.677   0.799  11.263
66600W        W38216  15.152  27.699  11.930
66601W        W38217   9.863  40.471  11.472
66602W        W38218  23.163  31.577   3.344
66603W        W38219  13.310  19.685  11.958
66604W        W38220  29.009  17.756  12.942
66605W        W38221  40.946  14.135   4.705
66606W        W38222   9.632  10.863   1.808
66607W        W38223  41.844  44.255  12.420
66608W        W38224   6.533  35.023   3.731
66609W        W38225  19.693  18.029  12.428
66610W        W38226  20.226   5.949  14.773
66611W        W38227  34.662   9.174   3.148
66612W        W38228   0.075  40.092  12.911
66613W        W38229  28.167  41.314   1.791
66614W        W38230   0.241  44.256   1.318
66615W        W38231   5.249   6.302   3.439
66616W        W38232  10.638  25.714   1.660
66617W        W38233  33.061   6.747   2.754
66618W        W38234   4.684  17.822   3.552
66619W        W38235   2.372  34.575  13.567
66620W        W38236   0.268  18.127  11.546
66621W        W38237  40.266  29.191   0.775
66622W        W38238  44.914  13.158  11.161
66623W        W38239   2.884  12.165  12.649
66624W        W38240  25.168  18.822   0.840
66625W        W38241  14.780  10.871  13.074
66626W        W38242  26.502   6.735  12.649
66627W        W38243  37.565  13.478   5.167
66628W        W38244  29.902  12.354   3.369
66629W        W38245  23.478  34.879  12.137
66630W        W38246  26.154  33.349  13.558
66631W        W38247  37.583   3.103   4.783
66632W        W38248   5.294  44.006   1.320
66633W        W38249  43.838  42.825   3.563
66634W        W38250  41.417  19.813   1.831
66635W        W38251  13.887  37.293   4.620
66636W        W38252  17.247  24.093   4.694
66637W        W38253  33.457   6.669  10.576
66638W        W38254   5.395  12.056  11.933
66639W        W38255  27.241  28.062   0.555
66640W        W38256  33.399  42.721  11.703
66641W        W38257   6.676  19.522  14.691
66642W        W38258   6.317  13.622   3.277
66643W        W38259  27.945  13.415  10.934
66644W        W38260  37.378  24.462  11.926
66645W        W38261   6.874  35.297   2.188
66646W        W38262  33.877   8.029  13.028
66647W        W38263   1.628  37.470   2.317
66648W        W38264  32.337  36.302  13.134
66649W        W38265  13.740  19.162   3.564
66650W        W38266  24.957   1.924  12.150
66651W        W38267   7.264  24.151   4.359
66652W        W38268  40.481  17.729   2.912
66653W        W38269  37.986  11.674  10.987
66654W        W38270  18.791  17.569   1.207
66655W        W38271   3.608  25.426   3.399
66656W        W38272  43.583  26.388   1.444
66657W        W38273  14.159   0.539  14.015
66658W        W38274  34.386  25.349   1.041
66659W        W38275  23.683  38.479   4.710
66660W        W38276   8.413  33.106  13.563
66661W        W38277  29.160  16.844   1.807
66662W        W38278  43.671   7.848  11.451
66663W        W38279   1.687  24.420   0.979
66664W        W38280  23.156  22.243  14.160
66665W        W38281  15.684   9.744   2.151
66666W        W38282   3.934  23.905   2.371
66667W        W38283  17.376  28.743  12.099
66668W        W38284  30.818  22.516  11.564
66669W        W38285  30.098  12.996   0.442
66670W        W38286  35.283  41.307  12.930
66671W        W38287  34.080   7.934   3.859
66672W        W38288   1.429   5.274   1.217
66673W        W38289   7.906  32.463   4.807
66674W        W38290  37.570   6.961   0.770
66675W        W38291  19.094   8.489   1.706
66676W        W38292  22.934  14.863  12.089
66677W        W38293  23.663  14.330   3.706
66678W        W38294   5.636  14.102   2.233
66679W        W38295   6.397  31.823   0.675
66680W        W38296  10.303  12.335   4.373
66681W        W38297  13.594  28.253   1.470
66682W        W38298  35.714  25.529  11.094
66683W        W38299  13.118  17.004  11.004
66684W        W38300  41.847   5.946  13.154
66685W        W38301  31.871  43.221  14.271
66686W        W38302   1.306  12.780   0.423
66687W        W38303  32.008  37.736   2.112
66688W        W38304  13.515  12.214  10.759
66689W        W38305  41.945   4.930   1.290
66690W        W38306  19.736  39.066   2.212
66691W        W38307  20.329  42.036  11.595
66692W        W38308   3.092  38.994   1.907
66693W        W38309  39.605  32.074  13.913
66694W        W38310   5.301  35.916   0.909
66695W        W38311   0.944   7.811  14.839
66696W        W38312  36.663  21.170  11.838
66697W        W38313  22.168   4.710   0.231
66698W        W38314   3.809   7.093  12.567
66699W        W38315  34.906  29.551   2.423
66700W        W38316  42.850   0.556  14.758
66701W        W38317  35.000  21.322  10.089
66702W        W38318   8.207  12.082  12.453
66703W        W38319  41.052  11.304  12.221
66704W        W38320  43.030   1.794  14.398
66705W        W38321  21.913  10.872   0.558
66706W        W38322  35.043  16.626   3.984
66707W        W38323   7.815   5.235   1.335
66708W        W38324   8.883  34.657  12.491
66709W        W38325  28.816  35.188  10.795
66710W        W38326  13.604   7.125   3.926
66711W        W38327  43.544  33.183  10.635
66712W        W38328  36.946  33.109   2.742
66713W        W38329   4.957  18.271   2.737
66714W        W38330  43.387   7.659  12.592
66715W        W38331  19.692   7.794  10.947
66716W        W38332  34.528  25.567   0.504
66717W        W38333  16.722   4.149   3.729
66718W        W38334   9.062  40.329   1.233
66719W        W38335  10.768  26.662  12.127
66720W        W38336   1.775  28.340  14.855
66721W        W38337  30.711   6.244   3.308
66722W        W38338  26.564  15.587  12.473
66723W        W38339  24.028  22.674  13.550
66724W        W38340   4.839  29.980   4.127
66725W        W38341  15.214   5.481  10.678
66726W        W38342  37.846   7.335   1.025
66727W        W38343  37.157  26.918  11.200
66728W        W38344  27.552  41.094  11.966
66729W        W38345  16.199  43.037   4.438
66730W        W38346  43.909  44.022  12.863
66731W        W38347  33.834   1.929   4.146
66732W        W38348  43.000  19.056   2.703
66733W        W38349  39.002  30.360  14.837
66734W        W38350  11.275  30.385  11.232
66735W        W38351  44.938  25.065   1.912
66736W        W38352  35.388   3.396  12.162
66737W        W38353  38.932  23.122   4.338
66738W        W38354  33.376  34.923  14.893
66739W        W38355   6.761  19.954   1.499
66740W        W38356   8.509  42.445  10.610
66741W        W38357  16.771  26.630   2.210
66742W        W38358  35.464  11.801  13.003
66743W        W38359  41.944  40.875   3.439
66744W        W38360  13.224  29.622  14.977
66745W        W38361   1.977  26.018  15.000
66746W        W38362   0.442   5.927  13.787
66747W        W38363  36.707  32.949   2.309
66748W        W38364  19.115  23.107  10.622
66749W        W38365  36.837  30.005  12.851
66750W        W38366   3.480  27.077   0.816
66751W        W38367  17.208  26.126  14.073
66752W        W38368  22.068  35.100  13.048
66753W        W38369   9.333  29.443  13.894
66754W        W38370  34.435  39.312  12.510
66755W        W38371  24.953  13.582   0.989
66756W        W38372   7.182  27.537  11.642
66757W        W38373  22.777  28.640  10.779
66758W        W38374   2.430  11.902  12.006
66759W        W38375  22.884  20.065   1.483
66760W        W38376  27.752  15.793  13.087
66761W        W38377  35.238   1.641  10.623
66762W        W38378  30.878   7.636   4.600
66763W        W38379  27.979  24.693  10.023
66764W        W38380   9.476   6.123   1.823
66765W        W38381   6.373  27.533  12.059
66766W        W38382  11.727   4.578   1.366
66767W        W38383  38.045   6.647   3.870
66768W        W38384   3.240  44.865  12.537
66769W        W38385  41.979  29.672  10.730
66770W        W38386  32.889  20.688  11.921
66771W        W38387   2.882  31.513   3.461
66772W        W38388  41.466  30.190   0.442
66773W        W38389  39.982  11.317  10.305
66774W        W38390   4.622  22.751   0.948
66775W        W38391  39.895   5.119  10.891
66776W        W38392  26.221  26.962   1.289
66777W        W38393  24.369  35.066  12.058
66778W        W38394   4.298  10.023   0.584
66779W        W38395  33.645  35.815  10.598
66780W        W38396   3.192  44.036  11.297
66781W        W38397  18.652   8.347  12.987
66782W        W38398   5.745  28.946   3.171
66783W        W38399  22.736   1.727   2.643
66784W        W38400  11.231   6.865   4.647
66785W        W38401  24.895  13.064   1.820
66786W        W38402  26.138  14.087  13.527
66787W        W38403  23.461   2.710  12.162
66788W        W38404  17.806   9.606  13.921
66789W        W38405  40.542  16.259  11.463
66790W        W38406  35.564  11.615  11.537
66791W        W38407  33.503  41.353  11.228
66792W        W38408  18.691  11.154   0.850
66793W        W38409   7.753  26.633   3.088
66794W        W38410  31.432  38.078   3.176
66795W        W38411  24.976   2.761  11.164
66796W        W38412  27.645   2.442  14.301
66797W        W38413   6.387  31.538   3.715
66798W        W38414   0.029  28.677   1.608
66799W        W38415  42.328  25.643  13.471
66800W        W38416   1.692   4.780  10.544
66801W        W38417   0.925  20.255  12.640
66802W        W38418   0.305  28.200  10.728
66803W        W38419  10.839  20.646  14.760
66804W        W38420  44.260   2.657  12.477
66805W        W38421   1.248   6.783  13.776
66806W        W38422   6.430  11.963  10.618
66807W        W38423  40.528  37.947  12.964
66808W        W38424  43.859  38.023   3.034
66809W        W38425  43.381  16.200  14.872
66810W        W38426  44.988  15.387  13.438
66811W        W38427  34.002  28.513  10.721
66812W        W38428  17.407   3.891  11.310
66813W        W38429  28.634  15.642   4.167
66814W        W38430  41.196  14.835  11.856
66815W        W38431  41.106   6.342  11.184
66816W        W38432  15.487  34.092   2.769
66817W        W38433  33.624   9.730  14.993
66818W        W38434  14.746   2.780   1.911
66819W        W38435  36.390  19.729   3.758
66820W        W38436  44.845  24.449  11.764
66821W        W38437  22.046  31.053   3.225
66822W        W38438   2.155  33.949   3.672
66823W        W38439  21.152   9.466  10.069
66824W        W38440   0.764  26.971  12.796
66825W        W38441  34.957  31.152   4.070
66826W        W38442  12.160  17.501  13.433
66827W        W38443   6.453  22.057   3.791
66828W        W38444  43.370  24.744   3.813
66829W        W38445  20.640  23.931   2.250
66830W        W38446  31.684  34.816  10.642
66831W        W38447  22.771  15.114   1.782
66832W        W38448  12.799  44.449   1.929
66833W        W38449  27.954   5.464   0.247
66834W        W38450  19.972   1.807  10.307
66835W        W38451  42.863  17.171   2.774
66836W        W38452  37.970  36.222  11.627
66837W        W38453  20.199  13.353   4.618
66838W        W38454   8.722   3.170  14.286
66839W        W38455  10.084  26.488  10.763
66840W        W38456  18.749   5.415  14.848
66841W        W38457  32.332  34.149  13.802
66842W        W38458  35.549   0.600  13.724
66843W        W38459  16.367   9.389   4.854
66844W        W38460  12.117   9.370  12.090
66845W        W38461  27.511  27.479  14.947
66846W        W38462  16.769  21.054  14.841
66847W        W38463  44.818  10.710  10.624
66848W        W38464  17.228   4.835  11.654
66849W        W38465  31.934  25.514   3.450
66850W        W38466  44.293  29.184   4.231
66851W        W38467  44.259  36.096  10.856
66852W        W38468  40.942  42.598  12.481
66853W        W38469  14.074  22.097   0.397
66854W        W38470   4.142  22.545  10.968
66855W        W38471  28.167  26.005   0.357
66856W        W38472   8.778  42.370   3.817
66857W        W38473  18.511  22.973   3.321
66858W        W38474  20.139  39.698  10.699
66859W        W38475  14.252  43.594   1.351
66860W        W38476  39.944   2.278   0.856
66861W        W38477   0.262  36.560   0.294
66862W        W38478  44.409  11.130  14.304
66863W        W38479  30.887  42.415  14.054
66864W        W38480   5.875  10.080   2.909
66865W        W38481  36.805  13.581  10.263
66866W        W38482  31.211  23.047   0.817
66867W        W38483  40.619  14.732   0.468
66868W        W38484  24.553  19.846  11.633
66869W        W38485  38.256  41.780   3.466
66870W        W38486  14.618  28.978  10.608
66871W        W38487  24.217  43.460   2.914
66872W        W38488  32.116   9.188  11.987
66873W        W38489  38.775  33.902  14.750
66874W        W38490  10.876  14.820   2.837
66875W        W38491  43.113   8.785   3.348
66876W        W38492  40.429   7.641  13.515
66877W        W38493   6.798  14.884  13.987
66878W        W38494   6.890   2.671   2.338
66879W        W38495  36.016  38.918  10.657
66880W        W38496  26.704  31.811  11.922
66881W        W38497  34.078  32.124   3.146
66882W        W38498  40.437  12.935  12.398
66883W        W38499   8.696   9.917  12.682
66884W        W38500  26.487  27.278   0.348
66885W        W38501  30.902  18.092   4.267
66886W        W38502  11.395  14.694   0.697
66887W        W38503  34.139  41.395  14.087
66888W        W38504  15.635   7.042  12.879
66889W        W38505   2.228  19.959   3.280
66890W        W38506  39.249  16.878  13.994
66891W        W38507  30.048  19.129   3.287
66892W        W38508   8.977  35.841   4.972
66893W        W38509  23.887  34.301   0.685
66894W        W38510  26.611  12.958  10.245
66895W        W38511  15.645  44.796   4.689
66896W        W38512  16.989  36.505  11.978
66897W        W38513  39.774  42.516  10.742
66898W        W38514  33.126  32.886  13.316
66899W        W38515  35.299  39.357  11.643
66900W        W38516  35.426  35.581   0.676
66901W        W38517  39.036  34.372  13.804
66902W        W38518  19.599  41.244  14.000
66903W        W38519  17.231  31.314  12.399
66904W        W38520  36.008   5.453   2.295
66905W        W38521  21.186   4.726  11.059
66906W        W38522  29.550  24.257   1.840
66907W        W38523   4.646  12.912   0.811
66908W        W38524  20.940  21.267  12.426
66909W        W38525  40.629   2.747  13.270
66910W        W38526  28.881  24.716   0.888
66911W        W38527   7.261  36.318   1.122
66912W        W38528  31.223   0.451   3.146
66913W        W38529  17.980   4.396   1.772
66914W        W38530  28.696  10.925  14.587
66915W        W38531  25.082  17.802   3.761
66916W        W38532   4.956  14.552  10.289
66917W        W38533  18.572   7.113   5.154
66918W        W38534  13.622  23.725   1.458
66919W        W38535  30.662  33.524  13.428
66920W        W38536  17.531  23.116   2.661
66921W        W38537  15.555  32.149   9.969
66922W        W38538   1.889  33.003  10.712
66923W        W38539  38.989  40.312   1.868
66924W        W38540  27.492  18.685   2.406
66925W        W38541  19.876  16.721  11.226
66926W        W38542  25.289  42.079   0.871
66927W        W38543  24.980   8.744   2.373
66928W        W38544  32.471   5.551   0.857
66929W        W38545  24.081   1.915   5.064
66930W        W38546  19.225   5.012   4.300
66931W        W38547  15.623  28.519  12.818
66932W        W38548  10.727  41.461  10.622
66933W        W38549  11.945  13.735   3.817
66934W        W38550  37.926   9.719   0.319
66935W        W38551  26.054  25.656  11.608
66936W        W38552  29.454  29.912   2.329
66937W        W38553  42.986  16.092   0.507
66938W        W38554  19.231  30.314   4.762
66939W        W38555  19.035  11.939  13.961
66940W        W38556  30.493   6.885   2.765
66941W        W38557  34.844  36.581  13.373
66942W        W38558  21.722  39.358   4.089
66943W        W38559  41.243   1.199  12.111
66944W        W38560  41.094   5.035  11.651
66945W        W38561   2.028  31.332  14.386
66946W        W38562  41.299  41.978  14.781
66947W        W38563  21.726  31.998  14.352
66948W        W38564  24.790  29.650  10.694
66949W        W38565  44.405  26.290   3.564
66950W        W38566  44.761  31.697  12.478
66951W        W38567  30.088   1.957   4.489
66952W        W38568  24.682   1.567   1.867
66953W        W38569  42.069  17.191   4.542
66954W        W38570  10.194   9.182   3.283
66955W        W38571  15.212  26.083  11.535
66956W        W38572  37.035  17.624  11.111
66957W        W38573  26.185  27.422   2.236
66958W        W38574  13.336   9.417   4.589
66959W        W38575  32.953  44.492  14.165
66960W        W38576   1.403  12.867   1.390
66961W        W38577  26.503  31.968   0.786
66962W        W38578  26.428  15.775   4.726
66963W        W38579  29.223  27.207   0.255
66964W        W38580  40.054  15.278  12.488
66965W        W38581  37.032  26.510   1.460
66966W        W38582  32.601  11.428   3.261
66967W        W38583   9.638  12.375   0.944
66968W        W38584  40.550  43.685  12.407
66969W        W38585  15.606   5.440   4.606
66970W        W38586  28.574   8.653  14.095
66971W        W38587  44.218  13.706   2.204
66972W        W38588  16.259  44.536   5.550
66973W        W38589  38.032  14.485  10.996
66974W        W38590  11.876  12.212  11.519
66975W        W38591  33.584  25.239  10.127
66976W        W38592   8.307  44.730   3.234
66977W        W38593  38.773   5.928  13.356
66978W        W38594   7.323  17.047  12.078
66979W        W38595   5.428  26.899   4.171
66980W        W38596  14.175  38.645  12.897
66981W        W38597  43.738  33.983  14.594
66982W        W38598   6.832  35.845   0.424
66983W        W38599  32.162   4.661  11.125
66984W        W38600  32.885   5.643   1.168
66985W        W38601   2.934   4.357  10.797
66986W        W38602  14.206  27.324  11.141
66987W        W38603  31.083  18.811   1.178
66988W        W38604  39.523  28.216  12.137
66989W        W38605   8.646  20.582   1.300
66990W        W38606  31.379  35.788   2.658
66991W        W38607  16.163  24.241  14.330
66992W        W38608   1.165  15.752   2.896
66993W        W38609  15.337   9.203  12.112
66994W        W38610  35.619  31.993   4.583
66995W        W38611   4.667  22.598   4.498
66996W        W38612  25.542  32.133  13.569
66997W        W38613  34.413   1.414   9.835
66998W        W38614  33.012  28.951   0.269
66999W        W38615   5.087  19.304   0.432
67000W        W38616  31.067  24.218   1.410
67001W        W38617  10.695  15.203  14.236
67002W        W38618  38.678  18.313  13.911
67003W        W38619  24.619   2.926  14.853
67004W        W38620   8.393  24.694   4.367
67005W        W38621   2.303  34.438   3.729
67006W        W38622   7.249  42.269  14.305
67007W        W38623  29.818  38.494  14.310
67008W        W38624  28.026  22.954   3.135
67009W        W38625   9.407  31.847  11.968
67010W        W38626   5.278   0.036  13.897
67011W        W38627  40.983  41.880   1.624
67012W        W38628  43.061  30.420   3.891
67013W        W38629  27.188  37.735  12.155
67014W        W38630  23.185  10.271  10.942
67015W        W38631   5.499   2.338   0.832
67016W        W38632   9.389   3.325   4.602
67017W        W38633  33.859  21.726   3.391
67018W        W38634   4.326  17.514  12.169
67019W        W38635  13.226  25.281  12.002
67020W        W38636  21.895   4.189   0.987
67021W        W38637  20.236   3.969   2.272
67022W        W38638  10.500  42.895  12.733
67023W        W38639  11.520  27.170   1.590
67024W        W38640  15.327  30.654  14.307
67025W        W38641   8.387  44.402   4.677
67026W        W38642  38.123  18.204   4.150
67027W        W38643   9.994  13.578   4.680
67028W        W38644  32.385   8.532   1.894
67029W        W38645  29.232  38.816   3.660
67030W        W38646  29.660   9.129  10.705
67031W        W38647  32.523   1.004  10.679
67032W        W38648  33.818  23.763  13.340
67033W        W38649  30.912   6.208  13.073
67034W        W38650   9.820  10.790   3.226
67035W        W38651   4.429  12.182  14.057
67036W        W38652  41.258  39.070  12.954
67037W        W38653  24.734   6.856  11.589
67038W        W38654  34.602  36.121  13.008
67039W        W38655   0.764  22.565   5.002
67040W        W38656  36.421  43.398  13.590
67041W        W38657  16.071  33.565  12.164
67042W        W38658  31.184  42.941  14.320
67043W        W38659  12.079  13.166  12.795
67044W        W38660   6.671   6.463   0.652
67045W        W38661  31.472   6.926   1.481
67046W        W38662   4.802  28.046  11.644
67047W        W38663  20.660   2.461   2.770
67048W        W38664  14.633  44.816  11.680
67049W        W38665  44.342  15.852   4.743
67050W        W38666  23.055  28.040   1.415
67051W        W38667  33.099  44.379   4.515
67052W        W38668  13.484  12.722   3.386
67053W        W38669  31.660  37.980  13.457
67054W        W38670  20.611  17.110  10.614
67055W        W38671  13.728  42.024  10.735
67056W        W38672  29.243  31.480   3.279
67057W        W38673  27.194   9.186   2.215
67058W        W38674   9.405  37.570   4.061
67059W        W38675  23.979   4.628  12.896
67060W        W38676  44.237  25.060  12.794
67061W        W38677  12.275   3.330  10.801
67062W        W38678  37.485   5.187   2.191
67063W        W38679  43.391   5.828  13.863
67064W        W38680   8.946  28.712  11.321
67065W        W38681  32.933  33.047   2.642
67066W        W38682   0.522  41.183   4.926
67067W        W38683   1.398  30.715   0.402
67068W        W38684  24.977  13.873  11.917
67069W        W38685  23.523  31.936   3.194
67070W        W38686  37.574  24.160  14.213
67071W        W38687   9.617   6.411   4.835
67072W        W38688   9.391  42.342  14.467
67073W        W38689  41.099   6.862   3.603
67074W        W38690  26.958  38.291  12.942
67075W        W38691   9.825  15.722   2.244
67076W        W38692  19.211  28.889  11.977
67077W        W38693  13.679  44.709   2.182
67078W        W38694  12.203   5.290  12.868
67079W        W38695  32.473  26.162   3.172
67080W        W38696  31.103  29.654   3.709
67081W        W38697  17.763   2.190   3.462
67082W        W38698  34.754  33.453  10.208
67083W        W38699   4.477  24.883   0.717
67084W        W38700  42.399  19.196  12.346
67085W        W38701   4.335  21.290   4.253
67086W        W38702  19.644  15.142  14.757
67087W        W38703  16.759  40.604  13.916
67088W        W38704   3.235  26.586  10.789
67089W        W38705   8.817  15.503   4.138
67090W        W38706   9.528  29.663   4.680
67091W        W38707  32.112  17.467   1.371
67092W        W38708   9.875  17.594   1.346
67093W        W38709  25.237  37.943   3.235
67094W        W38710   5.783  25.647   4.844
67095W        W38711  24.868   8.375  12.810
67096W        W38712   2.338  31.387   4.295
67097W        W38713   9.942  10.267   4.688
67098W        W38714   8.268  27.681   3.636
67099W        W38715  43.479  41.578  12.163
67100W        W38716  25.220  30.989   2.151
67101W        W38717  33.131  33.909  12.432
67102W        W38718  37.446   8.370   3.260
67103W        W38719   0.489   0.734   1.353
67104W        W38720   1.744  29.048  14.357
67105W        W38721  40.870  15.673   1.397
67106W        W38722  10.819  44.729   3.687
67107W        W38723  23.053  43.839  13.960
67108W        W38724  36.013  22.473  14.389
67109W        W38725  19.527  34.160   1.865
67110W        W38726  42.287  41.203  12.102
67111W        W38727  17.648  33.385  13.696
67112W        W38728  24.665  15.819   0.356
67113W        W38729   9.077  44.382  13.587
67114W        W38730   2.324   6.065   3.612
67115W        W38731  29.353  15.154   2.802
67116W        W38732  26.131   1.433  10.652
67117W        W38733  35.021  40.807  14.328
67118W        W38734  29.967  15.409  11.338
67119W        W38735  20.041  26.525   3.504
67120W        W38736  41.785   6.264   2.549
67121W        W38737  26.704  21.726   3.235
67122W        W38738  29.481  16.107  14.258
67123W        W38739  14.509  35.589  12.522
67124W        W38740  15.563  29.302   2.779
67125W        W38741  12.883  42.856   0.650
67126W        W38742  40.906  30.501   3.266
67127W        W38743  24.044  25.662   0.733
67128W        W38744  17.108  30.210  13.042
67129W        W38745   2.700  24.113   3.290
67130W        W38746  37.857  30.590  11.137
67131W        W38747  31.150   6.205  14.054
67132W        W38748  35.136   8.446   4.094
67133W        W38749  30.635  25.225  12.881
67134W        W38750  23.567   9.766  10.888
67135W        W38751  30.191  10.266  11.873
67136W        W38752  42.348  36.761  10.709
67137W        W38753  19.192   4.708   1.956
67138W        W38754  13.823  20.231  11.353
67139W        W38755  36.494  13.836  14.781
67140W        W38756  44.353  15.707  14.839
67141W        W38757  15.116  12.220   4.434
67142W        W38758  12.201  32.397   1.289
67143W        W38759  21.103   8.370  10.718
67144W        W38760  13.279   3.157   2.278
67145W        W38761  29.486   0.913  12.895
67146W        W38762   4.640   5.268   1.920
67147W        W38763  27.260  37.263   3.604
67148W        W38764  36.782   1.734   3.197
67149W        W38765   4.172  36.112   1.432
67150W        W38766  10.610  17.288  11.512
67151W        W38767   0.004   1.718   0.907
67152W        W38768  40.451  14.635   0.951
67153W        W38769  14.349  11.722  10.786
67154W        W38770  40.496  36.419   3.756
67155W        W38771  44.906  39.407  14.464
67156W        W38772  40.940  38.038   0.016
67157W        W38773  23.750  38.882   1.369
67158W        W38774   4.712   4.160   4.539
67159W        W38775  21.023  16.698   0.325
67160W        W38776  13.034  36.360  12.847
67161W        W38777   1.979  42.457   1.681
67162W        W38778  28.001  31.215  11.169
67163W        W38779   8.412  10.410  11.941
67164W        W38780  15.827  29.491  12.990
67165W        W38781  42.584  30.455   4.582
67166W        W38782   0.242  21.144   3.576
67167W        W38783   7.664  26.213   1.823
67168W        W38784  12.787  10.435   0.702
67169W        W38785  26.389   4.492   1.739
67170W        W38786  39.937  13.756   4.922
67171W        W38787  29.006  13.549  13.863
67172W        W38788   3.925  42.842  14.793
67173W        W38789  35.970  33.485   4.199
67174W        W38790  17.071  19.176   2.323
67175W        W38791   5.795  29.355   3.486
67176W        W38792  24.118   2.857  13.871
67177W        W38793  16.278  33.500  10.645
67178W        W38794  19.393  21.590   0.222
67179W        W38795  24.455  27.286   2.943
67180W        W38796  18.340  35.032   0.246
67181W        W38797  12.925  19.505  12.354
67182W        W38798  21.622   8.170  13.096
67183W        W38799  17.285  32.037   9.849
67184W        W38800  41.659  15.991   4.996
67185W        W38801  28.520  42.560   4.230
67186W        W38802  15.213  11.410   1.744
67187W        W38803  44.117   1.781  10.222
67188W        W38804  44.753  13.701  11.214
67189W        W38805  35.630  37.348   0.443
67190W        W38806  23.468   6.665   0.968
67191W        W38807  28.019  39.099  13.930
67192W        W38808   6.890  21.723  12.929
67193W        W38809  36.408  42.249   2.376
67194W        W38810  38.037   6.267  14.404
67195W        W38811   7.243  37.717  13.816
67196W        W38812  30.719   0.691   0.793
67197W        W38813   2.944  35.029   1.786
67198W        W38814  30.395   4.815   4.556
67199W        W38815  34.503  27.982  13.311
67200W        W38816  21.302  27.192  12.864
67201W        W38817  42.421  28.497  14.073
67202W        W38818  34.330  11.107  10.962
67203W        W38819  44.231  28.918  13.942
67204W        W38820  32.899   9.342  14.620
67205W        W38821  36.189  29.100  13.804
67206W        W38822  26.828   2.421   0.120
67207W        W38823   5.516  35.722   0.409
67208W        W38824  12.417  30.879  14.493
67209W        W38825  34.486  20.326   1.716
67210W        W38826  12.093   8.276   1.819
67211W        W38827  35.513   6.902  14.951
67212W        W38828  15.535  31.496  14.739
67213W        W38829  14.576   2.499   4.486
67214W        W38830  36.529  31.955   4.631
67215W        W38831  42.360  35.541  13.584
67216W        W38832  26.773  37.045   2.221
67217W        W38833  42.335  38.973  14.237
67218W        W38834   6.339  22.739   0.509
67219W        W38835  42.579  16.169  10.771
67220W        W38836   1.314  40.606   4.083
67221W        W38837  37.312  22.310  10.733
67222W        W38838  29.982   9.718   0.578
67223W        W38839  27.382  42.903   0.309
67224W        W38840   2.244   1.496  10.178
67225W        W38841  16.684  13.156   1.945
67226W        W38842   8.877  30.189  13.449
67227W        W38843  12.495  15.331   2.212
67228W        W38844  20.197  16.461   0.352
67229W        W38845   6.925   3.256   0.849
67230W        W38846  23.570  15.653  13.077
67231W        W38847  15.116   0.470   1.255
67232W        W38848   6.338   7.314   2.789
67233W        W38849  23.058   7.630   3.254
67234W        W38850  20.643  40.597  14.855
67235W        W38851  24.548  31.335   4.409
67236W        W38852   5.005   5.293  10.768
67237W        W38853  41.648   1.293   2.310
67238W        W38854  13.649  12.158  12.619
67239W        W38855  17.282  43.473   0.852
67240W        W38856  10.447  37.310  11.464
67241W        W38857  41.273   2.484  14.325
67242W        W38858   2.467  42.487  11.071
67243W        W38859  35.639  28.117  14.281
67244W        W38860   2.908  18.738   4.714
67245W        W38861  42.068  44.430  12.896
67246W        W38862  19.082  29.447   4.516
67247W        W38863  20.796  11.601  11.160
67248W        W38864  17.574   4.797   2.274
67249W        W38865  12.336   0.347   4.653
67250W        W38866  11.187  30.501   4.268
67251W        W38867   8.253  11.989   1.805
67252W        W38868   0.957   4.621  13.012
67253W        W38869  17.821  24.572  10.745
67254W        W38870  39.531  44.336  13.998
67255W        W38871  40.880  44.212   0.113
67256W        W38872   5.455  31.873  11.574
67257W        W38873  39.328  39.519  14.306
67258W        W38874  25.815  16.919  10.339
67259W        W38875  22.768  26.071   0.912
67260W        W38876  38.883   7.882   4.640
67261W        W38877  16.258  32.613  11.121
67262W        W38878  15.846  28.657  10.528
67263W        W38879   1.239  12.127  13.190
67264W        W38880  20.128   3.386  11.818
67265W        W38881  29.044  11.930   2.356
67266W        W38882  21.998  26.552   1.371
67267W        W38883  44.353  39.029   0.245
67268W        W38884   4.990  21.490   4.066
67269W        W38885  15.175  43.827  10.634
67270W        W38886  32.317  21.650   3.130
67271W        W38887  18.041  23.936  14.077
67272W        W38888  11.328  26.399   3.412
67273W        W38889  38.521  31.627  12.558
67274W        W38890   9.816   1.412  10.430
67275W        W38891  39.060  16.154  12.342
67276W        W38892   8.850  10.216  13.100
67277W        W38893  12.758   1.111  13.014
67278W        W38894  34.387  13.875   1.836
67279W        W38895   1.728  11.778  13.753
67280W        W38896  26.078   4.017   2.343
67281W        W38897  33.877   5.749  14.306
67282W        W38898  10.941  17.631  10.688
67283W        W38899  18.705   5.299  10.855
67284W        W38900   0.408  18.507   1.434
67285W        W38901  19.301   9.169   0.357
67286W        W38902  19.985  19.273   3.360
67287W        W38903  38.432  33.852   1.367
67288W        W38904  42.153   6.416   1.172
67289W        W38905   1.487  11.165  13.491
67290W        W38906  17.060   5.500  13.390
67291W        W38907  23.813   5.795  12.512
67292W        W38908  27.021  38.837   1.425
67293W        W38909  24.044  12.927   1.209
67294W        W38910  16.099  38.564  12.079
67295W        W38911  42.140   3.404  10.661
67296W        W38912   3.210  18.266  12.818
67297W        W38913  39.375   5.703  14.517
67298W        W38914  38.753  10.182  11.716
67299W        W38915  11.082   5.150   4.116
67300W        W38916  43.642  31.062  13.190
67301W        W38917  36.150  30.617  11.506
67302W        W38918  38.641  29.230   4.391
67303W        W38919  43.220  41.438  11.212
67304W        W38920  39.020  19.731  11.985
67305W        W38921  20.974  28.029   0.778
67306W        W38922  42.525  27.564  11.610
67307W        W38923  11.394  37.144  12.100
67308W        W38924  44.718   7.501  12.421
67309W        W38925  25.109   9.126   1.297
67310W        W38926  17.601  13.643   2.667
67311W        W38927  20.442  29.144  13.826
67312W        W38928   0.720  10.375  13.013
67313W        W38929  24.228  22.123   0.007
67314W        W38930  20.814  13.780   3.793
67315W        W38931   9.771  37.332   4.323
67316W        W38932   7.683  22.351  11.735
67317W        W38933  34.941  21.516  11.428
67318W        W38934  23.501  43.857  13.129
67319W        W38935  18.744  21.583   0.240
67320W        W38936   4.460  19.081   1.225
67321W        W38937  29.429   8.264  11.878
67322W        W38938  16.054  14.280   3.684
67323W        W38939  42.282  10.112   0.742
67324W        W38940  22.451  21.214   0.529
67325W        W38941  14.725  33.395   0.281
67326W        W38942  41.925  43.297  11.522
67327W        W38943   1.261  13.340  14.548
67328W        W38944  24.236   5.485   2.854
67329W        W38945  10.391  19.267  11.586
67330W        W38946  34.426  39.319   0.438
67331W        W38947  34.128  11.612  11.675
67332W        W38948  17.268  43.221   0.408
67333W        W38949   2.758   6.948  14.151
67334W        W38950  25.180  25.536  11.699
67335W        W38951   4.175  13.167   1.674
67336W        W38952  40.887  28.353   3.612
67337W        W38953  32.408  26.248  14.596
67338W        W38954  20.652   4.625  13.769
67339W        W38955  41.490  41.904  13.898
67340W        W38956  21.226  31.551   3.220
67341W        W38957  26.907  37.359  13.013
67342W        W38958  36.799   1.882  14.977
67343W        W38959  10.023  38.959   3.342
67344W        W38960  34.320  32.654   3.858
67345W        W38961   7.432  20.797   3.691
67346W        W38962  18.746  24.887   3.253
67347W        W38963  21.544  35.290   2.479
67348W        W38964  43.731  13.501   4.266
67349W        W38965   2.789  43.512  13.577
67350W        W38966  37.326  20.171   1.469
67351W        W38967  35.180  15.212   1.573
67352W        W38968  28.773  29.462  13.313
67353W        W38969   6.887  20.325  13.856
67354W        W38970  24.768  10.716   0.784
67355W        W38971  39.759   3.232  10.666
67356W        W38972  19.578   2.562  11.137
67357W        W38973  22.650   3.983   4.972
67358W        W38974  16.204  25.717  12.988
67359W        W38975  30.962  12.316  12.025
67360W        W38976  12.824   5.682   4.203
67361W        W38977  16.828  38.890  10.728
67362W        W38978  32.073  30.628   3.881
67363W        W38979  16.473  15.743   0.043
67364W        W38980   9.844  27.568  13.825
67365W        W38981  31.215  28.622  14.761
67366W        W38982  12.830   9.603  12.049
67367W        W38983   2.367  32.128  11.705
67368W        W38984  18.455   1.341   1.518
67369W        W38985  25.512  39.534  14.724
67370W        W38986  19.641   2.209   1.052
67371W        W38987   3.908  36.984   3.789
67372W        W38988  41.525  44.408   3.800
67373W        W38989  14.330  28.686   0.870
67374W        W38990   5.565  30.037   1.751
67375W        W38991  38.446  14.553  12.915
67376W        W38992  15.706  13.381  10.745
67377W        W38993  32.085  17.394  14.498
67378W        W38994  41.876  11.845   0.991
67379W        W38995   8.383  14.552   2.271
67380W        W38996  35.755  19.700  11.011
67381W        W38997   1.158  44.525  12.873
67382W        W38998  33.039  21.473  14.911
67383W        W38999  11.103  27.386   4.231
67384W        W39000  28.178  25.556  11.588
67385W        W39001  20.037  13.951  11.026
67386W        W39002  23.332   8.719   1.081
67387W        W39003  43.501  15.339   3.745
67388W        W39004  40.627   1.348   0.345
67389W        W39005  13.718  42.625  13.114
67390W        W39006  17.654  17.723  10.953
67391W        W39007  18.569  39.566   0.874
67392W        W39008  34.411  15.556  12.569
67393W        W39009  43.245   6.936  10.627
67394W        W39010  26.620  10.830  10.707
67395W        W39011  31.016  18.088  14.846
67396W        W39012   0.621  21.252   4.022
67397W        W39013  15.550  28.202  13.501
67398W        W39014   6.050  15.271   1.826
67399W        W39015  12.075  43.391   1.674
67400W        W39016  33.850  20.145  11.564
67401W        W39017  30.414  38.013  10.468
67402W        W39018   8.210  21.667   0.307
67403W        W39019  41.442  32.034  13.464
67404W        W39020  17.921  18.824   1.485
67405W        W39021  37.924  24.232   3.191
67406W        W39022  16.166  34.417  14.920
67407W        W39023  41.455  11.033  10.690
67408W        W39024   8.091   0.064  11.107
67409W        W39025  29.006   0.292   2.754
67410W        W39026   3.835  17.861  12.910
67411W        W39027   4.913   4.821  13.312
67412W        W39028  21.045  37.900  14.557
67413W        W39029  19.147  44.787   4.592
67414W        W39030  33.909  12.636   4.490
67415W        W39031   9.863  16.301  12.489
67416W        W39032  19.656   7.063   2.306
67417W        W39033  15.830  30.740   3.738
67418W        W39034  24.514  16.363   2.469
67419W        W39035  27.495  31.071  11.176
67420W        W39036  22.631  20.703  11.182
67421W        W39037  29.825  21.335   4.186
67422W        W39038  12.137  25.213  12.932
67423W        W39039  18.346  44.252   0.414
67424W        W39040   2.472  17.284  12.446
67425W        W39041   5.297  21.629   1.255
67426W        W39042  17.646  42.416   1.455
67427W        W39043  36.590   9.983   4.186
67428W        W39044  38.479  25.245  10.677
67429W        W39045  26.575   9.154   4.334
67430W        W39046  38.940  34.892   4.682
67431W        W39047  25.568   8.849  10.573
67432W        W39048  25.706   0.580   1.135
67433W        W39049   0.897  42.525  11.971
67434W        W39050  34.152  34.031  14.380
67435W        W39051  28.711  14.732   2.288
67436W        W39052  39.030   3.664  11.492
67437W        W39053  31.082  16.514   3.748
67438W        W39054   2.427  24.347   2.935
67439W        W39055  36.314  37.003   1.184
67440W        W39056  24.536   7.949  12.793
67441W        W39057   3.401  21.112   1.754
67442W        W39058  24.498  38.668   4.031
67443W        W39059  38.976  22.215   2.564
67444W        W39060  38.870  12.105   2.339
67445W        W39061  11.128  25.550  13.468
67446W        W39062  23.228  14.340  13.363
67447W        W39063  17.268  12.953   4.499
67448W        W39064   1.299  33.895   1.420
67449W        W39065  37.224  23.934   9.960
67450W        W39066  35.910  13.858   2.738
67451W        W39067   1.116  42.956   1.339
67452W        W39068   7.637  28.185   3.391
67453W        W39069  27.308   1.852   1.993
67454W        W39070  10.365  21.648  11.672
67455W        W39071  26.206   8.732   3.486
67456W        W39072  14.722  38.490   4.898
67457W        W39073  17.757  44.225  10.614
67458W        W39074   1.347  34.555   3.437
67459W        W39075  37.415  26.788   0.554
67460W        W39076  34.455  13.126  13.743
67461W        W39077  35.598  16.607   1.731
67462W        W39078  22.075  43.956   3.628
67463W        W39079  44.167  16.310   3.653
67464W        W39080  44.299  41.572   4.225
67465W        W39081  26.589  24.833   0.003
67466W        W39082  40.305  38.574   0.352
67467W        W39083  25.949   4.745   0.410
67468W        W39084  18.771  16.227  14.786
67469W        W39085  39.605  38.946  13.497
67470W        W39086  30.574   6.371   1.339
67471W        W39087   8.898  22.292   2.851
67472W        W39088  10.831  17.037   1.603
67473W        W39089  10.898   1.304   0.744
67474W        W39090  22.517  33.985   4.257
67475W        W39091  35.600  11.574  14.374
67476W        W39092  38.869  22.177   4.481
67477W        W39093  40.455   0.812   2.380
67478W        W39094  32.526  28.703   4.927
67479W        W39095  12.871   0.813  11.081
67480W        W39096  30.574  25.470   3.240
67481W        W39097  32.559  21.737  12.108
67482W        W39098  19.765  12.955  13.297
67483W        W39099  17.690   0.263  10.620
67484W        W39100  11.852   1.585  10.235
67485W        W39101   6.839   3.030   4.085
67486W        W39102  34.520  17.740  13.610
67487W        W39103  34.411  22.215   0.911
67488W        W39104  21.687  27.519   4.558
67489W        W39105  28.558  18.330  11.861
67490W        W39106   3.924  27.597  11.337
67491W        W39107   9.762  26.157  13.539
67492W        W39108   7.369   2.833  11.813
67493W        W39109  38.304  38.072  11.174
67494W        W39110  37.674   5.003  13.853
67495W        W39111   4.918  34.158  11.633
67496W        W39112  26.050  16.131  14.721
67497W        W39113  15.178  44.246   3.612
67498W        W39114  38.565   3.398   2.722
67499W        W39115  43.580  22.562  11.545
67500W        W39116   8.517   7.349   4.386
67501W        W39117   0.315  35.520   2.245
67502W        W39118  17.504  33.360   0.069
67503W        W39119  44.796  27.664   0.270
67504W        W39120  32.932  17.583  13.116
67505W        W39121   6.249  28.692  12.528
67506W        W39122  12.187  36.367   0.894
67507W        W39123   6.336  30.002   2.347
67508W        W39124  33.102   6.818  12.743
67509W        W39125  44.701  36.663  12.489
67510W        W39126  39.378   3.733   1.278
67511W        W39127  43.910   9.026   1.833
67512W        W39128   7.556  24.203  13.983
67513W        W39129  13.662  42.307  11.196
67514W        W39130  36.514  32.176  13.442
67515W        W39131  34.601  27.253   1.258
67516W        W39132  27.085  40.899   1.206
67517W        W39133  40.175   1.770   2.614
67518W        W39134   7.511  32.629   4.272
67519W        W39135  24.654   1.721   2.411
67520W        W39136  33.029  31.962   0.416
67521W        W39137  17.367  44.695  13.906
67522W        W39138   2.225  35.893   4.537
67523W        W39139  38.915   2.941  11.106
67524W        W39140  39.465   3.481   0.834
67525W        W39141  12.169  44.284   2.619
67526W        W39142  17.207  36.970   0.494
67527W        W39143  41.820  29.960   0.012
67528W        W39144  12.189  17.303  11.630
67529W        W39145   8.844  37.279   2.057
67530W        W39146  41.456   3.058   0.436
67531W        W39147  41.791  35.119   3.737
67532W        W39148  35.237  12.675  13.437
67533W        W39149  42.069  22.256  12.933
67534W        W39150   5.878  23.441  14.763
67535W        W39151  28.672  30.041   5.485
67536W        W39152  42.092  12.441  14.397
67537W        W39153  36.312  29.017  11.907
67538W        W39154  22.512  41.504   0.695
67539W        W39155  41.065  41.885   3.670
67540W        W39156  35.869  14.329  14.062
67541W        W39157   4.034  22.576  14.736
67542W        W39158  32.959   3.372   1.474
67543W        W39159  15.892  42.635   1.668
67544W        W39160  34.623  29.920  13.370
67545W        W39161  14.319  40.342  12.650
67546W        W39162  18.655   3.408   1.914
67547W        W39163  41.814  29.166   4.116
67548W        W39164   5.667  44.220   1.647
67549W        W39165  13.543  33.883   1.143
67550W        W39166  12.203   9.714   2.254
67551W        W39167  25.665  14.115  13.840
67552W        W39168   8.314  10.932  14.499
67553W        W39169  32.990  30.879   3.287
67554W        W39170  27.151   1.502  12.807
67555W        W39171  44.048  12.287  13.013
67556W        W39172   5.362  30.519   3.685
67557W        W39173   9.296  31.792   5.018
67558W        W39174  14.859  21.064  12.507
67559W        W39175  27.649   4.734  14.687
67560W        W39176   6.235  11.366  14.779
67561W        W39177  22.020  44.542   0.392
67562W        W39178  43.805   5.663   3.955
67563W        W39179  29.542  28.162   4.637
67564W        W39180  11.038  14.781  13.471
67565W        W39181  44.222   2.402   5.007
67566W        W39182  30.977  41.328  10.774
67567W        W39183  38.461  15.324   0.472
67568W        W39184  42.581   1.714   3.307
67569W        W39185   4.529  26.888   0.072
67570W        W39186  15.641   4.504   1.749
67571W        W39187  22.891  23.582  11.967
67572W        W39188   9.601  12.673  10.775
67573W        W39189  39.981  37.954   4.200
67574W        W39190  22.147   2.929  12.940
67575W        W39191  43.496   9.254  13.957
67576W        W39192   6.711  11.795  11.850
67577W        W39193  13.124  33.051   0.841
67578W        W39194  10.894   7.350   1.870
67579W        W39195   9.883  25.707   1.287
67580W        W39196  24.982  41.083   3.271
67581W        W39197  13.806   9.697   2.760
67582W        W39198  16.003  22.742  13.560
67583W        W39199   2.753  44.009  13.424
67584W        W39200  43.005   2.758   2.382
67585W        W39201  22.956  24.776   0.437
67586W        W39202  32.779  21.690   2.750
67587W        W39203   6.822  22.150  10.765
67588W        W39204  42.096   7.841   1.891
67589W        W39205   8.443  32.920   0.551
67590W        W39206  34.290  31.855   0.488
67591W        W39207   5.890   9.650   2.379
67592W        W39208  14.086  13.499  12.014
67593W        W39209  27.087  39.303   4.503
67594W        W39210  29.832  43.246   4.539
67595W        W39211  42.743  31.995  14.112
67596W        W39212  42.313   2.493  13.435
67597W        W39213  44.164  36.903  11.913
67598W        W39214  14.615  41.224   0.223
67599W        W39215  23.545  18.550   4.604
67600W        W39216  27.738  27.677  13.498
67601W        W39217   4.240  28.566  12.088
67602W        W39218  29.008  37.863  10.382
67603W        W39219   9.561  42.430   1.936
67604W        W39220  12.713  10.376  12.442
67605W        W39221  41.230  13.068  11.122
67606W        W39222  28.389  16.644   4.169
67607W        W39223  44.501  39.447  13.801
67608W        W39224   9.143  12.383  14.315
67609W        W39225  20.531  37.578   4.954
67610W        W39226  29.549   1.931   5.102
67611W        W39227  15.722  14.831   4.358
67612W        W39228  28.585  29.223   4.694
67613W        W39229  29.002  10.670   3.782
67614W        W39230  11.269   6.816  11.185
67615W        W39231   8.308  38.427   0.953
67616W        W39232  38.095  28.978   0.416
67617W        W39233  29.558   4.386  11.972
67618W        W39234  26.185   5.402  11.749
67619W        W39235  31.847  39.518   4.105
67620W        W39236   7.822  14.609   4.423
67621W        W39237  24.558  26.136   4.239
67622W        W39238  29.699  32.596   2.316
67623W        W39239  16.530  28.520   2.810
67624W        W39240  11.326  22.546  13.715
67625W        W39241  30.168  19.140   1.223
67626W        W39242  43.808  15.519  13.003
67627W        W39243  14.539  33.026  12.613
67628W        W39244   1.880  22.817   3.576
67629W        W39245  27.500   6.439   1.213
67630W        W39246  25.729   6.367   3.744
67631W        W39247  39.921   2.255  14.755
67632W        W39248  13.117  26.334  11.087
67633W        W39249  42.952   4.921   3.615
67634W        W39250  25.549  30.416  11.725
67635W        W39251  27.783   3.880  11.963
67636W        W39252  29.872  15.038   2.701
67637W        W39253   8.672   1.503   4.098
67638W        W39254  39.990  35.537   1.338
67639W        W39255  31.682   3.778   2.131
67640W        W39256  44.510  10.891   2.845
67641W        W39257  42.294  12.266  13.957
67642W        W39258  39.658  10.661   5.460
67643W        W39259  17.495   1.460  12.914
67644W        W39260   2.912   5.019   4.287
67645W        W39261  37.396  28.091  11.605
67646W        W39262   1.339  22.436  11.450
67647W        W39263  35.543  38.583   4.712
67648W        W39264   2.270   4.494  12.507
67649W        W39265   9.673  23.455   4.727
67650W        W39266  22.257  15.466  10.903
67651W        W39267  39.645  13.607   4.529
67652W        W39268  33.112  32.408   0.117
67653W        W39269  28.982  21.440  10.174
67654W        W39270  28.189  30.091   3.676
67655W        W39271  26.469  41.555  13.252
67656W        W39272  38.564   2.031   1.919
67657W        W39273  38.136  38.975  13.046
67658W        W39274  44.309  16.170   3.156
67659W        W39275  24.620  26.410   0.742
67660W        W39276  38.016  25.650   1.999
67661W        W39277  28.237  32.869   3.689
67662W        W39278  26.550  27.974  14.818
67663W        W39279  21.541  19.536  13.058
67664W        W39280  34.001   7.125  13.102
67665W        W39281  44.267  33.580   4.579
67666W        W39282   1.955  42.453  12.711
67667W        W39283  40.206  43.357   2.989
67668W        W39284  42.346   6.365  10.623
67669W        W39285  11.671  40.616  12.570
67670W        W39286  29.397   9.229   1.607
67671W        W39287  36.505  39.037   4.647
67672W        W39288  27.168   2.573  14.778
67673W        W39289  10.606  29.669   4.507
67674W        W39290   3.027  19.302   2.808
67675W        W39291  13.593  33.529  13.124
67676W        W39292  20.515  14.310  14.557
67677W        W39293  42.334  38.440   5.771
67678W        W39294  12.235  18.742  14.421
67679W        W39295  41.257  43.570  11.909
67680W        W39296  25.607   7.976   1.451
67681W        W39297  24.640  35.609   2.353
67682W        W39298   6.659   7.177  10.500
67683W        W39299   8.940  41.474   4.050
67684W        W39300   3.878  11.202  13.309
67685W        W39301  15.576  21.360  11.317
67686W        W39302  24.144  21.725   4.657
67687W        W39303  27.005   9.667   3.719
67688W        W39304  10.822  33.385  12.548
67689W        W39305  34.388  34.942  11.116
67690W        W39306  26.939  38.467  11.234
67691W        W39307   4.738  38.060   3.100
67692W        W39308  39.734   2.110  13.051
67693W        W39309  43.642  41.868  11.660
67694W        W39310  23.438  33.058  14.236
67695W        W39311   5.780   9.934   3.827
67696W        W39312  33.138  12.278   4.577
67697W        W39313  32.972  27.082   0.665
67698W        W39314   6.469  40.842  13.914
67699W        W39315  24.866  18.758   1.300
67700W        W39316  20.953  44.008   1.334
67701W        W39317  34.915  19.721   4.906
67702W        W39318  43.440  22.293  14.237
67703W        W39319   6.439  38.416  14.538
67704W        W39320  29.066  17.201   2.682
67705W        W39321  24.536  11.799  14.932
67706W        W39322   7.808  19.262   1.877
67707W        W39323  38.722  41.944  11.300
67708W        W39324  27.099  21.441  12.957
67709W        W39325   8.717  12.085  14.276
67710W        W39326  19.162  36.937  13.365
67711W        W39327  29.030  34.165  10.698
67712W        W39328   1.958  30.176   2.847
67713W        W39329  13.789  13.103   0.875
67714W        W39330  28.588  43.766   0.838
67715W        W39331   4.654  44.937  10.768
67716W        W39332  32.976  19.589  10.502
67717W        W39333   6.626   9.661  11.181
67718W        W39334   9.176  12.281   4.108
67719W        W39335   5.575  38.010  13.203
67720W        W39336  36.599  44.162   4.835
67721W        W39337  41.762   8.239   4.100
67722W        W39338  37.556   4.941  11.172
67723W        W39339  30.686  28.712  12.945
67724W        W39340  34.962  35.749   0.818
67725W        W39341  22.267  27.654  11.062
67726W        W39342   1.810  44.287  14.072
67727W        W39343  43.527   1.408   3.211
67728W        W39344  26.994  11.414  11.581
67729W        W39345  36.988  39.617   1.542
67730W        W39346  12.685   7.695   4.922
67731W        W39347  16.071   2.389   1.669
67732W        W39348  22.263  12.304   1.758
67733W        W39349   0.412   7.999  14.577
67734W        W39350  33.596  38.022  13.418
67735W        W39351  23.296  37.002  14.306
67736W        W39352  11.213  32.002  11.553
67737W        W39353  21.090  30.185  14.480
67738W        W39354   5.756   1.734   3.559
67739W        W39355   9.813  25.097  11.103
67740W        W39356  34.450  29.614   1.754
67741W        W39357  34.520  23.143  11.336
67742W        W39358   2.856  34.667   2.537
67743W        W39359  44.188  16.022   1.244
67744W        W39360   2.137  37.375   4.960
67745W        W39361  11.730   4.755   0.878
67746W        W39362  15.629  17.078   2.133
67747W        W39363  27.526  21.906   2.525
67748W        W39364  27.050  15.273  10.737
67749W        W39365  44.080  22.914  14.054
67750W        W39366  26.041  34.810   3.637
67751W        W39367  10.106  11.041  11.611
67752W        W39368  23.841  11.683   2.726
67753W        W39369   1.544  32.006   1.653
67754W        W39370   0.335   5.893   0.743
67755W        W39371  31.236   0.989   3.883
67756W        W39372  17.131  25.576  12.289
67757W        W39373   9.350  21.112  11.144
67758W        W39374  40.984  31.973  14.058
67759W        W39375  36.982  17.815   0.906
67760W        W39376  34.433   7.539   0.343
67761W        W39377  23.047   9.620   2.398
67762W        W39378  33.361  22.811   1.747
67763W        W39379  39.136  26.059  10.102
67764W        W39380  34.821  35.208  13.476
67765W        W39381  12.253  32.794  13.917
67766W        W39382   3.799  36.427  12.710
67767W        W39383  44.916  11.575  13.489
67768W        W39384   8.782  24.413  11.701
67769W        W39385  19.734  44.312   0.715
67770W        W39386   9.451  12.654   1.369
67771W        W39387   4.315  43.678   4.170
67772W        W39388  41.932  10.800  12.110
67773W        W39389  27.619  34.449  11.891
67774W        W39390  19.574   7.225  11.727
67775W        W39391   3.425  38.941   2.306
67776W        W39392  17.704  42.399   1.972
67777W        W39393  28.770  30.657   4.167
67778W        W39394  18.303  16.808   2.586
67779W        W39395  31.579  19.106   1.425
67780W        W39396   1.776  27.214  11.835
67781W        W39397  40.339  25.995  13.580
67782W        W39398  27.108  42.313  10.565
67783W        W39399  31.991  19.285   3.566
67784W        W39400  40.885  14.172   2.318
67785W        W39401  33.011   5.120  10.916
67786W        W39402   9.444  24.516   2.628
67787W        W39403  36.518  32.562   4.406
67788W        W39404  37.333  25.892  14.920
67789W        W39405   5.214  31.320  12.449
67790W        W39406  13.659  30.815   3.238
67791W        W39407  38.478  30.651   4.051
67792W        W39408  40.631   6.817  13.890
67793W        W39409  20.949  33.742   1.717
67794W        W39410  39.858  33.894   1.199
67795W        W39411   2.317  43.762   5.426
67796W        W39412  44.732  26.642   3.336
67797W        W39413  17.669  40.263   4.794
67798W        W39414  12.170  13.688   2.322
67799W        W39415  26.017   5.415  12.632
67800W        W39416   9.731  19.769  14.030
67801W        W39417  43.943  23.476   4.485
67802W        W39418  25.166  25.770   2.256
67803W        W39419  35.819  41.794   0.894
67804W        W39420   8.421  34.005  14.608
67805W        W39421  33.377  36.975   3.289
67806W        W39422  15.652  26.722  13.414
67807W        W39423  18.791  38.602   0.569
67808W        W39424  39.380  31.088  13.442
67809W        W39425  20.811  11.372   4.486
67810W        W39426  23.704  25.359  12.479
67811W        W39427  39.268  44.710   2.410
67812W        W39428   9.913  27.493   4.586
67813W        W39429  15.025  19.441  12.632
67814W        W39430  23.693  19.175   0.945
67815W        W39431  41.543  42.824  12.342
67816W        W39432  10.099  11.338   0.354
67817W        W39433  29.926  44.324   3.389
67818W        W39434   7.625  35.774   2.343
67819W        W39435  17.303  31.584  11.585
67820W        W39436   9.685  27.451  12.354
67821W        W39437  31.579  14.196   2.778
67822W        W39438   4.922  15.958  12.060
67823W        W39439  35.160  27.289  11.970
67824W        W39440   7.274  18.603  13.730
67825W        W39441  44.417   5.453   2.248
67826W        W39442  12.439   4.151   5.215
67827W        W39443  43.712  38.772   1.331
67828W        W39444  17.177  17.870   1.091
67829W        W39445   2.114  10.833   2.250
67830W        W39446  18.186  29.162   4.858
67831W        W39447  27.938   1.732  14.864
67832W        W39448  40.017  32.067  14.921
67833W        W39449  44.851  37.852  11.991
67834W        W39450  44.256  16.811  13.922
67835W        W39451  13.226  21.940  11.511
67836W        W39452  21.417  37.849   1.414
67837W        W39453  31.632  24.668   4.139
67838W        W39454  17.273  29.499   2.415
67839W        W39455  19.539   0.051   2.870
67840W        W39456  28.057  29.003  13.101
67841W        W39457  43.744  38.967  12.774
67842W        W39458  15.544  31.451  12.920
67843W        W39459  21.974   8.732   0.936
67844W        W39460  14.543  42.902  13.438
67845W        W39461  39.492   1.730  12.785
67846W        W39462  31.323  30.022   2.674
67847W        W39463   6.927  12.816  14.308
67848W        W39464  14.772  32.524   3.332
67849W        W39465  12.855   4.236   4.927
67850W        W39466  26.680  13.123  12.478
67851W        W39467  44.049   6.249   2.195
67852W        W39468  22.251  32.727  12.048
67853W        W39469  31.204  35.074  14.826
67854W        W39470   8.146  33.594  14.179
67855W        W39471  12.410  15.279   3.414
67856W        W39472  35.062   1.414  14.855
67857W        W39473  39.361  27.491   2.816
67858W        W39474  36.752  10.872   4.185
67859W        W39475  12.587  15.810  10.642
67860W        W39476  44.398  14.717   1.287
67861W        W39477  44.739   1.049  12.960
67862W        W39478  42.805  23.993   3.676
67863W        W39479  38.359  27.257   1.255
67864W        W39480  35.964  36.052  14.376
67865W        W39481  17.587  29.967  12.329
67866W        W39482   0.450   2.144   1.239
67867W        W39483  18.083  42.530  13.771
67868W        W39484  29.992  36.432   3.772
67869W        W39485  31.776  28.328   5.151
67870W        W39486   1.695  41.774   2.331
67871W        W39487  23.096  43.050   1.418
67872W        W39488  15.392   6.912   3.567
67873W        W39489  34.214  10.703   3.700
67874W        W39490   0.868  26.087   3.585
67875W        W39491  35.561  19.664  14.806
67876W        W39492   6.915  20.640  10.674
67877W        W39493  19.890  11.390   3.546
67878W        W39494   0.020  23.058   2.634
67879W        W39495  15.850  44.892   3.067
67880W        W39496  14.842  14.852  11.120
67881W        W39497  42.488   9.077   2.408
67882W        W39498   6.774  30.879   0.812
67883W        W39499  35.456  33.953   0.936
67884W        W39500  41.920  23.421  12.593
67885W        W39501  36.105  18.013  12.651
67886W        W39502  42.344  35.525   2.611
67887W        W39503  20.749  20.049  13.425
67888W        W39504  38.115  23.510   2.167
67889W        W39505  24.395  16.100   4.341
67890W        W39506  24.495  41.728   3.256
67891W        W39507   8.848  31.855   2.888
67892W        W39508  26.237   2.340  11.097
67893W        W39509  34.605  35.831   0.000
67894W        W39510  15.310  21.597  11.679
67895W        W39511   1.878  37.049  12.734
67896W        W39512  26.233   0.845   4.141
67897W        W39513  41.946  27.640   2.319
67898W        W39514  40.699  36.549   4.225
67899W        W39515  43.755  44.278  13.550
67900W        W39516  34.301   3.737   1.871
67901W        W39517  16.725  28.874  10.597
67902W        W39518  18.775  26.843   1.429
67903W        W39519  39.418   5.598   1.742
67904W        W39520  38.931  38.368   2.731
67905W        W39521  31.205   2.247   1.696
67906W        W39522  36.900  12.886   0.376
67907W        W39523  11.715  16.681   1.346
67908W        W39524  28.320  21.475   2.677
67909W        W39525   1.378  22.179   4.644
67910W        W39526  10.234   5.262  13.001
67911W        W39527  40.793  19.578   1.576
67912W        W39528   3.689  41.470   1.834
67913W        W39529  20.736  43.064   1.912
67914W        W39530  27.487  14.662  11.640
67915W        W39531  27.636  34.441   3.200
67916W        W39532  21.259  13.730   0.752
67917W        W39533  41.830  14.762  11.962
67918W        W39534  21.723  20.455   4.210
67919W        W39535   2.697  40.865   1.976
67920W        W39536   0.702   6.958   3.869
67921W        W39537   7.156   2.364  11.257
67922W        W39538  19.667  42.731  12.079
67923W        W39539  17.738   9.183  12.677
67924W        W39540  10.373   4.708  10.709
67925W        W39541  12.069  28.909   0.470
67926W        W39542  21.754  11.358  12.005
67927W        W39543  27.636  40.318   2.875
67928W        W39544  44.955  20.190  12.133
67929W        W39545   2.266  28.313   9.885
67930W        W39546  21.472  18.744   0.651
67931W        W39547  42.259   9.848  13.017
67932W        W39548   0.742  41.908   3.205
67933W        W39549   7.377  28.778  11.611
67934W        W39550   4.866  24.639   2.317
67935W        W39551  10.404   2.539  14.556
67936W        W39552  11.757  44.741   0.269
67937W        W39553  41.069  39.582  13.881
67938W        W39554  13.565  10.088   4.054
67939W        W39555  11.175  30.325   2.391
67940W        W39556   4.644   3.320  13.776
67941W        W39557  21.689  22.938  11.250
67942W        W39558  23.630  27.764  10.927
67943W        W39559   8.320  36.417   2.808
67944W        W39560  33.421  12.600   4.247
67945W        W39561  38.122   4.464   2.463
67946W        W39562  27.905   4.182   1.813
67947W        W39563   4.278  24.830   3.751
67948W        W39564   0.514   6.464  12.840
67949W        W39565  20.143  16.717  11.664
67950W        W39566   7.611  34.753   3.684
67951W        W39567  33.898  17.157   3.717
67952W        W39568  13.364  42.511   3.257
67953W        W39569  27.119   3.075  14.775
67954W        W39570  29.523   8.704  14.018
67955W        W39571  16.329  13.766  14.351
67956W        W39572  22.544  14.103   2.483
67957W        W39573  32.157  29.894  14.751
67958W        W39574  21.551   4.966   0.939
67959W        W39575  25.854  25.011  14.987
67960W        W39576  42.731  32.439   2.324
67961W        W39577  30.945  11.652   2.394
67962W        W39578   0.564  29.496  13.145
67963W        W39579  23.764  11.813   3.274
67964W        W39580  14.339  27.487  13.062
67965W        W39581   1.008  20.580   3.707
67966W        W39582  23.184  27.004   3.342
67967W        W39583   3.882  36.615   2.866
67968W        W39584  38.897  12.616  10.533
67969W        W39585  25.223  37.213   3.567
67970W        W39586  39.331  41.269   0.379
67971W        W39587   1.291   1.325  13.353
67972W        W39588  30.466   3.973   1.475
67973W        W39589  27.954  23.088   1.374
67974W        W39590  37.615  35.588   0.361
67975W        W39591  16.933  16.665  10.048
67976W        W39592  27.110  43.232   4.766
67977W        W39593  21.540   5.833   3.706
67978W        W39594  30.462  12.312  11.658
67979W        W39595  13.861  22.597  12.594
67980W        W39596   9.786  17.059   0.345
67981W        W39597  24.299  20.659  11.199
67982W        W39598   5.297   0.377   3.796
67983W        W39599  24.133  39.070   3.205
67984W        W39600  10.252  17.548  13.590
67985W        W39601  39.953  43.029   0.376
67986W        W39602  23.243   6.676  13.148
67987W        W39603  19.569   2.430  12.160
67988W        W39604   7.737  13.743   3.733
67989W        W39605  14.837  21.566   0.251
67990W        W39606  24.220  14.342   0.258
67991W        W39607  11.661  40.054   4.181
67992W        W39608   1.349  28.985   3.311
67993W        W39609  23.782  28.671  13.848
67994W        W39610  43.007   9.411  14.846
67995W        W39611   6.440  35.449  11.940
67996W        W39612  10.946  26.122  11.695
67997W        W39613  17.851  43.986   4.551
67998W        W39614   2.480  30.225   2.784
67999W        W39615  16.474  40.367   4.127
68000W        W39616  41.829  27.032  14.884
68001W        W39617  23.688  20.708   0.402
68002W        W39618   5.897  41.986  12.553
68003W        W39619   2.124   6.739   3.260
68004W        W39620  36.892   0.379   4.881
68005W        W39621  24.764  44.322  14.862
68006W        W39622  37.016  24.504  12.343
68007W        W39623  21.092  37.976  12.342
68008W        W39624  23.157  18.086  11.172
68009W        W39625   2.669   2.759  11.973
68010W        W39626   6.414  31.034  14.443
68011W        W39627  43.767  34.088   4.117
68012W        W39628  41.596  30.880  13.055
68013W        W39629  10.280  23.783  13.536
68014W        W39630  20.620  21.595   0.747
68015W        W39631  35.381  16.670  12.500
68016W        W39632  13.136  16.289   4.156
68017W        W39633  18.985  16.052   1.139
68018W        W39634  31.578  22.742  10.601
68019W        W39635  36.647  11.345   3.606
68020W        W39636  33.949  15.971   4.084
68021W        W39637   1.810  23.823  12.115
68022W        W39638   9.621  32.424  11.960
68023W        W39639  10.376  21.925  13.933
68024W        W39640   3.834  19.263   4.199
68025W        W39641  41.720  14.204  10.668
68026W        W39642  15.464   0.789   0.802
68027W        W39643  25.023  18.065  11.169
68028W        W39644  27.701  17.664   2.685
68029W        W39645  22.263   7.321   1.386
68030W        W39646  30.459  18.647   1.737
68031W        W39647  12.249  42.010   4.148
68032W        W39648  17.871   1.929  13.834
68033W        W39649  29.115  16.456   4.343
68034W        W39650   2.799   6.447  12.019
68035W        W39651  41.466  28.018  12.403
68036W        W39652  38.453  24.803   4.308
68037W        W39653  13.750  22.057  13.505
68038W        W39654  44.030  27.448   4.794
68039W        W39655   8.782  19.212  11.169
68040W        W39656  37.807   4.925  14.987
68041W        W39657   9.056  10.428   3.551
68042W        W39658  15.318  38.877  10.246
68043W        W39659  26.749  11.598  11.136
68044W        W39660  44.353  28.572  10.318
68045W        W39661  21.730   3.932   2.266
68046W        W39662  44.543  30.958   2.180
68047W        W39663  15.402  18.787   3.747
68048W        W39664   8.106  41.129   4.006
68049W        W39665   6.373  14.650   0.433
68050W        W39666  12.396  31.964   2.818
68051W        W39667   5.778   7.564  14.281
68052W        W39668  32.220  29.125  12.888
68053W        W39669  22.490  38.077  12.530
68054W        W39670  14.100  13.015  12.841
68055W        W39671  26.511  32.975  12.907
68056W        W39672  37.592  25.212   2.763
68057W        W39673   4.333   4.714  14.993
68058W        W39674  23.754  41.958   2.693
68059W        W39675  17.138  14.622   0.255
68060W        W39676  22.903   2.359  12.264
68061W        W39677  25.569  38.739  12.110
68062W        W39678  14.389  28.921   1.342
68063W        W39679   9.856   3.707  13.557
68064W        W39680   4.147  23.171   0.384
68065W        W39681   2.260   2.995  10.741
68066W        W39682  12.407  39.609  14.867
68067W        W39683  27.462  33.267   0.330
68068W        W39684  24.989  32.002  10.636
68069W        W39685  30.929   0.386  14.852
68070W        W39686  32.401   9.274  11.490
68071W        W39687  37.296  40.087  12.221
68072W        W39688   8.782  43.059   1.652
68073W        W39689   5.180  26.212  12.600
68074W        W39690  26.617  42.345   2.880
68075W        W39691   6.448   0.174   2.402
68076W        W39692  12.937  19.733   1.914
68077W        W39693   7.378  21.439   1.874
68078W        W39694   9.697  27.704   0.347
68079W        W39695  39.936  35.229  14.980
68080W        W39696  11.594   7.226   1.210
68081W        W39697  42.310  19.991  12.990
68082W        W39698  21.100  26.370   0.797
68083W        W39699  26.770  15.106  14.292
68084W        W39700  38.362   8.592  13.779
68085W        W39701  38.917   8.187   4.227
68086W        W39702  27.123  14.127  14.236
68087W        W39703  42.669  17.512  13.828
68088W        W39704  42.813  14.118   1.370
68089W        W39705  12.443   4.650  12.515
68090W        W39706   0.008  25.240  10.708
68091W        W39707  38.580  35.320  11.162
68092W        W39708  41.521  39.859  11.580
68093W        W39709  11.293  42.774  10.786
68094W        W39710  40.503  32.450   4.510
68095W        W39711  27.682  32.041  12.623
68096W        W39712  41.993  38.970   3.456
68097W        W39713   3.823  39.277   3.198
68098W        W39714   6.968   2.270   1.174
68099W        W39715  16.627  39.379   3.150
68100W        W39716   8.325  19.288  14.316
68101W        W39717  13.362   4.922  11.652
68102W        W39718   5.286  21.642  13.762
68103W        W39719  22.294  11.714  13.165
68104W        W39720   4.299  22.728   3.704
68105W        W39721  12.080   7.355   1.228
68106W        W39722  26.971   2.836   0.727
68107W        W39723   1.404  21.999   1.340
68108W        W39724  42.697   8.670  11.280
68109W        W39725  29.188  34.925  12.501
68110W        W39726  34.095  25.062  11.919
68111W        W39727  11.355   2.688   3.312
68112W        W39728  38.322  13.652   4.042
68113W        W39729   1.745  27.127  12.360
68114W        W39730  27.072  13.758   0.224
68115W        W39731  16.383  42.759  14.524
68116W        W39732  41.219  34.851  14.943
68117W        W39733   8.805   2.037   2.467
68118W        W39734  16.158  10.696  14.942
68119W        W39735  14.308  13.610   2.609
68120W        W39736  12.654  41.004  14.012
68121W        W39737  22.564  43.100   3.241
68122W        W39738  13.044  24.061   0.632
68123W        W39739  34.055  27.950   4.406
68124W        W39740   0.186  18.591   0.293
68125W        W39741  21.948   6.130  13.512
68126W        W39742   4.157  38.782  14.799
68127W        W39743  19.145   0.731   4.511
68128W        W39744   0.449  16.122   2.258
68129W        W39745  13.107  44.482   2.852
68130W        W39746  17.727  17.142  13.996
68131W        W39747  27.471   1.192  10.651
68132W        W39748  20.637  22.380  13.864
68133W        W39749  19.068   2.225   4.295
68134W        W39750   3.900  25.398   1.240
68135W        W39751   1.832  20.675   3.317
68136W        W39752  35.915  23.947  13.311
68137W        W39753  37.492   4.310   1.353
68138W        W39754   5.666  44.798   0.159
68139W        W39755  41.468  44.812  14.793
68140W        W39756  13.796  12.383   4.243
68141W        W39757   6.165   0.934   1.835
68142W        W39758  31.904   1.198  14.942
68143W        W39759  34.720  43.905   3.140
68144W        W39760   4.179  33.428  10.535
68145W        W39761  41.561  30.572  13.470
68146W        W39762  37.406  19.325  13.416
68147W        W39763   0.002  35.977  13.438
68148W        W39764  35.835   8.318   4.694
68149W        W39765  27.702  19.741  14.894
68150W        W39766  20.110   2.515  12.918
68151W        W39767  17.777  40.071  14.803
68152W        W39768   6.839  20.998   0.450
68153W        W39769  44.378  30.138   1.822
68154W        W39770  11.577   3.845   2.833
68155W        W39771  35.067  31.251   1.767
68156W        W39772  10.655  11.096  11.538
68157W        W39773   6.372   3.243   2.530
68158W        W39774  38.551  37.064   1.713
68159W        W39775  15.290  39.995   2.266
68160W        W39776  43.218  40.994  11.499
68161W        W39777  38.220   1.876  13.156
68162W        W39778   5.664   1.538  12.492
68163W        W39779   2.235  22.134  14.762
68164W        W39780   1.724   4.836   5.079
68165W        W39781  10.650  41.410   0.031
68166W        W39782  29.890  36.098  14.458
68167W        W39783  13.052  29.406   2.604
68168W        W39784   2.578  15.070  13.408
68169W        W39785   2.998  23.697   3.169
68170W        W39786  10.481   8.103  12.917
68171W        W39787  15.386  12.315  11.147
68172W        W39788  36.502   5.294   2.304
68173W        W39789  29.671  41.518   3.708
68174W        W39790   1.471  20.302  13.818
68175W        W39791   6.717   4.664   0.760
68176W        W39792   8.455   9.365   1.643
68177W        W39793   0.304  23.474   5.126
68178W        W39794   6.731  37.289  13.217
68179W        W39795  29.082   9.717   2.956
68180W        W39796  28.860   0.389  12.428
68181W        W39797   5.744  32.856  12.011
68182W        W39798  20.484  19.180   3.307
68183W        W39799   0.208  37.023  13.978
68184W        W39800  25.653  24.545  14.793
68185W        W39801  26.580  30.385   4.064
68186W        W39802  25.834  16.491   5.434
68187W        W39803   6.280  27.894   2.258
68188W        W39804  33.046   7.085  13.167
68189W        W39805  33.256  14.018  11.197
68190W        W39806  16.695  24.411   4.594
68191W        W39807  35.411  23.094  11.712
68192W        W39808   4.324   5.873   4.486
68193W        W39809   4.795  28.233  10.716
68194W        W39810  32.086   9.777   2.872
68195W        W39811  21.283   6.861   3.136
68196W        W39812   9.598  40.858  10.874
68197W        W39813  11.676   6.335   3.766
68198W        W39814  13.480  29.439   1.366
68199W        W39815  31.976  38.077  13.032
68200W        W39816  26.845  38.876   4.707
68201W        W39817  41.943  24.545   3.986
68202W        W39818  41.039  12.396  12.873
68203W        W39819  28.962  35.979   2.773
68204W        W39820  22.238  44.034   1.326
68205W        W39821  22.072  39.958  12.000
68206W        W39822  21.641  31.294  11.152
68207W        W39823   0.434   5.494  11.516
68208W        W39824  26.941  35.036   2.341
68209W        W39825   7.585   6.325  10.814
68210W        W39826   9.343  44.955  10.434
68211W        W39827   7.077   0.307  12.929
68212W        W39828   5.056  35.525   1.381
68213W        W39829   3.916  13.652  13.535
68214W        W39830  37.498   3.549   3.487
68215W        W39831  26.597   2.154   0.506
68216W        W39832  40.625  25.009  12.082
68217W        W39833  26.111  40.328   2.412
68218W        W39834  30.188  10.878  11.075
68219W        W39835  34.005  30.991  11.453
68220W        W39836  25.704  39.538  11.608
68221W        W39837  22.050   6.160  10.671
68222W        W39838   3.386  43.051   1.719
68223W        W39839   1.668  37.316  13.651
68224W        W39840  14.142  14.105   3.715
68225W        W39841  29.262  31.730  14.329
68226W        W39842  39.007  11.459  11.942
68227W        W39843  14.836  16.350   4.102
68228W        W39844  36.668  23.934  13.829
68229W        W39845  42.195  19.350   1.676
68230W        W39846   3.055  38.396   0.642
68231W        W39847  37.138  35.492   2.822
68232W        W39848  40.196  16.590   0.308
68233W        W39849  31.235  12.007  11.277
68234W        W39850   8.407  26.056   1.456
68235W        W39851   4.799   3.979   2.855
68236W        W39852  11.073  13.476   3.637
68237W        W39853  34.648   0.031   9.768
68238W        W39854  24.406  34.095   0.878
68239W        W39855  15.690   4.955  12.013
68240W        W39856  32.648  19.759  14.346
68241W        W39857  22.758   9.308  10.234
68242W        W39858  20.528   8.687  11.631
68243W        W39859  42.206  19.280   4.830
68244W        W39860  16.035  44.323   4.032
68245W        W39861  28.587  25.747   4.921
68246W        W39862  14.384  34.139   1.583
68247W        W39863  20.322  35.089   1.359
68248W        W39864   7.881  15.547  11.214
68249W        W39865  40.278  36.478   0.968
68250W        W39866  39.155  28.363  11.149
68251W        W39867  13.997  24.615  12.901
68252W        W39868  33.107   9.285   4.180
68253W        W39869  28.001   5.507   2.774
68254W        W39870   0.429  33.728  14.825
68255W        W39871  22.388  19.555   0.820
68256W        W39872  15.416  11.160   0.039
68257W        W39873  32.662  19.734  11.873
68258W        W39874  25.735   1.304   3.455
68259W        W39875  17.501  19.070  11.026
68260W        W39876   5.856  43.350   1.110
68261W        W39877  24.151   2.375   2.285
68262W        W39878   6.376  27.371   2.312
68263W        W39879   9.155   1.021  14.204
68264W        W39880   2.974  43.944  12.958
68265W        W39881   9.682  32.382   2.490
68266W        W39882  36.551   4.234  13.850
68267W        W39883  42.825  10.919   3.680
68268W        W39884  30.819  28.986   1.997
68269W        W39885   7.138  30.014   3.783
68270W        W39886  14.490  19.595  14.531
68271W        W39887  12.633   4.313   9.774
68272W        W39888  25.399   3.276   1.346
68273W        W39889  25.646  14.074   4.674
68274W        W39890  40.898  24.283   3.260
68275W        W39891  26.053  40.587  14.925
68276W        W39892  41.298   5.701  10.668
68277W        W39893  11.748  13.637  10.814
68278W        W39894  27.574  21.144   3.610
68279W        W39895  18.056   3.148  14.308
68280W        W39896  27.880  17.892   4.253
68281W        W39897   6.785  26.527  14.895
68282W        W39898  24.451  18.150  14.370
68283W        W39899  28.053  14.531  14.011
68284W        W39900   5.727  15.204  13.412
68285W        W39901  15.516   0.008  13.405
68286W        W39902  24.316  14.404   1.763
68287W        W39903  37.805  42.927   5.121
68288W        W39904  39.083  13.822   1.226
68289W        W39905  28.568  34.637   1.835
68290W        W39906  19.021  32.100   1.522
68291W        W39907  44.942  28.974   0.442
68292W        W39908  22.511  42.827   3.692
68293W        W39909  13.188   5.008   5.065
68294W        W39910  37.615  22.443  11.563
68295W        W39911   7.898   4.230   2.337
68296W        W39912  21.193  36.344  11.839
68297W        W39913  32.167  12.202  11.067
68298W        W39914  42.131  28.424   3.214
68299W        W39915   0.910  12.089   2.644
68300W        W39916  11.096   5.251  14.393
68301W        W39917  23.182  34.394  11.116
68302W        W39918   1.093  20.000  14.061
68303W        W39919  11.579  31.077   2.977
68304W        W39920  23.619  30.349  11.654
68305W        W39921  33.427   2.261   4.966
68306W        W39922  41.486  15.721   3.656
68307W        W39923  23.671   2.038   2.855
68308W        W39924  24.061   9.637  11.966
68309W        W39925  31.529  16.146   3.005
68310W        W39926  30.602  41.375   1.358
68311W        W39927   8.720  24.803  14.490
68312W        W39928  30.974  18.921  12.810
68313W        W39929   4.325   7.329   3.078
68314W        W39930   1.735  26.319   4.948
68315W        W39931  26.868  29.431   3.913
68316W        W39932  37.524  34.851   2.821
68317W        W39933  23.932   6.779   3.184
68318W        W39934  26.088  43.968   4.462
68319W        W39935  23.415  17.807   4.211
68320W        W39936  17.159  41.464  13.416
68321W        W39937  39.508  31.514   1.400
68322W        W39938   8.956  24.054   3.343
68323W        W39939  12.310  28.202  14.959
68324W        W39940  38.854  12.274   1.841
68325W        W39941  17.694  25.392   4.967
68326W        W39942  13.380   8.224  14.429
68327W        W39943  44.439  36.584  13.580
68328W        W39944  10.365  18.801  12.471
68329W        W39945   5.425   8.950   3.711
68330W        W39946  44.860  21.208   1.208
68331W        W39947  40.005  22.678   4.782
68332W        W39948  44.620  42.344  14.698
68333W        W39949   6.735   2.846  14.580
68334W        W39950   5.896  24.561  11.777
68335W        W39951  42.928  32.950   1.176
68336W        W39952  20.472   8.403   3.335
68337W        W39953   6.226   5.132   4.140
68338W        W39954  44.285  43.097  10.314
68339W        W39955   1.636  40.512  14.275
68340W        W39956  27.995  23.415  13.099
68341W        W39957  10.377  19.990  11.094
68342W        W39958  22.527  18.774  11.187
68343W        W39959  30.177   3.724   2.925
68344W        W39960  34.968  44.848  14.421
68345W        W39961  12.048  32.006   4.903
68346W        W39962   2.481  41.872  12.595
68347W        W39963  11.300  37.658   1.928
68348W        W39964  34.501  43.770   0.462
68349W        W39965  13.916  44.552  11.431
68350W        W39966  44.881  34.933   1.316
68351W        W39967  14.926  26.342   3.399
68352W        W39968  35.645  12.772  14.261
68353W        W39969   7.503  36.013  11.615
68354W        W39970  13.225  12.135  11.495
68355W        W39971  30.351   7.739  14.629
68356W        W39972   2.818  14.642   2.335
68357W        W39973  40.089  39.865  14.605
68358W        W39974   1.125  33.873   0.940
68359W        W39975  11.298   8.296  12.576
68360W        W39976  27.977   4.258  11.612
68361W        W39977   5.760  10.851   3.696
68362W        W39978  42.677  40.543  14.377
68363W        W39979  44.083  15.400   0.188
68364W        W39980   6.898  34.307   4.379
68365W        W39981  23.576  37.549   4.766
68366W        W39982  21.954  23.433  11.958
68367W        W39983  28.008  23.034   4.122
68368W        W39984  41.880   9.673  11.406
68369W        W39985  37.026  35.150  13.873
68370W        W39986  35.487  33.794   4.145
68371W        W39987  43.009  29.465   2.921
68372W        W39988  36.021   1.571   0.739
68373W        W39989  39.265  12.250   4.993
68374W        W39990  12.753   1.648  12.910
68375W        W39991  35.626  43.124  11.209
68376W        W39992  27.175   2.066  13.233
68377W        W39993  15.872  30.569   1.730
68378W        W39994  34.659  18.788  12.388
68379W        W39995  17.595  24.285   1.902
68380W        W39996  40.879  17.556   0.968
68381W        W39997  13.316  30.801  12.276
68382W        W39998  11.909  29.792  11.966
68383W        W39999  26.886  35.116  13.081
68384W        W40000  30.702  36.026  12.536
68385W        W40001   5.416  23.464  12.377
68386W        W40002  40.757  33.981   3.640
68387W        W40003  44.655  28.102   2.781
68388W        W40004   3.000  25.095  14.472
68389W        W40005   0.376  11.843  13.541
68390W        W40006  43.858  38.372  10.615
68391W        W40007   0.802  20.706  14.278
68392W        W40008  20.721  31.510  14.347
68393W        W40009  43.030   5.228  13.241
68394W        W40010  13.319   0.905   3.224
68395W        W40011   6.566  27.002   1.383
68396W        W40012   4.605  17.275   4.177
68397W        W40013  42.461  36.893  14.983
68398W        W40014  23.017  25.906  11.194
68399W        W40015  12.816  17.870   1.031
68400W        W40016  42.949  34.804   1.438
68401W        W40017  32.441  15.173   3.532
68402W        W40018  43.061  13.479   0.259
68403W        W40019  35.572  44.457   3.122
68404W        W40020   6.124  39.052   2.625
68405W        W40021  23.717  11.484  12.588
68406W        W40022   9.376   0.154  11.498
68407W        W40023  16.821   2.827   2.917
68408W        W40024   2.082   3.920   2.700
68409W        W40025  42.787  17.869   3.140
68410W        W40026  20.824  26.583   1.675
68411W        W40027   7.826   8.782   3.179
68412W        W40028  40.390  42.347   3.217
68413W        W40029  15.216  20.325  12.940
68414W        W40030  22.144   6.184   2.055
68415W        W40031  29.843  40.556   2.478
68416W        W40032  33.242  26.045   0.674
68417W        W40033  27.560  24.145  11.583
68418W        W40034   6.885  24.978  12.682
68419W        W40035  29.134  37.845   1.813
68420W        W40036   3.180  29.069  11.845
68421W        W40037  42.010  36.533   0.022
68422W        W40038  31.028  19.423  13.821
68423W        W40039  25.004  10.257   0.698
68424W        W40040   2.758  24.735  11.929
68425W        W40041  23.612  42.735  14.010
68426W        W40042  38.723   9.656   2.621
68427W        W40043  40.002  13.859  12.352
68428W        W40044  31.504  10.555   1.420
68429W        W40045  11.631  27.939  13.166
68430W        W40046  36.524  12.640  12.936
68431W        W40047  25.297  30.361  14.909
68432W        W40048  24.609  33.627   1.128
68433W        W40049  36.509  36.352  12.109
68434W        W40050  43.984  27.696   2.472
68435W        W40051   1.133   7.915   2.347
68436W        W40052  31.940  34.279  11.049
68437W        W40053  15.374  18.615  12.080
68438W        W40054  38.299  14.726   1.578
68439W        W40055  14.199   4.675  13.903
68440W        W40056  40.363  21.105   0.076
68441W        W40057  34.500   2.964  10.453
68442W        W40058   4.469  20.731  14.004
68443W        W40059  12.337  32.949   0.389
68444W        W40060  38.611  17.652  11.585
68445W        W40061  23.497  44.636   4.062
68446W        W40062  41.006   6.454  13.159
68447W        W40063   2.472  44.401   1.413
68448W        W40064  43.976  29.660  11.614
68449W        W40065   6.862  13.026   3.744
68450W        W40066  17.909  19.998  12.577
68451W        W40067  38.493  19.213  14.570
68452W        W40068  16.178   2.469  12.622
68453W        W40069  27.531   1.717   2.944
68454W        W40070  25.938   1.197   4.962
68455W        W40071   1.815   1.798  14.393
68456W        W40072  38.312  24.993   1.903
68457W        W40073  21.774   6.394   1.395
68458W        W40074   1.652  35.677  12.102
68459W        W40075  23.775  11.139   2.706
68460W        W40076  24.526  12.237   1.160
68461W        W40077   9.341  13.438   1.756
68462W        W40078   5.647  23.443  13.875
68463W        W40079  10.088   1.765   0.725
68464W        W40080  20.205  27.541  10.992
68465W        W40081  13.157  31.895  10.639
68466W        W40082   2.049  41.356  14.752
68467W        W40083  19.180  11.642   3.783
68468W        W40084  27.856  18.862  13.337
68469W        W40085  23.402   5.349  11.185
68470W        W40086  22.719  27.934  11.191
68471W        W40087   1.356   4.962  13.040
68472W        W40088   2.375  31.078  13.931
68473W        W40089  28.073  44.037  11.180
68474W        W40090  34.400  23.666  11.161
68475W        W40091   1.281  22.603  14.441
68476W        W40092  23.801  29.438  11.621
68477W        W40093  44.851  43.306   3.347
68478W        W40094  41.127  13.604  11.210
68479W        W40095  38.208   3.125  13.164
68480W        W40096  16.736  21.986   3.564
68481W        W40097  25.185  43.383  11.415
68482W        W40098  22.728  34.130  13.302
68483W        W40099   0.337  27.574   0.454
68484W        W40100   3.960  20.144   3.237
68485W        W40101  21.088  18.986   4.700
68486W        W40102   3.494  15.757   4.751
68487W        W40103  19.324  31.208   3.871
68488W        W40104  29.562   8.700   1.711
68489W        W40105  18.091   3.401  11.943
68490W        W40106  34.451   0.979   1.737
68491W        W40107  38.702   3.071   3.957
68492W        W40108  32.978  26.587  14.841
68493W        W40109  11.741  30.008  11.493
68494W        W40110   1.864  17.935  14.046
68495W        W40111  27.559  42.864  10.734
68496W        W40112   3.123  13.482   0.376
68497W        W40113  35.118  11.729  10.618
68498W        W40114  25.619  29.391  11.845
68499W        W40115  38.310  33.455   1.897
68500W        W40116  17.095  34.195  13.352
68501W        W40117   4.495  31.289  12.611
68502W        W40118  35.339  17.759   0.498
68503W        W40119   8.620  33.275  14.010
68504W        W40120  33.894  40.937   0.265
68505W        W40121  29.901  43.471  14.092
68506W        W40122  11.390  34.419   3.704
68507W        W40123  29.091   0.239   3.776
68508W        W40124   1.447  16.148   2.702
68509W        W40125  27.020  35.832  14.379
68510W        W40126  28.045  44.347   4.500
68511W        W40127  26.310  17.600  12.519
68512W        W40128   8.248   2.828  10.557
68513W        W40129  22.782   3.640   2.402
68514W        W40130  36.801  39.691   2.571
68515W        W40131  31.562   4.143  13.320
68516W        W40132  12.316  28.994   1.951
68517W        W40133  18.233  37.352   3.166
68518W        W40134   2.334  30.399  10.116
68519W        W40135  42.842  32.634   4.070
68520W        W40136  24.587  31.479  12.837
68521W        W40137  41.163  15.685  14.820
68522W        W40138  10.332  26.227   3.823
68523W        W40139  37.643  13.777  11.538
68524W        W40140  42.450   9.355  14.872
68525W        W40141  37.545  43.236  11.233
68526W        W40142  23.768  16.858   2.760
68527W        W40143  21.610   0.314   1.734
68528W        W40144   2.786  25.341  13.319
68529W        W40145   5.401  22.079  13.532
68530W        W40146  36.394   7.842  11.043
68531W        W40147  33.755  42.349  11.597
68532W        W40148  21.223   4.731   3.151
68533W        W40149   9.087  12.191  13.043
68534W        W40150  17.399  18.005   4.529
68535W        W40151  21.836  28.620   4.059
68536W        W40152  36.501  19.546   1.751
68537W        W40153  39.877  12.912  14.537
68538W        W40154  34.830   1.072  12.877
68539W        W40155   8.940  14.333  14.361
68540W        W40156  32.821  41.899   2.201
68541W        W40157  30.103  36.401  10.746
68542W        W40158  22.111   4.161  14.516
68543W        W40159  26.912  44.349  11.608
68544W        W40160  40.098  17.043   1.408
68545W        W40161  42.858  28.738  14.259
68546W        W40162  11.087  10.714  14.345
68547W        W40163  34.412  14.508  12.583
68548W        W40164  37.206   3.150  12.418
68549W        W40165  16.230  16.195   0.122
68550W        W40166   8.123  27.610   2.710
68551W        W40167  14.210   6.203   5.144
68552W        W40168   9.929  28.437  12.061
68553W        W40169  17.178  10.116  12.053
68554W        W40170  19.043  40.785  13.524
68555W        W40171  19.021  21.591   1.740
68556W        W40172   3.952  20.803  13.935
68557W        W40173   9.330  28.423   3.376
68558W        W40174  18.727   7.903   2.431
68559W        W40175  13.847   6.553   5.249
68560W        W40176  24.179   0.922   1.339
68561W        W40177   9.174  17.800   0.775
68562W        W40178  19.315  34.979   3.977
68563W        W40179  32.958  33.677  11.995
68564W        W40180  14.859  18.432   5.005
68565W        W40181   2.478  18.793  10.661
68566W        W40182  28.564  17.397  13.024
68567W        W40183  29.962  41.820  10.640
68568W        W40184  25.402  14.037   1.752
68569W        W40185  13.543  35.025  11.192
68570W        W40186   5.378  26.311   0.278
68571W        W40187  44.915   3.517  13.035
68572W        W40188  29.222  44.563  12.050
68573W        W40189   5.333  36.949   0.057
68574W        W40190  28.603  33.455   2.267
68575W        W40191   2.412  27.066  11.675
68576W        W40192  43.847  25.490   1.240
68577W        W40193  13.528   3.327   3.759
68578W        W40194  31.927   1.075  11.507
68579W        W40195   0.126   2.577   1.290
68580W        W40196  21.016   7.602  11.158
68581W        W40197  44.269  25.928  12.769
68582W        W40198  11.250  28.971   2.109
68583W        W40199  40.834  36.809  13.565
68584W        W40200   1.799  24.590   1.878
68585W        W40201  21.672   2.246  13.414
68586W        W40202  29.141  29.059  10.339
68587W        W40203  42.378  42.737   0.812
68588W        W40204  37.271   1.457  12.407
68589W        W40205  29.885  15.204  14.947
68590W        W40206  31.479  44.271   3.728
68591W        W40207  10.046  24.597   0.371
68592W        W40208   1.201  21.726   0.938
68593W        W40209  19.355   5.932   3.164
68594W        W40210   1.379  23.293  11.140
68595W        W40211  29.268  21.755   2.777
68596W        W40212  33.251  11.763  10.410
68597W        W40213  23.456   7.215   4.456
68598W        W40214  29.450   2.410  14.024
68599W        W40215  10.383  34.668   4.655
68600W        W40216   8.861   9.398  14.889
68601W        W40217  26.223  26.090   2.601
68602W        W40218  43.106  17.098   4.740
68603W        W40219  35.000  13.553  11.898
68604W        W40220  32.067  17.751  12.850
68605W        W40221  31.354  22.203  11.035
68606W        W40222   9.556  20.086  12.319
68607W        W40223  41.828  10.891   2.704
68608W        W40224  22.222   5.385  12.034
68609W        W40225  11.851  37.324   4.704
68610W        W40226  36.847  33.460  12.467
68611W        W40227  33.231   8.108  10.771
68612W        W40228  12.349  14.198   1.058
68613W        W40229  28.137  31.203  12.459
68614W        W40230  28.717   6.129   2.897
68615W        W40231  11.661  22.589  13.320
68616W        W40232   2.975  31.182   0.915
68617W        W40233  12.474  11.710  11.146
68618W        W40234  35.467   6.448   2.907
68619W        W40235  27.470  24.408  12.355
68620W        W40236  18.644  20.483  11.812
68621W        W40237   5.172   2.397  14.097
68622W        W40238   4.964  10.349   3.804
68623W        W40239  22.567   5.205   3.175
68624W        W40240   0.493  12.013   0.034
68625W        W40241  11.810   4.195  12.994
68626W        W40242  18.070   5.897   4.458
68627W        W40243   4.241   1.234  12.383
68628W        W40244  28.429  43.287  14.236
68629W        W40245   9.653   5.844   0.476
68630W        W40246  26.170  41.256   2.184
68631W        W40247   9.783  24.685   1.304
68632W        W40248  11.141  31.560   0.346
68633W        W40249  29.336  26.944  14.823
68634W        W40250  14.250  20.078   2.818
68635W        W40251  19.143  21.963  10.585
68636W        W40252  29.141   0.002   1.408
68637W        W40253  27.182   3.239   4.639
68638W        W40254  40.152  30.649  13.782
68639W        W40255  24.293  37.521  12.048
68640W        W40256  28.710  44.300   0.782
68641W        W40257  33.986   1.520   4.957
68642W        W40258  38.030  13.037  11.068
68643W        W40259   1.693  21.558   4.309
68644W        W40260   7.210  22.472  13.042
68645W        W40261  30.097   9.331   0.220
68646W        W40262   5.437  19.621   0.747
68647W        W40263  29.393  27.707   9.712
68648W        W40264   8.284  40.999   4.471
68649W        W40265  33.210  40.977   3.175
68650W        W40266  42.783  33.517   1.807
68651W        W40267  44.940  26.041   0.066
68652W        W40268  15.359  21.240   0.229
68653W        W40269  21.474   2.448  12.524
68654W        W40270  36.888  36.887   3.445
68655W        W40271   5.776   1.846  14.437
68656W        W40272   2.273   8.155  11.704
68657W        W40273  39.531  15.202   4.376
68658W        W40274   3.854  22.101   3.211
68659W        W40275   0.267  17.045  11.543
68660W        W40276  40.603  20.198  11.370
68661W        W40277  13.636   5.400  14.404
68662W        W40278  21.871  23.588   2.414
68663W        W40279  36.536   6.265   2.775
68664W        W40280   6.949  34.899   0.713
68665W        W40281  20.760  24.442   2.341
68666W        W40282  10.391  10.396   1.747
68667W        W40283  20.161  28.472   2.534
68668W        W40284  42.886  20.546   4.665
68669W        W40285  29.919  19.791  13.379
68670W        W40286  14.283  11.809   4.128
68671W        W40287  21.057  35.490   1.454
68672W        W40288  33.990  29.684  11.913
68673W        W40289   5.403  38.510  13.428
68674W        W40290  13.524   5.339   0.311
68675W        W40291   4.178  30.035   3.706
68676W        W40292  13.311  20.168  12.236
68677W        W40293  38.815  35.827  12.009
68678W        W40294  19.648   4.835   1.267
68679W        W40295  39.072  10.624  11.651
68680W        W40296  36.680  37.731  11.990
68681W        W40297   0.677  22.989   0.424
68682W        W40298  12.189   0.963   0.828
68683W        W40299   6.338  10.042   3.121
68684W        W40300  26.202   1.301  12.537
68685W        W40301  23.424   5.923  10.629
68686W        W40302  21.015  28.115  10.821
68687W        W40303  38.943   6.565  10.539
68688W        W40304  15.900  18.061   1.891
68689W        W40305  42.070  32.168   3.991
68690W        W40306  37.059  38.666   0.515
68691W        W40307  36.916  24.756   2.215
68692W        W40308  37.349  13.751  11.109
68693W        W40309   3.789  40.930  11.155
68694W        W40310  32.612  24.735   3.615
68695W        W40311   0.456   4.888  11.527
68696W        W40312  12.421  28.468  12.820
68697W        W40313  31.324   7.817  14.159
68698W        W40314   0.530  42.463   1.993
68699W        W40315  23.509  29.213   1.077
68700W        W40316   4.199  19.672   4.213
68701W        W40317   5.800   1.992   2.199
68702W        W40318  12.128  10.702  14.349
68703W        W40319  28.136  18.172   3.523
68704W        W40320  44.969   1.723   4.582
68705W        W40321  26.350  33.996  12.905
68706W        W40322  13.939  38.828   2.900
68707W        W40323   2.875  18.748   3.811
68708W        W40324  41.853  15.887   1.695
68709W        W40325  41.547  44.794   0.460
68710W        W40326  36.491  31.518   4.295
68711W        W40327   5.156   4.810   4.304
68712W        W40328   6.290   3.295  10.560
68713W        W40329   2.025  25.606  11.472
68714W        W40330  43.879  30.898   4.681
68715W        W40331  43.501  12.857  11.957
68716W        W40332  22.054  11.208  10.575
68717W        W40333  22.940   5.244  13.499
68718W        W40334  32.832  14.453  13.450
68719W        W40335  21.993  33.947  12.527
68720W        W40336  17.377  44.906   4.984
68721W        W40337  36.483  40.557  13.514
68722W        W40338  13.629  44.552   4.004
68723W        W40339  31.506  43.533   1.824
68724W        W40340   4.104  17.178   4.214
68725W        W40341  29.477  36.904   0.979
68726W        W40342  23.152  15.681   2.449
68727W        W40343  18.369   7.449  12.924
68728W        W40344  25.216  32.246   3.692
68729W        W40345  33.031   1.243  11.661
68730W        W40346  38.381  26.453   3.214
68731W        W40347  20.079  22.706  10.937
68732W        W40348  35.393  22.530   3.804
68733W        W40349  26.385  27.409  11.811
68734W        W40350  10.816  32.512  12.064
68735W        W40351  15.835  41.563   3.365
68736W        W40352  28.834   9.611   3.956
68737W        W40353  37.841  16.232   4.304
68738W        W40354   8.744  21.747  13.402
68739W        W40355  44.649   0.635  12.406
68740W        W40356   0.873  37.854  14.067
68741W        W40357  16.266  44.987   4.253
68742W        W40358   5.488  35.302   1.194
68743W        W40359   6.878  29.637   4.604
68744W        W40360  30.176   5.957  12.481
68745W        W40361  25.177  28.103   4.642
68746W        W40362  35.303  36.135  13.845
68747W        W40363  38.099   7.060  11.957
68748W        W40364   8.200   5.467  12.213
68749W        W40365  17.581  34.472   2.469
68750W        W40366  30.370  38.808   3.750
68751W        W40367   4.581  27.336  14.823
68752W        W40368  27.279  13.171   1.975
68753W        W40369  31.203  37.533  11.658
68754W        W40370   3.301  22.039   0.484
68755W        W40371  31.502  40.124  12.601
68756W        W40372   6.740   6.154   1.056
68757W        W40373   4.206   2.693   3.139
68758W        W40374  26.085  41.741   3.172
68759W        W40375  33.528  15.860  11.175
68760W        W40376  13.338  34.972  11.677
68761W        W40377  20.504  27.529  13.241
68762W        W40378  11.312   9.965  14.104
68763W        W40379  35.379  15.929  13.415
68764W        W40380  35.159  12.721  14.380
68765W        W40381  40.625  14.417  12.515
68766W        W40382  36.101  28.039  10.477
68767W        W40383  40.671  34.443  13.490
68768W        W40384  23.784  19.671  11.233
68769W        W40385  42.249   6.221  12.990
68770W        W40386  32.914  43.266   1.672
68771W        W40387  34.566   4.641  13.412
68772W        W40388  43.843   1.042   1.258
68773W        W40389  28.915   0.953   1.446
68774W        W40390   5.706  37.114  12.632
68775W        W40391  42.859  25.535   0.199
68776W        W40392  12.014  38.584  11.515
68777W        W40393  35.931  33.283  13.338
68778W        W40394  39.835   3.969   0.253
68779W        W40395   8.334  33.606  11.526
68780W        W40396   5.350   5.773   0.482
68781W        W40397  27.555  21.198   3.108
68782W        W40398   5.522  41.818   2.882
68783W        W40399  23.297  40.267   2.387
68784W        W40400  16.357  43.935  14.987
68785W        W40401   5.963  16.463  11.051
68786W        W40402  13.051  28.752   4.836
68787W        W40403   0.302  33.601   3.239
68788W        W40404   6.894  17.337  11.939
68789W        W40405  12.860  16.740   4.150
68790W        W40406  27.967   7.627  13.099
68791W        W40407  35.944  14.332   1.569
68792W        W40408  40.935   7.347  13.697
68793W        W40409  35.342  43.864   0.432
68794W        W40410   2.898   8.090   4.847
68795W        W40411  40.526  31.913  14.991
68796W        W40412  13.869  26.637  10.808
68797W        W40413  32.853   4.858  13.197
68798W        W40414  18.971  18.527   2.326
68799W        W40415  33.503  37.563  13.623
68800W        W40416  28.701   4.236  14.369
68801W        W40417  44.051  43.471  14.007
68802W        W40418  32.610  11.273   0.788
68803W        W40419   1.351  40.321   4.537
68804W        W40420  14.406  24.192   3.042
68805W        W40421   4.430  19.562   3.737
68806W        W40422   7.842  27.161  10.513
68807W        W40423  11.610   8.589   2.660
68808W        W40424  35.861   6.233   4.605
68809W        W40425   8.325  27.982   0.021
68810W        W40426  33.167   4.920   3.242
68811W        W40427  10.122   8.401  13.751
68812W        W40428   6.615  31.025   0.337
68813W        W40429  39.888  16.768   0.941
68814W        W40430  35.350  15.553   0.838
68815W        W40431   1.262  14.042  13.107
68816W        W40432   1.417  36.025   3.211
68817W        W40433  41.467  16.051   3.198
68818W        W40434   0.453  34.599   3.378
68819W        W40435  14.992  30.500  12.829
68820W        W40436  17.111  30.541   2.131
68821W        W40437  19.802  35.140   4.082
68822W        W40438  37.970  21.071  11.495
68823W        W40439  25.521  43.472  14.293
68824W        W40440   8.178  30.670   2.491
68825W        W40441  34.930  16.261   3.576
68826W        W40442  24.036   2.364  12.555
68827W        W40443  28.505  30.109  14.492
68828W        W40444  41.795  36.242  11.075
68829W        W40445  41.479  34.868  14.324
68830W        W40446  35.852  38.715   5.190
68831W        W40447  40.270   7.910   4.114
68832W        W40448   5.107  41.960   1.453
68833W        W40449  30.805  21.256  13.754
68834W        W40450  36.115  15.596  11.052
68835W        W40451  32.979  41.313   4.803
68836W        W40452   3.959   0.176   3.345
68837W        W40453  19.423  12.207   4.498
68838W        W40454  18.196  29.526  12.085
68839W        W40455   1.237  15.745  10.734
68840W        W40456  31.099  30.313   5.542
68841W        W40457  28.023   0.200   3.994
68842W        W40458  12.631   8.332   4.718
68843W        W40459   1.321  42.585  10.608
68844W        W40460  21.276  17.249   4.656
68845W        W40461  35.045  18.152  10.670
68846W        W40462  16.634   0.754   1.688
68847W        W40463   2.698   4.439  13.384
68848W        W40464  44.866  24.014  14.735
68849W        W40465  12.675  34.821  12.824
68850W        W40466  24.210  36.381   5.026
68851W        W40467  32.529   0.696  10.259
68852W        W40468  18.556   1.934   4.107
68853W        W40469  22.792  28.003  14.345
68854W        W40470  31.590  29.701   4.631
68855W        W40471  11.976  20.674  11.260
68856W        W40472  42.943  38.396  13.092
68857W        W40473  27.303  10.867  12.777
68858W        W40474  15.576  27.214  13.371
68859W        W40475  19.225  18.742  12.909
68860W        W40476  28.410   2.452  14.699
68861W        W40477  36.456   5.434  12.028
68862W        W40478  44.287  10.209  11.729
68863W        W40479  12.252   6.188  12.559
68864W        W40480  10.355  12.604   3.333
68865W        W40481  43.803  35.186   9.478
68866W        W40482   9.849  26.494  12.611
68867W        W40483  16.312  35.914  11.696
68868W        W40484  26.022   5.878   2.858
68869W        W40485  39.323  32.519   4.533
68870W        W40486  24.748   4.187   3.104
68871W        W40487  13.653   4.368   4.069
68872W        W40488   8.406   2.004   2.818
68873W        W40489  23.050  32.067  12.191
68874W        W40490  43.487  31.176   2.162
68875W        W40491  43.437  40.639   3.246
68876W        W40492  22.164  20.266  14.576
68877W        W40493  27.143  20.032  13.186
68878W        W40494  36.062  13.207   2.291
68879W        W40495   3.698   5.680  10.698
68880W        W40496   4.564  42.005   1.738
68881W        W40497  30.990  31.416  12.072
68882W        W40498   8.228   8.861  11.928
68883W        W40499  44.497  32.928   4.274
68884W        W40500  44.781  33.809   1.285
68885W        W40501  23.455   4.185  14.937
68886W        W40502  36.478  34.838   0.894
68887W        W40503  40.997  15.615   2.879
68888W        W40504  35.847  37.838   2.958
68889W        W40505  40.835  22.125  12.857
68890W        W40506   0.938   3.903   2.321
68891W        W40507  32.155  29.569   0.405
68892W        W40508   7.015   9.360  13.588
68893W        W40509   6.239  11.017  12.416
68894W        W40510  20.701  15.030  12.412
68895W        W40511   5.957  22.686  12.595
68896W        W40512  38.270   7.282   0.275
68897W        W40513  35.494  20.792   1.318
68898W        W40514  13.738  16.893  13.921
68899W        W40515  21.090  42.713  11.697
68900W        W40516  39.918   8.305   0.358
68901W        W40517  13.267   5.764  13.817
68902W        W40518  35.291   7.484   3.090
68903W        W40519   8.447   5.700   4.935
68904W        W40520  11.845  10.107   0.744
68905W        W40521  38.678  17.049  11.067
68906W        W40522  38.186  28.072   2.422
68907W        W40523  24.898  40.963   2.289
68908W        W40524   7.266  24.161  13.239
68909W        W40525  26.819  29.947  12.927
68910W        W40526   3.656   4.251  14.714
68911W        W40527  17.568  12.074  10.715
68912W        W40528   0.858  13.058  14.353
68913W        W40529  40.301  23.009  12.523
68914W        W40530  42.099  30.957  13.041
68915W        W40531  30.387  25.061   0.358
68916W        W40532   7.017  32.463   4.262
68917W        W40533  37.572   0.863   2.841
68918W        W40534   6.964  19.582  11.372
68919W        W40535  38.403   2.662  13.272
68920W        W40536  29.968  16.259   0.500
68921W        W40537  40.853  20.967  13.902
68922W        W40538  28.974  24.138  11.052
68923W        W40539  32.246  13.019   2.606
68924W        W40540  18.812  35.166  12.508
68925W        W40541   3.281  21.224  14.884
68926W        W40542  31.418   8.631  14.016
68927W        W40543   1.987  23.564  12.531
68928W        W40544  11.633  36.672  12.130
68929W        W40545  13.956  38.299   3.847
68930W        W40546  34.059  17.568  12.102
68931W        W40547  40.834  31.014  14.794
68932W        W40548  21.301  30.413   3.320
68933W        W40549  41.356  15.741   0.413
68934W        W40550  44.758  15.129  11.538
68935W        W40551  16.194  35.108  14.298
68936W        W40552  40.180   2.560  11.070
68937W        W40553   7.451   0.419  14.118
68938W        W40554   2.538  32.353  10.447
68939W        W40555  39.784  20.994   3.660
68940W        W40556   5.722  36.105  12.860
68941W        W40557  24.465  43.419   1.220
68942W        W40558   4.725  10.379  12.945
68943W        W40559  40.446  29.498   1.182
68944W        W40560  10.608  29.111  12.109
68945W        W40561  40.121  36.521  11.987
68946W        W40562  42.979  13.408  14.409
68947W        W40563  23.005   6.230   0.115
68948W        W40564   0.444  11.681   4.502
68949W        W40565  14.111   2.286   4.604
68950W        W40566  39.353  29.469  13.374
68951W        W40567  16.890  17.174  10.710
68952W        W40568  12.816  30.626   3.142
68953W        W40569  17.793  18.118   0.509
68954W        W40570   3.372  12.242   2.105
68955W        W40571  11.761  36.576  10.870
68956W        W40572  30.652  10.777   3.858
68957W        W40573  29.702  11.437  14.323
68958W        W40574  15.171  29.727  11.117
68959W        W40575  27.045  12.735   2.168
68960W        W40576   4.850  24.309   3.266
68961W        W40577  40.589  31.681  13.312
68962W        W40578  39.282  39.410  12.445
68963W        W40579  32.384   3.210  12.964
68964W        W40580  44.107  41.693  11.597
68965W        W40581  35.359  23.455  10.983
68966W        W40582   1.339   1.793  10.636
68967W        W40583  13.909  18.153  13.182
68968W        W40584   1.865  36.393  11.560
68969W        W40585  33.930   8.757  14.239
68970W        W40586   5.446  23.188   1.279
68971W        W40587  37.045  42.095  10.801
68972W        W40588  35.126  29.205   1.488
68973W        W40589  30.385  12.641   1.799
68974W        W40590  26.932  16.826   9.770
68975W        W40591  24.374   4.943  10.224
68976W        W40592  14.781  23.594  12.669
68977W        W40593  24.061   6.335  13.396
68978W        W40594  15.786  15.202   1.811
68979W        W40595   6.451  17.153  13.738
68980W        W40596  38.662  34.778  10.232
68981W        W40597  14.875  11.819   4.954
68982W        W40598   3.435  28.341  14.561
68983W        W40599  38.576  43.946   3.662
68984W        W40600   2.541  37.596   5.196
68985W        W40601  43.024  42.065   1.100
68986W        W40602  31.259   7.723  11.479
68987W        W40603  23.057  26.031  15.000
68988W        W40604   0.247  12.748   0.279
68989W        W40605   5.845  26.537  11.156
68990W        W40606  13.445  42.838  12.386
68991W        W40607   3.711  12.637  12.132
68992W        W40608   6.597  20.202   2.899
68993W        W40609  40.449  43.390  13.540
68994W        W40610  33.948  38.642   0.844
68995W        W40611  36.081  11.598  10.254
68996W        W40612  16.578  31.979   1.631
68997W        W40613   1.258  30.843  11.902
68998W        W40614  10.901   1.782  12.661
68999W        W40615  13.755  44.917  10.672
69000W        W40616  22.233  25.503   2.311
69001W        W40617  21.466   3.854  12.472
69002W        W40618   5.705  35.837  12.423
69003W        W40619   8.126   5.853  11.900
69004W        W40620  29.012  44.809   3.181
69005W        W40621  30.490   3.875   0.494
69006W        W40622   4.817   9.578  13.067
69007W        W40623  39.335  41.005   1.688
69008W        W40624   9.871   8.152   0.504
69009W        W40625  11.337  36.552   1.351
69010W        W40626  22.024  24.494   3.767
69011W        W40627   4.966  12.593   3.219
69012W        W40628  34.847   1.261  14.380
69013W        W40629  39.938   8.215  13.943
69014W        W40630  20.020  39.526   1.026
69015W        W40631  17.822   9.134  14.087
69016W        W40632  21.176  35.180  14.050
69017W        W40633  32.103  41.404   0.278
69018W        W40634   0.352   1.958  10.584
69019W        W40635  36.315   7.770  12.540
69020W        W40636  19.273   8.904   4.055
69021W        W40637   5.272  33.432   0.729
69022W        W40638  35.830  25.973   4.132
69023W        W40639   5.253  24.089   3.563
69024W        W40640  40.778  33.529  13.127
69025W        W40641  24.415  33.625  10.642
69026W        W40642  42.898  26.958  13.420
69027W        W40643   9.437   1.246   3.449
69028W        W40644   9.776  11.948  13.529
69029W        W40645  25.525  42.357  13.873
69030W        W40646  36.642  19.612   4.182
69031W        W40647  25.508  31.788  13.205
69032W        W40648  31.511   8.100  12.871
69033W        W40649  44.314  32.622   4.641
69034W        W40650  12.773   1.503  13.983
69035W        W40651  39.401  18.698   0.867
69036W        W40652  10.641   1.937  14.260
69037W        W40653  18.962  35.148   4.842
69038W        W40654   5.988   4.376  14.402
69039W        W40655   1.936  40.782   3.823
69040W        W40656  28.898  30.776  13.598
69041W        W40657  10.645  35.457   1.355
69042W        W40658  42.552  35.461  10.304
69043W        W40659  40.139  42.894  13.410
69044W        W40660   8.425  22.967  11.451
69045W        W40661  26.825  28.550   1.022
69046W        W40662  41.466   1.738  11.903
69047W        W40663  27.113  33.446  14.016
69048W        W40664   1.647   1.941   0.525
69049W        W40665  44.389   0.997   2.825
69050W        W40666  33.826  44.955  10.741
69051W        W40667  37.745   2.040   5.060
69052W        W40668  16.131  31.194   0.739
69053W        W40669  12.718  26.662   3.877
69054W        W40670   6.652  37.366  10.781
69055W        W40671  12.379  29.066  13.341
69056W        W40672  29.099  21.634  11.174
69057W        W40673  37.986  29.267  10.619
69058W        W40674  33.637  25.425   4.173
69059W        W40675   3.428   6.133   3.173
69060W        W40676  30.369  23.916   2.474
69061W        W40677   8.745  31.619  13.616
69062W        W40678  35.313  24.129   1.387
69063W        W40679  44.691  15.757   1.781
69064W        W40680  27.486  42.745   2.639
69065W        W40681  10.401   2.494  11.559
69066W        W40682  25.739  28.959   4.191
69067W        W40683  19.311  33.966   2.323
69068W        W40684  18.819  32.785   3.301
69069W        W40685  36.020  11.100  10.164
69070W        W40686  34.548  31.888   2.263
69071W        W40687  21.180  22.962   2.872
69072W        W40688  31.223  27.193   2.429
69073W        W40689  28.883  20.856  13.076
69074W        W40690  17.351  17.685   5.489
69075W        W40691  19.698  26.872   0.564
69076W        W40692  26.857   7.133  11.992
69077W        W40693  16.547  32.680  10.698
69078W        W40694   7.842   3.302  10.737
69079W        W40695  39.821  10.382  13.603
69080W        W40696   3.771  24.218   2.752
69081W        W40697  36.582  15.606   2.608
69082W        W40698  22.985  18.554   0.851
69083W        W40699  36.957   1.803   1.509
69084W        W40700  40.387   2.578   4.745
69085W        W40701   6.579  40.420  10.604
69086W        W40702  18.965  22.990   4.044
69087W        W40703  39.476   9.348   1.821
69088W        W40704   3.367  42.023  10.586
69089W        W40705  41.435  35.568  13.577
69090W        W40706  19.317   9.730   2.460
69091W        W40707   4.546  15.393  12.688
69092W        W40708  24.935  34.842   3.241
69093W        W40709  19.301  33.231   4.750
69094W        W40710  21.079   8.117  11.177
69095W        W40711  11.892  43.361   2.194
69096W        W40712  38.041   3.752   4.461
69097W        W40713  16.744  33.136  11.536
69098W        W40714   7.435  42.795  12.890
69099W        W40715   0.132  34.340  12.142
69100W        W40716  27.931  38.509  11.363
69101W        W40717  29.182  11.141  11.958
69102W        W40718  36.317  15.731   1.182
69103W        W40719   8.205   9.551   3.292
69104W        W40720  44.966  11.795   4.806
69105W        W40721  26.948  21.235   1.294
69106W        W40722  36.014  16.765   2.746
69107W        W40723  30.178  19.691  12.550
69108W        W40724   0.741  36.399   0.898
69109W        W40725  28.732  11.357   0.268
69110W        W40726   3.269   0.311  11.582
69111W        W40727  39.161  40.239   5.212
69112W        W40728  23.701   5.063  14.966
69113W        W40729  32.051  35.049  14.228
69114W        W40730  10.440   4.990  13.446
69115W        W40731  20.697  29.404  13.404
69116W        W40732  20.226   9.792  14.116
69117W        W40733  41.436   3.008   1.917
69118W        W40734  29.613  39.318  13.936
69119W        W40735   8.328  28.458  10.674
69120W        W40736  28.588   2.216   4.676
69121W        W40737  29.409  38.072  14.448
69122W        W40738  10.070  31.438  14.428
69123W        W40739  36.395  44.301  14.499
69124W        W40740   8.557  36.332   0.977
69125W        W40741  29.034  15.298   4.102
69126W        W40742  27.758  36.391  10.700
69127W        W40743  30.052  36.122   1.389
69128W        W40744  37.903  18.325  10.690
69129W        W40745  43.348  28.383  13.260
69130W        W40746  25.256  15.046   3.190
69131W        W40747  11.402  39.781  12.521
69132W        W40748  30.380  28.956   1.676
69133W        W40749  16.141  31.681   1.752
69134W        W40750  23.033  13.851   0.382
69135W        W40751  29.042  21.000  10.918
69136W        W40752   6.491   6.381  14.637
69137W        W40753  33.694  39.128   1.908
69138W        W40754  15.820  34.007  12.379
69139W        W40755   1.384  38.512  14.446
69140W        W40756  39.310  36.024   0.152
69141W        W40757  34.088  27.969   3.887
69142W        W40758  40.126   7.960  12.458
69143W        W40759   6.219   2.977  14.551
69144W        W40760   7.695   4.964   0.914
69145W        W40761  11.401  10.464   4.817
69146W        W40762  42.233   8.075  14.641
69147W        W40763  41.444  20.080  11.148
69148W        W40764  41.746  31.909  10.701
69149W        W40765  39.401  21.997   2.747
69150W        W40766  37.928  37.522   2.144
69151W        W40767  41.498  34.008   1.905
69152W        W40768  18.133  37.410   1.649
69153W        W40769  30.205  21.613  12.863
69154W        W40770  33.220  20.597  12.378
69155W        W40771  21.607   7.808   2.201
69156W        W40772   2.481  15.815   3.341
69157W        W40773  22.521  12.232   2.218
69158W        W40774  15.671  10.833   1.417
69159W        W40775  13.507  39.657  10.915
69160W        W40776  34.883   3.160   2.666
69161W        W40777  26.447  43.924   4.826
69162W        W40778   0.156  10.540  10.969
69163W        W40779   2.437  11.564   0.804
69164W        W40780  10.570  12.855  13.511
69165W        W40781   8.633  12.717  12.855
69166W        W40782  11.076  15.099   2.417
69167W        W40783   2.040  20.194   2.278
69168W        W40784  39.927  14.809   1.774
69169W        W40785  37.289  30.687   1.033
69170W        W40786  30.576   2.768  13.522
69171W        W40787   9.333   6.859   1.244
69172W        W40788  19.162  31.977  13.687
69173W        W40789  24.052  28.992   1.853
69174W        W40790   2.301  40.904  14.772
69175W        W40791  15.093  35.840  11.244
69176W        W40792  12.226  20.765   0.441
69177W        W40793   2.571   0.585   3.573
69178W        W40794   4.303  43.613  13.363
69179W        W40795  12.862  23.725  12.491
69180W        W40796  20.518  26.058  12.604
69181W        W40797   7.276  10.862   3.368
69182W        W40798  37.402  37.608  14.827
69183W        W40799  15.008  13.178   4.396
69184W        W40800   9.419   3.356  12.313
69185W        W40801   7.904   7.005   3.005
69186W        W40802  42.431  11.839   1.742
69187W        W40803  37.249  18.789   5.049
69188W        W40804  31.959  28.982  11.874
69189W        W40805  17.252  27.484  13.879
69190W        W40806  22.671  27.430  14.082
69191W        W40807  44.964   3.383   1.315
69192W        W40808  42.539  21.423   2.256
69193W        W40809   6.230  12.683   4.412
69194W        W40810  26.495   4.338  14.959
69195W        W40811   9.911  44.426  13.918
69196W        W40812  22.383  24.568  11.200
69197W        W40813  33.995  11.778   0.053
69198W        W40814  22.063   4.768   0.805
69199W        W40815   4.734  40.920   2.475
69200W        W40816  15.571  15.755   3.667
69201W        W40817   1.722  15.763   2.892
69202W        W40818  30.499   0.296  12.634
69203W        W40819  40.463  21.719   4.580
69204W        W40820   9.942  31.909   9.592
69205W        W40821  17.600  38.415   4.143
69206W        W40822  19.061  28.063   3.983
69207W        W40823   4.012   6.504   1.753
69208W        W40824  23.270  44.921  14.468
69209W        W40825  14.009  35.457  13.857
69210W        W40826   1.506   7.314   0.820
69211W        W40827  24.202   6.087   3.689
69212W        W40828   2.678  26.585  12.856
69213W        W40829   3.754   4.871   0.352
69214W        W40830  40.973  25.658  14.759
69215W        W40831  29.655  34.021  13.999
69216W        W40832  34.561  14.267   4.123
69217W        W40833  25.691  15.126  13.336
69218W        W40834  16.025  26.412  13.288
69219W        W40835  38.957  26.116   4.466
69220W        W40836   5.919  27.519   4.591
69221W        W40837  41.506  11.638   2.346
69222W        W40838  39.813  15.582  11.429
69223W        W40839   3.440  21.141   0.840
69224W        W40840  36.525  25.315  12.376
69225W        W40841  30.375   1.265  12.821
69226W        W40842   0.131  12.274   4.671
69227W        W40843  17.829   4.629  12.494
69228W        W40844  37.762  25.741   2.873
69229W        W40845  33.639  28.203   3.669
69230W        W40846  16.632  20.487  12.140
69231W        W40847  35.905  14.812  13.850
69232W        W40848   2.936  35.638  13.678
69233W        W40849   1.073  10.682   0.485
69234W        W40850  27.477   6.877  11.991
69235W        W40851  39.327  41.502  10.574
69236W        W40852  34.735   8.257  13.348
69237W        W40853  10.853  32.645   1.929
69238W        W40854  24.329  28.681  14.846
69239W        W40855  26.800  30.594  14.762
69240W        W40856  29.608  23.641   0.074
69241W        W40857  34.792  30.649   5.025
69242W        W40858  21.725  26.538  14.064
69243W        W40859  19.104  13.691   4.432
69244W        W40860  29.907   0.041  11.461
69245W        W40861  12.613  35.872   2.796
69246W        W40862  24.982  21.365   1.676
69247W        W40863  39.991  27.602   4.203
69248W        W40864  10.646  11.890   0.889
69249W        W40865  37.285  31.400  14.804
69250W        W40866  29.371   1.917  13.876
69251W        W40867  38.895  13.296   2.637
69252W        W40868  11.060  33.337  14.408
69253W        W40869  29.868  42.884  11.462
69254W        W40870  15.569   3.373  12.001
69255W        W40871   4.977  18.591  14.980
69256W        W40872  39.551  39.293   0.311
69257W        W40873  11.250  26.991   2.801
69258W        W40874  28.929  35.120  14.300
69259W        W40875  19.621  15.989  14.793
69260W        W40876   0.578  11.225   4.056
69261W        W40877   9.693  16.572   0.162
69262W        W40878  16.601   8.184  13.040
69263W        W40879  33.490   7.826   3.311
69264W        W40880   0.724  36.992  13.808
69265W        W40881  20.329  36.494  10.452
69266W        W40882  12.601  22.250   2.393
69267W        W40883  18.298  26.064  14.496
69268W        W40884  40.387  28.992   1.232
69269W        W40885   3.124  40.900   4.874
69270W        W40886   8.826   7.147   1.404
69271W        W40887  29.143   4.099  14.175
69272W        W40888  33.638  41.254   4.236
69273W        W40889  29.386  39.064  11.973
69274W        W40890   1.647  43.886   4.730
69275W        W40891  28.313  37.169   2.752
69276W        W40892  39.990   3.880  12.951
69277W        W40893  33.562  30.573  10.023
69278W        W40894  15.353  17.686   4.140
69279W        W40895  21.042  34.534   1.395
69280W        W40896  25.215  22.096   3.203
69281W        W40897  10.247   9.499   0.082
69282W        W40898  38.415  27.614  11.089
69283W        W40899  29.590  20.602  13.789
69284W        W40900  36.161  12.111  10.319
69285W        W40901   7.406   0.879  14.854
69286W        W40902  16.794   5.865   3.237
69287W        W40903  30.397  17.481  12.079
69288W        W40904  17.120  12.481  13.361
69289W        W40905  28.569  28.712  14.420
69290W        W40906   8.241  15.603  10.508
69291W        W40907   5.249  11.710  13.572
69292W        W40908   8.882  13.635   2.327
69293W        W40909   3.560  30.135  14.036
69294W        W40910  37.571  41.862   3.644
69295W        W40911  20.325  34.540  10.683
69296W        W40912  22.177  24.058   1.718
69297W        W40913  42.507  19.688  12.190
69298W        W40914  26.451  13.096  12.026
69299W        W40915   8.179  38.196  13.573
69300W        W40916  39.227  14.292   4.924
69301W        W40917  44.774  24.050   2.626
69302W        W40918  33.328  37.529   0.054
69303W        W40919  17.383   6.325   4.470
69304W        W40920  32.414  26.163  11.162
69305W        W40921  42.954  12.487   1.780
69306W        W40922  17.817   6.468  14.997
69307W        W40923  28.101   8.223   0.297
69308W        W40924  31.977  12.360  12.447
69309W        W40925   4.499   9.923   2.885
69310W        W40926  12.482  24.109   2.144
69311W        W40927  36.876  42.412   3.989
69312W        W40928  39.428  17.630   0.830
69313W        W40929  19.539  34.557   0.085
69314W        W40930  43.020  17.287   3.862
69315W        W40931  11.588  44.636   3.992
69316W        W40932  17.750   3.414  14.961
69317W        W40933  22.561  16.175   4.820
69318W        W40934  42.104  35.093   2.791
69319W        W40935  40.292  40.433   0.240
69320W        W40936   6.954  11.818   0.275
69321W        W40937  44.140  41.485   2.321
69322W        W40938  13.711   2.043   2.967
69323W        W40939  11.460   0.762  14.518
69324W        W40940  28.787   7.468  12.841
69325W        W40941   3.594   0.589  10.316
69326W        W40942  19.369  31.044  12.094
69327W        W40943  23.704  37.393  14.281
69328W        W40944   4.510  33.046   2.191
69329W        W40945  18.646  19.863   2.063
69330W        W40946  31.490  14.026   2.280
69331W        W40947   5.700  33.651   1.917
69332W        W40948  40.690  43.795   1.910
69333W        W40949  16.962  31.058  10.771
69334W        W40950   5.038  12.019  11.135
69335W        W40951   5.942   5.462  12.965
69336W        W40952  19.515  13.529  11.672
69337W        W40953  32.893  37.822   4.221
69338W        W40954  11.652  39.476   0.479
69339W        W40955  21.095  37.946  10.870
69340W        W40956  18.479  12.154  12.925
69341W        W40957   2.502  18.096  11.085
69342W        W40958  27.471  11.972  10.731
69343W        W40959   3.200  17.119   0.814
69344W        W40960  40.013  33.522   3.490
69345W        W40961  24.510  18.508   3.723
69346W        W40962  38.005  29.210  12.206
69347W        W40963  34.344  41.426  10.870
69348W        W40964  10.655  24.154   2.623
69349W        W40965  35.128  18.222   0.572
69350W        W40966   4.246  22.829  10.553
69351W        W40967  33.057  43.107  11.617
69352W        W40968  29.314  15.046  12.549
69353W        W40969  44.026  39.922  11.883
69354W        W40970  12.821   4.335   3.006
69355W        W40971  30.921  24.558   3.380
69356W        W40972  25.545  13.759  13.420
69357W        W40973  43.756  27.181  13.913
69358W        W40974  24.750  14.741   4.192
69359W        W40975  41.519  29.976   2.269
69360W        W40976  40.887  37.922  12.457
69361W        W40977   8.266  16.760   2.876
69362W        W40978  16.146  19.378  11.431
69363W        W40979  29.488   2.701  11.595
69364W        W40980  35.633  43.897   3.447
69365W        W40981  34.889  37.965  11.622
69366W        W40982   8.308  18.579   2.179
69367W        W40983  26.083   7.827   4.083
69368W        W40984  42.720   6.927   4.701
69369W        W40985   7.388  10.684   0.423
69370W        W40986   5.931  42.427  11.433
69371W        W40987  37.070  10.344   0.401
69372W        W40988  28.949  36.300  12.107
69373W        W40989  17.654  28.522  11.711
69374W        W40990  18.098  11.874  13.868
69375W        W40991  20.620  34.314   1.164
69376W        W40992  15.336   4.682   0.465
69377W        W40993  31.632   7.359   3.278
69378W        W40994  17.185  18.347  10.753
69379W        W40995  10.895  18.836  14.788
69380W        W40996  15.791   6.085  14.458
69381W        W40997  29.505  30.246   4.711
69382W        W40998  18.179  18.784  11.892
69383W        W40999  39.804   6.934  13.391
69384W        W41000  32.619  25.446   1.317
69385W        W41001  23.423  41.195  14.890
69386W        W41002  13.600   7.153   2.297
69387W        W41003   8.776  15.859  11.683
69388W        W41004   5.670   1.251   3.760
69389W        W41005  41.488   0.940  14.737
69390W        W41006  35.335  18.060  13.304
69391W        W41007  31.873   9.833  11.149
69392W        W41008  26.576  16.219   2.879
69393W        W41009  40.488  37.094   0.308
69394W        W41010  27.587   0.067  14.831
69395W        W41011   8.432  24.064   2.353
69396W        W41012  20.703   4.798  11.575
69397W        W41013  18.313  26.713   4.192
69398W        W41014  28.186  23.698   2.181
69399W        W41015   7.907  22.046   2.732
69400W        W41016  38.056   9.173   4.555
69401W        W41017  31.021   7.254  12.514
69402W        W41018  11.972   6.377   4.973
69403W        W41019  32.071  34.596  13.937
69404W        W41020  17.600  15.358   0.402
69405W        W41021   5.801  41.355  13.043
69406W        W41022  10.292   7.558   4.962
69407W        W41023  22.515  34.885  11.796
69408W        W41024   5.801  20.095  11.285
69409W        W41025  42.040  43.363   4.555
69410W        W41026  11.357  26.358  11.201
69411W        W41027   9.578   2.310  14.357
69412W        W41028   3.093  19.817   4.483
69413W        W41029  10.584   1.800   2.297
69414W        W41030  24.298  26.452  14.290
69415W        W41031  12.620   6.445  12.815
69416W        W41032  13.888   9.699  12.954
69417W        W41033   4.928   8.671   1.908
69418W        W41034   9.449   5.518  14.766
69419W        W41035  24.472  10.258   4.794
69420W        W41036  38.601  32.681  13.937
69421W        W41037  31.361  16.299  11.357
69422W        W41038  33.514  38.464  14.717
69423W        W41039  37.820  35.744   1.829
69424W        W41040  34.689  35.423  14.655
69425W        W41041  37.026   0.856  10.689
69426W        W41042  37.890  20.996   4.461
69427W        W41043   7.390  20.485  12.475
69428W        W41044  16.000  29.003   0.692
69429W        W41045  25.423   3.035   4.235
69430W        W41046  41.337  28.407   0.669
69431W        W41047  35.622  27.559   1.211
69432W        W41048   4.144  29.089  12.988
69433W        W41049  20.003  28.195   1.793
69434W        W41050  32.064   2.467   1.265
69435W        W41051  13.615  28.032  13.447
69436W        W41052   3.760  16.784  12.870
69437W        W41053  28.050   9.962  10.079
69438W        W41054  40.145  31.181   4.441
69439W        W41055  12.774   7.657  11.104
69440W        W41056  28.266  12.388   1.287
69441W        W41057  37.321  12.799   4.760
69442W        W41058  35.026  15.977   4.551
69443W        W41059  23.246  34.362  14.432
69444W        W41060   7.503  44.931  14.927
69445W        W41061  43.469  17.976   1.538
69446W        W41062  28.581  31.639  11.421
69447W        W41063   7.307  27.206  12.004
69448W        W41064  40.145  14.237  10.051
69449W        W41065  36.355   2.573  12.602
69450W        W41066  15.706  33.637  14.320
69451W        W41067  37.866   3.816  14.925
69452W        W41068  27.210  12.674   0.843
69453W        W41069   0.336  27.519   2.470
69454W        W41070   6.619  41.281   4.623
69455W        W41071  27.515  28.629  11.559
69456W        W41072  40.973  20.009  14.227
69457W        W41073  14.725  17.713  12.074
69458W        W41074  35.574  38.072   4.632
69459W        W41075   3.366  39.745   4.801
69460W        W41076  13.656   8.843  11.623
69461W        W41077  30.406  13.726  13.791
69462W        W41078  20.970  41.564   0.699
69463W        W41079  15.540  11.014  11.958
69464W        W41080  23.202  25.201   1.399
69465W        W41081   6.331  39.275   0.829
69466W        W41082  35.430  27.005  10.734
69467W        W41083  34.081  23.880  11.569
69468W        W41084  20.797  28.676   2.765
69469W        W41085  42.104   5.291  11.672
69470W        W41086  17.719  40.282   3.351
69471W        W41087   0.056  33.096  14.395
69472W        W41088  15.424  12.805  10.286
69473W        W41089  14.250  25.102  14.861
69474W        W41090   8.880  13.790   3.328
69475W        W41091  33.092  31.461   0.734
69476W        W41092  16.638   4.387   3.269
69477W        W41093   1.351  27.121   3.804
69478W        W41094  26.184  44.553   3.736
69479W        W41095  26.596  30.140   3.606
69480W        W41096   8.594  38.129  10.533
69481W        W41097  37.968  29.669   2.680
69482W        W41098  36.758   1.411  12.375
69483W        W41099   0.932  31.384  11.113
69484W        W41100  36.598   1.398  14.795
69485W        W41101  30.947  26.462  11.242
69486W        W41102  37.346  35.157   0.219
69487W        W41103  34.048  33.951   2.667
69488W        W41104  33.607  36.762   3.808
69489W        W41105  30.684   4.792  11.133
69490W        W41106  12.464  21.523   3.723
69491W        W41107  25.295  25.117  13.324
69492W        W41108   7.432  13.368   1.369
69493W        W41109   6.671  44.306  13.030
69494W        W41110  17.636  29.607   0.727
69495W        W41111  33.182   2.775  10.490
69496W        W41112   1.429  28.507  13.077
69497W        W41113   2.505   8.742  14.492
69498W        W41114  40.909  25.560  11.219
69499W        W41115  34.657   0.482  10.694
69500W        W41116  31.769  19.308   4.907
69501W        W41117   4.823  28.494  14.883
69502W        W41118   8.422  20.081   1.235
69503W        W41119  22.532  21.466   4.110
69504W        W41120   0.423  34.598   4.165
69505W        W41121  39.276  39.870   4.823
69506W        W41122  23.077  27.196   0.324
69507W        W41123  14.142   0.026  13.866
69508W        W41124  42.824  40.504   3.755
69509W        W41125  21.611  10.599  12.569
69510W        W41126  13.957  30.095  11.893
69511W        W41127   2.795   7.811   0.113
69512W        W41128  25.749  21.581  10.685
69513W        W41129  23.234  12.922  12.600
69514W        W41130   2.992  33.182   0.865
69515W        W41131  44.959  33.163   4.170
69516W        W41132   5.094  22.323  12.766
69517W        W41133  25.042   4.189  14.446
69518W        W41134  19.039  15.692   2.839
69519W        W41135   4.153   4.876   2.352
69520W        W41136  42.260  29.378  11.678
69521W        W41137  19.684   0.355   0.893
69522W        W41138  22.015  14.164   4.297
69523W        W41139  13.661   8.297   3.306
69524W        W41140   4.712  18.468  14.232
69525W        W41141  28.681  22.657  14.937
69526W        W41142  24.512  42.831  10.775
69527W        W41143  31.904  43.239   2.786
69528W        W41144  14.177   7.187  11.036
69529W        W41145   2.124  10.108  12.950
69530W        W41146   3.024   8.817  13.652
69531W        W41147  38.865  10.189   2.769
69532W        W41148  31.108  19.778  12.675
69533W        W41149  28.435   3.920  11.559
69534W        W41150  44.430  44.801   0.021
69535W        W41151  33.161   3.684  12.407
69536W        W41152  17.926  31.455   3.997
69537W        W41153  12.743   0.874   1.215
69538W        W41154  44.493  26.254   4.068
69539W        W41155   8.833  13.117   3.519
69540W        W41156  41.626   1.023   0.264
69541W        W41157  16.830   5.920  12.571
69542W        W41158  11.605  19.649   2.081
69543W        W41159   3.730  26.131  11.962
69544W        W41160   2.173  35.698  12.036
69545W        W41161  18.259  25.570   2.315
69546W        W41162  38.309  18.884  11.895
69547W        W41163   5.313   6.334  12.070
69548W        W41164  25.689  33.677   1.873
69549W        W41165  26.901  30.367  10.415
69550W        W41166  42.737   7.422  13.049
69551W        W41167  26.051  21.027   1.232
69552W        W41168  28.197  19.469  14.082
69553W        W41169   0.723  28.705  13.810
69554W        W41170   1.656  26.253  11.994
69555W        W41171  36.497   2.830  13.021
69556W        W41172  22.220   5.601   4.728
69557W        W41173  33.021  28.938  14.745
69558W        W41174  30.254   0.544  12.246
69559W        W41175  21.859  20.082  11.757
69560W        W41176  29.381  33.890   3.243
69561W        W41177  33.027  36.428  12.629
69562W        W41178  19.840  35.996   2.224
69563W        W41179  24.219  18.905   2.651
69564W        W41180  41.159  34.640  12.117
69565W        W41181  27.971  31.054  14.326
69566W        W41182  39.533   4.950  10.588
69567W        W41183  26.769  14.340  14.590
69568W        W41184  43.450  19.195  10.680
69569W        W41185  34.160  23.785   1.191
69570W        W41186  11.157  10.404   2.687
69571W        W41187  18.265  12.805  14.264
69572W        W41188  22.311  39.204  12.583
69573W        W41189  42.861  31.155   0.828
69574W        W41190  13.810  17.081   3.245
69575W        W41191  14.338   9.675   2.884
69576W        W41192  35.866  36.987  12.858
69577W        W41193  19.961  38.787   3.811
69578W        W41194  24.716  20.034  14.764
69579W        W41195  14.517  26.790   3.917
69580W        W41196   7.611  17.735   0.559
69581W        W41197  32.972   2.693  14.021
69582W        W41198  17.940  15.600   4.470
69583W        W41199  32.136  19.678  14.256
69584W        W41200  31.584  24.628   3.143
69585W        W41201  33.139   7.273   1.741
69586W        W41202   4.813  35.864  11.027
69587W        W41203   9.634   8.394   1.857
69588W        W41204   7.347  26.176   2.685
69589W        W41205  23.010  28.744  11.619
69590W        W41206  26.452  31.016  11.458
69591W        W41207  42.890  40.848  11.881
69592W        W41208  13.647  13.634  10.690
69593W        W41209  31.090  26.475   3.708
69594W        W41210  12.351  27.352  14.513
69595W        W41211  44.889  20.015   4.424
69596W        W41212  42.464   1.804   3.780
69597W        W41213  41.555  41.394  11.594
69598W        W41214  22.191  27.434  12.612
69599W        W41215  37.829  16.010  11.544
69600W        W41216  16.535  42.802   2.092
69601W        W41217  29.589  12.761   3.339
69602W        W41218  38.048   7.322  12.901
69603W        W41219  38.569  28.248   0.280
69604W        W41220  32.918  42.340   1.965
69605W        W41221  13.836  36.420  10.781
69606W        W41222  15.680  29.493   2.301
69607W        W41223  34.859  31.016   2.173
69608W        W41224   8.344   3.800   1.928
69609W        W41225  34.451  29.716  14.326
69610W        W41226  21.055  12.285  11.616
69611W        W41227  20.581  18.184  13.867
69612W        W41228  42.320   3.391   2.762
69613W        W41229  39.687   4.156   1.312
69614W        W41230  23.214  37.368  11.534
69615W        W41231   8.680  43.484  11.432
69616W        W41232  17.151   2.835   0.698
69617W        W41233  22.678  34.411  10.951
69618W        W41234  26.037  24.663   4.890
69619W        W41235  33.077  31.851  11.724
69620W        W41236  24.582  28.527   2.395
69621W        W41237  24.197  14.874  11.468
69622W        W41238  13.040   0.091   0.271
69623W        W41239  29.619  31.371  14.719
69624W        W41240   6.709   5.483   4.222
69625W        W41241  36.722  44.231  11.929
69626W        W41242   7.257   3.527  13.012
69627W        W41243  25.868  17.199   0.563
69628W        W41244  16.482  27.010   1.921
69629W        W41245   9.779   8.760  14.803
69630W        W41246  23.132  30.084   4.981
69631W        W41247  27.039  24.067  11.500
69632W        W41248  22.780  41.721  13.970
69633W        W41249  13.473   4.014   3.728
69634W        W41250  41.386  32.973  12.250
69635W        W41251  25.066   9.124   3.671
69636W        W41252   3.055  15.470   5.129
69637W        W41253  38.753  28.529  14.891
69638W        W41254  41.823   6.625  12.390
69639W        W41255   1.959  43.877  13.769
69640W        W41256   5.595   2.860   0.484
69641W        W41257  15.810  29.631   0.977
69642W        W41258   6.281   7.356  13.883
69643W        W41259  14.297  31.115   2.939
69644W        W41260  35.646   1.910   0.430
69645W        W41261  39.516  44.742   3.388
69646W        W41262  24.868  28.989   3.154
69647W        W41263   6.007   9.242  10.622
69648W        W41264  29.117  14.217   4.972
69649W        W41265  15.834   4.850  13.840
69650W        W41266  19.233   9.250   4.971
69651W        W41267  31.221  32.980  13.465
69652W        W41268  25.263  41.311   2.883
69653W        W41269  14.632   3.795   1.803
69654W        W41270   5.496  23.835  13.396
69655W        W41271  25.850  26.119  13.301
69656W        W41272  41.302   4.763   3.261
69657W        W41273   8.439   5.023  12.221
69658W        W41274  44.852  24.039   0.308
69659W        W41275   3.731  44.481   0.674
69660W        W41276  39.769  17.151  10.948
69661W        W41277  34.815  26.522   2.219
69662W        W41278  21.313  24.533  12.462
69663W        W41279  25.529  38.640   2.494
69664W        W41280   1.027  17.630  12.525
69665W        W41281   2.148  39.390   2.292
69666W        W41282  42.933  24.441   1.331
69667W        W41283   2.782  34.001  11.872
69668W        W41284   0.474  13.886  10.564
69669W        W41285  44.001   5.185   2.413
69670W        W41286  30.105  29.353   1.340
69671W        W41287  17.251  40.933  12.012
69672W        W41288  35.812  37.725   0.879
69673W        W41289  36.493  42.168   1.024
69674W        W41290  26.732  44.962  10.380
69675W        W41291  11.311  16.087  13.264
69676W        W41292  18.388  41.739  13.304
69677W        W41293  10.704  10.873   3.335
69678W        W41294   2.181  23.233   3.635
69679W        W41295   9.331  14.888   2.178
69680W        W41296  23.483  15.837   2.810
69681W        W41297  32.294  18.266   4.258
69682W        W41298  12.350   8.168   0.387
69683W        W41299  32.317  19.685  13.467
69684W        W41300  13.496   8.376   2.809
69685W        W41301  25.714   4.651  14.489
69686W        W41302   1.946  39.098   1.544
69687W        W41303  16.021   1.554  14.542
69688W        W41304  16.515   7.419  14.385
69689W        W41305  25.933  17.876   3.945
69690W        W41306  39.239  40.286   3.076
69691W        W41307   4.903  20.292   3.326
69692W        W41308  28.672   4.958   1.953
69693W        W41309  33.063  22.278   3.766
69694W        W41310  13.878   8.643  11.188
69695W        W41311   8.360   7.793  10.706
69696W        W41312  18.988  22.033  11.087
69697W        W41313  34.915  43.828   0.742
69698W        W41314  18.816   5.668  12.099
69699W        W41315  25.652  11.922  11.570
69700W        W41316  35.824   2.296  13.435
69701W        W41317  12.339  20.632  13.865
69702W        W41318   3.718  41.629   3.616
69703W        W41319  29.938  23.019   3.842
69704W        W41320  16.237  37.470   4.401
69705W        W41321   1.217   0.030  11.003
69706W        W41322   7.585  32.908   3.652
69707W        W41323  38.848  26.139  10.565
69708W        W41324  12.640   2.732   0.841
69709W        W41325  32.104  22.778   1.269
69710W        W41326  26.544  39.042  10.635
69711W        W41327  38.489  21.293   2.719
69712W        W41328   6.205  19.317   3.232
69713W        W41329  16.756  20.776   1.842
69714W        W41330  32.582  28.686   1.768
69715W        W41331  44.040  29.069   0.834
69716W        W41332  35.895  19.723  12.295
69717W        W41333   9.190  26.745   2.818
69718W        W41334  17.298  22.744  11.121
69719W        W41335  41.071   7.720  10.728
69720W        W41336  17.702   4.368  13.957
69721W        W41337  37.078  34.105   1.905
69722W        W41338  16.276  20.936  14.754
69723W        W41339  26.676  44.944   2.799
69724W        W41340   1.806  23.979   1.203
69725W        W41341  30.161   6.321  12.077
69726W        W41342  24.444  10.005  13.341
69727W        W41343  31.008  25.263  11.956
69728W        W41344   2.722  12.659   4.138
69729W        W41345  13.161   4.258   1.582
69730W        W41346  32.702  15.299  11.280
69731W        W41347  11.311  13.003   3.180
69732W        W41348  29.021  24.518  10.687
69733W        W41349  22.353  18.559   1.637
69734W        W41350  18.848   7.684  11.693
69735W        W41351  13.818  23.689   2.450
69736W        W41352  17.503  26.983   2.811
69737W        W41353  40.815  17.018   1.763
69738W        W41354  24.061  26.747  10.314
69739W        W41355  43.832  40.642  10.998
69740W        W41356  33.900   3.395  12.003
69741W        W41357   2.122  31.875   1.397
69742W        W41358  35.002  14.836  13.790
69743W        W41359  14.744  12.385  14.474
69744W        W41360   2.003  15.584   0.761
69745W        W41361  27.389  43.290  12.548
69746W        W41362   2.896  26.191  11.527
69747W        W41363  39.851  22.747   2.869
69748W        W41364  32.267  32.932  13.547
69749W        W41365  40.998  31.168  11.941
69750W        W41366  34.885   4.643  11.230
69751W        W41367  22.071  14.826  12.302
69752W        W41368   4.398  30.416  10.930
69753W        W41369  22.487  32.638   0.056
69754W        W41370   0.058  18.515  11.254
69755W        W41371  10.204  39.596  12.497
69756W        W41372  13.164  22.032   0.406
69757W        W41373  36.521  37.537   3.404
69758W        W41374   7.299  13.308   3.734
69759W        W41375  20.650  15.907   2.144
69760W        W41376  35.019   2.103  10.482
69761W        W41377  44.901  31.293   4.565
69762W        W41378  32.729  10.457  11.138
69763W        W41379   0.903  24.494   4.604
69764W        W41380  40.186  19.134   1.863
69765W        W41381  18.993  33.050  14.844
69766W        W41382  25.635  15.820  12.162
69767W        W41383   6.861   3.959   4.462
69768W        W41384  21.372  14.271  12.303
69769W        W41385  44.938   2.266   3.148
69770W        W41386  17.383   7.492  14.454
69771W        W41387  31.389  10.659   2.202
69772W        W41388  29.625  24.103   4.705
69773W        W41389  15.532  40.466  13.510
69774W        W41390  30.066  13.141   2.823
69775W        W41391  27.458  19.788   3.797
69776W        W41392  30.371   2.634   3.730
69777W        W41393   1.253  20.436  14.281
69778W        W41394  37.357   2.332  12.669
69779W        W41395   3.833  12.209  10.373
69780W        W41396  31.055  31.490   1.884
69781W        W41397  14.573  42.237   3.705
69782W        W41398  44.768  16.420  13.281
69783W        W41399   0.206  16.120  10.675
69784W        W41400  10.874  11.375  13.400
69785W        W41401   1.056  18.612  12.607
69786W        W41402  27.230  14.722   3.903
69787W        W41403  31.569  18.099   1.275
69788W        W41404  19.287  19.152  10.648
69789W        W41405  31.764  33.037   4.170
69790W        W41406  22.190  30.621   4.370
69791W        W41407   1.116  29.593  10.312
69792W        W41408  30.725  17.594  14.475
69793W        W41409  26.712  34.324  12.625
69794W        W41410  30.143   7.694  12.144
69795W        W41411  18.079  32.694  11.986
69796W        W41412   1.457  36.371   3.627
69797W        W41413  11.888  36.407   4.628
69798W        W41414  14.720  43.971  11.463
69799W        W41415  20.540   4.916  14.575
69800W        W41416  10.323   7.641  11.679
69801W        W41417  37.359  41.877   1.353
69802W        W41418  44.795  40.318  13.416
69803W        W41419  29.230  44.257  13.372
69804W        W41420   6.022   3.005  12.129
69805W        W41421  29.694  10.231  10.560
69806W        W41422  11.175   6.169   1.727
69807W        W41423  41.368   8.425  13.847
69808W        W41424  13.062   6.861   1.795
69809W        W41425  18.958  19.508   2.344
69810W        W41426   0.184  24.791  11.522
69811W        W41427  34.462  21.202   0.866
69812W        W41428  20.845  42.520  10.778
69813W        W41429  37.699  33.508  12.200
69814W        W41430  37.847  19.741   2.027
69815W        W41431  36.955  33.319   0.261
69816W        W41432  42.920  28.137   0.903
69817W        W41433  33.202  38.884  11.563
69818W        W41434  17.667  34.221   3.912
69819W        W41435  39.011  23.597  10.737
69820W        W41436  22.237   8.798   3.623
69821W        W41437   9.200  37.327   1.683
69822W        W41438  10.644  30.545  14.709
69823W        W41439  23.248  34.189   2.143
69824W        W41440  15.579   1.546   1.826
69825W        W41441  39.057  35.124  14.551
69826W        W41442   9.718  28.837   3.273
69827W        W41443  38.315  29.948  11.173
69828W        W41444   7.034  33.612  11.171
69829W        W41445   6.378  38.546   1.423
69830W        W41446  30.533   0.957   1.814
69831W        W41447  24.590  36.807  11.118
69832W        W41448  35.932  18.147  14.934
69833W        W41449  35.601  16.686   3.123
69834W        W41450  30.310  43.753  13.882
69835W        W41451   4.514  23.300   4.574
69836W        W41452   5.158  25.100   2.195
69837W        W41453   6.270  10.865  14.709
69838W        W41454  20.606  17.811   4.628
69839W        W41455  24.832   8.911   4.136
69840W        W41456   1.817   3.527  14.000
69841W        W41457  42.420   0.005   4.516
69842W        W41458  14.603  34.122   0.738
69843W        W41459  21.430   1.504  11.168
69844W        W41460  38.406  29.486  10.950
69845W        W41461  21.183  22.686  11.011
69846W        W41462   5.423  43.812  14.423
69847W        W41463  25.173  22.209  13.913
69848W        W41464  30.246  35.340  12.896
69849W        W41465   4.417  19.174   3.388
69850W        W41466   9.510   7.735  14.741
69851W        W41467  12.199  42.893   1.496
69852W        W41468  37.571  41.528   2.621
69853W        W41469  10.983  40.174  14.815
69854W        W41470   5.635  25.422  11.553
69855W        W41471  15.290  35.118   2.843
69856W        W41472  38.894  31.530   4.347
69857W        W41473   8.822  36.423  13.408
69858W        W41474  33.128  29.750  13.474
69859W        W41475  26.134  44.766   0.015
69860W        W41476  19.007  19.547  13.313
69861W        W41477  13.786  37.648  11.442
69862W        W41478  38.949  41.515   2.454
69863W        W41479  24.986  20.352   3.645
69864W        W41480  26.125  16.790   2.912
69865W        W41481  35.366  17.062   3.888
69866W        W41482  30.485  30.616   2.117
69867W        W41483   3.180   8.135  13.026
69868W        W41484  30.787  42.335  13.144
69869W        W41485  11.774   8.264   4.627
69870W        W41486   5.717  36.557   3.473
69871W        W41487  42.240   0.522   4.643
69872W        W41488  41.475   8.094   0.337
69873W        W41489  31.193  18.535  13.768
69874W        W41490  35.480   0.375   3.592
69875W        W41491  35.530   6.326  11.643
69876W        W41492  33.408   6.907   1.467
69877W        W41493  17.183   2.756   0.199
69878W        W41494  36.230  14.118   4.162
69879W        W41495   6.688  22.798  14.565
69880W        W41496   8.089   7.174  13.903
69881W        W41497  39.103  11.624   3.210
69882W        W41498  15.330  25.933   0.898
69883W        W41499  16.406   2.709   4.128
69884W        W41500  23.486   9.320  12.552
69885W        W41501  20.338  41.976   2.763
69886W        W41502  17.552  18.323   3.458
69887W        W41503  28.614  40.768   1.359
69888W        W41504  32.109  29.681  12.046
69889W        W41505  26.656  28.887  12.982
69890W        W41506   7.188  13.950  11.877
69891W        W41507  29.159  14.566  13.803
69892W        W41508  43.374  31.381  14.285
69893W        W41509   3.759  26.461   4.383
69894W        W41510  25.648  21.963  13.974
69895W        W41511  18.392  37.622   2.777
69896W        W41512  14.844  13.807  13.073
69897W        W41513  42.181  15.938   4.975
69898W        W41514  12.108  25.488   3.740
69899W        W41515  16.212  26.713  12.882
69900W        W41516   6.119  12.183   2.220
69901W        W41517  40.449  16.011  14.498
69902W        W41518  30.191  34.985  13.830
69903W        W41519  25.010  37.926   4.508
69904W        W41520  16.607  10.787   4.866
69905W        W41521   0.998   6.406  14.509
69906W        W41522  16.355  31.191   1.966
69907W        W41523  31.732  40.480   1.871
69908W        W41524   7.676  41.973   1.429
69909W        W41525  37.487  33.336   0.816
69910W        W41526  23.559  44.771  12.632
69911W        W41527  41.763  33.694  11.522
69912W        W41528  31.454  37.852  13.012
69913W        W41529  29.401  14.080   1.959
69914W        W41530  17.466  28.892   0.775
69915W        W41531  26.419  27.439   2.701
69916W        W41532   9.344  23.772  10.638
69917W        W41533  26.066  11.653   0.016
69918W        W41534  33.040   0.596   5.173
69919W        W41535   5.432  28.928  10.621
69920W        W41536  44.274  29.968  12.963
69921W        W41537   8.309  39.330  10.556
69922W        W41538  32.092  43.723  13.216
69923W        W41539   5.243   5.818  10.611
69924W        W41540  40.696  33.697  10.610
69925W        W41541  30.628  13.298  14.032
69926W        W41542  29.049  43.263   1.813
69927W        W41543  42.375  18.080  13.037
69928W        W41544  28.397  10.218  11.158
69929W        W41545   1.411  20.448   1.416
69930W        W41546  26.237  21.091   3.750
69931W        W41547  26.298  14.958   4.219
69932W        W41548  16.393   9.384  14.729
69933W        W41549  41.038  14.100  12.552
69934W        W41550  37.326  24.587   3.628
69935W        W41551  11.843  40.882   2.295
69936W        W41552  14.341  36.854   1.742
69937W        W41553  20.626  40.290  11.191
69938W        W41554  26.466  11.176  12.361
69939W        W41555  31.391   2.451   2.931
69940W        W41556  44.464   3.314  10.424
69941W        W41557  31.704   6.271   3.289
69942W        W41558   7.362  29.675  14.326
69943W        W41559   3.998  28.559   4.322
69944W        W41560  38.005  44.434   1.988
69945W        W41561  19.601  10.918   1.246
69946W        W41562  43.882  22.474   0.328
69947W        W41563   2.596  28.927   3.590
69948W        W41564  11.193   3.750   2.377
69949W        W41565  13.473  44.415  13.563
69950W        W41566  43.257  11.264  11.256
69951W        W41567  17.405  42.948  11.090
69952W        W41568  34.539  26.636   3.566
69953W        W41569  27.925   0.337   1.516
69954W        W41570   4.469  32.308  13.434
69955W        W41571   7.794  24.788   3.782
69956W        W41572   6.349  33.458  10.843
69957W        W41573   4.709  10.821  13.488
69958W        W41574  36.672  28.099   0.425
69959W        W41575  27.137  34.342  13.478
69960W        W41576  25.662  28.672  13.532
69961W        W41577  32.668  40.819  12.070
69962W        W41578  37.047  10.129  11.380
69963W        W41579  26.037  38.432  11.068
69964W        W41580  12.796  20.852  12.831
69965W        W41581  28.032  11.893   0.420
69966W        W41582  32.524  37.102   4.099
69967W        W41583  44.800   5.957  12.926
69968W        W41584  36.587  16.429   1.702
69969W        W41585   8.909  11.882   0.503
69970W        W41586  33.510   5.719   3.276
69971W        W41587  23.582  40.832  12.471
69972W        W41588   8.951  28.164  10.684
69973W        W41589  24.901   0.211  13.490
69974W        W41590  35.444  34.151   3.745
69975W        W41591  34.152  18.857   0.060
69976W        W41592  11.437   4.643   1.796
69977W        W41593  39.790  12.066   1.423
69978W        W41594  26.097  41.846  12.225
69979W        W41595  23.242   3.340   0.451
69980W        W41596  31.940  26.442  12.400
69981W        W41597   2.387  11.210   3.331
69982W        W41598  32.411  11.608  10.427
69983W        W41599  40.562  24.954   2.749
69984W        W41600  37.101  37.907   4.504
69985W        W41601  23.783  31.641  13.436
69986W        W41602  43.072  40.663  14.031
69987W        W41603  20.129   4.806   2.187
69988W        W41604  44.383   6.844  13.103
69989W        W41605  36.882   1.014  14.622
69990W        W41606  31.930   0.347  12.535
69991W        W41607  27.411  31.711   0.260
69992W        W41608  34.032  39.705   1.160
69993W        W41609  18.207  12.719  10.681
69994W        W41610  15.601  10.836   3.198
69995W        W41611   6.679   6.826  14.453
69996W        W41612  37.875   6.083   4.124
69997W        W41613  33.023   4.068   2.643
69998W        W41614  28.503  13.926   9.854
69999W        W41615   2.880   9.140  10.630
70000W        W41616   5.211  22.941  13.566
70001W        W41617  16.556  43.964   4.170
70002W        W41618  39.013  27.855   0.971
70003W        W41619   4.406  11.344   2.357
70004W        W41620  37.609  20.587   1.276
70005W        W41621  28.272  43.985   4.203
70006W        W41622  44.789  36.581  14.644
70007W        W41623  28.140  17.301   0.791
70008W        W41624  15.996  16.072   0.952
70009W        W41625  41.487  42.963  12.829
70010W        W41626  33.193  39.333   0.306
70011W        W41627  10.880  10.171  11.181
70012W        W41628  20.045   1.923  13.559
70013W        W41629  39.882  40.251   3.607
70014W        W41630  24.180  22.105  13.404
70015W        W41631  21.902  34.953  11.561
70016W        W41632  24.173  30.736  12.881
70017W        W41633   0.904  18.029   2.331
70018W        W41634  30.087  25.415  10.661
70019W        W41635  21.499  36.099  13.959
70020W        W41636   3.514   6.160  12.413
70021W        W41637  30.683  28.844   3.638
70022W        W41638  39.015   2.463   3.217
70023W        W41639  25.977  42.747   2.369
70024W        W41640  14.756  37.018   0.791
70025W        W41641   0.488  28.639  10.473
70026W        W41642  37.599  44.879   4.110
70027W        W41643   0.485  42.656   5.222
70028W        W41644   3.641  42.892   3.625
70029W        W41645   6.481  25.501   3.832
70030W        W41646  23.045  30.442  10.776
70031W        W41647  44.614  16.258   5.022
70032W        W41648   3.282  22.547   3.179
70033W        W41649  12.105  20.066  14.898
70034W        W41650  30.140   9.086  12.042
70035W        W41651   0.965   9.377  12.003
70036W        W41652   0.020   9.311  13.878
70037W        W41653  31.116  23.611  14.918
70038W        W41654  39.858  10.348   0.051
70039W        W41655   1.284   5.352  10.642
70040W        W41656  22.485  19.006   1.893
70041W        W41657  31.396   4.737   2.227
70042W        W41658  18.197   9.253   3.535
70043W        W41659  19.517  13.566  14.494
70044W        W41660  38.329  40.931   4.699
70045W        W41661   7.372  14.751  10.825
70046W        W41662  30.873  41.497   0.906
70047W        W41663  31.014   7.408  10.602
70048W        W41664  28.377  18.011   4.408
70049W        W41665  14.306   5.668  10.760
70050W        W41666  13.694  31.137  13.917
70051W        W41667  42.146  26.475   1.009
70052W        W41668  34.136  12.110  12.490
70053W        W41669  17.298  42.863  13.276
70054W        W41670  42.685  16.579  11.881
70055W        W41671  44.799  12.026  11.338
70056W        W41672  28.068  33.468   2.417
70057W        W41673  31.704  36.528   2.249
70058W        W41674   3.765  28.890  13.598
70059W        W41675  30.333  35.078  13.323
70060W        W41676  37.104   2.765   3.197
70061W        W41677  27.919  26.970   0.810
70062W        W41678  16.051  21.086  10.218
70063W        W41679  36.931  15.027  11.179
70064W        W41680  39.903  34.568  12.906
70065W        W41681  43.287  36.554  11.158
70066W        W41682   3.852  35.311   4.144
70067W        W41683   1.264  23.030  13.671
70068W        W41684  16.975  34.127   2.651
70069W        W41685  12.784  14.918  13.279
70070W        W41686  24.528  35.149   3.256
70071W        W41687  18.306  17.012  14.297
70072W        W41688  44.728  33.921   0.395
70073W        W41689  31.400  42.824  13.464
70074W        W41690  38.252  42.376   0.883
70075W        W41691  41.398  14.461  14.380
70076W        W41692  32.984  31.368   1.926
70077W        W41693  37.056   7.876   1.418
70078W        W41694  30.821  24.523  12.961
70079W        W41695   1.705  34.952   4.817
70080W        W41696  26.631  12.338   1.366
70081W        W41697  19.277  25.010   1.150
70082W        W41698  30.019  15.622  13.123
70083W        W41699  43.846  32.813   0.790
70084W        W41700   7.229  17.760  14.051
70085W        W41701   1.412   1.707   0.946
70086W        W41702  44.347  23.475  12.513
70087W        W41703  10.150  42.010   3.218
70088W        W41704   3.267  25.182  13.189
70089W        W41705  10.785  20.808  11.931
70090W        W41706   0.424   5.949  10.647
70091W        W41707   3.794   7.943   2.816
70092W        W41708  33.128  14.749  12.232
70093W        W41709  32.217  26.453   3.758
70094W        W41710   8.600  14.817   1.153
70095W        W41711  37.174   8.311   0.080
70096W        W41712  32.855   3.754   0.654
70097W        W41713  38.813   3.425   1.865
70098W        W41714   2.295   3.738  13.943
70099W        W41715  11.750   6.696   1.022
70100W        W41716  31.091  10.146  12.512
70101W        W41717  31.676  14.127   3.763
70102W        W41718  41.769  38.316  14.236
70103W        W41719   8.760   5.401  11.106
70104W        W41720  36.933   6.062   1.222
70105W        W41721  32.507  20.826   4.677
70106W        W41722  43.314   4.190   0.105
70107W        W41723  40.423   6.657  13.376
70108W        W41724   3.366   6.255  11.269
70109W        W41725  40.572  43.888   0.370
70110W        W41726  36.960  21.839  13.733
70111W        W41727  27.509  40.737   4.219
70112W        W41728  42.473  17.579   3.915
70113W        W41729  26.198  28.738   4.178
70114W        W41730   3.832  20.344   2.731
70115W        W41731  35.046   1.890  13.252
70116W        W41732  28.726  25.481  12.485
70117W        W41733  36.510  38.459  14.301
70118W        W41734  25.168  23.810  11.731
70119W        W41735  16.779  40.049   1.970
70120W        W41736  16.745   7.191  13.947
70121W        W41737   0.936  24.990  13.222
70122W        W41738  16.210  42.801   5.096
70123W        W41739  42.655   5.789   1.301
70124W        W41740  25.577  14.214   5.189
70125W        W41741  26.246  19.599   1.367
70126W        W41742   0.177  12.293  10.933
70127W        W41743  21.497   6.860   4.618
70128W        W41744  15.357  42.519  13.318
70129W        W41745   4.769   2.006   1.355
70130W        W41746  17.309  36.028  14.279
70131W        W41747  41.130  17.089   3.665
70132W        W41748  27.087  12.826  13.974
70133W        W41749   1.733  20.151  11.662
70134W        W41750  30.458  14.519  13.575
70135W        W41751  26.041   8.224   1.262
70136W        W41752  13.338  16.229   0.853
70137W        W41753  18.548   7.132   3.418
70138W        W41754   7.496  23.690  10.735
70139W        W41755  15.687  24.106  14.725
70140W        W41756   7.777  14.220   4.089
70141W        W41757  13.101  32.221  11.734
70142W        W41758   8.257  24.728  14.044
70143W        W41759  41.508  11.782  11.074
70144W        W41760  33.101  37.827  13.382
70145W        W41761  24.095  15.642   2.207
70146W        W41762  23.099  42.756  13.071
70147W        W41763  39.501  31.813  11.408
70148W        W41764   6.209  28.473  10.722
70149W        W41765  33.351  31.198   4.418
70150W        W41766  39.371  10.325   2.652
70151W        W41767  19.114  37.834   2.189
70152W        W41768   3.620  40.204   1.310
70153W        W41769  29.555  44.941   2.886
70154W        W41770  25.239  39.496  14.257
70155W        W41771  32.192   4.260   2.807
70156W        W41772  32.023  26.090  14.972
70157W        W41773  24.153  26.764  12.979
70158W        W41774  31.380  39.351   4.029
70159W        W41775  44.302   6.971  14.837
70160W        W41776  42.815  42.542   0.260
70161W        W41777  33.874  40.742  10.746
70162W        W41778  39.390  41.637   2.239
70163W        W41779  43.468  36.391  10.570
70164W        W41780   6.517  10.228  13.348
70165W        W41781  28.417  16.130   5.459
70166W        W41782  40.212  38.331   0.820
70167W        W41783  12.735  22.320  13.880
70168W        W41784  26.941  41.206  11.527
70169W        W41785  40.835   7.390   0.067
70170W        W41786   8.373  11.638   4.166
70171W        W41787  43.509  43.801   2.426
70172W        W41788  19.784  11.837  12.075
70173W        W41789   1.729  14.714   1.814
70174W        W41790  10.819   0.229   1.791
70175W        W41791   1.862  13.390  10.739
70176W        W41792  36.277   4.716  10.760
70177W        W41793  10.185   3.522   0.440
70178W        W41794   4.521  28.737   2.194
70179W        W41795  40.557   7.157  13.043
70180W        W41796  18.144  30.225   2.683
70181W        W41797  28.140  14.058  10.260
70182W        W41798  32.457  15.357   0.612
70183W        W41799  16.632  18.190  10.085
70184W        W41800  12.751   1.032  11.536
70185W        W41801  39.370  34.876   1.711
70186W        W41802  10.772   9.995   0.377
70187W        W41803  36.657  30.572  12.972
70188W        W41804  21.649  11.811   2.201
70189W        W41805  33.886  20.824   1.217
70190W        W41806   3.451  25.926   4.556
70191W        W41807  40.557  44.549  12.878
70192W        W41808  16.387  13.336   2.367
70193W        W41809  31.406  40.360  11.269
70194W        W41810   5.783  15.062   3.639
70195W        W41811  33.620  38.876  13.394
70196W        W41812  44.296  32.394  12.055
70197W        W41813   1.305  32.173   2.902
70198W        W41814  14.151  10.796  12.338
70199W        W41815   8.335  19.284   1.695
70200W        W41816  14.183  31.546   1.216
70201W        W41817  35.191  12.178  12.519
70202W        W41818   6.435  25.470   2.570
70203W        W41819  18.936  32.470  13.823
70204W        W41820  17.604  36.372   3.362
70205W        W41821   8.319   6.172  14.749
70206W        W41822  29.923  30.141   4.368
70207W        W41823  38.400  28.433  14.477
70208W        W41824  35.532   5.914  14.972
70209W        W41825   0.353  42.906   1.796
70210W        W41826  43.753  15.078   2.717
70211W        W41827   0.017   3.510  14.389
70212W        W41828  43.925  16.993  11.054
70213W        W41829   1.894  33.223   1.435
70214W        W41830  31.055  32.332   2.464
70215W        W41831  36.031  32.596   1.909
70216W        W41832  18.359  24.632  11.419
70217W        W41833  38.451  23.327   4.252
70218W        W41834  22.840  42.023  11.592
70219W        W41835  15.402   0.320   4.592
70220W        W41836  21.462  33.499  14.976
70221W        W41837  23.831  17.205  13.532
70222W        W41838   7.444   7.166   3.214
70223W        W41839   5.197  26.601  11.028
70224W        W41840  29.129  12.304  11.020
70225W        W41841  31.707  37.422   2.835
70226W        W41842  44.410  25.454   2.459
70227W        W41843  13.533   4.799  12.813
70228W        W41844  14.180  28.026   4.825
70229W        W41845  12.220  26.496  14.391
70230W        W41846   5.659   5.016  12.957
70231W        W41847  21.076  21.941  11.649
70232W        W41848   6.280  37.299  13.821
70233W        W41849  44.282   3.435   0.646
70234W        W41850  24.368  37.557  14.950
70235W        W41851   0.318  44.003   0.844
70236W        W41852   9.348  40.572  11.635
70237W        W41853  13.165  29.307  12.864
70238W        W41854  38.532  12.513   1.403
70239W        W41855  12.655  15.787   3.633
70240W        W41856   3.785  19.622  11.144
70241W        W41857  30.010  37.611   4.228
70242W        W41858  26.372  20.689  12.114
70243W        W41859  36.475  35.370  13.033
70244W        W41860  19.156  33.491   3.205
70245W        W41861  34.579  22.145   3.693
70246W        W41862   7.823  23.112   2.250
70247W        W41863   2.793  16.653   3.595
70248W        W41864   5.990  27.621   4.086
70249W        W41865  35.871  23.697   2.441
70250W        W41866  16.694  22.515   3.702
70251W        W41867  42.402  19.758   1.384
70252W        W41868  27.848   7.481  11.150
70253W        W41869   7.556   6.383  12.959
70254W        W41870  44.270   3.424   2.111
70255W        W41871   6.916  34.638   2.949
70256W        W41872  20.475  28.941  13.332
70257W        W41873   7.278  31.937   2.726
70258W        W41874  17.767  20.077   1.343
70259W        W41875  23.580  18.549  13.519
70260W        W41876  40.044   5.171  14.792
70261W        W41877   3.786  22.127  14.671
70262W        W41878  26.479   5.647   2.894
70263W        W41879   3.082   1.688   2.235
70264W        W41880  14.430   4.507   1.010
70265W        W41881  39.304   5.297   0.772
70266W        W41882  42.077  34.350   3.857
70267W        W41883  26.728  21.236   0.832
70268W        W41884  44.696   5.780  11.999
70269W        W41885  34.844   4.648   3.616
70270W        W41886  44.316  19.199   4.393
70271W        W41887  36.753  43.244   1.851
70272W        W41888  11.870  40.891  13.324
70273W        W41889   3.659   5.884   2.764
70274W        W41890  15.084   8.846  10.785
70275W        W41891  37.385  11.581  10.181
70276W        W41892  29.722  38.380   1.297
70277W        W41893  25.815   1.064   1.340
70278W        W41894  21.667  29.180   2.800
70279W        W41895  16.775   8.567  11.346
70280W        W41896   0.279  33.961  13.450
70281W        W41897  37.447  43.883  12.521
70282W        W41898   8.662  27.092   2.175
70283W        W41899  41.905  30.694  12.615
70284W        W41900  11.867  38.015  12.348
70285W        W41901  33.497  28.853  14.342
70286W        W41902   7.360  23.291  11.544
70287W        W41903  14.139  20.921   3.282
70288W        W41904   3.017  34.693   1.372
70289W        W41905  21.319  26.643  12.956
70290W        W41906  42.036  42.825  12.181
70291W        W41907  13.974  12.406   2.949
70292W        W41908   5.317  36.849  12.427
70293W        W41909  10.946   4.944  14.799
70294W        W41910  30.464  10.112   2.204
70295W        W41911  14.869  20.557  13.757
70296W        W41912   6.703   8.740  12.384
70297W        W41913  21.567  43.914   4.673
70298W        W41914   6.898  32.012  10.975
70299W        W41915  39.961  29.884  14.055
70300W        W41916   2.708  27.983  14.353
70301W        W41917  10.366  23.633  12.204
70302W        W41918  16.165  15.029   4.156
70303W        W41919  13.690  27.389  11.480
70304W        W41920  16.970  19.318  11.586
70305W        W41921  14.147  42.235   1.751
70306W        W41922  16.172  43.939  13.545
70307W        W41923  23.153  27.589   2.567
70308W        W41924  36.664  23.935  10.757
70309W        W41925  36.076   6.719  12.696
70310W        W41926  37.880  19.805  13.425
70311W        W41927  19.947  27.929  14.035
70312W        W41928  44.362  36.526  14.098
70313W        W41929  41.272  32.043  11.504
70314W        W41930  13.543   5.809   0.822
70315W        W41931   9.242  38.869   4.455
70316W        W41932   3.797   4.647   3.949
70317W        W41933  44.417   3.437  12.889
70318W        W41934   1.349  13.167   0.904
70319W        W41935  16.236  22.110  11.556
70320W        W41936  20.388  39.035  14.307
70321W        W41937  11.964  31.497   1.257
70322W        W41938  16.304   3.566  14.979
70323W        W41939   3.214  23.929   1.749
70324W        W41940   8.901  23.173   1.824
70325W        W41941  13.780   9.189   4.348
70326W        W41942  30.522  33.989   4.071
70327W        W41943  32.488  41.497   2.657
70328W        W41944  34.431  11.466  14.904
70329W        W41945  10.548  42.944  11.501
70330W        W41946  30.579  24.933   2.268
70331W        W41947  33.821   2.252  13.339
70332W        W41948  33.811  24.290  11.467
70333W        W41949   5.182  24.016  14.458
70334W        W41950   6.846  35.352  12.883
70335W        W41951  36.492  39.304  12.854
70336W        W41952   8.072  12.083  10.517
70337W        W41953  16.229  14.286  12.656
70338W        W41954  40.243  10.513   4.750
70339W        W41955  13.747  13.198   5.312
70340W        W41956   9.233  42.781   4.401
70341W        W41957  18.405  23.232   2.561
70342W        W41958  30.349  16.245  11.133
70343W        W41959  37.439  26.345  11.560
70344W        W41960  16.281  40.123   3.620
70345W        W41961   3.918   0.485  13.968
70346W        W41962  28.520   1.472  14.954
70347W        W41963  44.424  34.731  14.858
70348W        W41964  41.911   4.321  13.350
70349W        W41965  24.819  23.036  14.031
70350W        W41966  26.973  19.051   1.183
70351W        W41967   9.553   0.979  12.054
70352W        W41968   1.953  32.295   1.746
70353W        W41969  31.047   9.395   4.147
70354W        W41970  22.952   4.325   4.167
70355W        W41971  36.309  25.378   2.793
70356W        W41972  28.483  41.442   3.249
70357W        W41973  43.701  13.620   4.774
70358W        W41974  29.099  22.027   4.005
70359W        W41975  10.607  24.518  12.656
70360W        W41976  10.887  38.565  13.065
70361W        W41977  30.443  15.230  11.465
70362W        W41978  18.239  27.736   4.124
70363W        W41979  11.883   9.141  14.974
70364W        W41980  22.658  18.866  14.382
70365W        W41981  33.520  16.810   4.530
70366W        W41982  13.126  17.737   3.136
70367W        W41983  44.311   9.707  12.427
70368W        W41984   6.653   8.008   2.462
70369W        W41985  33.947   2.280  12.824
70370W        W41986   7.802  36.489  12.987
70371W        W41987  21.282  42.880   0.287
70372W        W41988  27.934  35.540  12.573
70373W        W41989  17.758  24.131   5.038
70374W        W41990  41.277  13.144   2.205
70375W        W41991   6.183  33.640   1.566
70376W        W41992  27.064  20.531   3.114
70377W        W41993  20.750   8.916  11.158
70378W        W41994  25.523  15.306   1.244
70379W        W41995   1.349  15.167  14.776
70380W        W41996  11.579  13.578  11.292
70381W        W41997  14.425  29.011   4.670
70382W        W41998  41.516  38.852   3.273
70383W        W41999   3.643  14.342   1.405
70384W        W42000   4.686  22.605  11.614
70385W        W42001  14.314  21.146   1.477
70386W        W42002   3.996   9.492  11.944
70387W        W42003  19.483   4.243  14.798
70388W        W42004  15.492  16.741  14.338
70389W        W42005   1.702  19.103  10.715
70390W        W42006  32.638  44.380   4.327
70391W        W42007  31.100  25.588  10.690
70392W        W42008  25.571  30.666  11.237
70393W        W42009   8.859   9.235   2.857
70394W        W42010   1.958   2.460   2.215
70395W        W42011  40.363  15.330  11.953
70396W        W42012  12.239   5.276   3.640
70397W        W42013   8.183  25.093   2.371
70398W        W42014  19.088  31.348  11.726
70399W        W42015  24.043   0.390   3.202
70400W        W42016  31.145  13.632   1.284
70401W        W42017  30.031  27.440   1.353
70402W        W42018  11.641  23.963   4.429
70403W        W42019  25.446   1.933  12.339
70404W        W42020   1.132  24.084  10.641
70405W        W42021   0.252  24.455  12.112
70406W        W42022  28.099   3.359   0.406
70407W        W42023  43.259   0.198  12.820
70408W        W42024  28.109  13.621  12.303
70409W        W42025  41.794  39.794  11.125
70410W        W42026  41.673  34.501  13.901
70411W        W42027  31.047  29.806   5.405
70412W        W42028   0.935  18.477   4.117
70413W        W42029  13.503  10.201  10.776
70414W        W42030  37.825  25.183   1.889
70415W        W42031  36.877  38.771  10.491
70416W        W42032  44.445  13.234  10.729
70417W        W42033  24.165  36.149   9.978
70418W        W42034  17.618   7.695   4.062
70419W        W42035  41.012  30.271   1.015
70420W        W42036  39.770  12.409   5.056
70421W        W42037  29.005   4.999   3.642
70422W        W42038  39.013   8.177  13.178
70423W        W42039  29.451  15.077  13.055
70424W        W42040   3.958   1.783   3.631
70425W        W42041  44.109  21.686  13.758
70426W        W42042  31.092   3.185  12.966
70427W        W42043  14.286  38.522  12.405
70428W        W42044  18.729  37.040   4.264
70429W        W42045  14.266  21.489   4.146
70430W        W42046  27.069  33.433   1.368
70431W        W42047  18.650  11.569   2.787
70432W        W42048  10.915   8.873  10.820
70433W        W42049  21.299  24.480   4.593
70434W        W42050  40.921   6.869   0.009
70435W        W42051  28.388  40.049   4.343
70436W        W42052  25.724  18.420   5.052
70437W        W42053  36.355  16.272   3.704
70438W        W42054  25.410   8.159   4.613
70439W        W42055  12.401  20.236   4.155
70440W        W42056  12.202   1.398  11.036
70441W        W42057  33.402  39.392  12.774
70442W        W42058   5.649  10.294   2.486
70443W        W42059  11.315  16.177   4.450
70444W        W42060  15.757   0.630  12.034
70445W        W42061  11.131  33.866   2.244
70446W        W42062  41.652  34.369   1.157
70447W        W42063  10.238  22.145   0.974
70448W        W42064  28.900  14.633  14.264
70449W        W42065  18.509   0.956  12.066
70450W        W42066   0.993  17.454  13.331
70451W        W42067  14.122  17.992   4.285
70452W        W42068  22.720  24.649  11.590
70453W        W42069  39.350  39.743   0.119
70454W        W42070  36.554  43.976   3.834
70455W        W42071  26.796   0.646  12.044
70456W        W42072  36.467  34.899  13.245
70457W        W42073  37.409  10.453   3.292
70458W        W42074  41.848  28.492  14.974
70459W        W42075  34.467  21.144  14.398
70460W        W42076  37.839  22.057  12.395
70461W        W42077   5.431  33.659   2.740
70462W        W42078  36.832   8.391   3.666
70463W        W42079  38.432   3.354  10.710
70464W        W42080  21.888  29.135  13.954
70465W        W42081  29.187  30.453   5.102
70466W        W42082   5.967   4.863  14.869
70467W        W42083  24.408  22.333   3.634
70468W        W42084  18.059  11.847   0.002
70469W        W42085  16.619  16.818  10.945
70470W        W42086  19.139  35.210  13.402
70471W        W42087  35.546  12.095   2.732
70472W        W42088   4.182  15.281   1.226
70473W        W42089  27.802   0.352  13.431
70474W        W42090  36.062  40.856  12.911
70475W        W42091  32.515  11.043  11.918
70476W        W42092   4.721  12.324  10.898
70477W        W42093   5.289  33.090  12.162
70478W        W42094  26.985  32.732   2.750
70479W        W42095   2.467   0.776  11.546
70480W        W42096  31.966  43.335  12.886
70481W        W42097  43.537  42.980   1.218
70482W        W42098   2.428  15.600   0.447
70483W        W42099  41.956  39.894   3.741
70484W        W42100  35.974   9.115   4.076
70485W        W42101  32.850  35.218   2.183
70486W        W42102  44.795  37.054   4.924
70487W        W42103  33.172  10.180  12.121
70488W        W42104  37.768  42.549   2.371
70489W        W42105  30.116   8.769   4.338
70490W        W42106  19.210  32.380   0.198
70491W        W42107  37.023  28.163  14.846
70492W        W42108   8.405  23.557  14.519
70493W        W42109  40.604  31.114  14.350
70494W        W42110  35.796  16.185  10.888
70495W        W42111  44.200  27.904   4.653
70496W        W42112  11.852  32.481   3.277
70497W        W42113  22.147   0.262  13.452
70498W        W42114  14.578  35.009   1.882
70499W        W42115  37.286  30.630   3.710
70500W        W42116   2.241  15.237   4.645
70501W        W42117   5.011  15.135   4.118
70502W        W42118  39.318   7.558   0.888
70503W        W42119  31.228  38.928  13.509
70504W        W42120  34.809   2.852  14.230
70505W        W42121  13.985  28.777   3.761
70506W        W42122  42.287  36.892  13.384
70507W        W42123  10.276  20.919  11.023
70508W        W42124  25.908   0.742   1.748
70509W        W42125  30.701  33.093  12.155
70510W        W42126  18.132  36.780  14.087
70511W        W42127  34.768  32.660  13.004
70512W        W42128   4.774   9.698  10.668
70513W        W42129  11.712  30.429  14.283
70514W        W42130  11.495   9.715   1.639
70515W        W42131   7.758  42.388  11.127
70516W        W42132   2.151  16.736  13.571
70517W        W42133  39.473  20.778  13.116
70518W        W42134  41.283  44.318   0.411
70519W        W42135   6.744  35.681  14.312
70520W        W42136   7.341  34.020   1.225
70521W        W42137  44.943  40.898   2.872
70522W        W42138   2.314   3.195   4.121
70523W        W42139  13.084  25.343  10.287
70524W        W42140  10.379   8.273   1.446
70525W        W42141  15.223  17.112   1.249
70526W        W42142  14.905  28.924  11.605
70527W        W42143  28.042  11.145  10.635
70528W        W42144  43.865  19.547   2.400
70529W        W42145  40.377  13.730   4.603
70530W        W42146  22.324  33.966  12.940
70531W        W42147   0.628  22.792   4.165
70532W        W42148  39.778  30.540  12.996
70533W        W42149  12.163  27.479   2.987
70534W        W42150   8.578  39.832  12.443
70535W        W42151   6.781  10.864   3.202
70536W        W42152  39.880  31.466  11.399
70537W        W42153  33.946  42.350   2.954
70538W        W42154  22.984  31.174  12.549
70539W        W42155  16.151   9.373   1.822
70540W        W42156   2.344   0.686  12.039
70541W        W42157  32.154  22.022  13.940
70542W        W42158  38.347  36.018  14.699
70543W        W42159  23.778  16.189  14.265
70544W        W42160  30.513  17.034  13.852
70545W        W42161  35.550   6.849   1.500
70546W        W42162  34.903  19.164   3.187
70547W        W42163  31.691  18.565  13.879
70548W        W42164  22.792   9.275  10.937
70549W        W42165  44.894  10.942   4.247
70550W        W42166  43.703   3.392   1.777
70551W        W42167   6.167  36.422   3.256
70552W        W42168   7.375  27.750  13.074
70553W        W42169   3.700  14.549   0.911
70554W        W42170  40.958  16.906  14.283
70555W        W42171  14.975  29.823  11.702
70556W        W42172  39.280  21.474  13.528
70557W        W42173  26.935   7.111   9.682
70558W        W42174  16.820  39.321  14.302
70559W        W42175  19.563  28.233   4.137
70560W        W42176  41.469   4.350   2.320
70561W        W42177  34.386  12.055  11.702
70562W        W42178  16.056  18.003   1.312
70563W        W42179  37.418  40.996   0.423
70564W        W42180  13.561  41.735   4.098
70565W        W42181  37.932  38.375  14.913
70566W        W42182  24.540  40.700  14.863
70567W        W42183  27.537  11.901  11.567
70568W        W42184   9.734  14.444  14.931
70569W        W42185  33.182  19.697  11.934
70570W        W42186  21.787  20.096   0.470
70571W        W42187  15.053   8.337  10.715
70572W        W42188  18.993   2.652   3.403
70573W        W42189  16.873  37.506   4.987
70574W        W42190  14.030  10.662   2.335
70575W        W42191  42.902  23.815   0.678
70576W        W42192  33.619  13.666   4.562
70577W        W42193  24.533  41.612  11.236
70578W        W42194  32.116  42.902   4.186
70579W        W42195   4.177  23.012   0.878
70580W        W42196   7.417  28.488   1.149
70581W        W42197  27.980  43.256  10.716
70582W        W42198   4.188  12.102  12.353
70583W        W42199   0.305  29.409   0.435
70584W        W42200  29.525   3.378  11.985
70585W        W42201  14.373   5.012  14.859
70586W        W42202  44.064  28.758  11.632
70587W        W42203  33.454  42.921   0.846
70588W        W42204  30.982  19.463   0.244
70589W        W42205  27.640  16.829  10.308
70590W        W42206  30.298  15.842   0.368
70591W        W42207  10.666  30.948   4.597
70592W        W42208  15.610  30.947   3.318
70593W        W42209   5.940  44.558  14.765
70594W        W42210  44.477  26.957   0.402
70595W        W42211  39.439   9.196   4.555
70596W        W42212  25.648  20.611  11.617
70597W        W42213  13.838  29.512   0.474
70598W        W42214   0.670  40.485  12.117
70599W        W42215  12.656   0.294   1.695
70600W        W42216  16.613   2.919  11.647
70601W        W42217  19.336  17.010  13.865
70602W        W42218   8.217  38.012  14.059
70603W        W42219   6.682  20.037  13.486
70604W        W42220  27.511   3.315   1.329
70605W        W42221  15.259  23.762   0.279
70606W        W42222  10.948  24.242  14.031
70607W        W42223  13.325  17.805  13.416
70608W        W42224  10.368  22.024   0.001
70609W        W42225  22.999  35.146   2.414
70610W        W42226   7.856  44.342  11.576
70611W        W42227  36.823   2.734  13.446
70612W        W42228  40.178  21.001  11.653
70613W        W42229  30.326  44.289  13.930
70614W        W42230  23.795  34.977  14.746
70615W        W42231  39.825  39.058  14.878
70616W        W42232  27.070  25.004   3.495
70617W        W42233  31.543  42.894   4.125
70618W        W42234  12.872  44.535  11.470
70619W        W42235   5.418  43.294  13.912
70620W        W42236  38.687  27.123  13.990
70621W        W42237   0.355   1.379  13.489
70622W        W42238  26.395   2.462   4.230
70623W        W42239  43.074  35.992  11.403
70624W        W42240   3.525  21.685  14.810
70625W        W42241  28.572  19.203  10.518
70626W        W42242   3.541  35.361  10.724
70627W        W42243  16.092  34.594  11.937
70628W        W42244  11.802  36.224   5.099
70629W        W42245   6.430   1.438  11.470
70630W        W42246  38.848  41.420  13.841
70631W        W42247  33.478  19.023  13.873
70632W        W42248  41.121  32.400  13.076
70633W        W42249  12.107  15.741  11.570
70634W        W42250  37.291  43.461   4.335
70635W        W42251  36.617  41.525  13.274
70636W        W42252  38.829  28.694   5.066
70637W        W42253  40.268  22.191   3.630
70638W        W42254  21.891  13.534  12.551
70639W        W42255  12.299  29.390   0.478
70640W        W42256  17.751  41.291   3.823
70641W        W42257  44.972  40.118   2.395
70642W        W42258  16.608  14.690   4.184
70643W        W42259  10.694  39.265  14.104
70644W        W42260  23.242  44.651  11.653
70645W        W42261  10.605  21.264   0.351
70646W        W42262   1.114   0.806  14.972
70647W        W42263  43.338   0.066   3.294
70648W        W42264   6.016   4.762  11.592
70649W        W42265  43.009  12.979   0.381
70650W        W42266   4.718  17.796   0.320
70651W        W42267  24.536  42.314  10.748
70652W        W42268  38.985   7.784   3.310
70653W        W42269  25.015  41.415  14.379
70654W        W42270   2.699  23.460  10.075
70655W        W42271  21.892   7.947   3.657
70656W        W42272   4.311  39.120   0.868
70657W        W42273  25.558  19.062  13.115
70658W        W42274  14.742  42.814  12.976
70659W        W42275   7.252  16.346  12.914
70660W        W42276   4.871  30.088  11.490
70661W        W42277  23.126  43.835   0.960
70662W        W42278  24.210  11.915  11.256
70663W        W42279  14.639  18.585   0.561
70664W        W42280  21.398   6.899  12.506
70665W        W42281  10.160  17.177  14.007
70666W        W42282  34.617  40.050  14.533
70667W        W42283  10.583   0.270  11.570
70668W        W42284   3.370  13.053  11.043
70669W        W42285  25.983  26.524   4.511
70670W        W42286  23.706   0.489   1.067
70671W        W42287  32.657  31.642   0.942
70672W        W42288  14.026  28.201  11.149
70673W        W42289  42.607  17.119   4.580
70674W        W42290   4.350  13.600  10.534
70675W        W42291  27.003  32.534  12.361
70676W        W42292  27.963  36.314   2.765
70677W        W42293  14.414   1.479   2.280
70678W        W42294   3.859  17.199   3.592
70679W        W42295   6.142  18.500  11.198
70680W        W42296  18.050  35.339   1.249
70681W        W42297   4.197   4.171  14.193
70682W        W42298  27.920   6.402   2.885
70683W        W42299  41.291  37.300   1.277
70684W        W42300  30.447   8.622   1.323
70685W        W42301  17.158   0.056   4.527
70686W        W42302  29.485  25.969  12.030
70687W        W42303   7.914  29.588   1.843
70688W        W42304  34.409  36.383  11.015
70689W        W42305  25.665   4.124  12.818
70690W        W42306   7.298  25.725   2.092
70691W        W42307  31.687  44.942   0.125
70692W        W42308  29.480  11.401  11.584
70693W        W42309  19.978  31.406  12.579
70694W        W42310  39.276  34.426   2.355
70695W        W42311  15.114  17.055  13.790
70696W        W42312  28.748  11.758  14.957
70697W        W42313   5.698  42.363   3.988
70698W        W42314  19.153   6.740  10.674
70699W        W42315  40.905  13.273  14.523
70700W        W42316   9.854  42.842  12.886
70701W        W42317  24.951  13.952   4.096
70702W        W42318  29.290  25.071   0.815
70703W        W42319  12.849  38.141   0.390
70704W        W42320  22.093  10.352  13.382
70705W        W42321  35.853  22.849  12.385
70706W        W42322   8.781  24.752  11.307
70707W        W42323  16.656  39.830   3.396
70708W        W42324  18.289  36.587   3.827
70709W        W42325  18.863  35.874  11.163
70710W        W42326  32.482  16.371  14.036
70711W        W42327   7.097  31.941  14.483
70712W        W42328   1.710  27.120  14.443
70713W        W42329  44.997  41.112  13.016
70714W        W42330  22.635  26.245   3.824
70715W        W42331  25.307  16.060  10.270
70716W        W42332  33.636  20.262  11.087
70717W        W42333  16.611   1.248  13.989
70718W        W42334   8.521   1.403   3.616
70719W        W42335  26.290  36.031  10.890
70720W        W42336  41.946  15.073   4.834
70721W        W42337  14.544   8.584   4.003
70722W        W42338  28.004  40.691  10.679
70723W        W42339  14.074  19.161  14.342
70724W        W42340  19.419  35.517   1.428
70725W        W42341   9.712  30.423   3.582
70726W        W42342  27.206  33.706   2.976
70727W        W42343  13.112  40.776  11.645
70728W        W42344  22.786  22.599   0.103
70729W        W42345  21.177  37.754  11.871
70730W        W42346  38.202  34.300   1.519
70731W        W42347  33.615   4.541  10.973
70732W        W42348  36.104  25.932   1.352
70733W        W42349  20.042  32.652  13.002
70734W        W42350   1.887   4.409   1.207
70735W        W42351  36.038  11.570   0.311
70736W        W42352   9.648  34.377  10.092
70737W        W42353  31.147  37.509   4.613
70738W        W42354  31.221  14.125  14.304
70739W        W42355   5.671   6.854   1.217
70740W        W42356  16.973  29.675   2.808
70741W        W42357  19.070  36.366  14.888
70742W        W42358  23.482  41.723  14.906
70743W        W42359  42.764  15.794   2.305
70744W        W42360  24.918  31.141   2.724
70745W        W42361  28.986  35.602   1.893
70746W        W42362  42.912  42.569   4.506
70747W        W42363  43.027  22.449   0.782
70748W        W42364  21.207  12.344   0.474
70749W        W42365   0.868  10.322   2.657
70750W        W42366  27.966  17.567   9.898
70751W        W42367  34.045  17.310  10.054
70752W        W42368  36.207   2.673   2.125
70753W        W42369   4.197  28.844   3.926
70754W        W42370  25.591  28.425  11.496
70755W        W42371   0.325  39.917   3.163
70756W        W42372  42.981  34.938  14.928
70757W        W42373  17.301  30.380  12.534
70758W        W42374   1.321  39.880   1.094
70759W        W42375  25.917  11.832   2.932
70760W        W42376  26.535  22.253   4.721
70761W        W42377  14.037  10.781  11.052
70762W        W42378  26.097  14.747   4.622
70763W        W42379  40.507  27.219   0.609
70764W        W42380  29.159  25.654   4.193
70765W        W42381  23.732   9.739   3.669
70766W        W42382   9.326  42.553  11.096
70767W        W42383   2.036  27.517  14.533
70768W        W42384  34.130  24.150  13.154
70769W        W42385   0.464  22.013   1.382
70770W        W42386  42.814  38.319  10.797
70771W        W42387  11.847   4.792  10.758
70772W        W42388  30.176  32.516   2.496
70773W        W42389  14.126  20.181   4.777
70774W        W42390   2.717  15.906  14.076
70775W        W42391  41.445  23.643  14.780
70776W        W42392  37.768   6.889  11.179
70777W        W42393  14.736  16.665  10.180
70778W        W42394  33.858   4.839  14.269
70779W        W42395   4.686  26.131  12.741
70780W        W42396  31.153  13.064   0.446
70781W        W42397  25.519   0.793   0.228
70782W        W42398  16.035  15.537  14.866
70783W        W42399  35.830  12.763  13.760
70784W        W42400  21.639   9.611   1.841
70785W        W42401  29.151  43.739  14.812
70786W        W42402  16.746  41.613  13.045
70787W        W42403  18.669  38.418   4.224
70788W        W42404  31.441  36.552  10.953
70789W        W42405  27.551  13.413   2.389
70790W        W42406   1.956  20.249   1.386
70791W        W42407  32.341  33.201  14.413
70792W        W42408   9.377  12.668  14.680
70793W        W42409  30.055  39.586   2.206
70794W        W42410  41.179  23.249  11.521
70795W        W42411   0.337  12.984  12.941
70796W        W42412  33.810  27.700   0.700
70797W        W42413   1.840  11.782   4.073
70798W        W42414  30.774  34.207  12.769
70799W        W42415  18.094   7.847  13.755
70800W        W42416  42.378  38.808  14.716
70801W        W42417  40.817  19.522   0.555
70802W        W42418  35.861  25.172   3.668
70803W        W42419  34.443  38.241  11.609
70804W        W42420   9.215   9.596  11.110
70805W        W42421  43.280  18.302  11.917
70806W        W42422  34.050  23.030   3.575
70807W        W42423  40.954  40.355   1.834
70808W        W42424   4.408  37.903   2.451
70809W        W42425  36.428  22.207   3.692
70810W        W42426  20.487  23.214   2.499
70811W        W42427  25.953  40.077  13.910
70812W        W42428  36.169   6.358   2.355
70813W        W42429   8.177   3.047  12.817
70814W        W42430  26.190   9.330   4.626
70815W        W42431   3.231  24.189   3.275
70816W        W42432  42.616  32.414   0.804
70817W        W42433  43.791   0.073  13.902
70818W        W42434   0.853   4.213  10.241
70819W        W42435  23.115   8.361   2.850
70820W        W42436  38.000  29.967   3.887
70821W        W42437  28.828  29.527   0.762
70822W        W42438  30.087  16.203   1.362
70823W        W42439   7.052  26.359  12.510
70824W        W42440  29.066   8.844  10.755
70825W        W42441  40.494   8.692  14.721
70826W        W42442   4.248  17.271   2.310
70827W        W42443  15.654  16.857   4.411
70828W        W42444  29.553  44.526  13.090
70829W        W42445  42.672   2.403   2.253
70830W        W42446  33.081   4.176  10.609
70831W        W42447  33.850  23.051   3.099
70832W        W42448   8.235  20.589   4.717
70833W        W42449   0.872  21.501   2.736
70834W        W42450  22.988   1.840  12.949
70835W        W42451   1.977   3.981   2.174
70836W        W42452  14.773  15.240   0.257
70837W        W42453   0.281  33.390   1.453
70838W        W42454  10.429  43.408   3.383
70839W        W42455  25.625  29.150   0.978
70840W        W42456  13.351  15.695  11.125
70841W        W42457   5.974  15.940  11.060
70842W        W42458   2.435  22.534  12.958
70843W        W42459  15.211  13.110  14.314
70844W        W42460  37.975  21.578   1.464
70845W        W42461  19.381  18.119  13.342
70846W        W42462  34.440  31.155  14.811
70847W        W42463  14.644  30.569  11.033
70848W        W42464   9.186  10.692  13.372
70849W        W42465  13.331  28.121  13.873
70850W        W42466  23.509  15.094   4.161
70851W        W42467  35.063  15.816  14.128
70852W        W42468   8.209   4.338   1.403
70853W        W42469  26.690   3.264  14.463
70854W        W42470  22.297  16.715  12.461
70855W        W42471  38.717  15.642  14.740
70856W        W42472  42.836   8.765   0.435
70857W        W42473  44.244  33.998   4.296
70858W        W42474  10.775  39.449   3.756
70859W        W42475  30.675   8.229  13.102
70860W        W42476  21.629  21.251   1.431
70861W        W42477  34.456  16.083   4.607
70862W        W42478  26.607  18.354   2.917
70863W        W42479   7.397   0.876   3.859
70864W        W42480  21.530  43.479   2.324
70865W        W42481   4.963   2.724  10.252
70866W        W42482   7.456  43.192   0.212
70867W        W42483   4.423  10.989   4.459
70868W        W42484  15.278   3.677  11.675
70869W        W42485  16.243  33.090  11.406
70870W        W42486  15.630  11.955   3.701
70871W        W42487  32.516   7.425  11.178
70872W        W42488  42.931  31.015  11.668
70873W        W42489   1.492  26.297  11.510
70874W        W42490  21.255  22.790   2.163
70875W        W42491  15.810  34.967   0.059
70876W        W42492   9.655  44.653  13.505
70877W        W42493  13.102  34.797   0.923
70878W        W42494   7.338  33.399  14.836
70879W        W42495  40.531  43.734  11.547
70880W        W42496   6.565  14.120   1.126
70881W        W42497  23.253  32.188   2.764
70882W        W42498  20.827  25.931  11.190
70883W        W42499  20.599  15.169  10.694
70884W        W42500  20.078  25.212   5.093
70885W        W42501  39.062  40.466   4.222
70886W        W42502   0.083  40.891  11.604
70887W        W42503   0.507  18.083   3.235
70888W        W42504  18.043  32.962  10.637
70889W        W42505  19.060  40.494  13.942
70890W        W42506  23.978  29.103  14.813
70891W        W42507   4.821  24.919   5.030
70892W        W42508   5.834  21.349  11.974
70893W        W42509  15.145  22.099  12.523
70894W        W42510  17.756   7.589  12.089
70895W        W42511  25.757  12.533   4.705
70896W        W42512  44.170  27.261  13.133
70897W        W42513  33.303   1.645   0.047
70898W        W42514   6.950   3.360  13.898
70899W        W42515   5.862  15.708  12.005
70900W        W42516  25.303  13.192   0.061
70901W        W42517   2.317  18.305   4.400
70902W        W42518  40.257  42.563   0.308
70903W        W42519  21.480  26.498   3.264
70904W        W42520  16.078  13.668  10.968
70905W        W42521  34.184   0.549   1.422
70906W        W42522   8.398  27.529   2.276
70907W        W42523  40.464  36.267   1.525
70908W        W42524  18.584   9.799   2.763
70909W        W42525  14.532  22.060   4.100
70910W        W42526  26.403  29.604   4.831
70911W        W42527  29.513  21.699  14.543
70912W        W42528  31.757  13.887   1.835
70913W        W42529   6.887  13.703   4.320
70914W        W42530  31.417  15.324   3.242
70915W        W42531  40.186   7.293  11.597
70916W        W42532  37.552  12.315  10.470
70917W        W42533  14.075  23.697   3.773
70918W        W42534  29.637  26.241   0.268
70919W        W42535   9.792  16.373  14.283
70920W        W42536  13.057   6.770  13.475
70921W        W42537  23.221  44.354  12.457
70922W        W42538  41.914  24.483   1.269
70923W        W42539   7.248   9.653   2.592
70924W        W42540   7.730  29.133   3.148
70925W        W42541   7.054  24.124  13.974
70926W        W42542  27.719  44.843  13.944
70927W        W42543   2.861  10.499  13.304
70928W        W42544  37.538   8.843   2.487
70929W        W42545  38.360   8.388  11.949
70930W        W42546  30.329   6.929  13.175
70931W        W42547  24.047  34.857   3.311
70932W        W42548  18.748  43.241  13.432
70933W        W42549  40.449  12.422  13.364
70934W        W42550  38.566   7.189   4.299
70935W        W42551  11.305   9.902   2.766
70936W        W42552  24.245  41.624  13.430
70937W        W42553  12.300  27.009   3.149
70938W        W42554  41.366  34.553  11.673
70939W        W42555  23.282  16.701   4.745
70940W        W42556  25.147   9.121  13.957
70941W        W42557   0.966  24.113   1.727
70942W        W42558  40.877  14.318   0.268
70943W        W42559  11.926  30.477   0.689
70944W        W42560  38.985  28.175   1.439
70945W        W42561  27.522  30.202  11.667
70946W        W42562  20.593  18.224  12.002
70947W        W42563  32.678  23.682  13.215
70948W        W42564  12.239  28.029   4.866
70949W        W42565  37.893   0.124   2.791
70950W        W42566   2.110   6.792  11.642
70951W        W42567  30.570  29.941   1.375
70952W        W42568  39.232  12.008   4.104
70953W        W42569  20.716   1.229   3.167
70954W        W42570  42.922  38.067   1.319
70955W        W42571  43.963  31.181  12.808
70956W        W42572   0.513  19.057  14.756
70957W        W42573  20.139  25.175   4.145
70958W        W42574  38.848  22.190  11.601
70959W        W42575  22.254   6.276  13.955
70960W        W42576   2.952  20.781  10.692
70961W        W42577   0.858  21.392  12.527
70962W        W42578   4.132  42.085  12.349
70963W        W42579  16.747  16.225   1.784
70964W        W42580   8.317   2.563  12.858
70965W        W42581  39.030   6.915  13.481
70966W        W42582  12.141  20.741   1.424
70967W        W42583  32.973   3.548  14.444
70968W        W42584  37.036  23.694   3.686
70969W        W42585  31.903  33.607   3.264
70970W        W42586   6.341  44.881  13.851
70971W        W42587  34.475   8.302   3.343
70972W        W42588   0.280   7.187   1.876
70973W        W42589  39.516   5.012  12.511
70974W        W42590  32.921  30.939  10.544
70975W        W42591   6.250  44.221  11.659
70976W        W42592  25.271  11.649  10.328
70977W        W42593   0.982  30.053  10.520
70978W        W42594  17.726  42.049   4.297
70979W        W42595  33.876   5.444  12.566
70980W        W42596   4.936  17.582   1.290
70981W        W42597  41.522   5.229  12.328
70982W        W42598  44.724  15.068  14.443
70983W        W42599  26.886  42.107  14.698
70984W        W42600  12.160  31.927   4.371
70985W        W42601   6.388   1.400   1.835
70986W        W42602  28.896  32.844   0.607
70987W        W42603   8.062  39.848   3.750
70988W        W42604  17.786  38.486  14.128
70989W        W42605  37.022  31.531   2.407
70990W        W42606  16.379   3.079   2.171
70991W        W42607   3.366  38.475  11.750
70992W        W42608  27.381   5.724   2.625
70993W        W42609  20.713   1.381   3.804
70994W        W42610  40.283  13.234   4.233
70995W        W42611   6.661  43.386   0.764
70996W        W42612  27.916   1.279  12.799
70997W        W42613  37.561  14.274   0.743
70998W        W42614  10.447  36.025  13.394
70999W        W42615  44.945  30.834   3.270
71000W        W42616  36.011  42.650   3.538
71001W        W42617   5.084  44.456   3.485
71002W        W42618  21.457  36.550   4.631
71003W        W42619  24.584  33.673   1.714
71004W        W42620  22.957  10.768   1.436
71005W        W42621  17.384   0.445   4.762
71006W        W42622  16.491  24.680  13.362
71007W        W42623   3.709  34.517  11.039
71008W        W42624   4.672   7.431   1.566
71009W        W42625  11.194  26.560  13.496
71010W        W42626  19.689  23.434   0.700
71011W        W42627  38.951  36.857  12.067
71012W        W42628  11.699  19.664  10.360
71013W        W42629  25.115  14.499  14.723
71014W        W42630  21.177  23.973  12.070
71015W        W42631  13.359  16.536  11.059
71016W        W42632  32.357   3.518  14.941
71017W        W42633  33.964  36.134   3.112
71018W        W42634  25.186  16.993  12.872
71019W        W42635  12.019   3.052  11.240
71020W        W42636  42.751  18.393   4.173
71021W        W42637  12.375  28.030   2.379
71022W        W42638   7.852  35.105   0.562
71023W        W42639  32.511   8.277   2.335
71024W        W42640  21.927  15.588   4.691
71025W        W42641  18.934  40.931   0.316
71026W        W42642   7.222  36.376   0.624
71027W        W42643  16.565   0.785   4.675
71028W        W42644  24.776   1.369   3.190
71029W        W42645  23.611  39.741  13.916
71030W        W42646  22.005  28.785   3.597
71031W        W42647  23.607  23.919   4.284
71032W        W42648  39.919  28.941  11.521
71033W        W42649   4.668  38.065  13.940
71034W        W42650  42.356  14.011   4.126
71035W        W42651  44.429  20.433  14.432
71036W        W42652  16.264  34.922  14.835
71037W        W42653   7.360  12.136   1.224
71038W        W42654   0.417   5.423   3.600
71039W        W42655   1.939  43.018   0.322
71040W        W42656  33.895  19.542   4.106
71041W        W42657  12.046   9.627  14.934
71042W        W42658  32.909  17.628   2.645
71043W        W42659  30.745  11.303  13.218
71044W        W42660  25.996  34.025  13.745
71045W        W42661  20.805  38.409  12.178
71046W        W42662  18.020  15.636  14.101
71047W        W42663  25.063   2.341   2.914
71048W        W42664   5.264  40.147  14.914
71049W        W42665   9.629  25.055   3.217
71050W        W42666   4.225  38.227  11.190
71051W        W42667  23.727  32.153  10.991
71052W        W42668   5.947   7.722  11.012
71053W        W42669  43.449  16.728   2.931
71054W        W42670   8.255  41.357   0.764
71055W        W42671  35.075  32.900  14.272
71056W        W42672  41.918  39.265  14.306
71057W        W42673  31.015   4.856  13.887
71058W        W42674  20.361  27.665   2.858
71059W        W42675  27.403  16.324   3.175
71060W        W42676   5.668   0.413  10.306
71061W        W42677  15.681  14.852   3.365
71062W        W42678  12.350  12.209   2.191
71063W        W42679  41.069   2.729  14.727
71064W        W42680  34.065   2.372  11.423
71065W        W42681  28.097  39.944   0.318
71066W        W42682  25.416  15.133  11.034
71067W        W42683   1.863   4.946   3.405
71068W        W42684   4.443  42.478  12.934
71069W        W42685  27.468  32.091  13.088
71070W        W42686   2.279   9.030  11.773
71071W        W42687  12.190   8.173  14.316
71072W        W42688  32.437  27.852   1.520
71073W        W42689  37.059  26.521  14.465
71074W        W42690  37.160  26.218   2.275
71075W        W42691   4.134  40.520   1.369
71076W        W42692   4.673  37.578   0.979
71077W        W42693  43.759  21.671   2.790
71078W        W42694  14.328  43.020  11.094
71079W        W42695  19.771  21.516   3.254
71080W        W42696   4.200  35.893   3.896
71081W        W42697  41.468  18.621  14.041
71082W        W42698  19.546  10.608  14.919
71083W        W42699  40.793   6.024  14.297
71084W        W42700  37.111  12.563  12.087
71085W        W42701  12.257  16.501  11.135
71086W        W42702  27.826   8.154   4.121
71087W        W42703  35.800  14.841   0.309
71088W        W42704  27.784  40.072  13.046
71089W        W42705  39.363  26.801   4.225
71090W        W42706  18.154  42.548   2.218
71091W        W42707  18.144   5.382   4.509
71092W        W42708  33.223   6.586  13.206
71093W        W42709  12.400   4.319  14.161
71094W        W42710  12.407  14.211   0.361
71095W        W42711  11.279  22.625  11.861
71096W        W42712  22.637  17.783   2.247
71097W        W42713  42.562   1.546  11.169
71098W        W42714  35.866  24.515   2.578
71099W        W42715   0.819   5.112  12.905
71100W        W42716  37.994  11.691   4.558
71101W        W42717  24.776  44.727   1.450
71102W        W42718  19.485  35.119  11.875
71103W        W42719  26.050  38.294  14.410
71104W        W42720   9.241  29.665   3.845
71105W        W42721   4.513  14.556  14.418
71106W        W42722   9.206  39.001  10.195
71107W        W42723  11.682  42.946  10.490
71108W        W42724  21.494  29.720  13.164
71109W        W42725  12.929   8.726   4.925
71110W        W42726   3.770  33.058  11.574
71111W        W42727  37.317  10.323   5.585
71112W        W42728  28.459  25.554   2.868
71113W        W42729  34.024  17.981  12.388
71114W        W42730  33.830  17.014  14.384
71115W        W42731  13.931  13.046   2.318
71116W        W42732  32.027   4.965   4.619
71117W        W42733  30.067   0.858   3.165
71118W        W42734   0.859  44.418  14.233
71119W        W42735  26.151  28.713  13.952
71120W        W42736  28.584   7.160  12.421
71121W        W42737  12.809   1.992   2.910
71122W        W42738  25.019  31.438   3.694
71123W        W42739  31.656  14.770   4.844
71124W        W42740  38.278  31.163  12.583
71125W        W42741  22.453  34.470   9.916
71126W        W42742  35.113  10.212   0.328
71127W        W42743  39.913  28.701   1.262
71128W        W42744  34.358  44.017  13.835
71129W        W42745  23.497  19.111   2.416
71130W        W42746  37.237   9.256  13.128
71131W        W42747  23.686  26.654   3.654
71132W        W42748  40.426  22.826  14.385
71133W        W42749  21.551  42.244   3.767
71134W        W42750  37.094  28.518  13.481
71135W        W42751  36.332   8.675   2.838
71136W        W42752   5.201  16.348  11.409
71137W        W42753  12.250  44.875   0.919
71138W        W42754  14.055  41.468   2.918
71139W        W42755  28.204  36.471  12.824
71140W        W42756   2.701  27.197   2.899
71141W        W42757  10.266  37.081   0.068
71142W        W42758  34.445  35.425   4.428
71143W        W42759  30.427  36.819  13.912
71144W        W42760   0.483   3.468   3.711
71145W        W42761  19.836   3.627   4.103
71146W        W42762  30.003  25.075   1.677
71147W        W42763   5.454  21.199   1.763
71148W        W42764   8.695  29.464   4.048
71149W        W42765  19.589  24.578   2.719
71150W        W42766  24.844  33.371  13.429
71151W        W42767  41.647  14.651  12.437
71152W        W42768  18.848  14.975   3.707
71153W        W42769  33.072   9.905   1.843
71154W        W42770  11.530  12.844  10.299
71155W        W42771  30.908  28.965   1.502
71156W        W42772   2.866  22.057   4.221
71157W        W42773  35.104  15.105   2.873
71158W        W42774  22.143   2.401   1.349
71159W        W42775  12.132  35.182   1.671
71160W        W42776  41.769  40.545  14.614
71161W        W42777   1.813   1.203  10.221
71162W        W42778  42.862  27.150   2.635
71163W        W42779  44.475  31.967  14.309
71164W        W42780  11.615   3.259   2.864
71165W        W42781  21.326  36.148  10.986
71166W        W42782  13.330  33.453  14.926
71167W        W42783  28.385  28.235   5.065
71168W        W42784   3.323  22.630  11.705
71169W        W42785  37.960  29.462   0.273
71170W        W42786  23.635  26.631  14.315
71171W        W42787  36.534   9.910   3.261
71172W        W42788  12.783  30.869   0.882
71173W        W42789  13.184  30.426   1.346
71174W        W42790  23.643  33.300   4.637
71175W        W42791  25.535  20.453  13.006
71176W        W42792  14.993   5.201  10.293
71177W        W42793   1.779   9.355  11.391
71178W        W42794   6.879   7.566  10.787
71179W        W42795  30.006  21.681   4.560
71180W        W42796  35.031  25.855   3.750
71181W        W42797  12.818  34.435   1.725
71182W        W42798  37.336  28.660  14.421
71183W        W42799   8.389  25.332   2.807
71184W        W42800   6.736  10.430  10.789
71185W        W42801  11.650  35.085  10.059
71186W        W42802  24.814  43.395  12.504
71187W        W42803  39.927  18.308  13.393
71188W        W42804  34.474   9.791   2.625
71189W        W42805  16.223  19.582   4.116
71190W        W42806   2.972   5.706  14.334
71191W        W42807   5.265  38.332  11.107
71192W        W42808  24.705   8.920   1.580
71193W        W42809   0.494  40.480  14.863
71194W        W42810   1.145  43.983   4.602
71195W        W42811   4.770  43.578   0.668
71196W        W42812  24.663  42.172   1.647
71197W        W42813  30.893  20.305  13.419
71198W        W42814  35.067  24.501   1.136
71199W        W42815  17.807  13.547   3.222
71200W        W42816  44.750  35.385  10.805
71201W        W42817  23.360  30.961  14.349
71202W        W42818  39.034   1.850  11.266
71203W        W42819  27.116  40.604   1.653
71204W        W42820  34.732  20.542  11.875
71205W        W42821  29.953  38.124   3.286
71206W        W42822  40.422  15.243   1.814
71207W        W42823  15.140  20.076   1.972
71208W        W42824  32.010   3.949  11.584
71209W        W42825  19.590   9.189   2.317
71210W        W42826  40.500   0.766  13.230
71211W        W42827  24.923   9.448  12.008
71212W        W42828  16.523  39.666   0.738
71213W        W42829   2.032  32.416  12.916
71214W        W42830   7.273  10.708  13.497
71215W        W42831  34.026  24.955   4.353
71216W        W42832   5.645  11.182   3.184
71217W        W42833  18.817  19.423   1.846
71218W        W42834  21.051  40.415   1.207
71219W        W42835  34.825  31.411   3.494
71220W        W42836  26.553  11.313   0.694
71221W        W42837  24.992  33.433   0.406
71222W        W42838  38.794  23.449  14.547
71223W        W42839  30.592  34.489  12.379
71224W        W42840   1.346  36.964  12.002
71225W        W42841  27.765  14.286   0.423
71226W        W42842  14.759  24.030  10.895
71227W        W42843  39.463   8.185   3.680
71228W        W42844   4.180  10.382  12.025
71229W        W42845  42.843  42.471   5.006
71230W        W42846  25.256  14.362  14.241
71231W        W42847   1.904  10.885   1.768
71232W        W42848  26.697  30.400  14.308
71233W        W42849  12.977  21.746  11.118
71234W        W42850  17.651   7.627  11.216
71235W        W42851  37.038  18.914   1.763
71236W        W42852  29.427  30.048  13.573
71237W        W42853  31.687  19.678   9.834
71238W        W42854  35.123  15.789   3.702
71239W        W42855  19.454  11.181   3.725
71240W        W42856  20.805  27.694   2.623
71241W        W42857  11.540   3.021   3.699
71242W        W42858  30.917  17.666   2.804
71243W        W42859  42.279  29.866  14.131
71244W        W42860  44.941  22.058   1.456
71245W        W42861  29.862  17.381  14.368
71246W        W42862  44.481  43.878   2.120
71247W        W42863   4.201  36.331   0.868
71248W        W42864  16.312  17.919   3.448
71249W        W42865  33.149  43.924   1.630
71250W        W42866  44.224  42.990   2.409
71251W        W42867  40.876  22.731  11.098
71252W        W42868   0.609  22.755  10.180
71253W        W42869   8.922  21.095  10.843
71254W        W42870  33.691  43.620   5.446
71255W        W42871  31.896  34.539   4.232
71256W        W42872  43.854  30.545  11.110
71257W        W42873  14.675  17.784  14.518
71258W        W42874  22.126   8.693  11.129
71259W        W42875  14.720  13.822   3.134
71260W        W42876  34.509  15.158   4.791
71261W        W42877  32.990   2.521   5.387
71262W        W42878   4.651   2.766   0.372
71263W        W42879   0.906  42.293  10.698
71264W        W42880  34.829  12.500  11.075
71265W        W42881   6.316  24.447   0.682
71266W        W42882   3.759  43.803   2.803
71267W        W42883   9.138  19.315  14.375
71268W        W42884  43.550   4.778  12.450
71269W        W42885  42.341  29.372  13.951
71270W        W42886  32.588   6.206   3.306
71271W        W42887  38.761  29.391   2.675
71272W        W42888  33.486  10.659  13.419
71273W        W42889   0.012  21.542   0.237
71274W        W42890   2.833   3.682  13.215
71275W        W42891  19.151  36.446   4.095
71276W        W42892  25.946  11.889  13.414
71277W        W42893  22.147  31.188  13.336
71278W        W42894  11.146  44.487  13.579
71279W        W42895  16.668  25.522  12.040
71280W        W42896  28.386  16.492   2.823
71281W        W42897  17.164  42.974   2.427
71282W        W42898  28.004  27.873  14.398
71283W        W42899   2.631  41.408  10.014
71284W        W42900   4.829   2.943  13.465
71285W        W42901   1.898  39.422   2.742
71286W        W42902   1.244  43.707  11.239
71287W        W42903  40.571   1.567  12.163
71288W        W42904  12.240  39.705   2.179
71289W        W42905   1.786  26.999   1.989
71290W        W42906  14.471  36.325  13.837
71291W        W42907   9.719  32.528   3.926
71292W        W42908  38.444  18.398  12.115
71293W        W42909  20.258  30.676   3.300
71294W        W42910  39.273   8.835   1.872
71295W        W42911   1.327   9.244   2.754
71296W        W42912   6.471  24.939   2.617
71297W        W42913  41.965  43.702  13.766
71298W        W42914   6.646  15.863   2.241
71299W        W42915  17.406  36.600   2.940
71300W        W42916   1.322  12.116   2.330
71301W        W42917  18.831  20.644   0.439
71302W        W42918   3.026  28.607   1.801
71303W        W42919  39.714  11.698   2.259
71304W        W42920   0.920  30.483   1.129
71305W        W42921  14.899   8.365  12.430
71306W        W42922  23.633  38.135  11.615
71307W        W42923  42.548  18.259  10.741
71308W        W42924  25.188   6.673  12.463
71309W        W42925  19.518  38.881  13.531
71310W        W42926  36.882  15.600   1.034
71311W        W42927  26.613  44.530   2.078
71312W        W42928  10.338   4.804   1.718
71313W        W42929  28.118  17.095   3.326
71314W        W42930  19.781  22.628  12.023
71315W        W42931   3.714  43.881  10.171
71316W        W42932  40.884   6.895  13.425
71317W        W42933  27.621   8.949   3.718
71318W        W42934  41.042  19.839  12.429
71319W        W42935   7.933  42.494  14.097
71320W        W42936  11.149  31.624   0.846
71321W        W42937  11.656  15.104   0.456
71322W        W42938  13.292  13.053   0.746
71323W        W42939  18.793  12.868  12.822
71324W        W42940  39.139  13.916  12.489
71325W        W42941  33.089   3.034  14.491
71326W        W42942  18.837  30.841  11.269
71327W        W42943  34.422  40.805   1.156
71328W        W42944  44.189  36.088  12.955
71329W        W42945   5.717   3.694  12.644
71330W        W42946  14.016   5.758   2.729
71331W        W42947  36.761  28.687   4.102
71332W        W42948  18.543   4.171  12.771
71333W        W42949  35.883  29.653   0.488
71334W        W42950  42.099  23.521   1.047
71335W        W42951  19.816  10.669   4.629
71336W        W42952  34.629   2.481   2.811
71337W        W42953  27.215  27.669  11.608
71338W        W42954  18.737  29.877   3.997
71339W        W42955  29.544  12.118   1.509
71340W        W42956  41.332  39.559  12.877
71341W        W42957  33.126  38.432   0.449
71342W        W42958  30.040  22.220   2.293
71343W        W42959  23.677  30.530   2.271
71344W        W42960   0.079  12.856   2.667
71345W        W42961  36.108  44.973  13.937
71346W        W42962  24.583   0.088   3.175
71347W        W42963  18.222   7.246  12.442
71348W        W42964  28.180  27.390   0.690
71349W        W42965   4.468  19.678  13.535
71350W        W42966  13.896  37.585   0.804
71351W        W42967  40.033  29.852  11.512
71352W        W42968   1.392  41.329  13.168
71353W        W42969  18.077  39.424   0.866
71354W        W42970   1.215  37.831   1.275
71355W        W42971  29.919   8.900  14.946
71356W        W42972  29.618  15.444  13.460
71357W        W42973  41.422   3.368  14.565
71358W        W42974   2.315  14.751   3.245
71359W        W42975  27.031  32.851   1.795
71360W        W42976  12.975   7.761  13.340
71361W        W42977  32.577  39.547   3.737
71362W        W42978  34.996  28.633  13.612
71363W        W42979  36.899   9.945  12.810
71364W        W42980   1.324  25.659   0.555
71365W        W42981   0.357   5.978  12.886
71366W        W42982   0.407  27.728   2.972
71367W        W42983   8.930   0.487  11.509
71368W        W42984  23.976  15.350   4.134
71369W        W42985   2.440  24.598  12.838
71370W        W42986  22.570  29.147   1.825
71371W        W42987  25.859  36.043   2.230
71372W        W42988   5.956   3.249   0.525
71373W        W42989  29.191   7.984   0.674
71374W        W42990   5.330  40.147   0.778
71375W        W42991  38.547  41.527   2.120
71376W        W42992  23.729  14.591   1.474
71377W        W42993  33.606  31.019  13.256
71378W        W42994  42.573   4.285  12.937
71379W        W42995  41.096  25.623   3.623
71380W        W42996   0.059  35.560  11.615
71381W        W42997  37.629  19.482  10.595
71382W        W42998   2.838  35.783  11.581
71383W        W42999   1.987  25.392   5.145
71384W        W43000  37.006  15.024  12.941
71385W        W43001  21.276  18.790   3.814
71386W        W43002  10.161   0.371   3.621
71387W        W43003  39.856  39.564  14.986
71388W        W43004  16.136   4.291   0.448
71389W        W43005  26.515  23.370  12.070
71390W        W43006  26.005   8.725   0.435
71391W        W43007   7.781  40.179  11.399
71392W        W43008   1.759  27.392   3.657
71393W        W43009   0.024  15.101   3.147
71394W        W43010  32.022  29.967   3.197
71395W        W43011  31.513  15.504  12.536
71396W        W43012  15.570  17.658   3.310
71397W        W43013  25.865  35.336  12.519
71398W        W43014  30.624   6.518   3.714
71399W        W43015   0.784  43.442  11.233
71400W        W43016   5.496   9.354  10.700
71401W        W43017  34.982  12.871   3.129
71402W        W43018  35.668  36.482  12.868
71403W        W43019  34.476  28.391  11.961
71404W        W43020  20.604  19.773  14.927
71405W        W43021   3.420   8.748   1.495
71406W        W43022   5.877  29.130  10.815
71407W        W43023  12.750  10.106  11.165
71408W        W43024  13.271  17.255  12.555
71409W        W43025  22.196  43.535   1.413
71410W        W43026  40.511  18.574   3.157
71411W        W43027  13.548  38.576  11.695
71412W        W43028  16.052   4.358  12.992
71413W        W43029  25.474  10.110  11.092
71414W        W43030   9.162  20.592   1.203
71415W        W43031  41.920  26.948  13.488
71416W        W43032  14.017  12.367  14.681
71417W        W43033  18.840   4.223   1.297
71418W        W43034  35.081  27.662   2.585
71419W        W43035  16.036  20.277   2.415
71420W        W43036   0.467  32.008  13.393
71421W        W43037  30.725  20.589  12.535
71422W        W43038  41.842  24.980   4.250
71423W        W43039  23.172   8.525  13.917
71424W        W43040  35.613  29.625  13.506
71425W        W43041  25.206  35.641   2.890
71426W        W43042  24.497  37.800  10.300
71427W        W43043  14.925  12.635  11.652
71428W        W43044  24.692   1.233   2.278
71429W        W43045   9.568  28.568  13.308
71430W        W43046  43.459   3.734   0.320
71431W        W43047  40.559  34.349  10.262
71432W        W43048  32.600  33.367   0.014
71433W        W43049   6.656  23.703   2.279
71434W        W43050  26.512  32.046  10.079
71435W        W43051  19.197  10.277  14.088
71436W        W43052  26.451   0.354   4.698
71437W        W43053  15.871  25.500  13.308
71438W        W43054  30.814  18.178   1.806
71439W        W43055  20.551  18.424  14.339
71440W        W43056  33.952  24.166   5.020
71441W        W43057   7.228  34.929   2.266
71442W        W43058  34.198  21.730   0.533
71443W        W43059  24.012  13.438  11.528
71444W        W43060  33.065  14.514  12.676
71445W        W43061  11.712  33.409   3.777
71446W        W43062  13.981  38.195   0.825
71447W        W43063   7.213   4.947  12.932
71448W        W43064  10.989  14.767  11.638
71449W        W43065  24.070  42.529  13.875
71450W        W43066  14.697  37.191   1.545
71451W        W43067   3.861  33.603   0.455
71452W        W43068   9.412  34.396  13.308
71453W        W43069  42.887  34.463  14.738
71454W        W43070  32.198   2.294   4.718
71455W        W43071  12.349   0.496  11.036
71456W        W43072  10.428  41.931   0.868
71457W        W43073  14.795   2.187  12.853
71458W        W43074  26.461  32.597  14.949
71459W        W43075  17.223  16.770  13.360
71460W        W43076   3.953  24.581  10.487
71461W        W43077  26.458  11.869  10.792
71462W        W43078  13.355  26.240   5.234
71463W        W43079  19.421  19.996  11.596
71464W        W43080  15.005   1.924  13.259
71465W        W43081  26.963  21.672   1.002
71466W        W43082  10.549  40.428   2.199
71467W        W43083  13.659   7.441   2.942
71468W        W43084  34.970  22.560   1.305
71469W        W43085   8.009  20.093   4.598
71470W        W43086  41.233  13.068   0.763
71471W        W43087  29.500  31.718   3.658
71472W        W43088  12.141  30.577  12.136
71473W        W43089  29.479  41.811  14.846
71474W        W43090   1.163  40.438  11.165
71475W        W43091   1.676  23.541  12.975
71476W        W43092   4.011   5.317  10.917
71477W        W43093  38.792  30.975   2.683
71478W        W43094   7.140  19.270   0.555
71479W        W43095  37.963  23.489  10.709
71480W        W43096  19.233   5.874   4.054
71481W        W43097  40.869   6.819  11.947
71482W        W43098  20.629  42.605  14.870
71483W        W43099   3.248  24.690   3.444
71484W        W43100   4.271  27.369  12.111
71485W        W43101  10.843  44.261  14.881
71486W        W43102  24.574  43.874  12.428
71487W        W43103  40.733  33.720  14.926
71488W        W43104  43.539   4.456  13.601
71489W        W43105  39.394  12.908   4.245
71490W        W43106   7.079  36.967  12.968
71491W        W43107  30.343  42.180   4.125
71492W        W43108  22.058  40.938   2.338
71493W        W43109  38.058  41.550   2.289
71494W        W43110  22.922   8.636   3.256
71495W        W43111   6.442  17.046  11.885
71496W        W43112   3.941  33.469  11.833
71497W        W43113   7.754  37.349  10.307
71498W        W43114   1.264  25.921  11.762
71499W        W43115  36.894  26.901   0.400
71500W        W43116  11.187  13.409   1.834
71501W        W43117  33.086  20.211   2.335
71502W        W43118  22.398  27.332  14.912
71503W        W43119  19.129  13.596   2.888
71504W        W43120  31.147  42.570   3.715
71505W        W43121  24.026  32.169  14.820
71506W        W43122  41.864   7.807   0.577
71507W        W43123  24.080  10.958  11.083
71508W        W43124  33.532  31.732   4.514
71509W        W43125   1.516   1.699   1.830
71510W        W43126  24.051  16.813   0.298
71511W        W43127   0.451  19.676   1.784
71512W        W43128  43.313   1.347   2.697
71513W        W43129  19.822  38.874  10.720
71514W        W43130   7.457   2.827   4.014
71515W        W43131  25.379   7.357   5.038
71516W        W43132  27.508   4.237   3.846
71517W        W43133   3.704  31.699  13.128
71518W        W43134  23.777  10.053  10.141
71519W        W43135  13.841  41.544  12.450
71520W        W43136  22.280  21.039  13.938
71521W        W43137  11.745  11.756  14.835
71522W        W43138  29.461   6.633  12.511
71523W        W43139   1.377  22.100  11.070
71524W        W43140   8.832  28.607  13.791
71525W        W43141  27.940  40.029   4.100
71526W        W43142  12.525   0.310  14.508
71527W        W43143  29.614  26.181  14.378
71528W        W43144   5.375   8.168   3.278
71529W        W43145   6.394  31.214   1.968
71530W        W43146  39.467  12.899   0.865
71531W        W43147  23.622  22.815   3.160
71532W        W43148  18.281  13.708   3.328
71533W        W43149   3.724   0.741  13.553
71534W        W43150  39.376  25.589  14.409
71535W        W43151   3.822   7.370   1.323
71536W        W43152  23.935  11.645  11.615
71537W        W43153   3.742  29.453  10.303
71538W        W43154  28.563  31.501  12.417
71539W        W43155  16.723  39.914   4.326
71540W        W43156  44.488  33.367  13.871
71541W        W43157  28.196  12.394  11.174
71542W        W43158  11.721  14.659   2.265
71543W        W43159  17.309  18.787   0.706
71544W        W43160  42.189   4.302  11.490
71545W        W43161   7.470   0.342   3.065
71546W        W43162  43.296  10.143  11.231
71547W        W43163  25.267  20.647  14.355
71548W        W43164  23.655  41.717  12.360
71549W        W43165  33.496  17.052   0.894
71550W        W43166  19.490  37.265  11.138
71551W        W43167  17.971  44.190   2.812
71552W        W43168  13.629  12.813  12.555
71553W        W43169  33.165  36.021  13.905
71554W        W43170  24.219  19.454   3.329
71555W        W43171  44.977  31.348   3.188
71556W        W43172  35.494  11.589   2.920
71557W        W43173   8.759   0.797  13.942
71558W        W43174   9.434  13.151   4.188
71559W        W43175   6.480  21.853  12.654
71560W        W43176  43.796  30.396  12.530
71561W        W43177  20.864   6.948   3.461
71562W        W43178  20.196  25.036   2.222
71563W        W43179  24.059   9.290  11.475
71564W        W43180  11.788  44.531  14.805
71565W        W43181  29.674  27.975   5.466
71566W        W43182  18.567  20.121  11.427
71567W        W43183  30.110  23.203  12.505
71568W        W43184   8.335   3.206   3.344
71569W        W43185  21.745  24.969  14.992
71570W        W43186  16.206  43.276   4.887
71571W        W43187  24.032  31.923   4.645
71572W        W43188  29.383  28.103   1.370
71573W        W43189  34.534   1.673  11.685
71574W        W43190   9.972  31.944   5.053
71575W        W43191  37.093  13.349   0.759
71576W        W43192  14.309  15.911  10.556
71577W        W43193  40.118   3.635   1.896
71578W        W43194  42.762  29.697   0.411
71579W        W43195  32.421   8.008   1.891
71580W        W43196  21.946  22.212  14.597
71581W        W43197  20.676  19.540  14.451
71582W        W43198  14.380  19.704   3.764
71583W        W43199  38.468  37.309   1.258
71584W        W43200  42.966  29.115  13.452
71585W        W43201  37.894  38.841  13.999
71586W        W43202  27.643   7.196  14.310
71587W        W43203  13.777  16.839  11.193
71588W        W43204  33.144  30.708   4.281
71589W        W43205  16.158   4.405   1.112
71590W        W43206  29.186  44.986   4.208
71591W        W43207   0.402  11.307   3.569
71592W        W43208   2.200  20.608  11.090
71593W        W43209   1.250  17.291   4.139
71594W        W43210  30.376  40.610  11.190
71595W        W43211  39.936  42.781   3.612
71596W        W43212   2.413  38.999  13.277
71597W        W43213  34.647  16.213  13.079
71598W        W43214   9.113  16.327  14.834
71599W        W43215  29.588  38.918   3.297
71600W        W43216  20.734  37.501   0.688
71601W        W43217  42.348  13.935   4.648
71602W        W43218  16.089  11.202  10.444
71603W        W43219  16.074  42.163   4.480
71604W        W43220  23.260  13.144  12.103
71605W        W43221  19.315  13.701  14.942
71606W        W43222   5.620  14.505  11.353
71607W        W43223  41.378  40.723   1.023
71608W        W43224   8.217   0.841   2.085
71609W        W43225  40.477   8.105  13.301
71610W        W43226   7.875  42.115   3.764
71611W        W43227  24.730  20.574   1.312
71612W        W43228  15.878  28.589  12.352
71613W        W43229  22.543  16.630   0.380
71614W        W43230  11.065   9.392  14.665
71615W        W43231   6.186   9.765  10.246
71616W        W43232  13.203  35.825   3.307
71617W        W43233  35.135  19.650   0.932
71618W        W43234  28.221  33.996  10.259
71619W        W43235  44.534  39.044  10.598
71620W        W43236  19.413  32.944   2.365
71621W        W43237  16.574  29.442   1.669
71622W        W43238  35.590  42.597  13.120
71623W        W43239  19.502  15.800  11.125
71624W        W43240  35.618  36.831   4.577
71625W        W43241  44.770  18.219  11.572
71626W        W43242  17.297  30.949  12.028
71627W        W43243   6.430  25.579   2.052
71628W        W43244  43.014  23.045   2.696
71629W        W43245  26.590  15.205  13.808
71630W        W43246  18.229  11.207   4.456
71631W        W43247  11.320  20.669   0.845
71632W        W43248  36.976  15.732   4.717
71633W        W43249   7.605  25.946  14.985
71634W        W43250  25.995   5.941   3.756
71635W        W43251  35.532   9.693   1.294
71636W        W43252  19.162   8.183  12.904
71637W        W43253  11.582  29.018  10.759
71638W        W43254  20.252  38.798  13.006
71639W        W43255  17.845  33.579   4.604
71640W        W43256  30.872   7.989  14.912
71641W        W43257  28.772   1.739  10.721
71642W        W43258  39.104  27.715  14.390
71643W        W43259  36.421  40.517   3.736
71644W        W43260  42.078  12.695  11.145
71645W        W43261  19.686  37.823   3.754
71646W        W43262  31.652  10.309   0.129
71647W        W43263  36.440  21.277  14.363
71648W        W43264  22.758  42.470  14.969
71649W        W43265  10.153  29.655   1.358
71650W        W43266  13.028  39.416   2.293
71651W        W43267  35.493  31.943   0.814
71652W        W43268   0.955  29.178   2.351
71653W        W43269   5.634  41.774   1.324
71654W        W43270  41.975  18.827   1.923
71655W        W43271   3.483  42.594   2.636
71656W        W43272  42.928  10.140   2.262
71657W        W43273   3.417  24.680   9.887
71658W        W43274   3.997   5.309   0.534
71659W        W43275  35.935  36.513  14.627
71660W        W43276   3.855  26.767  10.724
71661W        W43277   8.908  34.869  14.810
71662W        W43278  13.320   6.692   2.263
71663W        W43279  11.281  10.229   3.184
71664W        W43280   3.860  12.071   4.193
71665W        W43281  12.610  28.933   4.114
71666W        W43282  23.209  36.718  12.142
71667W        W43283  27.396  31.188  13.062
71668W        W43284   9.227   7.643  12.002
71669W        W43285   1.759  21.493  11.843
71670W        W43286   9.847   8.167   1.423
71671W        W43287  36.921  41.391  12.008
71672W        W43288  39.123  36.993   5.077
71673W        W43289  14.418  41.155  13.306
71674W        W43290  25.456  22.608  13.405
71675W        W43291  24.582  36.119   2.325
71676W        W43292  41.250  16.214  14.883
71677W        W43293  31.593  25.615   3.826
71678W        W43294   7.076  24.042   0.871
71679W        W43295   2.079  26.679   5.133
71680W        W43296  44.075  42.871   1.276
71681W        W43297  25.706  41.120  10.194
71682W        W43298  33.547   7.477  12.374
71683W        W43299  44.462   2.139   1.522
71684W        W43300  39.526  33.723  11.530
71685W        W43301   3.072  26.299   1.343
71686W        W43302  31.589   9.915  13.084
71687W        W43303  12.520   2.860  13.442
71688W        W43304   8.846   5.940   3.925
71689W        W43305  35.417  25.460   1.782
71690W        W43306  41.793  31.194  12.701
71691W        W43307  20.168  13.158   1.257
71692W        W43308  17.987  25.394  11.119
71693W        W43309  18.652  11.094  10.824
71694W        W43310  22.716  26.284  12.043
71695W        W43311  15.156   1.245   1.873
71696W        W43312  36.930  13.557  12.061
71697W        W43313  40.826  26.529   3.188
71698W        W43314  44.482  41.103  10.726
71699W        W43315  28.421  37.126  10.642
71700W        W43316  13.699  15.586  12.481
71701W        W43317  10.108   5.054  14.427
71702W        W43318  43.833  22.963  11.730
71703W        W43319  17.183  32.056  10.649
71704W        W43320  19.731  43.600  13.598
71705W        W43321  37.117  38.104   4.016
71706W        W43322  29.481  29.334   2.679
71707W        W43323  15.579  32.152  12.294
71708W        W43324  40.270  38.790  14.859
71709W        W43325  14.698  33.096  13.103
71710W        W43326   8.284  37.750   0.999
71711W        W43327   7.598   9.652  12.095
71712W        W43328  30.148  11.054   0.956
71713W        W43329  29.573  19.234  14.503
71714W        W43330  42.005  34.314   2.307
71715W        W43331  35.320  34.410  11.690
71716W        W43332  19.171  27.312  13.073
71717W        W43333  30.412  30.146   2.371
71718W        W43334  24.723  34.855  11.121
71719W        W43335  43.889  34.598   4.237
71720W        W43336  24.960  27.193  13.932
71721W        W43337  38.937   2.132  14.925
71722W        W43338  37.436  32.575  12.020
71723W        W43339  40.256  32.697   2.214
71724W        W43340   1.659   7.631   4.094
71725W        W43341  29.150  40.022   0.279
71726W        W43342  42.426  13.625  13.762
71727W        W43343  18.518  12.957   5.003
71728W        W43344  39.970   4.067   4.545
71729W        W43345   5.844  42.708  10.987
71730W        W43346   0.850  16.760   2.855
71731W        W43347  17.272  31.167   2.510
71732W        W43348  19.430  40.644  11.539
71733W        W43349  39.850  23.026  13.516
71734W        W43350  14.460  33.279  11.923
71735W        W43351  12.905  24.003  13.342
71736W        W43352   5.912   8.359  12.120
71737W        W43353  22.655   5.284   4.675
71738W        W43354  20.105  42.011   1.197
71739W        W43355  21.680   7.574  11.505
71740W        W43356  34.975  36.819  14.948
71741W        W43357   6.587  29.035  11.981
71742W        W43358  27.309   8.200   4.103
71743W        W43359  34.035  29.966  14.509
71744W        W43360   2.708  42.770   2.315
71745W        W43361   1.876   1.705   4.656
71746W        W43362   8.746  24.030   1.930
71747W        W43363  12.887  41.986  11.023
71748W        W43364   5.651  11.884   4.345
71749W        W43365  41.781  27.607  12.840
71750W        W43366  16.023  41.447   0.287
71751W        W43367  17.273  39.839   0.704
71752W        W43368   0.056  23.669   1.693
71753W        W43369   3.692  19.253  11.756
71754W        W43370  35.123   4.212  14.103
71755W        W43371  10.611   3.836   4.381
71756W        W43372  37.276   8.787   5.094
71757W        W43373  27.109  36.996   4.818
71758W        W43374  11.379   6.294   3.288
71759W        W43375   6.281  25.857   4.826
71760W        W43376  11.664  33.920   4.768
71761W        W43377  24.637  19.764  13.797
71762W        W43378   0.956  32.893  13.485
71763W        W43379  11.712  43.606   3.772
71764W        W43380  29.306  39.119  13.088
71765W        W43381  23.593  20.096   4.438
71766W        W43382  28.638  32.127   2.878
71767W        W43383  20.338  20.170   4.380
71768W        W43384  32.330   4.304  11.940
71769W        W43385  23.904   9.157  14.864
71770W        W43386   3.201  14.306  10.666
71771W        W43387  41.960  42.835  13.966
71772W        W43388  13.398  35.905   1.764
71773W        W43389  29.969  39.837   0.766
71774W        W43390   9.396  21.667  10.399
71775W        W43391  30.247  39.472  10.926
71776W        W43392  37.873  32.056  13.256
71777W        W43393  33.191  42.896   0.398
71778W        W43394   8.723  43.505   4.108
71779W        W43395  12.317  27.621   0.617
71780W        W43396  38.173  33.888  13.458
71781W        W43397  28.997   3.282   3.498
71782W        W43398  34.334  14.604   2.205
71783W        W43399   5.247  34.299   1.454
71784W        W43400   7.829  28.628   1.703
71785W        W43401  15.684  10.447   3.604
71786W        W43402  15.606  29.153   1.898
71787W        W43403  26.658  16.697  13.035
71788W        W43404  30.096  25.177   2.198
71789W        W43405  27.751   5.257  12.511
71790W        W43406  27.987  37.601   3.132
71791W        W43407  33.086  34.280   4.220
71792W        W43408   5.572  12.135   3.619
71793W        W43409  15.248   2.741   1.789
71794W        W43410  35.309   4.293  11.206
71795W        W43411  15.831  32.600   3.971
71796W        W43412  25.697  40.158   4.401
71797W        W43413  29.126  27.511   5.142
71798W        W43414  24.787   5.284  11.893
71799W        W43415  33.914  33.562  14.441
71800W        W43416  31.862  11.607   0.228
71801W        W43417  21.551   6.393  12.411
71802W        W43418  25.668   0.944  11.354
71803W        W43419  27.400  42.623  13.591
71804W        W43420   4.850  17.609  10.875
71805W        W43421  19.333  39.127   3.522
71806W        W43422  37.232  33.323   1.638
71807W        W43423  35.770  24.550   4.113
71808W        W43424  23.433  31.969   4.072
71809W        W43425   3.937  10.104  10.747
71810W        W43426  40.444  44.564   1.733
71811W        W43427  33.644  35.478  10.981
71812W        W43428  19.981   0.772   0.683
71813W        W43429  30.341  40.472  13.302
71814W        W43430  43.893  39.459   4.147
71815W        W43431   3.811  38.682   3.885
71816W        W43432  24.758   2.979  13.374
71817W        W43433   6.176   8.180  11.159
71818W        W43434  13.862  16.071  11.625
71819W        W43435  23.217   4.311  13.804
71820W        W43436   1.365   8.174  14.863
71821W        W43437  25.578   4.174  14.326
71822W        W43438  35.994   6.089   1.428
71823W        W43439   6.589  33.932   0.777
71824W        W43440   7.052  33.668   1.958
71825W        W43441  40.021  43.859  11.534
71826W        W43442  26.915  21.691  12.537
71827W        W43443  23.975  35.948   5.083
71828W        W43444  18.756  27.262  11.116
71829W        W43445  44.612   1.234  11.642
71830W        W43446  25.207  15.284  13.272
71831W        W43447   9.226  24.638  12.978
71832W        W43448  43.619  12.221  12.741
71833W        W43449  15.239   8.306   4.610
71834W        W43450  38.667   2.334  12.413
71835W        W43451  32.749   4.919   4.083
71836W        W43452  44.856  16.812  11.750
71837W        W43453  38.020   5.300   4.541
71838W        W43454   5.296  31.638  10.610
71839W        W43455  21.238  19.748  13.431
71840W        W43456  25.068  16.898   1.960
71841W        W43457  23.125  28.157   4.582
71842W        W43458  11.069   6.393  10.937
71843W        W43459  18.562  36.729   3.102
71844W        W43460   9.282  10.188  11.917
71845W        W43461  35.853  14.532   3.321
71846W        W43462  28.469  12.174   0.825
71847W        W43463  13.783   0.842  11.171
71848W        W43464  10.123  27.704  12.492
71849W        W43465   6.488  29.971  12.290
71850W        W43466  34.984  15.527   1.967
71851W        W43467  29.586  37.808  14.881
71852W        W43468  14.303   5.279  11.926
71853W        W43469  17.532   0.760  14.429
71854W        W43470  22.158   3.191  14.711
71855W        W43471  18.328  25.578  13.475
71856W        W43472  30.193  26.677   1.852
71857W        W43473   9.055  18.752  11.302
71858W        W43474   9.802  33.779   3.045
71859W        W43475  40.572   9.354   1.838
71860W        W43476  29.059  40.581   1.099
71861W        W43477  13.868   9.986  11.084
71862W        W43478  17.525  35.597  10.797
71863W        W43479  41.516  20.050   1.208
71864W        W43480  32.337  30.951  13.006
71865W        W43481  19.816  31.973  14.474
71866W        W43482  11.211  37.294   2.283
71867W        W43483  11.130  36.661   4.179
71868W        W43484  40.795   5.546   3.296
71869W        W43485  33.331   8.121   1.877
71870W        W43486  19.302  36.963  14.278
71871W        W43487  41.635  34.030   0.764
71872W        W43488  38.443  35.269   4.046
71873W        W43489   9.740  26.263   2.285
71874W        W43490  11.887  44.269   0.764
71875W        W43491  22.254   3.435  12.945
71876W        W43492  44.412  43.805  11.655
71877W        W43493  43.405  17.212   4.317
71878W        W43494  39.478  18.033  13.348
71879W        W43495  17.696  43.877  11.838
71880W        W43496   4.759   7.593  10.268
71881W        W43497  10.634  43.259   4.543
71882W        W43498   7.001  11.272  14.542
71883W        W43499  33.616  36.411  14.064
71884W        W43500   0.382   2.394   1.708
71885W        W43501  17.327  38.223  12.922
71886W        W43502  39.152  20.023   4.570
71887W        W43503  43.424  36.414  11.953
71888W        W43504  25.229  32.921   4.121
71889W        W43505  14.246  39.800   1.290
71890W        W43506  10.461  21.075  14.885
71891W        W43507  24.896  14.650   3.171
71892W        W43508   0.693  16.000   3.319
71893W        W43509  44.334   8.736  12.458
71894W        W43510   6.298  20.606   4.578
71895W        W43511   5.404  43.019   5.047
71896W        W43512   5.389  23.843   4.742
71897W        W43513  34.874   1.632  10.996
71898W        W43514   6.900  24.175   1.333
71899W        W43515  13.005   8.258   2.746
71900W        W43516  32.386  26.015   4.035
71901W        W43517  38.899  17.618  12.005
71902W        W43518  32.556  11.065   2.872
71903W        W43519  35.076   1.813  10.045
71904W        W43520   7.804  43.329  10.945
71905W        W43521  25.735  25.151  11.967
71906W        W43522   7.900   3.284  11.234
71907W        W43523   0.356   4.005   3.612
71908W        W43524  13.876  26.502   1.742
71909W        W43525  15.099  23.780   3.945
71910W        W43526   7.179  25.619  11.563
71911W        W43527  35.047  27.254   1.682
71912W        W43528  20.039  29.028   1.763
71913W        W43529   5.453  42.569  11.296
71914W        W43530  20.538   9.913   0.014
71915W        W43531  39.717  38.124  14.874
71916W        W43532  26.264  15.800   0.268
71917W        W43533   5.208  18.633   3.777
71918W        W43534  42.354  14.803  11.059
71919W        W43535  21.680  34.844   3.477
71920W        W43536  43.853  37.357  14.795
71921W        W43537  35.430   5.865  14.440
71922W        W43538   3.832  36.832  12.005
71923W        W43539  19.081  42.037   1.291
71924W        W43540  22.931  33.966  10.869
71925W        W43541  19.216   7.345   2.345
71926W        W43542  20.029   2.905   4.673
71927W        W43543   2.169  25.587   2.827
71928W        W43544   1.191  36.193   1.664
71929W        W43545   5.518  29.047  14.283
71930W        W43546  28.730  12.611   4.851
71931W        W43547  43.841  39.448   3.253
71932W        W43548  39.538  22.418   4.108
71933W        W43549   0.337  25.682   1.135
71934W        W43550  19.729  27.576  11.661
71935W        W43551   4.390  44.631  13.295
71936W        W43552   4.548   1.370  10.899
71937W        W43553  31.936  10.890  12.093
71938W        W43554  40.645  23.675  12.095
71939W        W43555  25.069   6.202   2.744
71940W        W43556  31.434  41.967   3.175
71941W        W43557  44.404  18.704   3.688
71942W        W43558  39.551   4.224   4.843
71943W        W43559  14.380  41.342  12.822
71944W        W43560   5.382  19.696  13.582
71945W        W43561   9.404   1.931   4.541
71946W        W43562  20.305  11.952  12.004
71947W        W43563   0.073   2.879  10.951
71948W        W43564  30.151  28.257  12.160
71949W        W43565  24.382  35.161   2.425
71950W        W43566  36.095  35.604   3.201
71951W        W43567  24.517  44.281   1.362
71952W        W43568   2.327   8.239   1.824
71953W        W43569  33.484  41.429   3.270
71954W        W43570  21.095   9.423   3.007
71955W        W43571   7.461  23.015   3.610
71956W        W43572  22.746   5.432  13.036
71957W        W43573  26.545   2.851   2.659
71958W        W43574  26.129  42.352   4.619
71959W        W43575   9.892  15.196  14.935
71960W        W43576  13.812  20.653   3.622
71961W        W43577  35.921   0.101   3.560
71962W        W43578   8.837  39.820   1.859
71963W        W43579  25.155  18.307   4.455
71964W        W43580  35.997  18.814   0.727
71965W        W43581  12.077  37.889   0.856
71966W        W43582  44.511  22.167  14.416
71967W        W43583  43.375  43.763  14.816
71968W        W43584  17.097  42.302   0.397
71969W        W43585  29.003  36.363   3.781
71970W        W43586  28.035  37.492   0.470
71971W        W43587  25.661  40.068   3.890
71972W        W43588  17.200   1.074   2.350
71973W        W43589  26.658  40.778   1.807
71974W        W43590  15.625  18.156  14.571
71975W        W43591  28.361   7.164  11.950
71976W        W43592  41.516   5.197   0.230
71977W        W43593  18.350  28.994  12.005
71978W        W43594  14.665  27.448   2.389
71979W        W43595   5.302   6.972   2.193
71980W        W43596   2.570  32.427   0.910
71981W        W43597   2.348  26.428   4.301
71982W        W43598   2.761  33.124   4.017
71983W        W43599   9.343   5.398   3.670
71984W        W43600  43.021  22.101  14.508
71985W        W43601  17.149  37.471   0.443
71986W        W43602  26.144  16.344   3.761
71987W        W43603  35.634  21.737   2.245
71988W        W43604   7.790   0.460  10.141
71989W        W43605  34.679  40.908  11.951
71990W        W43606  35.761  20.331  14.518
71991W        W43607  15.614   3.838  14.557
71992W        W43608  44.353  29.740   2.852
71993W        W43609   2.750  33.775   1.440
71994W        W43610  10.653   7.759  13.849
71995W        W43611  19.662   9.199   0.742
71996W        W43612   1.331  32.580   0.545
71997W        W43613   8.722   2.991   2.247
71998W        W43614   6.788  14.085  14.359
71999W        W43615   3.131  23.635  13.452
72000W        W43616  24.196  21.996   0.946
72001W        W43617  14.735  32.178  10.570
72002W        W43618   2.435   0.446   1.397
72003W        W43619  43.744  27.443   0.268
72004W        W43620  25.974  13.297   4.315
72005W        W43621  27.872  21.751   1.207
72006W        W43622   6.671  36.135  12.433
72007W        W43623  43.722  24.653   3.200
72008W        W43624   4.868  15.778   3.212
72009W        W43625  21.120  34.126   4.608
72010W        W43626   7.288  19.471   1.679
72011W        W43627   3.793  28.610  12.350
72012W        W43628  36.594   0.378  12.450
72013W        W43629  15.306  39.322   4.579
72014W        W43630  32.450   5.239  13.102
72015W        W43631  13.785  33.196   3.695
72016W        W43632  36.637  33.429   2.413
72017W        W43633  34.181   7.001   4.140
72018W        W43634  15.313   1.135  14.497
72019W        W43635  34.931  22.133   0.075
72020W        W43636  21.659  19.490   3.988
72021W        W43637  42.496   4.241  13.878
72022W        W43638   2.376  37.139   2.896
72023W        W43639   8.982  26.939  11.190
72024W        W43640  12.146  37.917  14.990
72025W        W43641  22.177  25.991   3.107
72026W        W43642   0.964   5.687  11.502
72027W        W43643  11.652  10.144  11.789
72028W        W43644  33.790  15.159   4.842
72029W        W43645  19.763   5.789  12.029
72030W        W43646  29.560   8.108   2.191
72031W        W43647  38.410  23.083   2.269
72032W        W43648  28.968  43.978   1.155
72033W        W43649  23.097  14.406   0.399
72034W        W43650   4.889  22.964   4.792
72035W        W43651   0.426  10.323  10.591
72036W        W43652  27.383  41.274  13.269
72037W        W43653   2.483   5.373   0.420
72038W        W43654   2.418  19.837   2.388
72039W        W43655   2.392  31.991   0.024
72040W        W43656  39.402   5.720   0.019
72041W        W43657   4.066  42.408  11.437
72042W        W43658  30.080  40.405  11.803
72043W        W43659  20.196  26.207  14.337
72044W        W43660   9.758   1.027   2.297
72045W        W43661  42.854  34.954  11.450
72046W        W43662  40.347  18.758  10.970
72047W        W43663  23.194  18.196   4.432
72048W        W43664  41.829  22.565  14.328
72049W        W43665  37.459   3.347  13.978
72050W        W43666  18.607  17.366   0.589
72051W        W43667   9.352  24.627   4.514
72052W        W43668  10.372   1.326   1.279
72053W        W43669  13.432  28.479  14.348
72054W        W43670  18.257  16.206  14.838
72055W        W43671  20.416  38.833  11.811
72056W        W43672  29.340  35.926  13.271
72057W        W43673  41.928  41.783  13.078
72058W        W43674  34.370   5.294  10.595
72059W        W43675  42.987  42.954  12.858
72060W        W43676  21.845   2.716   0.847
72061W        W43677  35.583  39.589  11.102
72062W        W43678  37.970   8.129   4.542
72063W        W43679  17.772  38.425  12.144
72064W        W43680   7.820  43.033  14.879
72065W        W43681  34.876  43.395   3.008
72066W        W43682  18.840  15.066  11.737
72067W        W43683  25.536  13.761  11.940
72068W        W43684   2.837  26.583   4.491
72069W        W43685  34.297  17.254  14.364
72070W        W43686  42.014  21.449  13.874
72071W        W43687  25.460  39.253   5.012
72072W        W43688  10.399   6.719   3.997
72073W        W43689  36.567   4.901   3.675
72074W        W43690  33.650  24.604   3.813
72075W        W43691   9.209  42.760  14.753
72076W        W43692  16.704  25.641  12.553
72077W        W43693  28.177  16.500  13.870
72078W        W43694  43.104   7.109   3.159
72079W        W43695  20.143  22.377   1.418
72080W        W43696   2.251  42.790   9.892
72081W        W43697  22.449  13.104  14.556
72082W        W43698  14.689  35.847  13.844
72083W        W43699  27.516  40.884   3.730
72084W        W43700   2.270  10.092  14.674
72085W        W43701  38.436  12.381   2.280
72086W        W43702  31.326  30.264  13.455
72087W        W43703  31.858  33.368  14.283
72088W        W43704  21.087  33.881  14.836
72089W        W43705  36.427  37.230  12.001
72090W        W43706  13.944  29.705   1.448
72091W        W43707  28.068  18.221   0.288
72092W        W43708   7.472  16.330   0.378
72093W        W43709  21.778  31.223  14.962
72094W        W43710   8.879  38.584   2.450
72095W        W43711  21.073  11.707  14.827
72096W        W43712  21.744  34.073   1.857
72097W        W43713  31.830  20.597  11.737
72098W        W43714   4.881   2.254   3.558
72099W        W43715  24.804  20.567  11.176
72100W        W43716  37.457  16.058   1.673
72101W        W43717  27.094   7.432  11.510
72102W        W43718  10.369   8.243  11.087
72103W        W43719  29.599  18.824  14.845
72104W        W43720  14.888  42.479  11.549
72105W        W43721  26.583  41.961  12.444
72106W        W43722  33.471   5.973  13.978
72107W        W43723   7.114  10.199   3.558
72108W        W43724  39.531  10.199   4.532
72109W        W43725   4.232  42.749   0.212
72110W        W43726   7.373  38.019  11.846
72111W        W43727   2.360   9.119   3.227
72112W        W43728  26.712  13.178  13.927
72113W        W43729   9.652  12.186   3.287
72114W        W43730  14.024  14.419   9.957
72115W        W43731  37.827  35.084   0.374
72116W        W43732  11.391   2.725  11.949
72117W        W43733  27.027  14.491   2.944
72118W        W43734   4.046  44.851  11.894
72119W        W43735   1.369   6.398  12.963
72120W        W43736  39.354   2.247   3.581
72121W        W43737   3.924  15.787   1.184
72122W        W43738  34.615   7.276   4.178
72123W        W43739  21.955   8.975  10.745
72124W        W43740   4.538   4.755   2.032
72125W        W43741   3.912  42.499   3.415
72126W        W43742   9.605   7.860   1.798
72127W        W43743  35.478  29.894   0.847
72128W        W43744  10.613  11.261  13.834
72129W        W43745  14.128  18.217   1.267
72130W        W43746  13.339  13.311  10.944
72131W        W43747   3.819   9.446   4.077
72132W        W43748  29.564  37.951   1.020
72133W        W43749   7.369   0.464  13.611
72134W        W43750  18.792  16.295   1.805
72135W        W43751   8.767  22.393   1.457
72136W        W43752  40.374   9.998   1.200
72137W        W43753  11.594   1.767   3.320
72138W        W43754   3.464  12.787  12.589
72139W        W43755  31.941  28.035  14.301
72140W        W43756   4.195  41.483   3.821
72141W        W43757  18.253   1.245   4.638
72142W        W43758  42.461  42.000   3.426
72143W        W43759  25.967  21.566  14.075
72144W        W43760  19.934  26.941  12.593
72145W        W43761  36.104   5.463  11.089
72146W        W43762  24.072  35.931   2.221
72147W        W43763  38.860  24.449   0.569
72148W        W43764  25.717  24.904   0.811
72149W        W43765  12.100  38.491   2.838
72150W        W43766   9.291  29.874  13.533
72151W        W43767  16.141  41.757   4.127
72152W        W43768  28.039  19.610  13.279
72153W        W43769  38.462  14.583  13.524
72154W        W43770  43.360   2.425   2.220
72155W        W43771  43.865  16.757   4.816
72156W        W43772  14.364   3.671   5.135
72157W        W43773   3.949  38.705  11.091
72158W        W43774  12.133  15.268   3.890
72159W        W43775   6.780  40.936   0.940
72160W        W43776  16.338  42.972   3.960
72161W        W43777  13.207  30.924   3.507
72162W        W43778  43.149  41.182  13.885
72163W        W43779  30.681   4.664   3.267
72164W        W43780  14.675  14.303  11.619
72165W        W43781  15.971  44.502   5.088
72166W        W43782  35.941   7.300   3.665
72167W        W43783  40.251  21.295  14.297
72168W        W43784  22.582  28.131   3.684
72169W        W43785  37.095  32.211  12.604
72170W        W43786  26.596  29.922  14.470
72171W        W43787  24.146  27.323  11.247
72172W        W43788   9.403  11.671  11.108
72173W        W43789  40.569  19.223  11.061
72174W        W43790  27.426   5.878  12.123
72175W        W43791  21.840  26.979   1.128
72176W        W43792  30.148   0.479  11.233
72177W        W43793  24.016  38.801  12.974
72178W        W43794  12.055   3.801  10.627
72179W        W43795  16.535  14.692   0.723
72180W        W43796  17.356  44.862   1.802
72181W        W43797  36.074  44.459  13.775
72182W        W43798  35.052  38.307   3.330
72183W        W43799  37.370  43.724  14.363
72184W        W43800  28.536  32.634   4.071
72185W        W43801   8.754  16.087  11.196
72186W        W43802  43.140  32.608   0.458
72187W        W43803  28.009   6.753   3.248
72188W        W43804  22.532  36.086   1.791
72189W        W43805   6.575   6.743   2.157
72190W        W43806  32.643  13.201   1.692
72191W        W43807  13.704  28.886   3.294
72192W        W43808  36.998  42.414   4.977
72193W        W43809  19.437  35.098   4.472
72194W        W43810  33.093  21.591  14.390
72195W        W43811  20.746  17.733  12.039
72196W        W43812  22.406   2.416   0.875
72197W        W43813  40.469  20.916  13.359
72198W        W43814  36.609  39.218  11.979
72199W        W43815  29.427   9.748  14.841
72200W        W43816   9.371  26.963  14.820
72201W        W43817  39.692  23.750  12.985
72202W        W43818  33.974  22.618  10.784
72203W        W43819  21.047  36.105  13.699
72204W        W43820  32.112  29.630   1.380
72205W        W43821  11.089  29.489   2.824
72206W        W43822   3.891  11.281  15.000
72207W        W43823  24.105  32.436  10.781
72208W        W43824   5.714  42.442   0.768
72209W        W43825   7.415  11.177  11.970
72210W        W43826   2.451  22.736   2.777
72211W        W43827  20.637  26.986  13.432
72212W        W43828  26.120  37.054   2.844
72213W        W43829  32.992   9.323   0.160
72214W        W43830  10.563  43.861   3.179
72215W        W43831   6.670  14.820   3.647
72216W        W43832   4.227  35.655   4.346
72217W        W43833  31.557   1.051   1.682
72218W        W43834  13.759   2.459   1.478
72219W        W43835  39.454  26.649  10.343
72220W        W43836  13.126  39.778  14.529
72221W        W43837  18.398  18.168  10.604
72222W        W43838  26.147  25.972   2.075
72223W        W43839   4.364  29.433   0.329
72224W        W43840  39.825  34.400  10.990
72225W        W43841  24.750   7.332  13.832
72226W        W43842  11.814  38.926   2.763
72227W        W43843  44.512  21.106  12.161
72228W        W43844  40.958  44.676  14.824
72229W        W43845  41.934  17.216  14.454
72230W        W43846  10.101  35.717   3.228
72231W        W43847   3.983  21.295  12.985
72232W        W43848  33.190   7.593  10.761
72233W        W43849  32.602   2.999   4.273
72234W        W43850  18.823  16.979  14.113
72235W        W43851  33.491  31.954   0.664
72236W        W43852  15.150  33.402   2.538
72237W        W43853  16.761  13.634   3.253
72238W        W43854   2.486  30.006  10.423
72239W        W43855  41.625  38.477  14.809
72240W        W43856  42.824  30.786  11.205
72241W        W43857  29.677  34.574  13.300
72242W        W43858   1.833  17.272   3.825
72243W        W43859   8.426  38.509   4.816
72244W        W43860   3.728   6.231  12.887
72245W        W43861  30.017  11.090  13.824
72246W        W43862  13.523  30.541  14.989
72247W        W43863  33.601  41.544   2.222
72248W        W43864  19.408  35.151  14.329
72249W        W43865  28.775  13.496  10.740
72250W        W43866  32.657  21.711   4.539
72251W        W43867  38.485  23.598  10.907
72252W        W43868  33.867   6.683   1.746
72253W        W43869   1.918  10.866  14.662
72254W        W43870  11.791   1.369   0.693
72255W        W43871  17.253  42.853  11.574
72256W        W43872  44.901  44.305  13.274
72257W        W43873  28.116  38.793   3.562
72258W        W43874  24.338  33.650   5.095
72259W        W43875  14.078  42.567   0.402
72260W        W43876  26.857   6.618  11.164
72261W        W43877  15.194  12.241   5.006
72262W        W43878  36.788  39.998   0.294
72263W        W43879  31.187  15.706  13.910
72264W        W43880  19.260  25.505   2.737
72265W        W43881   1.739  27.924   2.022
72266W        W43882  12.381  23.964  11.140
72267W        W43883  11.287  24.626   4.260
72268W        W43884  25.169  43.261  13.939
72269W        W43885   5.091  44.991   9.855
72270W        W43886  31.835  43.293   3.307
72271W        W43887  38.766  22.704   3.707
72272W        W43888  38.697  38.847   2.820
72273W        W43889  28.089  38.414   4.233
72274W        W43890  28.211   2.529   1.026
72275W        W43891   3.170  26.687  11.302
72276W        W43892  11.171  29.610   4.635
72277W        W43893   5.925   2.380  14.370
72278W        W43894   2.226  31.423   3.766
72279W        W43895  31.343  43.357   3.432
72280W        W43896  38.532  18.577  13.452
72281W        W43897  38.814  44.528   1.459
72282W        W43898  20.741  32.554  11.509
72283W        W43899  25.699   2.914   4.669
72284W        W43900  29.824   6.971  13.018
72285W        W43901  13.137  12.778   2.538
72286W        W43902  13.146  13.348  11.916
72287W        W43903  38.854  28.078   4.655
72288W        W43904  42.236  31.259   2.907
72289W        W43905  25.805  23.024  14.094
72290W        W43906  42.735  11.454  12.494
72291W        W43907  27.420  27.946   2.117
72292W        W43908  30.681  31.418   1.288
72293W        W43909   3.215   9.937   3.635
72294W        W43910  23.714   7.884  13.095
72295W        W43911  31.257  15.245   1.603
72296W        W43912  14.335   5.643   4.128
72297W        W43913   9.387   8.935   2.211
72298W        W43914  43.230   8.433  13.431
72299W        W43915  18.550  22.032   4.780
72300W        W43916  18.339  27.948  12.938
72301W        W43917   8.683   2.718  12.067
72302W        W43918   9.889  24.993   2.772
72303W        W43919  20.041  26.484   1.352
72304W        W43920  18.206  13.672   0.862
72305W        W43921  39.237  29.526  11.472
72306W        W43922  17.639  18.761   4.992
72307W        W43923  24.648   5.148  12.837
72308W        W43924   1.417  30.015   4.766
72309W        W43925  21.497   2.948   1.376
72310W        W43926   6.800   0.090   1.381
72311W        W43927  30.813  21.988  12.275
72312W        W43928   5.656  20.900  11.572
72313W        W43929  26.628  39.485  10.314
72314W        W43930  30.598  12.348   3.727
72315W        W43931  35.166   1.494   4.274
72316W        W43932   6.219  14.665  14.865
72317W        W43933  43.835  35.700   5.472
72318W        W43934  38.031  39.598   4.726
72319W        W43935  37.921  14.747   1.931
72320W        W43936  19.697  30.058  10.708
72321W        W43937  21.562  35.059   0.855
72322W        W43938   8.422  35.402   2.864
72323W        W43939  23.701  36.297  11.127
72324W        W43940  12.049  16.831   3.670
72325W        W43941  20.977   7.097  11.231
72326W        W43942   6.710  40.990  12.670
72327W        W43943   6.960  14.364  12.064
72328W        W43944  28.144   9.950   4.920
72329W        W43945   9.244   1.508  14.042
72330W        W43946  42.076   5.047  13.979
72331W        W43947  36.422  21.246   1.480
72332W        W43948  41.989  15.982  13.753
72333W        W43949  26.139  10.947   4.247
72334W        W43950  33.085   6.758  11.727
72335W        W43951  25.584  28.409   0.399
72336W        W43952  25.765  23.585   1.652
72337W        W43953   1.177   1.275  13.861
72338W        W43954  35.006   3.212   4.630
72339W        W43955   1.241  16.652   0.410
72340W        W43956  13.609  11.716   2.858
72341W        W43957  10.661   6.969   1.591
72342W        W43958  16.300  32.177   0.695
72343W        W43959  28.225  27.287   1.208
72344W        W43960   2.875   3.186  13.336
72345W        W43961  41.228  34.441   1.947
72346W        W43962  32.553  12.085   4.134
72347W        W43963   5.867  26.130   4.678
72348W        W43964  32.979  35.358   0.737
72349W        W43965  29.759  31.708  13.354
72350W        W43966  44.422  10.752   1.975
72351W        W43967   9.926  38.361  11.132
72352W        W43968  28.659  35.397   0.030
72353W        W43969  19.777   5.761   0.029
72354W        W43970  10.372  22.956  13.912
72355W        W43971  12.331  20.136  14.002
72356W        W43972  12.086  35.142   4.185
72357W        W43973  13.706   8.364   0.245
72358W        W43974  14.326  42.537  14.945
72359W        W43975  40.530  26.947  11.937
72360W        W43976  19.253  43.306  14.930
72361W        W43977  31.950   2.161  14.783
72362W        W43978  44.650   8.866   5.036
72363W        W43979   8.161  40.878  13.524
72364W        W43980   4.920   3.015  14.964
72365W        W43981  19.034  39.167   4.170
72366W        W43982  43.766  25.674  14.924
72367W        W43983  26.563  41.825   2.891
72368W        W43984  41.745  22.913   1.858
72369W        W43985  24.243   0.667  14.465
72370W        W43986  32.297   9.728  14.525
72371W        W43987  24.725  20.109  12.071
72372W        W43988  26.977   2.798   3.772
72373W        W43989  39.411  20.924  12.625
72374W        W43990  40.365  26.443   5.026
72375W        W43991  22.111  25.055   2.076
72376W        W43992  24.296  27.664   1.713
72377W        W43993  44.711  37.862   4.604
72378W        W43994   1.025   9.093  13.860
72379W        W43995  43.562  17.661   2.786
72380W        W43996  44.335  36.078  10.262
72381W        W43997  33.953   5.138  11.543
72382W        W43998  17.234  41.981   5.001
72383W        W43999  28.513  11.266   0.936
72384W        W44000  37.024  31.509   1.862
72385W        W44001  38.521   9.763  11.419
72386W        W44002  12.608  32.434   2.726
72387W        W44003  34.934  30.064  13.975
72388W        W44004  12.150  36.610  14.366
72389W        W44005  18.510   2.457  14.845
72390W        W44006   4.501   4.392  10.711
72391W        W44007  29.860   0.284  14.056
72392W        W44008  43.986  35.016   4.583
72393W        W44009  29.600  39.851  12.523
72394W        W44010  23.801  13.176  10.486
72395W        W44011  20.083   7.786   4.674
72396W        W44012  28.657  14.833  13.352
72397W        W44013  22.020  32.392   1.492
72398W        W44014  30.838  42.835  11.526
72399W        W44015  44.437  23.110  13.748
72400W        W44016  19.032  15.536   1.369
72401W        W44017  19.366   9.747   4.811
72402W        W44018  17.663  30.431   4.327
72403W        W44019   9.680  28.967  10.715
72404W        W44020  12.742   9.187   4.013
72405W        W44021  25.645  44.577   1.326
72406W        W44022  18.818  18.854  11.245
72407W        W44023  22.893  37.782  12.400
72408W        W44024  32.543  32.378  14.884
72409W        W44025   8.684   4.663   1.673
72410W        W44026  21.114   7.380  13.440
72411W        W44027   4.198  11.845   4.522
72412W        W44028  15.790  22.754   0.862
72413W        W44029   0.366  29.061   1.410
72414W        W44030  36.312  37.941   3.168
72415W        W44031  15.474  22.615  14.472
72416W        W44032  11.181   1.183  11.007
72417W        W44033  27.688  25.213   3.254
72418W        W44034  15.130   3.919  11.262
72419W        W44035  10.979  10.197   5.030
72420W        W44036  16.253  34.454  13.395
72421W        W44037  20.111   9.310  14.286
72422W        W44038  26.361   8.901   4.865
72423W        W44039   7.474  26.274  12.811
72424W        W44040  27.923  39.801   3.613
72425W        W44041  14.319  40.451   0.888
72426W        W44042  24.096  39.916  13.737
72427W        W44043  43.993  25.489   0.330
72428W        W44044   9.149  41.984   2.859
72429W        W44045  29.556  34.265   2.904
72430W        W44046  26.013   9.186   3.683
72431W        W44047  39.075  21.214   9.977
72432W        W44048  13.076  43.930  12.083
72433W        W44049  32.637   7.574  12.563
72434W        W44050  23.341  19.648   3.353
72435W        W44051  18.758  24.537  10.570
72436W        W44052  31.401   4.242   1.424
72437W        W44053   6.381   7.355   4.135
72438W        W44054  29.065  13.293   0.787
72439W        W44055  23.774  17.636  12.475
72440W        W44056  43.821  20.677   0.476
72441W        W44057  27.969   7.432  14.709
72442W        W44058  29.874  39.442  10.582
72443W        W44059  34.067   8.976  11.955
72444W        W44060  28.994  19.591   0.977
72445W        W44061  27.489   9.414   2.576
72446W        W44062  34.086  30.359   3.712
72447W        W44063  12.252  39.384   4.351
72448W        W44064  24.175   9.384   0.316
72449W        W44065  43.804  33.801   4.541
72450W        W44066  26.457  20.305   2.684
72451W        W44067  22.222   4.234  14.004
72452W        W44068   3.668  41.926   1.580
72453W        W44069  41.606  18.066  10.742
72454W        W44070  32.174  30.132  13.828
72455W        W44071  36.599  24.575   3.161
72456W        W44072  41.463   0.007   1.853
72457W        W44073  21.088  34.979   2.323
72458W        W44074  28.863   3.175  14.535
72459W        W44075   1.379  39.903   0.533
72460W        W44076  29.610  12.129  11.237
72461W        W44077  21.119   6.000  12.010
72462W        W44078  28.106  22.399  10.420
72463W        W44079  21.041   3.745   1.336
72464W        W44080  23.721  42.564  12.478
72465W        W44081  23.750  40.047  10.483
72466W        W44082  36.067  16.508   3.195
72467W        W44083   1.923  27.102  10.857
72468W        W44084  44.019  10.402  14.511
72469W        W44085  21.993   5.213   1.856
72470W        W44086  34.753  17.177  10.510
72471W        W44087   9.775  42.339  12.155
72472W        W44088  26.128  31.162   4.459
72473W        W44089  22.190  43.224  14.084
72474W        W44090  36.119  18.514  11.540
72475W        W44091   7.087  16.069  13.386
72476W        W44092  28.237  10.059   2.276
72477W        W44093  19.666  35.894  12.426
72478W        W44094  33.035  20.760  13.974
72479W        W44095  17.222  40.254   1.094
72480W        W44096  19.655  37.638   2.862
72481W        W44097  17.405   3.884  14.111
72482W        W44098  17.527  25.275   0.228
72483W        W44099   7.251  15.555  10.697
72484W        W44100  28.654  30.566  13.059
72485W        W44101   3.432  39.743  13.010
72486W        W44102  24.657  39.699  11.622
72487W        W44103   4.836  38.167   2.597
72488W        W44104  25.647  16.138   0.889
72489W        W44105  16.922   5.045   5.047
72490W        W44106   7.237   4.701   1.819
72491W        W44107  42.670  41.796   0.856
72492W        W44108   1.985  38.837   0.474
72493W        W44109   0.350   7.886   2.894
72494W        W44110  43.984  37.058   2.921
72495W        W44111   6.005  22.576  10.708
72496W        W44112  41.397  19.534   4.247
72497W        W44113  12.241  31.049  11.959
72498W        W44114  26.180  24.712   3.477
72499W        W44115  14.580   4.632   2.247
72500W        W44116   6.473  34.027   4.168
72501W        W44117  17.721   7.163  12.396
72502W        W44118  26.157  16.541  14.362
72503W        W44119   7.370  20.998   4.823
72504W        W44120  41.581   8.125  13.466
72505W        W44121  13.072   5.802   1.048
72506W        W44122  18.154  30.510  12.111
72507W        W44123  31.330   7.367   2.389
72508W        W44124  17.677  22.952  11.973
72509W        W44125   8.355   5.928  12.388
72510W        W44126  44.254   6.514  10.279
72511W        W44127  36.315  13.760  11.113
72512W        W44128  10.755  27.978  12.578
72513W        W44129  13.298  17.677   0.384
72514W        W44130  40.594  18.092  13.600
72515W        W44131  43.019  15.024  11.585
72516W        W44132  13.338   7.204  11.627
72517W        W44133  43.210  27.533   2.791
72518W        W44134  35.954  13.809   4.508
72519W        W44135  12.136   9.970   3.000
72520W        W44136   9.747  38.957  12.301
72521W        W44137  33.495   8.225  13.351
72522W        W44138  30.536  35.916   1.269
72523W        W44139   3.290  27.982   5.096
72524W        W44140  39.084  38.547  12.386
72525W        W44141  13.710  19.813   0.803
72526W        W44142  20.300  32.408  12.559
72527W        W44143  10.260  38.809   4.989
72528W        W44144  31.311   1.961   3.116
72529W        W44145  10.353   6.559   1.397
72530W        W44146   1.910  35.549  12.521
72531W        W44147  28.917  35.677  13.430
72532W        W44148  17.327  15.382  10.644
72533W        W44149  22.058   0.484   3.751
72534W        W44150  29.501  18.147   3.199
72535W        W44151   5.462   6.603  11.650
72536W        W44152  28.553  20.905   2.630
72537W        W44153  13.564  44.850  13.299
72538W        W44154  15.867  17.280   3.594
72539W        W44155  18.141   5.430  12.065
72540W        W44156  16.536  23.170   4.559
72541W        W44157  25.246  20.041  14.835
72542W        W44158  24.452   3.938  14.764
72543W        W44159  39.505   5.242   2.107
72544W        W44160  39.745  31.675   0.976
72545W        W44161  21.067  16.536   9.961
72546W        W44162  23.247  38.148   1.311
72547W        W44163  29.434   5.426  14.490
72548W        W44164  28.519   0.614   4.581
72549W        W44165  29.419  11.926  11.670
72550W        W44166  28.953  10.924  11.562
72551W        W44167  29.599  43.423  13.314
72552W        W44168  22.350  32.588  12.530
72553W        W44169  12.626  25.469   1.792
72554W        W44170  10.355   6.302  11.531
72555W        W44171  25.190  33.069   4.606
72556W        W44172  16.877  41.573  13.838
72557W        W44173  14.087  18.313   4.702
72558W        W44174  31.955  37.485  10.968
72559W        W44175  15.971  28.942   1.231
72560W        W44176  32.332  23.044  11.547
72561W        W44177   8.751   9.194  14.079
72562W        W44178  19.659  21.998   1.993
72563W        W44179   3.111  37.382   0.379
72564W        W44180  32.612  18.342   4.686
72565W        W44181   8.920  41.104  14.096
72566W        W44182   4.744  16.736   5.035
72567W        W44183   4.488  10.749   1.607
72568W        W44184  38.792   9.156   2.287
72569W        W44185  19.268  33.305  13.699
72570W        W44186  16.817  12.139  13.590
72571W        W44187  24.229  19.269  13.800
72572W        W44188  25.291   4.710  12.408
72573W        W44189  22.833  25.369   4.225
72574W        W44190  29.068  10.815  13.634
72575W        W44191  36.786  11.677   4.627
72576W        W44192   9.445  19.755  13.503
72577W        W44193  14.245  10.893  11.835
72578W        W44194  13.678   4.956  10.850
72579W        W44195  26.894  40.267  12.928
72580W        W44196  39.724  36.493   2.784
72581W        W44197   0.461  17.451  12.725
72582W        W44198  32.336  18.300   1.818
72583W        W44199  19.292  13.731   4.906
72584W        W44200  36.363  10.324  11.588
72585W        W44201  18.746   9.105   1.084
72586W        W44202   8.068  40.816   3.600
72587W        W44203   5.966  17.035  10.299
72588W        W44204  15.187  18.001   5.003
72589W        W44205  39.120  21.741  13.967
72590W        W44206  22.681  32.980   1.682
72591W        W44207  18.805  43.901  12.857
72592W        W44208  39.425  14.577   1.767
72593W        W44209  30.661  24.634  12.104
72594W        W44210  36.906   9.353  11.560
72595W        W44211  33.931  37.454  13.312
72596W        W44212  27.120  30.000  14.759
72597W        W44213  32.117  20.498  13.939
72598W        W44214  40.738  13.570  13.378
72599W        W44215  34.997  35.621  11.119
72600W        W44216  20.313  25.252  10.039
72601W        W44217  36.994  23.688  11.102
72602W        W44218  20.174  16.075   2.338
72603W        W44219  28.953  26.615   4.244
72604W        W44220  41.568  21.723   0.618
72605W        W44221   4.988  28.930   0.134
72606W        W44222   4.683  17.807  12.892
72607W        W44223  40.313  37.228   1.306
72608W        W44224   1.621  26.684   2.374
72609W        W44225   2.820  13.634   4.140
72610W        W44226  38.237  10.336  10.216
72611W        W44227   8.894   3.482   5.159
72612W        W44228  40.389   9.130  12.815
72613W        W44229  39.846   0.184  13.421
72614W        W44230  18.729  19.966  13.173
72615W        W44231   2.235  14.704  12.580
72616W        W44232   9.805  29.181  14.981
72617W        W44233   2.923  44.812  14.802
72618W        W44234  13.417  39.311   1.203
72619W        W44235  36.469  24.102   0.201
72620W        W44236   8.992   1.442  14.507
72621W        W44237  38.538   5.640  14.022
72622W        W44238   0.297   4.930  10.628
72623W        W44239  44.570  44.318   2.903
72624W        W44240   0.218  10.920   3.840
72625W        W44241  42.356  18.617  11.070
72626W        W44242   5.243   4.739   0.358
72627W        W44243  14.518  39.887   4.815
72628W        W44244  14.074  35.018  11.215
72629W        W44245   4.651   6.509   4.850
72630W        W44246  22.981   9.860  13.276
72631W        W44247  32.391  31.479   0.515
72632W        W44248  20.315  22.907  11.336
72633W        W44249  26.080  24.508  10.445
72634W        W44250   2.540  44.802   5.143
72635W        W44251  10.695  10.912   0.855
72636W        W44252   9.778  19.131  11.092
72637W        W44253  38.336  13.063  13.896
72638W        W44254  20.213  30.824  10.466
72639W        W44255  38.110  15.040  11.553
72640W        W44256  14.459  18.926   4.062
72641W        W44257  12.723  32.671   1.766
72642W        W44258  40.645  38.798   4.959
72643W        W44259  14.112  33.349  11.554
72644W        W44260  27.726  16.986   0.706
72645W        W44261  25.600  41.917  11.440
72646W        W44262  37.975  16.300   0.868
72647W        W44263  11.567  34.795  14.244
72648W        W44264  12.332   4.203  12.853
72649W        W44265  12.848  18.611  13.947
72650W        W44266  28.683  32.050   3.858
72651W        W44267  26.438  25.207  12.377
72652W        W44268  29.961  26.473   3.907
72653W        W44269  29.875   6.016  12.914
72654W        W44270  34.570  14.802  12.195
72655W        W44271   2.237  17.652   4.225
72656W        W44272  39.506   6.004   1.417
72657W        W44273  13.771  36.237   4.600
72658W        W44274   1.539  29.857  14.867
72659W        W44275  28.151  20.209   0.713
72660W        W44276  30.696  44.315  13.048
72661W        W44277  35.910  40.372  11.572
72662W        W44278  29.359  39.978   4.261
72663W        W44279   0.650  26.615   4.630
72664W        W44280   3.850  37.288  14.273
72665W        W44281   4.938   3.725  13.917
72666W        W44282  24.781  44.385  13.289
72667W        W44283  12.180  41.973   2.016
72668W        W44284  17.174  17.277   1.152
72669W        W44285  33.645  16.344  12.066
72670W        W44286  25.504  27.958   4.049
72671W        W44287  14.252  21.517  11.164
72672W        W44288  30.255   0.961   4.941
72673W        W44289   0.227  26.002  12.850
72674W        W44290  21.761  20.576   2.258
72675W        W44291  42.929  43.092   3.165
72676W        W44292  39.520  22.804  10.974
72677W        W44293  30.430  32.558   4.116
72678W        W44294  34.119  32.837   1.300
72679W        W44295  28.519  33.866  10.683
72680W        W44296   7.161  18.168   1.216
72681W        W44297   2.900  17.002  12.447
72682W        W44298  12.105  36.429   3.707
72683W        W44299  38.257  12.142   1.043
72684W        W44300   0.745   1.890   4.396
72685W        W44301  12.338  34.926  12.128
72686W        W44302  27.329  29.378  14.034
72687W        W44303  40.912  26.007  10.462
72688W        W44304  14.606  36.796   0.314
72689W        W44305  43.302  11.838   3.877
72690W        W44306  13.302  29.140  11.187
72691W        W44307  24.972   3.023   1.140
72692W        W44308  25.653  27.923   2.705
72693W        W44309  33.053  33.484  14.091
72694W        W44310  38.777   5.987   5.067
72695W        W44311   0.778  26.553  14.616
72696W        W44312  36.709  27.176  13.040
72697W        W44313  17.592  26.597   3.633
72698W        W44314  39.758  11.782  10.246
72699W        W44315  35.417  33.672  13.526
72700W        W44316  34.593  12.108   4.094
72701W        W44317   4.925  26.699  14.096
72702W        W44318  28.653  16.774   5.036
72703W        W44319  40.397  38.573   2.125
72704W        W44320  15.228  39.879   2.755
72705W        W44321   7.775  12.629  12.996
72706W        W44322  14.320   9.024  11.200
72707W        W44323  33.403  42.399  12.651
72708W        W44324  27.974   8.493  11.145
72709W        W44325  33.738  26.477  14.246
72710W        W44326   4.998   2.483   2.227
72711W        W44327  15.516  35.416   2.480
72712W        W44328   5.262   9.212  12.885
72713W        W44329   0.482   9.975   1.802
72714W        W44330  33.557  23.042  12.787
72715W        W44331  25.089  13.857  10.664
72716W        W44332  37.386  32.256   4.591
72717W        W44333  32.122  29.703   2.400
72718W        W44334   6.402  21.596   1.989
72719W        W44335   7.344   4.558   3.330
72720W        W44336   1.400  33.707   4.375
72721W        W44337  23.052  34.164   2.647
72722W        W44338  18.346  42.048  11.491
72723W        W44339  33.630   8.201   2.775
72724W        W44340  40.068  28.076   2.545
72725W        W44341  10.187  29.820   4.107
72726W        W44342  22.032  43.980  11.542
72727W        W44343  20.295  35.163   3.432
72728W        W44344  24.458  24.322  14.096
72729W        W44345  42.913  37.833  13.876
72730W        W44346   2.400  44.421  10.553
72731W        W44347  12.836  42.383  11.685
72732W        W44348  43.051   5.208  14.457
72733W        W44349   3.659  12.263   1.685
72734W        W44350  15.607   4.704   2.729
72735W        W44351  35.185  22.261  12.132
72736W        W44352  34.859  21.731  12.923
72737W        W44353  11.526  13.780   2.668
72738W        W44354  27.752  28.582  14.134
72739W        W44355  16.685  42.933   3.120
72740W        W44356  36.900   1.459  11.872
72741W        W44357  24.003  16.889   9.846
72742W        W44358   5.824  36.488  14.921
72743W        W44359  26.919  37.958   1.388
72744W        W44360  39.044  11.686   3.712
72745W        W44361  12.699   6.864  12.521
72746W        W44362   3.371  11.336  14.246
72747W        W44363   2.465  22.139  11.613
72748W        W44364   2.021  18.150  11.954
72749W        W44365  14.971  24.277   4.140
72750W        W44366  27.892  26.280   1.314
72751W        W44367  28.079  20.849  11.562
72752W        W44368  24.767  31.598   3.256
72753W        W44369  15.143   6.665  13.535
72754W        W44370   6.447   6.825   0.332
72755W        W44371  35.511   0.096  10.636
72756W        W44372  12.297  10.904  12.029
72757W        W44373   0.981  15.978   2.432
72758W        W44374   7.635  25.463   0.812
72759W        W44375  12.416  13.775  13.998
72760W        W44376  40.771  15.829  12.380
72761W        W44377  10.504  29.397   4.093
72762W        W44378   4.982  27.148   0.783
72763W        W44379  40.017  33.783  12.462
72764W        W44380  26.094  22.474   4.164
72765W        W44381   2.713  38.116  14.977
72766W        W44382  21.751   3.041  12.188
72767W        W44383  19.729  33.118  12.965
72768W        W44384  31.763  44.529   4.578
72769W        W44385  15.713  42.856   2.615
72770W        W44386  28.912  17.140   3.608
72771W        W44387  25.440  40.004  14.996
72772W        W44388  38.930  25.350   1.585
72773W        W44389  31.212  36.767  14.256
72774W        W44390  31.609  35.842  14.943
72775W        W44391  25.697  37.411  10.811
72776W        W44392  40.817   6.448  10.749
72777W        W44393  35.865  41.856  14.082
72778W        W44394  29.152  42.572   1.198
72779W        W44395  39.561   5.706  12.994
72780W        W44396  25.766  26.476   5.024
72781W        W44397   1.363  11.865  11.943
72782W        W44398  14.239  44.950  14.896
72783W        W44399  21.020  35.934  10.618
72784W        W44400  44.880  20.572  14.811
72785W        W44401  10.807  21.734  11.433
72786W        W44402  11.076  41.303  13.457
72787W        W44403  11.150  35.790   3.763
72788W        W44404  14.533  33.184   1.017
72789W        W44405  42.837  11.270   2.428
72790W        W44406  32.459  32.606  12.688
72791W        W44407  17.942   2.880   2.239
72792W        W44408  26.757  33.558   2.782
72793W        W44409  32.890  40.258   1.422
72794W        W44410   5.733  20.044  13.470
72795W        W44411  43.898  26.199   4.804
72796W        W44412  42.374  27.039   0.545
72797W        W44413   2.081  36.813   2.655
72798W        W44414  18.090  17.230   4.430
72799W        W44415  35.116  27.586  12.444
72800W        W44416  30.594  34.369  13.331
72801W        W44417   9.043  33.009  13.872
72802W        W44418  39.610  34.730   4.997
72803W        W44419  29.969  44.647   2.731
72804W        W44420  11.390  21.218  13.293
72805W        W44421  15.279   9.852   3.056
72806W        W44422  13.300  23.085   0.036
72807W        W44423  44.421  33.924   2.447
72808W        W44424  25.748  11.361   2.250
72809W        W44425   5.758  42.210  10.971
72810W        W44426  30.935   5.469   2.176
72811W        W44427  37.525  29.436  10.403
72812W        W44428  28.468   1.727   2.937
72813W        W44429  14.153  31.434  13.965
72814W        W44430  30.834  19.242  10.528
72815W        W44431   9.868  19.180   4.415
72816W        W44432  36.291  24.364   2.804
72817W        W44433  42.285  40.094  12.854
72818W        W44434  13.321  37.004   2.620
72819W        W44435  18.026  31.454  12.073
72820W        W44436   9.877  14.278  12.375
72821W        W44437  34.291  25.681  11.989
72822W        W44438  31.492   4.324   0.246
72823W        W44439   4.153  19.980   3.726
72824W        W44440   7.703  14.371  14.241
72825W        W44441  24.128  25.834   0.232
72826W        W44442  13.018  40.418   4.429
72827W        W44443  14.458  42.562  13.804
72828W        W44444   2.690  20.057  13.436
72829W        W44445  24.461  13.264   3.834
72830W        W44446  25.007  29.509   1.919
72831W        W44447   6.921  23.617  12.412
72832W        W44448  21.032  33.590   3.716
72833W        W44449  20.751   7.322   4.531
72834W        W44450  28.750  21.562  12.468
72835W        W44451  38.347  35.996   0.309
72836W        W44452  43.573  23.138  14.441
72837W        W44453  37.828   5.380  11.081
72838W        W44454  21.263  41.023   2.728
72839W        W44455  24.774  14.545  13.931
72840W        W44456   1.009  29.628   1.694
72841W        W44457  32.664   9.192   2.932
72842W        W44458  42.967  23.000  12.233
72843W        W44459  36.673  18.752   4.800
72844W        W44460  39.738   1.787   2.887
72845W        W44461   7.851  30.606   3.795
72846W        W44462  29.490  27.202   4.825
72847W        W44463  10.658  30.798   0.172
72848W        W44464  13.519  16.086  13.419
72849W        W44465   9.375  28.281  12.316
72850W        W44466  31.180  34.000  10.705
72851W        W44467   0.240  15.423   2.805
72852W        W44468   7.720  20.617   4.741
72853W        W44469  16.769   9.180   0.023
72854W        W44470  10.249  28.709  13.447
72855W        W44471  28.897  43.854   2.716
72856W        W44472  18.864  39.682   3.575
72857W        W44473  32.553  28.012  13.373
72858W        W44474   2.016  38.918  12.891
72859W        W44475  11.675  21.093   3.756
72860W        W44476  13.960  36.021  11.858
72861W        W44477   3.802   0.924  13.044
72862W        W44478  25.749   0.063  14.799
72863W        W44479  43.285  24.195  12.957
72864W        W44480  34.173  44.698  11.112
72865W        W44481   4.347  24.466  11.053
72866W        W44482  40.474   6.766   2.766
72867W        W44483  30.336  39.020  13.728
72868W        W44484  44.714  16.063   1.345
72869W        W44485  26.627   5.498  13.306
72870W        W44486   3.413  14.887   3.972
72871W        W44487  38.545  32.102  12.350
72872W        W44488  37.310  19.604   0.224
72873W        W44489  20.092  14.135   3.329
72874W        W44490  10.356  31.287   4.344
72875W        W44491   5.863  28.861   4.839
72876W        W44492   6.389  37.613  13.420
72877W        W44493  11.731   3.992   3.324
72878W        W44494  23.258  33.543   1.412
72879W        W44495  22.124  13.722   1.881
72880W        W44496  17.076  21.329   4.594
72881W        W44497   3.804  30.895   4.834
72882W        W44498  27.249  29.535  14.513
72883W        W44499  15.319  32.334   3.630
72884W        W44500   5.057  37.686   3.833
72885W        W44501  26.599  27.265  13.327
72886W        W44502  14.843  10.361   4.633
72887W        W44503  17.428  13.239  14.772
72888W        W44504  11.276  12.929   2.145
72889W        W44505  34.367  42.085   4.052
72890W        W44506  24.253  10.104   0.080
72891W        W44507  37.129  15.819   3.818
72892W        W44508  41.603  36.342  11.943
72893W        W44509  20.705  21.278  14.901
72894W        W44510   6.598  22.644  13.884
72895W        W44511  28.720  44.492  11.950
72896W        W44512  37.882  25.022  14.310
72897W        W44513  32.148  28.769   2.025
72898W        W44514  19.022  12.801   1.004
72899W        W44515  20.314  17.829  10.383
72900W        W44516  13.496  38.400   4.629
72901W        W44517   7.789   7.458  14.651
72902W        W44518  41.533  37.412   2.295
72903W        W44519  32.018   8.186  13.780
72904W        W44520  26.502   7.969  12.039
72905W        W44521  10.795   2.785  12.551
72906W        W44522  26.242  24.009  10.623
72907W        W44523  16.801   6.924   0.183
72908W        W44524  19.993   6.418   1.804
72909W        W44525  44.786  18.655   3.341
72910W        W44526   0.283  28.418   4.652
72911W        W44527  17.291  24.039   3.392
72912W        W44528  27.236  14.185   0.454
72913W        W44529  36.647  26.964  12.561
72914W        W44530  21.829  10.340  10.772
72915W        W44531   6.168  28.859  11.154
72916W        W44532   1.879   3.908  12.993
72917W        W44533   5.640  12.734   1.916
72918W        W44534   8.358  10.660  13.942
72919W        W44535  34.896  15.521   4.097
72920W        W44536  10.827  14.280  11.505
72921W        W44537  44.683  41.015   5.090
72922W        W44538  21.710  33.456   4.093
72923W        W44539  18.292  38.299   4.584
72924W        W44540  35.606  32.482  11.566
72925W        W44541  29.436  31.507   2.802
72926W        W44542   0.253  15.736   0.036
72927W        W44543  19.741  32.569   2.127
72928W        W44544  12.345  16.181  11.510
72929W        W44545  32.977  44.824   1.181
72930W        W44546  39.567  37.908  12.611
72931W        W44547  39.808  30.396  14.090
72932W        W44548  36.384  12.365  11.928
72933W        W44549  16.333  32.689   4.075
72934W        W44550  19.584  30.091   0.504
72935W        W44551  32.938  19.081  10.724
72936W        W44552  30.626  32.685   1.780
72937W        W44553  18.856   2.500   3.899
72938W        W44554  12.188  44.681  14.017
72939W        W44555  28.809  44.795   1.763
72940W        W44556  27.375  12.787  13.026
72941W        W44557  15.204   7.430   4.299
72942W        W44558  25.237  14.024  11.471
72943W        W44559  17.683  12.696   3.716
72944W        W44560   9.238   4.464   3.252
72945W        W44561  34.600  40.761   3.590
72946W        W44562  34.875   1.221   4.633
72947W        W44563  28.842  35.974   0.922
72948W        W44564   2.810   6.663   2.372
72949W        W44565  22.474  37.659  13.317
72950W        W44566   9.325  12.260  12.604
72951W        W44567   6.910  20.202  13.038
72952W        W44568  36.440   9.987  11.975
72953W        W44569  11.271  40.262  12.627
72954W        W44570  15.581  16.280   3.816
72955W        W44571  23.963  44.237  12.866
72956W        W44572  11.500  28.830  12.073
72957W        W44573  29.243  23.094   0.679
72958W        W44574   3.967  43.746   3.274
72959W        W44575  12.618  13.696  11.194
72960W        W44576  43.553  23.816   2.230
72961W        W44577   1.417   3.629   0.815
72962W        W44578  42.950   1.904  11.143
72963W        W44579  35.545   6.088  13.659
72964W        W44580  16.544  37.040   4.185
72965W        W44581  34.607   5.491  11.551
72966W        W44582   1.172  30.009   4.295
72967W        W44583  30.519  25.153  12.032
72968W        W44584  33.567  23.556  12.878
72969W        W44585   0.272  14.051   0.732
72970W        W44586  24.010  19.488  10.431
72971W        W44587  30.215  20.654  14.808
72972W        W44588  13.162  10.249   1.029
72973W        W44589  40.819  18.004  11.133
72974W        W44590   1.917  17.035  13.912
72975W        W44591  19.067  33.726   2.746
72976W        W44592   0.530   1.930  14.953
72977W        W44593  44.383  17.710  12.109
72978W        W44594  16.316  42.651  10.683
72979W        W44595  14.079  28.685  13.735
72980W        W44596  35.269  37.574  11.641
72981W        W44597   8.533  17.287   1.133
72982W        W44598  13.128  24.145   2.855
72983W        W44599   5.862  15.786   4.956
72984W        W44600  40.184  32.329   4.127
72985W        W44601  15.669  32.437   1.948
72986W        W44602  26.602  22.245   0.902
72987W        W44603  17.466   5.197   3.409
72988W        W44604  32.502  40.309  14.976
72989W        W44605  28.490  27.738   0.456
72990W        W44606  22.054  30.225  10.893
72991W        W44607  37.387  21.641  14.365
72992W        W44608   3.648  32.993  14.350
72993W        W44609  18.584  42.991   4.093
72994W        W44610  38.989  42.794  10.513
72995W        W44611  27.915   0.570   1.031
72996W        W44612  10.245  18.294  14.880
72997W        W44613  22.084  25.108  12.136
72998W        W44614   9.145  32.476  11.186
72999W        W44615  29.928  26.545   2.342
73000W        W44616  25.418  23.203   1.497
73001W        W44617  11.698  40.793   1.321
73002W        W44618  32.554   1.898   5.473
73003W        W44619   0.811  36.506  13.512
73004W        W44620  40.573  16.269  10.660
73005W        W44621  22.017  14.887  14.809
73006W        W44622  33.723  35.589  13.450
73007W        W44623  29.025  18.290   0.410
73008W        W44624  27.567  14.539  12.484
73009W        W44625  23.752  41.458  13.489
73010W        W44626  19.071  12.243   4.057
73011W        W44627  18.269  32.697   4.153
73012W        W44628   6.238  23.146   0.206
73013W        W44629  18.603  30.559   0.836
73014W        W44630  10.640  21.959  12.638
73015W        W44631  20.004  36.698  14.814
73016W        W44632  16.357   1.695   3.522
73017W        W44633   1.672   2.405  12.915
73018W        W44634  40.249  42.073  11.223
73019W        W44635  25.390  13.168  11.242
73020W        W44636  22.649  35.051   4.157
73021W        W44637  20.770  15.306  12.863
73022W        W44638  30.532  16.236   4.030
73023W        W44639  33.515  10.652   2.899
73024W        W44640  34.597  40.231   0.044
73025W        W44641   3.237  36.045   4.263
73026W        W44642  40.310  35.874  12.961
73027W        W44643  17.514  37.074  10.467
73028W        W44644  16.868  42.135  10.286
73029W        W44645   4.903  11.382   3.598
73030W        W44646   5.096  37.839   0.740
73031W        W44647   8.160  19.024   1.224
73032W        W44648  29.403  44.263   3.679
73033W        W44649  38.494   8.244   4.536
73034W        W44650   6.143  15.523  13.434
73035W        W44651  26.231   9.769   0.461
73036W        W44652  39.117  30.675  12.022
73037W        W44653  20.029  11.627   4.379
73038W        W44654  39.808  41.752  11.236
73039W        W44655  41.893  43.022   0.736
73040W        W44656  23.684  24.068   1.823
73041W        W44657  15.354  37.968  12.189
73042W        W44658  39.517  29.505  11.061
73043W        W44659   7.060  20.825  11.138
73044W        W44660  22.124  14.760  13.812
73045W        W44661  17.565   3.661  10.551
73046W        W44662  27.200  27.583   0.346
73047W        W44663  21.277  28.584  13.906
73048W        W44664  24.621  39.700  10.733
73049W        W44665  29.451  14.322  12.416
73050W        W44666  39.331  23.136  13.480
73051W        W44667  29.086  43.407   0.845
73052W        W44668   5.774  21.762  14.334
73053W        W44669  36.453  31.504   3.006
73054W        W44670  41.845   2.730   0.725
73055W        W44671  44.342  24.947   0.701
73056W        W44672   5.110  44.386   5.097
73057W        W44673  13.212  23.565   1.737
73058W        W44674   1.704  42.707   2.743
73059W        W44675  16.799  13.741  11.140
73060W        W44676  36.498  38.751   4.215
73061W        W44677   1.966  20.088   4.955
73062W        W44678  18.170  34.190   3.176
73063W        W44679  24.777  21.667  12.094
73064W        W44680  14.825  24.205   1.042
73065W        W44681  42.876  32.989   0.671
73066W        W44682  11.753  28.744  13.857
73067W        W44683  14.228  25.544   2.584
73068W        W44684  18.140   2.537  12.605
73069W        W44685  28.673  42.438   0.966
73070W        W44686   6.194  41.490  13.361
73071W        W44687  44.107  28.109   2.769
73072W        W44688  10.813  12.427  10.914
73073W        W44689  20.243  23.414  14.939
73074W        W44690  27.633  18.350  12.922
73075W        W44691  21.019  43.455   0.879
73076W        W44692  17.795  43.267   3.156
73077W        W44693  32.997   2.049   5.177
73078W        W44694  43.840  10.187   4.574
73079W        W44695  44.073  32.992  12.663
73080W        W44696  29.941  23.274  14.886
73081W        W44697  42.416  40.318   4.559
73082W        W44698  42.019   2.492  11.688
73083W        W44699   7.588   6.933   2.397
73084W        W44700  21.687  16.196   1.136
73085W        W44701   7.884  10.070   0.315
73086W        W44702   1.240  11.649   1.635
73087W        W44703  37.635   7.388   4.176
73088W        W44704   7.753  25.758  12.504
73089W        W44705   0.277  12.303   3.322
73090W        W44706  24.971   3.542   1.135
73091W        W44707   6.874  42.632   1.848
73092W        W44708  13.739   7.786  12.277
73093W        W44709  43.065  42.000   0.536
73094W        W44710  18.146  12.771   4.641
73095W        W44711  37.900   9.128   1.241
73096W        W44712  33.562  43.437   0.901
73097W        W44713   5.785  39.780   0.341
73098W        W44714   9.156  20.021   3.594
73099W        W44715  41.998   7.522   2.282
73100W        W44716  19.661  26.111   4.202
73101W        W44717  36.700  17.469   1.820
73102W        W44718  44.892  17.373  13.461
73103W        W44719  30.091  31.725   1.946
73104W        W44720  28.030   3.060  10.279
73105W        W44721  18.639  14.568  13.198
73106W        W44722  43.332  29.885   2.876
73107W        W44723  35.986   0.858   0.438
73108W        W44724  17.068  31.178  14.426
73109W        W44725  27.703  11.268  13.398
73110W        W44726   5.368  27.214   0.427
73111W        W44727  23.085   6.155   4.246
73112W        W44728  19.105   5.187  11.650
73113W        W44729   3.296   3.418   1.434
73114W        W44730  10.155  31.059   3.312
73115W        W44731  41.817  20.963  13.774
73116W        W44732   9.158  43.018   0.768
73117W        W44733   9.549  27.909   2.140
73118W        W44734   5.770  39.498  11.125
73119W        W44735   9.668  37.783  13.327
73120W        W44736  13.844   5.777   4.133
73121W        W44737  43.376  26.037  14.053
73122W        W44738  21.751  20.584  11.785
73123W        W44739  44.840  43.813   4.420
73124W        W44740  16.599  27.491  10.710
73125W        W44741  22.737  33.991   1.878
73126W        W44742  22.020  25.390  11.525
73127W        W44743  26.810  25.709   4.081
73128W        W44744  36.948  28.679   3.077
73129W        W44745  24.251  40.875   3.797
73130W        W44746  34.420   8.157  13.767
73131W        W44747  24.786  34.618   4.104
73132W        W44748  23.512  39.159   1.731
73133W        W44749  11.195  40.033   4.405
73134W        W44750  28.041  25.394   1.227
73135W        W44751  27.017  13.828  10.812
73136W        W44752  15.721   0.380  14.228
73137W        W44753   8.961  12.238  13.844
73138W        W44754  41.731  39.313   2.776
73139W        W44755  17.746  18.860  14.276
73140W        W44756  29.601  11.082  10.419
73141W        W44757   7.844  39.279   4.633
73142W        W44758  25.189   0.105   0.762
73143W        W44759   0.811  34.931  12.584
73144W        W44760  13.715  34.978  14.472
73145W        W44761  32.846  22.906   1.739
73146W        W44762  14.403  10.891   1.762
73147W        W44763   8.413  27.286   0.716
73148W        W44764   6.964   7.894  13.263
73149W        W44765   8.622  25.085   4.042
73150W        W44766  17.069   8.340   1.447
73151W        W44767  17.353   4.154  10.701
73152W        W44768  40.076  42.075   2.836
73153W        W44769  27.480  28.090  13.277
73154W        W44770  28.967  24.964  12.425
73155W        W44771  38.043   3.962  14.321
73156W        W44772  39.259  33.817  13.170
73157W        W44773  12.552  22.086   1.106
73158W        W44774   0.392  23.137   2.252
73159W        W44775  38.571  27.981   0.741
73160W        W44776   3.321  32.500   2.222
73161W        W44777   7.477  28.507  14.800
73162W        W44778  10.441  27.268   3.363
73163W        W44779  30.036  24.684   0.259
73164W        W44780   1.378   8.902   2.378
73165W        W44781  29.766  29.960  14.503
73166W        W44782  16.069  35.046   4.339
73167W        W44783   3.526  20.022  11.972
73168W        W44784  23.238  42.535   3.874
73169W        W44785   1.193  22.169  12.556
73170W        W44786  18.560  32.487   0.868
73171W        W44787  41.866  33.781  12.466
73172W        W44788  44.070  30.425  14.737
73173W        W44789  37.889  14.374   1.135
73174W        W44790  34.196  40.043   4.106
73175W        W44791  19.087  36.423   2.134
73176W        W44792  23.110  39.754   3.222
73177W        W44793  12.357  10.403  12.955
73178W        W44794   2.873   0.288   2.379
73179W        W44795  19.272  40.438   4.326
73180W        W44796  21.408  17.126   1.865
73181W        W44797  22.249  18.825  12.939
73182W        W44798  19.242   2.644   1.735
73183W        W44799  40.516   8.116  11.351
73184W        W44800  43.917   7.607  10.607
73185W        W44801  36.101  34.863  14.405
73186W        W44802   1.474   4.940  14.383
73187W        W44803  25.892  33.647  12.834
73188W        W44804  22.086  20.000   1.117
73189W        W44805  14.229  43.474   3.272
73190W        W44806   1.451  41.924  12.447
73191W        W44807  11.068  23.863  14.974
73192W        W44808  37.330  42.813   3.202
73193W        W44809   3.234  15.781  10.713
73194W        W44810  44.689  26.682   4.339
73195W        W44811   0.405  23.360   4.105
73196W        W44812  13.351   0.400   3.243
73197W        W44813  42.395  32.192  12.146
73198W        W44814  44.919   9.214   2.825
73199W        W44815  39.910   3.739   0.785
73200W        W44816   8.193  44.885  13.253
73201W        W44817   0.033   7.109  14.370
73202W        W44818  20.674  43.801  10.742
73203W        W44819  17.181   4.254  13.793
73204W        W44820   9.971  21.643  14.398
73205W        W44821  28.175  29.658  14.562
73206W        W44822   0.047  20.641  12.434
73207W        W44823  10.109  35.795   1.769
73208W        W44824  38.326  37.580  14.912
73209W        W44825  28.395  10.891   2.683
73210W        W44826  23.970   3.294  12.085
73211W        W44827  42.988  14.646   2.725
73212W        W44828   5.625  11.382   0.962
73213W        W44829  31.366  35.605   1.314
73214W        W44830  38.055  13.120   0.780
73215W        W44831  12.644   7.718   3.489
73216W        W44832  41.288  20.363   4.580
73217W        W44833  23.744   1.280  13.022
73218W        W44834  24.475  40.560  11.153
73219W        W44835  21.624  35.268   4.181
73220W        W44836  24.379  24.121   2.717
73221W        W44837   3.298  41.530  11.620
73222W        W44838  32.685  26.648  11.118
73223W        W44839  34.658  10.062  10.266
73224W        W44840  14.666  24.113  11.887
73225W        W44841  30.035   6.874  10.409
73226W        W44842  38.136  17.394   0.615
73227W        W44843  41.747  21.308   4.609
73228W        W44844  22.749  37.649  10.577
73229W        W44845  42.914  30.272  11.179
73230W        W44846   7.705  36.318  14.984
73231W        W44847  19.509  19.733  12.026
73232W        W44848  14.041  27.048  14.552
73233W        W44849  34.868  18.297  12.460
73234W        W44850   0.339   3.533  13.844
73235W        W44851  36.043  10.926   3.688
73236W        W44852  31.529  33.523   0.906
73237W        W44853  16.115   2.920  11.754
73238W        W44854  27.016  28.546   0.548
73239W        W44855  14.145  26.046   0.224
73240W        W44856  12.312  14.243  13.784
73241W        W44857  11.065  43.158  11.104
73242W        W44858   4.422  19.552   1.916
73243W        W44859   4.790   8.326   0.853
73244W        W44860  23.041   9.173   1.524
73245W        W44861  29.674  39.182   0.384
73246W        W44862  32.057  12.262   3.094
73247W        W44863   7.241   8.705  12.240
73248W        W44864  12.675  19.138   3.567
73249W        W44865  30.066  42.888  13.900
73250W        W44866  20.595  33.755   2.738
73251W        W44867   0.264  40.917  13.465
73252W        W44868  19.726  24.418   0.842
73253W        W44869  17.853  44.659   1.913
73254W        W44870  29.725  28.421  12.932
73255W        W44871   0.472  44.353   3.945
73256W        W44872  19.812  34.149  13.953
73257W        W44873  29.106  25.120   4.161
73258W        W44874  19.306  11.845  11.164
73259W        W44875  43.019   8.462   1.910
73260W        W44876  23.205  22.287  13.614
73261W        W44877  16.042  21.655   4.770
73262W        W44878  37.206  10.185  10.103
73263W        W44879  31.516   1.968  13.333
73264W        W44880  41.453  22.733  12.403
73265W        W44881   6.332  12.188  13.456
73266W        W44882  22.670  14.162  14.425
73267W        W44883  43.881  32.722  12.018
73268W        W44884  30.419  37.347  12.021
73269W        W44885   8.299  20.196  12.131
73270W        W44886  28.040  36.394   0.480
73271W        W44887   9.422  21.468   3.831
73272W        W44888   1.745  18.830  14.665
73273W        W44889  14.181  40.585  12.230
73274W        W44890  32.860  27.497   1.818
73275W        W44891   8.157  23.390   2.754
73276W        W44892  25.008  21.056   3.285
73277W        W44893  43.956  30.130  14.321
73278W        W44894   6.813  20.243  11.873
73279W        W44895   9.146  40.491   3.615
73280W        W44896   5.827  36.365  12.430
73281W        W44897   2.577  37.022  13.404
73282W        W44898  44.184  39.499  12.094
73283W        W44899   8.793  29.327  12.077
73284W        W44900  40.843  18.945  10.718
73285W        W44901  21.108   6.260  12.657
73286W        W44902  25.502  36.784   2.615
73287W        W44903  29.909  22.188  12.481
73288W        W44904   9.841   9.832  14.942
73289W        W44905  11.839   4.463   3.551
73290W        W44906   7.075  36.481  12.449
73291W        W44907   7.461   2.078   0.486
73292W        W44908  25.617  31.979   1.277
73293W        W44909   3.840  27.586  11.880
73294W        W44910  42.500  12.144  13.501
73295W        W44911  26.654  13.169  14.744
73296W        W44912  10.374  28.068   1.732
73297W        W44913   6.313  41.779   4.869
73298W        W44914  17.167  24.545   2.256
73299W        W44915   1.429  17.538   2.766
73300W        W44916  21.525   5.890  14.235
73301W        W44917  12.845  12.880   5.116
73302W        W44918   1.809  16.280   3.861
73303W        W44919  38.759  36.066  10.281
73304W        W44920  37.082  20.677  10.673
73305W        W44921  13.244  41.284  11.575
73306W        W44922  28.566   5.724   4.832
73307W        W44923  28.636  16.004   2.783
73308W        W44924  33.004  26.234   4.859
73309W        W44925  14.278  22.574   1.813
73310W        W44926  43.251  17.039  12.525
73311W        W44927  36.343  23.678  13.491
73312W        W44928  25.435  20.137   3.767
73313W        W44929  36.837  12.203   5.331
73314W        W44930  13.655   9.937  13.733
73315W        W44931  25.198   3.014  10.759
73316W        W44932  25.636  10.985   0.492
73317W        W44933   0.009  38.306   0.900
73318W        W44934  27.388  22.481   1.351
73319W        W44935   3.480  31.335   1.772
73320W        W44936  30.527  28.513   4.029
73321W        W44937   4.436  38.656  12.925
73322W        W44938  37.038  39.957  14.166
73323W        W44939   5.235   4.914  10.492
73324W        W44940  28.163  30.848  13.867
73325W        W44941  33.336  18.605   3.901
73326W        W44942  13.933  39.917  14.882
73327W        W44943  36.199  22.216   1.111
73328W        W44944  20.007  26.450   2.264
73329W        W44945  14.226   4.121  13.884
73330W        W44946  13.755   7.601   1.464
73331W        W44947  10.582  34.381   4.244
73332W        W44948  14.573  22.705   3.617
73333W        W44949   3.702  42.894  13.331
73334W        W44950   4.978  15.244  12.929
73335W        W44951  32.608  12.330   3.180
73336W        W44952  17.066   4.896   1.293
73337W        W44953  24.756  44.370  12.427
73338W        W44954  19.484  17.232   4.574
73339W        W44955  22.287  34.137  10.747
73340W        W44956   3.870  17.754  13.876
73341W        W44957  22.854   0.223  14.357
73342W        W44958  39.395  12.102   2.244
73343W        W44959  24.691   1.525   3.760
73344W        W44960  33.282   0.566  11.705
73345W        W44961  15.634  44.017  10.774
73346W        W44962   6.742  28.650  14.823
73347W        W44963  42.441  31.038  11.530
73348W        W44964  20.495  14.616   2.689
73349W        W44965  10.404  12.066   2.134
73350W        W44966  39.335  23.565  11.562
73351W        W44967  23.562  10.960   3.168
73352W        W44968  18.340  21.973   0.192
73353W        W44969   9.616  38.451   0.287
73354W        W44970   2.857  16.505   4.653
73355W        W44971  21.234  16.222   2.328
73356W        W44972  13.150  25.809  11.962
73357W        W44973   3.251  13.121  13.955
73358W        W44974  44.823  36.044  12.900
73359W        W44975  31.098  16.712   0.877
73360W        W44976   5.115  18.305  11.167
73361W        W44977   0.926  37.482   5.405
73362W        W44978  44.454  18.278  14.796
73363W        W44979  14.778  26.677  10.901
73364W        W44980  31.391  21.798  13.603
73365W        W44981  27.582  11.137   1.435
73366W        W44982  42.580  23.308   1.246
73367W        W44983   4.871  39.360  14.331
73368W        W44984  36.902  12.381  14.382
73369W        W44985  33.481  44.088   5.612
73370W        W44986  25.166  19.011   2.788
73371W        W44987  18.662   2.239  10.677
73372W        W44988  12.753  17.363  11.161
73373W        W44989  26.956  30.461  10.914
73374W        W44990  38.092  11.916  14.688
73375W        W44991   0.782  17.265   0.229
73376W        W44992  15.147  34.784   4.674
73377W        W44993  16.783  18.535  14.895
73378W        W44994  18.376  12.172   4.641
73379W        W44995   2.185  36.464  14.479
73380W        W44996  17.261   1.842   2.792
73381W        W44997  16.192  33.626   0.332
73382W        W44998  28.874  33.247  13.331
73383W        W44999  36.521  27.992   1.888
73384W        W45000   7.387  39.875  11.512
73385W        W45001   9.740   3.206  11.176
73386W        W45002   9.813  13.869   2.965
73387W        W45003  18.779  41.297   5.096
73388W        W45004   7.290  34.203  14.358
73389W        W45005   4.627  18.255  13.416
73390W        W45006  25.522  16.639   1.701
73391W        W45007  36.343  20.271   1.106
73392W        W45008  26.700  19.052  11.584
73393W        W45009  26.467  21.481  13.958
73394W        W45010  27.745  29.642   3.551
73395W        W45011   6.337  15.860   5.190
73396W        W45012   4.416  42.603  13.432
73397W        W45013  24.498   3.218   2.360
73398W        W45014  18.838  23.149  14.832
73399W        W45015  20.693  22.733  11.629
73400W        W45016  11.571  15.499  10.635
73401W        W45017  22.425  29.651   1.798
73402W        W45018  18.432   9.919   3.666
73403W        W45019  16.712  27.452  13.825
73404W        W45020  42.942  15.339  14.992
73405W        W45021  18.353  38.371   1.932
73406W        W45022   5.245   0.986  14.705
73407W        W45023  19.225  31.452   2.820
73408W        W45024  23.695  15.879   3.687
73409W        W45025  14.734   6.720   4.579
73410W        W45026  15.973   9.126   3.272
73411W        W45027  13.720  38.961  14.894
73412W        W45028   6.248  24.811   3.085
73413W        W45029  38.365  27.536  13.983
73414W        W45030  21.108  44.453  12.852
73415W        W45031  10.746  29.071   3.566
73416W        W45032  39.194  40.797   3.188
73417W        W45033  26.686  14.310  10.015
73418W        W45034   8.199  23.072  14.027
73419W        W45035  10.212  10.811   3.551
73420W        W45036  14.122   3.255   9.698
73421W        W45037   4.294  35.429   3.653
73422W        W45038  28.603  28.649  12.944
73423W        W45039   4.900  35.143  12.504
73424W        W45040   7.778  24.097   2.233
73425W        W45041  28.195  14.701   3.098
73426W        W45042  29.577  10.322  14.000
73427W        W45043   5.418   8.231  13.301
73428W        W45044  26.925   8.919  12.414
73429W        W45045  10.540   7.395   3.409
73430W        W45046  16.839  27.098   3.852
73431W        W45047  41.875  21.123  10.289
73432W        W45048  29.525  12.273  14.932
73433W        W45049  19.076  16.595   3.096
73434W        W45050  12.829  29.504   0.286
73435W        W45051  16.994  20.543  12.676
73436W        W45052   1.870   8.172   0.808
73437W        W45053  26.340  31.979  11.394
73438W        W45054  34.989  32.923   2.582
73439W        W45055  29.820  18.737  13.439
73440W        W45056  10.135  37.491   4.662
73441W        W45057  12.524   5.311   1.785
73442W        W45058   7.981  13.134  14.084
73443W        W45059  30.432  13.931  11.025
73444W        W45060  15.781   5.758   2.387
73445W        W45061  33.099  11.128   0.287
73446W        W45062  10.837  40.551  14.495
73447W        W45063  21.532  18.788  12.241
73448W        W45064  31.024   3.093   9.968
73449W        W45065  23.816  16.896   1.045
73450W        W45066  13.378  38.588   2.331
73451W        W45067  23.187  23.719  10.518
73452W        W45068   9.340  32.404   0.479
73453W        W45069  44.878  27.421  10.611
73454W        W45070  31.519   5.871   2.343
73455W        W45071  22.183  43.713   0.885
73456W        W45072  12.175   7.770   1.669
73457W        W45073   6.246  13.310   0.266
73458W        W45074   6.970   4.467   4.517
73459W        W45075  18.293  30.371   0.429
73460W        W45076  20.589   3.961  12.526
73461W        W45077  13.687  27.721   0.767
73462W        W45078  32.991  39.986   4.757
73463W        W45079  30.590  22.710  13.377
73464W        W45080  41.012  15.675  11.956
73465W        W45081  35.608   4.773   1.943
73466W        W45082  17.534  38.977  11.285
73467W        W45083  14.211   3.155  13.848
73468W        W45084  32.175  24.600   3.868
73469W        W45085  17.883  32.548  11.144
73470W        W45086  44.990  13.061   3.684
73471W        W45087  38.275  36.254  14.075
73472W        W45088  35.828  15.260   3.807
73473W        W45089  30.508  35.705   3.006
73474W        W45090  19.542  40.660   2.218
73475W        W45091   4.857  18.299   3.615
73476W        W45092   3.186  42.962   2.867
73477W        W45093  25.008   7.165  12.459
73478W        W45094  16.857   9.294   4.808
73479W        W45095   6.809  42.867   0.739
73480W        W45096  29.181  35.139   1.747
73481W        W45097  28.654  38.911  10.779
73482W        W45098  12.317   1.274  13.354
73483W        W45099  22.111  36.054   4.547
73484W        W45100  43.259  31.093   4.933
73485W        W45101  25.746   4.252  11.082
73486W        W45102  33.220  17.583  11.058
73487W        W45103   4.739  18.072   1.379
73488W        W45104   1.565  44.220   4.337
73489W        W45105  14.796  28.005   0.802
73490W        W45106  28.083  37.474  14.467
73491W        W45107  13.839  40.419  13.423
73492W        W45108  28.691  32.583   2.105
73493W        W45109  31.080   5.743   3.734
73494W        W45110   5.013  28.880   2.308
73495W        W45111  43.314  34.875  13.934
73496W        W45112   9.798   1.270  12.402
73497W        W45113  28.451  24.440   3.120
73498W        W45114  35.552  19.122   0.748
73499W        W45115   2.635  42.360  13.443
73500W        W45116  11.760  13.207  11.567
73501W        W45117  41.737  12.254  10.983
73502W        W45118  38.082  38.026  13.063
73503W        W45119  26.724  44.259  11.128
73504W        W45120  38.293  42.527  10.658
73505W        W45121  29.490  10.540   4.536
73506W        W45122  13.856  36.849   1.479
73507W        W45123  12.650  27.287  14.938
73508W        W45124  34.090   9.056   1.294
73509W        W45125   1.831  19.141  12.132
73510W        W45126  29.945  21.310  10.159
73511W        W45127  10.921  16.639   1.914
73512W        W45128  23.905   3.777   1.287
73513W        W45129  33.630  26.605  13.040
73514W        W45130  36.661  16.835  12.040
73515W        W45131  43.922  20.131  13.846
73516W        W45132  29.867   2.350  11.553
73517W        W45133  26.557  12.092   3.732
73518W        W45134  23.392  13.649  12.881
73519W        W45135  16.729  21.441   4.233
73520W        W45136  37.055  36.064  10.513
73521W        W45137   8.151  41.958   2.141
73522W        W45138  12.782  13.347   4.230
73523W        W45139  18.934  22.283   3.673
73524W        W45140   4.425   5.348   4.622
73525W        W45141  40.364  29.492  11.484
73526W        W45142   3.877  10.372   0.791
73527W        W45143  38.751  27.644   2.205
73528W        W45144  42.576  22.316  12.915
73529W        W45145   9.218  36.195   2.117
73530W        W45146  37.016  12.261  13.501
73531W        W45147  17.252   9.548  14.357
73532W        W45148  19.220  26.459  10.702
73533W        W45149  36.981  16.111   1.854
73534W        W45150  42.379  44.679  10.471
73535W        W45151  17.704  11.981  12.631
73536W        W45152  37.854  27.235  10.620
73537W        W45153  22.544  21.797  13.543
73538W        W45154  27.620  10.670   1.171
73539W        W45155  24.006  37.594  11.109
73540W        W45156  12.954  14.334  10.786
73541W        W45157  13.791  43.447   0.740
73542W        W45158  24.502  20.508  12.971
73543W        W45159  13.671  35.093  12.662
73544W        W45160  43.906  31.054  11.377
73545W        W45161   7.399  44.926   4.164
73546W        W45162  15.702  43.620  11.719
73547W        W45163  28.759  25.223  12.015
73548W        W45164   0.237  36.881   5.458
73549W        W45165   0.767   3.133  11.134
73550W        W45166   4.959  18.517  10.678
73551W        W45167  40.375  13.046  14.500
73552W        W45168  13.018   4.865  12.784
73553W        W45169  14.268  13.216   3.409
73554W        W45170  29.135  38.451  12.056
73555W        W45171  42.395  33.184  14.979
73556W        W45172  24.070   7.926   2.314
73557W        W45173  18.222  23.282   3.038
73558W        W45174  21.287  10.754   4.101
73559W        W45175   9.167  43.867   1.817
73560W        W45176  13.117   9.185  12.032
73561W        W45177   8.775  14.157  12.869
73562W        W45178   5.345  22.195   3.634
73563W        W45179  16.395  25.200   1.504
73564W        W45180  16.778  13.264   0.597
73565W        W45181  27.873  23.689   4.136
73566W        W45182  18.895  38.490   1.061
73567W        W45183  18.331  25.007   1.453
73568W        W45184  36.003  37.374  13.518
73569W        W45185  13.852  33.951  10.579
73570W        W45186  43.669   8.755  11.969
73571W        W45187   8.670  29.503   0.516
73572W        W45188  44.437   6.965   0.951
73573W        W45189  28.195  10.604  14.862
73574W        W45190  13.601  43.064  13.374
73575W        W45191   8.682  37.762   3.580
73576W        W45192  21.095  35.505   2.346
73577W        W45193  38.560   6.138   0.928
73578W        W45194  39.036  39.858   2.778
73579W        W45195  43.871   5.739  14.834
73580W        W45196  38.859  27.251  10.616
73581W        W45197  23.131  44.783  10.947
73582W        W45198   4.779   4.492   2.786
73583W        W45199  41.477  20.185  13.342
73584W        W45200  38.919  28.868   0.780
73585W        W45201  27.275  33.151  12.583
73586W        W45202  20.123   3.948  14.062
73587W        W45203  19.852  25.275  14.997
73588W        W45204  17.188  17.561  12.471
73589W        W45205  43.122  24.683  13.689
73590W        W45206  18.527   7.397  10.331
73591W        W45207  10.387  15.055   1.790
73592W        W45208  20.966  23.494  13.047
73593W        W45209  22.550  35.133   2.143
73594W        W45210  11.919  15.875   5.045
73595W        W45211  12.907  21.868  12.988
73596W        W45212  27.521  11.247  11.512
73597W        W45213  29.415  42.572   4.152
73598W        W45214   2.314   1.071  12.394
73599W        W45215  27.986  16.217  11.939
73600W        W45216  38.281  20.390  12.980
73601W        W45217  21.673  16.067  13.854
73602W        W45218  39.163  30.238   2.320
73603W        W45219  22.165   8.300   1.234
73604W        W45220  22.575  41.445  10.138
73605W        W45221   2.402  42.374  13.951
73606W        W45222  17.622   4.333   3.180
73607W        W45223  19.963  40.731   4.288
73608W        W45224  41.979  29.890   4.599
73609W        W45225   2.407  11.092   4.037
73610W        W45226  27.911   2.156   4.116
73611W        W45227  19.583  39.912   4.371
73612W        W45228  14.032  27.076  13.339
73613W        W45229  29.037  28.954   4.697
73614W        W45230   7.934  25.017   5.119
73615W        W45231  22.141  26.855   2.737
73616W        W45232  11.309   9.148   2.281
73617W        W45233  38.660   8.743   3.241
73618W        W45234  24.521   4.871   0.214
73619W        W45235   0.417  44.821  10.644
73620W        W45236  23.718  34.145  14.300
73621W        W45237  41.769  33.853   2.295
73622W        W45238  44.288  44.998  11.966
73623W        W45239  33.510  21.110   0.998
73624W        W45240  24.828  31.916   3.648
73625W        W45241  31.188  33.845   4.594
73626W        W45242  23.514  44.942   0.170
73627W        W45243  30.776  20.562  11.612
73628W        W45244  39.967  24.206  11.927
73629W        W45245  16.150   9.874   4.678
73630W        W45246  32.610  21.685   0.439
73631W        W45247  37.244  17.756   2.279
73632W        W45248  37.731  32.466  12.955
73633W        W45249  38.484  14.157   2.257
73634W        W45250   5.672  41.074   3.740
73635W        W45251  11.027  11.618   2.216
73636W        W45252  27.564  43.536   3.586
73637W        W45253  19.232  39.116  12.066
73638W        W45254  19.321  23.778   0.508
73639W        W45255  27.470   2.749   0.503
73640W        W45256  10.604   0.713  12.930
73641W        W45257  26.222  29.099  12.393
73642W        W45258  11.782  10.495  14.776
73643W        W45259   0.788  34.108   2.658
73644W        W45260   3.375  28.715  12.663
73645W        W45261  17.154  37.138  11.257
73646W        W45262  44.930  19.615   1.774
73647W        W45263  33.770  20.967   4.307
73648W        W45264  41.524   8.597   0.229
73649W        W45265  22.689  11.339   0.416
73650W        W45266   9.294  15.097  11.575
73651W        W45267   5.874   8.181   0.980
73652W        W45268   1.207   4.208   3.699
73653W        W45269  21.672  16.893   4.001
73654W        W45270  16.689  32.195  10.692
73655W        W45271   8.552  34.047   2.227
73656W        W45272  25.066   4.835  10.945
73657W        W45273  41.564  30.686   4.153
73658W        W45274  23.324  15.136  14.852
73659W        W45275   6.370  26.626   1.699
73660W        W45276  20.508  34.013   1.831
73661W        W45277  32.487   1.781  13.887
73662W        W45278  30.379  39.993  12.007
73663W        W45279  26.700   3.291   0.013
73664W        W45280  19.579  18.607   2.806
73665W        W45281  38.623   1.404  13.883
73666W        W45282   8.291   7.122   1.315
73667W        W45283  28.638  34.898  14.878
73668W        W45284  41.300   0.765   2.617
73669W        W45285  20.131  39.964   2.291
73670W        W45286   5.672  24.170  14.430
73671W        W45287   2.828  23.593   4.021
73672W        W45288   0.394  42.529  14.404
73673W        W45289  37.383  31.752  12.117
73674W        W45290  28.619  25.682   1.039
73675W        W45291  25.863  20.770  12.063
73676W        W45292  42.136  24.598   0.238
73677W        W45293  29.117  44.068  14.435
73678W        W45294  39.563  15.250   2.280
73679W        W45295  43.064   3.493  13.911
73680W        W45296   1.323  36.372   1.185
73681W        W45297  18.985  39.020  13.496
73682W        W45298   5.243  33.568  14.317
73683W        W45299  33.588  28.369  12.383
73684W        W45300  36.855   3.758   1.806
73685W        W45301  14.806   5.802  10.644
73686W        W45302  25.978  37.031   2.334
73687W        W45303  33.945   5.323  12.070
73688W        W45304  12.174  23.074  12.778
73689W        W45305  17.290  35.699   2.685
73690W        W45306  12.910  26.738  13.831
73691W        W45307   4.794   5.390   1.437
73692W        W45308  41.303  27.290  11.163
73693W        W45309  37.479  28.717   3.354
73694W        W45310  37.375  20.120  10.641
73695W        W45311  38.419  39.342  10.861
73696W        W45312  40.558  27.610  12.529
73697W        W45313   2.909  40.063   2.617
73698W        W45314   9.780  15.859  14.349
73699W        W45315   4.644  12.944   5.153
73700W        W45316  37.986  38.842   0.902
73701W        W45317  16.893  44.438  11.444
73702W        W45318   3.712   4.652   3.153
73703W        W45319  17.114  34.513  14.900
73704W        W45320  37.364  18.205  10.621
73705W        W45321   2.811   2.911  11.513
73706W        W45322  20.345  21.412   1.504
73707W        W45323  18.377   4.997  11.165
73708W        W45324   2.705  26.549   0.653
73709W        W45325  33.664  38.236  11.997
73710W        W45326  17.820  30.059  11.073
73711W        W45327   2.486  26.459  13.546
73712W        W45328   9.190  24.019  12.504
73713W        W45329  14.662  36.084  12.532
73714W        W45330  29.174   2.415   2.910
73715W        W45331  43.945  36.614  13.816
73716W        W45332  23.032  28.515   3.160
73717W        W45333  26.665  14.771  12.803
73718W        W45334   9.482   4.370   2.802
73719W        W45335  10.558  14.256  10.463
73720W        W45336  28.933   6.445   1.711
73721W        W45337   4.803  44.851  13.057
73722W        W45338  35.847  14.772  12.904
73723W        W45339  25.064   8.591   3.705
73724W        W45340  29.479  20.751   3.577
73725W        W45341  29.604  30.697  14.117
73726W        W45342  28.565   7.801   2.245
73727W        W45343   6.165  25.329   0.294
73728W        W45344  40.854  41.608   4.658
73729W        W45345  22.112  16.628   3.987
73730W        W45346   5.785  25.983  12.409
73731W        W45347  43.875  36.294   0.813
73732W        W45348  21.237   2.745  11.542
73733W        W45349  34.551  36.166  13.539
73734W        W45350   6.364  19.174  14.416
73735W        W45351   1.455  30.144   3.876
73736W        W45352  15.843  24.560   0.757
73737W        W45353  11.240  28.692  10.480
73738W        W45354  15.987   0.586   4.927
73739W        W45355   7.984  15.926  12.474
73740W        W45356  21.155  41.269  14.230
73741W        W45357  32.471  27.479   3.676
73742W        W45358  10.876  21.464  12.694
73743W        W45359  30.686  35.370  14.479
73744W        W45360  27.160  15.877  14.252
73745W        W45361  33.513  44.226   4.264
73746W        W45362   3.428   2.751   0.157
73747W        W45363  38.279   9.251  12.580
73748W        W45364  19.030  12.870   4.978
73749W        W45365  28.964  41.708   2.398
73750W        W45366  27.246  38.364   1.219
73751W        W45367   8.909  34.447  13.484
73752W        W45368  27.679  41.904  10.707
73753W        W45369  43.564  42.024   4.768
73754W        W45370  25.107   7.926   4.971
73755W        W45371  21.119  14.208   1.994
73756W        W45372   5.924  39.872  10.769
73757W        W45373  43.063  23.263  10.801
73758W        W45374  24.365  13.606   5.008
73759W        W45375  31.643   2.402  11.128
73760W        W45376  20.713   3.255   1.615
73761W        W45377  17.878   2.861   4.251
73762W        W45378  22.401  28.252   1.814
73763W        W45379  13.492  21.736  11.067
73764W        W45380   6.054   9.196   4.652
73765W        W45381  23.606  24.792   3.352
73766W        W45382  33.504   3.470  10.160
73767W        W45383  19.675  14.582  10.717
73768W        W45384  40.813  32.625   2.244
73769W        W45385  39.927  37.321   0.932
73770W        W45386  31.065  30.216   3.096
73771W        W45387  27.473  25.529  13.011
73772W        W45388   6.821  27.907  11.558
73773W        W45389   5.855  40.760  13.882
73774W        W45390  30.725   5.187   0.781
73775W        W45391  43.293  40.965   1.668
73776W        W45392  31.018   2.661  13.050
73777W        W45393   8.696  42.583   4.289
73778W        W45394  20.203  13.134  14.386
73779W        W45395  25.523  21.510  12.658
73780W        W45396   4.763  23.232  13.479
73781W        W45397  12.916  31.557   2.273
73782W        W45398  18.244  35.134   0.753
73783W        W45399   3.918  25.732  11.672
73784W        W45400  31.927  14.090  13.591
73785W        W45401  23.018  36.258  12.071
73786W        W45402  17.004   6.358  11.094
73787W        W45403   5.928  39.779  13.015
73788W        W45404   4.749  14.037  13.567
73789W        W45405  30.989  19.845   1.252
73790W        W45406  11.237  30.443  14.004
73791W        W45407  17.698  25.670  11.578
73792W        W45408  22.994  34.444   1.214
73793W        W45409  19.673  19.473  10.824
73794W        W45410  23.103  20.641  11.971
73795W        W45411  34.488  33.738  12.947
73796W        W45412  31.072   7.976  10.637
73797W        W45413   4.085  27.552   2.707
73798W        W45414   8.797  20.675  13.476
73799W        W45415  33.879  44.757   2.668
73800W        W45416   1.434  31.380   4.662
73801W        W45417  35.127  35.020   2.292
73802W        W45418  17.838  34.848   0.387
73803W        W45419  26.110  43.850   3.359
73804W        W45420  41.988   3.846  11.544
73805W        W45421  23.529  15.247  14.384
73806W        W45422   0.349  16.837   1.634
73807W        W45423  13.607  15.355   3.841
73808W        W45424  34.080  20.965   4.995
73809W        W45425  25.311   1.948  14.302
73810W        W45426   2.981  23.671  10.681
73811W        W45427  16.296  32.114  11.015
73812W        W45428  44.737  26.713   1.293
73813W        W45429   9.358  25.733  13.847
73814W        W45430  42.358   3.315  14.368
73815W        W45431  38.886  40.836   1.837
73816W        W45432  32.427  28.508   0.826
73817W        W45433  14.731  42.300  14.147
73818W        W45434  35.956   6.429   4.131
73819W        W45435  40.830   4.749   0.587
73820W        W45436  11.240  25.466  10.650
73821W        W45437  23.353   8.653   2.166
73822W        W45438  34.913   3.730   4.612
73823W        W45439  36.905   5.759   0.293
73824W        W45440  35.147   3.664   0.848
73825W        W45441  14.049  15.584   3.651
73826W        W45442   7.297  18.657   1.301
73827W        W45443  34.645  40.614  12.433
73828W        W45444  33.612  21.650  14.564
73829W        W45445  10.869  11.008  12.393
73830W        W45446  34.013  28.029   3.375
73831W        W45447  33.904  33.653  14.950
73832W        W45448  29.576   7.290  10.715
73833W        W45449  40.990  26.558  14.838
73834W        W45450   4.467  29.114  10.702
73835W        W45451  17.329   0.371   1.892
73836W        W45452  41.433   0.178  10.764
73837W        W45453  38.733   3.234  11.516
73838W        W45454   2.734   5.874   0.199
73839W        W45455  42.399   6.612   3.660
73840W        W45456  32.452  31.622  12.329
73841W        W45457  10.749  25.550  10.455
73842W        W45458  29.705  19.999  11.890
73843W        W45459   2.955  10.272  11.511
73844W        W45460  20.980  15.826   0.187
73845W        W45461  36.923  24.058  14.942
73846W        W45462  16.820  13.305  10.843
73847W        W45463  37.995   1.978   2.201
73848W        W45464  34.126  15.659   4.489
73849W        W45465  36.299  37.939   3.718
73850W        W45466   1.502  25.270   2.430
73851W        W45467  17.622  27.697   0.372
73852W        W45468  33.948  21.455  11.762
73853W        W45469  19.610   5.514   1.906
73854W        W45470   2.718  37.426  10.658
73855W        W45471  36.644  14.084   2.358
73856W        W45472   3.854  11.085   4.168
73857W        W45473  20.618  41.431  14.031
73858W        W45474  17.307  32.395   3.290
73859W        W45475  22.649  20.408   4.125
73860W        W45476  32.511   0.760   3.837
73861W        W45477   0.265   1.673  12.041
73862W        W45478  11.722  22.154  11.724
73863W        W45479   3.232  40.385   4.109
73864W        W45480  31.886   4.311  10.659
73865W        W45481  40.950  12.056   4.633
73866W        W45482  14.764  10.749   0.378
73867W        W45483  31.940  40.374   3.060
73868W        W45484   4.843  30.452  14.683
73869W        W45485  30.046  40.948  13.094
73870W        W45486   7.698  27.850  11.709
73871W        W45487  44.586  33.084   3.199
73872W        W45488  16.482  21.995  11.131
73873W        W45489   5.920   3.082   4.747
73874W        W45490  14.423  42.042  13.725
73875W        W45491   1.419  14.410   2.259
73876W        W45492  28.919  26.214   3.116
73877W        W45493  14.719   0.224   3.221
73878W        W45494  23.777   4.292   4.575
73879W        W45495  37.057  29.133   0.408
73880W        W45496  18.826  22.961  12.567
73881W        W45497   0.878  42.044  13.286
73882W        W45498   0.203   0.477   0.840
73883W        W45499  36.422  11.419   3.159
73884W        W45500  30.056  36.158  11.201
73885W        W45501  16.661   7.858   4.507
73886W        W45502  41.229  39.327  13.402
73887W        W45503  26.269  15.655   1.324
73888W        W45504  10.524  28.742  12.959
73889W        W45505  28.413  29.847   0.898
73890W        W45506  38.675  19.996   0.940
73891W        W45507  42.865  38.888   4.505
73892W        W45508  37.427  15.994   4.736
73893W        W45509  13.162  36.365   3.391
73894W        W45510  11.796  32.882  12.766
73895W        W45511  26.611  40.728  11.991
73896W        W45512  20.546  10.251  11.517
73897W        W45513   1.540  35.870  13.402
73898W        W45514   1.306  37.404  11.350
73899W        W45515  20.305  11.714  11.167
73900W        W45516  23.240  43.788   1.865
73901W        W45517  22.316  38.245   1.608
73902W        W45518  33.339   7.099   3.961
73903W        W45519  38.434  36.771   1.290
73904W        W45520  16.344  34.810   2.868
73905W        W45521  12.262   5.385   4.818
73906W        W45522   3.983  26.011   4.585
73907W        W45523  37.010  14.513  13.018
73908W        W45524  32.728  42.332   0.877
73909W        W45525   1.807  29.885   1.823
73910W        W45526  34.074  16.754   1.995
73911W        W45527  14.080  37.871   1.779
73912W        W45528  31.753  28.610  13.457
73913W        W45529   5.754  35.560   0.826
73914W        W45530   4.658  31.723   0.455
73915W        W45531  44.337  15.383  12.886
73916W        W45532  26.448  10.139   4.282
73917W        W45533  24.241  16.125  12.530
73918W        W45534  34.702  32.488   2.560
73919W        W45535  29.443  14.287   2.447
73920W        W45536   6.408  44.409   0.962
73921W        W45537   1.286  37.561   2.918
73922W        W45538  25.020  41.802   3.677
73923W        W45539   0.318   1.712  14.520
73924W        W45540   3.865   9.220  14.803
73925W        W45541  29.453  31.917  10.319
73926W        W45542   1.243  30.487   3.563
73927W        W45543  32.315   0.895  14.838
73928W        W45544  14.767   3.529   4.575
73929W        W45545  32.793   0.681  14.920
73930W        W45546   6.905  31.240  13.112
73931W        W45547  15.307  40.985   1.229
73932W        W45548  23.882  44.920   4.386
73933W        W45549  26.639  36.067   0.256
73934W        W45550   4.762  10.160  14.864
73935W        W45551  33.679   9.789  12.529
73936W        W45552  20.711  24.967   0.784
73937W        W45553  17.245  27.944   2.359
73938W        W45554  38.271  18.579   2.717
73939W        W45555  23.201  44.758  10.446
73940W        W45556  25.745  15.853   0.426
73941W        W45557   0.282   2.395   2.636
73942W        W45558   4.753  30.212  10.598
73943W        W45559  37.948  30.071   4.874
73944W        W45560  40.721  25.268   3.524
73945W        W45561  37.495  31.417  14.335
73946W        W45562  22.695  28.695   0.955
73947W        W45563   6.392  10.659   2.432
73948W        W45564   1.894  10.869   0.171
73949W        W45565   2.016   5.463   0.687
73950W        W45566  40.584  23.534   4.543
73951W        W45567  31.854  15.240  11.561
73952W        W45568  11.613  37.528  10.541
73953W        W45569  10.482  35.895   2.935
73954W        W45570  16.739  33.980  12.611
73955W        W45571  11.485  42.329   4.558
73956W        W45572  16.336  24.642  11.491
73957W        W45573   6.878  26.961   0.550
73958W        W45574  32.975  24.765  13.059
73959W        W45575   7.423   5.739   2.797
73960W        W45576  22.043  37.258  12.556
73961W        W45577   5.235  38.636  11.915
73962W        W45578  17.218  41.007   2.325
73963W        W45579   7.346  21.270  12.038
73964W        W45580  35.006  34.677  12.043
73965W        W45581  24.759  25.600   4.231
73966W        W45582  21.344  14.314   0.824
73967W        W45583  30.561  22.166   1.415
73968W        W45584  23.013  22.707  13.364
73969W        W45585  18.268  35.433   2.671
73970W        W45586   5.835  19.502  12.583
73971W        W45587   8.800  31.259   4.490
73972W        W45588  13.876  41.278  12.010
73973W        W45589  12.375   8.694   1.060
73974W        W45590  21.626   4.530  10.793
73975W        W45591  16.351   0.168   0.459
73976W        W45592   5.352   3.403   1.340
73977W        W45593  19.272   2.250   3.209
73978W        W45594  23.687  43.394   2.235
73979W        W45595  27.990  44.752   4.846
73980W        W45596  40.576  17.182  14.029
73981W        W45597  10.230  34.407  12.852
73982W        W45598  41.289  32.048  14.474
73983W        W45599  14.764  25.030  14.979
73984W        W45600   2.976  21.792  10.180
73985W        W45601  25.116  36.307   1.551
73986W        W45602  25.613  41.157   4.476
73987W        W45603  13.968  26.461  12.905
73988W        W45604   7.921   0.326  14.309
73989W        W45605  21.035   8.881  11.575
73990W        W45606   5.628  43.278   3.969
73991W        W45607  39.716  21.989  13.870
73992W        W45608  21.181  43.083  10.303
73993W        W45609  14.232  31.849   2.936
73994W        W45610  43.506  38.053   5.334
73995W        W45611  33.505  43.740  12.934
73996W        W45612   4.887  29.508   2.645
73997W        W45613  36.931  39.568   3.914
73998W        W45614  27.534  15.828   2.826
73999W        W45615  23.535  19.973  13.808
74000W        W45616  10.931  43.340   3.201
74001W        W45617  16.788  31.120  13.883
74002W        W45618  22.146  41.281  12.557
74003W        W45619  31.537  23.101  14.361
74004W        W45620  29.136  17.783   4.417
74005W        W45621  43.127  18.789  10.528
74006W        W45622  36.919   3.929  14.902
74007W        W45623  38.908   5.735   0.216
74008W        W45624  33.726  17.169  12.053
74009W        W45625   8.348   0.712   0.275
74010W        W45626  36.264  22.228  14.799
74011W        W45627   4.340  40.541  12.500
74012W        W45628   7.425  19.222  14.328
74013W        W45629  18.944  41.132  14.490
74014W        W45630  15.368   5.363   1.597
74015W        W45631   3.369   2.272   4.099
74016W        W45632  37.579  18.854  12.485
74017W        W45633  12.737  17.615   1.512
74018W        W45634  42.218   8.783   3.173
74019W        W45635   7.465  31.548  13.850
74020W        W45636  14.221   0.761   2.720
74021W        W45637  15.651  36.644   3.846
74022W        W45638   4.716   3.848  12.477
74023W        W45639  24.994  39.788  13.876
74024W        W45640  29.139  12.363   1.278
74025W        W45641   1.061  30.442   0.656
74026W        W45642  16.791  36.474   2.663
74027W        W45643   9.825  31.591  11.677
74028W        W45644  11.852  31.975  13.410
74029W        W45645  23.535  40.886   1.235
74030W        W45646  14.362  44.261  13.523
74031W        W45647   7.205  19.460   4.761
74032W        W45648  40.063  41.431   4.119
74033W        W45649   1.808  37.280  11.208
74034W        W45650  41.767  39.584   1.255
74035W        W45651  39.117   7.750  12.431
74036W        W45652  20.505  39.760   0.979
74037W        W45653  37.649   0.293  11.246
74038W        W45654  27.918  30.129   4.110
74039W        W45655  33.840  10.178   0.769
74040W        W45656  18.607  17.555   2.152
74041W        W45657  19.757  39.255   3.796
74042W        W45658  31.378  12.896  13.306
74043W        W45659  13.598  37.923   1.018
74044W        W45660  42.274  22.130   4.583
74045W        W45661  31.077   2.389  12.568
74046W        W45662  25.288  36.392  14.085
74047W        W45663  26.535  30.499   2.338
74048W        W45664   0.999  18.751  14.335
74049W        W45665  15.359   0.230   2.695
74050W        W45666   1.784  35.822   2.863
74051W        W45667  28.153  19.934  10.543
74052W        W45668   0.087  38.416   4.994
74053W        W45669  14.167   5.935   4.577
74054W        W45670  40.434  21.414   0.644
74055W        W45671  17.233   9.114   9.995
74056W        W45672  14.284  24.210   3.545
74057W        W45673  23.319  42.958   3.575
74058W        W45674  13.688  11.252   2.626
74059W        W45675  40.898   0.796  14.723
74060W        W45676  36.032  13.371  13.298
74061W        W45677  21.976  11.790   0.928
74062W        W45678  14.362  15.571   4.056
74063W        W45679  12.330  40.613  13.345
74064W        W45680  24.587  31.174   1.881
74065W        W45681  23.537  41.539   2.884
74066W        W45682  34.045  32.459  10.448
74067W        W45683  11.835  16.552  13.891
74068W        W45684   9.764  11.379   0.823
74069W        W45685   7.201  31.161   1.410
74070W        W45686  14.724  27.316   2.897
74071W        W45687   5.249  33.751  10.534
74072W        W45688   9.220  26.486  11.071
74073W        W45689  33.593  33.059  14.903
74074W        W45690  12.822   2.268  12.159
74075W        W45691  17.629  28.549  12.967
74076W        W45692  16.586  44.262   0.818
74077W        W45693  29.553   2.176   1.136
74078W        W45694  24.237   3.524   3.628
74079W        W45695  42.214  25.171   2.409
74080W        W45696   9.226  10.082   3.089
74081W        W45697  24.616  17.286  11.061
74082W        W45698  22.081  16.274  14.623
74083W        W45699   3.835  27.622  14.951
74084W        W45700  28.415   3.318   2.175
74085W        W45701   8.796  26.672  13.829
74086W        W45702  32.595  42.928  10.660
74087W        W45703   6.379  16.449   0.961
74088W        W45704  22.546  42.416  12.474
74089W        W45705  36.864  42.017   4.691
74090W        W45706  37.559  41.332  13.141
74091W        W45707  17.596  37.444  14.787
74092W        W45708  30.163  32.466  11.620
74093W        W45709  30.352  16.631  12.151
74094W        W45710  21.546  20.713  14.876
74095W        W45711  27.583   7.866   1.181
74096W        W45712  32.581  33.676  11.343
74097W        W45713  13.716  33.635   2.832
74098W        W45714  37.438  21.272   4.464
74099W        W45715   2.953  21.744   3.293
74100W        W45716   6.912  43.836  11.944
74101W        W45717  14.796  37.410  14.885
74102W        W45718  14.998  21.754   3.695
74103W        W45719  38.733   3.411   0.489
74104W        W45720  43.426  16.290  11.401
74105W        W45721  28.196  26.632   4.716
74106W        W45722  13.846  28.099  12.031
74107W        W45723  25.263  27.357   4.160
74108W        W45724  14.336   0.891  10.268
74109W        W45725  10.106  30.103   3.604
74110W        W45726   6.484  32.477   4.260
74111W        W45727  42.216  41.641   5.065
74112W        W45728  27.656  15.577  12.101
74113W        W45729  42.388   8.281  12.875
74114W        W45730   5.933  40.101  14.915
74115W        W45731  22.164  27.085   3.203
74116W        W45732  20.669  29.885  14.297
74117W        W45733  19.589   0.738  13.446
74118W        W45734   1.922  35.410   3.349
74119W        W45735  43.464  16.571  12.547
74120W        W45736  30.445   1.786   1.182
74121W        W45737   6.709  32.447  10.774
74122W        W45738  28.932  25.103   4.659
74123W        W45739  17.334   5.676   4.295
74124W        W45740  18.284  42.932  11.417
74125W        W45741  17.717  16.981  10.477
74126W        W45742  11.075  11.866  12.454
74127W        W45743  13.648  29.109   0.742
74128W        W45744  27.583   2.332  10.581
74129W        W45745   1.255  16.292   4.601
74130W        W45746  31.757  10.107   1.500
74131W        W45747  10.686  24.027  12.377
74132W        W45748  28.647   8.987  13.673
74133W        W45749  16.315  13.108  12.980
74134W        W45750   1.730  15.541   4.187
74135W        W45751  30.656  20.264  12.973
74136W        W45752   1.725  18.626  12.041
74137W        W45753  11.393   1.282  14.499
74138W        W45754  21.545  37.354  11.947
74139W        W45755  12.345   0.410  11.583
74140W        W45756  43.165  34.451  13.626
74141W        W45757   9.828  44.316   2.166
74142W        W45758  44.351  18.856   0.441
74143W        W45759   9.930  19.574   1.818
74144W        W45760   3.369  44.550   4.652
74145W        W45761  38.788  26.622  13.818
74146W        W45762  12.671   8.641   1.656
74147W        W45763  16.870  38.561  14.966
74148W        W45764   7.994  41.558  10.921
74149W        W45765  41.318  25.563   3.155
74150W        W45766  35.052  40.777   1.145
74151W        W45767  39.338  27.035   3.767
74152W        W45768  43.970   0.703   3.049
74153W        W45769  14.157   0.440   1.474
74154W        W45770  20.679  12.889  13.744
74155W        W45771  19.316  42.904  11.569
74156W        W45772  17.351  40.430  12.720
74157W        W45773  36.890   1.349  13.366
74158W        W45774  41.832  11.889   2.676
74159W        W45775  23.714  12.178   2.802
74160W        W45776  28.616  36.928   2.361
74161W        W45777   8.063   7.252  12.932
74162W        W45778   3.375   6.751   4.890
74163W        W45779  17.238  20.088   1.649
74164W        W45780  28.318  38.920   4.881
74165W        W45781  17.656  24.885  13.320
74166W        W45782  10.879  20.251   4.922
74167W        W45783  14.725  22.750  12.207
74168W        W45784   5.634  35.568  12.899
74169W        W45785  21.364  36.664  10.969
74170W        W45786  31.951   5.455  11.434
74171W        W45787  28.743  39.481   2.161
74172W        W45788  20.791  10.126   0.412
74173W        W45789  39.147   4.330  13.396
74174W        W45790   7.008  10.669  11.168
74175W        W45791   2.361  10.726   0.383
74176W        W45792  12.266  31.802   3.279
74177W        W45793   3.763  41.909   0.041
74178W        W45794  33.617   5.094   1.171
74179W        W45795  43.854  20.766   1.318
74180W        W45796  14.592  25.638   1.704
74181W        W45797  19.013  41.612  10.437
74182W        W45798  39.543  21.682   4.253
74183W        W45799  44.875  18.760  11.680
74184W        W45800   3.500  39.040  12.396
74185W        W45801   5.318  15.327  12.439
74186W        W45802  29.173  18.306   3.583
74187W        W45803  38.084  35.493  12.822
74188W        W45804  39.019  28.355   0.942
74189W        W45805   9.421  27.061   1.799
74190W        W45806  19.697   8.311  12.365
74191W        W45807   4.573  26.959   1.048
74192W        W45808  30.781  25.531   4.145
74193W        W45809   5.721  32.083  12.545
74194W        W45810  43.372   0.046   1.930
74195W        W45811  32.392   1.734   3.590
74196W        W45812  27.957  25.686   3.808
74197W        W45813  16.574  27.432   4.703
74198W        W45814  40.140  41.178  11.701
74199W        W45815   9.344  35.114   3.815
74200W        W45816   7.700  14.673  13.321
74201W        W45817   7.839  26.846   4.707
74202W        W45818  10.809  26.959  11.719
74203W        W45819  16.999  39.864   0.263
74204W        W45820   7.218  23.013  12.337
74205W        W45821   0.800   4.104  10.741
74206W        W45822  13.257  29.573   3.655
74207W        W45823  30.951   0.883  12.991
74208W        W45824  31.710  15.031  14.517
74209W        W45825  11.400  27.654   4.640
74210W        W45826  21.198  25.303  11.890
74211W        W45827  21.291   0.458   3.169
74212W        W45828  43.249  25.966   0.197
74213W        W45829  32.053  21.462  12.257
74214W        W45830  24.194   4.408  12.487
74215W        W45831  26.595  28.119  11.237
74216W        W45832   9.687  29.659  12.542
74217W        W45833  44.376  34.345  12.453
74218W        W45834  40.238  22.343   0.241
74219W        W45835  41.862  18.087  14.005
74220W        W45836   9.662  25.583  11.174
74221W        W45837  32.458  35.743   3.477
74222W        W45838  12.237  28.608  13.802
74223W        W45839  26.857  17.903   0.347
74224W        W45840  16.182   4.937   3.775
74225W        W45841   9.098  40.126  11.503
74226W        W45842  27.036  37.212   2.956
74227W        W45843  41.448   5.725  11.500
74228W        W45844  17.915   1.682   1.885
74229W        W45845  29.404  14.943   5.434
74230W        W45846   3.391  25.953   3.241
74231W        W45847   1.960  40.000  12.041
74232W        W45848   1.356  44.333  13.359
74233W        W45849   2.912  24.528   0.303
74234W        W45850   3.376  30.588  12.624
74235W        W45851  28.239  25.185  11.980
74236W        W45852   5.961  41.474  12.554
74237W        W45853  15.100  31.912  12.884
74238W        W45854  26.972  34.009   0.721
74239W        W45855  18.743   4.638   3.360
74240W        W45856  36.825  13.772   4.982
74241W        W45857  10.839   0.219  13.911
74242W        W45858  32.848  11.236  14.826
74243W        W45859  42.390  21.294  11.976
74244W        W45860  16.463  42.472  10.219
74245W        W45861  11.415   2.787   1.325
74246W        W45862  23.220  24.735  14.981
74247W        W45863  27.194  22.209  10.780
74248W        W45864  35.384  32.566  14.468
74249W        W45865  29.365  41.408  13.548
74250W        W45866  10.147   7.753   3.620
74251W        W45867  25.553   8.417   1.170
74252W        W45868   6.155  40.978  12.956
74253W        W45869  26.017   9.683   1.460
74254W        W45870  35.761  17.260  11.879
74255W        W45871  37.807  40.886   0.096
74256W        W45872  15.004   2.778  14.482
74257W        W45873   8.884  17.165  12.174
74258W        W45874  41.195  10.725  14.917
74259W        W45875  43.386  31.372   1.691
74260W        W45876   0.896  13.359  14.960
74261W        W45877  43.330  22.074   2.864
74262W        W45878  12.822  25.470   1.288
74263W        W45879  22.463  37.723   2.425
74264W        W45880  15.286   5.957   9.780
74265W        W45881  33.017  33.042  13.835
74266W        W45882  19.237   3.304  11.924
74267W        W45883  15.260   4.975   1.253
74268W        W45884  20.212  38.473   4.130
74269W        W45885   2.286  26.778  14.995
74270W        W45886   6.543   7.337  12.887
74271W        W45887   6.768  10.337   3.185
74272W        W45888  34.078  29.671  11.089
74273W        W45889  11.265  34.276   2.729
74274W        W45890  22.592   2.763  11.693
74275W        W45891  25.547  17.372   0.195
74276W        W45892  23.950  18.108  12.306
74277W        W45893  21.636  35.308   3.021
74278W        W45894  27.970  24.014  11.037
74279W        W45895   7.207   1.751  12.489
74280W        W45896  30.229  16.111  12.962
74281W        W45897  13.912  13.569   3.588
74282W        W45898  16.708  25.576  13.070
74283W        W45899   7.877  20.108   3.100
74284W        W45900  18.339  22.980  11.010
74285W        W45901  35.908  30.361  11.916
74286W        W45902  34.798  27.321   4.039
74287W        W45903  33.686   3.240   3.608
74288W        W45904  39.513   7.323  13.102
74289W        W45905  16.326   7.707   2.236
74290W        W45906   1.274  35.707   1.764
74291W        W45907  34.364  14.397   0.523
74292W        W45908  21.318  42.715   2.444
74293W        W45909   3.078  26.572  11.876
74294W        W45910  15.771  15.115   2.418
74295W        W45911  27.396  12.428   2.382
74296W        W45912  44.969   7.983   1.785
74297W        W45913  33.956   9.101  12.885
74298W        W45914  27.645   3.185  12.815
74299W        W45915  13.658  28.587  10.428
74300W        W45916  41.815  37.534  14.878
74301W        W45917   9.115  32.604  12.658
74302W        W45918   7.157   9.494   1.745
74303W        W45919   7.992   4.667   4.604
74304W        W45920   2.468  15.104   0.199
74305W        W45921  39.131  15.763   3.788
74306W        W45922  38.325  27.642   3.530
74307W        W45923  36.195   0.795   0.940
74308W        W45924  18.810   5.688   0.354
74309W        W45925  16.209  21.571   1.733
74310W        W45926  31.471  28.522  11.104
74311W        W45927  17.843  18.059  14.464
74312W        W45928   9.032   0.082  10.041
74313W        W45929  39.325   6.061  13.290
74314W        W45930   0.813  18.864  10.736
74315W        W45931  36.111   6.667   3.673
74316W        W45932   8.389  42.430  13.607
74317W        W45933  19.228   0.249   4.331
74318W        W45934  33.912  33.497  10.595
74319W        W45935  11.405   8.842   4.417
74320W        W45936  21.507  31.040   2.624
74321W        W45937   3.344   3.414  13.396
74322W        W45938  36.843  13.729  11.125
74323W        W45939   4.880  24.164   2.571
74324W        W45940  28.745   5.275   0.691
74325W        W45941  26.687  19.749   2.220
74326W        W45942  18.311   8.966   1.339
74327W        W45943  33.123   0.153   4.271
74328W        W45944  13.777  40.547  10.509
74329W        W45945  29.036  30.174  11.160
74330W        W45946  13.068  38.629   1.934
74331W        W45947   6.084  27.149   3.413
74332W        W45948   4.772  27.696  14.504
74333W        W45949   7.910  43.400   0.395
74334W        W45950  23.124  41.213  11.205
74335W        W45951  42.401  11.091  14.473
74336W        W45952  23.187  21.266   1.835
74337W        W45953  39.244   1.041   1.321
74338W        W45954   2.324  32.222   0.485
74339W        W45955  12.232  40.957   4.186
74340W        W45956   3.467  16.511  11.241
74341W        W45957  24.763  35.842  10.911
74342W        W45958   2.713  25.295  14.892
74343W        W45959   4.523   8.970   0.325
74344W        W45960  12.725   8.398   3.187
74345W        W45961  27.199  25.081  12.831
74346W        W45962  35.429   2.939   1.016
74347W        W45963  36.922  43.289  13.695
74348W        W45964  21.940  24.971  13.630
74349W        W45965  30.795  34.149   4.488
74350W        W45966   0.906  31.035   2.928
74351W        W45967  14.614  12.794  11.196
74352W        W45968  27.718   6.854   0.936
74353W        W45969   1.683  36.073   1.562
74354W        W45970  16.599   5.211   3.674
74355W        W45971  29.626  23.575  14.569
74356W        W45972  43.406   7.763  13.957
74357W        W45973   6.909  25.707  11.133
74358W        W45974   4.769  30.588  13.119
74359W        W45975  27.195  11.943   4.107
74360W        W45976  24.000  14.698  13.441
74361W        W45977   4.182  42.139  11.010
74362W        W45978  13.150  11.190  10.648
74363W        W45979   9.761  29.190   4.523
74364W        W45980  12.240  33.370   1.333
74365W        W45981  12.274  39.465   3.330
74366W        W45982   6.379  13.337  11.969
74367W        W45983   0.214  16.243  13.507
74368W        W45984  17.024  24.900   3.499
74369W        W45985  18.571  39.949   0.324
74370W        W45986  39.435  25.655   0.368
74371W        W45987  19.976  29.292   4.482
74372W        W45988  11.058   9.007  14.273
74373W        W45989  23.061  10.198   3.038
74374W        W45990  26.870  20.854  12.072
74375W        W45991   4.660   7.221  12.533
74376W        W45992  16.053  37.629   2.182
74377W        W45993   6.347  18.023   4.838
74378W        W45994  14.013  34.318  11.567
74379W        W45995  44.321  16.556  13.481
74380W        W45996  15.212   6.763  12.479
74381W        W45997  26.414  31.676  10.693
74382W        W45998   8.801  28.179   0.044
74383W        W45999  28.708  23.631   1.976
74384W        W46000   0.770  36.312   3.157
74385W        W46001  20.554  29.134   2.861
74386W        W46002  44.488  24.279   0.002
74387W        W46003  19.749  35.553   4.588
74388W        W46004  34.429  18.197   3.216
74389W        W46005  34.094  26.711   1.852
74390W        W46006   3.514  33.545   3.777
74391W        W46007  15.294   9.863  14.403
74392W        W46008  26.918  21.221  14.472
74393W        W46009   5.067  30.745   4.243
74394W        W46010  11.326  40.535  10.763
74395W        W46011  31.499  14.638  10.847
74396W        W46012  18.516   1.470  11.096
74397W        W46013  13.624   5.319   4.928
74398W        W46014  33.447   0.241   1.778
74399W        W46015   4.109  24.630   2.879
74400W        W46016  15.171   2.539  10.995
74401W        W46017  19.551   8.287   1.492
74402W        W46018  28.504  16.354  12.041
74403W        W46019  41.240  16.640   0.238
74404W        W46020   6.661  33.050   0.651
74405W        W46021  23.151  44.276  10.746
74406W        W46022  12.158  18.274   2.724
74407W        W46023  27.127  29.002  12.234
74408W        W46024  31.148  39.071   3.651
74409W        W46025  33.857  42.483   2.430
74410W        W46026  25.908  22.693  12.968
74411W        W46027  22.151  18.669   0.304
74412W        W46028  12.302  35.352  11.817
74413W        W46029  36.662  40.400  11.127
74414W        W46030  29.416  25.862   4.624
74415W        W46031  39.941  19.290  12.273
74416W        W46032  28.610   2.488   1.678
74417W        W46033   5.406  19.577  13.052
74418W        W46034  18.665  16.942  11.576
74419W        W46035  14.178  14.444  11.650
74420W        W46036  26.943  24.107  14.808
74421W        W46037  25.583  27.973  11.969
74422W        W46038  18.741  19.181   4.633
74423W        W46039  39.658   9.732  14.334
74424W        W46040  43.868  25.724   4.581
74425W        W46041   9.821  23.547  10.645
74426W        W46042  12.890   2.242   1.724
74427W        W46043  44.298  31.044   0.814
74428W        W46044  22.796   7.173   3.246
74429W        W46045  39.066   0.096  13.846
74430W        W46046  43.241   4.894   0.751
74431W        W46047   6.113  37.428  12.029
74432W        W46048  11.440  34.288   2.243
74433W        W46049  35.274  23.064   2.641
74434W        W46050   2.226  10.126  13.901
74435W        W46051   9.886  16.095  13.476
74436W        W46052   1.659  44.821  11.923
74437W        W46053  21.356  22.620  12.791
74438W        W46054  44.354  25.243  14.270
74439W        W46055   0.022   2.370  11.616
74440W        W46056   1.233  14.883  13.876
74441W        W46057  27.765  12.695   3.795
74442W        W46058  33.455  30.074   0.911
74443W        W46059  13.230  36.277   4.712
74444W        W46060  13.547  17.684   2.226
74445W        W46061   2.186  44.189   2.541
74446W        W46062  24.971  41.580   3.186
74447W        W46063  39.075  25.606  14.897
74448W        W46064   4.499  31.428   1.826
74449W        W46065  10.994   0.514   4.522
74450W        W46066  17.023  27.390   3.362
74451W        W46067  22.232  42.511   2.679
74452W        W46068  33.640   8.787  11.711
74453W        W46069   9.820   9.225   2.180
74454W        W46070  10.087  42.449  10.433
74455W        W46071  44.217  34.806   0.349
74456W        W46072   8.242   4.617  11.992
74457W        W46073   3.806  20.183  11.545
74458W        W46074  41.856  14.115  13.029
74459W        W46075  17.080  26.520   3.653
74460W        W46076   5.237  19.038   0.841
74461W        W46077  24.104   5.438   4.351
74462W        W46078  42.595  42.423   1.222
74463W        W46079  41.004  44.124   0.902
74464W        W46080   2.778  29.948  14.488
74465W        W46081  27.965  37.398   1.817
74466W        W46082  28.525   4.589  10.387
74467W        W46083  40.813   9.123   1.252
74468W        W46084  44.316  38.012  14.419
74469W        W46085  26.619  41.987  13.499
74470W        W46086   0.452  22.085  14.512
74471W        W46087  19.667  12.595  11.577
74472W        W46088   5.912  31.090  10.662
74473W        W46089   0.880   9.248   3.334
74474W        W46090  44.346  43.197   4.208
74475W        W46091  24.690  38.362  11.150
74476W        W46092   2.585  37.415   0.404
74477W        W46093  22.658  17.827  11.095
74478W        W46094  23.074  25.986   3.725
74479W        W46095  26.519  39.351  12.841
74480W        W46096  34.663  12.378  12.047
74481W        W46097  30.395  18.680   0.389
74482W        W46098  35.281   0.906  13.369
74483W        W46099  24.023  11.312   0.377
74484W        W46100  32.992  12.207  14.774
74485W        W46101  35.129  36.242  11.598
74486W        W46102  13.573  14.545   3.152
74487W        W46103  37.133  44.902   3.205
74488W        W46104  16.244  29.945   0.984
74489W        W46105  44.439  41.971  10.682
74490W        W46106  21.616  20.887  12.751
74491W        W46107  33.479  20.735  11.096
74492W        W46108  10.684  23.517   2.293
74493W        W46109  24.442   0.024   1.708
74494W        W46110   1.375  37.476   4.418
74495W        W46111  42.895  25.085  14.424
74496W        W46112  10.755  38.583   0.893
74497W        W46113  36.232  21.202   3.909
74498W        W46114  18.842  22.680  12.129
74499W        W46115  17.466  25.772  12.983
74500W        W46116   2.204  42.873   2.456
74501W        W46117  25.434  43.935  14.520
74502W        W46118  28.956  15.680  13.397
74503W        W46119  23.174  36.433   0.572
74504W        W46120   5.457   1.276  11.508
74505W        W46121  43.984  16.670  11.464
74506W        W46122  39.514  20.603   1.872
74507W        W46123  20.961  17.143   0.801
74508W        W46124   2.476  44.892   4.126
74509W        W46125   8.921  25.063   1.847
74510W        W46126  18.391   6.131   4.139
74511W        W46127  41.001  16.271   2.301
74512W        W46128  16.816  29.879   1.701
74513W        W46129  39.522   9.134  13.153
74514W        W46130  30.196  40.503  14.877
74515W        W46131  12.303   9.751   1.738
74516W        W46132  28.435  43.080   1.696
74517W        W46133  33.132  10.631  10.876
74518W        W46134  16.137  40.918   0.091
74519W        W46135   1.249  18.972   1.402
74520W        W46136  13.670  25.575   4.843
74521W        W46137  33.040  29.610  12.520
74522W        W46138  16.278  16.911  14.303
74523W        W46139   4.894  14.279   4.622
74524W        W46140   9.140   8.819   4.212
74525W        W46141  32.549  11.172   4.516
74526W        W46142  17.558  30.460  12.972
74527W        W46143   4.410  20.135  13.808
74528W        W46144  29.827   9.704   4.155
74529W        W46145  13.071   7.607   3.203
74530W        W46146  13.373  16.740   4.113
74531W        W46147  14.414   4.839  12.484
74532W        W46148  42.299  37.324  12.479
74533W        W46149  26.186  22.173   1.732
74534W        W46150   8.521  25.617  13.645
74535W        W46151  22.647  42.528  10.701
74536W        W46152  19.779  27.688   0.554
74537W        W46153  20.454  21.350  11.195
74538W        W46154  43.621  32.674   0.296
74539W        W46155   1.932   6.188   0.419
74540W        W46156  28.257  11.173   4.439
74541W        W46157  18.305   0.701   4.364
74542W        W46158  23.560  28.802   2.732
74543W        W46159  24.475  34.136  13.784
74544W        W46160  34.110   1.005  10.018
74545W        W46161  10.695  39.367  10.471
74546W        W46162   8.382  32.248   4.552
74547W        W46163  21.519  17.690   3.146
74548W        W46164   2.338  15.745  13.732
74549W        W46165  36.439  42.359   4.257
74550W        W46166  41.459  29.387  11.960
74551W        W46167   4.244  42.578  12.450
74552W        W46168  29.892   9.666  10.651
74553W        W46169  28.945  36.491   2.891
74554W        W46170  43.764   4.491  14.362
74555W        W46171  34.875  24.964  11.141
74556W        W46172  21.904  23.619  10.955
74557W        W46173  34.580   5.191   4.059
74558W        W46174  20.011   3.848   0.772
74559W        W46175  32.037  27.890  10.721
74560W        W46176  36.803  43.591  13.288
74561W        W46177  10.805  38.766   3.136
74562W        W46178  23.491   2.622  11.611
74563W        W46179  24.129  18.234   4.502
74564W        W46180  21.934   2.200   0.892
74565W        W46181   4.419   7.763  13.591
74566W        W46182  13.671  21.080   3.919
74567W        W46183   4.234  37.681  12.042
74568W        W46184  28.012   2.439  11.559
74569W        W46185  37.773  13.836   0.964
74570W        W46186  24.702  16.308  14.521
74571W        W46187  13.787  22.600   0.887
74572W        W46188  32.703  40.457   5.014
74573W        W46189  20.770  29.117   4.381
74574W        W46190   8.179   6.084   2.208
74575W        W46191   9.590   0.277  10.745
74576W        W46192   4.818  41.793  13.506
74577W        W46193  29.511  19.123   3.257
74578W        W46194   5.306  40.671   0.740
74579W        W46195  12.368  31.455  10.629
74580W        W46196  25.499   0.427   1.621
74581W        W46197  25.935  40.075   2.817
74582W        W46198  15.509  23.930  11.582
74583W        W46199   4.741  36.618   3.009
74584W        W46200  42.901  16.054   1.867
74585W        W46201  28.857  44.275   1.845
74586W        W46202  40.789  20.278  14.927
74587W        W46203  44.481  14.431  12.797
74588W        W46204   6.589  10.234  11.476
74589W        W46205  17.538  41.851  14.732
74590W        W46206  16.695  10.358  13.441
74591W        W46207  41.895  14.046  11.155
74592W        W46208  44.797  39.730   4.960
74593W        W46209  16.344   3.187  12.215
74594W        W46210  36.584  26.076   0.436
74595W        W46211  20.948   5.635   3.713
74596W        W46212  36.544  40.482   0.361
74597W        W46213   7.154  40.982  12.390
74598W        W46214  37.076   3.643  10.505
74599W        W46215  17.996  17.483  14.949
74600W        W46216   5.117  11.246   3.147
74601W        W46217   8.610  44.923   2.306
74602W        W46218   5.103  18.342  14.539
74603W        W46219  20.620  37.064   0.421
74604W        W46220  16.874  10.541  12.982
74605W        W46221   5.631  22.698  11.961
74606W        W46222   1.425  12.283   0.407
74607W        W46223  30.052  43.264  10.626
74608W        W46224   7.831   6.431   4.338
74609W        W46225  33.190  17.454   0.821
74610W        W46226  22.642  21.413   0.103
74611W        W46227  44.390  30.078  13.531
74612W        W46228  39.032   0.610  11.663
74613W        W46229  10.782  31.555   4.488
74614W        W46230  22.670   7.629  10.599
74615W        W46231  40.968  33.219  12.429
74616W        W46232  40.143  36.516  11.160
74617W        W46233   7.017  35.515   1.221
74618W        W46234   6.149  17.830   0.883
74619W        W46235   4.596  22.152   4.254
74620W        W46236  21.536   2.608  11.967
74621W        W46237  10.306   7.775   1.341
74622W        W46238  14.973  26.671   3.759
74623W        W46239   8.200  15.756   2.946
74624W        W46240  31.445  34.198   1.655
74625W        W46241  31.819  41.932   2.218
74626W        W46242   6.937  21.465  13.368
74627W        W46243   4.425  10.647  11.141
74628W        W46244  27.597  21.510   2.180
74629W        W46245   4.351  42.953   1.772
74630W        W46246  13.029  31.434   1.259
74631W        W46247  18.351  24.705  13.436
74632W        W46248  27.078   7.916   3.029
74633W        W46249  36.076   8.503   5.113
74634W        W46250  40.985  17.298   3.213
74635W        W46251  33.503   2.658  13.240
74636W        W46252  43.787  40.948   1.856
74637W        W46253   6.928  27.527   0.884
74638W        W46254   4.806   2.757   3.543
74639W        W46255  26.490   2.032   1.385
74640W        W46256  30.712   0.376  13.109
74641W        W46257  20.569  41.517   2.816
74642W        W46258  33.703  21.025  10.690
74643W        W46259  44.905  14.272  14.837
74644W        W46260  19.243  17.845   3.390
74645W        W46261  40.289  13.083   1.090
74646W        W46262  34.306  37.154  14.002
74647W        W46263  32.365  27.984  12.001
74648W        W46264  11.897   7.750   3.393
74649W        W46265  33.686  10.819   4.595
74650W        W46266  22.575  37.591  14.756
74651W        W46267  11.075  12.879  13.496
74652W        W46268  13.157  13.920   0.741
74653W        W46269  30.102   9.928  11.035
74654W        W46270   3.334  35.526   3.174
74655W        W46271   0.285  36.917   4.928
74656W        W46272  22.245  41.748   4.282
74657W        W46273  40.603  22.127  14.931
74658W        W46274  39.383  40.252   0.247
74659W        W46275  21.120  30.101  11.626
74660W        W46276   0.380  16.610  14.432
74661W        W46277  30.551   7.039  11.660
74662W        W46278  14.271  15.360   1.869
74663W        W46279  32.113  35.434   0.059
74664W        W46280  17.639  15.731  12.653
74665W        W46281  22.016  37.384  13.121
74666W        W46282  40.812  25.260   0.877
74667W        W46283   8.009  26.463  12.097
74668W        W46284   3.722   3.014   4.821
74669W        W46285  10.162  37.844   3.672
74670W        W46286  18.951  36.042   4.756
74671W        W46287   9.681  43.046   0.849
74672W        W46288  29.714   0.447  12.105
74673W        W46289  23.163  41.059  10.329
74674W        W46290  39.881  18.207   4.495
74675W        W46291  16.237   7.230   2.413
74676W        W46292  20.245  39.142   1.984
74677W        W46293  11.689   2.306   1.639
74678W        W46294  21.715  12.345   4.111
74679W        W46295   6.258  28.575   4.535
74680W        W46296   1.852  21.756   1.378
74681W        W46297  41.647  43.558   2.961
74682W        W46298  39.118  26.024   2.116
74683W        W46299   1.336  21.554  13.510
74684W        W46300   0.700   4.384   3.595
74685W        W46301  16.346  20.406  10.796
74686W        W46302  36.441  25.646   3.272
74687W        W46303  16.079  13.637  10.447
74688W        W46304  20.172  18.509  13.029
74689W        W46305   5.604  31.385   2.726
74690W        W46306  27.002   3.950  12.834
74691W        W46307   6.945   2.652  12.078
74692W        W46308   4.368  11.428   4.228
74693W        W46309   3.877   8.652  13.954
74694W        W46310  31.056   0.399   0.358
74695W        W46311  28.577   7.644  13.928
74696W        W46312  19.570  23.758   3.192
74697W        W46313  20.455   0.972   2.174
74698W        W46314  44.561   7.542  11.243
74699W        W46315  39.911  21.911   0.221
74700W        W46316  32.436  41.702  14.971
74701W        W46317  41.985   7.964   0.092
74702W        W46318   2.714  11.683  14.835
74703W        W46319   6.875   5.207   2.262
74704W        W46320  15.208  11.739   4.167
74705W        W46321  42.502  36.422   0.210
74706W        W46322  10.119  40.505   4.572
74707W        W46323  19.720  22.486  10.596
74708W        W46324  26.733   4.405   0.429
74709W        W46325  17.313  23.153   1.378
74710W        W46326  29.290   1.769  12.464
74711W        W46327  33.478  28.961   4.112
74712W        W46328  41.981  44.919  14.725
74713W        W46329   0.333  40.546   1.312
74714W        W46330   3.244  12.978   0.315
74715W        W46331  22.631  35.964   3.729
74716W        W46332  40.941   1.748  11.721
74717W        W46333   9.354  35.069  14.977
74718W        W46334  14.289  21.094  12.570
74719W        W46335  24.906   9.598  13.010
74720W        W46336  24.095  42.275  14.309
74721W        W46337  21.906   9.002  13.002
74722W        W46338  27.921  38.018  10.711
74723W        W46339  32.517  11.784   0.815
74724W        W46340  39.323  41.349   1.274
74725W        W46341  43.523  32.110   0.307
74726W        W46342  14.709  43.624   1.122
74727W        W46343   3.964   0.716  10.651
74728W        W46344  39.488  12.151   4.538
74729W        W46345   2.705  22.643   1.885
74730W        W46346   3.259  18.122  14.488
74731W        W46347  37.794  31.984  12.760
74732W        W46348  35.964   8.754   0.742
74733W        W46349  17.130   9.704   3.189
74734W        W46350  43.551  30.441   4.617
74735W        W46351  26.189  38.059  14.882
74736W        W46352  15.449  26.210   2.158
74737W        W46353  43.221  21.332   0.260
74738W        W46354  43.703  44.307   2.380
74739W        W46355  27.674   5.369  13.539
74740W        W46356  29.978  10.620   3.660
74741W        W46357  39.035  35.366  11.940
74742W        W46358  30.606   1.384   4.138
74743W        W46359  16.577   2.373  13.070
74744W        W46360  10.657   8.939   3.249
74745W        W46361  12.606  10.445   2.235
74746W        W46362  14.322   5.804  12.057
74747W        W46363   9.229  21.617   2.553
74748W        W46364   7.864  23.365   4.553
74749W        W46365  11.929  11.280  12.091
74750W        W46366  44.567   1.436   4.764
74751W        W46367  29.210  26.885  10.631
74752W        W46368   2.492   7.860   4.422
74753W        W46369  38.009   3.546  11.378
74754W        W46370  29.742  13.282   3.245
74755W        W46371   4.666  29.898   2.354
74756W        W46372  34.648  36.160  14.045
74757W        W46373  43.682   2.733   2.469
74758W        W46374  41.763  20.654   1.841
74759W        W46375  25.685  15.824  11.622
74760W        W46376  31.499  24.178   0.231
74761W        W46377  30.212   0.901  11.520
74762W        W46378   2.832  35.922   1.885
74763W        W46379   3.454  43.798   3.328
74764W        W46380   0.815  36.263   3.986
74765W        W46381  19.282  36.807  11.190
74766W        W46382  32.069  37.557   1.624
74767W        W46383  29.692   6.896  11.617
74768W        W46384  32.406  35.986  10.406
74769W        W46385  42.063  18.262   1.259
74770W        W46386  38.443   4.315  14.452
74771W        W46387  30.200  10.908   4.063
74772W        W46388  18.194   0.443  10.493
74773W        W46389  37.459  16.161   3.558
74774W        W46390   2.932  19.668   0.829
74775W        W46391  42.263   6.385  11.966
74776W        W46392  33.797  19.141   0.331
74777W        W46393  37.376  28.087   1.352
74778W        W46394  27.200  22.109   0.827
74779W        W46395  42.904  21.384  14.850
74780W        W46396  40.991  15.674   3.866
74781W        W46397   9.204  34.969  14.387
74782W        W46398  34.421  20.422  10.768
74783W        W46399   8.223  43.916   4.668
74784W        W46400  31.556  25.921   0.849
74785W        W46401   4.943   2.911  10.736
74786W        W46402  14.844  17.240   4.588
74787W        W46403  32.916   6.132  11.131
74788W        W46404  35.361  41.039   1.514
74789W        W46405   1.444   5.717  14.877
74790W        W46406   9.693   0.435  14.014
74791W        W46407  13.974  14.760   2.315
74792W        W46408  10.134   1.396  12.767
74793W        W46409   2.936  35.826   3.434
74794W        W46410   8.873   7.731  11.583
74795W        W46411   7.923   5.155   4.854
74796W        W46412   5.741  22.690  10.264
74797W        W46413  26.680  26.514  14.310
74798W        W46414   2.052  15.846  10.261
74799W        W46415  23.559   4.179  14.380
74800W        W46416  43.635  13.169   1.061
74801W        W46417  40.878  10.038   4.712
74802W        W46418   8.315  40.833  14.853
74803W        W46419  40.274  29.543   2.831
74804W        W46420   9.899  36.844   0.396
74805W        W46421  44.268  38.342   2.850
74806W        W46422  37.560   8.373  13.952
74807W        W46423  39.960   0.501  12.986
74808W        W46424  15.530  32.503  11.550
74809W        W46425  37.157  11.429   3.533
74810W        W46426   0.033  41.033   3.737
74811W        W46427  29.905  15.541   2.832
74812W        W46428  18.165  31.071   3.340
74813W        W46429   1.806  28.702  10.736
74814W        W46430  29.908  41.251   0.330
74815W        W46431  41.515  38.812  12.581
74816W        W46432  39.594  39.110   2.936
74817W        W46433  28.127  32.990  14.300
74818W        W46434  31.354  40.551   1.303
74819W        W46435  35.567  41.572  14.980
74820W        W46436  31.369  30.438  10.124
74821W        W46437  37.822  13.563  11.017
74822W        W46438  12.093  31.454   4.119
74823W        W46439  26.016  40.552  12.022
74824W        W46440  14.392   8.291  14.281
74825W        W46441  34.009   2.746   1.759
74826W        W46442  13.701  28.468   2.958
74827W        W46443  25.395  10.280  12.383
74828W        W46444  36.902  26.664   4.581
74829W        W46445  25.566  20.791   2.775
74830W        W46446  21.298  17.608  12.707
74831W        W46447   4.661  15.295   1.450
74832W        W46448  16.847  20.658  11.711
74833W        W46449   3.441  33.551   4.670
74834W        W46450   0.705  35.802  10.333
74835W        W46451  37.903  42.800   1.682
74836W        W46452  39.800  31.337   2.776
74837W        W46453  14.281  11.489  12.083
74838W        W46454  24.054   6.082  12.915
74839W        W46455  16.990  10.214   2.359
74840W        W46456  43.500   8.342  11.609
74841W        W46457   2.983  16.619   0.922
74842W        W46458  36.959  29.182  14.831
74843W        W46459  40.885  23.520  14.880
74844W        W46460   1.229  17.534   3.251
74845W        W46461   4.432   8.718  13.899
74846W        W46462  23.978   8.917   2.243
74847W        W46463   1.229  11.605   4.862
74848W        W46464  10.326   6.357   2.586
74849W        W46465  28.708   6.185  14.413
74850W        W46466  27.743  19.679  10.680
74851W        W46467   8.446   2.386   0.290
74852W        W46468  41.574  42.787  13.609
74853W        W46469  32.994  23.596   0.044
74854W        W46470  18.226  28.087   4.623
74855W        W46471  39.205  15.664   0.457
74856W        W46472  29.044  30.202   3.186
74857W        W46473  41.951   9.152   2.125
74858W        W46474  38.834   6.986   2.352
74859W        W46475  33.161  20.697   4.626
74860W        W46476  31.940   7.419  10.672
74861W        W46477  10.676  24.679   0.744
74862W        W46478  38.109  27.924   0.987
74863W        W46479  22.942  30.703   2.742
74864W        W46480  31.489  36.898   2.690
74865W        W46481  25.461  41.704   0.126
74866W        W46482  30.997   2.714  11.341
74867W        W46483  44.012  44.816   1.285
74868W        W46484  32.979  15.738   2.717
74869W        W46485  29.484   8.180  13.915
74870W        W46486  20.525  34.694   3.526
74871W        W46487  25.517  28.105  14.820
74872W        W46488  20.081   7.283  13.493
74873W        W46489  11.848  20.402   4.281
74874W        W46490  30.916  22.627   3.445
74875W        W46491  33.809  39.143  12.999
74876W        W46492  10.638   7.054  14.295
74877W        W46493  12.115   6.188   1.851
74878W        W46494  21.514   2.727  13.633
74879W        W46495  24.874  11.083   4.995
74880W        W46496  12.750  41.105   2.744
74881W        W46497  22.250  39.950   4.783
74882W        W46498  35.871  34.036   3.182
74883W        W46499  35.438  42.825   4.544
74884W        W46500   9.186  21.309  12.634
74885W        W46501   8.875  36.846   0.163
74886W        W46502   1.975  18.160  11.056
74887W        W46503   7.306   5.723   1.905
74888W        W46504  40.339  14.130  14.808
74889W        W46505  39.253  39.521   3.163
74890W        W46506   2.792  34.515  13.855
74891W        W46507  42.578  19.064   0.229
74892W        W46508   6.802   4.467   1.642
74893W        W46509  41.989  24.986   4.772
74894W        W46510  40.268  21.175   3.789
74895W        W46511  42.304   7.434  10.599
74896W        W46512  37.453  34.891  10.711
74897W        W46513  36.541  10.253  13.861
74898W        W46514   3.784  33.554   0.996
74899W        W46515   5.794  17.303   3.742
74900W        W46516  41.540  36.075  14.495
74901W        W46517  28.551  41.433   0.044
74902W        W46518   5.468  19.310   4.925
74903W        W46519  37.806   4.894  10.243
74904W        W46520  21.738   7.335  13.880
74905W        W46521  19.806  40.464  12.350
74906W        W46522  32.545  34.111  13.328
74907W        W46523  24.954  37.170  11.421
74908W        W46524  30.699  19.384  11.012
74909W        W46525   5.983   6.646  14.890
74910W        W46526  42.904  42.654  13.270
74911W        W46527   3.277  10.434   5.157
74912W        W46528  14.064  27.522   3.958
74913W        W46529   1.700  30.112  11.561
74914W        W46530   1.910   2.197   3.162
74915W        W46531  11.815  44.675   2.603
74916W        W46532   3.179  25.112   2.177
74917W        W46533  18.630  23.320  10.609
74918W        W46534  14.127  28.756  13.187
74919W        W46535  33.957  23.267  13.031
74920W        W46536  44.477   4.223  11.490
74921W        W46537   8.493  35.984   4.767
74922W        W46538  32.478  27.032   0.832
74923W        W46539  29.263  23.938  10.675
74924W        W46540  40.451  29.145  13.991
74925W        W46541   1.473   3.874  13.307
74926W        W46542  40.099  38.971  10.442
74927W        W46543  16.730  19.864   0.285
74928W        W46544  26.065  22.949  11.171
74929W        W46545   8.886  11.246  14.825
74930W        W46546  42.978  22.167   3.234
74931W        W46547  25.308  35.828   1.581
74932W        W46548  13.658  24.987  12.488
74933W        W46549   1.779  16.412  11.636
74934W        W46550  37.296  18.535   1.229
74935W        W46551  43.446  29.653  10.759
74936W        W46552  38.576   5.323  14.467
74937W        W46553   2.294  23.038   1.363
74938W        W46554  22.074  14.313  14.115
74939W        W46555  19.655  42.289  11.145
74940W        W46556  42.473  16.064  11.991
74941W        W46557  22.116  17.751  11.101
74942W        W46558  35.538  10.837  10.872
74943W        W46559   8.249  18.774   1.700
74944W        W46560   9.466  28.406  12.808
74945W        W46561  17.759  29.485   4.140
74946W        W46562   8.915   4.293   4.582
74947W        W46563  19.771   7.396   4.144
74948W        W46564   4.429  19.077   4.883
74949W        W46565   4.053  33.435   1.409
74950W        W46566  35.967  20.512   1.407
74951W        W46567  18.774  30.054   4.813
74952W        W46568  22.081  33.428  10.951
74953W        W46569  30.670  25.658  11.891
74954W        W46570   0.239  17.716   4.094
74955W        W46571   2.004  13.860   3.349
74956W        W46572  15.324   5.656   4.095
74957W        W46573  29.225  29.999   0.926
74958W        W46574   2.651   8.332   0.397
74959W        W46575  28.026  25.639   3.195
74960W        W46576  29.437  18.635   1.890
74961W        W46577  38.263  30.604   2.282
74962W        W46578  42.590  21.556   0.350
74963W        W46579   2.250   9.135  11.283
74964W        W46580   6.474  25.312  10.296
74965W        W46581  17.019  24.004  10.578
74966W        W46582   6.808  27.170  12.130
74967W        W46583   0.951  22.719  12.982
74968W        W46584  18.233  38.633  13.845
74969W        W46585  41.614  12.987   3.314
74970W        W46586  34.410   7.317  13.374
74971W        W46587  33.988  17.721   3.848
74972W        W46588  40.928  21.652   4.800
74973W        W46589  14.880  32.659  10.204
74974W        W46590   1.903   9.008   4.640
74975W        W46591  40.533  15.020  14.526
74976W        W46592   3.814  16.295  13.048
74977W        W46593  36.496  29.102   2.806
74978W        W46594   7.150  11.261  11.206
74979W        W46595  21.920  44.808   2.844
74980W        W46596  22.860   1.925  13.987
74981W        W46597  40.331   0.814   1.441
74982W        W46598  17.613  16.726   1.435
74983W        W46599  35.598  15.240   1.241
74984W        W46600  12.825  16.123  12.726
74985W        W46601   4.363  37.126   2.727
74986W        W46602   5.401   1.979  13.037
74987W        W46603  41.475   8.250   4.551
74988W        W46604   9.324  14.669  14.257
74989W        W46605  37.787  31.505   4.684
74990W        W46606  40.965  23.226   0.321
74991W        W46607  22.903  10.929  12.514
74992W        W46608   3.185   6.983  12.406
74993W        W46609  30.921  25.517   3.643
74994W        W46610  11.665  20.020   2.436
74995W        W46611  19.970  38.374   4.569
74996W        W46612   6.073   7.420  11.747
74997W        W46613  11.346  31.596   4.602
74998W        W46614  15.244   1.182  12.038
74999W        W46615   5.758  36.006  14.143
75000W        W46616  16.669   9.592   1.895
75001W        W46617  40.538  29.437   4.263
75002W        W46618  33.414  39.544   3.200
75003W        W46619   8.912  37.773  11.485
75004W        W46620  18.524  28.586  14.225
75005W        W46621  27.664  17.304  11.370
75006W        W46622  33.857  18.580   2.852
75007W        W46623  30.984  37.922   0.415
75008W        W46624  29.231  35.962   4.111
75009W        W46625  42.788  37.344  14.839
75010W        W46626  36.121   3.438   3.081
75011W        W46627  39.934   3.213   0.852
75012W        W46628  42.662  26.659  12.625
75013W        W46629  34.163  35.847   1.279
75014W        W46630  24.459  37.278   0.368
75015W        W46631   4.172   2.401  13.990
75016W        W46632  20.789  35.932   1.619
75017W        W46633   2.232   9.294  13.455
75018W        W46634  41.469  14.363   4.148
75019W        W46635  18.315  17.192  13.309
75020W        W46636  37.413   8.413  13.035
75021W        W46637  20.954   3.867  12.158
75022W        W46638   2.821  28.211  12.985
75023W        W46639  43.078  11.700   1.150
75024W        W46640  42.773   5.277   4.295
75025W        W46641  27.920   1.258   3.708
75026W        W46642  15.961  37.810  11.039
75027W        W46643   0.476  35.320   0.811
75028W        W46644  12.849  21.159  12.381
75029W        W46645  31.141  21.585  14.885
75030W        W46646  38.753  32.557  11.167
75031W        W46647  14.275  16.088   4.109
75032W        W46648  38.807  35.657  12.475
75033W        W46649  30.194  42.051   3.660
75034W        W46650  24.880   9.290   3.206
75035W        W46651  22.509   8.662   4.070
75036W        W46652  40.913  20.302   3.317
75037W        W46653  26.027  14.090  10.777
75038W        W46654  42.280   1.798   4.246
75039W        W46655  17.730  22.636   0.368
75040W        W46656  11.638  15.874  11.439
75041W        W46657  32.594   9.735   3.613
75042W        W46658  13.176  20.016   3.833
75043W        W46659  23.321  39.870  11.623
75044W        W46660  16.320  23.075   3.858
75045W        W46661  12.818  34.379  12.639
75046W        W46662   1.732  43.495   1.810
75047W        W46663  38.476  27.531  12.057
75048W        W46664  30.597  30.599   1.624
75049W        W46665  17.420  16.763  11.929
75050W        W46666  14.096   9.786   4.667
75051W        W46667  28.220  22.067  12.133
75052W        W46668  25.556  29.518   1.932
75053W        W46669  14.935  11.985   2.816
75054W        W46670   7.528  20.183   4.339
75055W        W46671  24.491  36.438   0.754
75056W        W46672  21.586   9.638  13.557
75057W        W46673  33.832  19.647   0.376
75058W        W46674  14.818  16.497   1.425
75059W        W46675  23.171  27.602  14.059
75060W        W46676  25.967  38.127  12.357
75061W        W46677  16.512  41.081   3.573
75062W        W46678  24.034  19.357  10.925
75063W        W46679  43.881   5.685   4.874
75064W        W46680   2.310  28.394  12.829
75065W        W46681  19.627  33.302  11.573
75066W        W46682   3.403  17.599  10.486
75067W        W46683  26.706  18.314   2.373
75068W        W46684  27.581  34.111   3.611
75069W        W46685  35.461  28.986  11.791
75070W        W46686  14.244  22.301  12.403
75071W        W46687  18.557  42.861  13.883
75072W        W46688  12.124   7.256  11.101
75073W        W46689  41.977  38.907   5.032
75074W        W46690   9.802   7.635   1.344
75075W        W46691  25.447  20.115  11.649
75076W        W46692  40.262  34.061  12.016
75077W        W46693   4.121  31.531   2.346
75078W        W46694  34.959  23.493   3.776
75079W        W46695   9.388   1.139   4.201
75080W        W46696  26.011  27.702  13.971
75081W        W46697  17.804  22.272  14.580
75082W        W46698  31.957  28.502  12.804
75083W        W46699  37.466  17.841  12.539
75084W        W46700   6.928  33.746   3.257
75085W        W46701  19.284  17.912  12.696
75086W        W46702  38.514  16.903   4.091
75087W        W46703  25.212   6.840   3.344
75088W        W46704  15.238  34.628  14.425
75089W        W46705   6.931  41.450   1.049
75090W        W46706  42.780   5.038  12.822
75091W        W46707  25.677  43.298  11.461
75092W        W46708  35.299  16.313   4.902
75093W        W46709   7.941  37.952   4.049
75094W        W46710  11.317   4.219  13.403
75095W        W46711  19.274  30.366  14.352
75096W        W46712   6.270  29.218  11.540
75097W        W46713  40.251  10.857  14.792
75098W        W46714  33.496  37.133   1.730
75099W        W46715  25.238  16.819  13.495
75100W        W46716  16.459   7.943  14.464
75101W        W46717   9.556  13.385  12.051
75102W        W46718  20.185  42.958  12.721
75103W        W46719  14.329  38.434   4.184
75104W        W46720  26.850  16.749   5.005
75105W        W46721  37.585  22.102   1.756
75106W        W46722   0.459   0.253  12.844
75107W        W46723  14.765  13.361  14.235
75108W        W46724  43.766  15.862   0.978
75109W        W46725  32.137  10.242   0.348
75110W        W46726  44.473  14.194  13.414
75111W        W46727   7.647  44.485  12.051
75112W        W46728  11.051  43.986   3.268
75113W        W46729  29.895  28.227  14.056
75114W        W46730  10.872  43.034  12.401
75115W        W46731   2.180  16.672  14.485
75116W        W46732   9.870  38.444   3.388
75117W        W46733  17.581   3.688   4.813
75118W        W46734  15.415  12.239   2.878
75119W        W46735   7.155   7.108  10.663
75120W        W46736  16.555   9.733   0.086
75121W        W46737  12.393   0.375  13.563
75122W        W46738   1.943  42.610  11.087
75123W        W46739   0.418  13.266   1.336
75124W        W46740  22.528  10.078  13.512
75125W        W46741  24.291  19.302   4.761
75126W        W46742  33.222  18.706   1.658
75127W        W46743   2.596  25.280   2.777
75128W        W46744  30.860   1.443  12.918
75129W        W46745  26.905  29.573  12.485
75130W        W46746  39.430  37.105   0.990
75131W        W46747   8.228  32.098  13.064
75132W        W46748  38.506   7.237  14.781
75133W        W46749  10.000  18.067  10.324
75134W        W46750  28.561  39.660  13.435
75135W        W46751  44.118  12.274   4.395
75136W        W46752  24.532  31.891   4.890
75137W        W46753  41.501  31.260  13.920
75138W        W46754   2.398  42.499   3.383
75139W        W46755  11.230   5.901   4.907
75140W        W46756  20.682  30.111  10.642
75141W        W46757   4.640  32.738  14.334
75142W        W46758  22.211  30.171   2.283
75143W        W46759  17.164   3.965  14.597
75144W        W46760  19.582  43.854   4.218
75145W        W46761   8.853   3.852   2.597
75146W        W46762  18.152  33.076  11.598
75147W        W46763  19.449  13.716   0.425
75148W        W46764   8.659  19.162   1.310
75149W        W46765   7.220  40.523   3.137
75150W        W46766  24.897   9.703   4.343
75151W        W46767  19.027  11.829  11.582
75152W        W46768  13.553  44.125  12.152
75153W        W46769  29.609  17.019   2.697
75154W        W46770   2.322  42.506   4.191
75155W        W46771   1.739  12.779   4.296
75156W        W46772  20.939  27.855  14.296
75157W        W46773   5.243  13.847   0.285
75158W        W46774  34.555  11.638   1.821
75159W        W46775  14.977   1.938   4.885
75160W        W46776  16.308   6.788   2.111
75161W        W46777  31.108   3.286  11.402
75162W        W46778  40.455  42.563  14.536
75163W        W46779  32.484  13.224   0.344
75164W        W46780   3.020  14.870   4.878
75165W        W46781  17.044   7.451   0.264
75166W        W46782  13.777  35.700   3.455
75167W        W46783  21.071  32.433  12.882
75168W        W46784  21.980  10.158  14.399
75169W        W46785  27.158  26.351  13.012
75170W        W46786  22.492   0.800   1.725
75171W        W46787  19.773   5.136   4.453
75172W        W46788  34.854  29.676  12.957
75173W        W46789  20.121  42.665  10.988
75174W        W46790  32.941   5.152   3.631
75175W        W46791   6.098  20.504   4.108
75176W        W46792   4.480   2.276   0.945
75177W        W46793   0.572  35.900   5.454
75178W        W46794   6.498  12.615   3.690
75179W        W46795   3.208  31.160   0.151
75180W        W46796  12.673   9.861  11.610
75181W        W46797   3.901  20.516  13.432
75182W        W46798   3.825  20.121  10.606
75183W        W46799  24.539  10.377   0.451
75184W        W46800  15.108   9.900   4.539
75185W        W46801  32.521  16.893  12.492
75186W        W46802   2.202  11.300  14.528
75187W        W46803  10.056  19.174  14.765
75188W        W46804  40.886  22.223  12.356
75189W        W46805  28.973   9.172  11.146
75190W        W46806  37.636   7.737   2.268
75191W        W46807  13.603  24.900   0.460
75192W        W46808  16.027   3.480  12.501
75193W        W46809   0.383  19.527  14.559
75194W        W46810   6.637  43.752   2.259
75195W        W46811  21.944  18.617  14.794
75196W        W46812  30.392   0.473   1.777
75197W        W46813   9.145  37.155  13.669
75198W        W46814  44.120  27.129  14.669
75199W        W46815  37.988   4.712   1.848
75200W        W46816  43.763  39.279   1.319
75201W        W46817  12.392  37.450   0.842
75202W        W46818  28.401  18.650   0.383
75203W        W46819   5.489  28.736  11.714
75204W        W46820  43.289  39.340   3.303
75205W        W46821  40.196  16.697  13.028
75206W        W46822  31.136  36.468   1.668
75207W        W46823  34.640  15.153  10.481
75208W        W46824  11.884   8.879  12.112
75209W        W46825  29.980   5.479   1.327
75210W        W46826  18.695  21.808   3.850
75211W        W46827  21.549  11.286   2.307
75212W        W46828  27.680  20.066  12.025
75213W        W46829  11.882  28.974  12.427
75214W        W46830  17.693  18.120   5.483
75215W        W46831  17.538   7.398  10.743
75216W        W46832  30.081  21.130  14.989
75217W        W46833  12.305   4.554  11.415
75218W        W46834   1.257   4.342  10.619
75219W        W46835  26.123  34.963  13.757
75220W        W46836  31.656   3.287   2.383
75221W        W46837  32.855   7.361   2.186
75222W        W46838  20.837  23.361  13.921
75223W        W46839  30.783   3.691  12.196
75224W        W46840   6.223  14.219   0.702
75225W        W46841   0.833  10.354  14.733
75226W        W46842  39.482  12.286   3.151
75227W        W46843   2.025   4.182   0.702
75228W        W46844  33.346   9.851  10.297
75229W        W46845   2.866  27.667  13.037
75230W        W46846   2.631  24.908   5.429
75231W        W46847  11.375  29.861   3.269
75232W        W46848  17.069  26.701   2.759
75233W        W46849  19.696  10.094  14.171
75234W        W46850  13.354   5.208   2.358
75235W        W46851  22.344   5.666   0.860
75236W        W46852  11.825  34.746   1.724
75237W        W46853  37.574  15.777   1.244
75238W        W46854  17.604  14.263  13.534
75239W        W46855  14.135   8.332  13.022
75240W        W46856  11.209  14.702   2.109
75241W        W46857   3.282  10.227   0.206
75242W        W46858  25.794  41.636   4.574
75243W        W46859  23.088  26.099   4.707
75244W        W46860   2.009  23.209   1.839
75245W        W46861  26.458  19.750   4.121
75246W        W46862  25.544  40.645   4.505
75247W        W46863  16.862  15.316   1.579
75248W        W46864  37.374  37.146   3.365
75249W        W46865   9.170  23.048  13.579
75250W        W46866   6.848  16.917   0.125
75251W        W46867  17.072  12.723   2.328
75252W        W46868   1.675  12.670  11.548
75253W        W46869   2.767   6.042  14.685
75254W        W46870  42.002   5.863   2.760
75255W        W46871  11.114  21.980   0.528
75256W        W46872   7.435   3.871   1.125
75257W        W46873   7.447   8.290   4.056
75258W        W46874   3.768  17.442  14.280
75259W        W46875  31.213  15.072  14.379
75260W        W46876   5.396  23.281  14.849
75261W        W46877  31.214  39.417   2.683
75262W        W46878  26.197  18.045  14.783
75263W        W46879  39.472  20.482  12.219
75264W        W46880  20.114  23.318   0.435
75265W        W46881  30.384  36.427  14.508
75266W        W46882   8.910  35.410   1.987
75267W        W46883  44.789  13.695  10.685
75268W        W46884  22.636   5.807  14.529
75269W        W46885  44.102  42.554  11.163
75270W        W46886  25.681  24.774  11.226
75271W        W46887  12.881  14.008   0.309
75272W        W46888  15.788  10.593   0.438
75273W        W46889  38.521   6.445   0.474
75274W        W46890  16.896  23.974   0.359
75275W        W46891   1.538  43.534   5.084
75276W        W46892   0.325   9.752  10.627
75277W        W46893  32.393  44.083  13.460
75278W        W46894  31.646  13.755   1.303
75279W        W46895  26.300  12.775  11.189
75280W        W46896  41.058   5.862  12.816
75281W        W46897  39.415  11.421   0.502
75282W        W46898   9.442  19.120   0.794
75283W        W46899  35.495  28.189   1.813
75284W        W46900  30.556   0.703   3.203
75285W        W46901  26.322  34.485   5.076
75286W        W46902   1.446  42.432  12.550
75287W        W46903  12.296  34.938   3.735
75288W        W46904  32.925  28.007   1.391
75289W        W46905  40.064  43.267   1.290
75290W        W46906   9.410  16.303  13.454
75291W        W46907  32.035   9.612  13.093
75292W        W46908  17.698  15.596  13.169
75293W        W46909  21.402  23.591   1.707
75294W        W46910   3.897  15.065  11.995
75295W        W46911   1.904  32.909  13.504
75296W        W46912  28.549  21.307   0.456
75297W        W46913   2.834  44.355   5.001
75298W        W46914  23.132  21.457  12.919
75299W        W46915  38.085   4.001   2.167
75300W        W46916  40.405  39.552  14.347
75301W        W46917  11.314  33.405  10.369
75302W        W46918   2.960   9.208  12.914
75303W        W46919  23.911  29.949  11.924
75304W        W46920  28.994  22.007   3.514
75305W        W46921  21.598  44.016  11.184
75306W        W46922  31.577  34.087  12.689
75307W        W46923  39.852  31.939  12.153
75308W        W46924  35.331   3.867  13.497
75309W        W46925  27.573  31.708   4.643
75310W        W46926  25.334  40.356   1.249
75311W        W46927   6.806  37.852  10.641
75312W        W46928  36.301   9.235  12.765
75313W        W46929   1.996  19.743  11.496
75314W        W46930  19.801  13.936  11.515
75315W        W46931  20.383  12.938   4.951
75316W        W46932  18.601  31.401  12.533
75317W        W46933  23.442  23.059   3.614
75318W        W46934  31.425  10.711   0.490
75319W        W46935  30.029  19.539   4.092
75320W        W46936  11.643  25.229   3.168
75321W        W46937  12.691  23.605   1.376
75322W        W46938   5.810  10.676   3.207
75323W        W46939  40.158  41.440   1.250
75324W        W46940  28.621  14.020   5.012
75325W        W46941  40.887   0.507  14.276
75326W        W46942   3.407   1.679  14.000
75327W        W46943   2.551  17.693  13.132
75328W        W46944   5.795  25.723   0.030
75329W        W46945  43.770  16.647  13.880
75330W        W46946  30.659  42.993   3.649
75331W        W46947  32.724  25.054  11.288
75332W        W46948  21.755  20.322  13.569
75333W        W46949  19.243  28.098   1.315
75334W        W46950  44.105  21.240   0.431
75335W        W46951  31.915   9.503  12.566
75336W        W46952  44.844   9.102  14.343
75337W        W46953   2.373  42.337  12.416
75338W        W46954  17.349  38.894  10.804
75339W        W46955   9.147   7.624   1.672
75340W        W46956  41.510  17.124   3.179
75341W        W46957   0.433  32.596  12.933
75342W        W46958  11.904   3.209  13.536
75343W        W46959   2.331  26.500  14.539
75344W        W46960   4.895   8.941  12.632
75345W        W46961   6.870  34.235   3.873
75346W        W46962  42.537  17.728   2.718
75347W        W46963  31.561  34.702   1.548
75348W        W46964  19.166  28.568   4.685
75349W        W46965  23.753  40.061  11.386
75350W        W46966  24.950  27.542   3.792
75351W        W46967  32.577  44.904  12.971
75352W        W46968  22.734   0.398  11.611
75353W        W46969   2.829  32.470   3.084
75354W        W46970  17.620  34.163  13.406
75355W        W46971  35.379   0.207   4.704
75356W        W46972  24.013  14.355  11.966
75357W        W46973  10.130  20.072  14.291
75358W        W46974  38.525  18.830  13.899
75359W        W46975  29.514  30.092  12.863
75360W        W46976  24.769  28.563  13.904
75361W        W46977  24.681  30.542   2.789
75362W        W46978  43.274  44.563   3.268
75363W        W46979  15.484  38.765   1.897
75364W        W46980  42.494  11.233  13.135
75365W        W46981   7.936  23.664   4.108
75366W        W46982  35.963  39.673   1.471
75367W        W46983  31.061  12.329  14.059
75368W        W46984  36.471   4.031  13.357
75369W        W46985  28.593  20.473   1.720
75370W        W46986  35.619  15.248   1.848
75371W        W46987  11.713  20.014  14.565
75372W        W46988  25.508  31.440  12.830
75373W        W46989  24.070  24.822  14.928
75374W        W46990  21.984  18.671   4.549
75375W        W46991  44.984  44.286   3.217
75376W        W46992  20.141  32.755  10.453
75377W        W46993  10.873  23.737  14.018
75378W        W46994   9.106  26.537  14.992
75379W        W46995  39.980  23.742   2.794
75380W        W46996   4.974  38.311  11.557
75381W        W46997  14.602   7.091  12.027
75382W        W46998   5.258  27.468   3.284
75383W        W46999   9.431   6.222  12.613
75384W        W47000  37.507   9.879   4.202
75385W        W47001  18.678  33.569   3.374
75386W        W47002  42.312  42.726   1.906
75387W        W47003  38.710  43.203   3.358
75388W        W47004  32.543  14.281   0.394
75389W        W47005  31.189   8.710  10.248
75390W        W47006  33.458  25.084  12.131
75391W        W47007  18.667  44.883  11.100
75392W        W47008  25.495  43.552  11.033
75393W        W47009   1.265  21.644   3.221
75394W        W47010   5.371  34.163  10.840
75395W        W47011  12.251   5.817  13.719
75396W        W47012  22.764  18.240   1.490
75397W        W47013  35.129  36.517   0.368
75398W        W47014  34.601  13.646   4.426
75399W        W47015  32.400  24.005   0.349
75400W        W47016  44.154  42.749   4.386
75401W        W47017  38.509  38.519  13.933
75402W        W47018  34.082   3.904   3.251
75403W        W47019  19.697  21.956  10.532
75404W        W47020  25.187  10.876  13.504
75405W        W47021  10.434  36.654  11.170
75406W        W47022  44.997   2.227  13.867
75407W        W47023  23.261  15.242  11.939
75408W        W47024  35.122  31.151   3.150
75409W        W47025  11.458   7.916  12.893
75410W        W47026  14.665   1.743  14.509
75411W        W47027   1.968  25.746  10.971
75412W        W47028  16.683  25.742   4.661
75413W        W47029  12.573   6.779   1.653
75414W        W47030  25.950  23.471  13.311
75415W        W47031  11.588  44.687   2.093
75416W        W47032  40.244  19.159   4.603
75417W        W47033  20.606  42.473  11.609
75418W        W47034  32.339  34.067  10.765
75419W        W47035   8.835  15.297  11.713
75420W        W47036  21.049  13.094   4.286
75421W        W47037  29.190  38.977   0.426
75422W        W47038   5.865  19.178  10.771
75423W        W47039  37.327  44.476   3.847
75424W        W47040   7.126  42.448   0.703
75425W        W47041  28.650  11.055   3.592
75426W        W47042  31.971  11.787   2.903
75427W        W47043  37.594  31.450   0.248
75428W        W47044  42.976  14.665   4.506
75429W        W47045  37.826  11.292   3.135
75430W        W47046  10.448  39.343  14.818
75431W        W47047  41.207  33.555   0.053
75432W        W47048  19.581  36.345  11.388
75433W        W47049  16.615  28.888   4.577
75434W        W47050   6.910  40.875   2.916
75435W        W47051  22.038  36.734  12.458
75436W        W47052  42.375  29.364   0.386
75437W        W47053   0.050  25.743  14.668
75438W        W47054   8.938  15.144  12.191
75439W        W47055  32.139   4.627   4.263
75440W        W47056  39.369  20.908   2.321
75441W        W47057  35.191  41.554  10.340
75442W        W47058  12.414  25.092   3.674
75443W        W47059   2.707  11.211  14.580
75444W        W47060  15.477  37.717   1.744
75445W        W47061  33.566  11.653  13.578
75446W        W47062  36.870   0.036  14.321
75447W        W47063   6.439  31.118  12.883
75448W        W47064  36.834  34.480   5.079
75449W        W47065  20.742  24.719   3.414
75450W        W47066  40.856  25.069  11.078
75451W        W47067   2.495  26.282   0.016
75452W        W47068  30.639  37.072  12.537
75453W        W47069  31.953  28.016   4.065
75454W        W47070  17.755  31.255   0.354
75455W        W47071  38.285  14.571  11.480
75456W        W47072  12.653  37.573  11.171
75457W        W47073  17.281   6.147  14.959
75458W        W47074  15.019  13.572  10.581
75459W        W47075  38.958  18.732   3.659
75460W        W47076  22.837  19.691  12.985
75461W        W47077  29.441  41.953   2.307
75462W        W47078  19.747  36.832  12.882
75463W        W47079  37.396  13.647   3.107
75464W        W47080  34.219  41.417  14.589
75465W        W47081  10.676  40.856   3.883
75466W        W47082  18.083  37.062  11.591
75467W        W47083  12.403   4.197  10.598
75468W        W47084   1.658  30.206   4.353
75469W        W47085  39.297  33.890   4.668
75470W        W47086  37.482  34.374  10.700
75471W        W47087  43.547  39.938  11.724
75472W        W47088  31.068   5.821   0.265
75473W        W47089   3.296  13.404   5.194
75474W        W47090  27.060  13.240   4.288
75475W        W47091  26.468   0.422   2.686
75476W        W47092  42.758  23.075  14.446
75477W        W47093  11.089  31.848  14.890
75478W        W47094  15.545  10.902   2.449
75479W        W47095  12.079  35.110  14.100
75480W        W47096  18.999  14.098   4.122
75481W        W47097  21.534  12.820  14.024
75482W        W47098  10.938  35.908   0.130
75483W        W47099  29.931   8.160  12.029
75484W        W47100   0.521   7.284   4.650
75485W        W47101  27.697   9.924  11.371
75486W        W47102  21.552  29.421  14.470
75487W        W47103  13.460  10.251   4.911
75488W        W47104   4.481  13.761  14.763
75489W        W47105  44.932  22.010  11.503
75490W        W47106   8.996   3.925  14.074
75491W        W47107  33.961  39.452   4.252
75492W        W47108  28.022  26.690   2.300
75493W        W47109  33.005  17.530   3.162
75494W        W47110  37.607   5.898  12.381
75495W        W47111  31.069  25.431   0.341
75496W        W47112  20.742  21.148   5.169
75497W        W47113  44.335  25.061   2.767
75498W        W47114   0.156  21.967   5.486
75499W        W47115   1.216  24.916   4.891
75500W        W47116  19.559   1.951  14.487
75501W        W47117   2.294  19.733   0.993
75502W        W47118  34.934  12.279  14.208
75503W        W47119   1.350  30.183   0.308
75504W        W47120  30.162  39.533   3.265
75505W        W47121  16.545   5.974   4.138
75506W        W47122  30.738  32.991   3.179
75507W        W47123  41.346  15.935   4.112
75508W        W47124   7.174  30.655  14.881
75509W        W47125   0.496   9.112   2.237
75510W        W47126  36.911  33.864   0.289
75511W        W47127   2.869  41.794  11.467
75512W        W47128  10.712   6.794   4.688
75513W        W47129  35.078   0.280   0.974
75514W        W47130  10.099  41.928   2.658
75515W        W47131  28.963   5.626  12.041
75516W        W47132  41.683  13.085  12.997
75517W        W47133  34.425  13.748   3.414
75518W        W47134   0.731  29.281  14.480
75519W        W47135  34.097   9.341   0.438
75520W        W47136  40.213  25.154  14.328
75521W        W47137   8.486  30.445  12.717
75522W        W47138  42.492  15.727  13.939
75523W        W47139   2.314  42.101   1.844
75524W        W47140  35.438  29.983  13.855
75525W        W47141  30.080  41.787   1.993
75526W        W47142  28.956  44.357   3.424
75527W        W47143   6.303  25.230  13.905
75528W        W47144  22.610  33.506  10.254
75529W        W47145  25.043  27.222   0.783
75530W        W47146  33.603  17.689   4.240
75531W        W47147  28.537   2.937   2.929
75532W        W47148   1.933  37.657  12.137
75533W        W47149   1.735  16.751   4.673
75534W        W47150  36.086  10.120   4.222
75535W        W47151  42.310  31.008  12.528
75536W        W47152  22.049   1.873   0.316
75537W        W47153  26.652  16.735  12.047
75538W        W47154  23.551  37.893  11.155
75539W        W47155  29.398   9.826  10.752
75540W        W47156  12.094  23.302   3.162
75541W        W47157   6.402  40.050   1.364
75542W        W47158  41.879  37.914   1.023
75543W        W47159  27.688  23.072   1.842
75544W        W47160  44.018  16.349   2.738
75545W        W47161  15.617  28.119   4.133
75546W        W47162  26.610  20.038   3.665
75547W        W47163  11.893   9.579   0.786
75548W        W47164  23.227   2.970  14.848
75549W        W47165  15.037   0.204  11.996
75550W        W47166   4.191  22.044   1.955
75551W        W47167  28.153  32.601  11.721
75552W        W47168  24.124  15.240  13.891
75553W        W47169  42.044  20.042  12.517
75554W        W47170  19.145   5.816   1.724
75555W        W47171   7.457  28.246  13.089
75556W        W47172  26.916  34.967   1.060
75557W        W47173  38.147  36.019  12.412
75558W        W47174   8.293  31.337   3.197
75559W        W47175   0.354  13.752   4.594
75560W        W47176  28.956  19.738   2.740
75561W        W47177  23.760  18.575   0.370
75562W        W47178  12.171   0.041   0.423
75563W        W47179   9.267  41.328  14.811
75564W        W47180  14.753   1.904  12.100
75565W        W47181  33.617  10.419   1.194
75566W        W47182  11.430   7.651  13.361
75567W        W47183  41.661  41.303   4.212
75568W        W47184  18.753   5.790   3.987
75569W        W47185  26.046  31.558   0.023
75570W        W47186  38.500   7.963  10.707
75571W        W47187  41.365   7.670  14.402
75572W        W47188   4.290  38.554   0.764
75573W        W47189  22.809  23.588  14.272
75574W        W47190  23.940  21.600  14.872
75575W        W47191  33.063  25.789  13.295
75576W        W47192  17.232  41.951  12.197
75577W        W47193  40.605  39.885  11.699
75578W        W47194  26.478   4.572  11.570
75579W        W47195  26.108  27.877   4.335
75580W        W47196  32.460  42.267   2.243
75581W        W47197  12.196  29.384  12.925
75582W        W47198  12.077  12.154  13.718
75583W        W47199  17.801  17.680   5.751
75584W        W47200  35.986  38.438  14.281
75585W        W47201  39.389  28.599   2.232
75586W        W47202   5.756  34.094  13.826
75587W        W47203  29.022   4.333  13.192
75588W        W47204   1.905  15.476  13.835
75589W        W47205  34.213  33.200   2.143
75590W        W47206  40.783  11.716  10.454
75591W        W47207  20.989  43.048   3.612
75592W        W47208  22.498  40.264  13.897
75593W        W47209   3.091  38.506   3.261
75594W        W47210  12.936  38.367  13.006
75595W        W47211  35.154   9.627  12.236
75596W        W47212   2.936   5.798   4.695
75597W        W47213  25.747  42.879  13.039
75598W        W47214  43.719   1.544  11.578
75599W        W47215   1.177  29.874  11.654
75600W        W47216  20.550  41.806  11.187
75601W        W47217  40.342  16.269  14.062
75602W        W47218  35.617  20.550  14.978
75603W        W47219  31.310  23.282   0.299
75604W        W47220  37.764   5.756   4.555
75605W        W47221  23.498  16.047  14.824
75606W        W47222  21.013  29.046   3.083
75607W        W47223  31.112  16.666   0.090
75608W        W47224  13.775   3.373   2.292
75609W        W47225  37.820  18.724  12.054
75610W        W47226  32.519  35.609   2.948
75611W        W47227  36.460  39.267  13.964
75612W        W47228  11.103  32.911  11.676
75613W        W47229  38.538  42.976  10.676
75614W        W47230  14.187  40.016  13.470
75615W        W47231   0.233   8.754  10.732
75616W        W47232   3.732  20.141   4.244
75617W        W47233  36.941  26.068  11.747
75618W        W47234  27.855   6.016  11.878
75619W        W47235  11.366  16.326  13.764
75620W        W47236  13.594  13.275  14.889
75621W        W47237  38.170  26.500  11.962
75622W        W47238  44.147  21.016  11.163
75623W        W47239  17.145  15.876   9.889
75624W        W47240  14.662  16.987   1.458
75625W        W47241  38.395  17.630   4.889
75626W        W47242  23.748  10.615   1.930
75627W        W47243   7.861  18.745  12.606
75628W        W47244  35.906   8.286  14.524
75629W        W47245   8.651  38.729   1.941
75630W        W47246  27.858  36.911   1.909
75631W        W47247  11.765  15.738   1.257
75632W        W47248  25.529  14.584   1.831
75633W        W47249   9.142   0.680   4.182
75634W        W47250   1.316  24.987   0.754
75635W        W47251   4.453  22.165  14.065
75636W        W47252  24.876  35.102  11.945
75637W        W47253   3.731  31.144   0.315
75638W        W47254  31.965  17.305  11.985
75639W        W47255  40.681  24.111  10.780
75640W        W47256  44.504  34.044   1.651
75641W        W47257   9.386  37.428  14.216
75642W        W47258   7.292  34.906   1.189
75643W        W47259  44.889  40.968  14.958
75644W        W47260  39.156  23.927  11.902
75645W        W47261  42.582  26.769   0.985
75646W        W47262  30.638  13.382   4.309
75647W        W47263  31.724  14.942  11.187
75648W        W47264  11.262  10.735   0.309
75649W        W47265  34.988  15.607  12.051
75650W        W47266  20.063   7.218  11.464
75651W        W47267  24.020   4.446  14.277
75652W        W47268  37.104   9.142   2.313
75653W        W47269   9.278  17.810   4.560
75654W        W47270  21.469  33.961  11.620
75655W        W47271  11.106  27.702  11.410
75656W        W47272  20.911  37.150  13.498
75657W        W47273  34.416  36.914   0.933
75658W        W47274   7.213  36.617   3.333
75659W        W47275   6.376  26.259   1.090
75660W        W47276  33.291   2.233  13.468
75661W        W47277   3.506  38.000   2.195
75662W        W47278  34.937   3.300  11.936
75663W        W47279  22.738   2.687  11.218
75664W        W47280  18.150   8.450   1.311
75665W        W47281   3.710   2.277  10.979
75666W        W47282  33.826  20.623   1.702
75667W        W47283  44.716  13.117  13.563
75668W        W47284   6.807  24.579  10.724
75669W        W47285  25.465  28.974  14.387
75670W        W47286  35.755  17.694  11.573
75671W        W47287  11.286  17.086  12.757
75672W        W47288  38.376  31.910   1.795
75673W        W47289  30.136  16.723  12.651
75674W        W47290  13.201  33.676  14.469
75675W        W47291  17.820  28.187   0.266
75676W        W47292  30.935  25.969  11.019
75677W        W47293  18.541  38.013   2.331
75678W        W47294  36.322  15.826   1.712
75679W        W47295  15.614  19.198  10.652
75680W        W47296   8.452  28.000  10.494
75681W        W47297   0.052  11.781  12.656
75682W        W47298   4.654  27.193  10.042
75683W        W47299  18.351  18.075  14.476
75684W        W47300  44.984   6.163  12.210
75685W        W47301  13.241  25.099   4.181
75686W        W47302  36.529  23.270   4.303
75687W        W47303  14.735  37.097  10.716
75688W        W47304  26.056  13.153   2.680
75689W        W47305  42.940  25.039   4.890
75690W        W47306  41.991  14.141   0.729
75691W        W47307   8.890  15.057   3.904
75692W        W47308  26.347   0.780  14.772
75693W        W47309   6.443  35.048   0.937
75694W        W47310  38.091  32.920  11.534
75695W        W47311  42.825  28.537   1.228
75696W        W47312  22.185  15.320  13.515
75697W        W47313  32.344  17.193   0.474
75698W        W47314   6.607  28.347   0.241
75699W        W47315  44.757  26.609   2.830
75700W        W47316  41.528   1.511   4.803
75701W        W47317  10.288  20.216  12.403
75702W        W47318  13.591   7.649   2.434
75703W        W47319  13.039  33.910  14.910
75704W        W47320  32.121  35.858  11.129
75705W        W47321  15.813   2.634  12.081
75706W        W47322  42.854  36.945   3.588
75707W        W47323   4.848  20.703   1.368
75708W        W47324  19.136  16.318  10.818
75709W        W47325  22.573  15.686   0.560
75710W        W47326  31.037  26.047   1.908
75711W        W47327  32.447  13.394   1.245
75712W        W47328  40.979  26.935   1.883
75713W        W47329  30.090  31.182  12.682
75714W        W47330  10.869  24.090   1.628
75715W        W47331  28.104  25.151   2.063
75716W        W47332  18.048   0.601   1.743
75717W        W47333  21.619   7.423   0.336
75718W        W47334   4.461  31.923   3.765
75719W        W47335  17.939  36.318  11.967
75720W        W47336  32.612  31.855  14.906
75721W        W47337  44.318   9.856   1.400
75722W        W47338  19.881  31.167  12.097
75723W        W47339  10.188  20.114   0.761
75724W        W47340  38.983   2.758  11.554
75725W        W47341  15.422  19.734   1.689
75726W        W47342  38.793  11.567   5.067
75727W        W47343  13.179  20.613   0.052
75728W        W47344  37.375  17.518  12.916
75729W        W47345   2.138  42.015   4.278
75730W        W47346  28.018  30.156  13.324
75731W        W47347   5.385  24.409  11.028
75732W        W47348  27.627  24.619   2.614
75733W        W47349   8.226  28.953   3.119
75734W        W47350  34.966  20.578  13.418
75735W        W47351   0.850  23.263  12.812
75736W        W47352  21.996  21.122  14.360
75737W        W47353  21.969   8.873   3.172
75738W        W47354  35.170   5.525  10.811
75739W        W47355  10.867   4.296   1.368
75740W        W47356   5.617   4.027  12.250
75741W        W47357  30.649  44.005   2.680
75742W        W47358  16.098  32.882  10.423
75743W        W47359   5.618  30.964  11.091
75744W        W47360  10.624  10.655  12.719
75745W        W47361  38.504  33.581  13.908
75746W        W47362  22.700  15.510  10.610
75747W        W47363  32.643  19.309  12.612
75748W        W47364   8.232  32.398  11.659
75749W        W47365  14.275  29.701   2.689
75750W        W47366  21.151  15.715  13.797
75751W        W47367   0.210  40.428  11.878
75752W        W47368   7.227  22.501  11.577
75753W        W47369  19.793   5.687   2.393
75754W        W47370  31.791  12.187   1.450
75755W        W47371  37.088  29.111  12.524
75756W        W47372  10.879   2.263   0.339
75757W        W47373  30.472  16.069   1.773
75758W        W47374  33.349  15.655   5.139
75759W        W47375  15.780  30.410  14.899
75760W        W47376   4.121  35.070  13.825
75761W        W47377  29.217  41.290   3.832
75762W        W47378  19.838  37.813   1.271
75763W        W47379  40.989  27.132  11.842
75764W        W47380   5.979  10.792  11.974
75765W        W47381  20.429  16.698  14.456
75766W        W47382  44.970  27.846  11.305
75767W        W47383  15.168  38.736  11.198
75768W        W47384  15.432   3.995   9.938
75769W        W47385  37.856  43.491   4.224
75770W        W47386   7.699   3.465   2.750
75771W        W47387  38.500  36.999  12.367
75772W        W47388  22.626  31.913   4.650
75773W        W47389   9.763  28.766  14.692
75774W        W47390  38.589   3.772  13.787
75775W        W47391   4.708  38.269   0.747
75776W        W47392   8.616  24.299   2.782
75777W        W47393   7.449  20.710  10.815
75778W        W47394  11.808  29.953   4.253
75779W        W47395   9.293   4.934  13.885
75780W        W47396  24.151  34.647   3.770
75781W        W47397  28.629   0.381  14.604
75782W        W47398  27.948   6.241  11.242
75783W        W47399  13.746  20.326  14.527
75784W        W47400  30.924  10.910   1.269
75785W        W47401  15.886  23.527  14.649
75786W        W47402  21.523  21.114   3.224
75787W        W47403  19.978  39.933   3.239
75788W        W47404  20.525  15.288  10.041
75789W        W47405  26.844  38.049  13.464
75790W        W47406  13.132  44.839   2.265
75791W        W47407  14.834  38.000   1.049
75792W        W47408  20.777  33.026   3.224
75793W        W47409  14.620   7.924   3.196
75794W        W47410  31.882   8.237  11.144
75795W        W47411  37.542  11.627  12.028
75796W        W47412  22.963  27.535  14.537
75797W        W47413   4.886  32.112   2.355
75798W        W47414  20.252  26.238  12.037
75799W        W47415   4.288  34.561  13.866
75800W        W47416  39.547  31.222   2.302
75801W        W47417  39.028   4.454   2.204
75802W        W47418  23.523  29.022  14.281
75803W        W47419  13.743   1.559  14.472
75804W        W47420  19.551  37.762  12.921
75805W        W47421  23.083  10.723   3.872
75806W        W47422   6.950  39.833  12.935
75807W        W47423   2.708   2.049   2.167
75808W        W47424  25.085  30.498   1.982
75809W        W47425   6.938  25.020  14.081
75810W        W47426  44.372  39.802   4.648
75811W        W47427  35.455  10.819  12.243
75812W        W47428  27.484  27.220  13.582
75813W        W47429  36.725  11.714   5.148
75814W        W47430   6.248  12.652   0.448
75815W        W47431  30.649  24.673   2.728
75816W        W47432  44.982  10.108  13.511
75817W        W47433  42.429  26.690  14.447
75818W        W47434  34.889   7.294  14.445
75819W        W47435  13.803  44.324  13.960
75820W        W47436   1.960   6.402  11.221
75821W        W47437  38.705  12.353   2.807
75822W        W47438  40.823   8.959  13.567
75823W        W47439   2.668   8.211   1.421
75824W        W47440  39.575  44.518   4.257
75825W        W47441  33.437   0.967   1.193
75826W        W47442   4.805  27.428  13.487
75827W        W47443  38.066  34.601  13.342
75828W        W47444   4.727  26.256   0.732
75829W        W47445  37.947  15.486  14.584
75830W        W47446  23.059  26.246   1.496
75831W        W47447  28.786  23.567  12.040
75832W        W47448  44.689  42.487  12.893
75833W        W47449  23.092   2.472  14.042
75834W        W47450   0.884  39.017   3.368
75835W        W47451   8.302  25.918   4.905
75836W        W47452   1.443  43.878   1.596
75837W        W47453  27.912  10.321   3.556
75838W        W47454  28.583  19.919   0.843
75839W        W47455  17.177  31.932  14.043
75840W        W47456  38.888  39.792   4.466
75841W        W47457  15.019  41.432   4.200
75842W        W47458  19.307  33.615  14.108
75843W        W47459  16.735  20.380   0.972
75844W        W47460   5.342  30.860  11.522
75845W        W47461  35.644   8.227  11.494
75846W        W47462  13.792  19.303   0.788
75847W        W47463   3.989  21.735   0.489
75848W        W47464   3.970   5.897   0.307
75849W        W47465   0.812  42.043   2.708
75850W        W47466  38.599  20.303  12.488
75851W        W47467   4.543  33.984  11.123
75852W        W47468   4.776  40.980   3.403
75853W        W47469  42.365  38.452  14.340
75854W        W47470  22.512   3.823   0.115
75855W        W47471   0.261  17.328  14.450
75856W        W47472   2.312  33.108  12.337
75857W        W47473   9.264   4.989   0.883
75858W        W47474  42.765   6.653   4.252
75859W        W47475   8.244   7.817   0.266
75860W        W47476  25.516  39.558   3.779
75861W        W47477  23.282  31.048   0.739
75862W        W47478  18.610  14.868  13.609
75863W        W47479  25.295   9.825  14.398
75864W        W47480  39.821  41.365   2.401
75865W        W47481   5.542  39.930   2.804
75866W        W47482  42.024  38.085   5.522
75867W        W47483  14.757  26.776  14.273
75868W        W47484  41.858  26.875   0.415
75869W        W47485   5.688  10.219   1.516
75870W        W47486  14.765  43.896   3.721
75871W        W47487  12.556  27.950  11.077
75872W        W47488  27.701  24.052  12.632
75873W        W47489  21.327  44.837  12.540
75874W        W47490   8.716   1.878  11.646
75875W        W47491  26.462  18.593   4.669
75876W        W47492  43.434  13.339  12.100
75877W        W47493  22.074   7.709  12.606
75878W        W47494   5.694   2.913  14.551
75879W        W47495  37.306  40.842  14.930
75880W        W47496   2.829  17.732   0.843
75881W        W47497  27.461   9.355  14.083
75882W        W47498  42.741  23.199   1.814
75883W        W47499  39.418  27.252  13.593
75884W        W47500  39.542  43.406   2.261
75885W        W47501  37.360  34.424  14.899
75886W        W47502   4.224   1.184   3.281
75887W        W47503  14.094  16.344  10.722
75888W        W47504  18.843   7.402  14.762
75889W        W47505  22.261   6.973  13.063
75890W        W47506  35.061  35.922   4.149
75891W        W47507  21.674   8.743  12.432
75892W        W47508  17.046  23.242   2.790
75893W        W47509  22.738  26.716   3.572
75894W        W47510  23.520  17.631  13.519
75895W        W47511   1.756  43.989  13.297
75896W        W47512   9.132  34.115  10.789
75897W        W47513   1.931  40.530  14.720
75898W        W47514  31.517  20.587  12.995
75899W        W47515  21.819  11.658  11.096
75900W        W47516  26.806  38.822  14.922
75901W        W47517  16.697  18.620   5.074
75902W        W47518   1.976  40.026  14.835
75903W        W47519  44.876  14.686  13.752
75904W        W47520   5.961   7.340   0.071
75905W        W47521   4.414  41.980  12.773
75906W        W47522  44.693  19.994  13.494
75907W        W47523   0.810  33.764  11.157
75908W        W47524  38.370  31.843  11.086
75909W        W47525  44.282  11.828  13.099
75910W        W47526   9.970  22.466  12.521
75911W        W47527  14.000  26.566   4.564
75912W        W47528  34.136  19.224   3.681
75913W        W47529   8.292  12.301   3.476
75914W        W47530   8.313  24.440  12.460
75915W        W47531  26.016  24.684   1.264
75916W        W47532   2.242  38.306  13.996
75917W        W47533   7.842  31.705   1.921
75918W        W47534  34.157  21.054  12.539
75919W        W47535  34.064  43.712   3.667
75920W        W47536   6.354   5.004   1.509
75921W        W47537  22.996   0.112   4.663
75922W        W47538  25.743  43.116   0.904
75923W        W47539   9.326   3.312  10.365
75924W        W47540  33.067  29.153  14.292
75925W        W47541  24.790  32.927  14.386
75926W        W47542  23.464   9.391   3.365
75927W        W47543  30.401   5.447  13.336
75928W        W47544  27.872  43.789   1.821
75929W        W47545  15.133  15.070  13.968
75930W        W47546  44.746   8.891   2.325
75931W        W47547  29.115  39.422   3.344
75932W        W47548  30.672  42.707   1.429
75933W        W47549  37.481  28.099   4.150
75934W        W47550  28.671  17.596  12.557
75935W        W47551   8.434  34.489  11.962
75936W        W47552  20.987  18.455  14.043
75937W        W47553   3.356   6.587  12.105
75938W        W47554  19.160  41.041   0.774
75939W        W47555   8.448  25.925  12.579
75940W        W47556  22.114  42.671  13.343
75941W        W47557  22.000  42.680   1.785
75942W        W47558   8.597  22.481   3.214
75943W        W47559  25.096  33.964  13.551
75944W        W47560  44.950   1.762   3.241
75945W        W47561  42.081   8.219  13.289
75946W        W47562  43.246  18.457  12.412
75947W        W47563   8.785  44.069   4.623
75948W        W47564  33.448  42.786  13.051
75949W        W47565  38.339  30.427  11.457
75950W        W47566  42.567  39.865   0.846
75951W        W47567   2.794  17.192   2.723
75952W        W47568  44.973  43.081  14.252
75953W        W47569  12.314  21.001  11.071
75954W        W47570  33.030  39.548  14.018
75955W        W47571  13.394  24.403   3.223
75956W        W47572  15.289   4.902   3.686
75957W        W47573  40.526  18.080   4.062
75958W        W47574  13.792  27.929  11.528
75959W        W47575  16.549   8.357   4.418
75960W        W47576  21.656  14.090  14.869
75961W        W47577  39.969   9.775   3.132
75962W        W47578  38.511  17.131   1.741
75963W        W47579  15.514  39.343  12.865
75964W        W47580  18.232   7.497   4.813
75965W        W47581  25.083  21.735  12.514
75966W        W47582  37.302  39.091   0.303
75967W        W47583  40.047  44.245  14.266
75968W        W47584  41.444   6.870   1.762
75969W        W47585   7.279  12.921   4.098
75970W        W47586   0.058  26.896  14.914
75971W        W47587  37.377  30.803  13.488
75972W        W47588  16.073   6.356  11.144
75973W        W47589  11.646  10.900  13.463
75974W        W47590  16.076  40.039  11.493
75975W        W47591  40.237  18.735   1.368
75976W        W47592   3.435  25.684   4.106
75977W        W47593  22.989  22.266   2.591
75978W        W47594  13.891  17.288   9.811
75979W        W47595   5.935  25.702   3.418
75980W        W47596  41.961  15.257  14.701
75981W        W47597  19.612   4.911  13.466
75982W        W47598  44.148  13.398   0.935
75983W        W47599  31.033  30.148  11.697
75984W        W47600  41.044  36.098  12.975
75985W        W47601  30.513   5.319   4.581
75986W        W47602  36.866  42.891   4.891
75987W        W47603  37.402  24.551   0.473
75988W        W47604  43.900   9.559   1.328
75989W        W47605  15.284  44.879  14.985
75990W        W47606  23.801  13.417   0.432
75991W        W47607   0.203  44.006   3.616
75992W        W47608   0.902  31.903  11.256
75993W        W47609  41.753   2.135  11.243
75994W        W47610   5.421  34.629   2.918
75995W        W47611   4.519   3.348  14.887
75996W        W47612  43.812   8.858  12.508
75997W        W47613  36.814   7.261   4.655
75998W        W47614  22.668   8.951  14.221
75999W        W47615  21.167  16.204  11.461
76000W        W47616   8.935   5.463   1.286
76001W        W47617  41.733   4.703  11.226
76002W        W47618  22.722  15.365   0.924
76003W        W47619  32.383  39.114   1.342
76004W        W47620  10.350  18.987   2.036
76005W        W47621  27.355  17.680   0.300
76006W        W47622   8.198   1.545  13.985
76007W        W47623   2.743  29.211  13.025
76008W        W47624  15.046   2.057  11.103
76009W        W47625  24.791  41.151   1.777
76010W        W47626  12.871  13.265  14.300
76011W        W47627   1.222   5.466  12.925
76012W        W47628  13.657  17.760  12.937
76013W        W47629  39.324  38.342  12.781
76014W        W47630  22.813  16.611   2.692
76015W        W47631  26.383  37.401  13.020
76016W        W47632  42.826  41.610   3.648
76017W        W47633  26.949  39.930   2.426
76018W        W47634   5.248  28.238  13.530
76019W        W47635  31.614  29.981  13.125
76020W        W47636   1.724  11.154  12.055
76021W        W47637  14.799  18.572  12.129
76022W        W47638  32.877  16.830  12.014
76023W        W47639  32.497  19.185   4.246
76024W        W47640  44.576  43.446   3.784
76025W        W47641   4.812  23.429   2.191
76026W        W47642  25.233  30.529  13.352
76027W        W47643  43.279  30.850   0.736
76028W        W47644   6.627  31.112  11.165
76029W        W47645   4.221  26.648   0.410
76030W        W47646  10.075  29.447   0.357
76031W        W47647  32.854   0.158  12.617
76032W        W47648  12.919   6.194  11.872
76033W        W47649  32.696  16.212   2.045
76034W        W47650  21.539  21.050   2.323
76035W        W47651   5.810  15.044  11.555
76036W        W47652  19.380  16.774   2.711
76037W        W47653  16.791  12.161  14.891
76038W        W47654  33.424  34.493  11.731
76039W        W47655  41.230  40.397   1.382
76040W        W47656   0.687  21.117   9.576
76041W        W47657  29.338  13.396  11.601
76042W        W47658  25.196  39.457   1.372
76043W        W47659  10.063  25.597   3.636
76044W        W47660   6.235  34.052   4.923
76045W        W47661  20.199   9.864   3.715
76046W        W47662   7.909  36.545   4.100
76047W        W47663   2.782  24.023  13.397
76048W        W47664   3.239  23.067  14.354
76049W        W47665  14.345  17.569  13.393
76050W        W47666  39.928   0.956  12.143
76051W        W47667   5.383  23.326   0.737
76052W        W47668  24.749  16.313  12.501
76053W        W47669  12.985  14.543   0.372
76054W        W47670  29.547  15.118  11.193
76055W        W47671  31.614  23.497   4.618
76056W        W47672  18.351  44.483   4.104
76057W        W47673  15.448   4.789  12.477
76058W        W47674  13.302   7.297  14.271
76059W        W47675  10.144   1.742  14.914
76060W        W47676  43.316  30.566   2.174
76061W        W47677   2.425   2.988  13.513
76062W        W47678   0.893   0.579   1.876
76063W        W47679  31.983   0.992   2.339
76064W        W47680  37.565  23.820  10.563
76065W        W47681  34.465  34.990   4.086
76066W        W47682  18.616  26.424  12.432
76067W        W47683   1.391  44.022   3.123
76068W        W47684   7.195  39.958   0.846
76069W        W47685   9.372  31.011  14.473
76070W        W47686  14.586   8.420  11.614
76071W        W47687   2.951  14.816   0.451
76072W        W47688   6.673   8.319   0.337
76073W        W47689  31.454  41.950  10.670
76074W        W47690   4.401  41.438   0.439
76075W        W47691  44.236  39.355  10.295
76076W        W47692   1.808  43.772   4.258
76077W        W47693  33.393  26.179  12.606
76078W        W47694  17.645  29.968   4.536
76079W        W47695  23.596   4.753   2.694
76080W        W47696   4.418  36.330   3.293
76081W        W47697  11.596  12.873  13.473
76082W        W47698  37.333  34.173  11.141
76083W        W47699  23.676  17.470  14.461
76084W        W47700  16.646  33.887  11.176
76085W        W47701  43.286   3.298   3.021
76086W        W47702  41.288  30.998  10.698
76087W        W47703  10.069  42.932  12.412
76088W        W47704  21.583  27.229   4.149
76089W        W47705  23.466  44.950  11.301
76090W        W47706  37.825  23.423   1.414
76091W        W47707  20.610   0.732   1.747
76092W        W47708  24.947   1.507  10.345
76093W        W47709  38.974   4.323   1.704
76094W        W47710   1.048   3.983   0.942
76095W        W47711  22.448  43.316   1.950
76096W        W47712   0.086  23.182  14.387
76097W        W47713  22.505   3.432   0.822
76098W        W47714  32.548  29.337   1.269
76099W        W47715  40.460   9.280  10.761
76100W        W47716  12.264  23.621   2.304
76101W        W47717   3.526  20.031   3.002
76102W        W47718  22.710  39.488   4.100
76103W        W47719  29.679  35.595   2.356
76104W        W47720   1.847   4.835  12.865
76105W        W47721   8.064  35.091  12.573
76106W        W47722  22.702  18.323  10.948
76107W        W47723  22.647  41.550   2.354
76108W        W47724   5.464  23.614  12.924
76109W        W47725   6.350  21.803  13.999
76110W        W47726   3.017  44.875  11.573
76111W        W47727  21.082  10.442   5.056
76112W        W47728  22.533  34.501  10.443
76113W        W47729   5.538   1.943  10.773
76114W        W47730  11.562   5.872   3.546
76115W        W47731  38.199  31.781  13.940
76116W        W47732   2.378  25.247   1.827
76117W        W47733  26.060  37.351   4.646
76118W        W47734  23.686  38.528   3.658
76119W        W47735  37.134  39.896   3.555
76120W        W47736   0.199  16.291  11.162
76121W        W47737   8.463  12.373  13.922
76122W        W47738  31.025  22.077   2.579
76123W        W47739  27.649  37.242  12.543
76124W        W47740  27.163  35.051  12.388
76125W        W47741   8.184  43.960  13.569
76126W        W47742  25.645  19.407   2.840
76127W        W47743  17.527  24.137  12.465
76128W        W47744   9.486  27.493   3.222
76129W        W47745   6.035  26.768  10.412
76130W        W47746  22.036  40.485   0.818
76131W        W47747   2.869  40.378  13.378
76132W        W47748  26.663  19.140  13.551
76133W        W47749   4.762   0.867  11.099
76134W        W47750   2.945  27.731  12.122
76135W        W47751  21.058  22.434   0.368
76136W        W47752  25.993  34.662  11.503
76137W        W47753  39.468  23.859   0.489
76138W        W47754  26.669   9.328   4.823
76139W        W47755  27.707  36.326   3.230
76140W        W47756  38.095   2.133  11.029
76141W        W47757  36.887   4.504  14.766
76142W        W47758  43.061  32.121   0.602
76143W        W47759  14.831   9.295  13.886
76144W        W47760  34.405  31.424   3.194
76145W        W47761  10.637   3.229   0.531
76146W        W47762  25.738  40.861  10.650
76147W        W47763  11.824  29.150   3.074
76148W        W47764  32.376  27.977  10.007
76149W        W47765  22.974  14.330   4.188
76150W        W47766  32.534  35.021   1.418
76151W        W47767  37.533  29.170  13.936
76152W        W47768  17.510  24.643  12.148
76153W        W47769  32.084  11.876  12.248
76154W        W47770  23.754  42.838  12.036
76155W        W47771  14.622   4.769   4.181
76156W        W47772  25.334   8.227  13.124
76157W        W47773   3.877  37.793   3.579
76158W        W47774  20.946  20.170   2.350
76159W        W47775  36.900  42.571  14.796
76160W        W47776  41.460  27.144  10.704
76161W        W47777  19.981  41.968  13.362
76162W        W47778  10.328  10.971   1.295
76163W        W47779  15.803  21.128  13.442
76164W        W47780  22.181  41.948  10.801
76165W        W47781  31.564  19.616  12.940
76166W        W47782  25.340  41.217   2.387
76167W        W47783  31.690  34.423  11.518
76168W        W47784   7.498  27.268  13.943
76169W        W47785  27.620  39.333  12.599
76170W        W47786  36.762  20.541  12.980
76171W        W47787  35.949  17.006  12.594
76172W        W47788  23.484  43.051  12.426
76173W        W47789  41.757  30.838  10.358
76174W        W47790  19.106  22.019   4.084
76175W        W47791   7.277  13.167  13.056
76176W        W47792  19.276  23.052   0.085
76177W        W47793  44.567   7.739  14.370
76178W        W47794  21.790   3.691   0.924
76179W        W47795  37.915  20.207   0.733
76180W        W47796  42.266  44.298   3.292
76181W        W47797  43.274  13.582  14.802
76182W        W47798  38.293  30.854  11.174
76183W        W47799   0.652  14.826   0.878
76184W        W47800   0.614  40.254  13.958
76185W        W47801  19.261  42.691   3.709
76186W        W47802  19.200  23.927   1.451
76187W        W47803  40.084  14.715   0.399
76188W        W47804  10.150  13.547   3.172
76189W        W47805   6.058  39.463  11.760
76190W        W47806   6.309   7.834   3.347
76191W        W47807  30.108   9.628  12.825
76192W        W47808  14.196   1.048  13.965
76193W        W47809  42.217   2.525   1.423
76194W        W47810  35.287  33.629   3.680
76195W        W47811   9.050  31.400  14.559
76196W        W47812  21.973   8.265  14.509
76197W        W47813  42.476   0.271  14.560
76198W        W47814  33.966   0.450  12.405
76199W        W47815  12.082  13.241  11.970
76200W        W47816   1.005   0.438  11.234
76201W        W47817  38.730  16.215  11.513
76202W        W47818   9.985  41.847  12.523
76203W        W47819  16.660  10.678  10.908
76204W        W47820  44.651  27.194   4.182
76205W        W47821   3.486  34.051   3.238
76206W        W47822  29.082  11.381  10.874
76207W        W47823  15.613  12.455  13.052
76208W        W47824  19.034  32.955   3.761
76209W        W47825  41.463  11.240   1.998
76210W        W47826  11.371  42.857  12.486
76211W        W47827  29.698   4.659   1.916
76212W        W47828  10.431  12.606  13.077
76213W        W47829  31.366  38.401  13.568
76214W        W47830  14.780  40.739   3.818
76215W        W47831  19.117  32.116  14.190
76216W        W47832  27.890  13.545  14.433
76217W        W47833  33.172  23.288  13.071
76218W        W47834   4.110  39.484   3.564
76219W        W47835  39.654  20.707   0.551
76220W        W47836  44.094  43.308   3.749
76221W        W47837  11.567  25.710  14.371
76222W        W47838  15.345   6.342  14.465
76223W        W47839   1.231  42.230  14.356
76224W        W47840  10.304  33.143   2.787
76225W        W47841  25.199   0.445   1.192
76226W        W47842  23.088  39.849  10.624
76227W        W47843  37.520  42.048  13.352
76228W        W47844  14.239  18.820  12.483
76229W        W47845  41.265  43.371   0.225
76230W        W47846   6.330  13.803  10.531
76231W        W47847   9.392  39.663  13.787
76232W        W47848  24.923  31.657   4.590
76233W        W47849   3.910   5.888  14.770
76234W        W47850   5.102  34.867   0.004
76235W        W47851   4.872  20.856   0.891
76236W        W47852  16.792   2.050   4.008
76237W        W47853  44.366  35.676  10.560
76238W        W47854   1.139   2.691   1.036
76239W        W47855  38.968  35.146   0.478
76240W        W47856   9.385  40.046   2.866
76241W        W47857  37.493  10.869  10.673
76242W        W47858  22.319  41.047  14.143
76243W        W47859  33.386  14.270   9.730
76244W        W47860  41.076  35.468  11.956
76245W        W47861  16.781  15.925  11.033
76246W        W47862   7.758  25.170   0.408
76247W        W47863  12.872  16.270  14.119
76248W        W47864  27.248  17.141  11.630
76249W        W47865  43.351  24.396  14.537
76250W        W47866  15.174  43.837   0.803
76251W        W47867  27.672  24.542   4.078
76252W        W47868  30.335   4.000   3.716
76253W        W47869   9.820  12.356   4.826
76254W        W47870   0.793   4.432  14.838
76255W        W47871  10.357  21.572  12.175
76256W        W47872   2.868  40.255  12.451
76257W        W47873  20.723   3.841   2.297
76258W        W47874  37.082  13.491   5.345
76259W        W47875  19.769   1.467  13.513
76260W        W47876  13.176  29.099  13.773
76261W        W47877  44.890  19.253   4.805
76262W        W47878  16.167  39.735  14.280
76263W        W47879   0.695  15.532  11.667
76264W        W47880   7.411   0.385  11.502
76265W        W47881  25.165  22.536   2.686
76266W        W47882  14.281  13.720   1.735
76267W        W47883   0.901  24.544  13.992
76268W        W47884   4.683  33.561  10.705
76269W        W47885  16.928  22.082   1.699
76270W        W47886   1.945  18.131  13.572
76271W        W47887  15.300  41.672  12.743
76272W        W47888  32.534  29.177  10.718
76273W        W47889  36.772   3.679  12.985
76274W        W47890  22.970  12.145   3.067
76275W        W47891  35.872  21.292   0.959
76276W        W47892  20.532  41.387   0.954
76277W        W47893   2.024  32.503  10.717
76278W        W47894   7.828  18.931  13.585
76279W        W47895  30.873  44.867   0.450
76280W        W47896  22.254   2.206   1.838
76281W        W47897  35.049  20.185   4.760
76282W        W47898   0.376   7.334   3.644
76283W        W47899  32.187  40.878  13.405
76284W        W47900   7.891   5.457   1.792
76285W        W47901  12.387   7.244   1.830
76286W        W47902  43.946  39.337  14.443
76287W        W47903  43.186  15.719  12.511
76288W        W47904  43.812  19.224   3.822
76289W        W47905  37.514   4.854   4.635
76290W        W47906  11.071  29.797  11.066
76291W        W47907  24.650  12.624   1.912
76292W        W47908  23.459   4.654   0.154
76293W        W47909  10.804  34.163  11.967
76294W        W47910  41.444   6.501   2.875
76295W        W47911   6.455  14.798  13.016
76296W        W47912  36.831  31.901   0.257
76297W        W47913  26.867  43.483  14.548
76298W        W47914  18.790  27.085   2.308
76299W        W47915  38.975  40.025   4.005
76300W        W47916   0.717   1.742  12.297
76301W        W47917  10.696  43.414   2.304
76302W        W47918  28.991  26.274  13.193
76303W        W47919  15.241   8.042  11.099
76304W        W47920   6.447  19.161  14.965
76305W        W47921  19.004  16.219  14.345
76306W        W47922  42.932   0.027  13.883
76307W        W47923  44.545  33.074   0.306
76308W        W47924  23.597  20.104  11.036
76309W        W47925  35.856  32.569  11.139
76310W        W47926   9.881  16.727  10.723
76311W        W47927   9.182  22.223   3.281
76312W        W47928  42.671  36.125  11.126
76313W        W47929  11.396  22.437   1.779
76314W        W47930  14.337  25.618   3.078
76315W        W47931  37.747  18.949  14.541
76316W        W47932   6.210  42.236   5.134
76317W        W47933  26.712  30.046  13.937
76318W        W47934   3.875  23.421  14.560
76319W        W47935  40.465   7.608  11.241
76320W        W47936  17.612   0.876   4.160
76321W        W47937  39.874  18.755  12.179
76322W        W47938  24.126   4.539  10.784
76323W        W47939  14.746   0.608  11.084
76324W        W47940  38.413  39.999   0.391
76325W        W47941   9.081  29.490   4.896
76326W        W47942  24.217  19.261   0.845
76327W        W47943  29.901  11.117  11.452
76328W        W47944  11.183  33.624  12.855
76329W        W47945   8.829  17.448   1.788
76330W        W47946  37.023  41.805   0.312
76331W        W47947   5.687   9.911  13.555
76332W        W47948  17.409  29.525   4.530
76333W        W47949  28.164   8.318   2.746
76334W        W47950  35.161  17.087  14.511
76335W        W47951  34.680   5.324  11.041
76336W        W47952  26.089  33.137  11.573
76337W        W47953  21.141  29.704   0.385
76338W        W47954   0.482  33.539   2.391
76339W        W47955  35.647  13.208   2.623
76340W        W47956  26.796   2.449   2.874
76341W        W47957  21.075  38.358  12.707
76342W        W47958  24.668  33.172  10.678
76343W        W47959  27.249   7.140   1.834
76344W        W47960   4.187  39.002  11.484
76345W        W47961  42.803   0.823   4.139
76346W        W47962  23.508  22.938  12.033
76347W        W47963  36.055  28.023  12.806
76348W        W47964  43.566  20.614  14.768
76349W        W47965   3.415  29.558   4.173
76350W        W47966  16.840  41.096  11.162
76351W        W47967  17.133  19.685  14.712
76352W        W47968  23.006  25.180   0.146
76353W        W47969  15.072  35.400  12.078
76354W        W47970  25.663  10.850  11.556
76355W        W47971  10.742   1.459  13.386
76356W        W47972  15.397  27.031  14.961
76357W        W47973   0.662   1.682   1.429
76358W        W47974  26.141   3.877  10.781
76359W        W47975   3.884   3.909  10.698
76360W        W47976  22.568  33.102  13.317
76361W        W47977  14.372  31.499   3.275
76362W        W47978  41.762   9.786  11.913
76363W        W47979  19.214  18.091  12.072
76364W        W47980   1.343   1.815   2.339
76365W        W47981   3.712   7.124   3.206
76366W        W47982  16.131   6.748   4.170
76367W        W47983  19.025  31.561   1.389
76368W        W47984  41.228   9.663   4.804
76369W        W47985  35.493  34.081   1.419
76370W        W47986  13.739  24.548   0.989
76371W        W47987  39.459  19.000  13.289
76372W        W47988  31.145  37.332  12.585
76373W        W47989  22.592  44.882  14.658
76374W        W47990  38.037  24.467  10.603
76375W        W47991  11.113  12.100   3.127
76376W        W47992  27.061  30.267   3.807
76377W        W47993   3.704  11.699   4.510
76378W        W47994  36.625  30.291  11.645
76379W        W47995  32.772  32.648  13.639
76380W        W47996  32.510   6.031   1.898
76381W        W47997  41.068  29.461   1.753
76382W        W47998  35.614  19.149   2.583
76383W        W47999  43.467   3.504  12.117
76384W        W48000  15.858  24.817  11.553
76385W        W48001  24.714  11.744  11.257
76386W        W48002  44.744  41.767  14.364
76387W        W48003  15.593  44.500  10.510
76388W        W48004  38.591  37.285  13.376
76389W        W48005  39.771  31.772   0.280
76390W        W48006  20.260  34.449  14.764
76391W        W48007  39.903  30.260   1.329
76392W        W48008  11.698  32.651   1.741
76393W        W48009  12.225  17.770   2.845
76394W        W48010  34.453  10.810   2.383
76395W        W48011   5.228   9.628   3.337
76396W        W48012  34.339  42.900   4.019
76397W        W48013   2.321  13.072   2.676
76398W        W48014   1.419  23.025   3.784
76399W        W48015  42.054   1.050   3.495
76400W        W48016  29.722  36.963  14.371
76401W        W48017  10.601  14.868   0.360
76402W        W48018  42.882  12.474  13.345
76403W        W48019  44.452  18.035   1.040
76404W        W48020  44.483  18.498  13.434
76405W        W48021  33.198  13.136   2.920
76406W        W48022  37.436  38.802   1.198
76407W        W48023   1.451  35.333  13.921
76408W        W48024  19.465  20.084   0.697
76409W        W48025   0.950  25.265   2.411
76410W        W48026   2.820  35.587  11.074
76411W        W48027  37.119   3.026  11.933
76412W        W48028  27.482  21.531  13.731
76413W        W48029  43.366   8.707   1.015
76414W        W48030  10.361  12.924   0.764
76415W        W48031  42.433  43.944  11.650
76416W        W48032  34.228  44.890  14.940
76417W        W48033  32.976  19.453   0.902
76418W        W48034  39.821  10.371  13.051
76419W        W48035  25.147  11.679  12.560
76420W        W48036   6.896   3.267  11.216
76421W        W48037  12.332   7.933  11.183
76422W        W48038  41.631  29.608  11.107
76423W        W48039  25.320  22.306  11.047
76424W        W48040  17.647  26.923  11.135
76425W        W48041  36.428   6.957   4.507
76426W        W48042  34.387  15.219  10.937
76427W        W48043  35.315  27.949   1.360
76428W        W48044  36.972  35.106  11.192
76429W        W48045  44.620  39.511   2.775
76430W        W48046  17.103   9.876  10.714
76431W        W48047  12.565  24.861  14.645
76432W        W48048  23.517   6.227  11.111
76433W        W48049  14.781  17.603  12.565
76434W        W48050  20.198  19.023  12.126
76435W        W48051  14.385  30.321   1.954
76436W        W48052  14.031  39.900  10.741
76437W        W48053  15.278  25.420  12.480
76438W        W48054  30.200  11.799   1.437
76439W        W48055  29.445  17.156  11.668
76440W        W48056  28.348  15.162  10.323
76441W        W48057  21.678  36.484  11.906
76442W        W48058  15.781   6.826   3.230
76443W        W48059  40.355  33.174  11.901
76444W        W48060   4.359   0.150  13.112
76445W        W48061  20.651   4.244  12.951
76446W        W48062   2.236  17.608   3.323
76447W        W48063  27.590  32.125   1.769
76448W        W48064  38.874   5.964   2.248
76449W        W48065  41.340   0.275   1.406
76450W        W48066  44.811  10.789  12.201
76451W        W48067  11.293   4.367  12.893
76452W        W48068  43.207  40.663   1.212
76453W        W48069  43.514  23.536  14.854
76454W        W48070  42.091   9.893  10.611
76455W        W48071   5.153  32.634   0.219
76456W        W48072  18.469  12.313   0.501
76457W        W48073   8.317   8.304  12.601
76458W        W48074  37.393   3.764   1.268
76459W        W48075  37.985   0.706  11.200
76460W        W48076  18.706   5.712  14.406
76461W        W48077  38.576  10.656  11.570
76462W        W48078   2.664  41.341   0.608
76463W        W48079  25.975   0.422   3.903
76464W        W48080  17.002  28.698   1.596
76465W        W48081   5.850  29.680  11.669
76466W        W48082  36.841  11.185  11.594
76467W        W48083  43.434  19.729  10.620
76468W        W48084  11.033   8.381   4.160
76469W        W48085   1.287  27.241   0.288
76470W        W48086  33.522  37.988  14.906
76471W        W48087  44.489  36.255   3.770
76472W        W48088  22.240  32.187  14.293
76473W        W48089  19.373  38.026   1.403
76474W        W48090  42.354  40.918  13.137
76475W        W48091   7.335  42.285  12.919
76476W        W48092   1.397  19.800  13.696
76477W        W48093   8.571   5.444   0.907
76478W        W48094  14.884  28.625   3.931
76479W        W48095   5.529  39.708  14.885
76480W        W48096  33.071  33.677  11.142
76481W        W48097   5.632  34.635   3.383
76482W        W48098  13.328  40.672  12.461
76483W        W48099  37.152  28.529   0.785
76484W        W48100  17.223  42.983   2.935
76485W        W48101  18.590  20.851   0.903
76486W        W48102  14.328  23.822   2.402
76487W        W48103   3.752  27.919  14.536
76488W        W48104  19.589   6.296   2.356
76489W        W48105  44.458   7.382   0.630
76490W        W48106  20.240   9.498   0.122
76491W        W48107  10.350   7.004  13.800
76492W        W48108  14.567  38.453  11.991
76493W        W48109  32.149  29.446   5.549
76494W        W48110  19.609   5.720  11.098
76495W        W48111  21.207  33.443   5.157
76496W        W48112  23.661  23.331   3.192
76497W        W48113  18.582  31.977  12.581
76498W        W48114  29.512  11.618   2.279
76499W        W48115  39.910  22.678  14.418
76500W        W48116   3.453  30.783  13.499
76501W        W48117   6.311   2.296   1.666
76502W        W48118   9.331  41.472   3.729
76503W        W48119  42.757  24.588   4.611
76504W        W48120  29.281  44.057   4.146
76505W        W48121  12.672  31.619  13.837
76506W        W48122  27.220  21.308   2.470
76507W        W48123  23.687  32.660  11.076
76508W        W48124   2.810  19.595  12.457
76509W        W48125   7.687   5.277  13.523
76510W        W48126   8.357  16.658   3.899
76511W        W48127  32.892  39.762  10.639
76512W        W48128  34.465  40.833  13.791
76513W        W48129  39.779   3.721  10.841
76514W        W48130  29.097  17.428   3.980
76515W        W48131  18.693  33.018  13.058
76516W        W48132   6.791  21.319   4.818
76517W        W48133  24.834   3.900  13.501
76518W        W48134  12.362  21.016  12.460
76519W        W48135  24.409  38.805   0.139
76520W        W48136  17.005   0.336   3.870
76521W        W48137  24.109  24.512  12.875
76522W        W48138   7.164   7.881  11.082
76523W        W48139  39.237  28.493   2.742
76524W        W48140  16.765  25.180   1.855
76525W        W48141   9.252  28.593   2.423
76526W        W48142  34.145  18.520  14.136
76527W        W48143  28.717  17.134   1.639
76528W        W48144  31.146   4.275   0.990
76529W        W48145  25.721  16.229   1.926
76530W        W48146  24.652  23.257  14.465
76531W        W48147  35.093   3.832  11.874
76532W        W48148  33.005  16.035   0.152
76533W        W48149  43.384  27.019   3.925
76534W        W48150  16.678  19.267   3.426
76535W        W48151  28.703  29.761  12.916
76536W        W48152  19.012   6.336  11.618
76537W        W48153  32.045  36.181  10.722
76538W        W48154   6.005  10.400   3.879
76539W        W48155  42.744  37.795  11.970
76540W        W48156  37.685  30.556  13.832
76541W        W48157   5.367   1.341  13.449
76542W        W48158  16.724  33.386   3.062
76543W        W48159  36.213  30.488   0.305
76544W        W48160  42.883  35.645   1.889
76545W        W48161   7.527   7.397   0.906
76546W        W48162  23.642  38.070  13.434
76547W        W48163   7.833  36.887  12.479
76548W        W48164  27.451  38.898  13.330
76549W        W48165  30.454   4.249  10.446
76550W        W48166  18.100  30.015  10.641
76551W        W48167  39.919   1.277   4.743
76552W        W48168  22.462  15.161  14.345
76553W        W48169  30.959  41.526  11.769
76554W        W48170  23.147  42.326   2.227
76555W        W48171  21.101  18.769   2.928
76556W        W48172  41.320  36.904   4.886
76557W        W48173  38.195  35.653  11.056
76558W        W48174  16.164  19.257  14.735
76559W        W48175   5.311  37.998   2.445
76560W        W48176  38.275   0.213   0.747
76561W        W48177  26.813  23.146  14.082
76562W        W48178   9.930   7.440   1.840
76563W        W48179   4.256  12.517   0.864
76564W        W48180  15.717   5.964   3.286
76565W        W48181  19.296  36.388   0.764
76566W        W48182  20.160  15.332  14.563
76567W        W48183   8.178  19.666  12.086
76568W        W48184  19.770  43.639   3.730
76569W        W48185  16.783  11.108   2.643
76570W        W48186  32.011  40.172  10.930
76571W        W48187  42.437  32.360  13.082
76572W        W48188   9.247  33.166   4.605
76573W        W48189  28.841  21.721  13.847
76574W        W48190  27.484  12.546   4.922
76575W        W48191  13.991  20.936  11.963
76576W        W48192  22.562  28.959   4.515
76577W        W48193  32.067  14.632   4.555
76578W        W48194  41.293  16.121   0.799
76579W        W48195  34.890  14.255  14.924
76580W        W48196  30.683  27.091  10.116
76581W        W48197   1.352  31.001   3.712
76582W        W48198  19.837   3.966  11.082
76583W        W48199  26.389  44.222   1.715
76584W        W48200  16.049  31.392   0.255
76585W        W48201  38.318  31.478   0.935
76586W        W48202  28.663  11.112  11.995
76587W        W48203   0.326  21.743  10.522
76588W        W48204  37.510  44.095   0.726
76589W        W48205  32.491  39.565   4.746
76590W        W48206  15.328  16.618   1.300
76591W        W48207  26.132  17.037  14.558
76592W        W48208  39.023  24.796   2.763
76593W        W48209  15.376   3.904   5.077
76594W        W48210   6.997  17.756   3.259
76595W        W48211   8.854   5.158   1.699
76596W        W48212  40.774  41.562  12.486
76597W        W48213  42.439  13.800   0.807
76598W        W48214  20.138  24.808  10.811
76599W        W48215  24.183  26.484   4.074
76600W        W48216  36.856  22.248  11.577
76601W        W48217  19.503  36.450  10.891
76602W        W48218  29.301   2.418  14.543
76603W        W48219  20.824  25.248   3.579
76604W        W48220  21.836  18.510  13.028
76605W        W48221   7.970  22.671  12.628
76606W        W48222  25.032   5.400   3.060
76607W        W48223   6.241  30.198  10.570
76608W        W48224   9.262   8.852   0.400
76609W        W48225   3.167  19.643  13.984
76610W        W48226   7.955  43.237   4.537
76611W        W48227   0.497  35.365  11.423
76612W        W48228  43.416   5.822  11.565
76613W        W48229  10.992   1.450   2.263
76614W        W48230  34.299   6.293  11.188
76615W        W48231   5.964  29.620   2.509
76616W        W48232  13.967  11.830   3.215
76617W        W48233  41.368   9.909  12.841
76618W        W48234  12.754  31.292   4.160
76619W        W48235  10.814  41.011  14.753
76620W        W48236  24.715   7.383   0.709
76621W        W48237  29.508  28.597   2.167
76622W        W48238  33.911  44.287   3.970
76623W        W48239  40.819   1.795  14.895
76624W        W48240  21.049  44.075   3.590
76625W        W48241   2.574  29.212   0.200
76626W        W48242  28.763   0.513  11.148
76627W        W48243  15.024   5.981  11.566
76628W        W48244   2.899   9.907   1.716
76629W        W48245  18.290  35.117  12.504
76630W        W48246  43.061   2.870   4.171
76631W        W48247  21.988  14.886  13.315
76632W        W48248   7.174   4.842  10.727
76633W        W48249  31.451  16.528   0.447
76634W        W48250  27.538  43.452   4.516
76635W        W48251   7.760  20.597   2.883
76636W        W48252  15.474  29.769  11.548
76637W        W48253   6.160  26.748   1.189
76638W        W48254  43.537  12.605  11.099
76639W        W48255  24.616  24.450   1.823
76640W        W48256  11.319  36.430   3.183
76641W        W48257  10.110  21.683  10.208
76642W        W48258  41.215  23.272  14.460
76643W        W48259  38.315  21.481   1.853
76644W        W48260  29.722  42.050  11.453
76645W        W48261  33.004  20.279  11.609
76646W        W48262   9.754  17.728   2.241
76647W        W48263  40.475  11.302  10.451
76648W        W48264  37.120  18.783  14.654
76649W        W48265  41.758  24.228  11.934
76650W        W48266   6.361  20.124   2.442
76651W        W48267  43.033   2.342   4.068
76652W        W48268  18.397  33.937   1.032
76653W        W48269   7.807  20.939   3.270
76654W        W48270  10.374   8.815   3.667
76655W        W48271   1.778  44.928  12.412
76656W        W48272  41.277  33.280  14.103
76657W        W48273   1.360  32.400   3.352
76658W        W48274  40.555  40.285   2.893
76659W        W48275  35.166  13.244   2.836
76660W        W48276  42.222  32.514  13.563
76661W        W48277   2.750  26.700  14.787
76662W        W48278  28.605   9.251  12.011
76663W        W48279  28.181  25.103  12.881
76664W        W48280  36.542  14.727  10.809
76665W        W48281   8.610   9.256  11.435
76666W        W48282  35.112  19.089   2.708
76667W        W48283  13.331  20.253   2.949
76668W        W48284   0.943  38.910  13.034
76669W        W48285   6.350  23.827   1.389
76670W        W48286  35.767  43.369   4.194
76671W        W48287   7.338  33.471  11.613
76672W        W48288   8.675  27.945  14.164
76673W        W48289   5.655  18.319   3.187
76674W        W48290  20.974  22.949  12.913
76675W        W48291  30.760   0.193   3.139
76676W        W48292   0.714  21.738   4.109
76677W        W48293  21.515  11.464  13.871
76678W        W48294  17.612  41.407  12.975
76679W        W48295  40.315  32.745  14.341
76680W        W48296   1.556  15.087  12.066
76681W        W48297  21.527  27.578  13.423
76682W        W48298   1.919  42.386  12.180
76683W        W48299  42.312  19.479  13.126
76684W        W48300  16.664  11.908   3.987
76685W        W48301  12.393  14.488   2.276
76686W        W48302  37.351   1.038  14.831
76687W        W48303  40.112  33.611   1.538
76688W        W48304  35.038  40.496  12.096
76689W        W48305  33.783  34.022  14.021
76690W        W48306  18.282  36.470   2.758
76691W        W48307  38.785  33.979   4.698
76692W        W48308  22.646  42.288   2.867
76693W        W48309  22.189  33.673  12.118
76694W        W48310   6.276  30.951   0.967
76695W        W48311  19.908   7.875   0.306
76696W        W48312   9.277  33.624  10.687
76697W        W48313   2.324  14.343   4.696
76698W        W48314  14.411  12.811  14.999
76699W        W48315  12.735  38.753   3.631
76700W        W48316  38.443   9.371  10.698
76701W        W48317  27.012   2.563  12.472
76702W        W48318  25.016  39.565  12.013
76703W        W48319  22.310  37.045  12.131
76704W        W48320  15.261  44.106  11.127
76705W        W48321  11.725  21.229   4.670
76706W        W48322   4.169   2.448   3.681
76707W        W48323  17.247  29.360   4.064
76708W        W48324  13.641  38.070  14.973
76709W        W48325  11.150  31.126   4.464
76710W        W48326  21.602   7.095   5.058
76711W        W48327   9.201  34.626   5.111
76712W        W48328  20.454  26.703  14.857
76713W        W48329  20.025  42.856  10.473
76714W        W48330  31.454   4.820   2.736
76715W        W48331   0.348  36.250  10.286
76716W        W48332  18.019   9.271   3.063
76717W        W48333  13.886   1.726   4.330
76718W        W48334  38.891  19.256   1.964
76719W        W48335  27.546  20.686   3.266
76720W        W48336  39.799  13.302  13.723
76721W        W48337  13.619  42.837  11.658
76722W        W48338  30.549  16.140   4.523
76723W        W48339  29.470  43.003   0.196
76724W        W48340   6.456   1.631   5.138
76725W        W48341  10.148  23.465   1.169
76726W        W48342  21.699   3.183  11.231
76727W        W48343  23.522  17.811   1.769
76728W        W48344  16.318  22.797   4.300
76729W        W48345  32.102  21.305   1.247
76730W        W48346  38.481  23.048  11.746
76731W        W48347  42.842  12.615   1.283
76732W        W48348   4.988  34.328   1.957
76733W        W48349  24.609  37.477  10.684
76734W        W48350  12.913   6.244   3.163
76735W        W48351  15.526  13.370  12.027
76736W        W48352  29.476  17.754  14.430
76737W        W48353  28.921  37.578  12.893
76738W        W48354  28.643   4.175   3.719
76739W        W48355  34.368  11.677   1.345
76740W        W48356  29.097  17.926   0.789
76741W        W48357   6.163  33.822   0.467
76742W        W48358  24.004  18.153   2.224
76743W        W48359  19.880   8.123  14.673
76744W        W48360  32.913  14.783   1.485
76745W        W48361  11.282  32.562  13.800
76746W        W48362  11.847  11.852  12.855
76747W        W48363  34.465  15.700  11.182
76748W        W48364  18.680  25.475  11.501
76749W        W48365  18.853   7.363   3.096
76750W        W48366   9.224  43.379  11.095
76751W        W48367  34.926   4.706  14.082
76752W        W48368  21.716  34.490  14.251
76753W        W48369   5.962  13.044  11.940
76754W        W48370   4.831  37.554   0.409
76755W        W48371  26.557  36.102  13.505
76756W        W48372   5.601  37.349  12.152
76757W        W48373  42.698  30.046  13.737
76758W        W48374   9.328  36.383   0.762
76759W        W48375  25.652  18.789   1.760
76760W        W48376  21.549   1.262  13.769
76761W        W48377  24.636  21.507   3.902
76762W        W48378  13.960  19.681  14.469
76763W        W48379   7.750  36.322   4.534
76764W        W48380  37.179  43.310   4.883
76765W        W48381  12.381   1.030   4.200
76766W        W48382  13.099  42.536   2.798
76767W        W48383  21.141   2.400  13.471
76768W        W48384   8.379   0.364   2.212
76769W        W48385  17.092  28.967  12.519
76770W        W48386  35.321  14.715   1.448
76771W        W48387  41.576  36.588   4.574
76772W        W48388  30.254  24.348   3.658
76773W        W48389  40.993  22.261  10.982
76774W        W48390  26.473  30.190   0.412
76775W        W48391  14.144  42.039   0.457
76776W        W48392   0.014   9.328   2.227
76777W        W48393  11.626  32.949   4.028
76778W        W48394  25.425  44.397  13.950
76779W        W48395  36.278  28.549  12.150
76780W        W48396   3.391  24.199  14.590
76781W        W48397   2.011  30.393  12.899
76782W        W48398   0.867  38.572  14.788
76783W        W48399   1.206  16.061   3.360
76784W        W48400  14.709  41.343   4.637
76785W        W48401  29.469  26.741   0.283
76786W        W48402  16.785  20.734   0.259
76787W        W48403  36.960  43.001  14.531
76788W        W48404  18.369  20.329   4.499
76789W        W48405  34.778  31.790   5.017
76790W        W48406  20.765  29.972  14.874
76791W        W48407   1.291   0.192  12.505
76792W        W48408  36.840  25.744   4.118
76793W        W48409  41.250  37.092  13.459
76794W        W48410  37.048  13.851  10.627
76795W        W48411  16.848  36.650  13.805
76796W        W48412  39.579  31.030   3.734
76797W        W48413  43.837  17.157   0.125
76798W        W48414  29.165  10.855   0.506
76799W        W48415   4.434  19.243  12.477
76800W        W48416   7.657  38.625  10.992
76801W        W48417  29.474  13.265   1.138
76802W        W48418  39.934  26.454  11.251
76803W        W48419  21.091  40.539   3.760
76804W        W48420  13.735  33.508   1.941
76805W        W48421  13.440   3.598   0.073
76806W        W48422  23.982  28.599   4.977
76807W        W48423  19.213  30.451   4.277
76808W        W48424  18.813  17.752   4.604
76809W        W48425  23.524  38.117   1.779
76810W        W48426  12.504  12.622   4.110
76811W        W48427   1.853  29.127  11.019
76812W        W48428   4.995  40.865   0.345
76813W        W48429  36.016  35.074   1.763
76814W        W48430  38.129   3.749  11.839
76815W        W48431  25.711  43.945  14.965
76816W        W48432   8.831   2.540   0.899
76817W        W48433  29.180   0.784   0.458
76818W        W48434   6.736   7.383   3.779
76819W        W48435  42.028  39.265  12.010
76820W        W48436  27.150   9.135  13.477
76821W        W48437  19.031  21.293   4.637
76822W        W48438  20.895  40.753   2.483
76823W        W48439  19.252   8.391  10.606
76824W        W48440   4.353  35.609  11.106
76825W        W48441  15.558  37.357   0.353
76826W        W48442  32.630  24.540  10.578
76827W        W48443  32.460  34.582  13.550
76828W        W48444  17.063   0.071   2.339
76829W        W48445  19.041   4.510  14.939
76830W        W48446  11.218   2.003  10.594
76831W        W48447  44.243   9.745  11.053
76832W        W48448  22.423  17.734  12.053
76833W        W48449  33.859  28.435  14.331
76834W        W48450   7.720  43.850   4.755
76835W        W48451   5.806   0.434  11.697
76836W        W48452  10.083  10.298   3.387
76837W        W48453  33.490  15.121   4.425
76838W        W48454  10.727   3.244  12.789
76839W        W48455  25.595  17.083   3.794
76840W        W48456  23.533  39.079  10.706
76841W        W48457  14.292  44.350   0.784
76842W        W48458   0.768  31.936   4.210
76843W        W48459  16.080  21.102   1.934
76844W        W48460  44.218  39.864  13.775
76845W        W48461   2.077  27.966  12.469
76846W        W48462  18.705  10.529   2.700
76847W        W48463  24.061  26.934  14.269
76848W        W48464  20.695  23.757   4.562
76849W        W48465  24.938   6.425  12.086
76850W        W48466  22.480  24.777  12.007
76851W        W48467  35.101  11.343  14.360
76852W        W48468   7.758  29.965   4.834
76853W        W48469  10.831  44.964   0.328
76854W        W48470  27.259  35.105   4.537
76855W        W48471  21.589  35.479   0.182
76856W        W48472  39.579  14.096   1.798
76857W        W48473   7.336  40.391  14.904
76858W        W48474  42.908  19.276   3.219
76859W        W48475  33.078  34.077   3.738
76860W        W48476  43.867   9.379  12.505
76861W        W48477  34.195  37.641  12.883
76862W        W48478   6.911  14.762   3.193
76863W        W48479  24.268  44.422  11.556
76864W        W48480  23.676  31.470  11.509
76865W        W48481   1.067  29.070   4.602
76866W        W48482  13.641  17.060   1.433
76867W        W48483  15.587  43.383   1.284
76868W        W48484  37.506  40.480   0.264
76869W        W48485  21.794  42.499   3.370
76870W        W48486  39.079   1.502   3.292
76871W        W48487  35.556  24.438   1.769
76872W        W48488   3.166  34.579  11.031
76873W        W48489  43.498   4.164  11.695
76874W        W48490  43.492  10.354  12.502
76875W        W48491  39.267  43.833   2.290
76876W        W48492  26.062  43.335  12.337
76877W        W48493   1.254   1.288   1.224
76878W        W48494  14.676   9.107   4.068
76879W        W48495  20.190  33.389   4.603
76880W        W48496   8.857  32.039  10.509
76881W        W48497  11.725  36.931  14.842
76882W        W48498   3.540  19.709  10.692
76883W        W48499  27.599  31.597  12.858
76884W        W48500  27.695  30.930   0.719
76885W        W48501   3.525   5.754  13.047
76886W        W48502  37.097  34.343   0.338
76887W        W48503  41.260  33.733  11.852
76888W        W48504  31.094  17.746   1.929
76889W        W48505  38.029   6.031  12.652
76890W        W48506  21.765  16.792  12.481
76891W        W48507   0.038   3.215   3.113
76892W        W48508  23.562   2.807   1.503
76893W        W48509   1.361  26.469  12.552
76894W        W48510  24.101  19.388  11.543
76895W        W48511  41.012   7.857   2.827
76896W        W48512  17.502  24.076   4.205
76897W        W48513  18.810   9.935  13.577
76898W        W48514  34.404   1.921   0.345
76899W        W48515  24.081  39.529  12.961
76900W        W48516   7.294   5.908  12.879
76901W        W48517  37.480  26.627  12.627
76902W        W48518  38.354  31.931  13.436
76903W        W48519  34.158  12.576  14.477
76904W        W48520   5.107   8.495  11.369
76905W        W48521  15.683   6.199   2.098
76906W        W48522   3.582  15.312  10.699
76907W        W48523  19.207  24.332  13.373
76908W        W48524   4.149  13.796  14.352
76909W        W48525   7.423  26.761   1.219
76910W        W48526  24.805  12.277  13.753
76911W        W48527  16.714  43.917   5.534
76912W        W48528   6.582  33.696   1.254
76913W        W48529  13.595   3.573   4.679
76914W        W48530  26.454  20.669  13.096
76915W        W48531  34.886   4.626   0.004
76916W        W48532  35.671   6.670  13.003
76917W        W48533  22.965  14.796  13.442
76918W        W48534  23.931   6.160  12.132
76919W        W48535  26.959  10.945   4.156
76920W        W48536  42.507  29.416   1.845
76921W        W48537   9.258  15.107   3.106
76922W        W48538  23.767  40.543   1.549
76923W        W48539  24.745  14.354  14.407
76924W        W48540   3.758  21.513   2.246
76925W        W48541  36.812  11.237  10.680
76926W        W48542  25.417  22.539  12.875
76927W        W48543  15.310  23.078   4.677
76928W        W48544  29.542  43.919   0.777
76929W        W48545  13.410  32.927  13.507
76930W        W48546  28.579  40.034  12.551
76931W        W48547   3.718  44.976   1.674
76932W        W48548  38.935  40.359  14.015
76933W        W48549  22.841  19.084   1.522
76934W        W48550   5.151  38.753  14.799
76935W        W48551  44.798  37.597  14.715
76936W        W48552  19.304  38.976  10.717
76937W        W48553  18.708  24.172  14.706
76938W        W48554  12.889  15.607   4.207
76939W        W48555   4.754  35.684  11.500
76940W        W48556  38.063  26.379   4.182
76941W        W48557  40.064  25.539  10.557
76942W        W48558  19.061  37.904  11.885
76943W        W48559  39.830  15.747  12.410
76944W        W48560  15.442   6.589   9.728
76945W        W48561   8.119   0.981   0.645
76946W        W48562  17.435  17.803  12.006
76947W        W48563  17.787   1.779   1.380
76948W        W48564  22.125  13.397  13.000
76949W        W48565  30.945  14.443  13.370
76950W        W48566  11.336  21.056   3.347
76951W        W48567   0.164   9.201   4.198
76952W        W48568  29.971  21.684   1.671
76953W        W48569  20.089  19.800   0.256
76954W        W48570  24.012  13.891   0.362
76955W        W48571  12.328  33.576  11.844
76956W        W48572  16.393  13.905   3.547
76957W        W48573  40.045  26.623   2.757
76958W        W48574  43.509   6.403   2.188
76959W        W48575  32.166  22.178  10.606
76960W        W48576  14.701  36.954  12.373
76961W        W48577  21.098   2.406  12.195
76962W        W48578   9.668  22.086   4.124
76963W        W48579  10.391   9.338   2.835
76964W        W48580   6.220  17.697   1.805
76965W        W48581   8.785   9.161  11.937
76966W        W48582  28.699  24.196  12.868
76967W        W48583   6.473  16.295  12.640
76968W        W48584   0.416  44.503   1.821
76969W        W48585  29.083  15.575   2.224
76970W        W48586  15.844  21.050  12.131
76971W        W48587  32.497  10.404  13.121
76972W        W48588  22.026  22.336  14.033
76973W        W48589  25.790  41.281   4.944
76974W        W48590   3.457  38.563   1.907
76975W        W48591  36.912   9.851   0.167
76976W        W48592  37.070  36.622   1.809
76977W        W48593  29.739  14.744  12.508
76978W        W48594  35.064   8.084  12.952
76979W        W48595   2.409  10.603   3.878
76980W        W48596  33.890  43.057  13.428
76981W        W48597   9.360  11.326   1.720
76982W        W48598   7.914   5.653  10.980
76983W        W48599  18.774  13.248   0.095
76984W        W48600  20.842  44.724  10.619
76985W        W48601   1.194  36.576   0.718
76986W        W48602  10.772   2.095   1.834
76987W        W48603  21.801  32.076   1.139
76988W        W48604   7.031  31.744   0.725
76989W        W48605  14.221   1.443   0.761
76990W        W48606  13.729  40.347  12.428
76991W        W48607   1.944   2.479  13.850
76992W        W48608  14.591  20.125  13.597
76993W        W48609  16.300   2.300  10.695
76994W        W48610  43.366  21.969  13.776
76995W        W48611  25.980  11.618  10.763
76996W        W48612   1.184  31.925   2.462
76997W        W48613  11.589  14.731   1.773
76998W        W48614   7.892  42.223   0.981
76999W        W48615  41.486  39.325  10.514
77000W        W48616  15.747   6.617  11.453
77001W        W48617  34.919  29.106   0.025
77002W        W48618  14.793  24.070   2.342
77003W        W48619   3.357  34.468   2.325
77004W        W48620  38.945  15.823   2.867
77005W        W48621  23.490  35.004   2.218
77006W        W48622   6.926  39.641  13.853
77007W        W48623  32.928  35.597   3.272
77008W        W48624  44.208  28.213   4.224
77009W        W48625   1.748  20.169   3.298
77010W        W48626  39.976  32.679   3.305
77011W        W48627  34.347  37.378  14.919
77012W        W48628  30.985   3.897   0.325
77013W        W48629  40.853  44.850  13.403
77014W        W48630  32.360  19.732   3.518
77015W        W48631  10.758  14.029  12.150
77016W        W48632  38.683  40.843   3.301
77017W        W48633  30.296   6.224  14.336
77018W        W48634   7.920   6.821   0.659
77019W        W48635  27.253  22.771   0.294
77020W        W48636  35.061   9.902   1.378
77021W        W48637  21.166   1.192  11.503
77022W        W48638  19.715  29.990   0.007
77023W        W48639  32.527  28.784   5.440
77024W        W48640  21.101  25.779  10.570
77025W        W48641  38.365   6.243   3.795
77026W        W48642  22.130  26.046   1.192
77027W        W48643  16.757  28.010  11.571
77028W        W48644  25.597  18.074   4.670
77029W        W48645  22.076  43.424   3.681
77030W        W48646   8.724  29.561   1.420
77031W        W48647  14.523  42.109  12.432
77032W        W48648  26.555  16.723  14.634
77033W        W48649  43.060   2.017   3.187
77034W        W48650   2.044   6.464   3.732
77035W        W48651  27.576  18.054  13.357
77036W        W48652  29.912   1.886   1.900
77037W        W48653  27.821  41.028  11.538
77038W        W48654  27.107  44.371   1.210
77039W        W48655  17.278  27.656  12.978
77040W        W48656  30.020  35.214  12.471
77041W        W48657  43.045  25.102  14.925
77042W        W48658  26.051  35.877   2.760
77043W        W48659  42.315  10.873   3.752
77044W        W48660  18.447  16.574   2.143
77045W        W48661  25.920   9.136  11.800
77046W        W48662   0.330  25.072  14.377
77047W        W48663  40.399  20.288  13.989
77048W        W48664  43.303  24.571  11.616
77049W        W48665  28.143   0.122   2.726
77050W        W48666  30.760  19.292   3.903
77051W        W48667  25.719   4.905   0.843
77052W        W48668  31.546  18.508  13.383
77053W        W48669  19.177  43.402  12.394
77054W        W48670  14.756  11.674  11.970
77055W        W48671  12.322  16.096   0.946
77056W        W48672  41.367  14.502   2.208
77057W        W48673  37.993  14.299   1.651
77058W        W48674  34.119   4.944  13.837
77059W        W48675  22.622  35.623  12.392
77060W        W48676  40.870  23.041  12.787
77061W        W48677   4.480  10.812  12.062
77062W        W48678   6.773  33.981  13.797
77063W        W48679   0.956   9.706  11.589
77064W        W48680   1.869   6.482  13.049
77065W        W48681  19.823  42.902   4.565
77066W        W48682   2.767  19.248   2.342
77067W        W48683   9.234  38.566  13.473
77068W        W48684   0.682   6.877  11.240
77069W        W48685  17.780  15.029   1.369
77070W        W48686  11.445  13.841   3.616
77071W        W48687  24.877  27.228  14.737
77072W        W48688  11.778  41.397  13.984
77073W        W48689  40.542  43.389  14.557
77074W        W48690  41.263  25.388   2.306
77075W        W48691  20.705   7.711   0.788
77076W        W48692  30.141  43.766  13.345
77077W        W48693  41.569  39.988   2.240
77078W        W48694   5.369  31.907  13.876
77079W        W48695  12.152  42.740   0.988
77080W        W48696  34.011  43.351   3.048
77081W        W48697  38.550  16.406   3.241
77082W        W48698  37.085  19.425   2.671
77083W        W48699   3.198  31.173  12.064
77084W        W48700   7.896  28.252   5.045
77085W        W48701  36.419   3.120   1.970
77086W        W48702  24.152  24.529   4.664
77087W        W48703  28.295  23.218   2.743
77088W        W48704  16.717  35.970  11.401
77089W        W48705  10.822   9.434   4.149
77090W        W48706  44.257  30.702   3.029
77091W        W48707  18.235  18.308  11.081
77092W        W48708  16.883   8.260  14.442
77093W        W48709  13.770  30.812  14.314
77094W        W48710   2.932  10.829   1.700
77095W        W48711  20.172  34.945  11.923
77096W        W48712  42.274  36.318   3.395
77097W        W48713  21.271  21.155   1.839
77098W        W48714  16.652  44.068   1.956
77099W        W48715  38.815  38.252   0.879
77100W        W48716  38.425  23.596  11.412
77101W        W48717   4.309  11.442  11.194
77102W        W48718   8.670  28.371  13.296
77103W        W48719  20.069  14.890   1.782
77104W        W48720  16.259  41.541   3.672
77105W        W48721  18.082  26.612  12.502
77106W        W48722   0.387  16.850   2.640
77107W        W48723   5.338  43.397   2.670
77108W        W48724  13.282  12.266   1.699
77109W        W48725   9.848  37.461   3.826
77110W        W48726  13.036  35.532  12.411
77111W        W48727   7.648   6.733   3.368
77112W        W48728  18.539  28.409  12.789
77113W        W48729  35.538  31.922   5.131
77114W        W48730  35.011   5.862   1.209
77115W        W48731  31.895  13.248  11.134
77116W        W48732  31.394  42.358   5.036
77117W        W48733  29.628  23.686   4.170
77118W        W48734  16.561  22.988   1.156
77119W        W48735   0.207  17.639   3.264
77120W        W48736  38.599   8.862  12.630
77121W        W48737  40.085  11.176  12.444
77122W        W48738  31.692   8.495  12.524
77123W        W48739   5.323   6.768   2.683
77124W        W48740  39.946  24.104  14.461
77125W        W48741  31.039  14.797   1.500
77126W        W48742   1.395  24.469   5.058
77127W        W48743   3.944  22.261   3.696
77128W        W48744   8.376  39.819  10.704
77129W        W48745  12.052  38.996  13.740
77130W        W48746  41.761   3.421   5.023
77131W        W48747  34.448  30.345  12.982
77132W        W48748  41.937   6.896  13.388
77133W        W48749   8.142   9.377  12.767
77134W        W48750  28.918  31.805  12.938
77135W        W48751  44.645   7.239   3.270
77136W        W48752   3.013  23.690   1.315
77137W        W48753  27.718   2.343   4.577
77138W        W48754  44.908  16.890   2.834
77139W        W48755   9.163  27.598   2.781
77140W        W48756   8.861  44.586   4.748
77141W        W48757  32.806  25.766  12.019
77142W        W48758   9.819  40.175  13.912
77143W        W48759  20.472  40.049   3.104
77144W        W48760  18.752  10.081  11.158
77145W        W48761  27.094  16.792   3.294
77146W        W48762  17.524  31.524   1.918
77147W        W48763  44.496  21.431   3.730
77148W        W48764   1.233  16.773   2.242
77149W        W48765  24.530  32.639   0.675
77150W        W48766  42.360  32.608  14.907
77151W        W48767   8.216  11.145  10.694
77152W        W48768  33.759  43.363  10.989
77153W        W48769   5.937  19.118   4.094
77154W        W48770   2.938  44.327  11.663
77155W        W48771  18.534  29.020   0.370
77156W        W48772  34.328  13.822   0.522
77157W        W48773  10.482  31.502  14.790
77158W        W48774   6.288  39.569  14.511
77159W        W48775  20.021  31.422   1.211
77160W        W48776  30.913   3.987   2.343
77161W        W48777   8.207  31.905  10.751
77162W        W48778  41.290   8.715   4.705
77163W        W48779   3.196   3.907   3.655
77164W        W48780  17.358  15.297   1.475
77165W        W48781  36.510  16.607   2.888
77166W        W48782  15.392   4.423   3.819
77167W        W48783  24.808   3.747  14.260
77168W        W48784   7.309  10.699   4.811
77169W        W48785  29.960  40.900   1.414
77170W        W48786   6.653  26.207   3.339
77171W        W48787   8.598  14.173   3.623
77172W        W48788  18.407   0.249   4.089
77173W        W48789  34.648  42.281  13.396
77174W        W48790  13.656  14.761  13.540
77175W        W48791   1.948  39.227  13.316
77176W        W48792   1.425  20.272   2.862
77177W        W48793  33.855  16.056   4.696
77178W        W48794   8.177  25.690  10.549
77179W        W48795  19.155  33.536  11.491
77180W        W48796   0.878  43.272   2.225
77181W        W48797  12.798  21.543   4.118
77182W        W48798  26.818  24.685  13.521
77183W        W48799  39.410   0.555   1.479
77184W        W48800  11.307  40.820   4.711
77185W        W48801   9.959   3.634  14.053
77186W        W48802  42.814   2.584  14.780
77187W        W48803  40.394  20.403   4.282
77188W        W48804   2.290  38.511   3.609
77189W        W48805  34.375  36.405   4.113
77190W        W48806  12.030  22.680  14.373
77191W        W48807   9.731   9.781   1.297
77192W        W48808  26.106  40.826  12.609
77193W        W48809   1.869  43.502   5.472
77194W        W48810   1.854  34.352   0.441
77195W        W48811  14.280  30.499  14.387
77196W        W48812  15.217  19.782   2.389
77197W        W48813  36.399  39.427   3.703
77198W        W48814  43.791  39.009   0.252
77199W        W48815  32.035  10.734   4.662
77200W        W48816   1.625   4.354  14.710
77201W        W48817  11.633  21.333  10.659
77202W        W48818  24.150  38.596   3.405
77203W        W48819   6.104  17.290   4.219
77204W        W48820   3.719  18.546   4.295
77205W        W48821   6.750  42.254  11.250
77206W        W48822  33.105  44.866   2.602
77207W        W48823  23.706  22.589   5.111
77208W        W48824  30.708  30.884   2.508
77209W        W48825  42.479  16.179   4.159
77210W        W48826  27.080  14.489  12.930
77211W        W48827  16.531   0.000   5.419
77212W        W48828  28.394   0.490  11.552
77213W        W48829  25.442  32.512   3.308
77214W        W48830  37.946  25.362   5.280
77215W        W48831  36.425  44.575  10.600
77216W        W48832  15.697  23.702  10.745
77217W        W48833  13.802  16.730   9.872
77218W        W48834  41.314  31.072   3.854
77219W        W48835  10.638  27.609   3.863
77220W        W48836  31.507  33.420   1.409
77221W        W48837  30.097  31.837   0.908
77222W        W48838  26.676  19.550  13.949
77223W        W48839   6.679  44.566   1.503
77224W        W48840  15.091  37.560   0.343
77225W        W48841  36.608   0.051  13.847
77226W        W48842   4.791   7.371   1.076
77227W        W48843  19.493  21.739   2.802
77228W        W48844  44.944   2.880   4.821
77229W        W48845  28.735  14.320  13.420
77230W        W48846  19.934  34.524  12.990
77231W        W48847   3.954  42.623   3.934
77232W        W48848  19.799  21.616   4.255
77233W        W48849  14.342  37.854   2.995
77234W        W48850   5.085  34.621  10.113
77235W        W48851  39.038  32.248  13.017
77236W        W48852  32.473  12.705   1.780
77237W        W48853   4.846  31.635  14.540
77238W        W48854  40.214  22.497  12.822
77239W        W48855  20.014  20.816  14.331
77240W        W48856  28.761  21.467   0.905
77241W        W48857  32.965  27.147  13.023
77242W        W48858  24.205  37.814   0.916
77243W        W48859  30.928  25.201  12.463
77244W        W48860  21.508  44.887   4.582
77245W        W48861  24.757  14.701   1.306
77246W        W48862  30.366  41.014  14.935
77247W        W48863  27.981  20.017   4.400
77248W        W48864   3.920  16.326   3.015
77249W        W48865  22.073   3.386   2.548
77250W        W48866  11.179  37.119  12.989
77251W        W48867  44.084  23.140  14.515
77252W        W48868   5.677  27.638   0.408
77253W        W48869  28.056  12.605  10.387
77254W        W48870  11.958   3.849   3.754
77255W        W48871  35.227  29.455  14.728
77256W        W48872  41.348  28.918   3.164
77257W        W48873  17.555  31.118  11.577
77258W        W48874  39.856  41.217  11.246
77259W        W48875  43.924  27.654   4.311
77260W        W48876   3.937  18.607   0.217
77261W        W48877  35.550  36.388  14.270
77262W        W48878   1.472   8.884  12.967
77263W        W48879  33.513  18.931   1.303
77264W        W48880  36.917  30.139   0.291
77265W        W48881  21.176  38.806   0.482
77266W        W48882  18.774  32.163   0.470
77267W        W48883  12.136  35.954  13.020
77268W        W48884  12.379  14.019  11.521
77269W        W48885   4.893  24.926   0.408
77270W        W48886  33.049  13.840  14.299
77271W        W48887  24.251  12.149  12.978
77272W        W48888  14.262  35.733  10.736
77273W        W48889   0.814  35.367   2.290
77274W        W48890   0.756  19.588  14.900
77275W        W48891  21.210   7.723   0.458
77276W        W48892   6.302  18.448   4.530
77277W        W48893  44.387  37.100  11.108
77278W        W48894   8.376  41.387   1.290
77279W        W48895  26.354   7.936  11.150
77280W        W48896   7.800  42.498   1.451
77281W        W48897  12.557  12.335  14.405
77282W        W48898   9.793   2.211   0.753
77283W        W48899  32.128  34.175   3.465
77284W        W48900   0.504  41.732  11.595
77285W        W48901  41.985  10.615  14.416
77286W        W48902   3.309  42.430  10.900
77287W        W48903  14.258  44.047  11.178
77288W        W48904   2.518  24.654  11.404
77289W        W48905  35.734  28.838   4.324
77290W        W48906  29.717  38.928  10.733
77291W        W48907  43.015   4.380   0.678
77292W        W48908  40.699  39.258  14.043
77293W        W48909  35.797  27.988   3.292
77294W        W48910  12.079  26.629  10.229
77295W        W48911  22.227   0.432   0.029
77296W        W48912  19.929  34.498  12.045
77297W        W48913  29.919  39.037  12.029
77298W        W48914  32.427  30.981  10.710
77299W        W48915   7.457  36.833  13.778
77300W        W48916   5.383  18.777   0.255
77301W        W48917  23.667  10.391  12.967
77302W        W48918   7.787  22.537  14.474
77303W        W48919   2.180  39.972  13.535
77304W        W48920   4.298  44.312  11.941
77305W        W48921  15.368  15.117  12.915
77306W        W48922  27.828  43.223   0.302
77307W        W48923  17.789  24.259   0.470
77308W        W48924   9.595  22.444   1.942
77309W        W48925   0.821   5.344  13.531
77310W        W48926  32.084  15.846   0.551
77311W        W48927  38.057   6.267   0.309
77312W        W48928  33.611  13.603  13.386
77313W        W48929  12.425  43.866   2.811
77314W        W48930  20.744   5.438   2.363
77315W        W48931  28.980  20.660   0.046
77316W        W48932  39.360  42.912  12.911
77317W        W48933   5.326  29.954   4.623
77318W        W48934   3.810  17.049   2.208
77319W        W48935   4.808  32.636   2.304
77320W        W48936  33.424   2.752  14.822
77321W        W48937  20.485  42.409  14.399
77322W        W48938  34.347  39.510  14.536
77323W        W48939  26.453   9.677  12.846
77324W        W48940  31.947  28.818   5.105
77325W        W48941  12.146  30.044   2.234
77326W        W48942   1.660  41.717  12.918
77327W        W48943  23.140   0.804   4.043
77328W        W48944  40.608   1.023  11.033
77329W        W48945  44.843  42.975   1.794
77330W        W48946  23.552  33.558   3.644
77331W        W48947  11.658   4.428  12.507
77332W        W48948   9.465  35.874  10.802
77333W        W48949   9.842  12.187  12.559
77334W        W48950  20.530  11.170   0.891
77335W        W48951  36.529  32.241   3.644
77336W        W48952  13.837  26.069  13.222
77337W        W48953  17.274  41.909  11.676
77338W        W48954  25.026  21.743   2.081
77339W        W48955   8.906   6.856   3.209
77340W        W48956   3.693   4.111   0.489
77341W        W48957   7.435   6.724   0.544
77342W        W48958  13.362  36.912   0.777
77343W        W48959   2.866  18.820   2.844
77344W        W48960  34.332   6.405   4.636
77345W        W48961  28.519   1.187  12.992
77346W        W48962   9.777   4.197  11.111
77347W        W48963  34.126   3.998  10.580
77348W        W48964  32.442  34.535   2.846
77349W        W48965  24.955  22.239   1.856
77350W        W48966  33.610  28.129   0.965
77351W        W48967  13.692  38.831  12.967
77352W        W48968  44.385  29.391   4.687
77353W        W48969   1.715  12.074   1.507
77354W        W48970   2.932  34.993   0.002
77355W        W48971  12.193   6.704   3.270
77356W        W48972   7.254  34.042   2.239
77357W        W48973  42.449  35.487   1.134
77358W        W48974  30.195  28.563   0.908
77359W        W48975  37.822   5.192   1.720
77360W        W48976  22.965  37.787   2.382
77361W        W48977  32.564   5.826   4.569
77362W        W48978   5.874  13.881  11.431
77363W        W48979   0.028  31.413  10.935
77364W        W48980   3.468  15.144   3.369
77365W        W48981   3.787  28.465  11.865
77366W        W48982  35.152  34.584   3.600
77367W        W48983  22.934  17.619   2.647
77368W        W48984  38.345  26.266  11.542
77369W        W48985  34.244  43.059  12.142
77370W        W48986   0.748   3.922   2.812
77371W        W48987  38.316  43.969  14.327
77372W        W48988  36.716  30.376  13.990
77373W        W48989   9.271  21.354   2.081
77374W        W48990  38.701  29.791   1.615
77375W        W48991  22.398  40.554   2.432
77376W        W48992  25.747  36.083   0.296
77377W        W48993  14.529  30.563  13.055
77378W        W48994  39.088  25.303   4.116
77379W        W48995  36.001   8.022   1.736
77380W        W48996  43.345  13.311   0.658
77381W        W48997  18.465   8.838  13.000
77382W        W48998  18.834  11.142  14.100
77383W        W48999  19.860  14.003  13.438
77384W        W49000  10.253  36.017   0.843
77385W        W49001  26.446  31.512  11.575
77386W        W49002  19.831  31.176  13.013
77387W        W49003   0.518  10.126   1.306
77388W        W49004  19.507  14.746  13.884
77389W        W49005  12.115  21.620  13.951
77390W        W49006   9.936  34.350  14.852
77391W        W49007   2.044  41.099  11.014
77392W        W49008  22.476  38.943   1.295
77393W        W49009  16.025  18.494   4.608
77394W        W49010  44.144  20.574   0.862
77395W        W49011   2.025   8.727   4.238
77396W        W49012  21.461  36.350  10.550
77397W        W49013  20.621  42.336   3.692
77398W        W49014   8.549  42.790   1.249
77399W        W49015   6.935  37.387  11.630
77400W        W49016  31.132  24.265   4.770
77401W        W49017   3.917  25.518  14.443
77402W        W49018  34.459  34.035   3.879
77403W        W49019   7.266  15.146  14.226
77404W        W49020  16.202  20.267  11.953
77405W        W49021  10.129  44.047  12.944
77406W        W49022   7.587   8.642  11.028
77407W        W49023  13.154  10.159  10.409
77408W        W49024   9.252  23.960   1.157
77409W        W49025  18.047  23.983  12.973
77410W        W49026  21.235  19.289   1.217
77411W        W49027  43.972  18.790   1.724
77412W        W49028   3.332  39.299  10.865
77413W        W49029  37.325  20.521  11.089
77414W        W49030   4.059  19.007  13.374
77415W        W49031  32.728  36.408  14.350
77416W        W49032   7.581  17.165  11.642
77417W        W49033  30.166  42.762   1.381
77418W        W49034   1.185  44.549   0.928
77419W        W49035  27.551  23.639   0.314
77420W        W49036  37.467  23.911  11.137
77421W        W49037  43.279  38.798   4.226
77422W        W49038  39.895  24.752   2.533
77423W        W49039  44.669  32.465   3.739
77424W        W49040  12.271   0.473   0.980
77425W        W49041  37.621   7.169  10.782
77426W        W49042  15.650  41.366  10.364
77427W        W49043   6.209  17.055   1.287
77428W        W49044  11.810  22.983   4.246
77429W        W49045  31.917   2.574  12.907
77430W        W49046  41.807  32.018  12.470
77431W        W49047  36.856  28.148   1.278
77432W        W49048  28.133  32.151  11.944
77433W        W49049  31.069  30.172   9.788
77434W        W49050  31.501   5.340   0.313
77435W        W49051  38.865   4.187  13.795
77436W        W49052  12.956  25.181  14.719
77437W        W49053  44.368  22.689   2.271
77438W        W49054  29.546  30.919  10.521
77439W        W49055  26.956  22.482   4.517
77440W        W49056   8.473  39.339  14.053
77441W        W49057  19.112  13.851  10.740
77442W        W49058  42.544  25.729  14.289
77443W        W49059  25.924  32.669   1.176
77444W        W49060  42.040  39.954   0.952
77445W        W49061  27.132  21.443   3.351
77446W        W49062  43.491  15.199   4.744
77447W        W49063  39.019  43.200   0.648
77448W        W49064  41.983  11.355   3.685
77449W        W49065   2.218  20.223   0.811
77450W        W49066  42.763   0.090  11.054
77451W        W49067  33.907  44.688   3.622
77452W        W49068  10.864   8.420   2.388
77453W        W49069  42.413  44.721  10.983
77454W        W49070  11.761   7.355  14.473
77455W        W49071  41.993  40.077  11.584
77456W        W49072   2.986  30.073  14.947
77457W        W49073  39.902   4.921  14.318
77458W        W49074  20.711  12.473   0.388
77459W        W49075  10.448  10.307   4.828
77460W        W49076  12.356  42.842  11.091
77461W        W49077   2.408   3.957  14.393
77462W        W49078  24.374   4.072   4.467
77463W        W49079  22.806  23.680  10.866
77464W        W49080  25.474  30.460  12.884
77465W        W49081   7.549  18.612   4.491
77466W        W49082   2.726  12.294  13.143
77467W        W49083  31.833   2.236   9.755
77468W        W49084  39.795  12.847   5.439
77469W        W49085  11.696   3.513   0.416
77470W        W49086   8.702  11.620   4.573
77471W        W49087  26.868   9.327   3.348
77472W        W49088   7.640  27.077   2.344
77473W        W49089  32.466   1.195  12.087
77474W        W49090  38.392  32.649   0.646
77475W        W49091   5.029  30.264   3.319
77476W        W49092  31.602  27.032   1.256
77477W        W49093  34.682   2.503  10.694
77478W        W49094  43.151  37.466  10.712
77479W        W49095  16.570   4.408  12.096
77480W        W49096  14.796   6.279   1.938
77481W        W49097  21.111  36.576   0.972
77482W        W49098  27.087  35.983   3.754
77483W        W49099  11.033  38.515   0.441
77484W        W49100   2.834   0.751   2.638
77485W        W49101  40.843  11.281   4.404
77486W        W49102  12.051  19.226   2.921
77487W        W49103  24.600  40.723  13.825
77488W        W49104  10.330   5.798   4.411
77489W        W49105   6.249  31.550  14.766
77490W        W49106   5.177  36.039  11.360
77491W        W49107   7.330  25.628   2.620
77492W        W49108  43.389   5.878   4.849
77493W        W49109  38.332  34.305   4.108
77494W        W49110   3.001  12.625   2.250
77495W        W49111  19.643  11.836   3.640
77496W        W49112  26.488  23.966  14.529
77497W        W49113  24.181  15.208   0.946
77498W        W49114  38.613  32.129  13.986
77499W        W49115   8.143  31.993   4.168
77500W        W49116  27.726  35.866  10.864
77501W        W49117   1.566   8.301  12.180
77502W        W49118  19.156  21.829   3.607
77503W        W49119  37.621  34.580  14.480
77504W        W49120  18.751   4.856   5.087
77505W        W49121   3.919  10.478  11.088
77506W        W49122  19.920   1.801  12.030
77507W        W49123  39.425  11.896  10.627
77508W        W49124   7.360  12.056  14.366
77509W        W49125   6.316  15.681  13.892
77510W        W49126  29.871  17.872   2.818
77511W        W49127  36.471  25.293   5.243
77512W        W49128   8.716  38.102  14.283
77513W        W49129  23.414   2.492   1.107
77514W        W49130   3.316  42.135  12.398
77515W        W49131  44.277  19.093   1.403
77516W        W49132  21.568  30.444  14.391
77517W        W49133  27.557  39.724   4.286
77518W        W49134  11.785   4.333   4.561
77519W        W49135  37.096  11.912  14.445
77520W        W49136  34.851  16.108   2.752
77521W        W49137  43.384  27.613  14.755
77522W        W49138  19.342  42.884   5.450
77523W        W49139  29.199  31.755  13.412
77524W        W49140  23.949   1.337  12.545
77525W        W49141  18.532  28.122  13.988
77526W        W49142  12.645  42.961  10.682
77527W        W49143  38.799  38.284  12.041
77528W        W49144  18.540  12.873   3.079
77529W        W49145  40.189   9.187  11.617
77530W        W49146   3.787  32.394   2.696
77531W        W49147   4.048  19.654  10.712
77532W        W49148  29.204   3.917  12.818
77533W        W49149  37.771  37.162   1.794
77534W        W49150  17.479  11.128   3.970
77535W        W49151  31.020  43.907   4.635
77536W        W49152  21.515  32.411   1.420
77537W        W49153  19.746  41.935   4.516
77538W        W49154  43.770  37.826   1.030
77539W        W49155  18.775  10.304   1.696
77540W        W49156  44.059  34.476  11.378
77541W        W49157   8.237  16.627  10.657
77542W        W49158   9.159  35.376   0.628
77543W        W49159  14.138  32.721  14.193
77544W        W49160  18.252  12.741   3.590
77545W        W49161  22.912  35.775  11.975
77546W        W49162  34.946  10.772   2.200
77547W        W49163   7.397  37.950  13.361
77548W        W49164  33.452  31.250   1.702
77549W        W49165  41.809  30.581  13.933
77550W        W49166  35.553  39.078  14.875
77551W        W49167  17.083  25.226  14.927
77552W        W49168  44.038   9.091  10.649
77553W        W49169  39.553  39.448  13.458
77554W        W49170  19.585  24.248  14.687
77555W        W49171   2.298  39.981  11.639
77556W        W49172  40.837  27.393  10.626
77557W        W49173  35.028  30.417   3.688
77558W        W49174  40.806   0.876   2.783
77559W        W49175  39.296  19.535   3.672
77560W        W49176  19.060  38.619  10.409
77561W        W49177  14.923  17.550  14.957
77562W        W49178  28.664  33.525  12.450
77563W        W49179  39.388  14.815   4.050
77564W        W49180   6.625  19.229   0.459
77565W        W49181  19.225   5.386  13.037
77566W        W49182  22.471  15.695   3.031
77567W        W49183  20.206  28.110   1.315
77568W        W49184  27.498  32.906  13.523
77569W        W49185  16.330  14.219  13.145
77570W        W49186  31.154  11.554  13.430
77571W        W49187  11.226  11.228  14.375
77572W        W49188  28.932  19.601   3.642
77573W        W49189  43.395  36.068  10.996
77574W        W49190  39.919  38.802  13.109
77575W        W49191  19.339  18.247   0.681
77576W        W49192  16.876   5.700   4.502
77577W        W49193  20.151  27.030  11.160
77578W        W49194  36.291  20.284  12.784
77579W        W49195   9.886  22.921   1.843
77580W        W49196   5.180   7.197   4.592
77581W        W49197  43.383  12.907  10.701
77582W        W49198  30.287   3.967   4.496
77583W        W49199  23.244   6.630   0.488
77584W        W49200  18.226   4.726   3.327
77585W        W49201  12.915  35.590   4.339
77586W        W49202   8.305  33.136   3.231
77587W        W49203   8.882  19.796   2.496
77588W        W49204   1.252  43.795  13.287
77589W        W49205  23.845  12.672  11.615
77590W        W49206  26.003  10.648   1.448
77591W        W49207   9.604  31.914   4.628
77592W        W49208   9.659   2.193   3.246
77593W        W49209  39.055   7.525  10.554
77594W        W49210   7.963  19.736  11.601
77595W        W49211   0.471   2.043   2.315
77596W        W49212   5.484  31.499   0.987
77597W        W49213  16.552   4.108   1.291
77598W        W49214  36.510  14.217  10.956
77599W        W49215  35.521  23.502   2.771
77600W        W49216  29.594   5.157  12.375
77601W        W49217  24.922  17.253  14.196
77602W        W49218  22.169  42.357   2.180
77603W        W49219   7.676  13.395  13.339
77604W        W49220  40.010  22.519  13.870
77605W        W49221   2.449   9.656   0.506
77606W        W49222  36.567   2.443  12.174
77607W        W49223   4.944  27.063  13.119
77608W        W49224   7.138  14.253  10.697
77609W        W49225   3.684  42.163  11.151
77610W        W49226  18.333  11.710   0.417
77611W        W49227   4.317  35.705  14.563
77612W        W49228  23.050  25.739  13.421
77613W        W49229   9.697  41.326   1.709
77614W        W49230   1.971  22.113  14.323
77615W        W49231  21.686  14.137  13.329
77616W        W49232  30.114  24.561   2.806
77617W        W49233   1.442  44.977  11.475
77618W        W49234  25.472  14.799  14.459
77619W        W49235  28.958  31.753   2.696
77620W        W49236   2.765   0.917  11.121
77621W        W49237  28.374   6.632   1.257
77622W        W49238  16.173  19.304   3.569
77623W        W49239  18.420  19.226  11.228
77624W        W49240  41.920   1.766   0.180
77625W        W49241  23.535  22.091  13.030
77626W        W49242  31.874   2.241  10.700
77627W        W49243  39.656  39.119  11.714
77628W        W49244   8.754  12.359   0.923
77629W        W49245  14.766  29.758  10.778
77630W        W49246   2.816  10.188   0.792
77631W        W49247   4.266   1.355   0.510
77632W        W49248  30.576  44.175  11.624
77633W        W49249   8.447   5.323   1.393
77634W        W49250  33.698   2.249  13.847
77635W        W49251  15.041  29.368  11.431
77636W        W49252   8.848   9.591   0.357
77637W        W49253  35.421   9.803   2.211
77638W        W49254  42.827  20.205  14.021
77639W        W49255  31.563   1.577  14.674
77640W        W49256  34.937  10.784   4.535
77641W        W49257  11.583  33.518   1.877
77642W        W49258   8.217  27.557  11.134
77643W        W49259  34.454   4.257   2.195
77644W        W49260  33.147  44.597   4.979
77645W        W49261   9.392  12.729   0.206
77646W        W49262  31.142  21.770  11.934
77647W        W49263   9.271  39.701  13.275
77648W        W49264   7.871   0.434   2.166
77649W        W49265  29.131  40.336   3.895
77650W        W49266  25.629  20.589  12.502
77651W        W49267  13.243  37.623   4.261
77652W        W49268  29.636  22.664   5.153
77653W        W49269  25.683  10.100   3.258
77654W        W49270  44.324  20.782   0.335
77655W        W49271   4.787  40.138   4.712
77656W        W49272  39.568  37.220  12.460
77657W        W49273   2.333  29.666  11.238
77658W        W49274   1.767   3.070  10.931
77659W        W49275  12.216  10.697   2.468
77660W        W49276  33.013  22.744  13.101
77661W        W49277  36.887   4.658  11.474
77662W        W49278  17.227   2.444   4.060
77663W        W49279  32.945  28.995   4.281
77664W        W49280  42.402   9.260   4.368
77665W        W49281  25.686  25.400   1.658
77666W        W49282  19.877  38.675  12.664
77667W        W49283  17.608  40.536   2.876
77668W        W49284  44.361  30.909  10.415
77669W        W49285  20.556  17.968  12.470
77670W        W49286  31.652  40.353  13.920
77671W        W49287  16.773   8.886   0.449
77672W        W49288  28.000  22.440   3.081
77673W        W49289  11.732  37.383   2.926
77674W        W49290   2.828  14.779  14.943
77675W        W49291  40.325  23.969   4.272
77676W        W49292  14.544  18.901  14.201
77677W        W49293   6.994  17.642   1.346
77678W        W49294  41.504   2.558   0.314
77679W        W49295  27.181  27.038   1.359
77680W        W49296  11.825  41.851  13.290
77681W        W49297  32.455  35.112  10.927
77682W        W49298  44.519  21.268   2.134
77683W        W49299  27.013  12.248   3.295
77684W        W49300  11.126  15.477  14.312
77685W        W49301  40.988  38.054  11.526
77686W        W49302  32.770  32.927   2.085
77687W        W49303  37.104  24.052   2.638
77688W        W49304  28.113  21.772  14.891
77689W        W49305  13.184  34.296   4.585
77690W        W49306  43.402  35.397   9.739
77691W        W49307   7.291  23.288   1.344
77692W        W49308  40.278  39.326  14.802
77693W        W49309  40.960   0.263   2.672
77694W        W49310  17.221  19.325  12.027
77695W        W49311  26.492   4.747  12.968
77696W        W49312   9.972  43.910  13.872
77697W        W49313   8.117  30.346  13.945
77698W        W49314  21.619  18.654   0.182
77699W        W49315  40.499  37.435   3.593
77700W        W49316  13.152  42.076  12.010
77701W        W49317  41.754  26.463  13.412
77702W        W49318  37.133   0.913   1.946
77703W        W49319  28.412  34.609   3.587
77704W        W49320   4.892  16.130   0.869
77705W        W49321  26.309  24.798  13.536
77706W        W49322  30.366  29.119  14.321
77707W        W49323  16.849   2.834  13.024
77708W        W49324  19.144  35.393   0.821
77709W        W49325  42.485  44.794  14.764
77710W        W49326  28.639  28.965  10.363
77711W        W49327   5.686   8.126  14.390
77712W        W49328  24.825  36.451  14.315
77713W        W49329  36.683  32.300   2.308
77714W        W49330  16.179  17.424  14.510
77715W        W49331   8.377  39.863   2.787
77716W        W49332  12.327   3.827   1.531
77717W        W49333   8.445  29.370  13.375
77718W        W49334  31.630  22.092   2.638
77719W        W49335  41.431   1.463  13.490
77720W        W49336  18.065  21.784   3.679
77721W        W49337   1.177   1.729  11.136
77722W        W49338  11.315   6.766   0.332
77723W        W49339   9.314   9.838   4.097
77724W        W49340  17.478  15.854   3.833
77725W        W49341  27.634  36.179   4.391
77726W        W49342  16.161   0.516  13.025
77727W        W49343  36.621  39.969  14.468
77728W        W49344  29.574  43.442   1.041
77729W        W49345   8.693  23.145   0.395
77730W        W49346  19.177  27.370   3.968
77731W        W49347  18.186  34.204  13.521
77732W        W49348  25.088   4.700  11.461
77733W        W49349   9.252  42.366   0.950
77734W        W49350  32.880  19.732  12.369
77735W        W49351  35.165  22.136   0.564
77736W        W49352  12.153  23.576  10.792
77737W        W49353  41.420  19.053   3.124
77738W        W49354  22.647   0.529  12.428
77739W        W49355  18.669  19.202   2.708
77740W        W49356   2.780  42.337   1.729
77741W        W49357  17.646  24.746   0.320
77742W        W49358  15.992  42.076  12.632
77743W        W49359  27.548  25.725   3.405
77744W        W49360  27.355   5.939  13.980
77745W        W49361  43.924   8.514   1.895
77746W        W49362  15.119   9.352   0.821
77747W        W49363  34.408  14.022  14.573
77748W        W49364  29.331  30.091  11.919
77749W        W49365  41.187  30.466   2.819
77750W        W49366  44.900  36.485  13.300
77751W        W49367   0.919  37.929   3.295
77752W        W49368  10.253   7.867   2.655
77753W        W49369  39.118  31.915  13.996
77754W        W49370  32.411   4.289  14.748
77755W        W49371  32.630   1.601   0.319
77756W        W49372  25.111  16.778   1.459
77757W        W49373  12.426  33.958  11.103
77758W        W49374  30.499   4.304   2.360
77759W        W49375  33.131  21.290  13.940
77760W        W49376  31.410  21.073   3.115
77761W        W49377  24.047   6.961   2.722
77762W        W49378  14.644   3.593  10.053
77763W        W49379  43.954  29.867  12.554
77764W        W49380  41.048  15.174   4.715
77765W        W49381   0.884  40.509   4.363
77766W        W49382  17.969  12.769  11.150
77767W        W49383  33.429  16.779  13.492
77768W        W49384  43.262  34.326  14.363
77769W        W49385   6.008  18.724  12.992
77770W        W49386   1.005  14.155   4.131
77771W        W49387  22.130   7.603   0.251
77772W        W49388  37.598  28.461  13.259
77773W        W49389   0.504  32.841  12.436
77774W        W49390  34.098   9.038  13.819
77775W        W49391  24.749  16.809  11.193
77776W        W49392   7.780  40.945  10.767
77777W        W49393  16.341  43.521   1.742
77778W        W49394   5.533   7.806   1.740
77779W        W49395  31.577  21.282  14.837
77780W        W49396  22.462  27.659  14.526
77781W        W49397  34.657  22.257  10.985
77782W        W49398  20.573  21.767  11.539
77783W        W49399  35.498  25.679   4.397
77784W        W49400  35.082  44.660   3.147
77785W        W49401  37.014  20.277   0.860
77786W        W49402   8.943  35.876  14.851
77787W        W49403  28.640   8.882  10.436
77788W        W49404  17.097  15.212   2.371
77789W        W49405   4.298  26.016  13.919
77790W        W49406  33.110  18.708   5.209
77791W        W49407  15.732   2.851   1.014
77792W        W49408  24.094  27.435   4.156
77793W        W49409  22.666  40.376   4.106
77794W        W49410  33.861  36.004   1.693
77795W        W49411  14.714  14.182   0.643
77796W        W49412  28.189  30.541   3.364
77797W        W49413  28.608  32.983  12.366
77798W        W49414   4.687  26.423   0.197
77799W        W49415  18.782  12.768   0.355
77800W        W49416  24.876   2.239  13.075
77801W        W49417  35.247  20.618   4.554
77802W        W49418   2.888  11.668  11.890
77803W        W49419  33.077  44.393  10.554
77804W        W49420  35.574   5.837  12.836
77805W        W49421   4.544  19.222   0.382
77806W        W49422   9.009   1.533   5.007
77807W        W49423  27.148  39.838   0.329
77808W        W49424   3.490  10.880   2.482
77809W        W49425  30.585  29.116  10.894
77810W        W49426  30.050  12.624   2.674
77811W        W49427  11.918  37.442   3.793
77812W        W49428  41.983  37.079   0.144
77813W        W49429   6.924  43.820   0.894
77814W        W49430  25.186   5.877   0.828
77815W        W49431  25.755  19.536  11.978
77816W        W49432  20.459   9.204  14.743
77817W        W49433  26.491  29.616  13.723
77818W        W49434  29.376   5.319   2.769
77819W        W49435  42.848  27.985  12.447
77820W        W49436  43.788   8.937   0.821
77821W        W49437  21.491   5.168  11.412
77822W        W49438  37.084  13.944  10.005
77823W        W49439  13.781   1.027   2.824
77824W        W49440  39.293  31.340   1.838
77825W        W49441  32.853  31.079  13.914
77826W        W49442  28.155  30.046  12.449
77827W        W49443  17.754  14.010  14.957
77828W        W49444   4.533   3.653   0.862
77829W        W49445  30.888  33.721  12.978
77830W        W49446  28.130  16.091   0.930
77831W        W49447  34.619  30.946   3.221
77832W        W49448  19.958  11.566  13.361
77833W        W49449   5.300  17.653   4.805
77834W        W49450   9.815   6.829  10.994
77835W        W49451  35.587  10.802   3.914
77836W        W49452  11.600  15.054   1.379
77837W        W49453  21.392   4.666   1.697
77838W        W49454  25.333  32.197  12.104
77839W        W49455   9.794  13.597   1.437
77840W        W49456  36.562  11.497  12.078
77841W        W49457  11.245  28.477  10.994
77842W        W49458  31.563  34.118  14.732
77843W        W49459  11.783   4.704  13.435
77844W        W49460  13.156   8.292  12.099
77845W        W49461  23.755   6.594   0.525
77846W        W49462  18.613  44.891   2.331
77847W        W49463   4.737  32.574  11.054
77848W        W49464   6.969  35.298   3.674
77849W        W49465  37.043   4.495  12.993
77850W        W49466  29.873  35.200   0.916
77851W        W49467   0.933  14.696   1.359
77852W        W49468   8.871  31.896   0.821
77853W        W49469  24.502  41.820   3.740
77854W        W49470  24.005  25.258   1.957
77855W        W49471   8.274  36.980   2.728
77856W        W49472   0.765  18.586   3.203
77857W        W49473  36.277  18.866   2.376
77858W        W49474  19.391  43.768   5.024
77859W        W49475   1.340  41.445   3.766
77860W        W49476  32.603  40.316  13.968
77861W        W49477  16.850  19.916   3.355
77862W        W49478  34.111  28.962   2.453
77863W        W49479   4.420  31.641  12.239
77864W        W49480  39.630   8.118   0.795
77865W        W49481  24.827  44.386   3.728
77866W        W49482   3.734  20.461  14.469
77867W        W49483  23.099  33.168  11.776
77868W        W49484  39.767  40.767   3.305
77869W        W49485   7.736  13.834   3.222
77870W        W49486   9.658  29.616  14.418
77871W        W49487  20.160  17.418  13.711
77872W        W49488  34.371  26.651  14.139
77873W        W49489  29.180  29.468   2.253
77874W        W49490   9.615  10.915  11.665
77875W        W49491  25.611  24.037   3.416
77876W        W49492  39.512  17.371   0.373
77877W        W49493   6.431  12.984   4.049
77878W        W49494  25.438  17.171  11.964
77879W        W49495  31.065   1.928  14.674
77880W        W49496   7.680   4.903  10.738
77881W        W49497   5.240  16.120   3.402
77882W        W49498  15.757  18.370  12.434
77883W        W49499  38.544  38.346   3.136
77884W        W49500  10.670   0.824  10.758
77885W        W49501  35.689  11.703   0.796
77886W        W49502  37.110  28.849   2.588
77887W        W49503  28.988  37.371   1.718
77888W        W49504  35.288   3.931   2.795
77889W        W49505   8.353   7.636  12.066
77890W        W49506  32.474  37.272  13.076
77891W        W49507   8.069  41.490   4.357
77892W        W49508  40.924  26.222  14.055
77893W        W49509  22.980   9.381   2.845
77894W        W49510   4.827  16.153  14.170
77895W        W49511  20.303   2.276   1.684
77896W        W49512  19.098  12.137   3.547
77897W        W49513  24.265  16.602  13.421
77898W        W49514  22.208  13.694  11.568
77899W        W49515   1.254   5.946  11.967
77900W        W49516  21.168  40.591  14.763
77901W        W49517  13.753  33.413  11.935
77902W        W49518  11.827  24.523   4.142
77903W        W49519  34.839  22.150   3.228
77904W        W49520  38.372   9.633  12.940
77905W        W49521  16.152  32.221  12.032
77906W        W49522   3.272   1.410  12.344
77907W        W49523  22.770   5.195   2.233
77908W        W49524  27.635  23.703   3.042
77909W        W49525  33.459  14.328   0.524
77910W        W49526  38.863  14.003   3.269
77911W        W49527  43.967  39.447  12.565
77912W        W49528   4.934  39.398   1.891
77913W        W49529  29.086   7.021  12.464
77914W        W49530  27.011  41.896   0.293
77915W        W49531  40.256   7.695   4.891
77916W        W49532   9.095  20.681   0.148
77917W        W49533   6.933  16.226  11.206
77918W        W49534  16.512  37.828   4.704
77919W        W49535  27.151   0.967  11.032
77920W        W49536  28.036  28.616   2.243
77921W        W49537  21.821  21.547   2.242
77922W        W49538  15.542  36.088  11.219
77923W        W49539  33.612   1.990  11.547
77924W        W49540  12.454  22.464  11.161
77925W        W49541   4.799   5.834  13.625
77926W        W49542  42.981  37.873  13.211
77927W        W49543  19.634  35.776  11.536
77928W        W49544   2.083  41.517   3.235
77929W        W49545   2.707  22.547  13.867
77930W        W49546   9.693  39.943  12.139
77931W        W49547  23.009  23.165  14.505
77932W        W49548  10.929  18.343  11.222
77933W        W49549   9.228  29.394  13.388
77934W        W49550   3.901  24.896   1.245
77935W        W49551  36.031  39.507  12.657
77936W        W49552  25.404  30.089   1.177
77937W        W49553  23.633  41.555   1.869
77938W        W49554   3.812  10.889  10.719
77939W        W49555  41.829  19.920   4.232
77940W        W49556  17.863  26.425  11.065
77941W        W49557  31.035  29.078   1.014
77942W        W49558  19.709  42.301   0.973
77943W        W49559  24.071  36.817  11.720
77944W        W49560   0.366  10.863  10.633
77945W        W49561  11.213  26.362  12.052
77946W        W49562  42.518   3.397   4.525
77947W        W49563  13.826  22.497   2.845
77948W        W49564  38.072   6.801   1.710
77949W        W49565  17.206  29.613  12.169
77950W        W49566   8.208  44.596  10.765
77951W        W49567  28.252  17.831   3.896
77952W        W49568  34.486  44.718  10.149
77953W        W49569   9.235   9.840   1.146
77954W        W49570  41.469   2.977  11.103
77955W        W49571  25.070   3.297  11.165
77956W        W49572  42.471   7.823  12.649
77957W        W49573  17.832  42.536   0.992
77958W        W49574  32.060  39.577   3.622
77959W        W49575   1.944   7.846   0.267
77960W        W49576  32.280  43.212   2.360
77961W        W49577   1.191  31.878  13.792
77962W        W49578  24.262   7.632  11.631
77963W        W49579  32.502   9.251   4.984
77964W        W49580   6.228  14.001  13.193
77965W        W49581  20.639  15.702   3.687
77966W        W49582   7.568  17.838  11.791
77967W        W49583  39.156   4.574   4.690
77968W        W49584  17.816  38.069  13.346
77969W        W49585   7.894  41.340  10.462
77970W        W49586  36.444  12.561   5.185
77971W        W49587   9.967  39.899   2.486
77972W        W49588  15.749  12.079   2.445
77973W        W49589  21.724  18.201   0.406
77974W        W49590  16.501  32.967  12.608
77975W        W49591  13.345  17.521   3.849
77976W        W49592   8.490   8.225  14.542
77977W        W49593  15.677  29.913  14.870
77978W        W49594  10.626  14.286   0.885
77979W        W49595   3.115  35.375   3.614
77980W        W49596   5.668  13.590   0.485
77981W        W49597  41.271  30.486  13.912
77982W        W49598  40.377   1.522   4.573
77983W        W49599  16.781   1.344   2.343
77984W        W49600  15.796   1.998  14.985
77985W        W49601  16.305  21.200  12.467
77986W        W49602  31.503  35.355  12.650
77987W        W49603  30.110  30.573   2.460
77988W        W49604   5.275   9.621   4.954
77989W        W49605  13.250   2.751   4.202
77990W        W49606   4.563   8.709   5.017
77991W        W49607  39.971  21.698   1.350
77992W        W49608  31.765  31.558   3.248
77993W        W49609   1.495  19.680   1.991
77994W        W49610  12.449  26.974  12.241
77995W        W49611  33.166  24.599  13.523
77996W        W49612  28.660  33.945  14.974
77997W        W49613  44.799  36.381   0.126
77998W        W49614  15.703  19.499  14.713
77999W        W49615  38.566   0.249   3.404
78000W        W49616  21.578  11.818   4.101
78001W        W49617  28.964   2.755  11.545
78002W        W49618  10.844  11.780   4.808
78003W        W49619  16.109  42.497   2.655
78004W        W49620  10.278  27.743  13.486
78005W        W49621  22.494  28.688  11.626
78006W        W49622  39.470  25.192   4.482
78007W        W49623  35.417   2.971   3.480
78008W        W49624  35.950   5.198   1.357
78009W        W49625  27.930   1.885   3.625
78010W        W49626  44.123  35.853  13.467
78011W        W49627  26.513  18.655  14.512
78012W        W49628   0.247  38.435   2.790
78013W        W49629   8.318  16.654   1.890
78014W        W49630  41.762   2.481   3.759
78015W        W49631  11.847  41.985  10.882
78016W        W49632  11.177  21.101  11.411
78017W        W49633  31.997  24.599   2.300
78018W        W49634   8.410  18.795   4.187
78019W        W49635  14.626  40.816  11.648
78020W        W49636  40.952  26.388   1.870
78021W        W49637  19.091   9.354   3.860
78022W        W49638  18.090   7.329  13.706
78023W        W49639  18.798  21.685   4.393
78024W        W49640  24.630  27.870   3.573
78025W        W49641  37.874  20.673  11.211
78026W        W49642  32.586  38.841   1.874
78027W        W49643  37.853  23.162  11.099
78028W        W49644  11.836  32.125   4.029
78029W        W49645   0.481  10.708  14.896
78030W        W49646   7.212  39.809  12.022
78031W        W49647  23.722  31.013   0.333
78032W        W49648  14.550  28.988  11.954
78033W        W49649  15.366   2.384   1.207
78034W        W49650  15.641  32.751  14.529
78035W        W49651  29.062  35.451   2.699
78036W        W49652  16.100  33.151   4.111
78037W        W49653   7.632  14.564   1.356
78038W        W49654   4.254  28.922   0.456
78039W        W49655  25.032  24.387   1.394
78040W        W49656  28.682  29.559  13.807
78041W        W49657  13.593  34.916   2.743
78042W        W49658   4.453   2.246   3.059
78043W        W49659  42.507   7.840  12.150
78044W        W49660  40.372  21.550  11.338
78045W        W49661  25.785   8.186  11.074
78046W        W49662  19.202  35.548   1.906
78047W        W49663  30.512   6.456  13.371
78048W        W49664  30.127  37.606  10.665
78049W        W49665  29.395  26.562   2.254
78050W        W49666  21.982   8.556   1.731
78051W        W49667   9.015  32.488   1.288
78052W        W49668  26.192  19.117   3.521
78053W        W49669  14.547   4.383   0.513
78054W        W49670  44.016   7.173   0.392
78055W        W49671  13.055  34.979   3.640
78056W        W49672  20.313  42.238  13.057
78057W        W49673  30.354  32.425  13.804
78058W        W49674  25.538  37.598   1.331
78059W        W49675  39.049  20.582  12.526
78060W        W49676  17.351   2.196  13.471
78061W        W49677   8.139   9.268   0.597
78062W        W49678   2.027  18.551   0.570
78063W        W49679  34.627  25.716  13.760
78064W        W49680  14.241  15.266  12.434
78065W        W49681  18.491  13.744  14.386
78066W        W49682  42.806  19.699   4.495
78067W        W49683   2.726  10.792  14.903
78068W        W49684   5.849   3.386  13.033
78069W        W49685  15.755  31.475   2.032
78070W        W49686  38.966  18.117   0.303
78071W        W49687   2.036   0.925   0.415
78072W        W49688  32.267   4.479   3.269
78073W        W49689  17.973   4.365   0.263
78074W        W49690  23.056  43.857   0.336
78075W        W49691   9.921  36.544  12.801
78076W        W49692  30.887  31.008   1.533
78077W        W49693  39.458  10.271   1.181
78078W        W49694   8.797  28.523  12.302
78079W        W49695  33.470  22.230  12.456
78080W        W49696  31.594  42.087   2.688
78081W        W49697  40.712  40.075   0.417
78082W        W49698  20.556   2.673   3.222
78083W        W49699  34.585  20.898  10.651
78084W        W49700  22.577  29.494  14.557
78085W        W49701  41.184   3.018   4.214
78086W        W49702   7.637  34.965   1.960
78087W        W49703  39.608  15.206   3.224
78088W        W49704  17.989  32.488   2.645
78089W        W49705   6.024   4.651   2.348
78090W        W49706   2.773   2.949   4.259
78091W        W49707  38.976   9.856  13.971
78092W        W49708  12.344  41.399  13.805
78093W        W49709  15.197   6.817  13.016
78094W        W49710  39.424  14.787  13.805
78095W        W49711  28.509   7.466  14.759
78096W        W49712  37.388  10.627  12.195
78097W        W49713  31.203  19.783   3.145
78098W        W49714  36.468  21.488   4.703
78099W        W49715  37.924  38.938  11.298
78100W        W49716  11.091  18.202   3.924
78101W        W49717   5.396  33.730   4.078
78102W        W49718  12.698  35.743   3.278
78103W        W49719  18.182  23.069  10.509
78104W        W49720  43.899   3.323  12.839
78105W        W49721  26.392  37.979   3.907
78106W        W49722  17.662  31.087   3.212
78107W        W49723   6.988   1.109   3.614
78108W        W49724  36.789   0.229   2.889
78109W        W49725   1.457  14.612  11.902
78110W        W49726  38.813  17.675   1.638
78111W        W49727  18.209   2.214  13.032
78112W        W49728  15.854  35.506   2.843
78113W        W49729   9.883  16.650  11.616
78114W        W49730  28.430  35.565  10.776
78115W        W49731   2.286  39.226   4.670
78116W        W49732  11.361  28.208   4.310
78117W        W49733  40.751   0.032  10.667
78118W        W49734  19.090  26.223  12.419
78119W        W49735  31.658  44.444   0.853
78120W        W49736  17.736  24.765  13.823
78121W        W49737  26.712  18.099  14.843
78122W        W49738  21.415  31.421   1.741
78123W        W49739  18.204   9.953   9.918
78124W        W49740  24.639   2.752   0.841
78125W        W49741  18.978  37.873  13.972
78126W        W49742  30.476  32.088   2.331
78127W        W49743  21.813  21.460  10.899
78128W        W49744  35.942  35.745   1.880
78129W        W49745  42.296  23.177   4.594
78130W        W49746  42.397  33.389  13.965
78131W        W49747  17.311  20.542  10.678
78132W        W49748   2.664  27.237  13.300
78133W        W49749  14.651  27.567  14.044
78134W        W49750  32.532  15.803  10.389
78135W        W49751  33.488  42.860  10.182
78136W        W49752  16.503  28.600   1.921
78137W        W49753  39.016   0.995   3.175
78138W        W49754   7.264  17.588  13.551
78139W        W49755  10.549  38.688  14.825
78140W        W49756   6.013  44.605   4.470
78141W        W49757   4.514  28.043   4.845
78142W        W49758  30.408  12.788   3.576
78143W        W49759  32.869  13.631  13.848
78144W        W49760  19.138  29.827   1.880
78145W        W49761  13.694  41.998   0.749
78146W        W49762  38.847  15.962   3.369
78147W        W49763  42.796   2.698  12.632
78148W        W49764  32.918  39.030  14.030
78149W        W49765  44.685  31.054  10.803
78150W        W49766  20.170  25.509   1.339
78151W        W49767  35.478   4.735  13.313
78152W        W49768  14.476  26.854   0.300
78153W        W49769  36.623  33.409  14.375
78154W        W49770  39.889  25.389   3.230
78155W        W49771  27.730  34.388  14.862
78156W        W49772  36.557  38.502   2.873
78157W        W49773   1.351  10.046   1.831
78158W        W49774  44.049  42.549  12.060
78159W        W49775   2.441  35.999  10.300
78160W        W49776  12.551  15.196   4.882
78161W        W49777  21.573  17.856  11.852
78162W        W49778   7.674  24.356   2.683
78163W        W49779  34.000  24.003  11.090
78164W        W49780  19.107   0.927  13.283
78165W        W49781  40.279   8.898   2.609
78166W        W49782   3.987   4.138  12.381
78167W        W49783  10.212  33.930   1.741
78168W        W49784   4.282  40.986  11.611
78169W        W49785  15.356   2.896  12.129
78170W        W49786  39.846   7.840  12.920
78171W        W49787  28.702  13.759  10.290
78172W        W49788  36.878  40.255   3.815
78173W        W49789  39.344  20.517   3.216
78174W        W49790  13.238  23.541   2.248
78175W        W49791  23.503  39.316   1.208
78176W        W49792  39.665  11.006  13.951
78177W        W49793  13.727  26.282  14.984
78178W        W49794  41.142  26.020   4.319
78179W        W49795   2.691  10.390   1.874
78180W        W49796   8.141  35.984  11.642
78181W        W49797   9.377   0.697  12.889
78182W        W49798   9.274  14.722   4.391
78183W        W49799  21.852  25.220   1.105
78184W        W49800  34.119   7.885  14.816
78185W        W49801  17.340  14.788   1.273
78186W        W49802  36.323   3.601  11.585
78187W        W49803  20.342  13.838  10.615
78188W        W49804   7.245   2.892  11.319
78189W        W49805  42.501  41.922  14.116
78190W        W49806  33.724  27.511   1.677
78191W        W49807  27.682   0.065   4.538
78192W        W49808  43.047  17.630   2.731
78193W        W49809  30.098  25.185  12.338
78194W        W49810  38.575  40.019  12.570
78195W        W49811  43.530  16.242   2.152
78196W        W49812  32.405   1.049   2.666
78197W        W49813  13.590  35.472  14.583
78198W        W49814   3.587  39.080   1.809
78199W        W49815  34.470   5.725   4.143
78200W        W49816  18.331  37.684   0.734
78201W        W49817  19.016  38.977   0.876
78202W        W49818   9.389  23.636  12.784
78203W        W49819   1.737  22.667   0.502
78204W        W49820  20.844  43.897  14.416
78205W        W49821   8.201  17.258  10.733
78206W        W49822   5.441   8.688   1.812
78207W        W49823  11.522  22.254   3.108
78208W        W49824  24.365  13.886  12.819
78209W        W49825  44.450  15.568  11.646
78210W        W49826   9.744  16.253  10.406
78211W        W49827  36.918  32.685  11.982
78212W        W49828  32.930  25.219  12.139
78213W        W49829  25.708  44.860   2.654
78214W        W49830   9.400   8.425   3.666
78215W        W49831   5.462  29.643   1.229
78216W        W49832  26.528  33.995   0.005
78217W        W49833  23.705  37.846   1.351
78218W        W49834   8.869  25.181   2.794
78219W        W49835  20.886   9.124   2.642
78220W        W49836  32.869  22.122   4.791
78221W        W49837  15.746  31.654  13.788
78222W        W49838  18.616  35.373  13.536
78223W        W49839  44.502  12.184  12.771
78224W        W49840  21.234  32.594  14.813
78225W        W49841  18.217  39.179   4.186
78226W        W49842  28.094   1.838   5.064
78227W        W49843  16.904  17.878   4.583
78228W        W49844   9.352  31.819  10.597
78229W        W49845  16.657  16.249  14.789
78230W        W49846   2.528  24.934  14.397
78231W        W49847  29.428  22.262  12.819
78232W        W49848   8.671  40.447  13.387
78233W        W49849  31.908   6.360  11.485
78234W        W49850  18.182  39.294  14.548
78235W        W49851   8.426  40.165  11.080
78236W        W49852  43.436   8.805   1.903
78237W        W49853  27.722   6.140   4.659
78238W        W49854  20.743  37.925   4.602
78239W        W49855  26.156  15.872   2.944
78240W        W49856  25.003  12.690  13.012
78241W        W49857  30.096   0.434  11.754
78242W        W49858  32.863   5.918   0.725
78243W        W49859  44.465   8.909   1.870
78244W        W49860   8.124  27.746   1.861
78245W        W49861  17.159   8.366  14.003
78246W        W49862   1.977  27.532   1.224
78247W        W49863   2.233  19.644   2.852
78248W        W49864  28.918  23.522  10.714
78249W        W49865  31.539  39.808  13.002
78250W        W49866  44.755  18.649  12.167
78251W        W49867  33.458   3.877   2.839
78252W        W49868  20.601  17.667   2.633
78253W        W49869  26.431  23.231  13.202
78254W        W49870  14.097  19.330   4.798
78255W        W49871  20.532  10.020  11.980
78256W        W49872   3.954  25.432  12.638
78257W        W49873  37.892  15.541   0.414
78258W        W49874   8.632  40.570   1.084
78259W        W49875  18.117  14.248   1.710
78260W        W49876  41.370  40.092  11.136
78261W        W49877  27.191  34.549   2.956
78262W        W49878  37.604  15.886  14.474
78263W        W49879  19.491  23.506  11.986
78264W        W49880  19.451   0.163   5.438
78265W        W49881  26.068  10.905  14.284
78266W        W49882  36.901  16.915  11.534
78267W        W49883  42.283   3.436  11.480
78268W        W49884  16.569   0.214  11.646
78269W        W49885  20.175  29.583   4.901
78270W        W49886  35.446  24.222   0.900
78271W        W49887  30.058  37.070  12.850
78272W        W49888  15.772   0.937  14.319
78273W        W49889  21.151  30.466   0.743
78274W        W49890  10.693  39.402  12.521
78275W        W49891  13.714  19.348  12.020
78276W        W49892  14.264  34.450  14.528
78277W        W49893   6.419  44.012  13.534
78278W        W49894  38.330  24.972   0.052
78279W        W49895   0.454  22.798  14.996
78280W        W49896  25.456   3.497   0.861
78281W        W49897  44.967  44.775  10.854
78282W        W49898  12.594  28.119   0.391
78283W        W49899   3.887  22.992  13.047
78284W        W49900  22.563   9.106  12.105
78285W        W49901  32.031  22.569  10.304
78286W        W49902  12.187   6.225  14.066
78287W        W49903  23.432  10.751   0.417
78288W        W49904   9.159  17.647  14.801
78289W        W49905  20.977  30.688   0.278
78290W        W49906  19.252  36.099  14.005
78291W        W49907  39.076  29.848  13.618
78292W        W49908  10.779  14.616   4.290
78293W        W49909  20.930  34.369   5.046
78294W        W49910  20.071  30.539   0.229
78295W        W49911  26.591  37.120   4.573
78296W        W49912   1.895  23.045   0.806
78297W        W49913  20.488   9.828  13.614
78298W        W49914  12.810   1.299  11.973
78299W        W49915  44.297   5.400  13.571
78300W        W49916  13.221   2.360  13.217
78301W        W49917  29.663  24.023  13.098
78302W        W49918  20.876  34.376   3.810
78303W        W49919  41.394  30.261   3.283
78304W        W49920  14.230  19.146  11.428
78305W        W49921  33.491   9.255  13.074
78306W        W49922  11.741  15.377  12.481
78307W        W49923  27.227  32.889   3.221
78308W        W49924  23.116  28.194  11.647
78309W        W49925  26.084  34.114  14.244
78310W        W49926  31.751  18.280   0.299
78311W        W49927  41.041  40.527  12.427
78312W        W49928  38.480  21.519  12.024
78313W        W49929  19.705  32.205   0.882
78314W        W49930  34.673  19.013   4.068
78315W        W49931  19.799   0.781  11.905
78316W        W49932  42.736   9.251  12.900
78317W        W49933  17.502  22.267  11.168
78318W        W49934  43.969  37.665  11.631
78319W        W49935  12.086   7.320  12.999
78320W        W49936   4.883  15.948   4.634
78321W        W49937  33.184  37.065   0.236
78322W        W49938  22.101  28.726   4.479
78323W        W49939  36.892  38.078  14.380
78324W        W49940  33.319  39.970   1.439
78325W        W49941  28.300  33.433   3.829
78326W        W49942  33.923  20.499   0.630
78327W        W49943   4.278  23.917  13.931
78328W        W49944  44.204   7.328  12.998
78329W        W49945  44.287   9.342  14.995
78330W        W49946  29.886  22.473  10.948
78331W        W49947   5.313  10.141  14.351
78332W        W49948  13.091  10.281   3.998
78333W        W49949  24.690  10.882  14.947
78334W        W49950  40.380   1.510  14.807
78335W        W49951  22.897   0.224   0.513
78336W        W49952  29.527  29.487  14.489
78337W        W49953  16.143  32.713  12.941
78338W        W49954  18.556   3.972   2.896
78339W        W49955  11.674  43.991  14.795
78340W        W49956  22.476  10.288  14.481
78341W        W49957  15.629   3.626   1.271
78342W        W49958   4.709   4.690   4.532
78343W        W49959  18.943  37.035   1.149
78344W        W49960  25.621  16.068   3.689
78345W        W49961  26.040   9.089  10.628
78346W        W49962  41.939  42.078   2.585
78347W        W49963  18.526  16.142   0.837
78348W        W49964  36.450  41.026  11.602
78349W        W49965  37.602  22.769  12.008
78350W        W49966  32.139  29.468  14.459
78351W        W49967   9.184  30.881  11.611
78352W        W49968  42.320  37.645   5.478
78353W        W49969  29.562  43.962   3.290
78354W        W49970  22.694   7.288  14.307
78355W        W49971  11.108  32.206  13.438
78356W        W49972  26.941  32.619  14.012
78357W        W49973   8.572  33.939   0.845
78358W        W49974   5.593  18.089  12.518
78359W        W49975  20.681  42.012  10.734
78360W        W49976  19.327  18.267   3.119
78361W        W49977   5.786   6.462   4.464
78362W        W49978   5.851  10.351  10.776
78363W        W49979  31.376  16.032   2.117
78364W        W49980  18.219  11.161  12.544
78365W        W49981  30.082  38.988  12.693
78366W        W49982  44.087  38.502   0.977
78367W        W49983  42.183   0.002   4.054
78368W        W49984  11.615   3.495   5.378
78369W        W49985   7.437  11.140   0.719
78370W        W49986  28.925  14.284  11.060
78371W        W49987   7.867  23.550  12.274
78372W        W49988   9.826  37.655   0.718
78373W        W49989  42.537  26.031  10.729
78374W        W49990  19.062   1.229  14.952
78375W        W49991  10.700  25.090  14.416
78376W        W49992   9.100  40.797  11.064
78377W        W49993  13.677  13.100   3.686
78378W        W49994  27.579  36.631   0.460
78379W        W49995  22.976  39.949  12.140
78380W        W49996  12.846   4.822   2.801
78381W        W49997  20.946  19.767  10.115
78382W        W49998  41.345  21.095  13.917
78383W        W49999   6.470  21.117   1.852
78384W        W50000  17.285  26.172  14.569
78385W        W50001  37.137  35.791  12.055
78386W        W50002  29.915  10.199  11.429
78387W        W50003   6.406  44.195   2.366
78388W        W50004  18.600  35.156  11.999
78389W        W50005  24.676  20.696   3.134
78390W        W50006  37.018  38.387  12.066
78391W        W50007  34.520  41.044  14.336
78392W        W50008  42.582  13.766   3.718
78393W        W50009  24.445  22.806  11.212
78394W        W50010  19.042  13.776  11.602
78395W        W50011  31.766  25.189   1.375
78396W        W50012  11.614  12.207   1.870
78397W        W50013  31.416   6.556   0.046
78398W        W50014  32.961  27.942  10.770
78399W        W50015  27.488  12.660   2.865
78400W        W50016  24.919  38.095  12.384
78401W        W50017  20.690  11.889   2.313
78402W        W50018  30.946  32.314  11.143
78403W        W50019  20.176  44.027  11.993
78404W        W50020  21.110  17.695  11.579
78405W        W50021  36.740  34.558  12.034
78406W        W50022  24.956  44.401  11.066
78407W        W50023  20.968   9.658  13.093
78408W        W50024  21.661  24.468  10.753
78409W        W50025  32.028  28.823   2.957
78410W        W50026  37.898  11.250  11.851
78411W        W50027  30.118  10.189  14.785
78412W        W50028  13.770   9.161   1.895
78413W        W50029  34.727  28.956  11.000
78414W        W50030  34.336  17.264   3.417
78415W        W50031  18.277   0.717  11.235
78416W        W50032  23.165  44.088   1.426
78417W        W50033  15.546  43.722   2.336
78418W        W50034  41.323  10.399   1.267
78419W        W50035  11.351  35.634  14.370
78420W        W50036   4.871  20.842  13.187
78421W        W50037  29.119  19.600  10.716
78422W        W50038  24.654  34.574  14.333
78423W        W50039  32.676  43.465   2.080
78424W        W50040  16.739  38.073  11.002
78425W        W50041  13.330  21.167   5.162
78426W        W50042  26.068  39.434   0.929
78427W        W50043  11.297  27.110  10.672
78428W        W50044  21.359  11.593   1.753
78429W        W50045   0.822  36.968   0.766
78430W        W50046   4.867   5.543  11.199
78431W        W50047   0.825   8.288   0.950
78432W        W50048   5.710   6.322  11.324
78433W        W50049  26.720  11.845   4.977
78434W        W50050  23.171  44.753   0.525
78435W        W50051  18.943  43.898   2.126
78436W        W50052  37.663  41.468   0.015
78437W        W50053  25.139  37.629  11.544
78438W        W50054  23.004   6.341   1.910
78439W        W50055  17.514  10.621   4.551
78440W        W50056  35.145  13.645  13.472
78441W        W50057  40.103  40.996   4.614
78442W        W50058   6.741  16.872   4.479
78443W        W50059  25.286  20.575  13.809
78444W        W50060  28.136  28.455   4.401
78445W        W50061  16.580  43.011  14.967
78446W        W50062   9.554   4.330   1.891
78447W        W50063  11.114  31.172   3.168
78448W        W50064  31.898  32.305  12.069
78449W        W50065  23.503   6.157   2.807
78450W        W50066   9.737  15.177  12.481
78451W        W50067   1.700  13.748  11.070
78452W        W50068  39.315   5.231  13.735
78453W        W50069   5.007  15.478  14.757
78454W        W50070  25.361  25.647   0.383
78455W        W50071  34.832   4.701   2.750
78456W        W50072  30.485  21.088   2.051
78457W        W50073  39.393   6.633  13.206
78458W        W50074  43.582  14.855  12.505
78459W        W50075  26.771  23.164  10.560
78460W        W50076   4.427  42.082  10.570
78461W        W50077  28.893  12.151  14.186
78462W        W50078  19.213   5.452   0.944
78463W        W50079  31.633  10.717  10.582
78464W        W50080  29.499  42.515   1.879
78465W        W50081  29.513  29.498  11.157
78466W        W50082   0.800   0.047   2.693
78467W        W50083  20.741  31.461   3.431
78468W        W50084  32.905  36.941  14.804
78469W        W50085   0.255  22.561  10.889
78470W        W50086  35.440   0.435  12.329
78471W        W50087  31.149   3.370  14.916
78472W        W50088  28.608  12.873  13.590
78473W        W50089  35.537   2.352  14.809
78474W        W50090  24.027   0.951   4.552
78475W        W50091  36.637  14.227   0.394
78476W        W50092   4.530  18.726  12.481
78477W        W50093  33.029   7.899  13.397
78478W        W50094  37.972  36.272   0.027
78479W        W50095  29.532  25.756  12.570
78480W        W50096  39.058  19.161   4.355
78481W        W50097  42.907  35.785  14.030
78482W        W50098  41.487  38.370   1.131
78483W        W50099  38.807   4.898   4.228
78484W        W50100  31.988   4.949  11.540
78485W        W50101  34.330  38.874  14.643
78486W        W50102  34.979  13.872  12.973
78487W        W50103  36.528   6.881  12.566
78488W        W50104  44.290  40.471   0.646
78489W        W50105  28.174   1.743   1.646
78490W        W50106  13.321  43.539   3.296
78491W        W50107  37.491  29.855  13.367
78492W        W50108  18.136  43.991   4.136
78493W        W50109  34.258  21.614   3.719
78494W        W50110   1.434  20.640  10.639
78495W        W50111  35.926   8.438  10.488
78496W        W50112  32.091  21.171   4.661
78497W        W50113  21.690   6.839   3.765
78498W        W50114  34.932   2.193   2.371
78499W        W50115  26.259  22.334  12.840
78500W        W50116  11.680  42.704  13.330
78501W        W50117  30.527  15.233  13.879
78502W        W50118  42.950  17.195  12.910
78503W        W50119  13.336  17.154   0.570
78504W        W50120  23.488  25.973  13.543
78505W        W50121   0.534  16.734   0.782
78506W        W50122  34.184  21.297   3.306
78507W        W50123   3.374  29.135  14.317
78508W        W50124  15.890   3.719  14.141
78509W        W50125   3.237  10.364  14.686
78510W        W50126  34.912  27.373  14.301
78511W        W50127  38.789  42.308   0.834
78512W        W50128  24.947  27.616  11.462
78513W        W50129   8.863  35.935   3.940
78514W        W50130  38.276  17.099   2.738
78515W        W50131  34.956   2.897   3.194
78516W        W50132  30.895   1.892  12.627
78517W        W50133  44.480  18.659  10.717
78518W        W50134  16.662  37.579   2.259
78519W        W50135   8.523  23.552   1.854
78520W        W50136  44.748  34.833   0.401
78521W        W50137  27.900  40.453   0.236
78522W        W50138  13.196  30.198   2.333
78523W        W50139  28.767  29.344   9.613
78524W        W50140  41.761   9.987  11.016
78525W        W50141  34.115  35.905  13.495
78526W        W50142   6.051  35.564   3.162
78527W        W50143  21.324  26.262  12.022
78528W        W50144   7.496  32.101  12.409
78529W        W50145  10.094  16.569  13.384
78530W        W50146  29.619   9.118  12.013
78531W        W50147  22.989  10.377  14.483
78532W        W50148   1.074  30.964  10.492
78533W        W50149  31.199   6.413   3.175
78534W        W50150  43.974   2.708  14.243
78535W        W50151  33.722  13.255   0.803
78536W        W50152  24.683   0.111   0.791
78537W        W50153  32.456   2.073   3.186
78538W        W50154  25.536   6.350  12.934
78539W        W50155  39.998  21.551   1.844
78540W        W50156  41.368   5.319   1.627
78541W        W50157  42.067  21.972   1.729
78542W        W50158  28.230   8.748   4.611
78543W        W50159   6.827  38.062  12.560
78544W        W50160  43.584  30.350  14.884
78545W        W50161  38.431   8.199  14.737
78546W        W50162   3.895  18.308  11.983
78547W        W50163   5.136   7.720   0.398
78548W        W50164  31.575  41.094   4.649
78549W        W50165  33.403  19.956   1.166
78550W        W50166  42.976   2.299   2.680
78551W        W50167  42.587  44.339   3.812
78552W        W50168   6.730  30.600  13.953
78553W        W50169  24.959  40.973  12.205
78554W        W50170   0.944  39.264  11.562
78555W        W50171  18.299  16.133   3.243
78556W        W50172   8.957  11.397  11.156
78557W        W50173  15.785   2.706   4.897
78558W        W50174  41.236  38.042   2.837
78559W        W50175  35.500  33.006   4.550
78560W        W50176  42.877   0.310   3.753
78561W        W50177  33.389   6.383   3.876
78562W        W50178  29.331  21.562   4.134
78563W        W50179  13.853  31.941   1.201
78564W        W50180  21.899  36.633  10.553
78565W        W50181   0.343   3.343  10.934
78566W        W50182  17.105  11.858   1.375
78567W        W50183  21.591  37.917   0.360
78568W        W50184  17.163  40.495   4.763
78569W        W50185  42.879  33.935  14.015
78570W        W50186  14.794  10.403  11.215
78571W        W50187  31.063  39.041   5.164
78572W        W50188  41.537  30.082   2.779
78573W        W50189  41.842  44.041  14.238
78574W        W50190  13.341  21.802   3.298
78575W        W50191   6.331  35.380  14.425
78576W        W50192  32.085  29.091   0.215
78577W        W50193   6.730  17.722   4.581
78578W        W50194  43.286  40.363   4.823
78579W        W50195  23.113  13.598   0.830
78580W        W50196   2.238  27.471  11.051
78581W        W50197  37.784  42.569  10.670
78582W        W50198  44.550   5.788   3.212
78583W        W50199  32.595  27.705   3.206
78584W        W50200  12.282   7.863  14.806
78585W        W50201   2.008   5.261  11.194
78586W        W50202  41.276  31.319   2.904
78587W        W50203  44.946  10.700  14.938
78588W        W50204  36.965  36.460  11.243
78589W        W50205   2.343   5.587  11.019
78590W        W50206   5.706  22.702   3.217
78591W        W50207   2.022   7.687  13.794
78592W        W50208  16.523  39.861  12.453
78593W        W50209   9.592  20.628   1.488
78594W        W50210  38.317   2.053   4.265
78595W        W50211  42.856   1.592   4.875
78596W        W50212   4.312  18.588  12.049
78597W        W50213  33.406  18.488  11.740
78598W        W50214  23.953  41.790   3.686
78599W        W50215   7.515   4.288   3.767
78600W        W50216  25.510  21.577   4.431
78601W        W50217  33.894  15.271   0.878
78602W        W50218  19.091  15.501   0.327
78603W        W50219  10.243  12.348   3.847
78604W        W50220  16.871  31.697  14.467
78605W        W50221  36.127  15.330   2.844
78606W        W50222  41.439  18.699  11.448
78607W        W50223  40.014  44.148  11.967
78608W        W50224  43.273  12.365  13.657
78609W        W50225  18.563  42.521  11.526
78610W        W50226   5.392  43.590   3.431
78611W        W50227  13.547  30.896   1.743
78612W        W50228  25.000  14.417   3.906
78613W        W50229  44.965  32.036   2.767
78614W        W50230  25.558  11.190   1.703
78615W        W50231  13.418  21.602   3.788
78616W        W50232  41.861  11.872  12.642
78617W        W50233  34.090   5.010   4.124
78618W        W50234   2.844  17.282   3.671
78619W        W50235  12.316   4.508   2.276
78620W        W50236  21.184  10.802   2.706
78621W        W50237  35.523  31.507  10.668
78622W        W50238  27.346  11.201   3.291
78623W        W50239  41.513  10.106  12.406
78624W        W50240   2.829  31.276  14.144
78625W        W50241  42.016  37.784  13.489
78626W        W50242  31.068  27.748   5.506
78627W        W50243  40.141   0.927   3.786
78628W        W50244  25.229  19.205   1.734
78629W        W50245  14.411  17.481  11.442
78630W        W50246  38.307  39.248  14.386
78631W        W50247  30.106  38.354   3.730
78632W        W50248   6.016   4.954   3.243
78633W        W50249  38.375  27.944  12.361
78634W        W50250  32.601  38.317  11.401
78635W        W50251  28.672  41.657   3.671
78636W        W50252  21.393   2.403   3.765
78637W        W50253  14.124  26.210  12.456
78638W        W50254  33.078  31.980   2.316
78639W        W50255   5.046   3.466   5.168
78640W        W50256  17.884   7.447  12.803
78641W        W50257  22.568  15.563  12.941
78642W        W50258  30.596  43.414   0.881
78643W        W50259  13.156  10.648  13.282
78644W        W50260  17.241  44.482   9.788
78645W        W50261  20.669   7.450  14.268
78646W        W50262  15.325  27.886  13.850
78647W        W50263  21.087  19.463  10.544
78648W        W50264  31.408  34.155  11.143
78649W        W50265  18.266  26.487  13.849
78650W        W50266   4.484  13.210   1.246
78651W        W50267  12.411  25.414   4.149
78652W        W50268  16.236  43.047  11.054
78653W        W50269  37.910   8.182   1.881
78654W        W50270  42.813  39.472  12.221
78655W        W50271  35.525  17.094   3.400
78656W        W50272  36.874  43.584  12.442
78657W        W50273   2.771  14.103   3.824
78658W        W50274   7.289  13.043   0.898
78659W        W50275  34.832   3.250  14.939
78660W        W50276  12.579  43.377   2.835
78661W        W50277  31.012  31.100   2.885
78662W        W50278  34.495   9.121  11.694
78663W        W50279   8.021  23.736  10.835
78664W        W50280  22.314  39.049   4.601
78665W        W50281  10.190  18.586   1.745
78666W        W50282  41.672  16.626  13.023
78667W        W50283  36.380   2.059  11.311
78668W        W50284  44.013   1.921   4.764
78669W        W50285   5.896   0.194  12.985
78670W        W50286  15.420  18.292  12.829
78671W        W50287   0.044  19.477   0.410
78672W        W50288  40.280  20.068  14.942
78673W        W50289  42.919  14.272  14.068
78674W        W50290  23.433  20.586   4.520
78675W        W50291   5.951   1.963  13.928
78676W        W50292  10.367  10.226  13.373
78677W        W50293   7.710  33.608  12.988
78678W        W50294  35.093  12.172   2.271
78679W        W50295  39.977  11.731   2.725
78680W        W50296  28.539  33.828  14.450
78681W        W50297  11.325  18.651   2.289
78682W        W50298   2.232  43.307   9.877
78683W        W50299   8.334  39.552  11.785
78684W        W50300  25.929   5.332   0.654
78685W        W50301   8.650   8.671   4.060
78686W        W50302  21.036  25.710  13.033
78687W        W50303  12.487  34.898   2.761
78688W        W50304  11.355  30.667   2.752
78689W        W50305  39.928  12.659   0.009
78690W        W50306  38.169  11.717  13.880
78691W        W50307  11.391  28.483  13.008
78692W        W50308   2.817  22.749  11.591
78693W        W50309   2.013  42.768   0.752
78694W        W50310  30.351  26.188  11.188
78695W        W50311  14.283   9.395   4.387
78696W        W50312  33.000  43.919  11.869
78697W        W50313   0.910   7.298  14.971
78698W        W50314  38.429   8.219  13.407
78699W        W50315  25.134  29.151   0.772
78700W        W50316  32.461  17.812  10.693
78701W        W50317  30.310  33.463  10.476
78702W        W50318   4.434  32.045  11.916
78703W        W50319   8.813   2.726   4.602
78704W        W50320  37.845  27.533   2.394
78705W        W50321  19.173  38.781  14.414
78706W        W50322   7.407  21.279  11.162
78707W        W50323  14.751  26.915   3.331
78708W        W50324  27.548   8.145   3.185
78709W        W50325  17.033  20.286   0.148
78710W        W50326  42.824   3.797  13.432
78711W        W50327   7.658  29.164   2.611
78712W        W50328  16.455  34.980  11.936
78713W        W50329   3.728  42.020   3.257
78714W        W50330  34.609   6.640   1.296
78715W        W50331   5.930  12.047  13.154
78716W        W50332   5.279  14.076   4.312
78717W        W50333   1.344  14.869  13.360
78718W        W50334   2.330   2.663   4.116
78719W        W50335  24.972  41.851   1.238
78720W        W50336  31.691  37.057  11.061
78721W        W50337  40.597   5.795   2.224
78722W        W50338  20.596  40.797  12.082
78723W        W50339  32.532  11.214   1.666
78724W        W50340   6.251  18.696  10.740
78725W        W50341   6.583   5.846  11.536
78726W        W50342   6.353  27.474  11.145
78727W        W50343  42.549  44.064   1.339
78728W        W50344   5.992  27.025   0.776
78729W        W50345  12.822  23.003  11.967
78730W        W50346   7.642   7.110  13.674
78731W        W50347  38.629   9.654  14.326
78732W        W50348  40.853  16.626   4.442
78733W        W50349  31.517   1.459  13.362
78734W        W50350  40.077  33.195  13.443
78735W        W50351  42.854  29.385   3.841
78736W        W50352  42.368   0.751  14.813
78737W        W50353  11.111   5.315   2.721
78738W        W50354  43.699  26.254  11.932
78739W        W50355  19.717  44.495   2.203
78740W        W50356  31.466  26.064   4.551
78741W        W50357  23.196  39.356  10.374
78742W        W50358  17.082  33.376   4.196
78743W        W50359  10.935  16.091  13.627
78744W        W50360  12.900  28.609  12.674
78745W        W50361  32.993  14.857   4.070
78746W        W50362   1.755  44.474  13.046
78747W        W50363  42.813  17.523   4.845
78748W        W50364   5.281   1.871   0.760
78749W        W50365  29.461   8.897   0.290
78750W        W50366   2.870  21.218   3.783
78751W        W50367  17.141  24.057  13.324
78752W        W50368  26.215  41.344   4.644
78753W        W50369  14.488  31.197   3.693
78754W        W50370  18.784  44.944  12.979
78755W        W50371  37.273  41.313   1.289
78756W        W50372   5.923  37.563  11.522
78757W        W50373  20.833  29.157  11.634
78758W        W50374  35.409  25.568  10.665
78759W        W50375  22.948  20.120  12.725
78760W        W50376  11.018  27.047  13.438
78761W        W50377  17.893  23.063  13.826
78762W        W50378  16.473  16.393  14.318
78763W        W50379  32.667   9.667   4.718
78764W        W50380   2.290  10.093   0.731
78765W        W50381  31.555  43.784   4.442
78766W        W50382  27.128  41.654  14.814
78767W        W50383  13.188  33.315   4.534
78768W        W50384  18.743  16.135   4.502
78769W        W50385   6.953  26.833  10.515
78770W        W50386  25.100  30.499   1.467
78771W        W50387  44.291  33.838  13.330
78772W        W50388   6.131   1.176   3.160
78773W        W50389  39.405   9.738  11.965
78774W        W50390  39.336   7.641   4.544
78775W        W50391  25.157   7.380   0.971
78776W        W50392  26.500  13.270   9.834
78777W        W50393   7.441  18.481   1.787
78778W        W50394   8.227  43.956  12.515
78779W        W50395   0.977  25.033  10.592
78780W        W50396   0.318  29.966  10.691
78781W        W50397  14.995  40.916  14.883
78782W        W50398  44.157   4.595  11.704
78783W        W50399  16.763  22.176   4.662
78784W        W50400  35.989   1.012  10.628
78785W        W50401  29.522  44.921  13.920
78786W        W50402  31.187  40.559  14.062
78787W        W50403  24.506  35.015   4.983
78788W        W50404  11.799  12.689  11.757
78789W        W50405  34.836  43.985   4.291
78790W        W50406   9.697  24.492  14.363
78791W        W50407  33.017  37.558  13.816
78792W        W50408  29.661   5.072  10.375
78793W        W50409  32.818  22.534   0.878
78794W        W50410  33.532   7.277  13.275
78795W        W50411  41.773   5.909   4.878
78796W        W50412  10.145  36.395   1.679
78797W        W50413   5.472  38.262  11.594
78798W        W50414   9.806  30.402  13.089
78799W        W50415   2.256  23.651  11.933
78800W        W50416  44.924  18.608  14.319
78801W        W50417  25.598  14.593   4.593
78802W        W50418   9.086  12.640  13.447
78803W        W50419  35.423  15.628  12.493
78804W        W50420  14.699  39.564  10.505
78805W        W50421  43.306   1.445   2.165
78806W        W50422   5.519  27.414   4.253
78807W        W50423  18.612  12.392   3.227
78808W        W50424  32.736  43.539  11.604
78809W        W50425  12.194   6.760  13.900
78810W        W50426  21.232  39.327  14.339
78811W        W50427  11.332  25.508  12.596
78812W        W50428  17.683  19.547   1.193
78813W        W50429  25.865  39.983  11.043
78814W        W50430   8.715  41.215  11.326
78815W        W50431  10.256  33.599   2.230
78816W        W50432  39.483  40.302   4.485
78817W        W50433   7.883  25.776   3.646
78818W        W50434  12.111  33.376  10.336
78819W        W50435   4.547  15.241   2.714
78820W        W50436  41.320  43.529   3.968
78821W        W50437  28.006  20.260  12.361
78822W        W50438  35.760   2.450   1.777
78823W        W50439  34.511  37.481  12.355
78824W        W50440  18.155  33.567  11.400
78825W        W50441  32.029  36.437  13.584
78826W        W50442  24.005   5.947   2.190
78827W        W50443  42.263  25.099  10.140
78828W        W50444   5.349  40.264   4.144
78829W        W50445  18.334  27.530   1.286
78830W        W50446   0.281   1.541   2.394
78831W        W50447  24.473  31.532  10.811
78832W        W50448  37.164  28.203  11.175
78833W        W50449  19.697  30.076  14.435
78834W        W50450  14.296  13.091  14.146
78835W        W50451   7.018  23.705   3.092
78836W        W50452  15.285   0.798   4.916
78837W        W50453   8.417  35.125  10.748
78838W        W50454  16.155  30.127   3.303
78839W        W50455  36.989  33.206  11.133
78840W        W50456  24.523  38.891   1.863
78841W        W50457  40.263  10.627  12.080
78842W        W50458  34.174   1.552   3.977
78843W        W50459  14.863   9.676   2.793
78844W        W50460  44.191   0.938   1.965
78845W        W50461   6.960  10.127  11.136
78846W        W50462  34.373  28.117   0.258
78847W        W50463  23.669  29.567   4.408
78848W        W50464  18.778  14.379   0.861
78849W        W50465   5.936  38.334   1.179
78850W        W50466   8.288  39.443   3.086
78851W        W50467  23.478   6.295  14.274
78852W        W50468   6.990  30.711   1.246
78853W        W50469   7.027  38.322  12.125
78854W        W50470  29.573   9.592   4.601
78855W        W50471  44.990  23.526   4.377
78856W        W50472   6.325  29.963   4.156
78857W        W50473   6.250  26.076   1.874
78858W        W50474  29.983  36.438  12.874
78859W        W50475  21.933  13.780   1.392
78860W        W50476  16.186  27.516  10.407
78861W        W50477  30.998  44.650   5.604
78862W        W50478  19.176  43.083  11.103
78863W        W50479   9.422  31.052   4.005
78864W        W50480   2.687  22.581  12.509
78865W        W50481  36.994  31.049  13.739
78866W        W50482  27.866  24.484  14.367
78867W        W50483  39.527  20.401   4.648
78868W        W50484  36.080  39.356   0.513
78869W        W50485  26.211  19.314  13.848
78870W        W50486  10.921  33.892   2.699
78871W        W50487  25.126  17.557  12.054
78872W        W50488   8.929  28.414   3.723
78873W        W50489  42.119   8.799  13.091
78874W        W50490  35.646  19.837  11.864
78875W        W50491  23.263  30.204  11.295
78876W        W50492   5.164  13.900  13.926
78877W        W50493  31.884   7.328   4.205
78878W        W50494  25.051  22.916  12.969
78879W        W50495  18.650  29.623  13.054
78880W        W50496  23.759  12.327   1.896
78881W        W50497  27.518   9.685   1.226
78882W        W50498   2.242  27.017  14.491
78883W        W50499  21.700   6.295  14.495
78884W        W50500  33.261  16.669  13.000
78885W        W50501  35.398  20.076  10.480
78886W        W50502   7.635  21.437   4.162
78887W        W50503   0.410  34.242  14.765
78888W        W50504  26.121  20.194  10.294
78889W        W50505   1.183  15.722   0.093
78890W        W50506  41.429   3.051  13.477
78891W        W50507   5.478  23.466  14.380
78892W        W50508  44.532  13.470   4.459
78893W        W50509  16.196  20.988   4.901
78894W        W50510   1.985  14.635  13.047
78895W        W50511  21.534  19.207  11.939
78896W        W50512  16.418  33.317   3.726
78897W        W50513  28.524  40.679   3.755
78898W        W50514  13.080  23.101   1.940
78899W        W50515   5.823  18.638  14.433
78900W        W50516   6.344  38.462   3.663
78901W        W50517  39.644  29.091  12.473
78902W        W50518  24.547  21.955   1.662
78903W        W50519  39.459  29.914  14.278
78904W        W50520  35.944  42.697  14.493
78905W        W50521  13.821   1.274  10.389
78906W        W50522  21.507  25.501   4.655
78907W        W50523  35.566  25.422   2.897
78908W        W50524   5.393  28.919   0.742
78909W        W50525  41.899  41.561   4.600
78910W        W50526  36.384  37.301   0.756
78911W        W50527  32.913  37.011  12.985
78912W        W50528  32.882   3.320   0.957
78913W        W50529  43.884  20.972   0.048
78914W        W50530  40.262  27.334  12.134
78915W        W50531  37.990  36.606  11.270
78916W        W50532  14.425  10.344  13.384
78917W        W50533  29.721  30.786   2.165
78918W        W50534  16.755   8.817   2.270
78919W        W50535   5.782  31.367  13.100
78920W        W50536  22.678  14.639  12.961
78921W        W50537  18.831  20.635   2.958
78922W        W50538  18.552  39.353   2.007
78923W        W50539  26.983  31.388   0.333
78924W        W50540   1.201  39.973   2.667
78925W        W50541  22.140  10.698   4.908
78926W        W50542  42.908  22.509   2.272
78927W        W50543  14.236   2.268   1.340
78928W        W50544  28.402  17.723  11.161
78929W        W50545   6.078  21.433   2.846
78930W        W50546  17.446  30.802   0.342
78931W        W50547  16.889  24.756  11.070
78932W        W50548  20.719  43.321   2.757
78933W        W50549  29.016  29.180   2.857
78934W        W50550   8.708  14.104   2.254
78935W        W50551  34.985   8.930  10.494
78936W        W50552  18.290  19.705  13.874
78937W        W50553   8.715  32.048  11.003
78938W        W50554  28.992   2.926   4.782
78939W        W50555  15.779  16.093  10.261
78940W        W50556  23.346  26.536  10.720
78941W        W50557  41.430  12.060  10.624
78942W        W50558  42.486  40.278  12.396
78943W        W50559  20.118  33.520  14.696
78944W        W50560   3.863  28.092   3.239
78945W        W50561  26.598   6.411  13.814
78946W        W50562   1.579  26.065  13.382
78947W        W50563   9.202  14.153  13.956
78948W        W50564  13.710  37.591  13.788
78949W        W50565  22.287  40.426   3.117
78950W        W50566  42.944   6.425   4.704
78951W        W50567  40.111  16.310   1.758
78952W        W50568  22.960  37.271  12.476
78953W        W50569  32.393  28.622  11.561
78954W        W50570  30.190  40.062  13.919
78955W        W50571  31.187   4.623  11.110
78956W        W50572   9.735  10.936  13.364
78957W        W50573  16.549   5.311  10.651
78958W        W50574  41.147  22.011   3.888
78959W        W50575   2.387  24.527   4.438
78960W        W50576  22.786  11.459   2.606
78961W        W50577  42.598  41.126   4.205
78962W        W50578  40.423  44.321   4.584
78963W        W50579  35.366  23.972   1.868
78964W        W50580  12.640  10.638  11.139
78965W        W50581  21.769  43.049   0.242
78966W        W50582  15.718  40.810   4.898
78967W        W50583  11.822  33.435  11.677
78968W        W50584  44.349  38.803   3.716
78969W        W50585   7.949  37.747  11.210
78970W        W50586  38.542  24.999  11.148
78971W        W50587   3.496   1.571  11.885
78972W        W50588  33.320  26.245   1.689
78973W        W50589  42.519   5.290   3.835
78974W        W50590  32.639  10.179  12.128
78975W        W50591  21.518   5.175   3.176
78976W        W50592  28.067  21.770   3.807
78977W        W50593  15.011   5.854   4.917
78978W        W50594  29.432  23.070   4.874
78979W        W50595  31.835  30.409  13.498
78980W        W50596  40.569  33.504  11.071
78981W        W50597  38.864  27.636   2.713
78982W        W50598  39.506  42.995  12.427
78983W        W50599  12.245  34.182  14.224
78984W        W50600  34.941  35.288  12.967
78985W        W50601  42.843  10.432   2.719
78986W        W50602   5.236  15.374  13.379
78987W        W50603  10.922  28.971   1.719
78988W        W50604  23.031  24.053  11.726
78989W        W50605  44.995  28.166   0.141
78990W        W50606  33.884  26.075  11.174
78991W        W50607   5.386  28.709  13.436
78992W        W50608  29.715  23.172  13.754
78993W        W50609  15.974  24.269  11.550
78994W        W50610  31.655   2.016   5.159
78995W        W50611  34.866   0.344   4.848
78996W        W50612  38.738  19.017  11.515
78997W        W50613   7.171   4.932   0.868
78998W        W50614   4.902  40.207   2.282
78999W        W50615   2.700  33.611   4.249
79000W        W50616  14.090  31.038   3.411
79001W        W50617  13.807  17.189   5.698
79002W        W50618  34.957  26.180   4.177
79003W        W50619  25.567  14.928   9.512
79004W        W50620  20.695  24.029  10.828
79005W        W50621  23.109  34.836   4.075
79006W        W50622  17.253  19.762   0.240
79007W        W50623  25.598   6.439  14.007
79008W        W50624  31.448   9.260   2.708
79009W        W50625   9.449  26.444  11.939
79010W        W50626  21.600  11.123   2.803
79011W        W50627   6.747  33.258   3.146
79012W        W50628  24.277  39.318  11.585
79013W        W50629   7.510  42.232   4.585
79014W        W50630   3.895  38.462  11.570
79015W        W50631  19.855   2.856  11.959
79016W        W50632  22.684  43.803   0.691
79017W        W50633   7.608  15.349  13.889
79018W        W50634  35.876  18.359  12.953
79019W        W50635  28.356  37.603  12.060
79020W        W50636  18.329   5.624   2.045
79021W        W50637  12.290   5.054  11.542
79022W        W50638  40.575  29.504  11.979
79023W        W50639  36.957   2.859  12.771
79024W        W50640   4.526  39.935  12.962
79025W        W50641   8.162  39.134   4.255
79026W        W50642  38.397  20.546  11.179
79027W        W50643  23.929   0.982   4.028
79028W        W50644  38.760  25.991   0.862
79029W        W50645  36.933  41.827   1.698
79030W        W50646  11.306   9.006   3.533
79031W        W50647  16.770  23.040  14.321
79032W        W50648   0.033  38.969  10.495
79033W        W50649  12.789  21.640  11.588
79034W        W50650  27.754  23.154   4.863
79035W        W50651  39.739  14.063  14.116
79036W        W50652   3.093  29.922  14.053
79037W        W50653   3.831  30.696  12.838
79038W        W50654  17.036  39.956  12.622
79039W        W50655  16.722  43.824  10.301
79040W        W50656  35.480  22.013   1.828
79041W        W50657   0.858  18.277  12.946
79042W        W50658  43.954  10.879   4.021
79043W        W50659  23.885  21.223   3.073
79044W        W50660  15.991   4.936   2.463
79045W        W50661  27.101   4.760  10.765
79046W        W50662  33.980  35.505  12.590
79047W        W50663  15.780   1.463   3.356
79048W        W50664  26.083  28.417   1.435
79049W        W50665   6.197  36.417   0.891
79050W        W50666  25.154  36.422   5.181
79051W        W50667   2.406   2.165  13.865
79052W        W50668  15.714  33.098   4.793
79053W        W50669   6.898   0.851  14.809
79054W        W50670   9.623  25.628   4.248
79055W        W50671   6.265   8.276   2.664
79056W        W50672   7.748  43.254  13.441
79057W        W50673  36.258  20.772  14.323
79058W        W50674  44.965  31.428   0.457
79059W        W50675  43.057  11.723   5.133
79060W        W50676  23.497   0.879   0.714
79061W        W50677   5.455  16.964   3.373
79062W        W50678  43.936  36.805   0.824
79063W        W50679  39.014  37.131  11.632
79064W        W50680  37.875   8.621   2.136
79065W        W50681  20.617  12.290  14.876
79066W        W50682   6.808  24.182   4.143
79067W        W50683  21.043   7.373  12.534
79068W        W50684  25.002  28.166  14.809
79069W        W50685  37.953  40.023   2.296
79070W        W50686  10.988  44.138  10.239
79071W        W50687  14.160  34.095  14.908
79072W        W50688  37.347  12.313   0.407
79073W        W50689  11.428   2.075  12.892
79074W        W50690  12.621  26.603   0.159
79075W        W50691   7.291  13.702   4.678
79076W        W50692  31.496  28.898   0.872
79077W        W50693  12.150  37.932  12.866
79078W        W50694  20.794  26.644  13.823
79079W        W50695  19.309   1.330   3.172
79080W        W50696  23.208  44.219   4.318
79081W        W50697   8.100  32.436  10.742
79082W        W50698  20.012  20.273  14.348
79083W        W50699  25.456  31.836   3.008
79084W        W50700  43.284  21.768  14.903
79085W        W50701  16.715  26.556  13.833
79086W        W50702  29.968  24.576   4.823
79087W        W50703  14.627  12.911   4.128
79088W        W50704   5.797  30.181  11.711
79089W        W50705  27.913   5.298  11.648
79090W        W50706  17.804  35.815  12.012
79091W        W50707  12.669   9.730   4.016
79092W        W50708  40.042  35.673  14.735
79093W        W50709   2.370  44.597  14.849
79094W        W50710  17.048  24.112  12.816
79095W        W50711  13.328   4.995   2.838
79096W        W50712  29.198  12.558  12.569
79097W        W50713  22.926  26.685   0.356
79098W        W50714   4.485   0.092   4.990
79099W        W50715  43.304  29.195  12.070
79100W        W50716  26.702  25.675   0.866
79101W        W50717  43.588  26.421  12.872
79102W        W50718   4.603  22.918   2.700
79103W        W50719  31.364   5.367   4.166
79104W        W50720  28.518  43.956  14.297
79105W        W50721  27.213  26.010   0.171
79106W        W50722  33.972  22.201   1.802
79107W        W50723  44.922  19.378  11.630
79108W        W50724   7.216  21.149   4.037
79109W        W50725   3.447   6.328  13.857
79110W        W50726  26.722  38.001  14.918
79111W        W50727   5.179   5.397   1.873
79112W        W50728   8.043  36.631   3.186
79113W        W50729  22.734   1.132   0.251
79114W        W50730   7.551  22.857  12.910
79115W        W50731  22.965  13.122  10.776
79116W        W50732  29.102   7.323   4.296
79117W        W50733  25.000  43.737   4.827
79118W        W50734  32.674   5.062   0.873
79119W        W50735  16.097  32.205   1.724
79120W        W50736   4.748   9.894   3.631
79121W        W50737  30.631  34.462  11.463
79122W        W50738   2.965  26.614  12.425
79123W        W50739   5.013  22.083   2.349
79124W        W50740  37.809  40.963  12.851
79125W        W50741  12.566   5.816   4.632
79126W        W50742  34.601   3.487  14.079
79127W        W50743  25.271  16.387   5.461
79128W        W50744  40.637   1.766  10.292
79129W        W50745  32.947  26.497  13.899
79130W        W50746  30.676  23.756  13.383
79131W        W50747  44.255   7.526   2.296
79132W        W50748   0.470   8.811  12.058
79133W        W50749  32.483  28.208   3.233
79134W        W50750  23.559   6.954   3.495
79135W        W50751   1.699  37.528  12.592
79136W        W50752  12.341  37.635  13.777
79137W        W50753  25.436   9.707  13.064
79138W        W50754   9.345   9.862   1.686
79139W        W50755  43.415  23.085   1.762
79140W        W50756  23.151  14.342  11.526
79141W        W50757  10.368  44.963  12.486
79142W        W50758   1.044  43.744   2.374
79143W        W50759  23.890  29.007  12.053
79144W        W50760  36.997  21.544   4.556
79145W        W50761   0.256  37.880   2.171
79146W        W50762  40.456  40.218  10.743
79147W        W50763  24.514   5.454  13.937
79148W        W50764  43.007   7.873  10.747
79149W        W50765   9.273  40.121  13.603
79150W        W50766   5.193  30.553  10.612
79151W        W50767  41.924  40.129   4.687
79152W        W50768  11.388  34.123  12.925
79153W        W50769  34.926  23.954  14.541
79154W        W50770   7.762   2.720  12.888
79155W        W50771  19.770  43.925  14.525
79156W        W50772  44.442  34.784  11.583
79157W        W50773   4.420  19.037   2.885
79158W        W50774  34.409  32.523  13.379
79159W        W50775   5.723   2.521  11.193
79160W        W50776  31.493  20.785  12.081
79161W        W50777  40.979  19.654  12.912
79162W        W50778  29.224  25.394  12.380
79163W        W50779   6.366   1.139  14.387
79164W        W50780  24.740  27.733  14.615
79165W        W50781  35.493  43.206   1.855
79166W        W50782  44.217  12.539   1.390
79167W        W50783  27.194  10.740  14.873
79168W        W50784  19.585   6.445   5.105
79169W        W50785  44.413  32.046  11.105
79170W        W50786  34.191  27.369   1.856
79171W        W50787  23.486  10.614   4.186
79172W        W50788   7.659  12.714  14.966
79173W        W50789  31.376  10.268  11.754
79174W        W50790  35.044  40.451   0.188
79175W        W50791  15.065   8.832   0.004
79176W        W50792  23.187  24.243   3.148
79177W        W50793   0.670   2.881   0.822
79178W        W50794  38.536  35.515   2.107
79179W        W50795  19.657  25.536   3.719
79180W        W50796  29.935  39.513   1.264
79181W        W50797  22.809  15.362   3.596
79182W        W50798  18.294  30.697  11.649
79183W        W50799  25.624  11.368  11.566
79184W        W50800   7.494   1.267  13.530
79185W        W50801   7.058  33.626   1.416
79186W        W50802  42.442   1.247   0.035
79187W        W50803  27.200  27.638  12.413
79188W        W50804  25.805  18.660  11.874
79189W        W50805  33.483  31.594  11.566
79190W        W50806  35.836  10.923   1.551
79191W        W50807  10.738  28.486  11.644
79192W        W50808  32.965  38.705   3.326
79193W        W50809  22.488  30.718  11.687
79194W        W50810  27.135   9.622  10.956
79195W        W50811   9.657   5.226  11.072
79196W        W50812  13.774  28.127  10.671
79197W        W50813  13.812  14.371  14.297
79198W        W50814  15.537  27.783  12.578
79199W        W50815  31.555   0.623  12.292
79200W        W50816  18.712   6.188  11.218
79201W        W50817  12.581   1.541  14.921
79202W        W50818  28.338  31.651   0.640
79203W        W50819  35.175  24.622  14.342
79204W        W50820   8.805   4.437   2.334
79205W        W50821   1.753   5.980  12.236
79206W        W50822  30.883  12.165   3.124
79207W        W50823  21.778   6.496  13.976
79208W        W50824  36.580  18.750  11.566
79209W        W50825  14.895  32.566   3.830
79210W        W50826   4.210  21.119  10.573
79211W        W50827  10.830  30.894  11.873
79212W        W50828  41.357  40.721   1.915
79213W        W50829   8.682  37.108  11.182
79214W        W50830  38.918  24.962  10.801
79215W        W50831   0.833  38.856   0.633
79216W        W50832  38.448   4.462   1.777
79217W        W50833  26.176  40.000   4.609
79218W        W50834  19.452  20.158  14.315
79219W        W50835  34.895  40.292  11.649
79220W        W50836  36.314  25.092   0.102
79221W        W50837  30.943  16.389   0.522
79222W        W50838  25.766  43.053   4.076
79223W        W50839  42.000  26.493   3.015
79224W        W50840  26.139  18.155   1.791
79225W        W50841   4.264  12.277   3.695
79226W        W50842  28.271  20.613   3.087
79227W        W50843  24.072  33.476  13.076
79228W        W50844  37.014  22.802   3.277
79229W        W50845  40.225  29.658   4.611
79230W        W50846  17.990  24.665   3.684
79231W        W50847  27.523  26.215   4.629
79232W        W50848   9.284   2.299   4.188
79233W        W50849  22.635  15.815  11.003
79234W        W50850   8.478   7.828   2.269
79235W        W50851  41.570  29.265   1.664
79236W        W50852  15.018   0.896  12.508
79237W        W50853  11.212  13.248   4.085
79238W        W50854  37.097   2.430   2.339
79239W        W50855  34.889   1.728   0.304
79240W        W50856  38.444  30.439  10.932
79241W        W50857   5.344  16.617   1.860
79242W        W50858  13.867  40.259  12.917
79243W        W50859   6.690  44.960   0.387
79244W        W50860   2.274  18.960   3.219
79245W        W50861  31.875   4.437   1.450
79246W        W50862  41.424  40.281  14.909
79247W        W50863  31.819   4.455   2.338
79248W        W50864  21.242   0.335   4.147
79249W        W50865   4.140  27.769   4.048
79250W        W50866  33.655  20.786   3.843
79251W        W50867  36.145  29.515  10.709
79252W        W50868  38.771  25.162  14.828
79253W        W50869  19.945  23.995  12.709
79254W        W50870  11.319  19.735  14.758
79255W        W50871  22.290  17.015  12.037
79256W        W50872  42.324  21.769   1.326
79257W        W50873  20.789   6.308   0.773
79258W        W50874  44.113   6.093   4.085
79259W        W50875  33.549  10.218  14.320
79260W        W50876  30.627  16.062  13.352
79261W        W50877  37.340   9.183  14.614
79262W        W50878  28.974  24.668  13.792
79263W        W50879  24.580  20.729  10.746
79264W        W50880  21.804  27.588  10.758
79265W        W50881   6.142  17.078   0.368
79266W        W50882  32.908  39.240   2.331
79267W        W50883  13.886  41.758  11.137
79268W        W50884  32.573   2.417   5.072
79269W        W50885  20.623  14.094   2.667
79270W        W50886  10.116  25.814   3.139
79271W        W50887  20.776  41.462  14.518
79272W        W50888   9.797   7.252   2.307
79273W        W50889  17.305  10.251  12.971
79274W        W50890  15.560  18.791   4.578
79275W        W50891  17.075  43.356  10.303
79276W        W50892  44.936  13.093   1.367
79277W        W50893  15.696  12.314   3.335
79278W        W50894  41.400   9.334  10.674
79279W        W50895  15.503  28.792   2.710
79280W        W50896  21.998   3.320   4.122
79281W        W50897  18.620  31.052   3.593
79282W        W50898  15.103  30.879   0.523
79283W        W50899  30.628  28.454   2.710
79284W        W50900  24.737  16.721   2.775
79285W        W50901   7.167  23.755   2.303
79286W        W50902  40.929  43.264  13.713
79287W        W50903  25.637  14.505  14.874
79288W        W50904  33.562  34.391   2.158
79289W        W50905  41.254  32.560  11.336
79290W        W50906  26.182  13.361   2.214
79291W        W50907  22.223  32.649   3.145
79292W        W50908  39.317  41.679   3.214
79293W        W50909   2.698  17.637   2.310
79294W        W50910  30.506  20.331   4.875
79295W        W50911  40.980  21.358   3.238
79296W        W50912   3.269  28.829   2.395
79297W        W50913  10.975  42.320   4.653
79298W        W50914   2.767  31.421   2.010
79299W        W50915  24.597   3.104  11.142
79300W        W50916   1.536  40.981  11.496
79301W        W50917  44.812  19.265  12.992
79302W        W50918  13.885   6.352  11.488
79303W        W50919   4.960   8.917  14.443
79304W        W50920  26.015  18.652  14.695
79305W        W50921  25.926   3.941   2.825
79306W        W50922  26.233  42.020   1.672
79307W        W50923  44.350  40.612   4.236
79308W        W50924   9.607  22.746  13.404
79309W        W50925  20.319  20.089   4.934
79310W        W50926  22.258   5.375   3.613
79311W        W50927  12.298   1.705  14.095
79312W        W50928   4.569  28.975   1.718
79313W        W50929  39.059  26.034  11.021
79314W        W50930  29.561  14.201  14.759
79315W        W50931  21.259  37.934   4.601
79316W        W50932  31.512  12.226   3.338
79317W        W50933  40.245  41.058   2.442
79318W        W50934  10.161  40.412   1.775
79319W        W50935  30.681  37.499  11.586
79320W        W50936  26.961  12.320  12.036
79321W        W50937  22.345   0.634   3.330
79322W        W50938  18.542  42.462   2.705
79323W        W50939  24.614  20.741  11.609
79324W        W50940  40.125  33.252  11.145
79325W        W50941  36.553  18.300  12.660
79326W        W50942  21.539   4.642   4.446
79327W        W50943   9.884  17.615   0.356
79328W        W50944  17.580  39.508   0.931
79329W        W50945   3.911   6.410  14.085
79330W        W50946   2.893  27.612   3.225
79331W        W50947  41.837  10.455   1.861
79332W        W50948  30.520   2.010   0.316
79333W        W50949  22.680  16.265   0.820
79334W        W50950  19.707   3.282  13.607
79335W        W50951  29.185  39.591  11.825
79336W        W50952   8.426   2.986   1.343
79337W        W50953   6.860   3.387   0.350
79338W        W50954   6.118  36.921   0.729
79339W        W50955  43.384   2.162  13.130
79340W        W50956  41.027  33.114  11.136
79341W        W50957  34.794  36.036  12.492
79342W        W50958  24.542  16.779   2.161
79343W        W50959  19.570   0.153  12.252
79344W        W50960  30.398  31.644  11.913
79345W        W50961   3.781  14.868  13.076
79346W        W50962  38.176  38.819   2.771
79347W        W50963  20.342  14.803   4.558
79348W        W50964  25.708  27.574   4.301
79349W        W50965  38.895  31.099  14.371
79350W        W50966  40.300  14.099   5.000
79351W        W50967  16.101   2.536   0.738
79352W        W50968   4.657  25.584  11.876
79353W        W50969  44.955  34.065  11.596
79354W        W50970   3.331  41.083   1.797
79355W        W50971  44.831  26.484  11.682
79356W        W50972  34.857  26.991  13.772
79357W        W50973  34.532  43.262   0.458
79358W        W50974  24.748  23.609  11.540
79359W        W50975  13.708   2.875   3.969
79360W        W50976   9.419   6.561  12.998
79361W        W50977  35.429   8.927   0.682
79362W        W50978  10.614  31.924   2.407
79363W        W50979  19.094   3.406  11.059
79364W        W50980  14.750  13.867   2.601
79365W        W50981   3.341  42.746  14.443
79366W        W50982   9.824  11.402  14.404
79367W        W50983  44.854  14.152   2.755
79368W        W50984   8.989  36.422  11.515
79369W        W50985  32.377  38.009   2.410
79370W        W50986  41.896   0.542   4.247
79371W        W50987  31.171  36.579   2.191
79372W        W50988   0.149  29.729   0.012
79373W        W50989  15.360  31.823   3.534
79374W        W50990  21.834  19.553   4.503
79375W        W50991  40.440   2.927  11.680
79376W        W50992  32.974  20.079  14.995
79377W        W50993   3.912   4.339   4.579
79378W        W50994  38.905  38.569   4.997
79379W        W50995  14.351  37.330  13.035
79380W        W50996  29.079  25.267  11.475
79381W        W50997  12.125   8.821  12.978
79382W        W50998  41.010  40.783  12.887
79383W        W50999  16.813  24.363  14.141
79384W        W51000  42.056  24.495  14.310
79385W        W51001  13.113  20.633   1.432
79386W        W51002  35.600  37.460   3.344
79387W        W51003  33.937  16.784  10.706
79388W        W51004  25.742  20.276   3.364
79389W        W51005  11.313   1.089  13.680
79390W        W51006  12.258  40.817  14.445
79391W        W51007  21.142   9.349   1.131
79392W        W51008  32.010  31.065   3.189
79393W        W51009   7.528   7.810   2.419
79394W        W51010  37.025  13.179   1.289
79395W        W51011   9.784  42.854  10.592
79396W        W51012  44.568   2.871   2.597
79397W        W51013   6.168  11.252  11.130
79398W        W51014   8.315   8.256   4.103
79399W        W51015   9.855  24.505   1.845
79400W        W51016  35.586  16.662  13.782
79401W        W51017  38.528   6.837  12.110
79402W        W51018  37.908   8.531   3.388
79403W        W51019  21.157  13.150   2.437
79404W        W51020  35.499  28.390   3.128
79405W        W51021  19.287   8.311  13.875
79406W        W51022  25.200  31.128   4.676
79407W        W51023  19.468  29.557   3.576
79408W        W51024   5.224  11.574  11.929
79409W        W51025  12.721  13.919  13.078
79410W        W51026  19.595   3.864  10.640
79411W        W51027   6.816  26.490   1.928
79412W        W51028  25.419   0.874  12.397
79413W        W51029   9.577  41.951   2.528
79414W        W51030  38.200  31.308   0.355
79415W        W51031   1.394  22.832   9.762
79416W        W51032  26.034  26.283  11.033
79417W        W51033   7.782  22.985   0.481
79418W        W51034  22.213   4.705   4.245
79419W        W51035  34.027   7.720  11.068
79420W        W51036  12.308   3.908  11.993
79421W        W51037  14.100   3.946   5.543
79422W        W51038  36.334   8.096  12.121
79423W        W51039  24.552  20.180  13.471
79424W        W51040  14.615  40.846  10.748
79425W        W51041  32.637  37.943   0.443
79426W        W51042  13.373  41.673  13.788
79427W        W51043  33.634  13.072   4.554
79428W        W51044  41.757  32.420  13.361
79429W        W51045  22.789  13.137   3.256
79430W        W51046  27.417  41.808   2.363
79431W        W51047  36.133   8.860   1.732
79432W        W51048   0.889  12.948   4.622
79433W        W51049  10.857  32.884  10.860
79434W        W51050  42.077   6.316   1.678
79435W        W51051   7.671  22.325   1.891
79436W        W51052  40.722  18.693  13.124
79437W        W51053  17.815   7.308   0.748
79438W        W51054  44.892   1.002   4.462
79439W        W51055  44.752  18.154  12.462
79440W        W51056   5.189  24.229  13.987
79441W        W51057  21.970  33.913  11.106
79442W        W51058   3.048  10.785  10.965
79443W        W51059  39.996   9.345  13.072
79444W        W51060  24.729   6.873   1.464
79445W        W51061   3.804  10.459  10.372
79446W        W51062  26.665  18.049  13.780
79447W        W51063  41.011   9.451   2.129
79448W        W51064  43.326  20.764   1.449
79449W        W51065  28.474  39.391   3.641
79450W        W51066  29.734  44.976   4.256
79451W        W51067   0.316   6.420   1.389
79452W        W51068   0.841  13.583   2.545
79453W        W51069  39.356   6.077   1.951
79454W        W51070  44.929   0.529  14.264
79455W        W51071   7.444  25.721   1.233
79456W        W51072  42.315  21.688  13.458
79457W        W51073  18.377  25.060  11.125
79458W        W51074  24.063  19.264   2.310
79459W        W51075  43.935  23.179   1.929
79460W        W51076  26.624   2.875   0.311
79461W        W51077  43.330  18.415  11.030
79462W        W51078  25.198  28.501  14.434
79463W        W51079   9.886  18.680  14.755
79464W        W51080  39.096  43.505   3.166
79465W        W51081  22.977  34.884  12.032
79466W        W51082  40.396  16.230  12.846
79467W        W51083   1.537  16.819   0.852
79468W        W51084  21.490  27.921  12.078
79469W        W51085  10.372   6.417  12.559
79470W        W51086  15.661  14.679   4.901
79471W        W51087  18.939  40.698  11.353
79472W        W51088   5.277   7.710  14.019
79473W        W51089  40.050  14.321   1.867
79474W        W51090   8.411  16.583  14.380
79475W        W51091  43.283  36.437  12.599
79476W        W51092  30.103  28.690  13.477
79477W        W51093  30.575  27.719   2.292
79478W        W51094   5.895   9.242  14.148
79479W        W51095  10.873  41.847   1.956
79480W        W51096   6.782   3.107  10.735
79481W        W51097  12.634  37.054  14.809
79482W        W51098  24.397  16.947   4.843
79483W        W51099  39.139  29.471   1.662
79484W        W51100  26.371  21.847  14.974
79485W        W51101  16.685  35.420   3.332
79486W        W51102  42.390   5.968  10.979
79487W        W51103  24.526  28.500  11.508
79488W        W51104  22.689  13.926   0.799
79489W        W51105  23.321  27.644  12.406
79490W        W51106  27.617  20.430  11.119
79491W        W51107  10.426  39.055   4.145
79492W        W51108   3.319  29.456  10.601
79493W        W51109   7.348  44.071   0.703
79494W        W51110  42.470  41.277   1.805
79495W        W51111   8.649  32.395  14.896
79496W        W51112  22.062  17.781   0.376
79497W        W51113   3.089  18.971   5.165
79498W        W51114  13.016   9.933   0.020
79499W        W51115  34.448  12.263  13.423
79500W        W51116  17.369  17.633   4.117
79501W        W51117  35.710  19.378  13.684
79502W        W51118   4.443   8.799  10.914
79503W        W51119  18.111  41.050   0.021
79504W        W51120  43.921   4.760  13.798
79505W        W51121  10.411   8.675  12.689
79506W        W51122   5.418  15.288   0.029
79507W        W51123  12.115  26.382   0.769
79508W        W51124  17.707   5.043   4.922
79509W        W51125  13.946  40.179   2.803
79510W        W51126  11.200  21.715   4.250
79511W        W51127  38.365  40.845   1.060
79512W        W51128  12.237  29.698  11.549
79513W        W51129  36.879   6.964   1.558
79514W        W51130  19.510  21.573  13.896
79515W        W51131  24.093  12.082  14.930
79516W        W51132  13.654  22.187   1.357
79517W        W51133  37.777  23.726   1.849
79518W        W51134  43.914   4.710   2.216
79519W        W51135  28.251  28.215  10.315
79520W        W51136  34.589   9.292   0.305
79521W        W51137  10.741   2.640   2.786
79522W        W51138  31.885  19.762   1.272
79523W        W51139  31.345  41.321  11.551
79524W        W51140  22.752  16.133  10.596
79525W        W51141  34.099  14.118   2.204
79526W        W51142  15.085  15.576  12.902
79527W        W51143  23.810   0.306   5.048
79528W        W51144  29.696  31.550   1.615
79529W        W51145  30.675  28.520   1.748
79530W        W51146   7.275  10.652  10.726
79531W        W51147  43.631  17.219   4.811
79532W        W51148  29.347  13.810  14.484
79533W        W51149  15.292  28.929  12.602
79534W        W51150  26.078  40.487   0.806
79535W        W51151  24.120  29.880  10.226
79536W        W51152   3.844  28.156   2.226
79537W        W51153   9.451  32.899  12.943
79538W        W51154  30.423  42.971   1.799
79539W        W51155  23.708  29.524  14.064
79540W        W51156  23.628   6.009  13.426
79541W        W51157   5.352  40.867   4.142
79542W        W51158   7.872  31.210   0.891
79543W        W51159  24.296  15.608  14.218
79544W        W51160  16.924  32.091  11.564
79545W        W51161  14.956  26.236  11.116
79546W        W51162   3.842  42.651  11.023
79547W        W51163  34.843  10.379  10.665
79548W        W51164  44.896  42.453  12.360
79549W        W51165  28.660  34.102  13.797
79550W        W51166  39.629  10.590   9.688
79551W        W51167  17.612  13.150   0.561
79552W        W51168  34.665  21.983   0.529
79553W        W51169   9.239  16.032  11.489
79554W        W51170   7.813   1.316   1.920
79555W        W51171  18.587  44.818   2.849
79556W        W51172   9.369  18.209  11.131
79557W        W51173  38.928   1.286   1.689
79558W        W51174   6.622   1.945  11.605
79559W        W51175   9.516  25.087  12.896
79560W        W51176  32.130  29.399   4.354
79561W        W51177  15.660  12.600   2.249
79562W        W51178  44.366  21.903  13.381
79563W        W51179  14.559  28.285  11.178
79564W        W51180  21.005  43.737  14.899
79565W        W51181  15.252  41.949  14.875
79566W        W51182  27.213  31.318   2.446
79567W        W51183  16.342   8.698  11.125
79568W        W51184  17.567   0.248   1.429
79569W        W51185  29.984  27.022   3.236
79570W        W51186  25.716  22.093  10.783
79571W        W51187  34.460   0.751   4.745
79572W        W51188  10.178  35.598   4.499
79573W        W51189  15.777   9.137   2.789
79574W        W51190   1.870  16.323  13.563
79575W        W51191   3.394   8.336   4.844
79576W        W51192  22.635  41.033  11.522
79577W        W51193   6.394  30.626   3.694
79578W        W51194   1.884  31.504  11.857
79579W        W51195  13.096  38.638   0.474
79580W        W51196  32.604  27.184   3.261
79581W        W51197  12.088   6.952   2.776
79582W        W51198   7.394  30.024   4.403
79583W        W51199  31.703  33.900   1.304
79584W        W51200  39.406  23.320   1.196
79585W        W51201  26.452  44.988  12.461
79586W        W51202  39.677  30.855  14.385
79587W        W51203   4.284  43.682   2.295
79588W        W51204  33.315  18.584  14.831
79589W        W51205   0.976  16.706  11.975
79590W        W51206  16.965  43.267  11.629
79591W        W51207  31.968  29.693   0.879
79592W        W51208   3.807  23.604   1.947
79593W        W51209  13.263  19.583   0.448
79594W        W51210  29.501  24.255   0.303
79595W        W51211  16.295  21.816   3.353
79596W        W51212  17.660  33.819  11.952
79597W        W51213   6.728  19.654   0.186
79598W        W51214  39.326  33.871   1.154
79599W        W51215  13.569   1.986   0.561
79600W        W51216   5.561  40.144  12.892
79601W        W51217  23.064  36.107   2.296
79602W        W51218  44.383   7.848  13.801
79603W        W51219   9.152  10.287  10.663
79604W        W51220  10.399  42.348   2.620
79605W        W51221  15.547  38.121  10.043
79606W        W51222  13.825   5.303   2.975
79607W        W51223  24.152  21.444  14.437
79608W        W51224   2.967   6.983   2.759
79609W        W51225   7.741  42.714   4.567
79610W        W51226   7.474  38.512   2.178
79611W        W51227  16.196   2.965   2.642
79612W        W51228  19.720  14.658   3.664
79613W        W51229  31.423  39.194   1.475
79614W        W51230  35.806   7.648  14.936
79615W        W51231   0.944  17.268   4.605
79616W        W51232  20.663  26.261  14.604
79617W        W51233   7.881  40.514  13.784
79618W        W51234  23.789  39.540  11.632
79619W        W51235   6.895   5.678   3.782
79620W        W51236  27.586   7.968  13.988
79621W        W51237  12.262  22.128  13.879
79622W        W51238  43.532  32.583  14.779
79623W        W51239  41.799  11.536  13.049
79624W        W51240  27.564  28.947   1.356
79625W        W51241   2.728  39.544  12.066
79626W        W51242  28.883  33.418   1.807
79627W        W51243  18.759  41.460   4.081
79628W        W51244  21.268  29.400   0.891
79629W        W51245  40.558  20.963   3.008
79630W        W51246   6.205  35.541   4.036
79631W        W51247  25.434  18.401   0.233
79632W        W51248   1.186  39.630  13.728
79633W        W51249  14.780  21.754   0.910
79634W        W51250  26.977   5.017   5.046
79635W        W51251  34.181   7.643  13.786
79636W        W51252  30.173  10.150  12.830
79637W        W51253  30.294  43.351  14.879
79638W        W51254  23.244  15.160   2.759
79639W        W51255   9.603   5.859  11.648
79640W        W51256  15.579   9.678  14.787
79641W        W51257  32.053  25.063   0.061
79642W        W51258  41.920   7.741  13.335
79643W        W51259  14.787   5.617  11.964
79644W        W51260  10.183  36.958   0.935
79645W        W51261   7.421  29.868  11.095
79646W        W51262   5.311  29.050  14.757
79647W        W51263  31.196  11.159  10.453
79648W        W51264   4.857  31.679   3.283
79649W        W51265  29.900   4.727  12.115
79650W        W51266  30.990  36.902   2.879
79651W        W51267   8.251  17.984   3.673
79652W        W51268  22.142  39.836  12.493
79653W        W51269  18.981  41.942  14.668
79654W        W51270  22.479  37.760  12.074
79655W        W51271   4.919   5.745  11.664
79656W        W51272  26.703  32.500  14.469
79657W        W51273  23.231  15.094   4.616
79658W        W51274  21.452  23.327   0.378
79659W        W51275  29.373  34.722  11.479
79660W        W51276  27.945   7.978  11.038
79661W        W51277  28.651   8.755  14.625
79662W        W51278  29.496   4.658   0.894
79663W        W51279  18.285   7.408   1.177
79664W        W51280  14.800  29.160   2.361
79665W        W51281  21.660   1.363  12.917
79666W        W51282  31.117  14.480   1.891
79667W        W51283  34.470  30.928  11.222
79668W        W51284   2.063   8.640  14.240
79669W        W51285   9.225  11.769   4.667
79670W        W51286  15.323  35.651  11.676
79671W        W51287  32.265  44.533   4.630
79672W        W51288  17.574  15.209   3.204
79673W        W51289  33.293  11.286  10.148
79674W        W51290  27.280  31.873  11.833
79675W        W51291  19.220  18.401  12.504
79676W        W51292  43.793  39.432  14.958
79677W        W51293  36.811  12.791   2.585
79678W        W51294  14.730  23.111   1.169
79679W        W51295  33.898  43.488  10.498
79680W        W51296   8.893  18.094  12.899
79681W        W51297  35.814  36.110  13.871
79682W        W51298  14.951  26.692  14.941
79683W        W51299   6.706  11.772  12.800
79684W        W51300  34.087  37.815   1.855
79685W        W51301  30.560  31.043  13.666
79686W        W51302  19.331  32.668  14.755
79687W        W51303  42.452  28.425  14.583
79688W        W51304  19.292  37.484  11.574
79689W        W51305  37.774   0.858  13.918
79690W        W51306  24.573  29.741   0.939
79691W        W51307  16.295   1.197   0.421
79692W        W51308  44.419  37.306   2.762
79693W        W51309  12.835  34.336  12.058
79694W        W51310  41.463  40.958  14.071
79695W        W51311  37.479  18.810   3.373
79696W        W51312   7.622  34.618  14.319
79697W        W51313  28.868  27.022   1.014
79698W        W51314  33.701   9.908   1.342
79699W        W51315  14.791  23.066  12.598
79700W        W51316   0.994  33.993  12.597
79701W        W51317   8.408  37.288   1.750
79702W        W51318  42.633  20.412  12.933
79703W        W51319  12.906   6.449   4.946
79704W        W51320   5.784  29.681  12.165
79705W        W51321  33.022  20.111  14.494
79706W        W51322  23.694  16.404   0.998
79707W        W51323  11.217  33.635  11.444
79708W        W51324  24.247  22.732  12.459
79709W        W51325  31.659   3.031   1.622
79710W        W51326   8.313  24.001  14.261
79711W        W51327  17.297  40.107   2.104
79712W        W51328  19.606   4.175   0.743
79713W        W51329  30.596  16.715   3.749
79714W        W51330  35.374   2.478   2.392
79715W        W51331  37.068  15.195  13.838
79716W        W51332  25.080  42.319   1.928
79717W        W51333  43.765  15.033   1.878
79718W        W51334   8.424  43.390   0.514
79719W        W51335   5.316  17.674  12.226
79720W        W51336  11.621  14.877  12.465
79721W        W51337  35.917   6.730  10.543
79722W        W51338  42.273  37.340  14.800
79723W        W51339  39.826  37.453   0.433
79724W        W51340  18.291  28.937   1.797
79725W        W51341  16.023  14.269  13.571
79726W        W51342  20.764  32.816   0.037
79727W        W51343  32.066  37.105  14.340
79728W        W51344  33.681  39.413   0.179
79729W        W51345  29.985  12.274  13.949
79730W        W51346   7.973  14.268  12.020
79731W        W51347  20.381   6.910  12.277
79732W        W51348  42.235  15.788  10.825
79733W        W51349   6.670  18.057  14.173
79734W        W51350  25.663  19.065  11.593
79735W        W51351  44.254  12.621  14.334
79736W        W51352   9.066  37.853  12.305
79737W        W51353  43.307  38.318   0.495
79738W        W51354  42.378  42.509  12.449
79739W        W51355  31.443   7.295  11.680
79740W        W51356   6.002  23.505  12.921
79741W        W51357  28.142  41.018   1.340
79742W        W51358   6.803  20.372   2.452
79743W        W51359  42.287  24.148   3.711
79744W        W51360  18.715   3.820  11.431
79745W        W51361   1.828  37.954   2.445
79746W        W51362  44.444  24.766  10.411
79747W        W51363  33.019  41.069   0.511
79748W        W51364   5.808  36.854  12.211
79749W        W51365  24.741  28.596   0.792
79750W        W51366  32.487  30.189  14.479
79751W        W51367  13.094   9.454   3.679
79752W        W51368  31.484  26.640  10.548
79753W        W51369   2.213  11.724  11.577
79754W        W51370  10.811  37.784  12.881
79755W        W51371   8.908  29.852   0.940
79756W        W51372  16.201  38.537   3.843
79757W        W51373  10.467  20.506   0.542
79758W        W51374  14.204   6.148   4.108
79759W        W51375  18.755   1.948   0.705
79760W        W51376  10.798  10.404   3.086
79761W        W51377  37.799  13.589   3.805
79762W        W51378   6.372  21.530  10.777
79763W        W51379  13.770   7.619   0.078
79764W        W51380  24.097  29.754   0.405
79765W        W51381  11.157  28.282   0.231
79766W        W51382  22.138  42.786  14.943
79767W        W51383  20.475  38.363   4.571
79768W        W51384  27.229   8.159   0.877
79769W        W51385  25.282  36.354   0.369
79770W        W51386   1.750   6.146  14.926
79771W        W51387   7.145   1.794  10.772
79772W        W51388  36.868   9.142   4.178
79773W        W51389  22.814   1.272   2.895
79774W        W51390   4.121  24.345  11.533
79775W        W51391  35.534  27.755   2.205
79776W        W51392  44.464  20.743   2.132
79777W        W51393  35.271   6.182   0.891
79778W        W51394   7.570  12.048   0.345
79779W        W51395   7.003  31.619  11.751
79780W        W51396  14.807  43.800   2.804
79781W        W51397  16.741  15.383  11.067
79782W        W51398  22.752   3.882  13.372
79783W        W51399   7.120  44.972   4.620
79784W        W51400  33.026  19.035   4.263
79785W        W51401  17.045   5.691   1.967
79786W        W51402  33.674   5.327   0.289
79787W        W51403  26.628  43.804   3.808
79788W        W51404  44.695   4.254  14.000
79789W        W51405  27.989  28.126   2.439
79790W        W51406  37.582   8.153  14.810
79791W        W51407  29.994  34.404   4.364
79792W        W51408  38.279   0.395   0.274
79793W        W51409  25.591  11.076  12.002
79794W        W51410  12.222  33.329   4.655
79795W        W51411  36.337   4.537   4.033
79796W        W51412  17.496  19.799   0.766
79797W        W51413  26.599  15.072  12.398
79798W        W51414  36.865  20.938   1.586
79799W        W51415  26.401  39.286  13.810
79800W        W51416  31.368  31.027   0.851
79801W        W51417   0.035  11.842   3.154
79802W        W51418  15.823  28.582   4.062
79803W        W51419   0.217  43.452   2.999
79804W        W51420  23.303  26.712   5.067
79805W        W51421  19.766   9.260   1.821
79806W        W51422  30.350  22.219  10.867
79807W        W51423  26.636  18.560  10.708
79808W        W51424  39.513  24.642  14.490
79809W        W51425   0.815   1.918   4.910
79810W        W51426   1.783  34.094   1.415
79811W        W51427  38.348  42.012   2.184
79812W        W51428  26.277  20.161  14.815
79813W        W51429  16.098  43.958   4.403
79814W        W51430  37.600   8.055   0.351
79815W        W51431  11.650   4.177   1.793
79816W        W51432  27.034  19.094   2.621
79817W        W51433  42.237  12.791   3.449
79818W        W51434  23.012  12.176   4.091
79819W        W51435  11.827  26.895   4.308
79820W        W51436  28.013  31.150   2.926
79821W        W51437  24.016  42.788  14.335
79822W        W51438   8.175  14.880  13.189
79823W        W51439   0.812   9.306   2.818
79824W        W51440  32.878  37.933  11.567
79825W        W51441   3.920  20.549   4.013
79826W        W51442  16.268  24.903   2.316
79827W        W51443  25.246   4.472  14.039
79828W        W51444  17.138  35.713  11.233
79829W        W51445  17.725  23.555   4.220
79830W        W51446   1.953  39.365   3.869
79831W        W51447  10.560  31.534  14.295
79832W        W51448   6.800  31.582  11.270
79833W        W51449  44.985  35.592   5.358
79834W        W51450  17.504  44.133   3.065
79835W        W51451  19.828  23.785   4.489
79836W        W51452  29.592  17.883   4.635
79837W        W51453   3.295   5.732  12.571
79838W        W51454  32.137  21.731   0.254
79839W        W51455   6.307  10.421   0.765
79840W        W51456   8.196  22.284  14.716
79841W        W51457  19.837  23.097  11.199
79842W        W51458  32.481  15.095  14.225
79843W        W51459  34.147   5.107   0.184
79844W        W51460   2.228  44.233  13.291
79845W        W51461  33.954  38.442  13.413
79846W        W51462  40.532  38.289   1.214
79847W        W51463  32.047  22.641  11.323
79848W        W51464  34.557   4.764   2.304
79849W        W51465  29.478  39.841   1.168
79850W        W51466  42.938  16.579  10.122
79851W        W51467  33.978  26.207   4.140
79852W        W51468  44.872   1.902  10.758
79853W        W51469  33.163  35.950  10.799
79854W        W51470   5.485  28.813   1.906
79855W        W51471  33.214  17.242  10.674
79856W        W51472  16.341   2.408  11.568
79857W        W51473  33.814  31.963  10.553
79858W        W51474   0.720   1.431  14.742
79859W        W51475  17.285  39.576  11.557
79860W        W51476  10.604   3.108   1.974
79861W        W51477  42.957   9.937  10.911
79862W        W51478   3.700  29.017   2.176
79863W        W51479  29.873  24.705   4.342
79864W        W51480  44.958  16.210   1.772
79865W        W51481   1.349   7.789  12.905
79866W        W51482  33.367  19.882   0.323
79867W        W51483  41.001   7.693   4.398
79868W        W51484   5.307  33.419   1.231
79869W        W51485  36.680  24.002   2.345
79870W        W51486  42.379  17.474  14.556
79871W        W51487  37.906  37.586  14.456
79872W        W51488  25.426  42.494  12.837
79873W        W51489  31.050   0.203  12.224
79874W        W51490  22.648   8.311   0.510
79875W        W51491   2.320  23.697   1.858
79876W        W51492  37.059  26.004   1.313
79877W        W51493  36.834  31.528   4.715
79878W        W51494   8.455  30.892   4.369
79879W        W51495   3.701  43.303  14.842
79880W        W51496  21.655  39.460  13.034
79881W        W51497   2.468   0.878   1.720
79882W        W51498  27.927   0.836  14.338
79883W        W51499  34.944  12.870  13.059
79884W        W51500   4.341  40.530   0.870
79885W        W51501   6.688  18.680  14.953
79886W        W51502  41.020  36.855  10.878
79887W        W51503  17.651  16.578  11.411
79888W        W51504  32.921  40.295  10.660
79889W        W51505  44.743  17.203   1.989
79890W        W51506  14.158  36.078  12.451
79891W        W51507  30.900  43.556  11.033
79892W        W51508   2.911  25.607  11.519
79893W        W51509  42.654  36.084   1.716
79894W        W51510   2.462   4.701  14.726
79895W        W51511  38.457   9.894   0.335
79896W        W51512  26.137  25.638   2.864
79897W        W51513   0.999  15.467   2.493
79898W        W51514   0.423  10.448   2.385
79899W        W51515  20.146  12.920   2.527
79900W        W51516  30.695  39.955  13.978
79901W        W51517  43.439  30.880   2.597
79902W        W51518  44.933  26.542   1.771
79903W        W51519  17.186  17.655  10.178
79904W        W51520  28.384  26.041  11.438
79905W        W51521  36.829  27.428  12.382
79906W        W51522  35.992   0.074   2.247
79907W        W51523  11.826   8.323   0.485
79908W        W51524  12.100  28.603   1.643
79909W        W51525  19.102  32.610  11.477
79910W        W51526  43.386  42.328  11.617
79911W        W51527  36.634  39.518  13.314
79912W        W51528  32.987   7.339  14.493
79913W        W51529  11.705  40.970   2.783
79914W        W51530  34.116  36.131  13.997
79915W        W51531  27.007   1.126   2.750
79916W        W51532  15.847  26.002  12.131
79917W        W51533   3.749   4.740   4.914
79918W        W51534  16.351   9.963   1.050
79919W        W51535  26.870  38.051  10.769
79920W        W51536  16.135  38.665   2.307
79921W        W51537  20.008   2.267  11.127
79922W        W51538  36.024  42.381  13.417
79923W        W51539  13.506   5.889  11.824
79924W        W51540  14.548  12.810   0.895
79925W        W51541  31.463   2.413  13.066
79926W        W51542   3.348  30.477   3.714
79927W        W51543  37.915  18.138  14.858
79928W        W51544  12.665  39.591  11.897
79929W        W51545  20.218  12.130   2.208
79930W        W51546  18.139  16.704  10.613
79931W        W51547  29.416   4.890  11.982
79932W        W51548  34.104  31.923   1.350
79933W        W51549   4.129   0.652   3.201
79934W        W51550  39.482  38.279  14.172
79935W        W51551  34.950  42.785   0.838
79936W        W51552  10.364  15.636  11.974
79937W        W51553  12.739  21.199   2.874
79938W        W51554  33.921  25.114   2.652
79939W        W51555  17.176  35.255   3.237
79940W        W51556  24.412   3.739  10.723
79941W        W51557  39.562  34.818   1.238
79942W        W51558  40.367  22.016  11.593
79943W        W51559  26.107  32.487   0.380
79944W        W51560  44.360   0.067   0.962
79945W        W51561   3.903  14.094   4.129
79946W        W51562  44.071  31.114   0.347
79947W        W51563  28.250   6.792  13.036
79948W        W51564  38.166  12.741  14.933
79949W        W51565  38.170  31.234  10.578
79950W        W51566  14.078  16.329   4.514
79951W        W51567  31.019  37.564  13.026
79952W        W51568  21.515  35.818  10.639
79953W        W51569   0.184  13.708   4.110
79954W        W51570  42.252   5.858  10.495
79955W        W51571  22.093  38.789   0.173
79956W        W51572  34.967  10.428   1.364
79957W        W51573  10.089  40.879  10.604
79958W        W51574  16.132  36.534   0.338
79959W        W51575   9.946   6.320  13.357
79960W        W51576  15.894  36.980   0.185
79961W        W51577  41.029  36.576   4.621
79962W        W51578   4.217   5.962  11.527
79963W        W51579  30.950  38.406   4.319
79964W        W51580   9.414  32.921  11.081
79965W        W51581  27.717  13.049  12.594
79966W        W51582  34.715  22.177  10.486
79967W        W51583  19.646  20.335   4.186
79968W        W51584   9.773  14.656  12.704
79969W        W51585  10.181  25.595   2.665
79970W        W51586  18.094   8.804  12.601
79971W        W51587  37.960  16.826  10.586
79972W        W51588  18.314  22.565   4.151
79973W        W51589  41.544  37.601  11.055
79974W        W51590  24.697  26.087  14.992
79975W        W51591  37.900  12.304   3.909
79976W        W51592  32.419  23.275   3.687
79977W        W51593  18.112  38.077  11.530
79978W        W51594  11.130  12.917   1.661
79979W        W51595  41.701  10.841  14.908
79980W        W51596  14.755  29.909   2.834
79981W        W51597  42.995  18.216   0.056
79982W        W51598  28.369  15.977  13.881
79983W        W51599  38.243  44.884   3.724
79984W        W51600  29.225  21.237  14.890
79985W        W51601  42.415   2.333   4.605
79986W        W51602   9.642  13.611  12.538
79987W        W51603  28.003  18.556   3.191
79988W        W51604  31.618   9.762  10.696
79989W        W51605  40.892  42.261   3.346
79990W        W51606  35.109   6.352  11.379
79991W        W51607  15.270  26.118  12.884
79992W        W51608  42.618  11.540  14.417
79993W        W51609   6.937  21.485  14.895
79994W        W51610  22.016  27.142   0.666
79995W        W51611   7.791   5.908  13.046
79996W        W51612  33.493  39.342   1.193
79997W        W51613  35.227  44.494  14.097
79998W        W51614  13.826   1.272  10.906
79999W        W51615  35.461  26.649  11.644
80000W        W51616  34.824   5.280  12.027
80001W        W51617   5.742  34.519   1.511
80002W        W51618  35.684   9.900  13.834
80003W        W51619  16.236   7.188  11.858
80004W        W51620   8.390  36.020  12.616
80005W        W51621  38.056  25.016  10.902
80006W        W51622  32.891  30.506   2.362
80007W        W51623  14.576  39.304   4.196
80008W        W51624  40.724  12.412  11.547
80009W        W51625  23.014  36.704   3.196
80010W        W51626   4.462  29.490   1.273
80011W        W51627  15.668   4.335  14.767
80012W        W51628  42.870   7.207   0.752
80013W        W51629  21.476  23.330   2.190
80014W        W51630  31.612   7.794   2.321
80015W        W51631  40.628  19.701   0.101
80016W        W51632  10.708  22.779   0.376
80017W        W51633   8.777  10.765   1.286
80018W        W51634  15.486  23.981   4.922
80019W        W51635  24.327  37.601   2.132
80020W        W51636  24.539   8.686   3.767
80021W        W51637  17.552  18.271   4.106
80022W        W51638   4.764  12.155   1.915
80023W        W51639  13.777   0.890   2.316
80024W        W51640  43.500  42.586  12.162
80025W        W51641  26.590  20.658  12.585
80026W        W51642  39.880  28.628  13.307
80027W        W51643   6.237  11.728  12.025
80028W        W51644  25.689  21.658  13.119
80029W        W51645  17.222   1.422   0.589
80030W        W51646   3.900   7.178  13.101
80031W        W51647  32.865  21.224   0.359
80032W        W51648  11.817  22.578  11.982
80033W        W51649  19.841  32.598   1.630
80034W        W51650  19.463  41.123  12.937
80035W        W51651   3.443  42.280   2.203
80036W        W51652  16.207  19.797   4.594
80037W        W51653  24.487  36.980  10.657
80038W        W51654  12.361  28.043   1.848
80039W        W51655  15.771  38.704   0.110
80040W        W51656  41.260  12.631  14.731
80041W        W51657  15.369   7.150  13.402
80042W        W51658  24.636   0.234   1.281
80043W        W51659  25.571  30.449   0.768
80044W        W51660  17.712   5.011  14.739
80045W        W51661  21.374  27.140   1.290
80046W        W51662  24.742  29.936   4.131
80047W        W51663  23.831  10.367   1.473
80048W        W51664  11.348   9.652   2.285
80049W        W51665  23.174   7.847  14.438
80050W        W51666  13.530  36.135  11.138
80051W        W51667  39.397  34.604  14.946
80052W        W51668  41.409   5.237  12.832
80053W        W51669  19.857  11.512   1.803
80054W        W51670  20.717  20.709   0.796
80055W        W51671   6.326  18.797   0.321
80056W        W51672  29.536   4.167  11.519
80057W        W51673  13.279   1.871  14.575
80058W        W51674  39.455  43.488   4.228
80059W        W51675  34.933  43.531   4.564
80060W        W51676  43.547  28.552  11.669
80061W        W51677   7.405  37.805  11.083
80062W        W51678  43.443  11.018   0.189
80063W        W51679   5.174  34.299  12.918
80064W        W51680  29.665  12.977  11.630
80065W        W51681   9.236   4.612  12.027
80066W        W51682  19.115  26.771  11.659
80067W        W51683   6.348  35.583  10.673
80068W        W51684  41.749   3.562  13.772
80069W        W51685   2.070  14.749   2.778
80070W        W51686  25.936  39.404   4.623
80071W        W51687  14.523  38.974  12.544
80072W        W51688   0.966  38.275  11.086
80073W        W51689   3.712  35.915  12.922
80074W        W51690  16.477   3.354   1.689
80075W        W51691   6.305  15.592   3.382
80076W        W51692  10.325  37.556  11.026
80077W        W51693  28.046  23.551   4.992
80078W        W51694   3.087  32.885  13.397
80079W        W51695  27.182   5.461   4.384
80080W        W51696  27.958  30.039   0.697
80081W        W51697  12.235   3.503  11.274
80082W        W51698  25.158  31.365   4.223
80083W        W51699  37.670  42.779   1.194
80084W        W51700  28.015  24.379  13.499
80085W        W51701  15.762  41.751   4.472
80086W        W51702  12.253  10.321   4.377
80087W        W51703   1.908  21.124  13.177
80088W        W51704  23.057  15.881   0.609
80089W        W51705  19.105   6.205  10.633
80090W        W51706  39.256  23.312  14.357
80091W        W51707  34.366  10.780   2.918
80092W        W51708  43.804   4.391  12.055
80093W        W51709  37.998  33.335  11.823
80094W        W51710  41.979   6.202  10.196
80095W        W51711  24.975   1.196  13.234
80096W        W51712  18.546  11.903  14.880
80097W        W51713  22.428   7.021   1.788
80098W        W51714  19.045  23.605  10.474
80099W        W51715  28.668  37.901   2.056
80100W        W51716  33.726  19.990  13.353
80101W        W51717  39.256  33.063   3.657
80102W        W51718   8.873  16.384  11.582
80103W        W51719  30.030  16.310  11.523
80104W        W51720  22.492  21.985  12.398
80105W        W51721  21.046  32.908  11.704
80106W        W51722  17.203  43.761   0.408
80107W        W51723   8.514  15.397  14.856
80108W        W51724   2.262   0.884   3.842
80109W        W51725  16.431  13.392  11.173
80110W        W51726  41.745  27.416   2.731
80111W        W51727   4.715  24.605  12.987
80112W        W51728  20.146   1.511  11.641
80113W        W51729  29.699  11.303   0.908
80114W        W51730  30.994   0.825  10.437
80115W        W51731  36.917  27.523   4.617
80116W        W51732  36.951   0.554  14.367
80117W        W51733  10.394  25.696   2.187
80118W        W51734   3.377  14.997  11.942
80119W        W51735  40.452  11.910   4.704
80120W        W51736  14.824   1.030   4.907
80121W        W51737  17.200   4.764   3.222
80122W        W51738  11.362  42.456  12.881
80123W        W51739   3.179  14.863   3.065
80124W        W51740   7.108   9.845  13.879
80125W        W51741  32.020  33.925   0.893
80126W        W51742   7.296  33.939  11.928
80127W        W51743  14.781  42.006   2.266
80128W        W51744   8.663  18.929   1.949
80129W        W51745  30.422  37.712   2.105
80130W        W51746  33.075   2.479   1.246
80131W        W51747  35.844  10.834   4.734
80132W        W51748  24.566  28.603   0.288
80133W        W51749  15.983  38.842   4.561
80134W        W51750  42.867   6.696   0.854
80135W        W51751  28.089  30.121   4.600
80136W        W51752  19.859  26.029   3.710
80137W        W51753  16.401  27.487   1.301
80138W        W51754  24.090  35.370   3.354
80139W        W51755  25.488  34.073   3.766
80140W        W51756  19.133  17.150   2.387
80141W        W51757  19.977  25.583  11.157
80142W        W51758  17.995  13.988  13.326
80143W        W51759  25.039   3.418  13.447
80144W        W51760  27.690  43.576   0.834
80145W        W51761  22.444  44.525   3.691
80146W        W51762   0.237  36.107  13.882
80147W        W51763  39.968  30.290   3.528
80148W        W51764  17.077   7.870   1.696
80149W        W51765  22.511  15.121   2.290
80150W        W51766  34.461  44.901  11.509
80151W        W51767  44.624   3.107  10.866
80152W        W51768   2.488  36.482   2.684
80153W        W51769  25.692  39.050   2.809
80154W        W51770   4.787   9.507   3.078
80155W        W51771  34.611  18.206   1.843
80156W        W51772  11.823  33.920   2.150
80157W        W51773  13.761  16.648   2.386
80158W        W51774  39.445  41.321  11.576
80159W        W51775  32.979   1.599   5.437
80160W        W51776  30.873  37.402   4.108
80161W        W51777  19.474  13.709  14.002
80162W        W51778   5.723   9.568  11.109
80163W        W51779  24.711  16.371  11.489
80164W        W51780  14.349  23.750   3.338
80165W        W51781   2.256  31.860   4.113
80166W        W51782  15.244  12.600  13.381
80167W        W51783  36.525  35.726  13.440
80168W        W51784   4.316  37.055  14.267
80169W        W51785   8.927  31.555  11.142
80170W        W51786  15.852  16.170  12.497
80171W        W51787   0.040  20.847   0.825
80172W        W51788  36.543  31.179  14.469
80173W        W51789  19.284  11.004   2.778
80174W        W51790  14.064  25.554  13.113
80175W        W51791  28.191  21.472  10.731
80176W        W51792   1.985  39.075  14.625
80177W        W51793  30.570  40.162  12.463
80178W        W51794  28.434  23.637  12.411
80179W        W51795  26.317   8.097  13.927
80180W        W51796  33.038  16.615  11.039
80181W        W51797  34.457  15.242  11.472
80182W        W51798  41.789   2.774   1.260
80183W        W51799   1.786  33.586  14.926
80184W        W51800  13.831  33.658  12.420
80185W        W51801  17.664  18.194  13.985
80186W        W51802  31.037  39.399   4.811
80187W        W51803  17.735  40.470   0.402
80188W        W51804  42.788   4.917   3.089
80189W        W51805  10.610  22.593  11.380
80190W        W51806   7.016   4.151  14.279
80191W        W51807   2.949  40.303   3.336
80192W        W51808  43.519  43.970  11.119
80193W        W51809   2.879  41.009  12.980
80194W        W51810  16.636  44.362  14.903
80195W        W51811  36.163  37.046  11.576
80196W        W51812  43.118  26.153   1.398
80197W        W51813  20.495  26.696   1.276
80198W        W51814  19.294  10.278  12.504
80199W        W51815  43.815  23.705  13.754
80200W        W51816  27.122   9.440   0.378
80201W        W51817   3.752  40.486   1.748
80202W        W51818  34.034  21.181   3.922
80203W        W51819  32.897  39.968  11.930
80204W        W51820   6.880  29.940  11.940
80205W        W51821  38.332   0.941   0.295
80206W        W51822  36.922  22.526   0.980
80207W        W51823  35.610  43.793  12.513
80208W        W51824   4.005  23.665  12.436
80209W        W51825  26.172  18.668   1.688
80210W        W51826  22.072  40.973  13.159
80211W        W51827  14.286   8.738   3.157
80212W        W51828  42.027  23.603   4.399
80213W        W51829   1.405  44.036  11.608
80214W        W51830  44.458  18.418  10.251
80215W        W51831  24.755  18.588  11.805
80216W        W51832  28.413  42.977   2.656
80217W        W51833  17.103   4.661  11.176
80218W        W51834  13.147  17.670  12.934
80219W        W51835  40.847  28.082  13.919
80220W        W51836  32.581   1.813   0.868
80221W        W51837  21.068  39.943  12.569
80222W        W51838  25.104  34.352  14.382
80223W        W51839  19.008  10.532   4.270
80224W        W51840  30.631  32.606   2.286
80225W        W51841  26.468  38.097   0.398
80226W        W51842  15.796  23.168  12.294
80227W        W51843  39.428   5.781  10.855
80228W        W51844  34.401  38.390   0.853
80229W        W51845  19.698  24.119  11.224
80230W        W51846  12.156  27.870  10.754
80231W        W51847  31.363   2.303   0.364
80232W        W51848  35.659  19.742  12.768
80233W        W51849  42.992   0.344   4.273
80234W        W51850   4.889  33.665   4.174
80235W        W51851   8.848  20.244   2.171
80236W        W51852  24.453  43.903   0.515
80237W        W51853  17.229  26.741  12.959
80238W        W51854  40.951  35.827   3.164
80239W        W51855  30.045  25.392  14.475
80240W        W51856  17.632   4.175   4.678
80241W        W51857   4.738  25.118   3.725
80242W        W51858  15.650  18.188   2.792
80243W        W51859   9.875  33.520  13.954
80244W        W51860  34.534  21.014  14.925
80245W        W51861   4.757  29.258  13.680
80246W        W51862  30.559  14.703  13.107
80247W        W51863  11.421  34.041  11.105
80248W        W51864  15.728  41.842  10.123
80249W        W51865   9.177  42.284   4.265
80250W        W51866  30.236  32.101   4.870
80251W        W51867  18.740   1.250  12.396
80252W        W51868  10.329  27.847   4.516
80253W        W51869  44.890   7.473   1.680
80254W        W51870  44.399  11.121   0.688
80255W        W51871  20.121  11.507   0.921
80256W        W51872  28.176  19.132  13.051
80257W        W51873  40.071  19.739  12.435
80258W        W51874  33.091   3.965  14.809
80259W        W51875  23.591  39.437   4.769
80260W        W51876  42.984   5.464  11.527
80261W        W51877  44.942  25.327  12.441
80262W        W51878  34.142  25.262  14.791
80263W        W51879  22.061  11.080  14.520
80264W        W51880  43.297   3.683   2.640
80265W        W51881  29.215   1.411   3.338
80266W        W51882  18.777  40.509  13.106
80267W        W51883   3.449  29.069   0.743
80268W        W51884  21.728   6.322   3.727
80269W        W51885  23.111  31.829   0.237
80270W        W51886  26.480  31.003   4.821
80271W        W51887  15.864  13.785  12.027
80272W        W51888   2.786  41.389  13.353
80273W        W51889   6.765  25.976   2.011
80274W        W51890  17.556  42.620  14.036
80275W        W51891  34.876   0.456   9.985
80276W        W51892  16.793  35.310  12.157
80277W        W51893  26.671  25.252   4.285
80278W        W51894  26.236  24.220   1.181
80279W        W51895   9.208  43.968   4.929
80280W        W51896  30.993  31.138   3.400
80281W        W51897  38.969  39.441   4.891
80282W        W51898  30.608  28.113  11.950
80283W        W51899  41.869  20.309   1.483
80284W        W51900  16.313  15.339   0.341
80285W        W51901   1.960   2.762  13.275
80286W        W51902  12.571  30.040  14.293
80287W        W51903  32.673  32.944   3.897
80288W        W51904   3.388  24.041  14.078
80289W        W51905  37.088  35.871   1.962
80290W        W51906   4.731  25.454   2.734
80291W        W51907   9.120  14.052   0.953
80292W        W51908  44.893  18.214  13.000
80293W        W51909  27.007  41.826   3.167
80294W        W51910  35.853  12.212   0.829
80295W        W51911  16.133  23.501  10.926
80296W        W51912  36.033   9.427  13.961
80297W        W51913  37.154  11.286   1.403
80298W        W51914  25.866  11.591  13.018
80299W        W51915  43.189  43.505  11.928
80300W        W51916  43.426  38.140  13.105
80301W        W51917   7.105  39.490  13.352
80302W        W51918  20.565  29.531  14.694
80303W        W51919  40.490  17.737  14.721
80304W        W51920  39.797  36.057   0.315
80305W        W51921  18.099  42.978   0.811
80306W        W51922  38.804   5.260  13.762
80307W        W51923   1.938   2.931   0.364
80308W        W51924   2.814  21.975   5.527
80309W        W51925   0.721  19.202   2.780
80310W        W51926  39.334   3.840   0.391
80311W        W51927  41.135  24.540   1.728
80312W        W51928   8.400  35.046  12.979
80313W        W51929  44.325  12.056   3.121
80314W        W51930  21.022   1.526   1.726
80315W        W51931  31.523   0.798   2.189
80316W        W51932  42.794  23.721   2.013
80317W        W51933   3.462   9.843   1.879
80318W        W51934  16.559  28.013   2.013
80319W        W51935  14.833  12.764   3.607
80320W        W51936  13.584   7.854  11.383
80321W        W51937  36.061   6.711   0.959
80322W        W51938  20.299  19.782  11.567
80323W        W51939   2.975  40.272  11.591
80324W        W51940  31.348  33.657  11.218
80325W        W51941  30.183  33.513   2.125
80326W        W51942  38.394   4.514  12.147
80327W        W51943   3.792   4.383   2.174
80328W        W51944  20.617  29.060   0.506
80329W        W51945  28.637   7.961  12.014
80330W        W51946  27.607  19.130   4.779
80331W        W51947  22.023  30.353   2.975
80332W        W51948  29.595  29.156  14.917
80333W        W51949  12.324   2.680   4.359
80334W        W51950  13.144   2.697   3.202
80335W        W51951  24.101  14.579   3.827
80336W        W51952  34.006  24.978   3.830
80337W        W51953  10.199  24.976   1.380
80338W        W51954  13.894  41.727   3.346
80339W        W51955  16.599  41.561  11.194
80340W        W51956  39.362   5.846   3.315
80341W        W51957   5.047  42.458  11.671
80342W        W51958  19.832  26.080  11.064
80343W        W51959  27.231  30.093   0.832
80344W        W51960  29.445  27.987  12.914
80345W        W51961   4.600  17.022   4.624
80346W        W51962  39.011   7.500  14.753
80347W        W51963  17.299  16.642  11.026
80348W        W51964  22.034  39.959   2.839
80349W        W51965  34.607  43.246   2.299
80350W        W51966  20.702   6.901  13.390
80351W        W51967  29.445  20.130  12.568
80352W        W51968   9.375   6.914  14.739
80353W        W51969   8.503  32.633   1.060
80354W        W51970  39.266  29.972   1.874
80355W        W51971  25.028  21.550   4.687
80356W        W51972   5.846  14.366  14.308
80357W        W51973  26.178  41.314   2.802
80358W        W51974   5.162  18.047   0.941
80359W        W51975  19.054  44.908  13.542
80360W        W51976  14.871  28.541   1.848
80361W        W51977  32.853   4.874  14.760
80362W        W51978  10.856  26.374  14.339
80363W        W51979  31.192  34.894   4.653
80364W        W51980  33.947  21.979  12.577
80365W        W51981   4.828  16.651  13.940
80366W        W51982  41.569   4.406  12.993
80367W        W51983  12.113  16.138  11.960
80368W        W51984  26.657  13.850  14.516
80369W        W51985  10.122  16.222   0.971
80370W        W51986   9.724  29.578  13.494
80371W        W51987  17.012  18.533  13.538
80372W        W51988  33.513   1.014  11.600
80373W        W51989  18.662  17.820   0.323
80374W        W51990  43.673  19.241  11.169
80375W        W51991   0.875  29.997   0.845
80376W        W51992  43.432  37.476  11.522
80377W        W51993  11.804  41.145   3.305
80378W        W51994  13.577   8.326   1.904
80379W        W51995  12.390  32.123  14.991
80380W        W51996  25.877  11.828   0.566
80381W        W51997  39.772  17.630  12.925
80382W        W51998   5.364  39.108   3.148
80383W        W51999   3.760   6.890  11.206
80384W        W52000   3.305  41.201   1.268
80385W        W52001  32.636  10.244   0.430
80386W        W52002  34.343  19.717   0.318
80387W        W52003  14.022  21.550  10.694
80388W        W52004  37.033  13.882   0.248
80389W        W52005  12.398  31.531   2.209
80390W        W52006  15.874  42.367  13.270
80391W        W52007   4.809  39.398  10.757
80392W        W52008   1.478  17.484   1.329
80393W        W52009  44.822   9.170   3.804
80394W        W52010   5.677  38.583  14.819
80395W        W52011   8.508   8.707  10.192
80396W        W52012  40.802  34.889   3.246
80397W        W52013  18.639  22.803  10.633
80398W        W52014  15.808  44.213   1.261
80399W        W52015  24.136  15.116  12.492
80400W        W52016  35.584   5.000   0.349
80401W        W52017  21.228  41.957   0.864
80402W        W52018  21.806  20.291   1.416
80403W        W52019  37.535  37.401   4.550
80404W        W52020  19.197  23.061  12.064
80405W        W52021   9.647  16.853  13.376
80406W        W52022  25.122   3.613   1.660
80407W        W52023  26.524  12.207  14.026
80408W        W52024   3.441  38.992  14.552
80409W        W52025   5.965  32.526   4.214
80410W        W52026  24.633   6.983   4.242
80411W        W52027  43.794  16.014   3.057
80412W        W52028  15.306   9.804   2.518
80413W        W52029   9.281  26.429   1.013
80414W        W52030  30.258  30.103   4.738
80415W        W52031  39.400  15.712   9.982
80416W        W52032  12.857  15.641   0.290
80417W        W52033  18.335  10.161   3.184
80418W        W52034   5.338  14.419  13.496
80419W        W52035  36.269   9.333  14.475
80420W        W52036  23.106  27.285  13.317
80421W        W52037  13.198  26.725   1.930
80422W        W52038  12.811  41.493   0.004
80423W        W52039  19.747  17.237  12.881
80424W        W52040  41.294   4.984  11.177
80425W        W52041   3.812  22.536  11.580
80426W        W52042  18.631  39.449  11.600
80427W        W52043   2.747  40.416   1.708
80428W        W52044  16.667  27.692   0.871
80429W        W52045  19.547  17.531  12.470
80430W        W52046   7.968  32.669   0.953
80431W        W52047  17.870  41.810   0.746
80432W        W52048  21.734  40.418  12.626
80433W        W52049   2.318   3.162   2.273
80434W        W52050  12.371  14.550  11.528
80435W        W52051  29.133  30.934   0.474
80436W        W52052   8.080  37.574  12.041
80437W        W52053   7.753   6.942  14.703
80438W        W52054  32.636  27.640  11.732
80439W        W52055  16.083  42.009  14.839
80440W        W52056  33.818  16.072   2.666
80441W        W52057   2.887  21.230   1.714
80442W        W52058  15.399  36.119   2.217
80443W        W52059  13.295  35.193   2.255
80444W        W52060  24.998   9.869  11.108
80445W        W52061  22.121   7.061   4.394
80446W        W52062  21.673  43.878  13.999
80447W        W52063  24.264   9.747   1.147
80448W        W52064  19.002  16.825   0.005
80449W        W52065  44.888  25.908   4.046
80450W        W52066  11.807   4.173  13.529
80451W        W52067  31.286  18.024  11.375
80452W        W52068  38.626  15.173  14.982
80453W        W52069  44.862  20.832  10.786
80454W        W52070   5.593  30.681   4.134
80455W        W52071  19.330   5.864   2.199
80456W        W52072  40.095  10.013  14.384
80457W        W52073  44.325  22.288   4.191
80458W        W52074  23.522  21.292  14.377
80459W        W52075   1.967  22.444   2.704
80460W        W52076  35.811  25.840  12.098
80461W        W52077  44.489  17.245  12.930
80462W        W52078   3.812  19.447  14.884
80463W        W52079  11.334  39.938  11.628
80464W        W52080  34.419  37.902   2.602
80465W        W52081  11.119  22.516   3.811
80466W        W52082  37.944  23.673  11.206
80467W        W52083  39.213  10.487  10.091
80468W        W52084  39.644  21.154  13.436
80469W        W52085  43.965  10.595   0.507
80470W        W52086  38.868  19.564   4.632
80471W        W52087  39.030  17.716   5.007
80472W        W52088   5.573  39.575  11.584
80473W        W52089  41.306  27.400  13.951
80474W        W52090  20.607  22.629   0.235
80475W        W52091   1.254  26.635   0.902
80476W        W52092  43.595  34.428  13.987
80477W        W52093   8.843   3.271  11.042
80478W        W52094  43.338  37.014   3.795
80479W        W52095  38.838  27.929  12.105
80480W        W52096  23.467  25.984   2.947
80481W        W52097   5.494  19.121   1.291
80482W        W52098  44.287  18.179   4.311
80483W        W52099  10.107   0.399   4.137
80484W        W52100  21.946   5.289   0.978
80485W        W52101   7.939  33.973   4.231
80486W        W52102  17.747  38.818   1.856
80487W        W52103  22.080  38.278  14.502
80488W        W52104  32.450  33.190  11.514
80489W        W52105  18.324  18.737  11.383
80490W        W52106   0.173  21.625  11.860
80491W        W52107  22.015  10.389   1.426
80492W        W52108  38.888   0.220  10.345
80493W        W52109   6.846   8.615   1.722
80494W        W52110  23.854  22.027   0.510
80495W        W52111  42.555   4.839   4.553
80496W        W52112  15.479  34.197   4.045
80497W        W52113   2.404   2.735   3.609
80498W        W52114  31.405  37.845   1.801
80499W        W52115   3.244  32.817  12.880
80500W        W52116   4.179   3.459  11.699
80501W        W52117  19.688  12.211  11.191
80502W        W52118  43.371  12.245   1.976
80503W        W52119  17.456  11.378   0.002
80504W        W52120  14.884  23.984   4.835
80505W        W52121  38.604  40.147   2.739
80506W        W52122  29.091  18.135  14.540
80507W        W52123   6.620  39.914   1.819
80508W        W52124  39.476  13.124   3.775
80509W        W52125  24.943  40.315  13.955
80510W        W52126  13.115   1.750  12.029
80511W        W52127  27.712  15.168   0.748
80512W        W52128  36.043  15.859  10.542
80513W        W52129  31.451  34.557   2.065
80514W        W52130  15.407  19.697   3.715
80515W        W52131  26.335   5.941   5.189
80516W        W52132  25.171  19.530   3.296
80517W        W52133  11.838  35.847   4.719
80518W        W52134  24.006  22.709   1.867
80519W        W52135  14.937  10.214   3.275
80520W        W52136   7.355   6.247  11.262
80521W        W52137  43.324  35.836   0.326
80522W        W52138  41.998  43.463  10.636
80523W        W52139  23.846  37.449   2.294
80524W        W52140  32.824   2.296  13.184
80525W        W52141  11.114  16.718  13.519
80526W        W52142  30.902  40.557  11.238
80527W        W52143  11.528  23.521  12.130
80528W        W52144  39.065   4.451   4.190
80529W        W52145  28.947  17.100   1.161
80530W        W52146  30.094  19.306   1.711
80531W        W52147  16.151  13.742   0.930
80532W        W52148  41.239   4.776   0.972
80533W        W52149  33.601  21.510  14.059
80534W        W52150  41.901  29.163  14.273
80535W        W52151  41.816  35.461  14.859
80536W        W52152  29.663   0.125  14.997
80537W        W52153  27.591   3.274   0.325
80538W        W52154   6.946  35.310  11.924
80539W        W52155  26.187   4.401  14.518
80540W        W52156  22.092  14.532   3.290
80541W        W52157  30.618  23.315  14.406
80542W        W52158  15.652  36.710  11.980
80543W        W52159   1.135  12.278  11.082
80544W        W52160  36.192  16.585  12.125
80545W        W52161  20.736   5.670  12.146
80546W        W52162  41.291   6.998   3.137
80547W        W52163   2.043   6.670   4.194
80548W        W52164  43.593  18.709  10.720
80549W        W52165  10.331  12.521  11.448
80550W        W52166  25.220   6.114  11.508
80551W        W52167   2.475  36.034   3.573
80552W        W52168  35.803   3.001  11.423
80553W        W52169   2.820  13.249  13.062
80554W        W52170  22.332  23.542   4.256
80555W        W52171  15.966  39.188   2.629
80556W        W52172  16.282  26.115   3.766
80557W        W52173  39.632  23.047   3.751
80558W        W52174  31.139   1.412   4.211
80559W        W52175  19.050  18.239   3.702
80560W        W52176   4.484   5.669   2.761
80561W        W52177   2.993  29.254   3.586
80562W        W52178  17.101  44.509   3.778
80563W        W52179   2.865  12.297   0.571
80564W        W52180   6.917   7.114  14.809
80565W        W52181  16.076   2.422   2.669
80566W        W52182  34.874  22.122  14.538
80567W        W52183   9.695   9.105  13.892
80568W        W52184  11.095  17.607   2.228
80569W        W52185  16.128  13.856  13.883
80570W        W52186  24.309  13.836  11.395
80571W        W52187   2.467  21.993  11.131
80572W        W52188  21.474  32.703  10.853
80573W        W52189  25.210  37.864  11.987
80574W        W52190  24.687  34.134   4.232
80575W        W52191  10.206  37.640   4.157
80576W        W52192  40.333  17.396  12.054
80577W        W52193  26.774   6.444  13.325
80578W        W52194  24.969  32.120   5.114
80579W        W52195  42.509  33.393   3.727
80580W        W52196  39.891   5.019   0.257
80581W        W52197   6.619  26.661   0.886
80582W        W52198  19.174  11.875   4.848
80583W        W52199   4.272  16.115   3.674
80584W        W52200  15.553   3.786   0.430
80585W        W52201  20.282  23.338  11.083
80586W        W52202  29.049   4.451  10.881
80587W        W52203  22.821   0.834   2.136
80588W        W52204  11.642  15.126  14.018
80589W        W52205  28.491  35.438  13.592
80590W        W52206   5.348  35.977  13.186
80591W        W52207  12.085  40.943  10.700
80592W        W52208  18.161  12.383  13.813
80593W        W52209  20.658  14.152   4.121
80594W        W52210  29.858   7.760   2.676
80595W        W52211   7.117  40.921   4.001
80596W        W52212  26.140  10.800   3.274
80597W        W52213  23.381  18.737   1.818
80598W        W52214   3.833   3.069   3.087
80599W        W52215  21.055   3.277   4.675
80600W        W52216  28.499  40.991   0.324
80601W        W52217  27.540   8.094   4.555
80602W        W52218  23.297   1.077   0.260
80603W        W52219  27.825  43.796  12.954
80604W        W52220  17.518   1.379  14.757
80605W        W52221  19.303  11.333  13.976
80606W        W52222   0.525   5.162   4.481
80607W        W52223  43.277   4.693  14.372
80608W        W52224  26.586  27.442  14.796
80609W        W52225  38.420  12.498   4.116
80610W        W52226  11.284  18.100   0.796
80611W        W52227   9.853   3.513   0.868
80612W        W52228   3.992  41.727  11.245
80613W        W52229  22.187  29.300   4.381
80614W        W52230  10.491  16.998  14.831
80615W        W52231  22.927  31.405  13.378
80616W        W52232  32.166  12.403  12.955
80617W        W52233   6.257   6.925  11.024
80618W        W52234  28.946   3.773   2.434
80619W        W52235  30.115  38.434  11.940
80620W        W52236  25.459  16.750  11.211
80621W        W52237   6.639  40.348   4.582
80622W        W52238  35.344  25.868   0.030
80623W        W52239  21.012   9.891  12.646
80624W        W52240  10.759  39.590  14.498
80625W        W52241  28.832  19.913   4.630
80626W        W52242   7.916  21.098   0.034
80627W        W52243  23.229  32.647  11.412
80628W        W52244   9.376   9.153   2.964
80629W        W52245  42.579  41.395  14.993
80630W        W52246  20.590  27.147   0.571
80631W        W52247  21.461  12.315  14.128
80632W        W52248  26.994  14.235   5.578
80633W        W52249  13.697  14.620  11.691
80634W        W52250  42.174   8.800  13.643
80635W        W52251  35.585  21.924  12.109
80636W        W52252  11.000  20.714  11.103
80637W        W52253  11.745  24.200   0.324
80638W        W52254  16.646  43.766  13.423
80639W        W52255   6.911  20.951  13.304
80640W        W52256  24.619   0.941   3.427
80641W        W52257   1.344  24.774   0.292
80642W        W52258  28.765   8.268  14.432
80643W        W52259  20.404   6.278  11.012
80644W        W52260  43.515  14.656   3.628
80645W        W52261  25.466  37.602   0.263
80646W        W52262  35.271  23.051  10.660
80647W        W52263  30.224   5.431  12.371
80648W        W52264  11.035   7.271   3.256
80649W        W52265  26.188   4.355   4.697
80650W        W52266   1.554  17.589  12.464
80651W        W52267  16.206   4.833  10.670
80652W        W52268  34.904  42.226   0.856
80653W        W52269  29.773   4.682  14.729
80654W        W52270  21.674  21.945  11.035
80655W        W52271  10.683  39.635  10.913
80656W        W52272   7.789  43.763  13.282
80657W        W52273  29.292  28.398   3.812
80658W        W52274  25.585  18.601   4.586
80659W        W52275  28.754  35.895  12.390
80660W        W52276  21.049  27.369  11.457
80661W        W52277  36.998  34.596  10.730
80662W        W52278  12.007  34.589  14.994
80663W        W52279  39.243  18.032   1.664
80664W        W52280   2.876  40.110  13.907
80665W        W52281  22.831  19.811  14.310
80666W        W52282  30.554  32.111   3.257
80667W        W52283  31.829  14.547  13.346
80668W        W52284  34.729   4.146  14.823
80669W        W52285  16.148  38.497  13.004
80670W        W52286   6.237  27.169  13.820
80671W        W52287   7.711   8.785  13.589
80672W        W52288  19.261  18.665  14.508
80673W        W52289   7.205   7.724   0.305
80674W        W52290  26.006  18.930   2.129
80675W        W52291  15.809   0.476  11.290
80676W        W52292  23.576  16.724  12.016
80677W        W52293  36.405  43.554  14.079
80678W        W52294   3.328  11.602   0.922
80679W        W52295  12.224  30.598  14.114
80680W        W52296  27.952  29.992   3.227
80681W        W52297  21.981   6.436  11.098
80682W        W52298  31.629   1.826   2.358
80683W        W52299  33.501  33.888   3.445
80684W        W52300  25.465  32.502  11.645
80685W        W52301  11.928  21.147  12.075
80686W        W52302  35.080  33.115  11.430
80687W        W52303  20.828  18.093  13.385
80688W        W52304   3.497  25.223  14.496
80689W        W52305  28.460  41.654  12.478
80690W        W52306   8.734  36.335   0.197
80691W        W52307   1.245   4.164  11.117
80692W        W52308  14.697  34.184   3.101
80693W        W52309  44.382   5.673   1.770
80694W        W52310  17.076  19.103  10.101
80695W        W52311  26.448  26.966   4.615
80696W        W52312  20.497  14.228  11.807
80697W        W52313  24.651  30.564   1.209
80698W        W52314   2.540  37.022   2.417
80699W        W52315  29.934  31.983  12.932
80700W        W52316  23.643  16.677  14.103
80701W        W52317  18.673   6.312   3.756
80702W        W52318  15.755  31.473   3.425
80703W        W52319  39.272  18.697   2.690
80704W        W52320  37.370  32.004  10.259
80705W        W52321  33.869  18.251  11.939
80706W        W52322   9.306   8.426   2.258
80707W        W52323   0.896   2.902  14.824
80708W        W52324   1.783  37.532   4.129
80709W        W52325  33.918  29.515   1.106
80710W        W52326  15.022  42.500   0.469
80711W        W52327   4.352   6.933  10.559
80712W        W52328  15.690  16.058  14.420
80713W        W52329  14.336   5.338   3.698
80714W        W52330   5.254   2.324   4.764
80715W        W52331  32.979   2.748  12.374
80716W        W52332  10.224   9.831  12.947
80717W        W52333  28.149  22.149   0.789
80718W        W52334  31.447  44.956   4.566
80719W        W52335  42.810  41.552   0.429
80720W        W52336   1.751   3.401   1.318
80721W        W52337  43.233  38.971  14.354
80722W        W52338  42.210   3.717   0.805
80723W        W52339  36.754   3.313  12.633
80724W        W52340  10.882  15.550  12.015
80725W        W52341  37.543  18.626   1.692
80726W        W52342  40.310  32.121   1.680
80727W        W52343   8.843  33.110  14.443
80728W        W52344  22.534  10.654  11.435
80729W        W52345  38.603  40.895  14.870
80730W        W52346  24.680  11.781   3.762
80731W        W52347   7.825  44.844  14.095
80732W        W52348   5.146  31.352   2.412
80733W        W52349   2.889  11.737   4.131
80734W        W52350   1.235  29.218   1.215
80735W        W52351  18.681   6.661  11.411
80736W        W52352   7.798  44.231  10.806
80737W        W52353  17.202  44.077  12.689
80738W        W52354   7.643  11.838   3.859
80739W        W52355  15.228   4.195   2.965
80740W        W52356  33.918  15.344  12.518
80741W        W52357  32.118  33.528  10.589
80742W        W52358  14.392  28.217   2.328
80743W        W52359  44.866  44.744  14.749
80744W        W52360   9.250  12.319  10.980
80745W        W52361  28.426  31.941  12.919
80746W        W52362  10.307   0.007   0.295
80747W        W52363  44.467  12.933   4.488
80748W        W52364   6.387  14.174  14.699
80749W        W52365  28.547  19.235  12.376
80750W        W52366  14.632  42.710   2.892
80751W        W52367  19.234  29.803   4.858
80752W        W52368   7.364   5.841   0.366
80753W        W52369  40.502  32.388   1.282
80754W        W52370  35.459  11.172  14.720
80755W        W52371  41.424  18.926  14.886
80756W        W52372   4.741  23.194  12.953
80757W        W52373  10.286  11.669  13.780
80758W        W52374  19.181   9.352  10.637
80759W        W52375  43.765   5.034   0.666
80760W        W52376  15.884  41.674   2.867
80761W        W52377  14.413  18.233  13.119
80762W        W52378  12.623  35.649  12.097
80763W        W52379   4.798   3.953   3.819
80764W        W52380   8.565  39.727   3.871
80765W        W52381   5.266  44.028  13.348
80766W        W52382   0.644  26.650   2.341
80767W        W52383   8.779  35.029   4.552
80768W        W52384  36.214  31.494   3.489
80769W        W52385  12.710  15.201  14.974
80770W        W52386   5.485  26.184   4.351
80771W        W52387  14.336   6.966   2.253
80772W        W52388  35.615   0.449   2.265
80773W        W52389  36.981   8.358  13.332
80774W        W52390  11.266  27.220  11.606
80775W        W52391  11.840  14.223  13.560
80776W        W52392  28.497   8.296  14.897
80777W        W52393  23.000  43.349   3.341
80778W        W52394   8.356   1.838   3.854
80779W        W52395   5.677  16.512  12.921
80780W        W52396  34.508  22.938   4.687
80781W        W52397  44.865  32.096  14.886
80782W        W52398  36.864   1.950   2.364
80783W        W52399  37.172  35.579  11.216
80784W        W52400  32.830  32.051  10.471
80785W        W52401   1.868  41.054   3.375
80786W        W52402  30.945  11.389   1.457
80787W        W52403  28.265  33.051   4.190
80788W        W52404   1.628  12.268  14.563
80789W        W52405  24.499  25.490   3.783
80790W        W52406  32.440  36.894  12.010
80791W        W52407  10.964  28.163  10.084
80792W        W52408  40.502  38.083   0.336
80793W        W52409  20.732  13.136  13.284
80794W        W52410  12.127  17.633   3.371
80795W        W52411  41.991  27.199  10.650
80796W        W52412  15.941  20.355   3.341
80797W        W52413  13.714  39.980  13.670
80798W        W52414  31.046  29.931  12.149
80799W        W52415   2.196   1.794  11.038
80800W        W52416  25.406  41.732  14.615
80801W        W52417   4.486  24.527  10.549
80802W        W52418   5.434  22.217  11.525
80803W        W52419   7.615  39.018   0.908
80804W        W52420  12.945  18.328  10.257
80805W        W52421  37.345   9.673   3.767
80806W        W52422  35.581  41.746   0.450
80807W        W52423  43.535  11.915  13.521
80808W        W52424  13.656   2.010  14.244
80809W        W52425   3.628  34.020   2.406
80810W        W52426  19.579   3.533  11.144
80811W        W52427  38.988  28.928   2.656
80812W        W52428  25.683  18.594  12.875
80813W        W52429  35.538   8.100  10.628
80814W        W52430  15.718   5.298  11.045
80815W        W52431  35.619  44.302   2.612
80816W        W52432  30.135  15.128  14.499
80817W        W52433  27.951   5.417  14.344
80818W        W52434   7.356  31.208  12.468
80819W        W52435  10.569  43.426   2.854
80820W        W52436  41.887  21.940  13.912
80821W        W52437   9.775  32.051   0.428
80822W        W52438  30.761  20.127   1.915
80823W        W52439   6.776  43.112  14.752
80824W        W52440  18.426  31.461   4.167
80825W        W52441   8.663   4.884   2.128
80826W        W52442  15.629  22.463  14.948
80827W        W52443   7.916  38.115  13.138
80828W        W52444  10.068  36.141   2.134
80829W        W52445  12.160  33.205  12.971
80830W        W52446   8.830  11.107  12.085
80831W        W52447  10.783   9.705   2.839
80832W        W52448  31.975  19.027   3.129
80833W        W52449  37.551  30.998   3.353
80834W        W52450  22.067  39.059   3.724
80835W        W52451  42.749  42.506   1.701
80836W        W52452  19.219  18.890  11.593
80837W        W52453  10.373   1.544  14.482
80838W        W52454  29.568   0.444  10.613
80839W        W52455  18.027  41.770  13.663
80840W        W52456   4.021  34.885  11.204
80841W        W52457  17.842   5.366  13.802
80842W        W52458   0.856  29.991  13.820
80843W        W52459   5.948  35.976   0.206
80844W        W52460   9.658   0.623   4.362
80845W        W52461  43.760  36.045  14.438
80846W        W52462  36.330   7.209   4.968
80847W        W52463  10.213  23.479   2.526
80848W        W52464  44.671  39.077   3.996
80849W        W52465  15.105   7.166   1.275
80850W        W52466  23.590  21.530   1.632
80851W        W52467  36.481  22.010   3.159
80852W        W52468  35.936  24.020   1.813
80853W        W52469  22.444  23.108   0.929
80854W        W52470   8.295   4.014  14.573
80855W        W52471   3.321   9.349   2.737
80856W        W52472  32.986  41.407  13.445
80857W        W52473  23.039  17.229   0.799
80858W        W52474  32.187   3.803   4.283
80859W        W52475  23.884  34.621   1.094
80860W        W52476  13.776  37.254  11.781
80861W        W52477  37.688  19.799  12.574
80862W        W52478  22.223  33.499  14.456
80863W        W52479  41.972  28.158  13.488
80864W        W52480  31.848  32.382   4.590
80865W        W52481  10.723  25.591   3.121
80866W        W52482  24.457  18.156  12.405
80867W        W52483  28.715  28.436  13.973
80868W        W52484  25.476  28.736   3.807
80869W        W52485  15.175  40.540  11.524
80870W        W52486  35.017   0.257   4.349
80871W        W52487  35.686  41.128  11.104
80872W        W52488   2.225  27.150   3.726
80873W        W52489  26.288  19.783   1.861
80874W        W52490  13.769  43.438   1.267
80875W        W52491   2.102   3.439   0.422
80876W        W52492   4.932  13.790   3.776
80877W        W52493  23.413  36.022   0.370
80878W        W52494  44.390   0.189  12.922
80879W        W52495  41.955  20.541  10.759
80880W        W52496  36.375  23.539  14.000
80881W        W52497   3.767   1.476  12.500
80882W        W52498  14.749  39.537  13.846
80883W        W52499  41.046  33.204   1.343
80884W        W52500   7.447   5.005  12.047
80885W        W52501  14.682   5.758   4.504
80886W        W52502  24.175  36.629  12.586
80887W        W52503  22.819  10.631  10.451
80888W        W52504  12.682  21.791  13.894
80889W        W52505  22.773  12.352   1.788
80890W        W52506  31.412  22.960   2.053
80891W        W52507  36.024  42.107   2.694
80892W        W52508  24.239  34.185  11.028
80893W        W52509  40.205  37.526   5.018
80894W        W52510  43.080  18.267  10.597
80895W        W52511  20.183  33.329  12.436
80896W        W52512  17.823  32.390   3.256
80897W        W52513   1.418  39.531  12.473
80898W        W52514  14.117  18.780  10.145
80899W        W52515  20.024  29.457   1.434
80900W        W52516  37.102  12.293  10.707
80901W        W52517  21.457  15.510  14.505
80902W        W52518  21.469   6.147   3.299
80903W        W52519  31.007  28.339  11.156
80904W        W52520  33.966  30.118  10.850
80905W        W52521   6.236  13.907   1.481
80906W        W52522  22.557  20.153   4.615
80907W        W52523  26.321  33.825  10.879
80908W        W52524   2.728  33.267   1.288
80909W        W52525  25.353  19.997   5.003
80910W        W52526  38.901  30.449   2.741
80911W        W52527  36.101   0.895   1.870
80912W        W52528   8.854  15.358  10.825
80913W        W52529  20.841  30.164  13.731
80914W        W52530  10.724  37.869  14.206
80915W        W52531   4.256  43.930   2.862
80916W        W52532  38.070  22.622  13.895
80917W        W52533  18.777  10.754  13.007
80918W        W52534  37.096  14.136   3.800
80919W        W52535  17.631   8.589   3.736
80920W        W52536  26.614  12.879  11.601
80921W        W52537  15.866  22.120   4.506
80922W        W52538  14.265  32.348  14.537
80923W        W52539   1.772   1.208   4.771
80924W        W52540  28.575  39.427   3.148
80925W        W52541  18.700   6.149   3.256
80926W        W52542  33.691  44.779  11.235
80927W        W52543  17.668  16.049  12.176
80928W        W52544   9.301   4.513   4.326
80929W        W52545  32.144  39.314   0.893
80930W        W52546  11.723  12.174   4.090
80931W        W52547   0.484  10.291  13.497
80932W        W52548  27.120  31.144   4.083
80933W        W52549  11.639  27.670   3.634
80934W        W52550   2.756  12.667   0.216
80935W        W52551  37.268  28.250   3.244
80936W        W52552   3.626   2.969   1.791
80937W        W52553   0.839  13.127  12.981
80938W        W52554  39.077  23.882  14.457
80939W        W52555   2.389  34.942  13.203
80940W        W52556  20.527  13.541   0.153
80941W        W52557  32.624   4.049   0.982
80942W        W52558  40.063  40.355  13.682
80943W        W52559  38.740  35.966  13.253
80944W        W52560  28.434   6.336   1.998
80945W        W52561   8.615  17.500   4.144
80946W        W52562  32.024  14.331  12.047
80947W        W52563  31.584  22.643  11.115
80948W        W52564   1.485  13.247   4.382
80949W        W52565  36.294  36.761   0.720
80950W        W52566  36.399   7.092  13.014
80951W        W52567  27.657  15.351  14.306
80952W        W52568  15.024  28.951   0.163
80953W        W52569  16.806  21.177   3.780
80954W        W52570  26.568   9.832  13.831
80955W        W52571  25.003  39.417   2.336
80956W        W52572  38.331  19.457   4.594
80957W        W52573  20.141  24.442   1.159
80958W        W52574  16.353  13.361  12.428
80959W        W52575   6.423  21.058   2.765
80960W        W52576  12.875  32.052   0.094
80961W        W52577   8.199  32.663  14.798
80962W        W52578   2.277  23.894  13.412
80963W        W52579  17.005  32.917  12.800
80964W        W52580  18.604  40.232   2.293
80965W        W52581  31.366  15.095  10.633
80966W        W52582  27.492   9.310  10.734
80967W        W52583  28.692  27.439   1.439
80968W        W52584  43.152  10.638  12.163
80969W        W52585  33.445   4.412   2.860
80970W        W52586  19.291  11.732   3.269
80971W        W52587   8.633  15.808  10.777
80972W        W52588  26.653  19.424   1.725
80973W        W52589  34.620  42.218   0.404
80974W        W52590  27.603  18.506   1.027
80975W        W52591  37.639  36.960  13.015
80976W        W52592  22.621   2.249   1.447
80977W        W52593  32.984   2.004   3.146
80978W        W52594   9.742  24.222  11.729
80979W        W52595  26.945  25.057  14.687
80980W        W52596   0.055  15.373  11.153
80981W        W52597   3.433   8.352   2.655
80982W        W52598  30.930  11.829  14.829
80983W        W52599   9.856  16.047   3.187
80984W        W52600  10.792   7.075  11.147
80985W        W52601  27.268   2.968   3.365
80986W        W52602   8.847  29.874   1.835
80987W        W52603  28.487  12.813   0.386
80988W        W52604  22.078   3.695  14.290
80989W        W52605   2.959   2.898   0.318
80990W        W52606  16.719  16.211   9.832
80991W        W52607  15.660   6.354  14.025
80992W        W52608  16.248  41.532  11.614
80993W        W52609  43.655  43.020   5.050
80994W        W52610   8.331  11.899  13.006
80995W        W52611  13.358   4.838  12.311
80996W        W52612  12.774  16.276   3.347
80997W        W52613  41.989  31.665   4.168
80998W        W52614   3.602   3.751   1.721
80999W        W52615  41.940   6.724   2.754
81000W        W52616  14.528  21.635   1.545
81001W        W52617  11.648  15.396   0.880
81002W        W52618  43.937  16.841   2.892
81003W        W52619  38.812  31.358  14.825
81004W        W52620   2.729   7.437   3.268
81005W        W52621  23.806  36.517  13.385
81006W        W52622  14.937  20.940  10.192
81007W        W52623  10.633  34.483   0.263
81008W        W52624  10.740  35.863   1.707
81009W        W52625  35.693  26.763  11.159
81010W        W52626  34.862  19.221  13.935
81011W        W52627  44.966  19.356  10.827
81012W        W52628   3.432   5.443   1.416
81013W        W52629  18.985  43.464  10.177
81014W        W52630   1.870  32.027  14.784
81015W        W52631   7.382  34.026   3.258
81016W        W52632   0.350  27.151   0.804
81017W        W52633  20.928  17.580  13.561
81018W        W52634  20.127  18.239  12.605
81019W        W52635  27.252  19.746  12.034
81020W        W52636  28.890  30.003  13.591
81021W        W52637  38.848  15.527  11.235
81022W        W52638   0.763  36.911   5.383
81023W        W52639  32.385  36.548   2.805
81024W        W52640  18.495  25.666  11.080
81025W        W52641  31.169  28.925   2.383
81026W        W52642  26.439  10.345   1.610
81027W        W52643  22.651  21.155  11.440
81028W        W52644   0.246  13.684  13.494
81029W        W52645  37.377  20.226   3.081
81030W        W52646   5.121  19.614  14.755
81031W        W52647  36.675  11.069  13.582
81032W        W52648  42.028  11.786  13.959
81033W        W52649  31.909  16.239  14.754
81034W        W52650  16.453  44.455   1.671
81035W        W52651  12.103  29.165  13.780
81036W        W52652  33.606   1.723  10.264
81037W        W52653   9.404  34.833  12.955
81038W        W52654   5.972  34.846  10.980
81039W        W52655  23.179   0.867  13.016
81040W        W52656  17.604   2.422   0.894
81041W        W52657  11.443  37.106   1.792
81042W        W52658  30.772  23.975   1.033
81043W        W52659  16.107   8.223   3.143
81044W        W52660  11.630  21.295   1.919
81045W        W52661  25.961  23.751   2.523
81046W        W52662  14.144  35.735   4.113
81047W        W52663   4.737   2.252  11.113
81048W        W52664  42.008  33.498   1.414
81049W        W52665  34.714  26.782   4.076
81050W        W52666  11.316   8.134   2.314
81051W        W52667  11.400  30.115  14.559
81052W        W52668  20.168  19.548  13.910
81053W        W52669  34.699  33.189  14.451
81054W        W52670  25.636   5.320   2.423
81055W        W52671   1.269  36.507  11.195
81056W        W52672  41.512  38.024  11.342
81057W        W52673  12.259   1.305   3.800
81058W        W52674  29.611   8.098   4.303
81059W        W52675   7.123  25.540   4.585
81060W        W52676  17.584   5.781   2.761
81061W        W52677  25.536  19.600  14.810
81062W        W52678   7.322  43.526   0.725
81063W        W52679  15.771  40.895   1.009
81064W        W52680  39.056  12.202  14.974
81065W        W52681  32.603  11.972  11.601
81066W        W52682   6.926  41.438  12.572
81067W        W52683  30.958  19.897   3.585
81068W        W52684  25.835  13.016  12.499
81069W        W52685  11.163   1.001  14.151
81070W        W52686  15.682   4.543   4.558
81071W        W52687   6.003  41.445   0.784
81072W        W52688  36.990  10.619   2.429
81073W        W52689   2.199  12.661  12.441
81074W        W52690  22.717  33.391   2.339
81075W        W52691  38.239  29.894  13.989
81076W        W52692  21.146   7.832  10.721
81077W        W52693  40.566  37.926   0.833
81078W        W52694  19.187  31.849   0.631
81079W        W52695  42.162  20.649  14.603
81080W        W52696  32.285  37.885   4.990
81081W        W52697  13.605  34.336  13.797
81082W        W52698  15.617  25.275   1.730
81083W        W52699  30.451  31.222   0.864
81084W        W52700  33.694  39.895   4.283
81085W        W52701  26.531  39.112   0.256
81086W        W52702  25.911   3.189   4.274
81087W        W52703   5.811  17.810   3.572
81088W        W52704  12.908   0.430  14.878
81089W        W52705  42.810  28.973  10.741
81090W        W52706  18.694  16.074  13.033
81091W        W52707  21.780   8.427   0.432
81092W        W52708  40.440  18.393   0.195
81093W        W52709  43.691  36.107  13.002
81094W        W52710  20.231  20.949  11.594
81095W        W52711  43.146  23.544  11.195
81096W        W52712  22.131  34.752  14.037
81097W        W52713   3.215   5.722  10.474
81098W        W52714  26.330  19.354   2.146
81099W        W52715   8.170  14.006   3.836
81100W        W52716  44.062  34.320  14.854
81101W        W52717  29.382  29.054   0.376
81102W        W52718  31.425  41.499  12.031
81103W        W52719  28.075  28.518  12.871
81104W        W52720  39.296  38.841   0.286
81105W        W52721   8.349  38.931   3.267
81106W        W52722  12.348  32.297   3.249
81107W        W52723  44.797  11.878  13.100
81108W        W52724  35.246  43.206   4.247
81109W        W52725   9.698  29.923   1.380
81110W        W52726  37.824  19.887   4.935
81111W        W52727   2.769   8.245  11.543
81112W        W52728   7.963  20.152  12.974
81113W        W52729  40.138  35.919  12.459
81114W        W52730   3.891   8.182   3.283
81115W        W52731  23.001  36.000  13.418
81116W        W52732  43.492  12.349  11.883
81117W        W52733  16.783  22.941   4.116
81118W        W52734  42.942  27.744  13.470
81119W        W52735  18.123   6.078   1.903
81120W        W52736  37.063  10.187   4.293
81121W        W52737   2.359   8.249   3.630
81122W        W52738  15.141  19.647  14.429
81123W        W52739  21.630   0.668  11.916
81124W        W52740  37.938  12.696  13.912
81125W        W52741   0.135  28.059   4.308
81126W        W52742  22.345  30.095   3.318
81127W        W52743  20.588  30.935   1.866
81128W        W52744   0.226   7.437   0.454
81129W        W52745   1.237  43.451   1.416
81130W        W52746  18.198  14.125  13.788
81131W        W52747  12.543  36.485   3.982
81132W        W52748   9.224   3.171  11.384
81133W        W52749  27.595  41.608  14.548
81134W        W52750  20.691  19.794  11.927
81135W        W52751  24.229  39.904   1.737
81136W        W52752  35.006  10.858  11.629
81137W        W52753   7.668  36.829   3.481
81138W        W52754  18.274  37.309  13.417
81139W        W52755  17.511   7.947   4.504
81140W        W52756  12.939  41.923  12.465
81141W        W52757  16.638  22.233  14.701
81142W        W52758  19.993  22.394   4.812
81143W        W52759  19.438  39.301   0.973
81144W        W52760  29.105  32.386  13.451
81145W        W52761  33.824  28.723  11.243
81146W        W52762  41.271   2.326   3.713
81147W        W52763  41.751  25.705   1.571
81148W        W52764  16.854  13.926  11.918
81149W        W52765   4.316   0.644   1.415
81150W        W52766   1.497  19.041  12.523
81151W        W52767   9.781  10.432  14.491
81152W        W52768   1.295  34.733   1.983
81153W        W52769  11.302   2.238   0.687
81154W        W52770  44.969  12.376  13.115
81155W        W52771  19.587  15.682   2.793
81156W        W52772  18.069  25.136  13.543
81157W        W52773   8.912   6.331  12.615
81158W        W52774   0.982  28.209   0.568
81159W        W52775  32.730   2.573   2.568
81160W        W52776  40.116   9.255  12.146
81161W        W52777  26.617  34.161  12.022
81162W        W52778   7.275  18.508  10.703
81163W        W52779  23.726   0.581  11.433
81164W        W52780  29.448  43.449   2.089
81165W        W52781  19.269  27.004  13.481
81166W        W52782   2.365  20.038  14.799
81167W        W52783  36.563  32.539  14.388
81168W        W52784   9.768   2.092   4.165
81169W        W52785   9.723   9.074   4.182
81170W        W52786  21.824  19.087   0.400
81171W        W52787   0.755  21.529   3.242
81172W        W52788  13.865  26.402   0.457
81173W        W52789  20.602   1.841  14.401
81174W        W52790   4.247   4.691   3.715
81175W        W52791  38.122   8.125   0.972
81176W        W52792  19.667  28.888  12.227
81177W        W52793  43.825   1.680  14.275
81178W        W52794  13.653  38.995   3.340
81179W        W52795   9.616  38.501  14.720
81180W        W52796   8.796  44.477   0.733
81181W        W52797   8.912  15.115  13.632
81182W        W52798   9.213  33.161   2.253
81183W        W52799  35.481   8.200   1.382
81184W        W52800  27.197  17.079  14.054
81185W        W52801  10.600  37.109   4.687
81186W        W52802  20.684  42.209  13.429
81187W        W52803   6.163  17.999   1.369
81188W        W52804   0.957   1.278   0.220
81189W        W52805  42.455  31.999   2.187
81190W        W52806  10.024  26.607  13.427
81191W        W52807  10.160   8.694  11.150
81192W        W52808  38.989   6.813   4.300
81193W        W52809  33.625  16.047   0.737
81194W        W52810  33.636   7.151   1.863
81195W        W52811  25.725  15.264   3.284
81196W        W52812  20.798  20.360  12.038
81197W        W52813  35.617  22.172  14.259
81198W        W52814  10.121   4.832   1.250
81199W        W52815   0.815  32.559  10.700
81200W        W52816  17.397  18.572  11.182
81201W        W52817  42.530  24.130  11.674
81202W        W52818  24.684  37.077  13.428
81203W        W52819  24.476  30.137   1.745
81204W        W52820  32.120  34.332   4.651
81205W        W52821  44.743  40.877   2.358
81206W        W52822   7.168  43.281   4.122
81207W        W52823  23.505  40.965   4.787
81208W        W52824  38.785  37.733   0.952
81209W        W52825   0.270  25.248  12.000
81210W        W52826  21.330  18.918   5.180
81211W        W52827  40.835  33.880   1.376
81212W        W52828  29.946  22.553  11.454
81213W        W52829  30.039  18.986   4.168
81214W        W52830  10.075  18.795  12.900
81215W        W52831   7.945  19.741   9.781
81216W        W52832  44.771   1.258   3.094
81217W        W52833  33.609   9.839  11.652
81218W        W52834  29.977  39.915  14.399
81219W        W52835  13.975  42.605   1.300
81220W        W52836  35.498  16.424  13.339
81221W        W52837  22.289  11.213   1.763
81222W        W52838   8.718  27.667  14.872
81223W        W52839  40.757  19.143  12.117
81224W        W52840  40.914  17.210  13.393
81225W        W52841   5.937  13.754  12.843
81226W        W52842  12.641  24.052   1.642
81227W        W52843  29.985  29.891   1.394
81228W        W52844  44.325  20.723  13.007
81229W        W52845  44.775  15.542   3.337
81230W        W52846   5.948  37.941  12.183
81231W        W52847  42.636  34.366  13.716
81232W        W52848  42.338   7.704   0.934
81233W        W52849  10.576  24.700   0.217
81234W        W52850  13.485  41.918  12.415
81235W        W52851  31.869   5.483   4.118
81236W        W52852  16.695  21.042   4.779
81237W        W52853  25.625   0.373   2.662
81238W        W52854   8.592  26.039   4.502
81239W        W52855  24.776  31.102  10.791
81240W        W52856  30.143  27.959  10.177
81241W        W52857   7.223  13.053   4.598
81242W        W52858  34.911  14.604   4.265
81243W        W52859  38.367  42.734  11.116
81244W        W52860  44.712  21.911  12.890
81245W        W52861   3.904  32.903  14.796
81246W        W52862   1.740   0.659   0.067
81247W        W52863  33.493  21.007   2.066
81248W        W52864  30.515  40.665  12.534
81249W        W52865  28.160  30.658  13.316
81250W        W52866  14.214  14.538  13.906
81251W        W52867  33.438  19.578  10.237
81252W        W52868  15.693  37.459  11.300
81253W        W52869  20.314  39.536   3.213
81254W        W52870  28.046  41.951   0.421
81255W        W52871  38.334  18.130   4.752
81256W        W52872  33.019  15.075   0.308
81257W        W52873   9.495  44.214  11.643
81258W        W52874  10.814  27.938  10.779
81259W        W52875  19.122   8.798  10.321
81260W        W52876  35.896  16.232  13.607
81261W        W52877  17.628  28.922  13.861
81262W        W52878  20.160  30.498   0.725
81263W        W52879  12.292  22.068   2.791
81264W        W52880  32.057  42.543  14.715
81265W        W52881  15.333   7.757   3.088
81266W        W52882   9.256  40.146  10.271
81267W        W52883   4.742  37.732  13.556
81268W        W52884   3.795  23.608   2.838
81269W        W52885  13.545  17.302  11.094
81270W        W52886   4.782  36.616  10.598
81271W        W52887  29.008  35.370  13.825
81272W        W52888  24.473  35.634  14.292
81273W        W52889  10.383  30.648   2.811
81274W        W52890  19.789  17.528   2.726
81275W        W52891  18.154  33.968  11.079
81276W        W52892  25.647  30.946   0.857
81277W        W52893  17.577  38.455  10.649
81278W        W52894   1.446  28.623  14.469
81279W        W52895   8.137  32.595  12.974
81280W        W52896  37.956  19.737   0.484
81281W        W52897  21.011  36.310   3.804
81282W        W52898  28.473   6.715   2.958
81283W        W52899  20.007  21.617  13.831
81284W        W52900  14.194  14.732  14.425
81285W        W52901  37.349  40.620  13.621
81286W        W52902  33.888   9.316  12.392
81287W        W52903  18.240  31.449   0.447
81288W        W52904   2.757  26.099  12.664
81289W        W52905  22.488  15.034  10.742
81290W        W52906  34.398   5.899  13.542
81291W        W52907  33.572  32.832   3.464
81292W        W52908  42.530  24.537  12.881
81293W        W52909  20.628   9.721  11.566
81294W        W52910  34.359  33.017  11.120
81295W        W52911  39.098  15.563   2.330
81296W        W52912   0.308  22.574   2.268
81297W        W52913  13.199  11.674   0.517
81298W        W52914  29.067  20.615   1.032
81299W        W52915   5.178   8.411   4.545
81300W        W52916  32.787  11.748  14.953
81301W        W52917  19.085  23.308  13.592
81302W        W52918   2.870   1.891  13.926
81303W        W52919  26.105   7.415   1.980
81304W        W52920  44.988  36.630   2.767
81305W        W52921  14.339  25.082  10.446
81306W        W52922  17.358  30.849   2.893
81307W        W52923  10.204  42.975   0.785
81308W        W52924   1.798   8.993  13.406
81309W        W52925  33.000   3.513   4.564
81310W        W52926   6.475  22.182  14.903
81311W        W52927  28.570  39.593   4.542
81312W        W52928  28.593  19.210  11.869
81313W        W52929  38.836  36.116  11.591
81314W        W52930  11.919  34.525   0.849
81315W        W52931  42.012  35.802   9.863
81316W        W52932  26.196  15.699  11.376
81317W        W52933   6.406  18.539   3.605
81318W        W52934  10.360   7.628   2.196
81319W        W52935  32.971   5.901   2.227
81320W        W52936  24.462  28.969   4.093
81321W        W52937  32.103  17.307   2.710
81322W        W52938  23.001  21.539  11.540
81323W        W52939  18.607  29.687   1.804
81324W        W52940  17.524   4.868  10.891
81325W        W52941  16.376   3.849  12.380
81326W        W52942  32.127   8.237  13.261
81327W        W52943  11.776  19.291  11.994
81328W        W52944  31.931  44.417   5.493
81329W        W52945  13.756  34.306   0.223
81330W        W52946  10.905  36.363  11.665
81331W        W52947  22.672  42.880   0.767
81332W        W52948  33.434  44.443   2.716
81333W        W52949  21.971  40.384  10.634
81334W        W52950  35.523  16.761  11.125
81335W        W52951  19.377   2.479   3.716
81336W        W52952  31.629  37.911  12.141
81337W        W52953  23.284  23.071  13.110
81338W        W52954  35.110  27.478   2.122
81339W        W52955   3.640  33.995   4.924
81340W        W52956  40.933   4.956   1.534
81341W        W52957  41.073  15.231   3.222
81342W        W52958  28.968   8.667  11.251
81343W        W52959   7.679   2.975   1.990
81344W        W52960  26.493   6.261   0.730
81345W        W52961  16.614   7.678  13.846
81346W        W52962  34.619  30.528   4.528
81347W        W52963  14.063   6.795  12.237
81348W        W52964  40.802  27.701   1.441
81349W        W52965  42.602  33.200  12.252
81350W        W52966   2.675  40.978   2.494
81351W        W52967  11.782   1.446   1.186
81352W        W52968   4.885  31.718  10.955
81353W        W52969  12.643  12.636   1.009
81354W        W52970   3.882   0.072  14.266
81355W        W52971   2.722  29.894   0.376
81356W        W52972  43.559  24.011   0.335
81357W        W52973  41.727  36.327   4.165
81358W        W52974  39.386  30.177  13.851
81359W        W52975   0.859  34.058  14.947
81360W        W52976  12.447  35.862   2.311
81361W        W52977  29.420  24.488  13.018
81362W        W52978   3.924   0.942   0.553
81363W        W52979  14.966  39.477   2.921
81364W        W52980  15.246  43.793   3.868
81365W        W52981  42.029   7.912   2.651
81366W        W52982  25.396  31.764   3.584
81367W        W52983  28.000  22.136  12.585
81368W        W52984  22.552  33.444   0.976
81369W        W52985  37.959  37.635   4.356
81370W        W52986  15.275  41.284  13.115
81371W        W52987  19.637  36.115   2.686
81372W        W52988  39.154  27.101   0.297
81373W        W52989  37.421  11.133   1.816
81374W        W52990  23.072  12.208  14.417
81375W        W52991  17.744   0.106   9.732
81376W        W52992  24.022   8.708  13.146
81377W        W52993  38.898  18.430  14.359
81378W        W52994  29.417  20.633  10.365
81379W        W52995  30.045  13.058  11.309
81380W        W52996  39.884   2.190   2.369
81381W        W52997   3.319   5.906   5.058
81382W        W52998  17.771   9.634   0.881
81383W        W52999  10.816  10.363   4.011
81384W        W53000   8.426   3.992  13.122
81385W        W53001  21.953  11.385  11.511
81386W        W53002  37.353  12.200  14.797
81387W        W53003  20.244  19.269  14.356
81388W        W53004   6.344   3.395   0.211
81389W        W53005  36.092  35.572   4.477
81390W        W53006   1.682  31.484   1.658
81391W        W53007  20.820   9.841  14.024
81392W        W53008  13.283   0.516  11.176
81393W        W53009  34.473  44.850   3.577
81394W        W53010  36.929  30.265   3.076
81395W        W53011  30.567  20.569   3.622
81396W        W53012  19.446   1.970   4.601
81397W        W53013   1.909  36.710  13.125
81398W        W53014  32.356  38.618   1.436
81399W        W53015  38.825  29.646   3.150
81400W        W53016  13.879  24.822  14.523
81401W        W53017  25.123  10.650  12.645
81402W        W53018  16.509  15.727   3.453
81403W        W53019  30.535   9.459  14.357
81404W        W53020   5.959  16.975   2.197
81405W        W53021  17.684  20.006  14.983
81406W        W53022  28.735  24.150  14.798
81407W        W53023  43.233   6.873   4.716
81408W        W53024  31.683  44.900  10.482
81409W        W53025  22.688  41.933  12.591
81410W        W53026   3.476  10.740  13.156
81411W        W53027  43.566   5.912   2.915
81412W        W53028  28.239   6.518   3.647
81413W        W53029   9.720   6.336  10.850
81414W        W53030  18.351  27.152   0.577
81415W        W53031  18.556  12.726   0.823
81416W        W53032   7.405  40.529  12.533
81417W        W53033  32.765  22.556   3.429
81418W        W53034   8.898  38.294  11.459
81419W        W53035   7.183  28.919  14.886
81420W        W53036  14.812   0.043   4.521
81421W        W53037  28.875  10.702   2.804
81422W        W53038   5.318  34.663   3.819
81423W        W53039  34.020   0.027   0.405
81424W        W53040  26.443  30.350  10.679
81425W        W53041  34.978   8.779  14.897
81426W        W53042  19.246  41.528  14.360
81427W        W53043  29.145  21.670  12.103
81428W        W53044  21.796  23.486   0.773
81429W        W53045   1.556  25.647   0.081
81430W        W53046  31.557  41.494   3.363
81431W        W53047  40.241   6.120   0.008
81432W        W53048  16.157   2.020   0.820
81433W        W53049  17.743  40.348  10.524
81434W        W53050  38.815  24.764   0.164
81435W        W53051  20.836  42.800  14.358
81436W        W53052   1.149   2.932   3.402
81437W        W53053  23.217  37.989   3.568
81438W        W53054  37.016  31.357   4.265
81439W        W53055  33.163  39.883   4.289
81440W        W53056  16.884  18.005  12.383
81441W        W53057  35.669  27.288  11.099
81442W        W53058  31.106  15.731   2.446
81443W        W53059   4.328  12.055  11.548
81444W        W53060  11.704  17.938  12.122
81445W        W53061  32.091  41.105  14.754
81446W        W53062  38.500  38.795   2.311
81447W        W53063  41.865  32.605   4.365
81448W        W53064  17.681  31.903   4.127
81449W        W53065  33.945  40.580  13.153
81450W        W53066  35.933  11.896   1.236
81451W        W53067  43.812  23.413   2.862
81452W        W53068   1.885   1.391   2.047
81453W        W53069  19.490  22.973   4.070
81454W        W53070  15.638  35.120  10.991
81455W        W53071  13.714  16.681   5.446
81456W        W53072  34.972  34.332  13.903
81457W        W53073  11.624  15.889  13.628
81458W        W53074   0.009  37.285   3.304
81459W        W53075  20.136  44.260  12.904
81460W        W53076  22.306  36.860   2.742
81461W        W53077  31.615  40.408  10.728
81462W        W53078  41.872  23.134   2.313
81463W        W53079  12.142   6.853   1.348
81464W        W53080  24.069  39.485   3.609
81465W        W53081  31.236  28.155   0.451
81466W        W53082  27.756   1.078   0.948
81467W        W53083  16.060  31.391  14.729
81468W        W53084  26.653  43.118   3.123
81469W        W53085   7.148  40.482   4.612
81470W        W53086   0.919  28.509  11.620
81471W        W53087  20.736  39.299   1.824
81472W        W53088   7.503  29.975  12.532
81473W        W53089  14.271  44.912   4.506
81474W        W53090   9.136   4.148  12.981
81475W        W53091  19.736  15.339   4.834
81476W        W53092   6.729  26.693   3.875
81477W        W53093   9.016  35.929  10.539
81478W        W53094  31.508  31.091   4.503
81479W        W53095  27.869   7.254   3.290
81480W        W53096   3.454  24.546  12.445
81481W        W53097  20.198  11.692  10.083
81482W        W53098   2.336  38.038  12.126
81483W        W53099  24.236  17.897  13.939
81484W        W53100  22.694  44.432  13.464
81485W        W53101   5.412  32.914  13.029
81486W        W53102  44.391  33.344  13.371
81487W        W53103  33.371  21.220  11.178
81488W        W53104  14.784   8.659  12.011
81489W        W53105   1.789   5.032   0.921
81490W        W53106  44.250  21.065  12.591
81491W        W53107  29.520  10.265  11.041
81492W        W53108  10.124  29.201  10.899
81493W        W53109  27.959  40.118  14.832
81494W        W53110  33.097  12.781   2.068
81495W        W53111   9.285  34.023  13.671
81496W        W53112  33.529  29.003  12.998
81497W        W53113  37.859  25.111  13.258
81498W        W53114  12.846  15.209   2.911
81499W        W53115  25.751  23.079   1.878
81500W        W53116  20.754  20.530  11.115
81501W        W53117  37.498  30.706  11.509
81502W        W53118  31.538  11.807   3.627
81503W        W53119  41.029   2.643  12.888
81504W        W53120  10.067  12.861  13.435
81505W        W53121   9.776   9.771  10.907
81506W        W53122  21.021  36.776  11.633
81507W        W53123   3.939   8.820   0.978
81508W        W53124  39.067   6.771  12.069
81509W        W53125  17.752   9.178   1.776
81510W        W53126  35.590  20.328  14.029
81511W        W53127  29.237  14.894  12.057
81512W        W53128  21.283  30.794   4.084
81513W        W53129  33.951  18.975  14.056
81514W        W53130  13.692  18.175  14.873
81515W        W53131   0.303  30.459   3.888
81516W        W53132  32.604  39.770  13.825
81517W        W53133   6.309  10.349  14.704
81518W        W53134  22.064  42.266  13.751
81519W        W53135  10.799  42.291   0.944
81520W        W53136   3.710  32.129   3.143
81521W        W53137  18.810  42.978  11.512
81522W        W53138  11.347   5.241   3.670
81523W        W53139  28.128   9.288   4.616
81524W        W53140   1.351  19.313  13.555
81525W        W53141   6.196  14.793  12.064
81526W        W53142  30.459  24.727   1.412
81527W        W53143  26.640   8.460  12.062
81528W        W53144  34.908  28.561   3.448
81529W        W53145  44.409  42.513   3.200
81530W        W53146  39.910  19.491   0.849
81531W        W53147   1.686   4.747  13.385
81532W        W53148  33.003  27.845   4.690
81533W        W53149   0.280  44.294  14.387
81534W        W53150  43.242  30.236  11.979
81535W        W53151  31.073  31.790  11.146
81536W        W53152  32.865  39.551  13.144
81537W        W53153  25.865  35.981  12.847
81538W        W53154   7.656  40.287  13.342
81539W        W53155  25.972  25.490  10.659
81540W        W53156   6.534  35.409  13.912
81541W        W53157  21.964  44.601  12.001
81542W        W53158  23.055  30.160  11.769
81543W        W53159  26.059   1.458  11.174
81544W        W53160  18.010  39.439   1.822
81545W        W53161  35.080  30.905   0.436
81546W        W53162  10.361  10.163   2.942
81547W        W53163   2.237  36.691   3.145
81548W        W53164  22.072  35.425   3.963
81549W        W53165  32.704   9.158  13.614
81550W        W53166   0.517  42.430  13.313
81551W        W53167   1.991  14.741   4.629
81552W        W53168   4.670   4.937   2.508
81553W        W53169  35.516  20.135   4.542
81554W        W53170  13.330  44.379   2.382
81555W        W53171  31.073  44.700  14.428
81556W        W53172  20.135  26.423  11.536
81557W        W53173  17.673  12.196  13.971
81558W        W53174  43.200  28.948  14.615
81559W        W53175   7.720  18.397  13.527
81560W        W53176  42.305   9.419   3.882
81561W        W53177   3.212  19.523  14.479
81562W        W53178   0.972  35.974  11.695
81563W        W53179  11.848  10.157  10.377
81564W        W53180   9.558   6.773   2.404
81565W        W53181   9.621  15.545   1.367
81566W        W53182   3.035  17.068  14.810
81567W        W53183  26.572  10.817  11.537
81568W        W53184  40.844  11.056   0.637
81569W        W53185   7.576  25.538  13.580
81570W        W53186  18.010   2.283   1.323
81571W        W53187  14.472  12.767   3.174
81572W        W53188  10.220  18.190  10.782
81573W        W53189  31.535   9.365   3.612
81574W        W53190  27.651  26.942  12.051
81575W        W53191  20.116  21.986  11.653
81576W        W53192  13.246  41.713   4.800
81577W        W53193   0.922  44.493  10.213
81578W        W53194  44.851  40.067   0.071
81579W        W53195  15.162  35.144  14.471
81580W        W53196   3.302  34.553  14.255
81581W        W53197  40.668  35.667   2.259
81582W        W53198  34.602   2.045  12.998
81583W        W53199  13.215  28.522   2.724
81584W        W53200  30.992  11.732   1.854
81585W        W53201  31.100  38.487  11.671
81586W        W53202  28.630  17.907  12.149
81587W        W53203  41.524  33.537   3.599
81588W        W53204   0.444  32.069   3.788
81589W        W53205   0.819  43.378   4.622
81590W        W53206   5.716  14.576  14.768
81591W        W53207  40.086  39.893   3.261
81592W        W53208  40.206  22.959   5.169
81593W        W53209  19.206  17.113   1.875
81594W        W53210  31.230   0.675  14.521
81595W        W53211  16.615  42.951  13.045
81596W        W53212  41.458  37.592  14.474
81597W        W53213  19.653  16.029   2.371
81598W        W53214  31.953  38.318  11.187
81599W        W53215  15.796  17.539  10.192
81600W        W53216  37.885  10.819  12.121
81601W        W53217  28.639  18.394  12.872
81602W        W53218  36.057  20.354  10.730
81603W        W53219  36.448  30.103   2.944
81604W        W53220  12.841  11.471   1.348
81605W        W53221  39.824   9.525  11.753
81606W        W53222  20.808  36.941  12.070
81607W        W53223  11.805  21.018  13.035
81608W        W53224  27.939  35.164   2.310
81609W        W53225  39.683  37.613  14.958
81610W        W53226  20.946  24.091  13.866
81611W        W53227  34.593   7.135   1.433
81612W        W53228   1.201  23.997   2.386
81613W        W53229  10.357   3.674  12.137
81614W        W53230  17.506  19.197  13.551
81615W        W53231  43.273  25.564  13.851
81616W        W53232   5.268  33.332  13.321
81617W        W53233  20.043  36.414   2.546
81618W        W53234  44.538  36.203   1.343
81619W        W53235  18.278   8.827  10.686
81620W        W53236   9.769   5.147  14.013
81621W        W53237   2.378   3.677   2.336
81622W        W53238  24.919  33.635   2.845
81623W        W53239  21.743  39.426  14.414
81624W        W53240  37.785  36.178  13.825
81625W        W53241  38.871  33.397  14.891
81626W        W53242  33.655   8.379  10.926
81627W        W53243  20.045  25.917  11.526
81628W        W53244  41.829  11.130  11.677
81629W        W53245  25.460  34.886   3.294
81630W        W53246   4.292  24.170   2.704
81631W        W53247   1.861   7.818  12.900
81632W        W53248  17.323  34.649   0.357
81633W        W53249  35.311  21.663   2.759
81634W        W53250  38.039  43.714   4.662
81635W        W53251  29.524  14.959  10.695
81636W        W53252  15.040  14.986  10.674
81637W        W53253   3.801  36.525  14.957
81638W        W53254  32.260  13.486   2.807
81639W        W53255   7.376  19.810  12.209
81640W        W53256  21.632   9.454   1.347
81641W        W53257  38.107  19.699   3.402
81642W        W53258  20.627  15.854  11.969
81643W        W53259  26.410  12.981  12.888
81644W        W53260   8.942  20.760  14.142
81645W        W53261  10.938  19.638  12.029
81646W        W53262  42.975  31.668   4.187
81647W        W53263   4.721   3.925   0.464
81648W        W53264  29.014  33.903   1.735
81649W        W53265  39.382   9.335   0.847
81650W        W53266  14.055  28.834   1.742
81651W        W53267  28.557  24.154   4.426
81652W        W53268  19.187   6.733  12.563
81653W        W53269  38.954  18.712   3.133
81654W        W53270  19.560  31.992   3.321
81655W        W53271  10.701   8.360   4.606
81656W        W53272  28.644  22.327   1.335
81657W        W53273  39.486  23.176   1.677
81658W        W53274  30.908  16.061  11.491
81659W        W53275  40.640  24.377   2.188
81660W        W53276  20.588   7.003   2.466
81661W        W53277   8.989  16.604   4.523
81662W        W53278  12.008  16.136   0.490
81663W        W53279   8.705  19.546  14.588
81664W        W53280   4.338  30.598  12.828
81665W        W53281   1.061  26.687  13.895
81666W        W53282  35.443  37.445  11.189
81667W        W53283   7.690  25.517  13.079
81668W        W53284  11.320   3.117  10.707
81669W        W53285  13.417  29.285  13.311
81670W        W53286   6.033   2.307   0.827
81671W        W53287  30.870  44.820   1.768
81672W        W53288   7.707  12.312   4.299
81673W        W53289   4.841  21.734  14.300
81674W        W53290  16.026  27.060   0.917
81675W        W53291  28.988  15.966   5.485
81676W        W53292  18.442  21.097  11.201
81677W        W53293  17.225  22.625  13.461
81678W        W53294   2.506  27.345  12.829
81679W        W53295  23.689  22.085   4.905
81680W        W53296  36.401  15.554  13.357
81681W        W53297  13.755   2.745   4.964
81682W        W53298   8.635  34.215  12.376
81683W        W53299   1.340  21.229   0.945
81684W        W53300   2.712  19.103   0.726
81685W        W53301  25.227  38.224   4.128
81686W        W53302  44.436  39.176   2.410
81687W        W53303   4.854  40.251  14.584
81688W        W53304  35.042  40.791   4.030
81689W        W53305  41.557   4.734  13.439
81690W        W53306  36.726   3.325   4.674
81691W        W53307  20.120  22.206  10.378
81692W        W53308  43.869  22.692   0.832
81693W        W53309  28.249  33.420  10.709
81694W        W53310   6.929  25.175  14.952
81695W        W53311  43.476   2.583   4.030
81696W        W53312  27.223  36.869  11.935
81697W        W53313  42.275  17.335  13.178
81698W        W53314  41.548  17.713   3.890
81699W        W53315  22.707   4.805  13.340
81700W        W53316   6.789  35.414   0.759
81701W        W53317  39.113   4.022  10.620
81702W        W53318  33.373   7.138  11.984
81703W        W53319  33.014  23.494  13.547
81704W        W53320   3.146  21.225   0.405
81705W        W53321  27.849  22.625   1.615
81706W        W53322  24.394  29.227   1.440
81707W        W53323  14.936  40.714   5.191
81708W        W53324  37.065  44.605  12.054
81709W        W53325   6.306  29.350  11.030
81710W        W53326  42.324  25.849  14.742
81711W        W53327   7.659  22.664   0.933
81712W        W53328  37.099  11.105   2.671
81713W        W53329  22.615  41.357   2.834
81714W        W53330  25.243  28.044   0.283
81715W        W53331  11.422  22.187   4.344
81716W        W53332  14.752   4.795   1.767
81717W        W53333  27.671  35.254   3.573
81718W        W53334  31.028  30.706  13.825
81719W        W53335  16.963  25.470   2.766
81720W        W53336  19.318  12.721   0.496
81721W        W53337  32.860  28.030  12.847
81722W        W53338  29.375  19.503  13.351
81723W        W53339  24.998  43.299  13.003
81724W        W53340  26.307  17.059  11.758
81725W        W53341  35.960  34.515   1.783
81726W        W53342  32.079  38.417  12.671
81727W        W53343  14.710  42.789   4.560
81728W        W53344  15.327  41.024   2.272
81729W        W53345  20.074   0.320  14.904
81730W        W53346  15.123  13.685  11.059
81731W        W53347  17.601  23.176  14.244
81732W        W53348  23.845   6.462   3.609
81733W        W53349   6.855   8.830   4.169
81734W        W53350  41.383  43.476   2.138
81735W        W53351  25.754  11.373   0.793
81736W        W53352  42.444   6.732  13.423
81737W        W53353   0.948  34.030  14.019
81738W        W53354  43.851  17.717   4.574
81739W        W53355  42.915  28.261  13.494
81740W        W53356  43.049  31.090   0.342
81741W        W53357  15.880  23.227  13.414
81742W        W53358  36.012  41.266  10.479
81743W        W53359   4.089  41.659  13.006
81744W        W53360   9.623   1.591   0.442
81745W        W53361   0.026  42.478   1.865
81746W        W53362  38.571  22.367   1.103
81747W        W53363   7.483  10.280   3.168
81748W        W53364   9.665  20.662   2.399
81749W        W53365  24.597   2.259  13.853
81750W        W53366  31.931  16.094  12.563
81751W        W53367  31.090  19.710  11.118
81752W        W53368  35.370  30.665  13.433
81753W        W53369   2.006  22.226  12.976
81754W        W53370   6.642   0.902  13.465
81755W        W53371  20.744  21.257   1.873
81756W        W53372  18.571  26.014  13.316
81757W        W53373  44.316  24.191  12.995
81758W        W53374  34.585  44.777   3.082
81759W        W53375  41.497  36.660  10.558
81760W        W53376  10.753  19.103  11.918
81761W        W53377   7.555  38.197  11.394
81762W        W53378   2.385  34.458   2.741
81763W        W53379  34.433  17.802   0.498
81764W        W53380  23.598  32.598   0.805
81765W        W53381   1.872  19.366   4.487
81766W        W53382  23.915  21.128  11.233
81767W        W53383   7.989  34.729   2.256
81768W        W53384  44.837   5.920   1.912
81769W        W53385  43.310   0.828  13.381
81770W        W53386  36.084  25.617  14.320
81771W        W53387  36.008  41.800  11.580
81772W        W53388   1.543  41.282  14.739
81773W        W53389  26.134  19.231  13.346
81774W        W53390  28.557  37.458   2.342
81775W        W53391  41.783  19.014  11.654
81776W        W53392   6.628  34.892  12.647
81777W        W53393  15.639  43.508   3.676
81778W        W53394  26.212  36.317   0.441
81779W        W53395  33.093  30.370  10.179
81780W        W53396  36.920   7.498   0.673
81781W        W53397   9.780  32.047  10.387
81782W        W53398  27.455  42.877  12.248
81783W        W53399  30.327  29.888   2.823
81784W        W53400   7.844  28.281  13.460
81785W        W53401   4.577   7.116  13.973
81786W        W53402  32.053  15.656  10.578
81787W        W53403  28.151  32.390   0.936
81788W        W53404  17.594   6.324  11.807
81789W        W53405  36.864  19.641   2.239
81790W        W53406  15.306  28.517   4.227
81791W        W53407  20.446  30.742   2.341
81792W        W53408  21.696  33.582   2.186
81793W        W53409  12.111  18.228  14.946
81794W        W53410  25.262  10.266  13.033
81795W        W53411  26.389  35.348  12.534
81796W        W53412  43.387   8.928   4.133
81797W        W53413  28.928   4.709   4.170
81798W        W53414  16.506  27.501   3.741
81799W        W53415   1.435  35.474  14.797
81800W        W53416  25.575   8.447   3.624
81801W        W53417   3.654  15.554  14.788
81802W        W53418   1.424  16.094  12.435
81803W        W53419   7.810  44.564   3.282
81804W        W53420   2.840   4.235   1.536
81805W        W53421  20.660  35.413   2.878
81806W        W53422  33.695  40.953   3.383
81807W        W53423   2.230  29.605   1.925
81808W        W53424  31.379  33.646   3.272
81809W        W53425  10.898  37.145   2.729
81810W        W53426  26.912  12.768   1.263
81811W        W53427   8.691   1.924   3.273
81812W        W53428  38.470  18.007   0.026
81813W        W53429  19.480  18.039   0.174
81814W        W53430  44.936  40.389   1.629
81815W        W53431  27.188  27.503   4.837
81816W        W53432  37.800   5.077   3.233
81817W        W53433  16.123  44.999  11.499
81818W        W53434  42.551  11.710   1.239
81819W        W53435   5.302  14.862  14.693
81820W        W53436  36.415  42.356  12.104
81821W        W53437  35.404  30.210  14.307
81822W        W53438  27.089   0.045   0.010
81823W        W53439  34.317  19.868   4.105
81824W        W53440  38.667   2.836   3.107
81825W        W53441  38.369  32.501  11.577
81826W        W53442  12.192  29.117   0.924
81827W        W53443  37.390  10.348  10.588
81828W        W53444  34.058  22.868  13.889
81829W        W53445  35.418   1.977  14.089
81830W        W53446   7.066   7.069   1.809
81831W        W53447  35.857  14.843  11.497
81832W        W53448  23.961  36.454  13.917
81833W        W53449  39.992  38.941  10.955
81834W        W53450  13.762  31.046  12.896
81835W        W53451  23.626  44.463   4.535
81836W        W53452  22.245  31.962  12.959
81837W        W53453  26.583  42.459   4.331
81838W        W53454  24.216  17.004   0.763
81839W        W53455  27.494  31.701   3.756
81840W        W53456  38.424  36.682  11.030
81841W        W53457  13.065  34.450   3.276
81842W        W53458  33.121  43.604  13.473
81843W        W53459  33.544  38.865   1.033
81844W        W53460  19.801  44.681   1.714
81845W        W53461  14.828  38.463  13.383
81846W        W53462  26.277  19.145   3.014
81847W        W53463  21.159  15.433  11.346
81848W        W53464   1.413   2.175   3.830
81849W        W53465  33.232  11.874   2.783
81850W        W53466  36.689  16.660  12.949
81851W        W53467   3.226   4.824  11.645
81852W        W53468  35.855  31.935  14.028
81853W        W53469  32.325   2.286  12.981
81854W        W53470  40.189   8.694   0.593
81855W        W53471  12.743  29.848  13.836
81856W        W53472   4.486  38.368   1.230
81857W        W53473  19.509  22.252   4.671
81858W        W53474   4.853  12.441  14.235
81859W        W53475  37.613  13.316  14.826
81860W        W53476  38.884  23.509  12.731
81861W        W53477  27.885  12.190   0.017
81862W        W53478   7.452  25.006  14.124
81863W        W53479   6.738   7.148  13.749
81864W        W53480   2.500  24.987   9.790
81865W        W53481  25.001   2.464  14.099
81866W        W53482   6.143  25.486  11.551
81867W        W53483   0.198  23.916  12.340
81868W        W53484  37.384  30.456   2.875
81869W        W53485  21.715   4.012  12.883
81870W        W53486  38.287  12.329   4.593
81871W        W53487  41.378  24.419   1.261
81872W        W53488  38.447   2.332  10.712
81873W        W53489  25.824  32.363  11.994
81874W        W53490   9.906   7.317  11.171
81875W        W53491  32.418   2.775   4.711
81876W        W53492   4.131  35.882   3.390
81877W        W53493  35.593  33.016  13.050
81878W        W53494  42.351  18.857  11.941
81879W        W53495  43.619  10.434  13.449
81880W        W53496  23.334   5.413  11.685
81881W        W53497   1.316  19.526  14.149
81882W        W53498  18.542  12.740  13.795
81883W        W53499  13.562  18.952  14.588
81884W        W53500  23.220   8.127   3.784
81885W        W53501  22.671  27.117  14.523
81886W        W53502  29.085  39.382   1.760
81887W        W53503  15.540   8.350   4.198
81888W        W53504  15.585   2.185  11.116
81889W        W53505  35.455  19.183   3.071
81890W        W53506  31.604  25.621  10.486
81891W        W53507  19.084  25.668   4.617
81892W        W53508   8.375  39.972   2.264
81893W        W53509   9.463   3.190   4.103
81894W        W53510  16.130  16.637   1.604
81895W        W53511   0.469  12.298   3.815
81896W        W53512  12.668  17.581  12.019
81897W        W53513   0.539  43.856  10.741
81898W        W53514  13.503  21.311   1.855
81899W        W53515  20.590  16.128   1.564
81900W        W53516  17.753   0.421   3.244
81901W        W53517  19.100   5.471  13.534
81902W        W53518  35.363   9.173  13.604
81903W        W53519   0.784  25.004   2.836
81904W        W53520   8.227  44.015   0.895
81905W        W53521  10.294  34.883  12.157
81906W        W53522  44.317  23.504   3.632
81907W        W53523  13.239   5.753   0.403
81908W        W53524  33.918  14.120   1.718
81909W        W53525  33.464  33.359   3.353
81910W        W53526   5.103  40.360   0.355
81911W        W53527  10.212  35.124  14.568
81912W        W53528  28.980  26.451   3.773
81913W        W53529   3.913   1.845  10.218
81914W        W53530  24.749  17.096  13.112
81915W        W53531  37.893  13.691  12.333
81916W        W53532   8.802  40.350   1.753
81917W        W53533  13.802  38.500  13.616
81918W        W53534   7.349  34.311   3.691
81919W        W53535  17.127  35.404   2.261
81920W        W53536  18.821  24.455  13.033
81921W        W53537   9.033  20.754  14.653
81922W        W53538  29.934  34.098  13.508
81923W        W53539  20.195  29.896  10.745
81924W        W53540  37.823  21.964   4.124
81925W        W53541  32.469   8.302   1.452
81926W        W53542  41.819  35.019  10.668
81927W        W53543  26.538  15.392  10.672
81928W        W53544  25.759  19.988  13.069
81929W        W53545  32.870  15.132   0.803
81930W        W53546  39.025  14.630   3.169
81931W        W53547  44.291  10.084  12.918
81932W        W53548  23.625  39.656   1.631
81933W        W53549  11.611  21.290  11.708
81934W        W53550  39.193  25.504  12.155
81935W        W53551  40.067  34.965   3.840
81936W        W53552  30.751   0.007   2.616
81937W        W53553  16.505  39.383   4.081
81938W        W53554  35.392  13.460  13.051
81939W        W53555   1.133  44.868   4.951
81940W        W53556  35.777   9.173  14.383
81941W        W53557   4.816  31.766  10.452
81942W        W53558   9.851  31.506  12.672
81943W        W53559  43.915   1.294   1.710
81944W        W53560  27.816  43.636  10.390
81945W        W53561  13.854   1.054  14.409
81946W        W53562  31.158  12.591   2.230
81947W        W53563  33.386   2.513  12.139
81948W        W53564  29.459  13.686   5.098
81949W        W53565   4.721  19.892   4.096
81950W        W53566  32.548   9.248   4.424
81951W        W53567  34.722  42.767   1.295
81952W        W53568  36.169  36.745  11.140
81953W        W53569  38.428  35.755   1.311
81954W        W53570  18.329  44.728  12.909
81955W        W53571   6.730  21.429   1.228
81956W        W53572   1.210  27.554   3.063
81957W        W53573   1.280  15.245  14.253
81958W        W53574   0.899  19.778   0.778
81959W        W53575  17.740  23.497  11.679
81960W        W53576  35.985   6.949   1.840
81961W        W53577  39.563  38.623   3.214
81962W        W53578  12.770  34.619   4.620
81963W        W53579   7.749  27.464  13.295
81964W        W53580  29.161  16.726  14.004
81965W        W53581  10.618   8.437   3.320
81966W        W53582  24.367  36.025  10.556
81967W        W53583   1.028  40.868  13.002
81968W        W53584   8.293  37.559   3.214
81969W        W53585  16.526  16.627  13.425
81970W        W53586   1.256  43.406  14.514
81971W        W53587  38.286  44.405   4.515
81972W        W53588   1.293  38.225   3.545
81973W        W53589  30.370  33.987  11.713
81974W        W53590  26.682  25.617  12.639
81975W        W53591  36.723   3.288  11.696
81976W        W53592  43.866  37.158  13.837
81977W        W53593  39.004  17.016   3.906
81978W        W53594   3.937   6.662   2.465
81979W        W53595  34.175  42.901  13.830
81980W        W53596  33.629  10.106   2.743
81981W        W53597  31.624   7.760   4.120
81982W        W53598  20.329  26.898   3.763
81983W        W53599   5.824   3.497   3.229
81984W        W53600  15.675  13.843   0.347
81985W        W53601  35.829   3.905   1.965
81986W        W53602  27.617  38.985  10.760
81987W        W53603   8.180   3.575  14.298
81988W        W53604  25.659  30.012  14.813
81989W        W53605  29.707  31.797  11.305
81990W        W53606  33.916  38.966  12.065
81991W        W53607  25.855  38.331  11.525
81992W        W53608   1.248  18.092   3.979
81993W        W53609   8.684  17.815  14.986
81994W        W53610  44.310  23.128   4.591
81995W        W53611  44.897   9.996  12.349
81996W        W53612   8.786  41.283  11.833
81997W        W53613  32.548  26.418   2.280
81998W        W53614   1.256  20.945  14.423
81999W        W53615  29.023  32.816  11.845
82000W        W53616  16.223  30.595   0.044
82001W        W53617   0.597  31.983  11.674
82002W        W53618  44.484   1.719  11.181
82003W        W53619  21.786  43.388   2.784
82004W        W53620  13.263  32.447   3.207
82005W        W53621  29.635   0.833   0.778
82006W        W53622  31.234   5.494   3.304
82007W        W53623  32.130  24.643  14.299
82008W        W53624  26.675  18.170   0.884
82009W        W53625  40.660  15.385   5.049
82010W        W53626  12.311  24.374   0.884
82011W        W53627  19.524   3.198   4.133
82012W        W53628  32.512  21.003  12.839
82013W        W53629  13.800   0.820  10.641
82014W        W53630  15.027  40.332  13.285
82015W        W53631  31.012  26.522  10.741
82016W        W53632  40.307  16.710  11.318
82017W        W53633  35.426  20.035   0.770
82018W        W53634  17.652  23.457   0.943
82019W        W53635  25.648   2.479   0.819
82020W        W53636   5.737  21.974  14.822
82021W        W53637  36.071   9.349   4.531
82022W        W53638  22.501  38.767  12.182
82023W        W53639  42.546  15.906   0.265
82024W        W53640   7.695  16.769  13.451
82025W        W53641  26.203   4.432  12.117
82026W        W53642  15.795  18.279  10.663
82027W        W53643  37.344  29.603   2.104
82028W        W53644  35.051  36.646  14.400
82029W        W53645  38.837   4.842   1.366
82030W        W53646  12.128  24.172   1.648
82031W        W53647  43.286  22.335  11.899
82032W        W53648  36.580   4.411   3.550
82033W        W53649  11.210   3.220  14.586
82034W        W53650   4.815  11.567  11.156
82035W        W53651  35.433  22.633  11.536
82036W        W53652  39.173  34.072   0.691
82037W        W53653  13.019  43.881  14.704
82038W        W53654  29.076  31.043   0.977
82039W        W53655  40.096   8.124   4.602
82040W        W53656  24.191  16.115   1.947
82041W        W53657   2.494  44.566  11.049
82042W        W53658  36.884   5.676   2.318
82043W        W53659   6.244   8.522   1.178
82044W        W53660  44.753  25.782  13.894
82045W        W53661  44.166  38.996   3.265
82046W        W53662  20.707  35.469   3.385
82047W        W53663  12.768   2.375   4.375
82048W        W53664  22.104  29.716  10.946
82049W        W53665  20.790  26.760   0.278
82050W        W53666  24.213  23.508   0.822
82051W        W53667   1.212  24.005   0.412
82052W        W53668  30.013  39.125   3.528
82053W        W53669  36.822  42.657  14.174
82054W        W53670  13.774   2.173   1.020
82055W        W53671   1.497  22.577   5.418
82056W        W53672   7.667  15.581   9.970
82057W        W53673  30.637  21.543  14.617
82058W        W53674  11.855  39.397  13.999
82059W        W53675  21.119  11.917  12.404
82060W        W53676  26.755  38.891   3.761
82061W        W53677  36.006  27.598  12.428
82062W        W53678  20.245  12.239  14.362
82063W        W53679  44.322   0.146  14.019
82064W        W53680  21.705  26.062   3.410
82065W        W53681  12.694  14.751   4.612
82066W        W53682   0.258   5.365   0.732
82067W        W53683  29.923   8.934  11.119
82068W        W53684  38.467   2.509   4.044
82069W        W53685  28.562  18.336   2.200
82070W        W53686  24.969  16.819  13.934
82071W        W53687  36.896  29.718   4.704
82072W        W53688  15.753  15.884   4.161
82073W        W53689   0.241  38.161  12.906
82074W        W53690  43.819  23.229   0.896
82075W        W53691  36.333  10.972   1.617
82076W        W53692  19.582   4.394  11.232
82077W        W53693   3.797  25.043   3.679
82078W        W53694  10.172  15.173   3.497
82079W        W53695  35.514  31.954   1.633
82080W        W53696   7.235  34.884  11.290
82081W        W53697  42.844  16.738   0.368
82082W        W53698   1.864  27.991   0.441
82083W        W53699   6.641   2.218  12.056
82084W        W53700   3.682  25.298  11.853
82085W        W53701  19.244  34.066  12.471
82086W        W53702  33.534  34.789  10.687
82087W        W53703  37.599   7.294  12.023
82088W        W53704   6.875  37.365   2.628
82089W        W53705  34.543   3.312   4.380
82090W        W53706  26.922  30.522  11.425
82091W        W53707  37.532  31.347   4.215
82092W        W53708  17.746  34.455  12.530
82093W        W53709  37.220  34.552   2.135
82094W        W53710  36.267   2.882   4.112
82095W        W53711  43.754  39.009   4.430
82096W        W53712  16.331  28.018   1.309
82097W        W53713  34.495   0.763  14.434
82098W        W53714  31.467  29.180  11.885
82099W        W53715  34.283  44.601   0.786
82100W        W53716  14.297  14.032  13.898
82101W        W53717  21.518  37.903   2.207
82102W        W53718  22.020   4.363   2.131
82103W        W53719  39.590  40.158  13.738
82104W        W53720   3.525  30.899  11.713
82105W        W53721  14.344  43.534   4.200
82106W        W53722  32.518  41.953   3.984
82107W        W53723  26.508  11.430   1.744
82108W        W53724  43.897  16.674   0.452
82109W        W53725   0.267  19.077  11.891
82110W        W53726  18.040  27.167  12.532
82111W        W53727  39.781  30.094   4.090
82112W        W53728  18.570   5.857  12.520
82113W        W53729  36.535  29.069   0.351
82114W        W53730  28.518  14.792  12.534
82115W        W53731  28.625  19.054   4.196
82116W        W53732  40.508  11.646  11.375
82117W        W53733   5.600  44.943  10.057
82118W        W53734  15.597   8.737  14.881
82119W        W53735   4.464   3.816   3.255
82120W        W53736  17.680  42.915  12.884
82121W        W53737  33.971  20.252   2.652
82122W        W53738  39.366  43.569   0.926
82123W        W53739  43.207   3.258   1.682
82124W        W53740  15.684   0.688   2.196
82125W        W53741  34.344  29.814  12.921
82126W        W53742  40.293  19.471  11.560
82127W        W53743  19.026  30.079   3.430
82128W        W53744  32.481  40.115   4.685
82129W        W53745  18.082   7.760   3.838
82130W        W53746  27.301   0.490  13.512
82131W        W53747  16.813  35.090  10.524
82132W        W53748  41.356  38.561   4.914
82133W        W53749   5.429  39.531   4.861
82134W        W53750  12.109  23.157   2.161
82135W        W53751  26.924  27.997   0.954
82136W        W53752  31.634  27.440  11.953
82137W        W53753   0.030  38.208  13.848
82138W        W53754  37.931  16.979  14.051
82139W        W53755   0.787  43.022  12.088
82140W        W53756   3.909  38.884  11.919
82141W        W53757  41.831  14.574   4.941
82142W        W53758  15.236   9.097  11.225
82143W        W53759  21.102  34.036   1.240
82144W        W53760   3.047  19.313   1.894
82145W        W53761  14.505  36.032   0.834
82146W        W53762  16.199  23.638   0.500
82147W        W53763  42.849  34.401  13.195
82148W        W53764  22.722  23.971   0.998
82149W        W53765  15.076  35.441   0.549
82150W        W53766  29.876  19.721  14.250
82151W        W53767  40.414  30.170  11.508
82152W        W53768   8.799  39.069   4.642
82153W        W53769  43.102  12.465   0.540
82154W        W53770  14.923  21.757   2.421
82155W        W53771  31.747  35.169   1.426
82156W        W53772  38.167  15.443   3.145
82157W        W53773  17.895   4.992   3.621
82158W        W53774   3.728   4.528   1.270
82159W        W53775  20.605  44.304  12.058
82160W        W53776  13.838  17.679  13.427
82161W        W53777  23.257  11.131  11.276
82162W        W53778  33.036  40.128   1.903
82163W        W53779  28.626  30.971  12.439
82164W        W53780   4.953   1.800   0.380
82165W        W53781  15.318  20.537  14.043
82166W        W53782  27.618  42.809  13.160
82167W        W53783  41.910  18.494  10.764
82168W        W53784  10.853  39.410  13.063
82169W        W53785  17.333   1.868  14.804
82170W        W53786  24.212  23.181  12.681
82171W        W53787  30.147  22.867  10.753
82172W        W53788  37.930  28.898  10.962
82173W        W53789  23.959  36.007   1.722
82174W        W53790  30.321   9.130  14.692
82175W        W53791   5.280   6.245   2.928
82176W        W53792   8.160  27.046  12.077
82177W        W53793   6.971   6.399  14.413
82178W        W53794  22.748  16.305   2.276
82179W        W53795   8.171  25.635  11.457
82180W        W53796  43.242  18.947  11.119
82181W        W53797  19.024  16.801  13.522
82182W        W53798   4.395   0.923   0.244
82183W        W53799  29.416  28.089   2.261
82184W        W53800  29.920  18.820   1.802
82185W        W53801  17.143  12.864   1.786
82186W        W53802  10.388  11.586  12.859
82187W        W53803  31.073  35.540  12.899
82188W        W53804  27.365  36.629  11.508
82189W        W53805  30.080  24.515   1.747
82190W        W53806  10.868   2.423  14.309
82191W        W53807  37.650  27.016   2.740
82192W        W53808  39.504  21.000  12.142
82193W        W53809  30.676  19.860   0.336
82194W        W53810  31.884  38.426   4.390
82195W        W53811   8.833  35.372   1.478
82196W        W53812  34.052  16.405  12.373
82197W        W53813  20.314   7.907   2.449
82198W        W53814  30.595  34.549   0.837
82199W        W53815   3.755  40.593   3.688
82200W        W53816  40.486   4.507   5.243
82201W        W53817  15.014  27.870  13.362
82202W        W53818  15.820  22.618  13.089
82203W        W53819   1.500   9.140  14.704
82204W        W53820  14.453  15.246  11.343
82205W        W53821  16.097   0.010  12.940
82206W        W53822  16.307  17.792   2.121
82207W        W53823  16.813   1.562  11.696
82208W        W53824  27.216  22.927   3.652
82209W        W53825  23.160  21.411  11.062
82210W        W53826  21.258  27.680   0.203
82211W        W53827   8.756  16.418   1.687
82212W        W53828  42.766  33.646  12.057
82213W        W53829   2.829  27.610   0.093
82214W        W53830   2.899  29.055  14.124
82215W        W53831  13.734  34.434   2.315
82216W        W53832  24.977  26.762   3.200
82217W        W53833   5.358  31.579  14.884
82218W        W53834   3.657  35.669   2.786
82219W        W53835  42.418  33.158   0.504
82220W        W53836  31.478   8.904   9.747
82221W        W53837  33.366  40.045  12.192
82222W        W53838  27.771  37.297   2.748
82223W        W53839   7.317   7.748   1.245
82224W        W53840  42.965   9.906   4.641
82225W        W53841  12.789  11.785   2.799
82226W        W53842  24.058  17.213   4.579
82227W        W53843  10.675  29.621  14.461
82228W        W53844  21.409  41.354   4.364
82229W        W53845  32.264  42.539  10.656
82230W        W53846  27.016  42.019   2.691
82231W        W53847  18.206  20.841   2.832
82232W        W53848  23.009  18.543   2.785
82233W        W53849  11.161   3.527   2.862
82234W        W53850   4.147  16.522   1.808
82235W        W53851  35.420   5.874  11.425
82236W        W53852  16.191  14.106  10.695
82237W        W53853  44.533  29.021   9.993
82238W        W53854  37.606   2.434   0.948
82239W        W53855  34.453  15.806   4.118
82240W        W53856  18.420  27.552   3.326
82241W        W53857   2.736  42.668  11.501
82242W        W53858  13.236  13.177   3.998
82243W        W53859   9.191  36.083   2.620
82244W        W53860  35.078  17.839  12.507
82245W        W53861  16.284  32.508  12.459
82246W        W53862  15.638  27.126   3.342
82247W        W53863  26.989   4.855   3.277
82248W        W53864  26.905  26.996   0.928
82249W        W53865  39.931   9.348  10.785
82250W        W53866   1.702  31.925  13.867
82251W        W53867  33.650  41.991  12.408
82252W        W53868  44.417  19.541  14.254
82253W        W53869  35.399  30.183  12.429
82254W        W53870  40.387  32.190  13.348
82255W        W53871   0.924  44.955  11.448
82256W        W53872   7.939  43.952  14.746
82257W        W53873   3.287  18.100   0.485
82258W        W53874  21.669  40.480   4.918
82259W        W53875  40.868  14.937  13.070
82260W        W53876   6.946  20.080   0.001
82261W        W53877  34.678  12.062  12.444
82262W        W53878  37.106  24.061  10.485
82263W        W53879  12.585   5.394   1.280
82264W        W53880  29.213  28.337  14.919
82265W        W53881  40.862  18.101   4.944
82266W        W53882  27.744  20.671  14.287
82267W        W53883  17.073  19.846   4.584
82268W        W53884   6.673  15.847  12.435
82269W        W53885  26.253  35.608   4.641
82270W        W53886   8.064   9.169  14.693
82271W        W53887   3.023  22.999  11.985
82272W        W53888   1.215   9.332  14.316
82273W        W53889  20.050   8.141  11.095
82274W        W53890  30.992  27.821  10.287
82275W        W53891  22.702  18.058  12.860
82276W        W53892  36.564  23.161  13.446
82277W        W53893   3.381  40.689   4.499
82278W        W53894  13.255  20.637  12.938
82279W        W53895  29.019   3.976   4.882
82280W        W53896   7.887  30.018  13.610
82281W        W53897  38.448  39.082  12.181
82282W        W53898   8.549  13.115   4.719
82283W        W53899  19.274   3.833  14.423
82284W        W53900  27.294  33.559  12.257
82285W        W53901  38.075  18.329  13.431
82286W        W53902   4.758  19.318   0.859
82287W        W53903  33.460  39.917  12.678
82288W        W53904  43.808  39.818  14.600
82289W        W53905   8.583  39.235   4.002
82290W        W53906  10.810   6.846   2.591
82291W        W53907  19.235   7.551   2.814
82292W        W53908  35.192  39.037   4.038
82293W        W53909  10.797  11.418  10.627
82294W        W53910  27.946   1.408  10.553
82295W        W53911  29.572  41.547   1.975
82296W        W53912  34.081  35.564   1.867
82297W        W53913  24.929  21.119   4.141
82298W        W53914  16.600  14.592  10.588
82299W        W53915  35.437  35.588  10.817
82300W        W53916  29.420  34.905  14.343
82301W        W53917  13.745  22.028   3.043
82302W        W53918  24.132   5.699   1.680
82303W        W53919  15.702  34.540  14.756
82304W        W53920   4.516  26.227   3.737
82305W        W53921  32.242   0.322  13.014
82306W        W53922  28.172   0.837  12.867
82307W        W53923  36.971  44.037   2.219
82308W        W53924  41.448  35.796  14.954
82309W        W53925  19.038  41.958   0.233
82310W        W53926   7.201  43.491  11.606
82311W        W53927  36.014  23.692  11.459
82312W        W53928  27.374  33.076   3.684
82313W        W53929  44.930  16.705   1.940
82314W        W53930  41.946  15.738  14.479
82315W        W53931  22.737   2.445   3.914
82316W        W53932  25.616   7.812   2.422
82317W        W53933  44.743  17.403   2.866
82318W        W53934  29.414   4.487   4.276
82319W        W53935  18.583  44.714   0.502
82320W        W53936  35.636  15.229  12.956
82321W        W53937  12.602  24.494  11.118
82322W        W53938  29.530   7.157   2.131
82323W        W53939   7.736   1.471   2.438
82324W        W53940  13.685  10.163  12.184
82325W        W53941  36.496  21.632   1.850
82326W        W53942  34.288  22.350   4.077
82327W        W53943  41.327  26.375  10.945
82328W        W53944  28.404  13.582   2.721
82329W        W53945  24.433   7.645  12.396
82330W        W53946  29.347  22.694  13.204
82331W        W53947   5.349  23.237   5.014
82332W        W53948  16.636  20.949   4.249
82333W        W53949  26.556  23.776  14.999
82334W        W53950  32.037  21.799  13.082
82335W        W53951  21.390  44.313   2.048
82336W        W53952   7.230  17.405  13.048
82337W        W53953  15.806  15.753  11.127
82338W        W53954  27.041  16.232   4.965
82339W        W53955  29.829  33.381  10.654
82340W        W53956  21.900   7.127  12.352
82341W        W53957  43.924  30.847  13.618
82342W        W53958  28.386  19.555  14.556
82343W        W53959   3.373  12.555   1.362
82344W        W53960   2.861  31.535   4.454
82345W        W53961  35.848   8.574   1.399
82346W        W53962  14.808  40.286  12.447
82347W        W53963   1.934  24.648   3.307
82348W        W53964   5.268  39.854   0.348
82349W        W53965  20.926  14.282  12.069
82350W        W53966  16.652  35.500  11.216
82351W        W53967  30.027  37.859   0.468
82352W        W53968  33.896  10.338   4.555
82353W        W53969  32.020  39.858   3.178
82354W        W53970  11.923  37.104   0.474
82355W        W53971  41.057  42.333   1.362
82356W        W53972   0.224  38.113  10.706
82357W        W53973  40.048  25.954  10.984
82358W        W53974  33.807  30.286   1.948
82359W        W53975  15.188   7.901   0.266
82360W        W53976  19.545  31.499  11.010
82361W        W53977  26.248  30.514  13.354
82362W        W53978   0.771  17.208  12.325
82363W        W53979   4.703  42.117  11.082
82364W        W53980   3.736  21.109  12.609
82365W        W53981  18.204  26.876  11.163
82366W        W53982  10.951  33.507   4.282
82367W        W53983  43.255  31.465   3.795
82368W        W53984  18.028  22.934   2.711
82369W        W53985  22.381   9.761  11.892
82370W        W53986  11.527  38.899  11.900
82371W        W53987  28.389  20.621  13.545
82372W        W53988   5.127   5.691   4.563
82373W        W53989   2.976  17.804  12.867
82374W        W53990  15.554  24.736  13.875
82375W        W53991  32.651  17.171   2.551
82376W        W53992  27.663  17.810   2.191
82377W        W53993  21.119  21.707   0.814
82378W        W53994  12.225  35.673  14.267
82379W        W53995   4.776   1.199   0.948
82380W        W53996  33.931   6.024   3.274
82381W        W53997  18.077  12.773   2.149
82382W        W53998  16.741  23.538  14.461
82383W        W53999  39.658  18.222   2.199
82384W        W54000  20.987  26.538   3.343
82385W        W54001  17.544  20.930   3.148
82386W        W54002   3.987  41.778   4.168
82387W        W54003   8.822  13.220   1.814
82388W        W54004  20.790  35.410   4.528
82389W        W54005  27.081  17.872  14.477
82390W        W54006   0.482  18.070  14.007
82391W        W54007  38.199  22.925   3.762
82392W        W54008  35.039  31.984  11.196
82393W        W54009  30.123   6.367  13.830
82394W        W54010   4.086   8.638   4.097
82395W        W54011   2.751   4.766  10.562
82396W        W54012  43.009  30.097   4.725
82397W        W54013   7.881  15.622   0.439
82398W        W54014  11.741   6.799   3.539
82399W        W54015  20.768  25.845  14.897
82400W        W54016   8.273  17.193  12.951
82401W        W54017  40.322  28.014   5.034
82402W        W54018  36.937   2.517  14.845
82403W        W54019  26.180  28.487  10.716
82404W        W54020  20.148  27.072   0.334
82405W        W54021  24.147  23.057   3.193
82406W        W54022  31.020  27.827  12.024
82407W        W54023  36.075  27.275   2.722
82408W        W54024  17.929  19.372  11.082
82409W        W54025  14.813  43.227  11.072
82410W        W54026  10.738  44.978  14.382
82411W        W54027   4.973   9.831   4.564
82412W        W54028   9.798   1.362  14.913
82413W        W54029  40.060  31.946   3.293
82414W        W54030  28.216  30.138   2.810
82415W        W54031  37.031  43.938   4.088
82416W        W54032  37.908  31.140  11.023
82417W        W54033  41.848  39.039  11.573
82418W        W54034  28.066  39.553   3.156
82419W        W54035   9.124  29.300  11.150
82420W        W54036  36.065  37.985  11.590
82421W        W54037  15.421  10.463  11.977
82422W        W54038  44.468   0.746  14.042
82423W        W54039   7.838   8.609   4.784
82424W        W54040  24.783   4.625  10.157
82425W        W54041  16.077   1.488  13.982
82426W        W54042  41.797  18.060   0.852
82427W        W54043  43.069  38.869  13.337
82428W        W54044  24.197  29.687   1.364
82429W        W54045  37.026   7.245   4.176
82430W        W54046  31.691   3.277  13.618
82431W        W54047  30.977  41.933  12.819
82432W        W54048  29.682  26.735   4.712
82433W        W54049  33.113  10.217   0.282
82434W        W54050  13.489   0.056  14.338
82435W        W54051  42.051  31.107   0.966
82436W        W54052   7.882   6.429   1.700
82437W        W54053  20.227  14.837  12.478
82438W        W54054  21.577  42.944   1.664
82439W        W54055   6.214   6.256  14.055
82440W        W54056  14.788  40.376  10.577
82441W        W54057  24.265  26.179   1.864
82442W        W54058   0.321   6.923   0.497
82443W        W54059  31.924   0.115   3.770
82444W        W54060  28.039  17.150  11.695
82445W        W54061  14.013  43.765  10.847
82446W        W54062   5.900  18.277   0.876
82447W        W54063  24.917  28.559  12.537
82448W        W54064   0.791  38.811  11.195
82449W        W54065   8.254  20.005  11.206
82450W        W54066   1.458   8.581   2.000
82451W        W54067  33.819  35.134   1.823
82452W        W54068  29.646  35.676   4.349
82453W        W54069  43.951   1.943  12.478
82454W        W54070   4.002   7.990  13.327
82455W        W54071  31.243  20.080   1.722
82456W        W54072  11.891   4.371  10.473
82457W        W54073  43.931  17.240  11.500
82458W        W54074  34.801  25.428  12.846
82459W        W54075  19.130  34.473   1.743
82460W        W54076  38.470  35.964   3.336
82461W        W54077  15.214  23.522  11.403
82462W        W54078  27.643   8.427   2.204
82463W        W54079  26.595  34.814  13.918
82464W        W54080  32.652  22.019  11.673
82465W        W54081   6.353  41.823   3.421
82466W        W54082  12.166  42.275   3.706
82467W        W54083  22.655  35.071  13.164
82468W        W54084  40.545  33.438   1.273
82469W        W54085  36.395   0.259  14.292
82470W        W54086  22.771  17.062   1.800
82471W        W54087  39.487  26.532  14.835
82472W        W54088  16.783  13.650   0.223
82473W        W54089  18.217  30.713   2.809
82474W        W54090   4.777  16.833  12.546
82475W        W54091  12.890  13.523   3.752
82476W        W54092  21.476  42.583  11.149
82477W        W54093   4.520  41.388   2.279
82478W        W54094  21.194   4.756   0.358
82479W        W54095  24.598  31.441  14.961
82480W        W54096  30.986  39.402  12.488
82481W        W54097   2.273  30.976   3.315
82482W        W54098  36.461  44.401   3.495
82483W        W54099  34.472  26.902   3.131
82484W        W54100  32.148   0.488   1.232
82485W        W54101  15.373  25.080   4.724
82486W        W54102  16.743  17.251  14.499
82487W        W54103  38.041   2.358  11.907
82488W        W54104   5.155  12.914   0.396
82489W        W54105  38.341  23.600  11.914
82490W        W54106  23.384  16.416  11.137
82491W        W54107  34.003  44.041   9.782
82492W        W54108  44.470  10.666   0.402
82493W        W54109  27.655  26.559   2.718
82494W        W54110  12.411  13.582   3.976
82495W        W54111  24.250   9.934  14.290
82496W        W54112   1.013  32.362  12.520
82497W        W54113  19.727  27.994   4.588
82498W        W54114  17.265  39.452  14.535
82499W        W54115   0.300  34.377   2.805
82500W        W54116  31.295   0.072   2.681
82501W        W54117  14.092   7.236  14.847
82502W        W54118  16.496  19.411  10.622
82503W        W54119  39.045  42.290   2.793
82504W        W54120  17.818   6.262  10.955
82505W        W54121  19.238  42.502  13.980
82506W        W54122  27.757   1.328  14.380
82507W        W54123  13.906  13.904   2.733
82508W        W54124  10.356  26.642  13.806
82509W        W54125   4.424  39.773  10.844
82510W        W54126  25.135  34.902  14.438
82511W        W54127  15.146  34.778   3.807
82512W        W54128   7.313   8.290  13.042
82513W        W54129  33.067   8.915  13.344
82514W        W54130  34.040  13.157   2.759
82515W        W54131   3.759  44.949  12.704
82516W        W54132  15.775  38.110  11.903
82517W        W54133   4.651   0.749  13.525
82518W        W54134  32.607  41.529   1.708
82519W        W54135  14.052   6.779  11.742
82520W        W54136  18.777  14.149  14.252
82521W        W54137   4.755  33.090  10.941
82522W        W54138  32.323   9.691  12.027
82523W        W54139  32.941  19.117  13.868
82524W        W54140  35.491   5.995   0.478
82525W        W54141  34.648  41.423   2.301
82526W        W54142  24.465  17.249  14.455
82527W        W54143  37.451  42.870   3.759
82528W        W54144  33.540  35.856  14.233
82529W        W54145  24.966  37.592   1.942
82530W        W54146   7.836  14.655  12.811
82531W        W54147  13.068   2.758  13.491
82532W        W54148  33.911   0.544  14.478
82533W        W54149  33.794  24.635   2.866
82534W        W54150  42.556   9.690  10.703
82535W        W54151  17.115   7.336   1.753
82536W        W54152   2.813   0.453  12.058
82537W        W54153   9.365   6.383  14.710
82538W        W54154  23.504  24.270   2.271
82539W        W54155  18.747  14.337  10.595
82540W        W54156  11.608  35.682   0.422
82541W        W54157  27.445  35.564  13.466
82542W        W54158  39.780  23.714  12.452
82543W        W54159  39.990  28.469  13.991
82544W        W54160  25.276   2.327   3.929
82545W        W54161   9.582  15.347  12.940
82546W        W54162   3.399   7.426  12.527
82547W        W54163  22.582  18.334   9.944
82548W        W54164  30.500  26.065  13.520
82549W        W54165  36.568  13.054  10.729
82550W        W54166  19.598  31.613   2.485
82551W        W54167  30.189  23.806  14.059
82552W        W54168   1.475  31.873   4.580
82553W        W54169  30.510  12.248  13.979
82554W        W54170  29.441  16.007   3.390
82555W        W54171  41.007  26.902   4.227
82556W        W54172  40.774   8.864  11.711
82557W        W54173  44.382  27.980  14.900
82558W        W54174  14.275  16.161   0.962
82559W        W54175  36.988   3.925   0.449
82560W        W54176  43.442  43.909  12.110
82561W        W54177  30.023  12.223   1.733
82562W        W54178  32.895  28.009  12.000
82563W        W54179  25.470  21.574   1.724
82564W        W54180  30.506  36.819  12.990
82565W        W54181  35.892  15.346  13.969
82566W        W54182   0.971  11.758  12.952
82567W        W54183  16.622   6.606  13.058
82568W        W54184  38.766  42.402  10.823
82569W        W54185  21.581   9.798   2.322
82570W        W54186  22.313  41.491  11.494
82571W        W54187  24.610  21.080  11.128
82572W        W54188  21.973  33.613  14.899
82573W        W54189  14.714   3.252  13.042
82574W        W54190  16.597  34.919  12.996
82575W        W54191  36.798  14.687   4.406
82576W        W54192  29.792  38.614  10.329
82577W        W54193  28.521   3.272  10.352
82578W        W54194   2.162  23.402  13.519
82579W        W54195  22.799   5.856  12.492
82580W        W54196  14.837  44.283   2.008
82581W        W54197  19.701  19.987  12.806
82582W        W54198  41.278  17.745  14.284
82583W        W54199   0.386  30.583  11.408
82584W        W54200  26.740  19.817  12.076
82585W        W54201  30.927  33.112   1.851
82586W        W54202  17.661   8.755  11.507
82587W        W54203  15.312  42.331   1.800
82588W        W54204  44.401  11.411  13.833
82589W        W54205  15.499  38.231   1.817
82590W        W54206  17.137   6.338  12.607
82591W        W54207  43.927   1.157  11.015
82592W        W54208   3.351  23.662  11.482
82593W        W54209   2.778  16.785  12.948
82594W        W54210  37.745  20.029   3.643
82595W        W54211  18.152  34.813   4.250
82596W        W54212  20.569  41.053  12.541
82597W        W54213  29.634  14.394   3.755
82598W        W54214  14.726   5.253   1.995
82599W        W54215  33.982  33.515   3.325
82600W        W54216  28.382  33.848   4.118
82601W        W54217  20.987  43.021   4.541
82602W        W54218  32.013  31.957   0.319
82603W        W54219  12.915   7.846  11.986
82604W        W54220  35.914  20.813   4.647
82605W        W54221  26.927  21.922  11.672
82606W        W54222  23.625  24.963   1.207
82607W        W54223  40.069   0.616  14.166
82608W        W54224   8.542  42.350  14.097
82609W        W54225   2.894  44.302   3.114
82610W        W54226  43.571  13.163   3.602
82611W        W54227  28.054   5.080   1.963
82612W        W54228   6.222  19.819   3.300
82613W        W54229  40.248  23.340  11.102
82614W        W54230  33.535  15.831  13.354
82615W        W54231  43.453  36.583   0.026
82616W        W54232  16.053  16.109   4.618
82617W        W54233  10.337  27.684   0.910
82618W        W54234  25.393  43.782   1.671
82619W        W54235  27.427  23.683  10.798
82620W        W54236   3.018  20.353  14.740
82621W        W54237  31.724  42.607   0.682
82622W        W54238   1.292  18.760   3.193
82623W        W54239  17.704  33.003   2.636
82624W        W54240   0.906  18.259  14.952
82625W        W54241  16.389  29.134  11.818
82626W        W54242   0.783  28.581  12.452
82627W        W54243  13.295  28.124   1.883
82628W        W54244  44.101  32.850   0.334
82629W        W54245  22.717  31.636  14.794
82630W        W54246  39.947  32.853  13.796
82631W        W54247  37.815  15.752  13.544
82632W        W54248  21.045  18.590  11.711
82633W        W54249  17.369  44.327  14.374
82634W        W54250   8.719  29.109   3.161
82635W        W54251  19.711  23.569  14.275
82636W        W54252  20.047   1.337  13.927
82637W        W54253   1.465  40.941   3.717
82638W        W54254  18.946  35.488   4.137
82639W        W54255  38.132  23.967   4.100
82640W        W54256   4.758  10.689  12.509
82641W        W54257  43.791  31.335   3.748
82642W        W54258  44.749  40.861  13.449
82643W        W54259  28.984  24.463  12.431
82644W        W54260   8.721  15.181  12.680
82645W        W54261  13.279   4.814  11.168
82646W        W54262   5.281  25.235  10.732
82647W        W54263  17.591  39.099   0.264
82648W        W54264  44.988  25.238   0.993
82649W        W54265   5.303  44.743  11.350
82650W        W54266  13.393  29.935   1.842
82651W        W54267   9.614  14.403   3.694
82652W        W54268  38.706  43.424  12.596
82653W        W54269  26.431  34.846  10.694
82654W        W54270  14.558  37.863  11.150
82655W        W54271  10.676  15.566  10.688
82656W        W54272   7.832  22.458   0.463
82657W        W54273   5.922  39.908   1.245
82658W        W54274  42.888  15.308  12.597
82659W        W54275  24.630  41.783  10.758
82660W        W54276   3.335  36.569  12.512
82661W        W54277  32.158  17.878  12.329
82662W        W54278  22.167  10.508  12.887
82663W        W54279  44.926   6.863  12.977
82664W        W54280  15.628  20.240  13.380
82665W        W54281  28.413  26.087   0.820
82666W        W54282  10.877  30.113  14.495
82667W        W54283  25.072  30.403  12.506
82668W        W54284  21.308  29.932   0.802
82669W        W54285  42.616  34.976   2.265
82670W        W54286  22.460  14.013   4.058
82671W        W54287  29.630  25.135   4.151
82672W        W54288  13.194  39.361   0.295
82673W        W54289   2.848  39.539   1.161
82674W        W54290  44.239  19.313  12.034
82675W        W54291  31.020  36.543   1.141
82676W        W54292   9.385   5.174  14.364
82677W        W54293  29.566  13.675  11.158
82678W        W54294  14.861  25.114  11.567
82679W        W54295  21.265  15.148   0.447
82680W        W54296  15.549  29.242   3.643
82681W        W54297   2.875  37.480   0.826
82682W        W54298  34.126   8.092   2.785
82683W        W54299   6.039  25.183   2.752
82684W        W54300  20.194  19.783  14.363
82685W        W54301   8.321   8.787   4.882
82686W        W54302  23.792   5.827   3.911
82687W        W54303  17.704   0.053  14.046
82688W        W54304  41.392  10.687   3.853
82689W        W54305  10.592  15.603   4.022
82690W        W54306  43.870  41.791   3.632
82691W        W54307  25.738   3.205   3.800
82692W        W54308   8.196  28.594  14.508
82693W        W54309  43.788  28.349   3.915
82694W        W54310  25.690  44.333   0.319
82695W        W54311  39.255  44.227   0.320
82696W        W54312  31.491  31.536   0.846
82697W        W54313  41.738  35.818   4.603
82698W        W54314   9.881  29.763  11.500
82699W        W54315  29.273   5.203   0.782
82700W        W54316  13.387   7.396   1.849
82701W        W54317   4.650  17.425  14.458
82702W        W54318  28.584  18.369  12.371
82703W        W54319  28.031   9.392   0.870
82704W        W54320  22.635   8.834  11.201
82705W        W54321  11.848  10.244   4.687
82706W        W54322  38.888  40.603  13.565
82707W        W54323  32.351  29.600  13.063
82708W        W54324  15.137  24.688   3.881
82709W        W54325  24.407  33.562   4.322
82710W        W54326   0.841  15.378  10.777
82711W        W54327  37.611  22.610  11.074
82712W        W54328  11.751  27.696  11.045
82713W        W54329  27.660  29.979   2.036
82714W        W54330  33.646  27.646   1.190
82715W        W54331  20.749  11.794  12.761
82716W        W54332   3.037  14.294   4.256
82717W        W54333  24.680  22.597   1.387
82718W        W54334  30.331  37.566   1.428
82719W        W54335  25.464  23.679   0.319
82720W        W54336   3.169  38.292  13.427
82721W        W54337  20.720  29.439   3.271
82722W        W54338  13.098  44.081  11.287
82723W        W54339  17.515  42.224  14.372
82724W        W54340   3.982  15.341   3.934
82725W        W54341  14.208  10.098  13.814
82726W        W54342  27.067  26.550   1.224
82727W        W54343  40.963   3.004   0.636
82728W        W54344   7.626   9.092  11.243
82729W        W54345  37.768  38.564  11.633
82730W        W54346  23.478  10.446   3.235
82731W        W54347  12.508   2.534  13.867
82732W        W54348  31.733  34.137   2.192
82733W        W54349  18.023  42.343   4.599
82734W        W54350   4.507  38.937   0.424
82735W        W54351  38.244  38.781  10.330
82736W        W54352   7.820  42.040   2.875
82737W        W54353  17.269  34.555   3.868
82738W        W54354  38.743  43.254   1.792
82739W        W54355  15.584  11.182  13.261
82740W        W54356  11.324  38.048   0.325
82741W        W54357   6.209  17.315  14.520
82742W        W54358   2.388   1.872   4.707
82743W        W54359   5.997  11.848   3.932
82744W        W54360  11.321  35.337   2.172
82745W        W54361  26.657   9.844  12.408
82746W        W54362  27.305  33.599   0.930
82747W        W54363  35.485  22.746   1.262
82748W        W54364  26.250  33.503   2.713
82749W        W54365  27.705  41.982   4.592
82750W        W54366  28.810  32.084   5.076
82751W        W54367  10.009  16.620   2.042
82752W        W54368  30.711  35.101  12.974
82753W        W54369  40.277  23.427   4.945
82754W        W54370  26.713   6.888   2.691
82755W        W54371   0.500  27.605  13.854
82756W        W54372  31.121   2.146  13.602
82757W        W54373  36.080   0.380  10.690
82758W        W54374  24.023  38.140  11.099
82759W        W54375   6.277  19.713   1.527
82760W        W54376   3.789  32.412   3.583
82761W        W54377   5.382  11.286  13.283
82762W        W54378  17.681  20.961   4.667
82763W        W54379   5.649  33.889   4.529
82764W        W54380  28.108  35.041  14.693
82765W        W54381  19.174   2.445  11.445
82766W        W54382  33.110  24.775  11.920
82767W        W54383  28.005  11.378  12.892
82768W        W54384  27.978  15.660   2.200
82769W        W54385  38.630  26.799  10.546
82770W        W54386  38.680  37.050   2.654
82771W        W54387  29.391  25.353   4.550
82772W        W54388   1.344  24.425   5.573
82773W        W54389  33.650  30.667  12.861
82774W        W54390  12.852   4.957  14.924
82775W        W54391  11.098   8.645   3.192
82776W        W54392  37.312  27.407  13.514
82777W        W54393  19.653  18.993  10.994
82778W        W54394  16.119  32.536   2.692
82779W        W54395  44.402   8.693  14.255
82780W        W54396  44.409  10.653   4.146
82781W        W54397  20.268  25.263   0.888
82782W        W54398  35.607  32.948   3.698
82783W        W54399   8.266   2.318   1.807
82784W        W54400  15.993  30.901  13.385
82785W        W54401  11.155  19.196   5.052
82786W        W54402  27.599  25.023   1.283
82787W        W54403  13.388  40.703   4.726
82788W        W54404  31.770  41.456  12.707
82789W        W54405  30.494  21.666   1.491
82790W        W54406  42.823  22.925   0.942
82791W        W54407  44.176  12.327  10.770
82792W        W54408   3.832  25.593   2.621
82793W        W54409  37.390   2.889   0.799
82794W        W54410  24.665   4.393   0.415
82795W        W54411  44.385   7.341   3.700
82796W        W54412  30.904  18.262  14.344
82797W        W54413   8.711   1.332  14.080
82798W        W54414  15.019   0.779   1.667
82799W        W54415  21.096  41.947  13.268
82800W        W54416  42.551  31.441  10.493
82801W        W54417  27.135  18.980   3.593
82802W        W54418  20.751  11.092   2.849
82803W        W54419   8.906  26.115  12.472
82804W        W54420  19.735  27.075  11.450
82805W        W54421  14.785  11.087   3.183
82806W        W54422  34.373  21.702   2.533
82807W        W54423  33.953  41.563  11.155
82808W        W54424  29.986  22.796  13.987
82809W        W54425  30.020  10.416  10.940
82810W        W54426  26.901  14.975   0.176
82811W        W54427  21.291   6.392   4.558
82812W        W54428   9.424   8.223  13.432
82813W        W54429   7.746  44.531  10.401
82814W        W54430  33.980  24.271  13.632
82815W        W54431  30.847  17.552  10.620
82816W        W54432   3.887  16.204  11.149
82817W        W54433   1.438  17.256   2.219
82818W        W54434  25.521  42.489   1.118
82819W        W54435  21.145  22.073   4.513
82820W        W54436  24.592   3.339   2.843
82821W        W54437   8.441  13.811  12.624
82822W        W54438  29.974  22.531   1.870
82823W        W54439   8.614   3.384   2.568
82824W        W54440  13.207   1.483   0.783
82825W        W54441  23.329  21.068   2.813
82826W        W54442   2.980  21.606  12.492
82827W        W54443   0.570   9.669   3.444
82828W        W54444  30.871  17.391  14.028
82829W        W54445  43.810  15.787  14.974
82830W        W54446  13.878  18.241   3.140
82831W        W54447  24.433  43.000   4.401
82832W        W54448  30.336  26.618  14.847
82833W        W54449  32.355  44.841  14.575
82834W        W54450  40.821  24.801   3.245
82835W        W54451  17.562  21.941  12.015
82836W        W54452  14.703  32.476   0.329
82837W        W54453  27.441  23.461   0.996
82838W        W54454  12.314  33.354   2.911
82839W        W54455  26.075  14.674  11.855
82840W        W54456  13.010  30.612  14.936
82841W        W54457  11.243  13.926   1.799
82842W        W54458  40.502  14.029  14.326
82843W        W54459   2.372   8.731  12.381
82844W        W54460  13.845  43.740   4.164
82845W        W54461  11.659   8.556  13.578
82846W        W54462   4.483   5.169  11.084
82847W        W54463  32.439  29.008   2.601
82848W        W54464  42.910  24.778   1.979
82849W        W54465   0.269  31.755  14.802
82850W        W54466  41.393  41.500   3.302
82851W        W54467  22.537  21.774   4.743
82852W        W54468  41.784   1.800   4.078
82853W        W54469  24.420  11.627   1.706
82854W        W54470  21.127  24.082   2.410
82855W        W54471   3.409  23.230  12.873
82856W        W54472  41.337  23.177  14.964
82857W        W54473   9.742   4.767  12.015
82858W        W54474  12.548  43.064  14.247
82859W        W54475   6.407  12.533  12.483
82860W        W54476  29.054  34.520   4.789
82861W        W54477  35.780  12.902  12.418
82862W        W54478  26.388   7.746  14.316
82863W        W54479  10.307  42.935   3.612
82864W        W54480   6.171  35.880   3.620
82865W        W54481  44.837  31.480   0.967
82866W        W54482  24.024  29.008   2.810
82867W        W54483  41.275  39.396  14.886
82868W        W54484  27.107  24.162   1.238
82869W        W54485   6.135  19.592   4.187
82870W        W54486  41.326  16.240  11.118
82871W        W54487  44.753  38.114  10.057
82872W        W54488  37.557   7.649   3.650
82873W        W54489  22.514  42.741   1.783
82874W        W54490  23.517  16.364  12.423
82875W        W54491  44.980  41.065  13.870
82876W        W54492  14.375  18.103  10.690
82877W        W54493  36.151  15.807   3.800
82878W        W54494  12.880  30.470   3.618
82879W        W54495  26.255  36.009   1.862
82880W        W54496  25.967   0.731   2.838
82881W        W54497  40.897  10.367   1.803
82882W        W54498  14.333  35.042   4.822
82883W        W54499   6.412  33.470   4.092
82884W        W54500  23.001  33.967   4.077
82885W        W54501  31.707  12.195  12.864
82886W        W54502  14.713  14.309   5.271
82887W        W54503  15.359  36.717  12.566
82888W        W54504   6.831  11.595   3.729
82889W        W54505  34.624  11.697   0.819
82890W        W54506  24.632  10.239   1.894
82891W        W54507  42.676  24.664  13.417
82892W        W54508  11.784   4.555   9.956
82893W        W54509  20.260   2.861   3.798
82894W        W54510  13.066  44.835  13.427
82895W        W54511  23.966  44.253  11.194
82896W        W54512  23.171   4.254   0.415
82897W        W54513  41.764   0.732  13.678
82898W        W54514  14.743  10.714  14.576
82899W        W54515   6.282  10.688  10.686
82900W        W54516  39.717  16.684  13.876
82901W        W54517  16.090  39.606   0.474
82902W        W54518   2.764  39.794  11.573
82903W        W54519  29.172   8.363   3.651
82904W        W54520  36.428  28.633   3.168
82905W        W54521  41.075  24.062   1.942
82906W        W54522  16.397  22.920  13.981
82907W        W54523  41.073  43.132   4.210
82908W        W54524   2.715  26.699  10.618
82909W        W54525   9.944  16.810  12.943
82910W        W54526  25.334  21.097   1.969
82911W        W54527   2.610  35.010  13.679
82912W        W54528  14.826  21.743  11.567
82913W        W54529  31.548  42.503  12.002
82914W        W54530  23.651   8.743  14.108
82915W        W54531  18.681   6.842   0.242
82916W        W54532   3.957   8.269  12.474
82917W        W54533  32.891  26.582   2.951
82918W        W54534  10.826  40.969   0.281
82919W        W54535  23.307  43.504   2.880
82920W        W54536   3.312   0.349   1.649
82921W        W54537  21.533  36.592  12.928
82922W        W54538  32.355  30.488  13.496
82923W        W54539  42.644  34.340   1.522
82924W        W54540  17.769   5.659   1.819
82925W        W54541  32.413   7.711  10.763
82926W        W54542  13.388  44.560  11.361
82927W        W54543  22.809  18.041   3.575
82928W        W54544  18.399   1.230   2.664
82929W        W54545   9.763  12.444  13.396
82930W        W54546  30.846   7.182   1.614
82931W        W54547  14.847   3.793   3.757
82932W        W54548  17.119   8.845   2.673
82933W        W54549   2.156  24.592  11.024
82934W        W54550  27.348  10.838  11.027
82935W        W54551  40.007   7.907   1.967
82936W        W54552  14.471  18.469   3.771
82937W        W54553  25.280  42.269  10.635
82938W        W54554  27.549   0.386   4.167
82939W        W54555  39.385   2.773  11.242
82940W        W54556  22.348  28.324   0.800
82941W        W54557  31.405  30.902  10.784
82942W        W54558  32.465  25.832   0.001
82943W        W54559   3.490   6.491   1.557
82944W        W54560  37.902   0.437  14.513
82945W        W54561  37.014  32.017  11.474
82946W        W54562  30.567  30.452   2.773
82947W        W54563  23.725  34.268  11.093
82948W        W54564  31.917  24.682   1.324
82949W        W54565  30.393  17.619  10.880
82950W        W54566   7.354  42.189   2.707
82951W        W54567  42.378  41.448  13.036
82952W        W54568   3.833  25.799  13.947
82953W        W54569  31.038   5.664   1.238
82954W        W54570  37.902  39.243   1.823
82955W        W54571  21.489  43.916  14.902
82956W        W54572  26.149  27.638   1.782
82957W        W54573  32.958  40.769  11.626
82958W        W54574   9.329  10.757   1.338
82959W        W54575  43.277  40.410  10.397
82960W        W54576  19.099  20.545   3.868
82961W        W54577  40.373  22.101  13.097
82962W        W54578   8.590   7.317   0.946
82963W        W54579  33.659  33.168   2.163
82964W        W54580  17.949  35.146   3.524
82965W        W54581  36.548  41.523   4.565
82966W        W54582  42.031  22.210  12.065
82967W        W54583  44.801  25.077  11.158
82968W        W54584  31.569  12.301   2.844
82969W        W54585  18.059  44.202  12.053
82970W        W54586   0.964  13.267   4.229
82971W        W54587  26.849  29.632  13.351
82972W        W54588  24.636  30.524   5.277
82973W        W54589   2.822  39.408   1.723
82974W        W54590  12.824  32.961   2.774
82975W        W54591  12.757  21.793   2.167
82976W        W54592  20.266  10.249  12.386
82977W        W54593   4.220   6.449  12.868
82978W        W54594   4.267   8.889  14.887
82979W        W54595  35.836  17.584   4.113
82980W        W54596  24.514   6.752  12.044
82981W        W54597  31.426   1.411  10.725
82982W        W54598  18.174  37.947  12.947
82983W        W54599  27.079  40.008  12.503
82984W        W54600  44.936  33.983  13.835
82985W        W54601   0.538  39.575  11.480
82986W        W54602   7.723  16.272   3.468
82987W        W54603  10.149   7.903  13.909
82988W        W54604   8.243   3.952   4.695
82989W        W54605  15.517  18.805  12.604
82990W        W54606   2.601  23.703  13.804
82991W        W54607  30.035  36.889   2.325
82992W        W54608   7.746  10.845  11.573
82993W        W54609   2.993  30.235   2.844
82994W        W54610  39.507   7.663  14.797
82995W        W54611  44.235  34.551   4.660
82996W        W54612  44.437  39.278   1.895
82997W        W54613  29.688  23.412  11.946
82998W        W54614  17.074   0.807   1.946
82999W        W54615  42.223  23.819  11.173
83000W        W54616   1.557  20.817  12.424
83001W        W54617  17.584  20.437  13.389
83002W        W54618   7.645   4.155  11.347
83003W        W54619  11.857  16.320   0.978
83004W        W54620  30.675   0.399   4.731
83005W        W54621  43.246  30.799  12.021
83006W        W54622  22.015   5.693  12.488
83007W        W54623  26.015  36.795  13.361
83008W        W54624   6.898  26.044  11.586
83009W        W54625   1.815  13.246   1.374
83010W        W54626  14.978  26.951   4.204
83011W        W54627   3.756  16.533   2.158
83012W        W54628   7.742  21.948   0.471
83013W        W54629  30.802   5.656  13.053
83014W        W54630   1.723   1.487   1.339
83015W        W54631  15.570  37.414   2.265
83016W        W54632   4.963  19.604   4.490
83017W        W54633  14.317  25.722  12.460
83018W        W54634  13.064  42.625   1.879
83019W        W54635  14.735   0.538  12.243
83020W        W54636  15.025  14.191   1.363
83021W        W54637  19.108  13.257  11.472
83022W        W54638  41.814  39.099   1.463
83023W        W54639  37.391  35.304   0.719
83024W        W54640  33.578  30.438  10.970
83025W        W54641   8.778  18.712   4.546
83026W        W54642  15.133  27.423   4.108
83027W        W54643  41.715  32.095   1.661
83028W        W54644  14.165  32.945   0.737
83029W        W54645  20.700  21.529  14.382
83030W        W54646  31.929  40.083   3.630
83031W        W54647  42.849  21.683  10.816
83032W        W54648  14.508  41.444   9.951
83033W        W54649  14.189  38.157   0.302
83034W        W54650  28.907   5.924  11.247
83035W        W54651  22.886  41.025  14.105
83036W        W54652   9.774  37.957  13.816
83037W        W54653  43.899  40.566  13.271
83038W        W54654   5.460  22.648  10.690
83039W        W54655  28.325   7.210   0.384
83040W        W54656  14.736  34.543  14.275
83041W        W54657   1.884  18.043   4.213
83042W        W54658   9.231  21.510   1.143
83043W        W54659  29.183  34.293   0.813
83044W        W54660   5.767  12.286   4.068
83045W        W54661  32.132  27.707  13.484
83046W        W54662  22.117  19.525   1.270
83047W        W54663   4.724  20.087  12.436
83048W        W54664  14.574  10.138   2.910
83049W        W54665  35.327  15.333   3.790
83050W        W54666  40.331  44.269   3.152
83051W        W54667  25.268  23.955  13.035
83052W        W54668   7.889   4.244   4.325
83053W        W54669  17.758  21.235  10.651
83054W        W54670  33.828  13.206   2.278
83055W        W54671  34.628  24.327   3.657
83056W        W54672  29.743  34.099   2.435
83057W        W54673  31.950  14.392  10.753
83058W        W54674  16.998  34.024  12.143
83059W        W54675  34.003   5.892  10.968
83060W        W54676  28.001   2.093  12.207
83061W        W54677  20.415  24.619   2.003
83062W        W54678  17.657  11.756  14.701
83063W        W54679   1.238   4.109   2.742
83064W        W54680  17.132  19.614   5.023
83065W        W54681  19.211  35.502  14.749
83066W        W54682  11.308  44.946   1.067
83067W        W54683  15.421  21.283  14.217
83068W        W54684  26.064   7.193   3.887
83069W        W54685  29.500  40.865  13.913
83070W        W54686  37.492  38.353  13.393
83071W        W54687  14.222  20.135  14.422
83072W        W54688   7.324  10.673   0.941
83073W        W54689  29.908  16.493   2.226
83074W        W54690  32.463  30.708   3.280
83075W        W54691  15.649  43.964   4.647
83076W        W54692  43.966  18.806  11.663
83077W        W54693   5.926  32.926   0.328
83078W        W54694   4.891   2.508   0.010
83079W        W54695  38.290   8.599   1.838
83080W        W54696  24.911  32.416   1.481
83081W        W54697  14.211  12.269   0.153
83082W        W54698  28.937   0.999  11.129
83083W        W54699   2.241   4.460   0.270
83084W        W54700  30.408  27.428  13.559
83085W        W54701  38.029  42.990  10.481
83086W        W54702  25.989  25.683  14.037
83087W        W54703  34.391  31.097   2.785
83088W        W54704  34.536   8.920  12.167
83089W        W54705  41.773  22.387   2.841
83090W        W54706   3.817  29.316   0.989
83091W        W54707  44.683  38.090  14.794
83092W        W54708  26.667   6.972  14.962
83093W        W54709  30.461   9.823  13.579
83094W        W54710  23.606  34.481  12.530
83095W        W54711  44.373  10.586   2.459
83096W        W54712   7.472  15.136  10.500
83097W        W54713  13.364  23.938   5.011
83098W        W54714   7.967  33.100   2.820
83099W        W54715  22.598   8.405   2.778
83100W        W54716  20.053   6.699   3.242
83101W        W54717  21.598   0.254  10.644
83102W        W54718  20.173  27.937  12.535
83103W        W54719   7.821  10.339  14.032
83104W        W54720  32.792   7.868  11.080
83105W        W54721  26.686  20.939   4.057
83106W        W54722  22.299  33.437  13.613
83107W        W54723  44.501   9.330  12.090
83108W        W54724  22.227  15.807  14.757
83109W        W54725   5.298  28.213  11.649
83110W        W54726  41.344   7.204  10.384
83111W        W54727  42.108  43.833   1.274
83112W        W54728  16.214  41.668  10.754
83113W        W54729  17.980  26.525  13.363
83114W        W54730  32.969  37.761  10.694
83115W        W54731  13.792   8.262   4.884
83116W        W54732  21.573  41.536   2.352
83117W        W54733  42.765  16.639   2.178
83118W        W54734  20.901  44.848   0.297
83119W        W54735   9.197  12.639   0.912
83120W        W54736  41.949  21.699   0.960
83121W        W54737  35.873  26.689  13.040
83122W        W54738  13.640  10.578  12.525
83123W        W54739  10.050  43.905   2.388
83124W        W54740  15.783   3.342   4.260
83125W        W54741   9.593  37.051  13.892
83126W        W54742  22.593  42.905   0.215
83127W        W54743   0.955  25.730  14.445
83128W        W54744  34.366  35.429   2.405
83129W        W54745  12.910  41.742   3.287
83130W        W54746  38.442  21.192  14.664
83131W        W54747  22.610  17.736  13.855
83132W        W54748  13.337  16.189   4.620
83133W        W54749   5.201  39.551  10.471
83134W        W54750  29.026  15.976   4.175
83135W        W54751  21.504  18.782   1.701
83136W        W54752   0.770  10.126  13.890
83137W        W54753  41.626  40.070  14.465
83138W        W54754  31.611   1.191   4.268
83139W        W54755  39.987   1.254   0.046
83140W        W54756  20.344  29.406  10.836
83141W        W54757  42.831  18.785  13.771
83142W        W54758  23.652   5.940   3.425
83143W        W54759  28.508   0.646   3.423
83144W        W54760  39.470  16.082   2.847
83145W        W54761  42.588  22.988  13.773
83146W        W54762  44.978  30.436   1.947
83147W        W54763   3.508   7.344  11.180
83148W        W54764  38.939  28.363   4.073
83149W        W54765   3.775  26.490   2.508
83150W        W54766   8.342  15.129   3.264
83151W        W54767   7.583  41.355   4.247
83152W        W54768   8.448  11.576  13.402
83153W        W54769  40.306   9.806   1.776
83154W        W54770  39.389  42.678  11.164
83155W        W54771  13.381  24.761  14.683
83156W        W54772  29.522   7.137  11.212
83157W        W54773  25.173   9.902  12.666
83158W        W54774  29.016  38.740   0.853
83159W        W54775  12.408   9.245  14.909
83160W        W54776  29.987  43.747   1.558
83161W        W54777   2.511  36.371   1.824
83162W        W54778   9.545  11.293  12.960
83163W        W54779   0.701  24.032   4.935
83164W        W54780  31.321   1.248  14.214
83165W        W54781  35.376  36.532  13.316
83166W        W54782  35.988   3.950  14.229
83167W        W54783  20.706  21.307  12.912
83168W        W54784  35.986  20.774   1.876
83169W        W54785  44.196   3.696   4.237
83170W        W54786   7.029  17.304   4.329
83171W        W54787  42.270  20.576   1.965
83172W        W54788   2.417  36.924   4.392
83173W        W54789  23.520  41.257  12.137
83174W        W54790  37.814  27.171  11.492
83175W        W54791  33.674  32.916  13.293
83176W        W54792  21.713  43.216   4.876
83177W        W54793  15.963  20.670  10.541
83178W        W54794  11.240  20.143   0.679
83179W        W54795  28.314  29.526   5.049
83180W        W54796  38.311  17.855  13.910
83181W        W54797  43.389  26.836  13.152
83182W        W54798   6.513  22.549  10.562
83183W        W54799   2.742  17.684   3.343
83184W        W54800  16.313  43.858  12.104
83185W        W54801  41.190   4.354  13.365
83186W        W54802  38.310   1.750  11.540
83187W        W54803  14.584   0.555   2.368
83188W        W54804  24.043  22.573  12.913
83189W        W54805   9.117  17.328   2.731
83190W        W54806  10.817  40.896   4.868
83191W        W54807  14.509  35.355   4.046
83192W        W54808  12.902  33.855  11.975
83193W        W54809  41.673  29.229   0.872
83194W        W54810  35.522  30.719  14.282
83195W        W54811  19.747  32.117  12.052
83196W        W54812  29.920  26.838  12.154
83197W        W54813  28.396  32.535   3.077
83198W        W54814   1.714  30.193   2.232
83199W        W54815  43.748  40.765   3.669
83200W        W54816  12.837   9.689  13.726
83201W        W54817  16.759  14.769  11.042
83202W        W54818  33.430  19.963  14.826
83203W        W54819  32.125  19.133  11.386
83204W        W54820   0.240  40.865  11.127
83205W        W54821   0.959   2.229   1.352
83206W        W54822   6.393  25.670  11.133
83207W        W54823  31.080  34.631   1.725
83208W        W54824  23.704  33.898  10.725
83209W        W54825  16.724   6.537   1.893
83210W        W54826  27.071   3.943   4.008
83211W        W54827  26.217  26.202  14.271
83212W        W54828  31.042  24.108   3.666
83213W        W54829  43.350  15.834   2.835
83214W        W54830  40.425  13.808   3.686
83215W        W54831  41.862  22.473  10.702
83216W        W54832   8.398  35.391   1.863
83217W        W54833  40.894  26.965   2.808
83218W        W54834  35.903   0.656  13.362
83219W        W54835  18.990   8.914  12.948
83220W        W54836  41.074  35.893  10.605
83221W        W54837  12.122  36.442   2.706
83222W        W54838  40.508  10.901  12.455
83223W        W54839  40.580  33.997   3.154
83224W        W54840   4.751  32.139   1.441
83225W        W54841  11.926  12.255   1.449
83226W        W54842   4.897  31.097  14.460
83227W        W54843  10.150  32.816  11.530
83228W        W54844  11.641  36.874   3.134
83229W        W54845  19.703  42.783  11.252
83230W        W54846   0.864  35.487  11.750
83231W        W54847  34.885  11.076   3.289
83232W        W54848  44.309   5.590   4.093
83233W        W54849  44.017  40.905  13.682
83234W        W54850  20.552  41.401   0.448
83235W        W54851  14.097  23.934   4.531
83236W        W54852  16.543  44.522  12.167
83237W        W54853  41.438  44.872  11.206
83238W        W54854   5.001   1.809   1.789
83239W        W54855   4.661  22.483   2.328
83240W        W54856  37.123  39.380  13.480
83241W        W54857  21.036  10.308   0.936
83242W        W54858   0.911  18.605   1.575
83243W        W54859  28.001  28.683   0.480
83244W        W54860  28.192  29.563   2.660
83245W        W54861  28.100  39.063   2.654
83246W        W54862   6.084  13.785  14.478
83247W        W54863  37.845   3.948   1.346
83248W        W54864  34.345   7.185  14.453
83249W        W54865  25.558   4.877   4.189
83250W        W54866   1.528  23.101  10.645
83251W        W54867  20.606   7.915   3.171
83252W        W54868  38.635  32.625   3.138
83253W        W54869   5.931  25.604   2.466
83254W        W54870  24.154  13.216  14.050
83255W        W54871  11.581  18.131   3.743
83256W        W54872  16.343  27.440   2.196
83257W        W54873  40.361  44.356  13.450
83258W        W54874  19.259  36.385  12.141
83259W        W54875  39.551  36.472  12.009
83260W        W54876  18.121  41.432   1.822
83261W        W54877  12.682  25.646   2.891
83262W        W54878  26.988   2.930   2.944
83263W        W54879  43.953   9.332  11.156
83264W        W54880  23.274  16.779   1.780
83265W        W54881   2.170   7.732   1.285
83266W        W54882   3.851   9.798  12.352
83267W        W54883  44.299  22.451  12.536
83268W        W54884  10.378  23.647   3.031
83269W        W54885  35.502  14.841  12.018
83270W        W54886  22.799  18.493  12.139
83271W        W54887  32.994  34.376   1.974
83272W        W54888  19.510  18.562   4.788
83273W        W54889  12.426  30.876   4.239
83274W        W54890  27.694  31.120   2.438
83275W        W54891  24.781  24.844  11.093
83276W        W54892  10.493  15.464   1.494
83277W        W54893  38.837  39.378  13.779
83278W        W54894  20.014  38.821  14.013
83279W        W54895  12.743  39.025   1.863
83280W        W54896   3.907  43.433   4.387
83281W        W54897  33.984  15.405  11.605
83282W        W54898  29.644  25.111  13.861
83283W        W54899   6.330  33.467  12.620
83284W        W54900  43.644  11.569  13.907
83285W        W54901  31.266  14.780  11.325
83286W        W54902   1.043  27.575  14.900
83287W        W54903   5.103  26.499   2.735
83288W        W54904  31.872  31.072   4.129
83289W        W54905  14.598  12.115  12.917
83290W        W54906  28.793   7.463  12.044
83291W        W54907  39.941  19.094  14.042
83292W        W54908  34.466  33.408   4.227
83293W        W54909  40.009  40.170   2.819
83294W        W54910  27.168   6.791  14.826
83295W        W54911  30.928  15.746   4.206
83296W        W54912  27.080  31.115   0.808
83297W        W54913  43.498  44.562   0.378
83298W        W54914  10.207  44.028   1.909
83299W        W54915  34.864  22.191   4.152
83300W        W54916  29.091  15.183  11.427
83301W        W54917  43.313  21.559  13.437
83302W        W54918  23.616   8.804   2.585
83303W        W54919  14.320   5.536  14.858
83304W        W54920  13.359  24.581   2.346
83305W        W54921  18.205  40.594  13.139
83306W        W54922  25.633  31.373   4.538
83307W        W54923   1.957  25.657   4.302
83308W        W54924   4.647  44.730   3.654
83309W        W54925  39.933  23.328  12.740
83310W        W54926  39.761  30.587   4.386
83311W        W54927  30.176  34.935   4.391
83312W        W54928  17.686  33.732   3.797
83313W        W54929  41.821  23.430   1.903
83314W        W54930  30.743  43.915   0.350
83315W        W54931  44.555   9.684   3.188
83316W        W54932  31.702   9.437   4.560
83317W        W54933  34.076   3.494  14.566
83318W        W54934  18.521   2.648   3.157
83319W        W54935  30.979  28.911  14.411
83320W        W54936  17.627   6.633  14.104
83321W        W54937  20.741  39.713   2.772
83322W        W54938  35.515   6.818   2.014
83323W        W54939  17.102  34.486   1.703
83324W        W54940   6.451  24.544   4.056
83325W        W54941   1.000  39.952   0.159
83326W        W54942  10.952  23.888  12.799
83327W        W54943  28.372  19.638   3.644
83328W        W54944  31.440   3.714  13.573
83329W        W54945  36.466  36.305   2.671
83330W        W54946   1.271   2.400   0.510
83331W        W54947  23.059   0.930   2.619
83332W        W54948  28.159   1.145   4.155
83333W        W54949  42.807  22.186   2.718
83334W        W54950  39.843  26.525   0.205
83335W        W54951  13.359  34.137  11.939
83336W        W54952  28.395   5.794   1.928
83337W        W54953  31.599   7.223  13.950
83338W        W54954  16.480  30.477  11.187
83339W        W54955  16.304  38.390  13.499
83340W        W54956   9.837  28.480  13.733
83341W        W54957  11.759  43.161   1.320
83342W        W54958  38.740  29.920  14.872
83343W        W54959  25.397  12.881  13.805
83344W        W54960  24.511  42.280  13.927
83345W        W54961  41.881  12.189  13.043
83346W        W54962   2.719  33.129   4.533
83347W        W54963  16.633  23.196  10.580
83348W        W54964   1.415  11.581   2.124
83349W        W54965   1.916  21.156   3.561
83350W        W54966   2.283  44.670   2.388
83351W        W54967  43.458  31.896  14.354
83352W        W54968   6.159  15.808   3.845
83353W        W54969  35.310  27.880   3.240
83354W        W54970   4.698  23.934  14.292
83355W        W54971  40.053  40.326   4.870
83356W        W54972   0.609  24.031  10.596
83357W        W54973  42.305  40.055   4.095
83358W        W54974  38.352  21.009   4.662
83359W        W54975   4.017  44.493   2.230
83360W        W54976  28.549  22.059  12.534
83361W        W54977  24.688  42.306   3.627
83362W        W54978  34.017   8.861   0.322
83363W        W54979  42.762  34.394  14.236
83364W        W54980  28.106  24.759   3.375
83365W        W54981   9.484  22.626  12.497
83366W        W54982  40.562   2.510  11.403
83367W        W54983  27.605  38.804  13.820
83368W        W54984   0.524  11.941  12.762
83369W        W54985   5.731  17.765   0.430
83370W        W54986  44.958  30.153   0.285
83371W        W54987  13.236  28.163  10.631
83372W        W54988  20.183  43.040  11.357
83373W        W54989   1.247  37.412  12.842
83374W        W54990   9.686  22.627   0.999
83375W        W54991  18.634  16.106  12.197
83376W        W54992   7.855  33.330  11.583
83377W        W54993  37.795   9.308  13.971
83378W        W54994  39.235  44.726   0.187
83379W        W54995   7.934   2.153   1.413
83380W        W54996   3.832  44.949  14.782
83381W        W54997  33.145  13.085   1.640
83382W        W54998  17.297   3.366   4.502
83383W        W54999  10.837  14.126   0.425
83384W        W55000  12.827   4.427  14.890
83385W        W55001   4.413  32.960  12.879
83386W        W55002   4.275  39.579   4.033
83387W        W55003  21.632   5.900  12.157
83388W        W55004  25.695   4.646  12.741
83389W        W55005  13.770  21.276  11.043
83390W        W55006  21.647  40.355  14.901
83391W        W55007  38.310   6.756  14.117
83392W        W55008  12.056  27.723   3.918
83393W        W55009  12.011  41.581  11.169
83394W        W55010  18.585  40.369  11.574
83395W        W55011   2.478  12.100   0.870
83396W        W55012  40.512  42.084   0.442
83397W        W55013  33.002  33.696  14.922
83398W        W55014  23.006  27.085   4.855
83399W        W55015  39.430  14.519   2.689
83400W        W55016  12.699  40.403  10.434
83401W        W55017  37.590  10.548   1.466
83402W        W55018  34.970  29.273   2.918
83403W        W55019   2.177  34.562  11.257
83404W        W55020  11.633  11.111   0.628
83405W        W55021  39.038  23.614   2.113
83406W        W55022  38.288  42.466  11.569
83407W        W55023  11.406   9.286   1.384
83408W        W55024  17.034  15.296  11.498
83409W        W55025  11.196  40.764   3.829
83410W        W55026  24.789   4.638  14.256
83411W        W55027   1.612  39.003   1.944
83412W        W55028  31.223  31.270   5.214
83413W        W55029   9.148   7.446   3.852
83414W        W55030  40.003  30.908   4.032
83415W        W55031  20.611  31.415  13.312
83416W        W55032   2.564   9.877   4.769
83417W        W55033  20.151  32.810  13.803
83418W        W55034  31.106   3.377   0.954
83419W        W55035  36.884  42.341   0.281
83420W        W55036   2.115   3.165   3.625
83421W        W55037  43.781  16.204   0.275
83422W        W55038  31.447  29.284  14.690
83423W        W55039  11.166  30.091  13.068
83424W        W55040  32.881  28.778  11.094
83425W        W55041  19.371  27.196   2.402
83426W        W55042  27.660  41.438  12.823
83427W        W55043   4.287  41.628  10.814
83428W        W55044  23.876  20.156  14.153
83429W        W55045  20.597  27.278  11.217
83430W        W55046  22.394  41.573  12.912
83431W        W55047  20.582  24.186   0.438
83432W        W55048  31.882  29.201   0.696
83433W        W55049  24.846  22.098  10.891
83434W        W55050  30.071  19.236  14.278
83435W        W55051  21.990  17.713   4.989
83436W        W55052  28.188   5.349  13.881
83437W        W55053   5.482  37.944  10.857
83438W        W55054  26.033  40.260  13.006
83439W        W55055  44.369  35.332   4.749
83440W        W55056  20.636   4.538  11.098
83441W        W55057  24.020  14.840   1.813
83442W        W55058  36.120  22.765  11.930
83443W        W55059   0.389  26.577  12.704
83444W        W55060  20.270  13.746  11.534
83445W        W55061  41.830  36.832   4.138
83446W        W55062  17.095  28.651   1.086
83447W        W55063  43.860  10.220   0.034
83448W        W55064   6.631  14.173  10.836
83449W        W55065  13.121   9.379  14.087
83450W        W55066  41.506  16.226  14.006
83451W        W55067   8.775  15.809  12.191
83452W        W55068   6.069  31.231   2.919
83453W        W55069  37.031  43.126   3.926
83454W        W55070  25.601  15.795   9.621
83455W        W55071  28.374  40.867   0.902
83456W        W55072  24.039  22.293  13.914
83457W        W55073   4.601  30.832  11.159
83458W        W55074  13.272  20.077   0.207
83459W        W55075  17.541  27.925  14.906
83460W        W55076  31.170  44.430   3.363
83461W        W55077  17.732  10.612   1.927
83462W        W55078  21.928  16.823   3.539
83463W        W55079  15.207   5.707  13.671
83464W        W55080  19.776  11.703  11.025
83465W        W55081  15.996  10.162   2.409
83466W        W55082  44.739  42.981   2.630
83467W        W55083  15.647  34.457  13.749
83468W        W55084   6.199  10.279  12.956
83469W        W55085  17.486   4.413   1.909
83470W        W55086  43.748   5.279  11.156
83471W        W55087   5.545  12.677   3.798
83472W        W55088  26.508  10.862   1.867
83473W        W55089  24.386  26.559  13.423
83474W        W55090  43.782  16.231   4.056
83475W        W55091  11.018  36.812   2.288
83476W        W55092  39.002  10.283   1.754
83477W        W55093  31.849  16.319   0.744
83478W        W55094  30.048   3.289  13.948
83479W        W55095  27.396  26.289  13.833
83480W        W55096  41.507  27.534   3.180
83481W        W55097  43.325  10.457   3.387
83482W        W55098  24.958   3.080   5.067
83483W        W55099  25.119  10.933   1.734
83484W        W55100  42.405  34.069  13.309
83485W        W55101   9.813  37.372   2.854
83486W        W55102  13.897  33.886  12.889
83487W        W55103  23.268   0.881  12.055
83488W        W55104  13.602  44.339   2.809
83489W        W55105  15.906  44.447   1.711
83490W        W55106   5.176   8.939  14.980
83491W        W55107  18.797  30.504   1.369
83492W        W55108   7.199   1.861  11.549
83493W        W55109  27.196  38.488  10.781
83494W        W55110   7.171  24.505  11.948
83495W        W55111  18.045  38.142   4.125
83496W        W55112   3.741  42.835   2.085
83497W        W55113  11.848   2.492  12.056
83498W        W55114   2.073   0.220  10.219
83499W        W55115  42.913  19.199   1.077
83500W        W55116  40.582   6.697   3.675
83501W        W55117  26.915   5.203  13.839
83502W        W55118  22.496  17.518   0.238
83503W        W55119  24.509  40.427   0.918
83504W        W55120   1.702  28.973  11.475
83505W        W55121  22.696   1.230   3.738
83506W        W55122  28.143  17.010  13.872
83507W        W55123  27.354  38.412  11.558
83508W        W55124  23.286   3.932  13.436
83509W        W55125  33.785  37.292   0.095
83510W        W55126  31.256  25.693   4.214
83511W        W55127  40.014  29.443   4.189
83512W        W55128  29.927  14.053  11.039
83513W        W55129  22.787  33.931   1.276
83514W        W55130  32.526  21.368  12.461
83515W        W55131  16.642  42.030  14.918
83516W        W55132  32.518   2.401   5.594
83517W        W55133  37.975   6.538  14.843
83518W        W55134  36.459  44.089  14.030
83519W        W55135   2.526  15.145  10.703
83520W        W55136  21.999  22.061   2.420
83521W        W55137  19.748   7.584  13.868
83522W        W55138  35.526  27.298  13.968
83523W        W55139  28.124  26.386  14.454
83524W        W55140  27.890  30.542  11.694
83525W        W55141  26.145  16.563  10.137
83526W        W55142  11.204   3.332  11.164
83527W        W55143   4.278  24.237   4.682
83528W        W55144  16.749  13.552   1.599
83529W        W55145  39.316   9.328  11.665
83530W        W55146  10.407   1.921  10.901
83531W        W55147  12.792  42.853  13.832
83532W        W55148  21.121   3.211   2.182
83533W        W55149   8.970   8.881  14.926
83534W        W55150  12.151  28.882  14.239
83535W        W55151  19.503  30.104  12.801
83536W        W55152  39.472   4.344   0.455
83537W        W55153  38.982  27.220   2.414
83538W        W55154  10.396  19.960   4.595
83539W        W55155   2.377  41.079  10.619
83540W        W55156  34.383   0.112  12.421
83541W        W55157  17.248  25.395  13.323
83542W        W55158  36.615   3.956   2.539
83543W        W55159   0.773  37.110  13.311
83544W        W55160  13.942  23.271  13.765
83545W        W55161   6.472  13.160   2.307
83546W        W55162  35.793  32.764   3.255
83547W        W55163  37.465  23.288  10.425
83548W        W55164   4.810  41.064  14.875
83549W        W55165  27.438  12.417   4.086
83550W        W55166  19.371  41.922  12.552
83551W        W55167  27.530  35.407  11.141
83552W        W55168  19.103  17.080   1.310
83553W        W55169  18.029   5.294  14.297
83554W        W55170  33.048  16.513   2.313
83555W        W55171  19.666  24.500  12.468
83556W        W55172   7.123   3.024   3.166
83557W        W55173  32.496  17.810   1.263
83558W        W55174  15.842  37.584  12.626
83559W        W55175  25.765  17.387  14.390
83560W        W55176  14.872  21.335  12.946
83561W        W55177  34.758  32.666   3.494
83562W        W55178  44.995  17.269   2.436
83563W        W55179  20.574  26.976   3.321
83564W        W55180   4.317  30.457  10.423
83565W        W55181   4.759  30.954   2.555
83566W        W55182   2.142  37.540   2.446
83567W        W55183  29.165  43.011   3.124
83568W        W55184  23.236  24.720   2.279
83569W        W55185  27.945   5.294  12.991
83570W        W55186   2.328  20.577   0.312
83571W        W55187  10.678  43.750   1.856
83572W        W55188  33.483  42.978   3.534
83573W        W55189   9.439  23.968  12.058
83574W        W55190   1.058  40.806  11.595
83575W        W55191  28.647  11.824   3.119
83576W        W55192  40.169  20.983   0.553
83577W        W55193  19.196   9.442   3.340
83578W        W55194  19.327  36.648   0.298
83579W        W55195   4.313  28.118  10.898
83580W        W55196  43.373  43.122   1.827
83581W        W55197  32.463  26.450  12.493
83582W        W55198   7.787   1.745   4.555
83583W        W55199   5.618  36.942   4.491
83584W        W55200  29.750  39.400   2.587
83585W        W55201   5.217  42.583   0.853
83586W        W55202  44.477   6.310   3.124
83587W        W55203   1.476   1.446  14.241
83588W        W55204  23.319  29.889  13.493
83589W        W55205   5.731  15.189   1.390
83590W        W55206   6.193   6.934  10.514
83591W        W55207  22.018  12.299   0.753
83592W        W55208  44.511   8.708   0.345
83593W        W55209   1.142  42.895   0.807
83594W        W55210  15.095   1.722   1.691
83595W        W55211   8.321  32.416   3.494
83596W        W55212  40.067  31.488  12.402
83597W        W55213   2.338   3.688  14.839
83598W        W55214  31.029  11.705   2.893
83599W        W55215  38.938  35.128  10.539
83600W        W55216  32.444  27.540   0.764
83601W        W55217  20.144  18.993  14.795
83602W        W55218  30.047  27.458  10.113
83603W        W55219   8.197  35.381   4.506
83604W        W55220  35.010   2.831  14.707
83605W        W55221  22.930   8.606  12.946
83606W        W55222  41.050  19.784   4.597
83607W        W55223  43.793  12.157  11.080
83608W        W55224  23.609  20.557  14.394
83609W        W55225  29.909  32.947  12.010
83610W        W55226  32.856  22.607   2.176
83611W        W55227  32.926  43.344  10.715
83612W        W55228  32.868  32.878  11.505
83613W        W55229  23.040  34.183  14.922
83614W        W55230  23.008  29.104   1.032
83615W        W55231  44.349  25.912   2.254
83616W        W55232  25.130  23.460  12.108
83617W        W55233  22.620  26.667   2.124
83618W        W55234  22.274  37.321   4.183
83619W        W55235  20.376  42.400   2.303
83620W        W55236  36.021  27.482  14.877
83621W        W55237  28.206   2.326   3.726
83622W        W55238  18.112  28.724  13.967
83623W        W55239  29.634   1.008   0.297
83624W        W55240   7.440  22.017   3.744
83625W        W55241   5.769   6.212  10.488
83626W        W55242  22.455  26.552  11.070
83627W        W55243   6.408  27.746   4.648
83628W        W55244  43.916  35.643  12.858
83629W        W55245   2.562   5.211  11.276
83630W        W55246   4.357  17.529   4.655
83631W        W55247  20.546   2.229  12.971
83632W        W55248   4.189  26.245  11.069
83633W        W55249  16.568  26.571   3.645
83634W        W55250   2.902  38.759  11.878
83635W        W55251  20.652  30.527   0.935
83636W        W55252  36.993  36.406   3.212
83637W        W55253  38.528   1.419  11.940
83638W        W55254  11.605  32.938   2.226
83639W        W55255  13.439   1.956   0.064
83640W        W55256   3.454  15.402   3.837
83641W        W55257   8.221   8.298  13.600
83642W        W55258   8.722  44.274  11.125
83643W        W55259  40.320   9.417  13.872
83644W        W55260   7.313  24.654  12.829
83645W        W55261   5.312  33.637   9.684
83646W        W55262  42.868  11.229  11.635
83647W        W55263  27.496  15.710  14.650
83648W        W55264   6.341  35.142   0.436
83649W        W55265  19.744  30.630   3.174
83650W        W55266  26.798  21.411  10.756
83651W        W55267  32.230  24.121   2.182
83652W        W55268  24.616  36.168   4.167
83653W        W55269   8.963   2.415   0.337
83654W        W55270   6.391  24.993  12.399
83655W        W55271  43.836  22.809   2.320
83656W        W55272  12.078  21.513  11.174
83657W        W55273   5.279  35.054  10.627
83658W        W55274   8.672  22.600   0.968
83659W        W55275   8.876   3.643   3.775
83660W        W55276  20.210   0.845   3.062
83661W        W55277  10.269  30.205  10.700
83662W        W55278  12.142  21.625   1.314
83663W        W55279   8.358  32.166   0.796
83664W        W55280  24.282   2.491   3.651
83665W        W55281  44.841  32.515  10.511
83666W        W55282  43.032  42.910   1.508
83667W        W55283  23.447   6.441   3.275
83668W        W55284  42.302  19.156   2.149
83669W        W55285  13.224  27.653   2.139
83670W        W55286  38.571   1.111  14.862
83671W        W55287  28.126  42.976  11.137
83672W        W55288  28.962  22.984   3.623
83673W        W55289  36.326  38.138  13.355
83674W        W55290  33.324  26.627  11.846
83675W        W55291  29.690   3.258   2.348
83676W        W55292   8.574   7.850  12.497
83677W        W55293  44.921  27.946  13.494
83678W        W55294  36.958  26.558  13.436
83679W        W55295  35.132  31.570   3.869
83680W        W55296  42.559  29.645   4.187
83681W        W55297  19.889  31.276  10.675
83682W        W55298  36.411   8.113   3.673
83683W        W55299  16.183  29.888   3.866
83684W        W55300  10.134   2.868  10.043
83685W        W55301  22.145   9.659   0.121
83686W        W55302  41.027   3.525  14.247
83687W        W55303   8.685  23.391   2.792
83688W        W55304  36.370  14.531   3.364
83689W        W55305  25.207  37.506  12.432
83690W        W55306  41.054  29.555  14.750
83691W        W55307   4.276   0.556   0.571
83692W        W55308  17.059  30.160  10.482
83693W        W55309  19.085  10.392   0.751
83694W        W55310  22.484   8.221  14.568
83695W        W55311  37.058  43.811  12.882
83696W        W55312  16.854  39.463  12.467
83697W        W55313  29.516  15.795   1.329
83698W        W55314  10.605  38.973  12.847
83699W        W55315  19.668  31.766  11.477
83700W        W55316  27.651  35.538   2.089
83701W        W55317  19.684  15.230  12.731
83702W        W55318  25.554  24.732  11.744
83703W        W55319  16.496  33.222  14.488
83704W        W55320  19.541   5.977   3.657
83705W        W55321  18.350  30.436  10.771
83706W        W55322   1.961  22.157  11.141
83707W        W55323  26.025  33.938   3.986
83708W        W55324  22.089  10.916   1.355
83709W        W55325  33.161   6.175  13.577
83710W        W55326  23.832  30.392   0.932
83711W        W55327  35.799  29.023   1.688
83712W        W55328  43.754  12.474  14.391
83713W        W55329  28.007  12.856   1.274
83714W        W55330  11.209  27.130   0.307
83715W        W55331  22.650  27.628   3.725
83716W        W55332  23.425  31.855  11.804
83717W        W55333  25.473  20.987   1.224
83718W        W55334   0.035  26.003   1.819
83719W        W55335  22.588  19.988  14.733
83720W        W55336   4.313   3.630  11.231
83721W        W55337   9.216  39.293  10.631
83722W        W55338  30.400  13.265  13.579
83723W        W55339  25.985  21.631   2.471
83724W        W55340  22.129  24.506   4.323
83725W        W55341  17.535  26.662  12.486
83726W        W55342   0.899  28.739  10.862
83727W        W55343  35.313  13.644   3.240
83728W        W55344  29.928  34.516  13.971
83729W        W55345   6.217  43.807  12.552
83730W        W55346  30.025   3.831   1.706
83731W        W55347  30.640   9.819  12.580
83732W        W55348  43.443  19.674   2.137
83733W        W55349  38.954   4.274  12.927
83734W        W55350  40.308   9.201   1.403
83735W        W55351   1.291  36.104  10.897
83736W        W55352  41.424  40.739   2.705
83737W        W55353  22.548  12.367   0.872
83738W        W55354  22.810  39.155   4.482
83739W        W55355   6.771  11.575  13.696
83740W        W55356  35.539  30.850   3.247
83741W        W55357  33.386  16.791  12.105
83742W        W55358  32.383   2.548  13.444
83743W        W55359  10.672   2.604   1.878
83744W        W55360   7.665  34.898  13.566
83745W        W55361  18.525  40.024   3.356
83746W        W55362   1.491  40.760   0.942
83747W        W55363   2.714  30.113  11.740
83748W        W55364  16.331  21.519   2.755
83749W        W55365   3.226  31.530   4.841
83750W        W55366  35.928   4.712   0.047
83751W        W55367  30.325  26.976  13.851
83752W        W55368  30.399  36.903   2.747
83753W        W55369  37.433  10.147   5.121
83754W        W55370  12.811  42.612   2.348
83755W        W55371   6.891  19.105   3.215
83756W        W55372  20.600   1.169  11.595
83757W        W55373  40.769  16.077   0.790
83758W        W55374   2.189  30.525   4.626
83759W        W55375  18.751  25.526  10.647
83760W        W55376   9.184  32.341   3.330
83761W        W55377  20.873  12.366   2.294
83762W        W55378   3.377  13.794  11.481
83763W        W55379  36.919  29.565  11.165
83764W        W55380  10.173   5.776  12.995
83765W        W55381   7.442  23.924  11.194
83766W        W55382  24.384  35.542  10.784
83767W        W55383  15.224  23.026   0.948
83768W        W55384  16.074   2.447  14.840
83769W        W55385  28.674   6.227   0.324
83770W        W55386  37.604  29.939   2.414
83771W        W55387  11.844  20.306   3.288
83772W        W55388  12.936  15.377  13.490
83773W        W55389   8.946   6.923  13.903
83774W        W55390  29.361  23.609  12.987
83775W        W55391  12.796  31.523  12.453
83776W        W55392  38.077   9.847  12.045
83777W        W55393  28.657  32.524  11.652
83778W        W55394  19.846  19.861   4.250
83779W        W55395  15.633  17.586  11.613
83780W        W55396  21.274  29.217  11.401
83781W        W55397  33.408  27.742   0.378
83782W        W55398   5.027  43.106  13.114
83783W        W55399   9.106  20.332  14.377
83784W        W55400  27.162  21.116   3.908
83785W        W55401  25.133  26.856   4.129
83786W        W55402  18.826  24.066  11.865
83787W        W55403   3.396   7.074  12.892
83788W        W55404  27.171   7.946  11.484
83789W        W55405  10.221  36.900  14.565
83790W        W55406  38.435  18.023   1.490
83791W        W55407  44.621  33.817  12.922
83792W        W55408  17.582  18.306  13.026
83793W        W55409  25.090  44.207   2.555
83794W        W55410   5.761  15.573   3.601
83795W        W55411  16.176  42.312  12.177
83796W        W55412  32.224  27.842   9.530
83797W        W55413  13.619  30.633  11.076
83798W        W55414   0.106  10.860  12.602
83799W        W55415  28.586  30.394  11.013
83800W        W55416  37.347  24.913  12.896
83801W        W55417  24.746  44.197  11.536
83802W        W55418   6.680  21.236  14.015
83803W        W55419   9.699  41.018  13.441
83804W        W55420  31.589  10.119  10.303
83805W        W55421   7.679  43.008  12.495
83806W        W55422   9.714  25.434  12.480
83807W        W55423  21.184  24.907   3.723
83808W        W55424  34.422  26.873   2.231
83809W        W55425  25.887   2.346  10.662
83810W        W55426  19.810   1.059   2.823
83811W        W55427  18.615   7.719  14.407
83812W        W55428  36.317  26.480   1.813
83813W        W55429  26.969  40.044   3.852
83814W        W55430   6.163  39.938   3.554
83815W        W55431  38.441  42.017   1.201
83816W        W55432  19.664  17.564   0.031
83817W        W55433  10.685  11.496  12.437
83818W        W55434  21.628   4.010  10.676
83819W        W55435  13.996  13.318   1.511
83820W        W55436  26.517  33.417   1.393
83821W        W55437  40.989   5.504  11.505
83822W        W55438  39.266  26.004   0.842
83823W        W55439   0.313  13.569  14.660
83824W        W55440  39.491   2.968   0.729
83825W        W55441  23.745  44.463  13.318
83826W        W55442  19.079  44.493   3.656
83827W        W55443  43.760  34.843  11.622
83828W        W55444  15.589   9.067  13.530
83829W        W55445  26.376  44.737   3.230
83830W        W55446  29.039   0.813   1.944
83831W        W55447  41.890  18.759  11.209
83832W        W55448  30.290  18.566  13.500
83833W        W55449   3.718  33.100   4.693
83834W        W55450  19.709   6.744  11.716
83835W        W55451  22.527   2.991   4.647
83836W        W55452  20.990  42.406  11.254
83837W        W55453  34.870  23.500  12.484
83838W        W55454  32.979  15.566   0.470
83839W        W55455  26.421   8.798  12.349
83840W        W55456  38.486  29.693  12.454
83841W        W55457  41.309  19.211  11.533
83842W        W55458  37.518   1.334   3.119
83843W        W55459  13.855  28.182  13.919
83844W        W55460  13.534  30.173  13.340
83845W        W55461   9.323  24.106  14.220
83846W        W55462   6.175  22.566  11.192
83847W        W55463  25.783  14.282   4.210
83848W        W55464  39.066   5.891   4.110
83849W        W55465  30.023  10.820   3.187
83850W        W55466  19.453  19.576   1.415
83851W        W55467  10.444  23.584  13.097
83852W        W55468  40.399  36.094   3.311
83853W        W55469  31.857  44.354   1.759
83854W        W55470  22.569  21.237   4.581
83855W        W55471  28.610  36.068  14.237
83856W        W55472  25.075  19.770   0.974
83857W        W55473   5.208  32.176   4.111
83858W        W55474  32.419  10.723   0.435
83859W        W55475  13.396  40.892   3.107
83860W        W55476  15.092   2.756  11.594
83861W        W55477  12.641   3.341   4.848
83862W        W55478  43.764  38.162   0.222
83863W        W55479  41.905  40.768  12.828
83864W        W55480  31.914  10.278   3.585
83865W        W55481  12.631  27.004   1.213
83866W        W55482  13.082  39.536   3.617
83867W        W55483   9.873   6.541   2.795
83868W        W55484  18.578  39.933  10.539
83869W        W55485  29.604  43.581  12.817
83870W        W55486  39.459  42.891  13.917
83871W        W55487  22.035   3.022   2.122
83872W        W55488  17.311  11.342   0.495
83873W        W55489  44.322   4.503  12.191
83874W        W55490  14.122  35.660  13.401
83875W        W55491  12.341   4.884   4.646
83876W        W55492   6.277   9.726  12.045
83877W        W55493  10.870  29.662   3.227
83878W        W55494   5.544  23.921  11.063
83879W        W55495  31.672   2.506   1.635
83880W        W55496   9.109  20.375  12.341
83881W        W55497  21.628  18.182  14.877
83882W        W55498  18.654  41.756  13.727
83883W        W55499  32.448  27.737   0.273
83884W        W55500  22.037  19.607  12.452
83885W        W55501  36.407  27.403  12.664
83886W        W55502   3.966  38.816  12.431
83887W        W55503  42.983  15.689  10.241
83888W        W55504   5.220  42.944  10.974
83889W        W55505  21.155  42.378   2.806
83890W        W55506   4.484   3.600  13.108
83891W        W55507  38.641  41.790   0.762
83892W        W55508  41.488   2.040   0.310
83893W        W55509  29.503  16.788  10.968
83894W        W55510  14.332  24.069  10.611
83895W        W55511  27.033  27.709  14.841
83896W        W55512  22.185  34.052   2.651
83897W        W55513  34.654  25.131  11.588
83898W        W55514  17.665  23.652  10.755
83899W        W55515  35.377  31.218   3.601
83900W        W55516  20.681  26.949   2.484
83901W        W55517   8.052   1.832  10.283
83902W        W55518   4.288   9.182   4.207
83903W        W55519   4.788  41.489   4.612
83904W        W55520   4.810  11.608  12.528
83905W        W55521  12.428  35.496   0.671
83906W        W55522  15.818  43.886   2.758
83907W        W55523  19.113  27.626  12.372
83908W        W55524  42.968  17.848  13.573
83909W        W55525  33.351   9.674   2.668
83910W        W55526  13.083   4.452  13.483
83911W        W55527  31.907   2.728   4.612
83912W        W55528   6.361  11.749   3.578
83913W        W55529  35.537   3.912  14.001
83914W        W55530  42.950   4.534  13.942
83915W        W55531  37.906  37.339   3.601
83916W        W55532   9.836   9.577   0.831
83917W        W55533  43.501   5.401  13.028
83918W        W55534  38.192  25.104  12.865
83919W        W55535  30.088  33.533   3.789
83920W        W55536  14.056  30.605  11.837
83921W        W55537  20.707  43.205  13.416
83922W        W55538  39.265  25.105  12.474
83923W        W55539   4.451  18.060   1.817
83924W        W55540  21.620  21.705  14.053
83925W        W55541  34.597   7.787  14.091
83926W        W55542  28.146   2.944  12.897
83927W        W55543  26.470  18.875   0.351
83928W        W55544   6.743  24.904  13.621
83929W        W55545   8.253  21.209   3.290
83930W        W55546   2.951   1.817   0.861
83931W        W55547  11.053   1.708  14.544
83932W        W55548   0.429  35.399  10.545
83933W        W55549  34.539  16.349  12.226
83934W        W55550  36.875  10.606   0.812
83935W        W55551  23.510  26.105   4.375
83936W        W55552   2.567  44.998   4.642
83937W        W55553  14.604  33.489  11.436
83938W        W55554  22.825  13.319   1.925
83939W        W55555  15.183  23.039  11.066
83940W        W55556  30.619  19.752  12.955
83941W        W55557  13.601  15.066   0.001
83942W        W55558  27.297  28.382   0.949
83943W        W55559  18.802  17.490  11.413
83944W        W55560   0.095   8.682  13.003
83945W        W55561  15.050  39.050   4.217
83946W        W55562   7.909  33.133  12.930
83947W        W55563  37.414  33.586   0.350
83948W        W55564   8.568   2.318  14.299
83949W        W55565  31.173  23.785   0.416
83950W        W55566   8.845   1.343   1.969
83951W        W55567  17.170  15.103  11.041
83952W        W55568  43.035  31.473   2.306
83953W        W55569  36.538  19.389  14.922
83954W        W55570  15.226  40.278  12.828
83955W        W55571  16.842  24.183   3.172
83956W        W55572  42.058  25.633   2.680
83957W        W55573  10.342  35.057   1.486
83958W        W55574  29.692   8.257  10.555
83959W        W55575  21.317  28.656   1.876
83960W        W55576  16.125   1.457  13.054
83961W        W55577  28.195  36.897  11.762
83962W        W55578   2.913  11.728   1.775
83963W        W55579  36.546  35.654   0.803
83964W        W55580  37.085  15.320   0.231
83965W        W55581  24.538   6.239   0.801
83966W        W55582  18.307   1.211  14.271
83967W        W55583  32.937  12.611   0.866
83968W        W55584  24.031  35.913  13.337
83969W        W55585  41.493  13.342   3.710
83970W        W55586  21.787  38.628   3.650
83971W        W55587  31.592  32.978  13.095
83972W        W55588  43.234  38.788   3.316
83973W        W55589  14.296   8.331  14.784
83974W        W55590  36.925  16.419  11.586
83975W        W55591  33.970  33.061   2.590
83976W        W55592  25.579  40.180  13.252
83977W        W55593  25.284   7.311  13.781
83978W        W55594  40.258   1.948  13.037
83979W        W55595   5.393  23.025  11.034
83980W        W55596  13.584  15.744   2.795
83981W        W55597  13.160  29.040   1.948
83982W        W55598  38.082  34.807  11.943
83983W        W55599  11.224   3.766   0.451
83984W        W55600  17.974  29.645   3.684
83985W        W55601  26.083  37.612   1.227
83986W        W55602  13.686  31.526   4.892
83987W        W55603  25.504  40.363  13.750
83988W        W55604   7.397  42.451  11.585
83989W        W55605  15.329  11.115  11.481
83990W        W55606  34.551   7.655  14.587
83991W        W55607   4.243  11.612  12.490
83992W        W55608  28.942   2.942  12.458
83993W        W55609  35.346  27.414   2.948
83994W        W55610  21.221  14.420  13.331
83995W        W55611  40.101  20.788  14.295
83996W        W55612  36.895  32.190   3.239
83997W        W55613  23.437  33.962  12.627
83998W        W55614  26.519  15.390  11.983
83999W        W55615   5.618  17.165  12.289
84000W        W55616   3.928  20.655  12.489
84001W        W55617  24.331  18.109  11.894
84002W        W55618  30.762   2.718   2.213
84003W        W55619  18.676  29.811   3.172
84004W        W55620  42.452  12.694  14.689
84005W        W55621   6.874   6.052   1.935
84006W        W55622  32.008  24.556   2.855
84007W        W55623  17.284  23.249  12.353
84008W        W55624  44.526  34.584  14.292
84009W        W55625   3.833  11.109  14.517
84010W        W55626   4.725   6.987   3.702
84011W        W55627  24.584  14.636   3.629
84012W        W55628  41.810  14.173   1.330
84013W        W55629  36.689  10.508   1.692
84014W        W55630  32.798   9.169  14.134
84015W        W55631   2.240  25.027   3.119
84016W        W55632  32.647  17.858   1.786
84017W        W55633  40.573  29.519   1.888
84018W        W55634  26.251  20.661  14.013
84019W        W55635  17.240  39.427   0.059
84020W        W55636   8.702  19.743  11.105
84021W        W55637  34.077   4.687   0.514
84022W        W55638   4.369   1.876  13.820
84023W        W55639  43.831   5.492   2.786
84024W        W55640   6.271  24.444   3.588
84025W        W55641  35.639  25.738  14.610
84026W        W55642  12.802  43.809   3.192
84027W        W55643  38.208  16.632   3.706
84028W        W55644  25.236  20.059   3.285
84029W        W55645  34.061   8.069   1.329
84030W        W55646  15.566  34.719  11.913
84031W        W55647  17.785  23.944   1.361
84032W        W55648   3.244  32.140   1.840
84033W        W55649  26.623  43.914  14.654
84034W        W55650  40.561  18.415   2.262
84035W        W55651  39.121  10.572  13.018
84036W        W55652   5.281   2.357   4.260
84037W        W55653  10.368  33.056  10.959
84038W        W55654   1.877   3.264   3.135
84039W        W55655  28.186  35.963  12.380
84040W        W55656  14.845  40.047  13.945
84041W        W55657  40.035  14.848   3.261
84042W        W55658   2.875   6.152   2.297
84043W        W55659  24.466  35.901   1.868
84044W        W55660  42.739  24.839  12.506
84045W        W55661  42.780  27.425  12.080
84046W        W55662  11.741   2.528  14.232
84047W        W55663  43.940  19.782   3.787
84048W        W55664  31.545  38.156   4.736
84049W        W55665  37.460  43.017   1.618
84050W        W55666  11.149  27.073  13.967
84051W        W55667   3.220   2.230   0.313
84052W        W55668  19.054  20.109  13.979
84053W        W55669  32.414  37.417  12.190
84054W        W55670  18.615   6.472  13.843
84055W        W55671  37.292  37.404  12.993
84056W        W55672  36.550  17.275  12.592
84057W        W55673  10.612  18.074  13.960
84058W        W55674  41.244   3.486   4.989
84059W        W55675  26.093   0.559  13.957
84060W        W55676  15.702  26.270   0.447
84061W        W55677  12.344  29.244  14.565
84062W        W55678  30.576  42.785  13.732
84063W        W55679  24.009  34.338   3.318
84064W        W55680  41.505  17.277  14.148
84065W        W55681  28.397  15.784   3.736
84066W        W55682  23.860  37.108   2.806
84067W        W55683   8.986  25.102  12.925
84068W        W55684  35.055  41.488   3.239
84069W        W55685  26.768  19.931   1.721
84070W        W55686   3.912  43.168   3.938
84071W        W55687  26.026  14.602  13.512
84072W        W55688  43.118  21.506  13.908
84073W        W55689   9.340  11.180   2.645
84074W        W55690  43.294  30.116  10.589
84075W        W55691  21.150  14.609   0.389
84076W        W55692  25.022  26.960   1.273
84077W        W55693  30.448  29.481   0.978
84078W        W55694   0.842   1.687   2.329
84079W        W55695  26.119  10.109  13.814
84080W        W55696  42.905  38.315   0.842
84081W        W55697  41.034  25.068   3.867
84082W        W55698  44.007  32.682   4.166
84083W        W55699  41.063  23.805  14.474
84084W        W55700  42.691   8.724  13.771
84085W        W55701  24.638  14.854   2.244
84086W        W55702  32.353  40.225   2.748
84087W        W55703  29.382  22.885  14.031
84088W        W55704  18.653   9.298  14.544
84089W        W55705  28.128  31.969   3.605
84090W        W55706  14.516  21.731   4.563
84091W        W55707   9.354  30.099   3.376
84092W        W55708   3.462   8.691  14.420
84093W        W55709  38.560  39.542   0.056
84094W        W55710  17.632  40.981   0.185
84095W        W55711  13.932  33.971  13.894
84096W        W55712   0.055  13.916  12.145
84097W        W55713  33.624   3.696   2.380
84098W        W55714  10.140  27.142  13.645
84099W        W55715  13.836  40.830   4.474
84100W        W55716  10.860  21.764   4.624
84101W        W55717  18.994   8.284  11.033
84102W        W55718  21.663  35.422  10.913
84103W        W55719  10.667  19.087  10.556
84104W        W55720   4.416  12.343  14.548
84105W        W55721   3.655  43.050   4.693
84106W        W55722   1.328  37.813  11.692
84107W        W55723  35.929   0.412   1.787
84108W        W55724   7.293  35.280   0.830
84109W        W55725   8.493   9.431   2.146
84110W        W55726  32.451   3.164  11.593
84111W        W55727  35.426  28.665  11.403
84112W        W55728  14.838   6.696   0.410
84113W        W55729  29.546  44.394   1.295
84114W        W55730   0.003   9.834  11.427
84115W        W55731   2.499  26.183   2.252
84116W        W55732   7.089  20.686  12.856
84117W        W55733  26.928  16.350   4.132
84118W        W55734  31.877  18.291   3.937
84119W        W55735  14.828   7.012  10.951
84120W        W55736  38.887   8.432  14.872
84121W        W55737  21.231  29.432  14.956
84122W        W55738   9.827   6.916  12.962
84123W        W55739  10.005  12.706   4.142
84124W        W55740  32.471   4.690  11.575
84125W        W55741  36.029  21.961   2.940
84126W        W55742  25.082  34.645   4.535
84127W        W55743   8.393  18.782  11.909
84128W        W55744   2.269  10.337   4.767
84129W        W55745  11.360  26.240   2.070
84130W        W55746   4.442  42.694   4.102
84131W        W55747  15.597  18.078   5.608
84132W        W55748  19.499  21.312  12.091
84133W        W55749  20.971  23.224  14.401
84134W        W55750  43.790   2.863   0.599
84135W        W55751  44.426  38.070   4.112
84136W        W55752  25.095  30.639  14.225
84137W        W55753  19.309   0.897   2.837
84138W        W55754  28.920  14.861   0.189
84139W        W55755  10.685  14.094  12.954
84140W        W55756  39.937  10.313  11.129
84141W        W55757  22.287   6.579   2.353
84142W        W55758   4.299  30.567  13.350
84143W        W55759  16.707  34.532   0.298
84144W        W55760  23.725   5.186  12.003
84145W        W55761  31.494   5.810  13.985
84146W        W55762  38.406  18.124  10.792
84147W        W55763  25.015  32.574  13.446
84148W        W55764  34.984  25.679   4.274
84149W        W55765  41.699  12.330  12.449
84150W        W55766  42.268   5.002  12.892
84151W        W55767   6.690   6.722  10.770
84152W        W55768   9.334  36.855  10.606
84153W        W55769   2.915  24.574   4.681
84154W        W55770  12.953  21.570   3.609
84155W        W55771   3.418  26.913   3.300
84156W        W55772  33.087  19.234  11.689
84157W        W55773  44.495  11.506  11.895
84158W        W55774  10.520  23.912   1.273
84159W        W55775  12.297  36.860   2.335
84160W        W55776   7.851  19.513  14.417
84161W        W55777   1.016  37.393   1.006
84162W        W55778   0.448  38.016  11.165
84163W        W55779  11.916  19.948   2.874
84164W        W55780  17.601  32.181   3.692
84165W        W55781  39.959  32.416   9.830
84166W        W55782  32.317  23.553  10.394
84167W        W55783  42.266   8.835  10.630
84168W        W55784  10.772  43.466  11.386
84169W        W55785  11.970   2.087   1.257
84170W        W55786  18.384  16.170  12.647
84171W        W55787  19.613  20.458   3.686
84172W        W55788  10.389   1.765  11.904
84173W        W55789  28.623   3.212  12.810
84174W        W55790  37.961   7.518  12.415
84175W        W55791  36.105  22.281  11.132
84176W        W55792  25.011  28.566   2.884
84177W        W55793  18.255  16.855  11.948
84178W        W55794   5.551  22.340   0.827
84179W        W55795   6.206   8.337  14.662
84180W        W55796   5.439  38.590   3.197
84181W        W55797  23.660   8.746   0.131
84182W        W55798   5.357  38.417  14.423
84183W        W55799   0.693  16.706  12.935
84184W        W55800   1.982  20.183  11.213
84185W        W55801  15.648  32.724  10.670
84186W        W55802  20.577  21.754   2.748
84187W        W55803  24.770  28.574   1.904
84188W        W55804  15.909  14.438   3.209
84189W        W55805  13.338   9.925   2.771
84190W        W55806   3.333  35.977   1.686
84191W        W55807  22.005  25.275  10.717
84192W        W55808  20.682  33.468  13.403
84193W        W55809  20.105  16.426   3.825
84194W        W55810  33.578  43.389   4.349
84195W        W55811   0.197  43.182  12.971
84196W        W55812  31.579  42.024   1.765
84197W        W55813  27.745  43.264  12.950
84198W        W55814  10.111  20.582   1.462
84199W        W55815  38.971  27.105  12.598
84200W        W55816  29.410  37.582  12.012
84201W        W55817  20.946  29.965   3.157
84202W        W55818  11.346  41.314   0.518
84203W        W55819   8.598   2.857   0.480
84204W        W55820  43.486  40.272  13.996
84205W        W55821  36.220   3.476  14.342
84206W        W55822   3.426  35.022   0.780
84207W        W55823  43.005  29.100   1.013
84208W        W55824  37.253   2.889  13.194
84209W        W55825  42.360  29.066   2.190
84210W        W55826  10.072  24.182   5.036
84211W        W55827   3.313  13.321  10.609
84212W        W55828  37.661  11.367   3.618
84213W        W55829  28.427  25.506  11.136
84214W        W55830  27.661   9.909  12.546
84215W        W55831  33.618   8.842   3.111
84216W        W55832   2.892  24.075   2.817
84217W        W55833   9.753  14.539  14.036
84218W        W55834  40.763  19.603  10.743
84219W        W55835  44.819  26.166  12.128
84220W        W55836  34.397  37.561   2.219
84221W        W55837   6.599   5.802   4.611
84222W        W55838  39.894  18.031  12.432
84223W        W55839  42.545   4.389   4.295
84224W        W55840  31.470  23.158   1.579
84225W        W55841  14.580  40.420  11.064
84226W        W55842  24.679   2.086   4.203
84227W        W55843  38.992  44.712   4.677
84228W        W55844  29.310   0.776  11.414
84229W        W55845   0.536  20.750   0.925
84230W        W55846  39.241   3.332   0.399
84231W        W55847  14.471  21.607  13.265
84232W        W55848  36.774  35.401  12.140
84233W        W55849   4.884  28.982   0.670
84234W        W55850   9.806  14.346  11.868
84235W        W55851  31.082  26.160   5.040
84236W        W55852  27.540   6.366  10.967
84237W        W55853  27.239  24.168  12.866
84238W        W55854  12.673  32.410   3.678
84239W        W55855  44.752  22.755  10.810
84240W        W55856  31.638  32.766   3.744
84241W        W55857   0.065   3.305   4.051
84242W        W55858  34.637  11.645  11.508
84243W        W55859  25.964  37.026  10.631
84244W        W55860  11.814  10.688  10.448
84245W        W55861   0.179  24.624   1.775
84246W        W55862  24.495   6.789   2.498
84247W        W55863  10.292   2.291   1.692
84248W        W55864   3.291  27.906  13.823
84249W        W55865   8.331   0.529  11.107
84250W        W55866  30.925  40.813  10.790
84251W        W55867  44.217   7.397  12.484
84252W        W55868   4.172   7.004   3.446
84253W        W55869  42.371  40.912   1.211
84254W        W55870  14.325  20.636   0.713
84255W        W55871   2.745  29.443   0.863
84256W        W55872  13.327  39.051   2.085
84257W        W55873  30.051  44.153  11.484
84258W        W55874   6.366   0.757   1.016
84259W        W55875  12.550  19.341  11.429
84260W        W55876  36.460  35.012   1.397
84261W        W55877  20.539   5.451  12.585
84262W        W55878   6.407  41.030   0.247
84263W        W55879   1.851   6.399   1.508
84264W        W55880  43.263   0.857   0.884
84265W        W55881  18.238  42.480  11.135
84266W        W55882  29.206  14.294  11.554
84267W        W55883  20.148  12.475  12.127
84268W        W55884   1.201  38.577  12.013
84269W        W55885  11.310  11.543   4.818
84270W        W55886  31.161  13.088  12.878
84271W        W55887  38.604  37.857  13.079
84272W        W55888  36.120   9.286   0.362
84273W        W55889  27.659  22.613  11.693
84274W        W55890  27.056  43.484   2.954
84275W        W55891   9.503  13.273   4.694
84276W        W55892  15.110  13.341  14.788
84277W        W55893  35.313   0.865  14.814
84278W        W55894  32.676  24.672  12.174
84279W        W55895  22.407   0.800   4.984
84280W        W55896   8.749  33.669  10.669
84281W        W55897   9.843  27.167   2.103
84282W        W55898  28.958  36.653  11.160
84283W        W55899  13.689  35.975   4.178
84284W        W55900   9.897  17.113   4.683
84285W        W55901  39.778   6.435  13.491
84286W        W55902  38.473  39.737   2.399
84287W        W55903  19.258   2.347   2.156
84288W        W55904  42.874  12.223  11.598
84289W        W55905  40.304   8.803  11.932
84290W        W55906  12.032  38.498   1.354
84291W        W55907  29.368   5.417   0.300
84292W        W55908  32.472  43.294  11.991
84293W        W55909  30.917  30.400   0.470
84294W        W55910  16.595   8.731  13.089
84295W        W55911  16.815  39.396  10.864
84296W        W55912  32.850  14.810  13.078
84297W        W55913  41.850  26.512   0.049
84298W        W55914   3.516  20.944  14.263
84299W        W55915  18.336  11.642   3.193
84300W        W55916   1.230  34.031  13.061
84301W        W55917  28.461  11.778  10.678
84302W        W55918  41.436  33.567  13.689
84303W        W55919  14.099  12.827  13.763
84304W        W55920  38.120  22.756  11.518
84305W        W55921  25.514  19.672   9.913
84306W        W55922  39.764  27.291  14.736
84307W        W55923  32.645  35.034  13.796
84308W        W55924  27.101  43.355   1.978
84309W        W55925  38.811  35.682   1.678
84310W        W55926  31.008  33.668   0.832
84311W        W55927  26.750  35.953   1.967
84312W        W55928   9.326  36.025   1.257
84313W        W55929  30.023  26.430   1.441
84314W        W55930  33.060  43.441  11.193
84315W        W55931  13.248  44.920   3.096
84316W        W55932  17.323  40.991  13.318
84317W        W55933  14.673  20.586   0.242
84318W        W55934  16.238  34.988  13.401
84319W        W55935   8.655  39.562   0.103
84320W        W55936  41.893  27.900   3.216
84321W        W55937   6.199  30.646   5.042
84322W        W55938  29.517  30.400  14.541
84323W        W55939  31.068  23.181  12.341
84324W        W55940  38.395   8.495  14.312
84325W        W55941  13.284  11.266   4.684
84326W        W55942  23.945   8.255   4.249
84327W        W55943  19.078  20.118  11.979
84328W        W55944   8.374   8.173   3.597
84329W        W55945  30.688  17.980   1.110
84330W        W55946  20.492   1.637  13.040
84331W        W55947   7.487  29.687   3.642
84332W        W55948   4.287  41.607   4.721
84333W        W55949  21.002  24.665   4.980
84334W        W55950  11.347   0.940   3.877
84335W        W55951  15.567  17.793   4.701
84336W        W55952  25.097  38.466  14.426
84337W        W55953  41.873  27.930   1.822
84338W        W55954   4.207  22.755   4.661
84339W        W55955  22.067   3.819   0.464
84340W        W55956  24.877  38.611  11.558
84341W        W55957   5.941  43.754  13.003
84342W        W55958  27.023  38.235  12.178
84343W        W55959  26.686  32.201   1.778
84344W        W55960  21.641  30.854  12.659
84345W        W55961  30.108   4.086   0.210
84346W        W55962  33.095  41.499   0.889
84347W        W55963  28.781   9.102   1.376
84348W        W55964  10.072  28.358  14.849
84349W        W55965  14.221  29.153  12.869
84350W        W55966   9.093  11.204   2.187
84351W        W55967  40.908  21.311   2.346
84352W        W55968  42.955  36.470   2.850
84353W        W55969  40.371  38.554   3.069
84354W        W55970  21.067  12.284   0.973
84355W        W55971  16.560   4.785   1.091
84356W        W55972  39.282  31.948   0.264
84357W        W55973  44.250  30.637   0.461
84358W        W55974  44.713  39.849  13.588
84359W        W55975  27.212  37.221   4.135
84360W        W55976  34.622   2.862   3.807
84361W        W55977   7.068   3.220  13.411
84362W        W55978  25.084  36.947  12.317
84363W        W55979  23.817  15.701  14.449
84364W        W55980  36.324  24.035   3.841
84365W        W55981   9.482  11.326   4.531
84366W        W55982   1.787  12.675   0.224
84367W        W55983  32.415  19.780  10.413
84368W        W55984  36.810  19.188  14.498
84369W        W55985  38.460   9.659  14.845
84370W        W55986  22.351  21.922  14.025
84371W        W55987  11.899   1.873   1.831
84372W        W55988  15.019  41.507   2.700
84373W        W55989  44.255   3.879   1.088
84374W        W55990  10.059  15.093  12.928
84375W        W55991  16.843  18.290  14.411
84376W        W55992  18.183  43.367  11.157
84377W        W55993  41.494  15.171  12.512
84378W        W55994   1.172  22.735   1.837
84379W        W55995  23.100   1.376  11.413
84380W        W55996  33.648  18.121  11.487
84381W        W55997   5.186  32.177   2.780
84382W        W55998  12.868  43.906  12.550
84383W        W55999   4.608  30.841  12.377
84384W        W56000  33.928   8.048  13.585
84385W        W56001  24.511  17.601   1.738
84386W        W56002  33.914  19.080   0.845
84387W        W56003  38.543  22.151   2.875
84388W        W56004  12.346  43.947  12.583
84389W        W56005  30.442  23.072   4.829
84390W        W56006  11.708  17.091  10.713
84391W        W56007  12.951  38.294   3.702
84392W        W56008  38.571  20.936  13.739
84393W        W56009   7.323  32.207  11.168
84394W        W56010  26.924  10.604   4.569
84395W        W56011  33.462  33.128   4.988
84396W        W56012  16.864   2.534  14.375
84397W        W56013   8.905  24.553   1.872
84398W        W56014  34.182  16.875  11.501
84399W        W56015  18.754   3.803  14.443
84400W        W56016   5.493  10.993  11.950
84401W        W56017  39.890   6.397   0.442
84402W        W56018   0.316   0.368   2.694
84403W        W56019  42.209  10.582   3.313
84404W        W56020  29.424  31.242  14.203
84405W        W56021  16.905  32.417   0.774
84406W        W56022  12.828  20.171  11.331
84407W        W56023  19.892  10.225   2.882
84408W        W56024  20.199  41.166   2.690
84409W        W56025  16.525   5.488  14.552
84410W        W56026  41.012   7.813  12.148
84411W        W56027  33.022  20.984   0.825
84412W        W56028   2.950   9.780  12.863
84413W        W56029  21.911   1.805  12.111
84414W        W56030  27.513  15.846   1.881
84415W        W56031  36.855  21.361  13.988
84416W        W56032  32.362  43.902  11.719
84417W        W56033   9.112  12.671  10.620
84418W        W56034  21.752  35.465  11.416
84419W        W56035  32.165  36.528  12.560
84420W        W56036   2.250  18.539  13.781
84421W        W56037  36.410  41.044   1.367
84422W        W56038  32.304  17.385  12.376
84423W        W56039  13.813  14.602   1.453
84424W        W56040  29.460  11.581   4.498
84425W        W56041  35.529   5.692   2.372
84426W        W56042  38.971  13.630  10.559
84427W        W56043  34.242   8.128   4.321
84428W        W56044  13.177  28.526  11.826
84429W        W56045  40.593  17.893   4.542
84430W        W56046  35.784   2.934   3.848
84431W        W56047  36.059  43.857   1.183
84432W        W56048  31.397   3.314   3.371
84433W        W56049   2.704  24.905  11.007
84434W        W56050  13.497  34.018  14.201
84435W        W56051  11.181  25.780   2.293
84436W        W56052  13.740   7.475   4.267
84437W        W56053  25.741  33.011   2.233
84438W        W56054  25.192  41.896  11.828
84439W        W56055   9.814   0.069   0.431
84440W        W56056  12.917  28.825   0.003
84441W        W56057  12.661   4.867   3.274
84442W        W56058   5.282  15.229   2.308
84443W        W56059  21.725  39.986   4.760
84444W        W56060  19.754  30.587  12.995
84445W        W56061  23.958   6.007  14.936
84446W        W56062   0.931  21.077   1.742
84447W        W56063  24.015  27.559   2.865
84448W        W56064  38.095  14.041   3.763
84449W        W56065   4.818  32.896  12.031
84450W        W56066   4.755   3.587   4.206
84451W        W56067   2.347  38.785   1.503
84452W        W56068   6.620  29.456  10.647
84453W        W56069  20.414   8.567  12.867
84454W        W56070   7.870  27.941  13.056
84455W        W56071  18.962  40.195   3.597
84456W        W56072  16.557   7.762  14.941
84457W        W56073  18.242  37.847   1.925
84458W        W56074  37.114  38.027   2.385
84459W        W56075  31.178   9.736   3.772
84460W        W56076  15.223  14.750   4.630
84461W        W56077   5.372  10.870   1.786
84462W        W56078  42.701  29.537  13.603
84463W        W56079  37.100  15.499  11.156
84464W        W56080  30.497  12.721  12.915
84465W        W56081   9.356   3.245   0.231
84466W        W56082  11.692  32.656   2.666
84467W        W56083  43.818  18.948  12.970
84468W        W56084  27.540  29.458  11.141
84469W        W56085  22.654   0.307  13.344
84470W        W56086   4.711  26.748   0.593
84471W        W56087  12.331  42.592   3.302
84472W        W56088   5.489  40.953  13.163
84473W        W56089  32.024  32.378  12.561
84474W        W56090   7.082  24.858  11.064
84475W        W56091  17.271   5.368   4.822
84476W        W56092  11.748   7.725   1.086
84477W        W56093  25.256  32.453   0.513
84478W        W56094  14.695  11.350   2.355
84479W        W56095  35.567   2.873   0.380
84480W        W56096  44.041  33.139   4.392
84481W        W56097   3.894  26.424   1.215
84482W        W56098  10.154   1.194   1.812
84483W        W56099  21.244  11.010   3.625
84484W        W56100  24.112  37.559   4.528
84485W        W56101  19.614   7.062  12.581
84486W        W56102  25.477  20.703   0.800
84487W        W56103   1.408  25.039   4.407
84488W        W56104  38.476  11.624  11.138
84489W        W56105  34.518  12.170  14.533
84490W        W56106  40.457   9.627  11.476
84491W        W56107  26.229  37.335  10.308
84492W        W56108  35.313  21.424  12.037
84493W        W56109   1.189  43.354  12.148
84494W        W56110  13.553  29.020  10.739
84495W        W56111  18.831  36.708  11.995
84496W        W56112  29.906  18.512  11.451
84497W        W56113  19.788  22.658   3.617
84498W        W56114  42.608  35.530   4.928
84499W        W56115  30.351  25.199  11.113
84500W        W56116   4.934  11.292  13.519
84501W        W56117  40.995  14.547  13.493
84502W        W56118  44.942  10.163  10.608
84503W        W56119  29.020   4.029  12.344
84504W        W56120   0.974  19.619  11.602
84505W        W56121  15.831  25.138  13.645
84506W        W56122  16.989  28.476  13.485
84507W        W56123   0.921  44.781   2.231
84508W        W56124  17.809  27.400  13.831
84509W        W56125  26.570  32.197   0.295
84510W        W56126  20.850  32.414  12.404
84511W        W56127  40.390  37.437  13.827
84512W        W56128  23.160   5.709   3.634
84513W        W56129  41.873  16.471   3.643
84514W        W56130  18.484  21.635   1.757
84515W        W56131  10.324  27.023   2.933
84516W        W56132  15.172  41.987  13.168
84517W        W56133  31.914  14.657  11.617
84518W        W56134  15.608  13.640  12.462
84519W        W56135  34.551   2.971  10.951
84520W        W56136  14.076  36.363  14.205
84521W        W56137   8.554  36.033   0.550
84522W        W56138  40.139  35.488  11.106
84523W        W56139   4.422   5.615   0.412
84524W        W56140   7.615  18.165  12.620
84525W        W56141  17.827  17.346  13.268
84526W        W56142  13.874  41.848  13.739
84527W        W56143  32.661  40.804  14.245
84528W        W56144   9.833  11.340  11.950
84529W        W56145  42.844  41.999   1.589
84530W        W56146  32.345  31.956  13.980
84531W        W56147  31.641   3.581  14.036
84532W        W56148  39.964  17.696   2.797
84533W        W56149   3.355  39.568   1.855
84534W        W56150  35.957   9.637   4.113
84535W        W56151  10.158  36.109   0.269
84536W        W56152  25.625  18.256   4.194
84537W        W56153   2.354  23.048  11.271
84538W        W56154  21.689  21.811   0.522
84539W        W56155  24.059  18.677  12.531
84540W        W56156  37.827  24.726  12.846
84541W        W56157  35.477  10.772  12.772
84542W        W56158  28.422  14.290   2.280
84543W        W56159  34.513  42.966  12.610
84544W        W56160  44.527   2.183   2.076
84545W        W56161  17.071  20.746  12.200
84546W        W56162  10.691  36.375   0.370
84547W        W56163  24.476  18.972  14.175
84548W        W56164  26.092  20.713   1.667
84549W        W56165   5.351  23.687  11.877
84550W        W56166  10.758  18.556   1.727
84551W        W56167  30.096  11.871  14.274
84552W        W56168  30.859  33.161   0.889
84553W        W56169   0.056   6.374  13.097
84554W        W56170  36.847  33.597  14.840
84555W        W56171  44.714  43.382  12.940
84556W        W56172  37.731  15.259   0.011
84557W        W56173   8.652   5.889   2.391
84558W        W56174  16.661  35.037  14.528
84559W        W56175  22.791   5.300   1.316
84560W        W56176  20.056  18.609   0.149
84561W        W56177  10.888  17.248   4.447
84562W        W56178  36.093  24.979   4.107
84563W        W56179  24.357  25.396   0.426
84564W        W56180  15.530  39.458   2.812
84565W        W56181  33.665  39.901   2.902
84566W        W56182  23.108   5.350   4.920
84567W        W56183  11.506  20.823  12.471
84568W        W56184  14.316  43.524   2.091
84569W        W56185  34.250  37.283  11.342
84570W        W56186  27.000  33.491  13.467
84571W        W56187  17.084  35.419   3.718
84572W        W56188  20.544  43.257   0.952
84573W        W56189  21.101   3.239   1.259
84574W        W56190  27.084  32.349   4.472
84575W        W56191   4.899  41.587   5.103
84576W        W56192   9.980  36.055  10.034
84577W        W56193  21.747  12.374   3.248
84578W        W56194  21.109  28.103   3.223
84579W        W56195  37.036  26.084  11.250
84580W        W56196  39.305  35.054  13.554
84581W        W56197  24.655  27.778   3.072
84582W        W56198   0.437  10.479   1.859
84583W        W56199   7.269  40.902  14.851
84584W        W56200  43.195   9.667  12.036
84585W        W56201  37.410  20.685   3.337
84586W        W56202  40.812  25.204  12.520
84587W        W56203   1.925  33.237  11.151
84588W        W56204  30.417   4.741  10.612
84589W        W56205  23.517  37.501  12.456
84590W        W56206  27.697  14.791   2.155
84591W        W56207  43.919   4.472  10.771
84592W        W56208  27.477  17.740  11.535
84593W        W56209  18.190   1.339  10.726
84594W        W56210  42.949  31.477   1.337
84595W        W56211  14.092  13.713  12.503
84596W        W56212  34.108   4.114  11.483
84597W        W56213  22.173  38.368   3.388
84598W        W56214  10.150   8.402  14.863
84599W        W56215  10.082   5.423  10.798
84600W        W56216  14.561   6.861   0.907
84601W        W56217  27.927  42.083   4.126
84602W        W56218  31.816  43.879   2.081
84603W        W56219   4.208  25.848   3.897
84604W        W56220  30.554   0.860   4.496
84605W        W56221  20.301   9.715  11.177
84606W        W56222  12.929  38.986  10.731
84607W        W56223   7.455   1.963   3.731
84608W        W56224  26.135  25.436   4.386
84609W        W56225  33.859  32.155   2.672
84610W        W56226  19.917  43.024   0.360
84611W        W56227  23.476   9.693  13.139
84612W        W56228  10.499  22.584   2.192
84613W        W56229  39.107  13.139   9.693
84614W        W56230  31.207  28.879  10.330
84615W        W56231   5.194  10.380   1.628
84616W        W56232   8.591   3.515   4.196
84617W        W56233   3.282  19.734   2.156
84618W        W56234  44.617  35.270   5.188
84619W        W56235  30.483  18.955  14.975
84620W        W56236   3.786  40.917  11.683
84621W        W56237  13.009  41.053  12.615
84622W        W56238  13.715  12.838   0.437
84623W        W56239  19.093  10.913   3.459
84624W        W56240  10.716  12.218  12.387
84625W        W56241  17.303  37.988  13.444
84626W        W56242  24.189  15.618  12.503
84627W        W56243  17.226  25.970   2.073
84628W        W56244  29.998  13.653  12.978
84629W        W56245   2.409   9.804  12.086
84630W        W56246  35.055  39.339   2.632
84631W        W56247  42.871   8.353  13.046
84632W        W56248   2.189  25.121   0.327
84633W        W56249  15.197  36.422   4.733
84634W        W56250  26.003  30.929  14.342
84635W        W56251  35.513   6.210  13.169
84636W        W56252  17.982  32.419   0.828
84637W        W56253   2.220  39.706   0.522
84638W        W56254  39.930  15.833   1.719
84639W        W56255  32.136  25.077  12.879
84640W        W56256  37.815  23.953   1.366
84641W        W56257   7.475  19.039  12.447
84642W        W56258  28.522  22.239   3.168
84643W        W56259  39.487  24.625  12.558
84644W        W56260   4.358  14.011   1.813
84645W        W56261  39.071   7.333  12.798
84646W        W56262  22.501  33.181  14.156
84647W        W56263  28.606   4.686  10.889
84648W        W56264  42.797  30.071  10.725
84649W        W56265  34.526  27.696   3.815
84650W        W56266  24.229  34.077   4.601
84651W        W56267  35.414  36.061  11.069
84652W        W56268  23.284  17.258   0.352
84653W        W56269  10.219  31.496  13.922
84654W        W56270  41.816  22.796  11.109
84655W        W56271  30.836   3.179   1.812
84656W        W56272  30.640   0.451  10.400
84657W        W56273  28.064   7.698   3.512
84658W        W56274  32.870  14.197  11.594
84659W        W56275  13.997  23.007   4.117
84660W        W56276  11.537  22.106   0.866
84661W        W56277  13.202  33.515  11.753
84662W        W56278  33.443  42.211   0.355
84663W        W56279   3.881  31.963  14.447
84664W        W56280  22.430  12.784  14.155
84665W        W56281  32.649  41.969   0.377
84666W        W56282   5.744  16.063  13.188
84667W        W56283   1.942   5.796  11.297
84668W        W56284  29.111  14.005   0.076
84669W        W56285  15.561  12.018  11.620
84670W        W56286  17.606  10.136   4.803
84671W        W56287  28.876  21.308   2.736
84672W        W56288  22.408  11.909   0.650
84673W        W56289  44.706  10.678  11.155
84674W        W56290   6.422  41.019   2.925
84675W        W56291  29.681  26.659  12.576
84676W        W56292   0.993  15.323   4.993
84677W        W56293   1.269  30.410   2.323
84678W        W56294   1.550   6.087  11.136
84679W        W56295   6.640  44.021  11.408
84680W        W56296  15.151  29.257   1.198
84681W        W56297  23.626   1.256  12.109
84682W        W56298  25.560  36.259   2.655
84683W        W56299  38.916  33.500  12.257
84684W        W56300  28.265  11.551   1.787
84685W        W56301  15.051  18.705  11.688
84686W        W56302  18.826  12.288   1.952
84687W        W56303  14.908   7.784  12.924
84688W        W56304  40.746  12.934   3.638
84689W        W56305  30.083   7.953   0.837
84690W        W56306  26.204  19.793  14.021
84691W        W56307   3.544  24.542  11.559
84692W        W56308  38.000  26.390  14.801
84693W        W56309  13.160  30.825   4.375
84694W        W56310  16.095  27.066  13.284
84695W        W56311   9.141  34.908   0.937
84696W        W56312  32.282  41.604  12.567
84697W        W56313  12.285  27.090   1.608
84698W        W56314  11.863  30.675  12.912
84699W        W56315  19.788  40.851   2.653
84700W        W56316  40.794   4.222   3.809
84701W        W56317  14.219  41.249  14.446
84702W        W56318  35.777  22.481   1.920
84703W        W56319  16.566  22.207   0.673
84704W        W56320  14.814  11.863  14.487
84705W        W56321  13.522  17.281   0.092
84706W        W56322   9.907  31.106   4.171
84707W        W56323  12.531   9.812  13.327
84708W        W56324  38.702  16.330   4.556
84709W        W56325  13.597  32.063   2.174
84710W        W56326  31.439  29.634   3.198
84711W        W56327  19.125  27.465   4.469
84712W        W56328  39.186  12.563   4.581
84713W        W56329  12.242   2.312  11.483
84714W        W56330   7.725  32.826  14.400
84715W        W56331  22.211  13.703   0.794
84716W        W56332  26.020  26.646   0.907
84717W        W56333  35.590  22.073   2.702
84718W        W56334  10.227   6.361   3.129
84719W        W56335  32.441  19.267   3.305
84720W        W56336   4.892  33.668  13.395
84721W        W56337  19.915  43.416   4.197
84722W        W56338  22.213  33.745  14.007
84723W        W56339   8.862  22.572  12.133
84724W        W56340   5.248  22.027  11.068
84725W        W56341   3.797   8.746   0.004
84726W        W56342   8.299  42.847   0.705
84727W        W56343   4.204  12.597  12.228
84728W        W56344  34.326  10.118   1.652
84729W        W56345  19.591  13.083  11.395
84730W        W56346  10.929  17.582   0.308
84731W        W56347  39.695   5.220   4.045
84732W        W56348  11.776  28.270   3.572
84733W        W56349  17.836  27.511   1.800
84734W        W56350  13.726  22.818  12.128
84735W        W56351  15.636  29.087  10.794
84736W        W56352  13.532  25.851   2.371
84737W        W56353  33.221  20.996   3.612
84738W        W56354  24.692  25.533  11.519
84739W        W56355  35.386  30.630   4.274
84740W        W56356   7.715  40.519  14.264
84741W        W56357  23.994  42.560   3.219
84742W        W56358   1.371   5.443   3.404
84743W        W56359  25.220  22.733  13.881
84744W        W56360  31.101  11.397   0.962
84745W        W56361  37.222  29.152  14.359
84746W        W56362  13.774  16.171   1.132
84747W        W56363  10.907  44.729   1.922
84748W        W56364  31.117   4.172   3.677
84749W        W56365  44.199  33.073   3.868
84750W        W56366  25.712  13.734   5.065
84751W        W56367  44.180  40.641  11.540
84752W        W56368  41.949   9.868  12.565
84753W        W56369  32.895  44.414   2.825
84754W        W56370  33.965  24.730   3.378
84755W        W56371  33.836   3.959   0.491
84756W        W56372  27.045  19.707  11.214
84757W        W56373  17.306   0.182  13.251
84758W        W56374  28.157  13.161   1.670
84759W        W56375   3.738  34.600   0.130
84760W        W56376  42.786  38.336  11.301
84761W        W56377  16.076  44.372  14.920
84762W        W56378  33.341  19.285   3.224
84763W        W56379  39.849  30.074   1.790
84764W        W56380   5.195  22.213  10.587
84765W        W56381  39.477  25.576   2.811
84766W        W56382   8.815  37.832   4.496
84767W        W56383  34.530  22.772  11.002
84768W        W56384  18.354  12.247  11.198
84769W        W56385   3.296  38.876   3.727
84770W        W56386  41.125   6.064  13.829
84771W        W56387   8.047  25.528  13.821
84772W        W56388  34.741   0.606   0.774
84773W        W56389  38.425  44.950   4.561
84774W        W56390   2.239  11.620  14.994
84775W        W56391  38.079  43.278  11.365
84776W        W56392   7.038  28.093  12.806
84777W        W56393  26.086  38.945   4.162
84778W        W56394  22.505  11.280  14.881
84779W        W56395  26.027  30.566   1.032
84780W        W56396   0.426  13.072   4.843
84781W        W56397  22.020  12.783   0.972
84782W        W56398  37.562   9.899  11.948
84783W        W56399  23.915  13.574  12.923
84784W        W56400   4.727  13.358  14.508
84785W        W56401  20.521  31.870   2.204
84786W        W56402   3.780   7.091   4.874
84787W        W56403  41.378   0.966  13.403
84788W        W56404  10.895  33.402   0.873
84789W        W56405  27.523   2.333   1.360
84790W        W56406   4.155  31.083  11.177
84791W        W56407   4.408  38.608   2.674
84792W        W56408   7.994  10.314  13.094
84793W        W56409   3.176  42.811   3.895
84794W        W56410  31.715  16.804   4.113
84795W        W56411   2.502   9.688   1.031
84796W        W56412  23.944  32.515   1.275
84797W        W56413  22.933   9.709   0.690
84798W        W56414  41.934  19.010  10.743
84799W        W56415  26.547  25.306  13.558
84800W        W56416  38.337  15.428   4.748
84801W        W56417   9.234  36.661  13.856
84802W        W56418  33.921   7.716   1.972
84803W        W56419  30.370  35.844  14.420
84804W        W56420  34.570  33.049  11.579
84805W        W56421  42.944  37.575   2.029
84806W        W56422  24.116  38.383  13.300
84807W        W56423  24.201  12.655  12.903
84808W        W56424  11.481  38.997   0.836
84809W        W56425  37.985  24.266  14.535
84810W        W56426  37.441  21.632   1.579
84811W        W56427  44.383  25.735   4.120
84812W        W56428  31.203  33.907   1.262
84813W        W56429  29.651   2.215   3.580
84814W        W56430  41.356  27.232   4.521
84815W        W56431  37.315  30.596   4.600
84816W        W56432   0.202  42.509  10.468
84817W        W56433   2.225   2.898   4.569
84818W        W56434  44.106  33.468  11.500
84819W        W56435  41.921  36.333  12.854
84820W        W56436  18.736  36.620  14.087
84821W        W56437  11.677  31.838  11.931
84822W        W56438  43.871  26.354  12.454
84823W        W56439  12.807  24.995  12.034
84824W        W56440  38.046  11.554   1.875
84825W        W56441  35.440   2.402  11.176
84826W        W56442   4.484  26.994  13.425
84827W        W56443  43.824  40.108  10.943
84828W        W56444  29.536  26.432   2.730
84829W        W56445  44.941  18.150   0.903
84830W        W56446  43.818   2.889   3.786
84831W        W56447  29.037  36.899  13.909
84832W        W56448  44.505   4.941  14.460
84833W        W56449   6.901  22.531  13.475
84834W        W56450  35.504   7.750   4.067
84835W        W56451  11.076  24.565  11.064
84836W        W56452   8.411   0.221   3.223
84837W        W56453  31.171  39.495  12.956
84838W        W56454  24.194  40.977  10.418
84839W        W56455  32.528   1.907   4.970
84840W        W56456  28.582  40.064  11.018
84841W        W56457  42.255  21.055  12.418
84842W        W56458  26.529  29.448  11.588
84843W        W56459  40.474   8.646  11.360
84844W        W56460   3.967  10.842  12.072
84845W        W56461  38.741  39.888  13.874
84846W        W56462  41.535  12.653  11.205
84847W        W56463  19.258  14.420   2.107
84848W        W56464  11.732  44.481  12.438
84849W        W56465  11.566  42.865   5.075
84850W        W56466  29.437   9.693   3.313
84851W        W56467  28.665  14.786   3.300
84852W        W56468  19.589   7.246   1.797
84853W        W56469  35.852  31.942  10.781
84854W        W56470  43.692  20.663  12.141
84855W        W56471  23.312  32.211   4.972
84856W        W56472  36.096  21.130  13.481
84857W        W56473   8.316  16.162   1.646
84858W        W56474   1.642   4.022  13.818
84859W        W56475  43.299  33.797  14.309
84860W        W56476   5.373  13.340   0.110
84861W        W56477  44.982   3.501   2.677
84862W        W56478  16.191  25.293   1.046
84863W        W56479  25.845  37.362   4.146
84864W        W56480  25.267   3.936  12.069
84865W        W56481  42.973  22.733   0.335
84866W        W56482  14.410  14.633  14.915
84867W        W56483   4.204   8.397   1.682
84868W        W56484  13.108   8.648  12.492
84869W        W56485  42.786  29.481   4.655
84870W        W56486  26.838   4.710  11.204
84871W        W56487   5.125  43.784   4.577
84872W        W56488  23.038   8.388  12.493
84873W        W56489  37.049  11.725  12.883
84874W        W56490  28.582  28.543   4.679
84875W        W56491   0.475  23.304   1.737
84876W        W56492   5.180   3.646   4.597
84877W        W56493   1.868  22.496  10.627
84878W        W56494  39.275  26.505   2.265
84879W        W56495   3.268  19.584  11.120
84880W        W56496  21.993  35.077  11.056
84881W        W56497   0.481  31.146   4.647
84882W        W56498   5.371  42.048  12.452
84883W        W56499  38.474  40.850  14.298
84884W        W56500  12.779  28.125  12.973
84885W        W56501  42.772  19.780   3.227
84886W        W56502  10.274  35.139   0.504
84887W        W56503  14.169   2.270   3.669
84888W        W56504   5.763  34.424   3.828
84889W        W56505  28.649  35.575   4.486
84890W        W56506   1.619   4.531  12.055
84891W        W56507  35.039  35.481   5.178
84892W        W56508  20.055  32.607  14.404
84893W        W56509  25.076  22.341   3.639
84894W        W56510  44.361  26.456   0.481
84895W        W56511  29.703  20.533   3.152
84896W        W56512   4.219  17.560  11.663
84897W        W56513  29.521   2.712   1.800
84898W        W56514   2.822   9.095   4.516
84899W        W56515  17.146  35.431   4.292
84900W        W56516  37.013  26.414  13.941
84901W        W56517  32.430  20.706  14.648
84902W        W56518  41.100  26.656  11.676
84903W        W56519  17.062  44.327   2.818
84904W        W56520   4.672  23.163   0.299
84905W        W56521   2.169  38.940  11.531
84906W        W56522  10.354  29.411  14.893
84907W        W56523   0.673  37.487   0.620
84908W        W56524  24.504  19.920   1.855
84909W        W56525  34.899   7.834  10.390
84910W        W56526  10.752   7.890   2.446
84911W        W56527  34.337  20.962   0.414
84912W        W56528  18.715   9.157  10.748
84913W        W56529  34.985  26.464  11.548
84914W        W56530  33.540  17.646  11.992
84915W        W56531  15.569  14.509   1.685
84916W        W56532  26.553  35.917  10.471
84917W        W56533   0.030  28.067   3.169
84918W        W56534  38.068  29.869  11.633
84919W        W56535  22.224  22.933  13.297
84920W        W56536  15.345  29.162  13.529
84921W        W56537   3.290  38.930   0.054
84922W        W56538  35.851  20.276   0.930
84923W        W56539  13.243   9.334  13.580
84924W        W56540  22.017  43.808   3.135
84925W        W56541  31.414   9.749   4.237
84926W        W56542  25.699   3.278  14.519
84927W        W56543  13.869  11.169  12.065
84928W        W56544  40.307   4.314  11.255
84929W        W56545   8.966  24.982  14.923
84930W        W56546  41.590  38.412   2.675
84931W        W56547  34.685  42.723  13.698
84932W        W56548  39.319   9.278  12.589
84933W        W56549   0.470  16.317   1.722
84934W        W56550   8.203  25.596   1.917
84935W        W56551   7.784   1.227  14.012
84936W        W56552  17.743  10.162  14.748
84937W        W56553   3.960  24.184   0.690
84938W        W56554  16.360  14.762   2.115
84939W        W56555   9.783  32.488  13.795
84940W        W56556  39.612  22.775   3.318
84941W        W56557  26.166  43.286  10.519
84942W        W56558  26.233   9.244  13.067
84943W        W56559   8.148   1.230   3.298
84944W        W56560  43.240  10.404   0.855
84945W        W56561  41.050  30.488  14.955
84946W        W56562   9.232  33.110  11.524
84947W        W56563  12.678   3.731   0.650
84948W        W56564  40.009  20.271   1.268
84949W        W56565  44.937   4.800   4.116
84950W        W56566   0.562  39.891  12.965
84951W        W56567  36.457   2.045   1.425
84952W        W56568  40.271   6.969   3.375
84953W        W56569  38.392  30.347   2.732
84954W        W56570  40.428   4.727   1.490
84955W        W56571  27.567  33.185  13.045
84956W        W56572  30.956  40.920   1.378
84957W        W56573  19.965  38.019  11.563
84958W        W56574  27.373  34.346  13.958
84959W        W56575  17.860   8.745   4.183
84960W        W56576  34.805  19.623   2.495
84961W        W56577  33.488  33.486   4.206
84962W        W56578  35.632  39.577  11.992
84963W        W56579  29.060   3.570  14.252
84964W        W56580  33.133  17.027   2.358
84965W        W56581  26.926  33.309  11.941
84966W        W56582   3.813   0.719   4.663
84967W        W56583  20.011  10.179   0.860
84968W        W56584  41.900  31.831   3.628
84969W        W56585   3.791  37.375  12.738
84970W        W56586  10.641  12.316   3.037
84971W        W56587  11.846  25.426   4.176
84972W        W56588  23.031  20.746  10.775
84973W        W56589  32.712   7.451  13.896
84974W        W56590  40.628   1.758  14.406
84975W        W56591  11.010  16.185   1.159
84976W        W56592  13.901   2.531  13.031
84977W        W56593   8.603  17.788  14.075
84978W        W56594  24.836  19.614  12.006
84979W        W56595  17.333  38.510   2.692
84980W        W56596   0.565  28.055   1.233
84981W        W56597  40.959  11.051   3.616
84982W        W56598  16.243  28.617  11.969
84983W        W56599  28.594  28.380   4.160
84984W        W56600  32.038  17.995   1.468
84985W        W56601  12.909  31.786  11.128
84986W        W56602  31.010  36.270  13.472
84987W        W56603  29.054  44.335   2.911
84988W        W56604   4.894  12.298   4.415
84989W        W56605  43.715   3.970  14.331
84990W        W56606  25.221  32.915  12.526
84991W        W56607  35.513  18.495   4.272
84992W        W56608  30.937  38.009  14.916
84993W        W56609  19.612  44.653  12.456
84994W        W56610  24.835  14.235  10.286
84995W        W56611  18.054  44.709  12.015
84996W        W56612  19.152  10.590   2.450
84997W        W56613  40.355  28.584   4.301
84998W        W56614   2.744  26.456  11.077
84999W        W56615   0.016  25.207   2.379
85000W        W56616  33.625  34.366   3.650
85001W        W56617  44.991   6.195   0.493
85002W        W56618  37.639  14.674   2.706
85003W        W56619  14.250  36.514  13.377
85004W        W56620   6.099   3.448   3.830
85005W        W56621  33.679  20.802  14.758
85006W        W56622  34.034  30.941   0.067
85007W        W56623  33.695  25.869   0.293
85008W        W56624  22.626  42.006  14.384
85009W        W56625  17.041  14.362   3.832
85010W        W56626  27.361  39.581  14.038
85011W        W56627  11.065  40.464   2.228
85012W        W56628  15.226  13.797   2.789
85013W        W56629   8.096  11.600  12.644
85014W        W56630  43.990   9.232   0.448
85015W        W56631  39.915  19.696  11.934
85016W        W56632   4.852  28.383   2.361
85017W        W56633  29.523  43.756  14.361
85018W        W56634  15.094   2.402   2.140
85019W        W56635  40.545  18.729  11.926
85020W        W56636   9.360  39.626  12.374
85021W        W56637  39.196  31.127   0.095
85022W        W56638  10.214  10.399  14.788
85023W        W56639  29.020  18.847  10.453
85024W        W56640  38.322  25.178  14.554
85025W        W56641  37.255  23.587  12.017
85026W        W56642  37.103   1.524  14.720
85027W        W56643  30.624   6.156  13.927
85028W        W56644  13.288   3.741  11.931
85029W        W56645   2.478  35.930  11.209
85030W        W56646   8.617   9.353   0.766
85031W        W56647  16.187  20.201   1.912
85032W        W56648  12.083  37.068  14.050
85033W        W56649  33.387  42.915   4.588
85034W        W56650  38.456  22.574  13.528
85035W        W56651  43.927  17.214   1.152
85036W        W56652  42.246  37.518  10.255
85037W        W56653  15.215  20.925  12.886
85038W        W56654   1.893  28.675   2.274
85039W        W56655  20.705  19.034  13.516
85040W        W56656   4.204   2.522   0.291
85041W        W56657  29.357  30.451   0.437
85042W        W56658  20.604  27.797   1.257
85043W        W56659  41.311  25.928   1.398
85044W        W56660  12.146   3.355   1.634
85045W        W56661   4.149   7.924  12.824
85046W        W56662  17.259  43.951   5.201
85047W        W56663  20.460  10.557  12.020
85048W        W56664  44.453   7.354   2.797
85049W        W56665  12.809  16.737   2.420
85050W        W56666  11.205  33.127   0.418
85051W        W56667   4.998  18.611  11.569
85052W        W56668  32.052   5.698   3.665
85053W        W56669  43.877  25.637   2.238
85054W        W56670  38.606  24.660   4.768
85055W        W56671  29.574   4.460   1.430
85056W        W56672  17.674  41.869   0.241
85057W        W56673  26.559  36.334   3.184
85058W        W56674  28.482  10.357   0.942
85059W        W56675  42.359  31.247  10.941
85060W        W56676  34.345   8.688   1.582
85061W        W56677   5.361  17.500   2.859
85062W        W56678  24.523  40.340   3.685
85063W        W56679  30.092  12.144   2.830
85064W        W56680  28.108  43.298   4.681
85065W        W56681  21.488   6.007  13.740
85066W        W56682  24.394  20.328  13.965
85067W        W56683  16.142  42.182  10.836
85068W        W56684  16.691  44.742   2.634
85069W        W56685  11.586  19.372   4.172
85070W        W56686   6.273  37.436   0.534
85071W        W56687  12.687  39.903  11.219
85072W        W56688  35.414  44.573  11.557
85073W        W56689  16.586   2.353  14.860
85074W        W56690  14.682  39.355  13.343
85075W        W56691  26.628  43.283   1.787
85076W        W56692  36.516  44.362  12.408
85077W        W56693  30.542   0.175  12.015
85078W        W56694  20.108  18.435  13.917
85079W        W56695  37.434  43.801   2.172
85080W        W56696   0.175  21.781   0.718
85081W        W56697  38.797  35.950   0.048
85082W        W56698  32.975   3.553   2.783
85083W        W56699  26.559  16.274  10.909
85084W        W56700  36.623  22.301  11.125
85085W        W56701  17.510   4.688   4.539
85086W        W56702  37.733  17.834   2.450
85087W        W56703  33.981  36.404  13.580
85088W        W56704  10.209  11.637   0.757
85089W        W56705  36.499   4.670   4.510
85090W        W56706   7.325  19.508  12.630
85091W        W56707  15.894  10.220   4.990
85092W        W56708  33.904  21.343   2.249
85093W        W56709  35.449  31.713   0.338
85094W        W56710  17.183   0.450   3.350
85095W        W56711   8.337   4.822   0.397
85096W        W56712  18.845  17.606   3.081
85097W        W56713   4.455  14.641   0.375
85098W        W56714   3.406  26.134   2.341
85099W        W56715   8.876  17.938   4.142
85100W        W56716  25.067  10.370  11.943
85101W        W56717  29.969  15.168   0.801
85102W        W56718  14.830  15.818  11.206
85103W        W56719  44.958  18.739   1.586
85104W        W56720  13.612   4.419   0.380
85105W        W56721  32.476   3.053   0.758
85106W        W56722  36.002  25.902   3.129
85107W        W56723   4.258  23.735   5.449
85108W        W56724  24.047   6.743   1.733
85109W        W56725   2.981   1.488  11.914
85110W        W56726  24.223  35.470   2.030
85111W        W56727   9.707  22.793   2.322
85112W        W56728  23.773   0.849   0.288
85113W        W56729  41.950  42.125   0.321
85114W        W56730  40.437   2.476   0.928
85115W        W56731  35.112  44.497  12.540
85116W        W56732   9.576  29.271   3.801
85117W        W56733  31.637  31.135   2.186
85118W        W56734  32.058  22.280  12.410
85119W        W56735  42.074   1.412  13.025
85120W        W56736   5.232  12.209   2.661
85121W        W56737  18.734   6.173   4.795
85122W        W56738  22.545  34.719   0.286
85123W        W56739   6.331   9.826   2.163
85124W        W56740  32.488   5.430   1.850
85125W        W56741  37.381  36.319  13.433
85126W        W56742   7.177  14.839   2.737
85127W        W56743   7.210  12.018   0.723
85128W        W56744   1.062  13.205  11.282
85129W        W56745  16.359  12.650   4.134
85130W        W56746  20.758  24.047   4.117
85131W        W56747  24.018   3.493  13.324
85132W        W56748   8.723   0.360   4.143
85133W        W56749  25.391  44.620   0.818
85134W        W56750  22.529  35.853   4.798
85135W        W56751  16.995  38.471   0.469
85136W        W56752  20.621  13.421   3.076
85137W        W56753  16.595  38.807   0.364
85138W        W56754  10.152  25.511   0.430
85139W        W56755  23.699  35.556  11.677
85140W        W56756  11.803  36.797   5.033
85141W        W56757   5.216  19.329  10.946
85142W        W56758  10.875  16.585  13.969
85143W        W56759  25.116  24.240   3.332
85144W        W56760  35.822  25.409  13.466
85145W        W56761   7.696  19.712  12.953
85146W        W56762  38.591   0.819  14.428
85147W        W56763  25.203   0.054  10.537
85148W        W56764  23.700  16.400   3.665
85149W        W56765   1.907  25.177   4.142
85150W        W56766  42.963  17.542  11.042
85151W        W56767  25.998   2.549   3.393
85152W        W56768  18.207  33.333  14.503
85153W        W56769   7.193   0.027  13.357
85154W        W56770  41.361  26.010  14.972
85155W        W56771  39.085  26.709  11.663
85156W        W56772  31.007  22.663   2.158
85157W        W56773  43.024  35.821  14.911
85158W        W56774  31.126  36.908   3.441
85159W        W56775   5.323   9.906   1.794
85160W        W56776   3.563  25.088  13.583
85161W        W56777  17.009  44.422  11.940
85162W        W56778  40.973  15.257  10.709
85163W        W56779  10.821  37.382  14.345
85164W        W56780  36.056  44.856  12.069
85165W        W56781   2.371  42.881   5.097
85166W        W56782  34.622  43.725  11.144
85167W        W56783  12.702  34.130   4.737
85168W        W56784   3.120  35.509   1.728
85169W        W56785  15.780   7.487   1.861
85170W        W56786  41.789   9.416   3.665
85171W        W56787   3.393   9.222  11.175
85172W        W56788   7.277  31.522   4.061
85173W        W56789   7.885   7.925   4.191
85174W        W56790  26.155  20.528   2.175
85175W        W56791   0.007  36.069  11.521
85176W        W56792   8.613  12.166   2.252
85177W        W56793   4.204  17.083  12.909
85178W        W56794  37.659  14.241  12.405
85179W        W56795  44.649  21.676  13.748
85180W        W56796  21.687  27.191  14.312
85181W        W56797  21.526  30.719  13.127
85182W        W56798  14.095  24.919  10.879
85183W        W56799  25.289   8.147  14.056
85184W        W56800  24.053  42.403  12.061
85185W        W56801   5.832   2.014   3.115
85186W        W56802  14.234  24.239  12.136
85187W        W56803  30.041  35.655   3.220
85188W        W56804  30.783  41.800   2.290
85189W        W56805  31.414   0.243  12.621
85190W        W56806   0.310  29.763  13.522
85191W        W56807   6.230  28.169  10.295
85192W        W56808   4.237  18.672   4.211
85193W        W56809   7.316   9.780  13.411
85194W        W56810  11.274  44.883   3.357
85195W        W56811  39.016  10.316  12.582
85196W        W56812  16.811  24.398   1.437
85197W        W56813  10.743  43.286  13.949
85198W        W56814  20.620   4.322   3.885
85199W        W56815   3.833  44.310  13.954
85200W        W56816  14.559  17.796   3.119
85201W        W56817  40.048  26.424   1.888
85202W        W56818  14.312  44.523  13.037
85203W        W56819   5.444  26.296  11.364
85204W        W56820  10.616   1.969  13.408
85205W        W56821  14.332  10.872   4.085
85206W        W56822   1.914  34.857  11.878
85207W        W56823  29.176  19.797  13.889
85208W        W56824   0.123  43.023  10.333
85209W        W56825  24.633   4.942  11.535
85210W        W56826  31.279  34.107   3.604
85211W        W56827  43.912  30.815   3.846
85212W        W56828  14.320  39.118  12.999
85213W        W56829  31.089   5.981   4.739
85214W        W56830  16.591  40.554   3.648
85215W        W56831   2.943  11.292  11.128
85216W        W56832  37.502  22.172  14.466
85217W        W56833  29.447  28.991  12.873
85218W        W56834   3.139  12.178   1.641
85219W        W56835  21.072  37.095  14.001
85220W        W56836  27.096  38.871  11.552
85221W        W56837  12.338  41.860   1.504
85222W        W56838  42.765  28.701  13.734
85223W        W56839  33.611  43.928   1.863
85224W        W56840  17.006   3.125  10.176
85225W        W56841  39.748  10.902   1.902
85226W        W56842  23.244  11.772   3.316
85227W        W56843   8.094  22.619  11.654
85228W        W56844  36.622   1.804   1.899
85229W        W56845  29.607  39.401  14.905
85230W        W56846  35.036  35.375  11.574
85231W        W56847  32.196  41.022  12.006
85232W        W56848  23.244  15.624   3.686
85233W        W56849   4.360  22.851  12.875
85234W        W56850  34.169   6.409   1.444
85235W        W56851   1.451  10.592   0.104
85236W        W56852   3.053  41.393  11.179
85237W        W56853   6.127  34.570  11.493
85238W        W56854   9.853  25.004  10.574
85239W        W56855  26.516  16.291  14.891
85240W        W56856  30.543   1.997  11.896
85241W        W56857   3.434   7.302   0.871
85242W        W56858  42.293  24.550  12.430
85243W        W56859  22.778  26.898  11.313
85244W        W56860  32.456  44.992   1.105
85245W        W56861   6.907   6.189   3.724
85246W        W56862  40.595  29.251  13.131
85247W        W56863  40.980  14.705   0.909
85248W        W56864  33.072   3.165   4.185
85249W        W56865  22.344  40.887   1.005
85250W        W56866  36.491   5.409  13.570
85251W        W56867  19.505  13.961   2.857
85252W        W56868  26.586  33.276   4.584
85253W        W56869  31.504  39.060   3.150
85254W        W56870  39.554  26.079  14.540
85255W        W56871   3.850  23.816  14.223
85256W        W56872  38.717  15.236  12.064
85257W        W56873  15.309  37.231   1.830
85258W        W56874  44.755   7.717   0.368
85259W        W56875  15.551  23.539   4.650
85260W        W56876  31.466  24.225   3.420
85261W        W56877  31.991  36.566   1.402
85262W        W56878  15.103  19.560   0.758
85263W        W56879  33.121  31.875  14.890
85264W        W56880  19.154  12.726  10.673
85265W        W56881  24.639  23.753   2.483
85266W        W56882  37.404  13.825   5.592
85267W        W56883  13.314  35.311   4.599
85268W        W56884  21.804  16.837   1.681
85269W        W56885  13.600  14.268  13.295
85270W        W56886   5.791  21.228  14.333
85271W        W56887  23.839  21.238  11.762
85272W        W56888  42.920  35.228   9.639
85273W        W56889  29.643  19.614  13.788
85274W        W56890  26.295   8.347   4.219
85275W        W56891  12.531  21.186   0.278
85276W        W56892  36.044  26.445  13.480
85277W        W56893   9.682  10.320  12.701
85278W        W56894  29.286  38.347   3.829
85279W        W56895   2.873  20.884  14.882
85280W        W56896  41.281  17.282  14.935
85281W        W56897  11.684  23.711  14.421
85282W        W56898  30.622  35.084  14.916
85283W        W56899  17.313  16.906   5.489
85284W        W56900  14.322  40.759  14.328
85285W        W56901  14.588  13.662  12.661
85286W        W56902  12.744  10.703   4.049
85287W        W56903  20.671  14.048  11.371
85288W        W56904  22.556  27.762   1.918
85289W        W56905  39.515  18.091   2.697
85290W        W56906  27.950  38.426   1.666
85291W        W56907   3.925   8.441   2.814
85292W        W56908  26.488  11.333  11.479
85293W        W56909  41.313  35.846   1.683
85294W        W56910   1.385  25.523  14.609
85295W        W56911  25.200  16.314   1.944
85296W        W56912   1.827   0.365  13.155
85297W        W56913  40.519  12.839  11.095
85298W        W56914  19.300  17.748  14.504
85299W        W56915  10.866  16.594   0.832
85300W        W56916  22.650  14.925  13.887
85301W        W56917   6.304  15.822   0.941
85302W        W56918   5.874  40.280   4.122
85303W        W56919  10.846   1.729  11.610
85304W        W56920   4.228  17.574  13.017
85305W        W56921  14.650  21.726  13.766
85306W        W56922   0.445   1.986   0.749
85307W        W56923  14.947   4.555   0.833
85308W        W56924  28.599  17.085  12.511
85309W        W56925  32.861  43.814  14.902
85310W        W56926  23.243  39.502   0.160
85311W        W56927  40.698  12.771   4.798
85312W        W56928  42.871  27.619   1.784
85313W        W56929  37.955   2.810   0.014
85314W        W56930  24.201  30.851  12.173
85315W        W56931  32.094  36.600  14.122
85316W        W56932  13.735  33.879   2.345
85317W        W56933   0.459  35.802   1.424
85318W        W56934  17.760  14.779  11.044
85319W        W56935  27.218  14.213   3.814
85320W        W56936  37.102  13.747  11.592
85321W        W56937  24.615   1.043  12.052
85322W        W56938  41.676  10.467  11.157
85323W        W56939   0.528  26.042   0.812
85324W        W56940  11.599  17.469   1.730
85325W        W56941  17.776  39.788  11.656
85326W        W56942  26.412  35.904   2.362
85327W        W56943  36.343  10.505  12.075
85328W        W56944  40.118  31.557  10.949
85329W        W56945   5.155   5.260   3.317
85330W        W56946  29.797  33.509   5.183
85331W        W56947  27.513   0.578   3.679
85332W        W56948  18.307  18.077   3.237
85333W        W56949  26.674  14.149   2.703
85334W        W56950   3.715   9.016   4.851
85335W        W56951  16.357  21.591  11.464
85336W        W56952   5.240  15.973   2.856
85337W        W56953  44.304  25.440   4.541
85338W        W56954  36.057  32.112   0.960
85339W        W56955  22.302  12.995  12.060
85340W        W56956  43.088  35.851  13.551
85341W        W56957   0.883   6.111   0.400
85342W        W56958  16.692   4.305   4.663
85343W        W56959  13.654  23.321  14.690
85344W        W56960  40.862   6.235   2.248
85345W        W56961  44.895  18.695  10.380
85346W        W56962   7.637  10.535   2.715
85347W        W56963  42.901   1.394   1.153
85348W        W56964  10.484   1.710  12.971
85349W        W56965   8.799  37.298  11.633
85350W        W56966   1.179  34.155  13.565
85351W        W56967  17.618  34.021  10.329
85352W        W56968   9.103  18.776  13.439
85353W        W56969  36.006  30.019   0.142
85354W        W56970  14.019   9.981  11.588
85355W        W56971  27.710  30.441   3.213
85356W        W56972  40.058   1.473  12.077
85357W        W56973  44.445  10.691  11.593
85358W        W56974  13.467  19.878  14.369
85359W        W56975  21.020  37.007   3.235
85360W        W56976  13.335   2.814   0.071
85361W        W56977   8.958  24.683   2.725
85362W        W56978  26.539  27.488   3.711
85363W        W56979  33.507  34.546   0.682
85364W        W56980  12.570  28.016  14.507
85365W        W56981  31.566  38.365  13.091
85366W        W56982  14.819   1.330  12.325
85367W        W56983  25.071  34.925  12.392
85368W        W56984   5.328  33.926  13.532
85369W        W56985  11.731  32.361  12.032
85370W        W56986   9.872  27.042   3.980
85371W        W56987   0.032  27.231  12.262
85372W        W56988  28.884  26.118  11.291
85373W        W56989  23.465  12.237   3.282
85374W        W56990  24.487  29.851   4.569
85375W        W56991   3.663   3.419  12.898
85376W        W56992   8.173   6.595   2.122
85377W        W56993  32.593  10.721  13.543
85378W        W56994   3.716  36.463  13.220
85379W        W56995  15.570  24.874  11.136
85380W        W56996  16.503  14.064  13.596
85381W        W56997   1.456  39.874   2.214
85382W        W56998  28.844   1.876  13.894
85383W        W56999  18.066  14.160   3.136
85384W        W57000  10.111  20.368  13.458
85385W        W57001   5.407   0.789  10.059
85386W        W57002  10.097  22.370   1.938
85387W        W57003  39.944  14.116  11.371
85388W        W57004  15.594  11.347   3.040
85389W        W57005  37.337  19.832  13.430
85390W        W57006  31.921  32.902  14.510
85391W        W57007   0.069   3.998  13.095
85392W        W57008  39.376  39.533   0.840
85393W        W57009  15.710  25.950  13.129
85394W        W57010  29.450  25.956  13.048
85395W        W57011  31.035  11.897  13.803
85396W        W57012   2.950   6.973   4.166
85397W        W57013  29.535  41.836  14.306
85398W        W57014   5.946  34.021  14.296
85399W        W57015   2.295  34.025   1.448
85400W        W57016  24.599  24.017  10.625
85401W        W57017  34.653  44.782  13.297
85402W        W57018   0.508  44.387   3.438
85403W        W57019  33.189  24.335  12.807
85404W        W57020   6.925  41.855  14.421
85405W        W57021  19.702  30.935  12.530
85406W        W57022  16.755  30.728  14.378
85407W        W57023  35.544  21.047  10.794
85408W        W57024  35.841   6.840  11.047
85409W        W57025   9.113   2.758  13.521
85410W        W57026  38.421   2.371   1.244
85411W        W57027  41.899  15.591   4.736
85412W        W57028   8.034  13.113   4.783
85413W        W57029  27.076  33.466   4.424
85414W        W57030  10.451  26.900  13.306
85415W        W57031  26.568  44.293   3.987
85416W        W57032  30.786  43.199  14.973
85417W        W57033  28.029  30.175  14.681
85418W        W57034  21.640   5.602   1.906
85419W        W57035  26.053  26.045  11.953
85420W        W57036  30.597  13.292   4.833
85421W        W57037  42.869  40.298   0.976
85422W        W57038  35.026  23.192   4.537
85423W        W57039  28.190  42.448  14.734
85424W        W57040  18.010  35.627   3.686
85425W        W57041  43.902  13.386  11.489
85426W        W57042  17.800   1.764  14.999
85427W        W57043  27.351  29.507  13.440
85428W        W57044  22.975   5.438   1.800
85429W        W57045  35.184  34.477   1.532
85430W        W57046  41.089  27.560  11.542
85431W        W57047  21.185  38.554  11.426
85432W        W57048   1.884   8.002   1.653
85433W        W57049   1.253  23.699   4.105
85434W        W57050   3.630   8.537   3.597
85435W        W57051  26.483  19.419  11.865
85436W        W57052  10.307  28.158   3.567
85437W        W57053  20.154  22.818   0.402
85438W        W57054  36.324  38.420  12.867
85439W        W57055  19.299   3.940  11.066
85440W        W57056  39.825  42.462   1.067
85441W        W57057  42.895  42.973   4.188
85442W        W57058   3.349  10.097   1.435
85443W        W57059  41.046   6.533   3.218
85444W        W57060  34.487  20.885   4.307
85445W        W57061   8.654  34.563   4.386
85446W        W57062   6.179  23.195  13.306
85447W        W57063  42.500  43.450   0.380
85448W        W57064  17.837  38.480  12.646
85449W        W57065  31.925   0.036   1.107
85450W        W57066  11.276  37.648  14.431
85451W        W57067  31.308  22.032  12.414
85452W        W57068  36.389  11.692   1.176
85453W        W57069  19.459   0.813   0.732
85454W        W57070  42.812  38.750  11.633
85455W        W57071  30.444   5.640  11.057
85456W        W57072  41.105   1.358  13.998
85457W        W57073  24.618  31.684   1.880
85458W        W57074  34.455  39.603  11.198
85459W        W57075  29.229  11.185   1.899
85460W        W57076  38.506  29.836   2.655
85461W        W57077  12.346  44.783   2.648
85462W        W57078   7.891  38.077   0.946
85463W        W57079  39.996  10.985   0.715
85464W        W57080  22.758  38.318   3.596
85465W        W57081  30.195   0.255   4.526
85466W        W57082  11.580   2.762   1.821
85467W        W57083   8.712  19.209   3.643
85468W        W57084  22.432  36.053   0.846
85469W        W57085  38.102  28.496   0.955
85470W        W57086  11.052  33.376  13.304
85471W        W57087   4.753   1.290   0.377
85472W        W57088  30.350   9.614  14.841
85473W        W57089  43.440  27.862  13.304
85474W        W57090   7.579  14.020   1.295
85475W        W57091   0.959   6.728   2.222
85476W        W57092  24.641   6.827  14.976
85477W        W57093  40.011  38.002  12.358
85478W        W57094  22.111  26.624   2.264
85479W        W57095  22.798   3.327  10.457
85480W        W57096  22.792   6.221   1.443
85481W        W57097  20.623   5.353   0.289
85482W        W57098   4.635   6.026  10.316
85483W        W57099   5.274  34.027  14.043
85484W        W57100  27.169  29.770   1.274
85485W        W57101  27.158  35.565  13.028
85486W        W57102  31.960  36.094  12.121
85487W        W57103  15.083  42.948  14.735
85488W        W57104  30.513  42.525  12.314
85489W        W57105  12.013  19.016   4.386
85490W        W57106   8.818  15.078   2.382
85491W        W57107  36.890  18.726  11.988
85492W        W57108  12.170  22.806   3.160
85493W        W57109  28.974  15.752  12.456
85494W        W57110  12.279  12.864   0.547
85495W        W57111  35.973  21.536  10.705
85496W        W57112  18.179   7.754  12.455
85497W        W57113  19.715  29.138   0.560
85498W        W57114   4.722  13.842  11.473
85499W        W57115   5.826   8.176   2.994
85500W        W57116  17.317  33.733  10.017
85501W        W57117   6.789  18.552   1.185
85502W        W57118  13.767   6.646   4.762
85503W        W57119   7.894  43.253   1.879
85504W        W57120  21.117  43.800   3.167
85505W        W57121  24.237  23.088  10.824
85506W        W57122  38.305   2.862   4.960
85507W        W57123   4.420  19.725  11.956
85508W        W57124  10.601  14.629  13.901
85509W        W57125   5.638   7.758   2.642
85510W        W57126  32.220  23.833   3.409
85511W        W57127  39.547  26.261  11.848
85512W        W57128  30.561   3.337  11.240
85513W        W57129   0.742  22.165  14.923
85514W        W57130  28.704   7.641   4.178
85515W        W57131  39.339  38.525  10.404
85516W        W57132   9.910  14.898   0.992
85517W        W57133  27.018   6.311  14.093
85518W        W57134  15.495  22.824  10.629
85519W        W57135   0.980  27.625   4.208
85520W        W57136  33.628  11.755   1.845
85521W        W57137  39.722   4.810  12.076
85522W        W57138  31.951  24.105   2.615
85523W        W57139  34.173   1.151   2.644
85524W        W57140  28.698  35.389   0.556
85525W        W57141   1.101  26.186   4.060
85526W        W57142   0.095  23.771   3.391
85527W        W57143  29.536  39.245   3.734
85528W        W57144  35.439  34.181  11.247
85529W        W57145  32.488  33.660  13.650
85530W        W57146  30.619  28.089   9.937
85531W        W57147  13.706   5.946  12.683
85532W        W57148  24.615  38.553   2.264
85533W        W57149   5.585  38.978   4.273
85534W        W57150  11.325  17.226  14.241
85535W        W57151   5.182  25.205  11.476
85536W        W57152  32.021  10.422  10.359
85537W        W57153   7.618   5.001  10.226
85538W        W57154  25.637   0.419  12.545
85539W        W57155  37.804  24.420   3.642
85540W        W57156  24.756  27.231   4.178
85541W        W57157   0.413  11.502   3.087
85542W        W57158   0.692  37.047   1.251
85543W        W57159  29.368  14.621  12.831
85544W        W57160   9.689   7.636  13.802
85545W        W57161  26.683   2.917   4.193
85546W        W57162  34.746  27.573  12.073
85547W        W57163   0.286   9.823  14.586
85548W        W57164  44.188  39.627   2.411
85549W        W57165   9.379  43.148  12.081
85550W        W57166  12.471  38.965   5.073
85551W        W57167  44.851  24.102   3.707
85552W        W57168  24.090  16.318  13.840
85553W        W57169  44.189  38.143  14.930
85554W        W57170  16.661  40.932   1.469
85555W        W57171  39.409  39.982   1.763
85556W        W57172  32.541  29.906   1.290
85557W        W57173   1.234  34.786   1.114
85558W        W57174  36.143  27.658   3.514
85559W        W57175  35.034  38.867  13.471
85560W        W57176  36.356   9.881   4.643
85561W        W57177  37.472  37.317  14.391
85562W        W57178   0.723   4.730   0.304
85563W        W57179  10.321  24.135  11.996
85564W        W57180  34.561  30.754  14.516
85565W        W57181  37.048  37.022  14.447
85566W        W57182  35.518  37.526   1.918
85567W        W57183  19.971  35.228  13.603
85568W        W57184  32.599  39.746  11.097
85569W        W57185  22.366  28.837   2.249
85570W        W57186  41.522   0.344  12.477
85571W        W57187  29.980  43.613   0.666
85572W        W57188   2.731  24.055   1.647
85573W        W57189  44.841  17.611   1.675
85574W        W57190   9.678  19.230   4.907
85575W        W57191  25.347  14.557  10.184
85576W        W57192   7.155  38.457  11.624
85577W        W57193  41.338  25.545   5.052
85578W        W57194  42.822  17.894   4.091
85579W        W57195  28.690  29.845  10.348
85580W        W57196   1.839  31.357  12.345
85581W        W57197   4.981  26.968  14.824
85582W        W57198  26.092  16.643  14.887
85583W        W57199  33.838  27.005   4.329
85584W        W57200  16.288  44.095   5.269
85585W        W57201   9.933  26.022  11.285
85586W        W57202   1.229  31.161  13.034
85587W        W57203  43.512  25.509   1.810
85588W        W57204  22.607  16.287  12.378
85589W        W57205  38.598  34.462  14.489
85590W        W57206   6.674   5.852  10.690
85591W        W57207  38.926  38.538   1.336
85592W        W57208  19.643  12.802   2.424
85593W        W57209  29.202  28.512  12.994
85594W        W57210   1.739  41.929  12.026
85595W        W57211  39.350   8.192  13.565
85596W        W57212   1.812  12.480   3.045
85597W        W57213  15.246  18.108   1.323
85598W        W57214  44.031  14.661   2.758
85599W        W57215  25.299   5.304  12.068
85600W        W57216   2.428   7.922   2.237
85601W        W57217  43.631   8.770  10.454
85602W        W57218  27.492  21.605   4.806
85603W        W57219  43.406  34.455   0.805
85604W        W57220  36.013  11.084   5.183
85605W        W57221  21.639  28.349  11.198
85606W        W57222  18.252  34.959  10.626
85607W        W57223  21.773  21.211   3.665
85608W        W57224  43.358   9.827  12.500
85609W        W57225   3.313   8.135  14.456
85610W        W57226  41.631  24.754   1.650
85611W        W57227  33.110  26.171   1.210
85612W        W57228  10.710   5.447   4.337
85613W        W57229   3.782  25.138  13.071
85614W        W57230  40.086  41.098  10.718
85615W        W57231  26.704   0.784  12.843
85616W        W57232  13.197  30.838   0.377
85617W        W57233  44.680   4.614  13.250
85618W        W57234  32.415  41.380  13.450
85619W        W57235  39.298   8.327  12.549
85620W        W57236  17.191  39.523  10.537
85621W        W57237  32.035  21.348  10.838
85622W        W57238  35.115   9.881  14.874
85623W        W57239  24.498  39.981   1.290
85624W        W57240   8.380  14.421  13.143
85625W        W57241   3.770  10.126   0.348
85626W        W57242  33.334  42.031  13.973
85627W        W57243   2.487  24.034  12.966
85628W        W57244  24.322   7.397   3.372
85629W        W57245  32.088  34.828   1.226
85630W        W57246   4.241  28.555  12.985
85631W        W57247  36.778   2.373  11.464
85632W        W57248  19.673   4.754   3.146
85633W        W57249  36.384  12.407  14.484
85634W        W57250  22.618   5.685  12.031
85635W        W57251  13.632  18.010   2.730
85636W        W57252  18.889   8.023   3.651
85637W        W57253  34.154  19.683  10.782
85638W        W57254  16.048  19.256   9.919
85639W        W57255  16.812  19.095   0.767
85640W        W57256  41.115  40.752   4.561
85641W        W57257  26.857  42.555  12.882
85642W        W57258  13.123   3.625  10.937
85643W        W57259  17.666  21.185  14.006
85644W        W57260  18.767  29.927   2.230
85645W        W57261  21.522  23.724   1.157
85646W        W57262  11.164  29.628  14.611
85647W        W57263   3.884   4.936  14.837
85648W        W57264  21.030   1.855   0.832
85649W        W57265  27.862  12.767  12.073
85650W        W57266  21.722   6.901  13.620
85651W        W57267  24.742  39.323  12.521
85652W        W57268   3.832  30.432  11.200
85653W        W57269  10.398  11.135   2.619
85654W        W57270  19.155  37.461   4.264
85655W        W57271  16.122  43.785   4.887
85656W        W57272  10.671  22.439   3.432
85657W        W57273   3.897  11.791  10.655
85658W        W57274  37.456  38.132   0.708
85659W        W57275  36.546  21.774  14.069
85660W        W57276   8.920  16.300   2.820
85661W        W57277  39.589  21.496  13.948
85662W        W57278  32.644  44.506   4.973
85663W        W57279  42.771  39.971  12.064
85664W        W57280  14.652   3.211  11.564
85665W        W57281  32.878  11.110   4.094
85666W        W57282  29.061  40.882   4.592
85667W        W57283  35.844  12.262   1.915
85668W        W57284   3.966  24.355   1.203
85669W        W57285  25.047   1.706  13.119
85670W        W57286  23.242  22.745   1.019
85671W        W57287  35.110  25.629  12.447
85672W        W57288  44.203  43.889  13.632
85673W        W57289  17.724  11.630  12.201
85674W        W57290  15.074  18.129   4.064
85675W        W57291  10.274   1.987   4.223
85676W        W57292  32.128  38.345   4.828
85677W        W57293  14.490  14.457   4.115
85678W        W57294  16.549   5.827  10.582
85679W        W57295  11.115  34.887   3.842
85680W        W57296  16.007  33.494   3.468
85681W        W57297   9.995  25.128  11.617
85682W        W57298   7.671  40.795  13.413
85683W        W57299  44.192  31.533   2.762
85684W        W57300   4.903  42.648   2.843
85685W        W57301  20.333  43.903   3.010
85686W        W57302  30.553  32.794   3.645
85687W        W57303  44.688   8.859   1.401
85688W        W57304  35.902   1.221   1.101
85689W        W57305  18.681   0.060  10.613
85690W        W57306  41.847  31.020  13.578
85691W        W57307  12.213   6.387  11.523
85692W        W57308  33.419  44.733   3.432
85693W        W57309  12.877  17.615  12.499
85694W        W57310  17.076  34.088   0.211
85695W        W57311  10.293  39.437  13.831
85696W        W57312  32.395   4.744  14.511
85697W        W57313  13.799  41.294   2.098
85698W        W57314  23.523  11.253  14.646
85699W        W57315  41.246  31.863  10.676
85700W        W57316   0.226  38.298   0.438
85701W        W57317  40.142  42.792   2.318
85702W        W57318  43.604  35.962  13.495
85703W        W57319  33.195  35.857   3.648
85704W        W57320  21.905  20.698  13.937
85705W        W57321  13.190  14.608   1.736
85706W        W57322  25.062  34.904  10.678
85707W        W57323   7.600  34.141   0.786
85708W        W57324  19.022  38.905  11.184
85709W        W57325  31.778  15.723  11.328
85710W        W57326  13.562  12.861  11.115
85711W        W57327  30.539  11.712  14.514
85712W        W57328  33.126  12.796   3.778
85713W        W57329   3.450   7.326  13.341
85714W        W57330  37.653  25.360  14.020
85715W        W57331   5.991  14.821   0.802
85716W        W57332  21.158  27.614  10.653
85717W        W57333  11.203  20.165   4.080
85718W        W57334   4.257   0.765  14.280
85719W        W57335  41.359  13.619  11.684
85720W        W57336  41.127  26.436  13.049
85721W        W57337   4.358  38.419  10.733
85722W        W57338   0.289  36.443   2.151
85723W        W57339  11.750  21.166   2.759
85724W        W57340  24.925  37.862  10.596
85725W        W57341  15.673  23.683   2.082
85726W        W57342  35.321  34.166   0.248
85727W        W57343  42.117  36.487   2.946
85728W        W57344  12.547  24.771   4.087
85729W        W57345  42.280  33.576   1.844
85730W        W57346  21.678  27.099  13.275
85731W        W57347  33.529   2.790   1.914
85732W        W57348   1.275  23.097  10.186
85733W        W57349   3.912   7.155  10.773
85734W        W57350  27.529  41.914   2.867
85735W        W57351   1.662  34.677   0.839
85736W        W57352  25.779  15.748   1.192
85737W        W57353   9.852  11.708  12.845
85738W        W57354  38.670  39.871   4.930
85739W        W57355  25.901  12.825  13.008
85740W        W57356  26.199  19.773  12.100
85741W        W57357   5.862   8.649   2.782
85742W        W57358   2.250  26.765   1.991
85743W        W57359  25.184  30.134  13.983
85744W        W57360  43.753   1.029  11.564
85745W        W57361  41.071  28.162  12.789
85746W        W57362   4.317   6.848   4.328
85747W        W57363  37.122  32.018   2.268
85748W        W57364  13.477  27.664  12.629
85749W        W57365  33.506  24.430   2.426
85750W        W57366  40.904  34.390   3.171
85751W        W57367  41.535  27.966   4.249
85752W        W57368   7.557  43.464   2.230
85753W        W57369  36.017  23.346   1.500
85754W        W57370  30.697  27.868   3.546
85755W        W57371  31.126  37.273  14.338
85756W        W57372  41.586  13.622  12.541
85757W        W57373   4.712  17.523   2.271
85758W        W57374  20.167  22.296  12.051
85759W        W57375   3.666  10.407  12.044
85760W        W57376  27.537  18.856   3.907
85761W        W57377   2.961  22.664   1.406
85762W        W57378   7.432  41.995   0.758
85763W        W57379  23.154   5.472  10.734
85764W        W57380  29.366  39.685   2.825
85765W        W57381  20.638   8.138  10.776
85766W        W57382  22.305  38.248   4.281
85767W        W57383  35.128   2.643   2.803
85768W        W57384  29.602   3.135   0.821
85769W        W57385  13.490   8.332  11.130
85770W        W57386   6.911  32.190   0.455
85771W        W57387  33.515  12.569   4.803
85772W        W57388  24.747  14.891  14.855
85773W        W57389  41.098  39.368   1.920
85774W        W57390   3.179   5.161   3.396
85775W        W57391  36.880  24.825   3.703
85776W        W57392  16.619  32.917   4.608
85777W        W57393  40.033  18.494  12.623
85778W        W57394   2.940  13.896   4.581
85779W        W57395  16.493  30.515   0.462
85780W        W57396   2.766  32.103  11.389
85781W        W57397  41.489  37.004   0.291
85782W        W57398  32.414  32.481  12.161
85783W        W57399  26.459   4.673   3.301
85784W        W57400  14.081  24.699  12.406
85785W        W57401  30.590  30.430  13.971
85786W        W57402   4.331   1.499  13.385
85787W        W57403  37.385  35.614   4.863
85788W        W57404  15.217  34.391  10.922
85789W        W57405  14.521   9.308  14.308
85790W        W57406  34.761  39.262   0.852
85791W        W57407  21.154   7.437   0.934
85792W        W57408  23.797  17.747   0.882
85793W        W57409   6.437   4.987  11.784
85794W        W57410  39.803  23.751   3.282
85795W        W57411  13.421  42.548   5.011
85796W        W57412  30.987   5.006   4.527
85797W        W57413  29.324  40.237  13.020
85798W        W57414  37.023  38.335   2.943
85799W        W57415  22.314  38.215   2.369
85800W        W57416  32.001  14.885   3.634
85801W        W57417  42.409   6.036   0.287
85802W        W57418  14.483  32.397   4.616
85803W        W57419   4.001  16.996  14.432
85804W        W57420  29.423   5.983  11.275
85805W        W57421  34.032  41.847   1.793
85806W        W57422  43.205  33.534   5.227
85807W        W57423  30.746  18.276  11.454
85808W        W57424  34.729  20.590   4.672
85809W        W57425  18.306   3.129   3.274
85810W        W57426   6.314  39.436   3.846
85811W        W57427  35.466   0.377   4.144
85812W        W57428  41.558   4.335  13.761
85813W        W57429  25.337  29.680   1.508
85814W        W57430  14.494   6.779   4.127
85815W        W57431  12.108  42.509   1.881
85816W        W57432  32.027   8.891  14.303
85817W        W57433  32.069  22.343   3.897
85818W        W57434  35.518  21.874   0.235
85819W        W57435  34.707  18.093   0.857
85820W        W57436   1.484  33.477  11.989
85821W        W57437   9.344   9.807  10.639
85822W        W57438   7.280   9.663  10.502
85823W        W57439  43.213  39.966  13.324
85824W        W57440   6.209  36.827   3.772
85825W        W57441  23.982  11.859   1.848
85826W        W57442  31.434  13.167   1.256
85827W        W57443  32.609  42.790  12.039
85828W        W57444   1.004   8.099  12.419
85829W        W57445  17.205   3.128   2.690
85830W        W57446  17.727  21.805  14.360
85831W        W57447   7.176  34.830  11.794
85832W        W57448  23.050   7.389  10.291
85833W        W57449  32.645   0.365   1.397
85834W        W57450   5.273   6.223   1.384
85835W        W57451  43.257  44.875   2.828
85836W        W57452  24.788  27.931  13.379
85837W        W57453  20.504  31.007  13.588
85838W        W57454  44.903  37.607   1.783
85839W        W57455  15.137  31.094  11.498
85840W        W57456  28.936  35.496   4.060
85841W        W57457  26.629  34.664   1.607
85842W        W57458  10.198  32.653  10.695
85843W        W57459  13.933  42.179  14.788
85844W        W57460  16.609   9.703  13.870
85845W        W57461  27.615  13.180   4.561
85846W        W57462   8.626   3.228  12.008
85847W        W57463   3.274  18.678  11.104
85848W        W57464  18.107   4.734  14.945
85849W        W57465  41.532  44.013   0.763
85850W        W57466  39.924   3.524   3.339
85851W        W57467  40.230  37.107   3.184
85852W        W57468  10.293   6.773  10.663
85853W        W57469  22.675  38.299   2.726
85854W        W57470  13.453  32.645  11.809
85855W        W57471   1.773  18.242  13.081
85856W        W57472  32.148  22.140   1.884
85857W        W57473  23.239  15.114   3.731
85858W        W57474  29.011  25.173   3.135
85859W        W57475  36.829  40.794  13.866
85860W        W57476   8.358  36.674   0.243
85861W        W57477  33.595  24.228  12.448
85862W        W57478  35.019  28.966  11.413
85863W        W57479   3.642  44.316  13.026
85864W        W57480  25.538   1.501   1.433
85865W        W57481  10.391  30.779   5.138
85866W        W57482  26.454  25.920  13.891
85867W        W57483  35.652   7.256   4.103
85868W        W57484  15.510  14.549   0.815
85869W        W57485   9.236   0.275  11.966
85870W        W57486   0.443  20.906   1.804
85871W        W57487   7.245  32.067  10.219
85872W        W57488  30.641  33.597  12.525
85873W        W57489  16.814  17.783  11.167
85874W        W57490  20.803  14.287   3.636
85875W        W57491  39.017   3.965   4.024
85876W        W57492   9.614  37.407  11.025
85877W        W57493  18.263  36.245   4.221
85878W        W57494  20.345   9.874   2.245
85879W        W57495  28.981  14.332   4.042
85880W        W57496  11.091  19.886   0.238
85881W        W57497  14.804  33.783  14.897
85882W        W57498  21.716  43.176  11.017
85883W        W57499  43.678  44.719  11.310
85884W        W57500  21.930  25.962  13.563
85885W        W57501  27.382  10.299  11.190
85886W        W57502  12.460  36.919   1.850
85887W        W57503   4.302  37.968   0.895
85888W        W57504   2.169  23.505   4.573
85889W        W57505  27.655  35.867  13.832
85890W        W57506  17.577  41.728  10.846
85891W        W57507  40.053   8.306   3.073
85892W        W57508   4.241  14.542   4.929
85893W        W57509  30.207   1.763   0.671
85894W        W57510  31.555  19.588  10.863
85895W        W57511   6.696   3.867   0.219
85896W        W57512  19.289  36.012  14.579
85897W        W57513   8.342   6.711  11.927
85898W        W57514  19.610  29.102  11.744
85899W        W57515  28.011  36.426   1.883
85900W        W57516   5.056   3.158  11.484
85901W        W57517  40.182  20.075  13.153
85902W        W57518  29.025   9.154   0.356
85903W        W57519  26.055   6.489  14.509
85904W        W57520   1.307  35.817  13.867
85905W        W57521  26.457  33.460   3.189
85906W        W57522   0.092  10.174   2.102
85907W        W57523  28.559  41.900  14.483
85908W        W57524   3.338   0.291   2.161
85909W        W57525  30.571  29.349   3.696
85910W        W57526  43.197  23.123  14.783
85911W        W57527  15.654  27.102   2.400
85912W        W57528  25.256  27.151   3.672
85913W        W57529  23.571  20.503   2.769
85914W        W57530  26.197  17.134   5.149
85915W        W57531  17.310  42.799  14.511
85916W        W57532  12.820  25.111   0.769
85917W        W57533  10.864  24.635   2.650
85918W        W57534  42.145  16.795   1.856
85919W        W57535  12.701   5.185  13.574
85920W        W57536  14.533  34.913  13.043
85921W        W57537  16.983  34.792  11.154
85922W        W57538  44.796   0.036  14.316
85923W        W57539  14.338   4.340  12.355
85924W        W57540  16.555  23.313   2.604
85925W        W57541   8.374  15.784  13.927
85926W        W57542  32.989  37.714   2.299
85927W        W57543  31.998  13.887  10.697
85928W        W57544  44.249   0.766  10.026
85929W        W57545  39.748  36.003  14.018
85930W        W57546  22.612  12.698   4.542
85931W        W57547  11.106  16.666  11.290
85932W        W57548  14.894  39.316   0.269
85933W        W57549  30.849  38.493  14.843
85934W        W57550  35.651   7.300   2.798
85935W        W57551  35.601  39.367   1.743
85936W        W57552  17.171  40.780   0.296
85937W        W57553  10.293  28.174   0.732
85938W        W57554  34.919  30.613   1.373
85939W        W57555  33.058  13.708  11.579
85940W        W57556   3.803  39.349   4.656
85941W        W57557  17.368   3.413   3.101
85942W        W57558  25.031  35.973  12.827
85943W        W57559  31.470  31.056  11.957
85944W        W57560  18.071  26.503   3.741
85945W        W57561  43.250  21.005  11.097
85946W        W57562  12.356  23.182  13.727
85947W        W57563  20.126  25.241  10.545
85948W        W57564  39.801  27.548   3.717
85949W        W57565  44.440  27.478  11.922
85950W        W57566  44.561  30.366  13.102
85951W        W57567  25.576  23.461  12.371
85952W        W57568  34.936   8.182  12.465
85953W        W57569  23.013  26.980   0.804
85954W        W57570   8.993  12.824   2.410
85955W        W57571  25.567  12.693   2.464
85956W        W57572  12.725   3.964   1.244
85957W        W57573   2.239  34.947   4.787
85958W        W57574  31.555  12.221  13.957
85959W        W57575  42.368  31.660   4.536
85960W        W57576  35.847   5.637  14.166
85961W        W57577  38.018  22.301  14.277
85962W        W57578  43.875   7.941  13.780
85963W        W57579  23.652  43.979   1.565
85964W        W57580  33.416  22.281  10.252
85965W        W57581   6.722   1.304  12.092
85966W        W57582  12.281   2.816   3.277
85967W        W57583  13.611   4.394  11.148
85968W        W57584  43.943  18.277   3.395
85969W        W57585   1.186  34.593  13.215
85970W        W57586   3.166  27.265   0.322
85971W        W57587  34.482  44.512  13.831
85972W        W57588   2.339  12.417  11.984
85973W        W57589  10.339   5.589   1.823
85974W        W57590  42.794  11.765   4.662
85975W        W57591   9.295   0.426   1.069
85976W        W57592  10.809  19.028   3.326
85977W        W57593  26.935   7.656  11.972
85978W        W57594  20.177  23.279  12.102
85979W        W57595  34.595  37.450   3.556
85980W        W57596  13.821  10.353   0.334
85981W        W57597  43.404  12.885  14.276
85982W        W57598  27.212  32.058   3.449
85983W        W57599  40.245  10.313   0.417
85984W        W57600  15.444  31.796   4.506
85985W        W57601  24.807  10.800  10.558
85986W        W57602  10.081  22.484  13.490
85987W        W57603  14.895   6.921   2.763
85988W        W57604  18.473  16.589   1.098
85989W        W57605  10.181  26.987  10.635
85990W        W57606  31.381  44.564   1.906
85991W        W57607  28.877   9.841  14.788
85992W        W57608   9.763   6.885  12.041
85993W        W57609  12.645  22.552   3.874
85994W        W57610  26.586  34.201   1.855
85995W        W57611  29.936  44.972  11.987
85996W        W57612  11.301  38.913  14.274
85997W        W57613   9.090  24.986   3.359
85998W        W57614   4.066  21.606  13.360
85999W        W57615  33.908  36.441  12.586
86000W        W57616   5.013   8.563   2.724
86001W        W57617  22.145  38.794   0.881
86002W        W57618  39.927  13.905   0.049
86003W        W57619   4.293  44.905  11.144
86004W        W57620  18.128  25.508  14.745
86005W        W57621   4.535  24.694   4.631
86006W        W57622  34.406  33.579   0.256
86007W        W57623  36.277  39.789  11.163
86008W        W57624  39.063   8.862  13.818
86009W        W57625  40.580  39.478   1.847
86010W        W57626   6.990   2.847   3.634
86011W        W57627  35.918  14.569  11.057
86012W        W57628  13.363  24.170   3.977
86013W        W57629  38.341  25.075   3.347
86014W        W57630  33.079  31.056  14.387
86015W        W57631  11.390   7.394  13.927
86016W        W57632  17.197  29.553   0.433
86017W        W57633  22.114  28.912   2.683
86018W        W57634  27.162  27.073   0.464
86019W        W57635  37.479   6.298  11.187
86020W        W57636  38.468  41.512   2.664
86021W        W57637  37.082  27.521   3.717
86022W        W57638   5.887  44.169  13.963
86023W        W57639  30.628  11.894  10.478
86024W        W57640   2.150   1.494   2.584
86025W        W57641  11.761   9.644  11.604
86026W        W57642  29.687   5.955   2.210
86027W        W57643  10.020  29.994  11.071
86028W        W57644  23.628   8.721  14.628
86029W        W57645  21.679  34.301   4.513
86030W        W57646   8.483   2.801  14.957
86031W        W57647  11.775  19.370   3.694
86032W        W57648  22.813   0.471   4.996
86033W        W57649  21.439  35.207   3.705
86034W        W57650  20.316  27.878   3.743
86035W        W57651   0.334  23.911   4.225
86036W        W57652   1.954  38.442  11.529
86037W        W57653  16.530  15.090   4.547
86038W        W57654   6.311  11.354   2.629
86039W        W57655  11.838  38.049   0.397
86040W        W57656  12.081   2.526   4.888
86041W        W57657  14.668  29.431   3.669
86042W        W57658   5.116  37.489  14.445
86043W        W57659  39.319  33.105  10.845
86044W        W57660  35.401  23.700   0.884
86045W        W57661   9.267   5.352   3.119
86046W        W57662  30.255  34.053  14.892
86047W        W57663  36.009  42.159   5.066
86048W        W57664  31.272  41.398  12.568
86049W        W57665   2.795  11.661  14.315
86050W        W57666  17.491  43.197  12.486
86051W        W57667   6.426   6.806  13.972
86052W        W57668   4.485  12.884  12.548
86053W        W57669   4.457  38.572   3.197
86054W        W57670  36.971  20.596  13.459
86055W        W57671  30.559  16.250  10.670
86056W        W57672   5.878  15.590   3.087
86057W        W57673  12.275   4.628   4.176
86058W        W57674  42.350  36.908   4.303
86059W        W57675   6.572  34.464  12.984
86060W        W57676  33.492  35.519   2.846
86061W        W57677  37.641  23.854   4.249
86062W        W57678  41.291  19.743  11.553
86063W        W57679  13.443   1.869   4.612
86064W        W57680  24.279  39.493  14.415
86065W        W57681   9.196  24.439  12.048
86066W        W57682  23.553   0.251  12.871
86067W        W57683  27.638  20.213  13.145
86068W        W57684  44.812   8.988  12.445
86069W        W57685  19.637  22.988  10.720
86070W        W57686  22.457  43.022  13.691
86071W        W57687  13.161  37.990  12.328
86072W        W57688  18.834  41.192  11.096
86073W        W57689  33.053  41.434   2.950
86074W        W57690  43.430  31.273  11.963
86075W        W57691  22.634   3.288  13.786
86076W        W57692  44.519   2.187  11.535
86077W        W57693   7.768  16.887  10.723
86078W        W57694  22.290   7.158   3.183
86079W        W57695  40.731   4.884  12.968
86080W        W57696   8.274  31.853   3.255
86081W        W57697   2.495  31.548   1.167
86082W        W57698  17.445   5.000   0.667
86083W        W57699  34.484  11.587   4.116
86084W        W57700   7.843   7.376   1.321
86085W        W57701   6.032  39.580  14.949
86086W        W57702  33.212  39.284  10.613
86087W        W57703   3.841   7.625   3.257
86088W        W57704  11.160  35.440   1.258
86089W        W57705  37.058  25.532  13.380
86090W        W57706   5.833   1.988  14.944
86091W        W57707   2.790  34.460   0.235
86092W        W57708  36.108  22.564  12.779
86093W        W57709  42.060  18.993   4.382
86094W        W57710  28.164   3.330  12.555
86095W        W57711  30.739  14.790  14.863
86096W        W57712  19.152  14.070  14.611
86097W        W57713   4.464  15.178  13.912
86098W        W57714   0.414  10.703   4.291
86099W        W57715  21.043  31.130  13.528
86100W        W57716  35.528  39.510   2.674
86101W        W57717   7.850  12.631  11.146
86102W        W57718  28.594  29.588   3.776
86103W        W57719  16.031  35.569  13.438
86104W        W57720  22.012   2.025   3.678
86105W        W57721   8.323  38.466  13.152
86106W        W57722  18.588  19.925   4.290
86107W        W57723  21.267  14.323  12.810
86108W        W57724  26.180  24.677   1.762
86109W        W57725  14.681  36.251   1.249
86110W        W57726  37.566  26.090  11.087
86111W        W57727  39.215   1.102   0.799
86112W        W57728  34.683  33.385   2.826
86113W        W57729  37.613  21.384  11.694
86114W        W57730  27.701   6.011   0.370
86115W        W57731  42.819  17.402   1.797
86116W        W57732  44.796  41.773   4.078
86117W        W57733  27.144   0.265   3.888
86118W        W57734  31.910  27.757   2.015
86119W        W57735  10.890   3.819   4.833
86120W        W57736  44.499  44.653   2.213
86121W        W57737  30.471  24.313  11.379
86122W        W57738   0.413   3.457   1.066
86123W        W57739  32.921  16.703  13.398
86124W        W57740  36.633   9.825  11.505
86125W        W57741  40.460  39.293   1.374
86126W        W57742  21.632  36.010  13.019
86127W        W57743  26.073  21.142  13.821
86128W        W57744  26.004  29.665   2.131
86129W        W57745  31.473  18.191   3.537
86130W        W57746  26.719  12.318  13.399
86131W        W57747  10.713  36.064   3.877
86132W        W57748  16.751  27.819   3.361
86133W        W57749  23.234  27.737  10.599
86134W        W57750  14.413   4.221   2.538
86135W        W57751  32.305  15.008  11.494
86136W        W57752  21.257   1.469   3.737
86137W        W57753  38.088  12.701   0.463
86138W        W57754  30.130   3.613  13.013
86139W        W57755  32.492  15.286   1.136
86140W        W57756  30.446   9.588   3.326
86141W        W57757  22.375  15.842   3.529
86142W        W57758  38.622  31.362   3.559
86143W        W57759  11.213   4.684   1.330
86144W        W57760   6.678  25.643   3.342
86145W        W57761  20.477  39.781   4.029
86146W        W57762  30.566  36.714   5.017
86147W        W57763  34.409   9.825   3.591
86148W        W57764  13.548  41.134  12.500
86149W        W57765  13.531   6.897   2.754
86150W        W57766  27.662  25.134   2.701
86151W        W57767  30.802  22.363   0.310
86152W        W57768  11.696  12.731   4.478
86153W        W57769  26.493  31.194  10.938
86154W        W57770  26.469  35.289  10.398
86155W        W57771  23.138  31.678   2.836
86156W        W57772  43.320  29.032   1.425
86157W        W57773  33.377  32.657  11.554
86158W        W57774  14.713  40.675  12.122
86159W        W57775   8.351  16.329   0.249
86160W        W57776  21.052  14.881  10.968
86161W        W57777  44.402  28.150   1.417
86162W        W57778  16.574  20.172   2.381
86163W        W57779   8.719   4.655   0.722
86164W        W57780   9.780  41.321  11.070
86165W        W57781   2.648  28.017   2.301
86166W        W57782  40.844  11.293   1.674
86167W        W57783  35.068  22.255   4.625
86168W        W57784  26.962   4.475   4.042
86169W        W57785   8.890   0.808   3.612
86170W        W57786   2.014  40.736  14.002
86171W        W57787  41.287   0.262  11.987
86172W        W57788   7.623  28.042   2.476
86173W        W57789   2.508  39.075  11.952
86174W        W57790  33.659  19.717  10.680
86175W        W57791  15.643  36.222  12.083
86176W        W57792   7.473  15.717   4.144
86177W        W57793  31.631   6.708  13.787
86178W        W57794  32.124  31.448   0.977
86179W        W57795   2.779  16.135  10.797
86180W        W57796  25.397   8.308  11.420
86181W        W57797  38.781  17.718   4.552
86182W        W57798  42.521  23.151   2.829
86183W        W57799  13.639  33.136  13.903
86184W        W57800   1.889  15.578  12.990
86185W        W57801  30.946   9.240  11.663
86186W        W57802  23.495  44.500   3.231
86187W        W57803   2.890  36.508  12.974
86188W        W57804  28.027  17.229   3.812
86189W        W57805  10.623  34.413  14.354
86190W        W57806  10.992  41.264   3.901
86191W        W57807  17.704   3.980  14.967
86192W        W57808   3.335  19.592   4.891
86193W        W57809  42.029  23.713  13.005
86194W        W57810  22.563  40.757  13.816
86195W        W57811   6.477  10.303  12.474
86196W        W57812  19.133  30.859  14.264
86197W        W57813  43.455  37.035  14.487
86198W        W57814  43.031  20.837  14.866
86199W        W57815   5.878  15.419  11.178
86200W        W57816  27.566  24.521  10.323
86201W        W57817   1.009  14.100   2.413
86202W        W57818  17.522  13.761  13.388
86203W        W57819  40.813  26.405   4.242
86204W        W57820  40.827  38.397  13.612
86205W        W57821  31.003  37.828   3.376
86206W        W57822  31.029  37.894   1.409
86207W        W57823  39.992  36.052   1.501
86208W        W57824  44.934  29.440   3.223
86209W        W57825  43.476  42.758  13.938
86210W        W57826   1.485  32.576  10.761
86211W        W57827   7.907  22.224   3.746
86212W        W57828   5.124   6.839   3.274
86213W        W57829  41.941   3.795  13.302
86214W        W57830   9.298  17.621   3.541
86215W        W57831  20.018  23.009  13.568
86216W        W57832  15.330  17.137  10.687
86217W        W57833   2.168  24.651  13.748
86218W        W57834  19.103  34.475   3.203
86219W        W57835  38.777  28.490  12.466
86220W        W57836  11.200   8.872   1.714
86221W        W57837  13.208  18.725  13.405
86222W        W57838   6.776   9.421  13.130
86223W        W57839  41.583  37.482  13.565
86224W        W57840  10.374  40.094   4.219
86225W        W57841  38.438  33.358   3.588
86226W        W57842  44.273  25.474   3.189
86227W        W57843  22.049  24.579  12.879
86228W        W57844  34.896  19.846  12.436
86229W        W57845  21.195  31.290   4.135
86230W        W57846  28.620  40.061   0.322
86231W        W57847  27.157  41.277   4.810
86232W        W57848  38.114   7.149  10.589
86233W        W57849  12.666  30.144   2.239
86234W        W57850  14.131  18.666  12.980
86235W        W57851  21.175  40.773  11.517
86236W        W57852  44.310   4.803   4.623
86237W        W57853  17.754  27.938   4.870
86238W        W57854   3.768  37.458  10.358
86239W        W57855  10.096  20.744  11.514
86240W        W57856  44.692   2.964   1.692
86241W        W57857   8.397  10.179  13.367
86242W        W57858  39.452  23.276   4.191
86243W        W57859   9.318   3.792   1.381
86244W        W57860   5.325  34.799   1.300
86245W        W57861  30.692   6.467  10.978
86246W        W57862  16.835  33.451  11.938
86247W        W57863  37.766  35.603   4.497
86248W        W57864   2.527  15.862  14.578
86249W        W57865  26.670  33.897  11.549
86250W        W57866  28.510   1.468   0.968
86251W        W57867   3.939  18.862   4.695
86252W        W57868  15.607  14.355   0.337
86253W        W57869  31.043  28.671   4.000
86254W        W57870  28.554  26.368   4.402
86255W        W57871   2.848  34.386   2.964
86256W        W57872   4.784  43.798  13.344
86257W        W57873  26.239   8.216   0.792
86258W        W57874  22.772   3.062   2.593
86259W        W57875  39.569  25.511  13.006
86260W        W57876  10.101  33.058  14.439
86261W        W57877   7.882  36.002  12.492
86262W        W57878  26.993  16.530   2.779
86263W        W57879   5.581   1.339  12.017
86264W        W57880   3.465  43.833  13.042
86265W        W57881   6.485  10.737  12.058
86266W        W57882   1.350  29.538   4.522
86267W        W57883  12.861  20.680  11.506
86268W        W57884  24.717   6.346   3.725
86269W        W57885  18.781  10.577  10.998
86270W        W57886  16.625  14.851   1.654
86271W        W57887  13.592  29.890   0.235
86272W        W57888  14.831  34.392   1.763
86273W        W57889  21.508   1.812   2.224
86274W        W57890  29.891   9.281  11.602
86275W        W57891  41.770  43.084  14.393
86276W        W57892  31.211   8.407   3.710
86277W        W57893  15.890   9.268  14.729
86278W        W57894  19.221  42.849  12.309
86279W        W57895  39.570  39.823  14.669
86280W        W57896  15.810  32.913  11.135
86281W        W57897  35.363  34.034   3.244
86282W        W57898  17.651  36.115   2.663
86283W        W57899  23.181  27.467  11.049
86284W        W57900  43.271  34.389   3.129
86285W        W57901  34.969  41.087  13.784
86286W        W57902  20.107  36.485   4.532
86287W        W57903  20.482  22.965  10.758
86288W        W57904   7.072  17.872   4.221
86289W        W57905  20.800  32.670  13.762
86290W        W57906  21.071   3.937  13.378
86291W        W57907  20.635  12.641  12.359
86292W        W57908   5.497  12.816  14.453
86293W        W57909  34.314  23.130   4.232
86294W        W57910  18.728  23.451  11.663
86295W        W57911   3.784   6.511  10.352
86296W        W57912  15.126  26.114   0.447
86297W        W57913  10.445  31.871   4.817
86298W        W57914  38.798  13.325  11.026
86299W        W57915  19.810  12.431  13.390
86300W        W57916  27.123   0.852   4.691
86301W        W57917  40.435   5.310  13.153
86302W        W57918  32.325   5.790  10.594
86303W        W57919  27.969  17.243   4.631
86304W        W57920  35.834  12.003  14.873
86305W        W57921  19.721  18.890  14.535
86306W        W57922  10.053  41.524   4.953
86307W        W57923  33.516  33.867  12.819
86308W        W57924  23.738  11.095   1.723
86309W        W57925  21.182   0.536  14.334
86310W        W57926   4.704   2.618  13.069
86311W        W57927  37.109  10.925  12.546
86312W        W57928  38.114   4.371   1.376
86313W        W57929  23.838  41.102   0.808
86314W        W57930  18.064  10.729   1.443
86315W        W57931   6.710  26.899  14.545
86316W        W57932  21.059  40.102   2.601
86317W        W57933   5.882  36.333   2.270
86318W        W57934  37.485  32.461  14.302
86319W        W57935  39.347  19.597  10.691
86320W        W57936  43.469  25.041  13.534
86321W        W57937  27.370  20.616  13.340
86322W        W57938   0.904  26.983  10.692
86323W        W57939  30.136  24.164   3.162
86324W        W57940  35.109   4.150  12.763
86325W        W57941  20.095  28.710  12.013
86326W        W57942  25.311  38.946  14.760
86327W        W57943  32.975  42.329  12.361
86328W        W57944   8.700  31.453   2.555
86329W        W57945  23.666  15.123  11.626
86330W        W57946  44.966  44.352   2.111
86331W        W57947   0.034  22.590  13.888
86332W        W57948  16.851  39.463  13.785
86333W        W57949  40.244   6.584  11.172
86334W        W57950  41.014  42.940  10.076
86335W        W57951   9.187  22.283   4.098
86336W        W57952  42.379  31.964   3.573
86337W        W57953  28.681  19.657   3.210
86338W        W57954  18.893  42.935   0.234
86339W        W57955  36.085  25.214  13.069
86340W        W57956  38.356  24.255  13.349
86341W        W57957   5.705  23.446   4.641
86342W        W57958  16.935  16.169  14.341
86343W        W57959  44.444  32.451  13.095
86344W        W57960  37.592   1.481  14.884
86345W        W57961  37.601  31.041  13.078
86346W        W57962  41.874  36.510  12.376
86347W        W57963  29.078  44.935  12.548
86348W        W57964  25.610   8.473  12.313
86349W        W57965  30.394  18.177   1.490
86350W        W57966  22.992   3.399   3.633
86351W        W57967  20.946  36.447  10.758
86352W        W57968  21.993  10.299   3.644
86353W        W57969  19.706   0.886   0.252
86354W        W57970  34.103  26.391  11.914
86355W        W57971   0.390  21.553  12.449
86356W        W57972  42.923  38.542   9.894
86357W        W57973  24.057  17.222  12.386
86358W        W57974  24.679  23.309  11.938
86359W        W57975   8.352   8.787  11.451
86360W        W57976  38.139  39.091   3.541
86361W        W57977  13.824  23.718  14.975
86362W        W57978  26.036  36.999   0.952
86363W        W57979  43.889  22.531   4.949
86364W        W57980  20.152   8.560   5.194
86365W        W57981  39.407  10.145  12.296
86366W        W57982   9.614  20.187   2.710
86367W        W57983  41.282  16.693  11.352
86368W        W57984   7.733  21.980   3.250
86369W        W57985  44.451  21.740  10.780
86370W        W57986  42.292  27.650  13.859
86371W        W57987  43.890  13.347   3.199
86372W        W57988  39.585  24.509   4.505
86373W        W57989  15.351  19.174  12.959
86374W        W57990  42.317  28.970   1.673
86375W        W57991   3.114   8.205   0.235
86376W        W57992  33.646  36.035  11.632
86377W        W57993  43.824  19.996  10.402
86378W        W57994  18.152  41.581  11.592
86379W        W57995   9.303  44.502  10.691
86380W        W57996  28.420   7.143   4.667
86381W        W57997  39.545  38.525   1.959
86382W        W57998  22.495   0.848  11.465
86383W        W57999  25.726  36.575  13.806
86384W        W58000   1.322  27.059  14.111
86385W        W58001   7.104  33.053  12.435
86386W        W58002  39.341   9.384   3.583
86387W        W58003  15.781  10.340  13.351
86388W        W58004  27.542  40.937  12.853
86389W        W58005  18.772  22.090  13.877
86390W        W58006  44.473  25.795  12.081
86391W        W58007  28.150  19.118   0.366
86392W        W58008   8.143   1.538  14.888
86393W        W58009  20.555  37.907  13.359
86394W        W58010  10.312  16.079   3.996
86395W        W58011  22.579  36.460  14.346
86396W        W58012  28.710   2.490   3.166
86397W        W58013  35.676  29.996  11.573
86398W        W58014   5.541  16.435  12.429
86399W        W58015   4.878   9.695  13.937
86400W        W58016  12.768  41.443  11.559
86401W        W58017  36.580  30.930   4.921
86402W        W58018   0.078  44.753   1.207
86403W        W58019  39.481  36.534  13.336
86404W        W58020  40.441  10.742   0.694
86405W        W58021  36.870   9.476   1.958
86406W        W58022  34.882   1.993  11.463
86407W        W58023   1.865  33.745  11.110
86408W        W58024  15.173  23.696  12.343
86409W        W58025   2.272  30.203   0.421
86410W        W58026  35.424  38.880   1.819
86411W        W58027   9.474  29.953   0.931
86412W        W58028  21.896  35.345   1.171
86413W        W58029  44.813  44.240  14.817
86414W        W58030  26.591  13.475  10.794
86415W        W58031  20.141  27.145  10.660
86416W        W58032  12.808  12.253   1.886
86417W        W58033  22.642  16.412  14.024
86418W        W58034  20.098  40.029   0.862
86419W        W58035  15.690   7.335  13.786
86420W        W58036  16.042   1.017   3.497
86421W        W58037  10.718  22.039   0.831
86422W        W58038  42.031   1.438   4.824
86423W        W58039  22.840   8.815   1.221
86424W        W58040   9.298  16.724   3.173
86425W        W58041  36.020  26.445  14.927
86426W        W58042  21.076   5.937   0.993
86427W        W58043  42.542  44.329  13.021
86428W        W58044  37.511  17.292   3.293
86429W        W58045  44.862  30.679   3.744
86430W        W58046  29.992   7.438   2.250
86431W        W58047  21.978   1.525  13.844
86432W        W58048  13.361  25.159  13.896
86433W        W58049  27.613  28.020  11.398
86434W        W58050  36.063   9.476  12.360
86435W        W58051   4.770  20.161   0.284
86436W        W58052   1.895  23.046  11.002
86437W        W58053   9.619   7.291  14.996
86438W        W58054  22.206  24.394   4.838
86439W        W58055  26.237   9.301   2.734
86440W        W58056  36.633   1.364  13.822
86441W        W58057  25.066  30.010  13.465
86442W        W58058  29.379   7.543  14.377
86443W        W58059  44.911  42.931   4.558
86444W        W58060  30.952  12.223   1.610
86445W        W58061  27.743  21.201   1.763
86446W        W58062  18.540   4.740  13.583
86447W        W58063  38.498  44.498   1.867
86448W        W58064   7.186  24.227   0.399
86449W        W58065  31.345   3.769  12.390
86450W        W58066   2.870  41.041   3.851
86451W        W58067  22.226   4.145  12.483
86452W        W58068  39.366  12.860  10.574
86453W        W58069  15.047  27.063   2.418
86454W        W58070  11.273   6.654   3.800
86455W        W58071  29.372  37.489  13.574
86456W        W58072  32.957  30.876  14.871
86457W        W58073   4.330  12.223   2.725
86458W        W58074  34.492  33.372   3.315
86459W        W58075   0.733   9.214  14.419
86460W        W58076  42.470  18.255   4.582
86461W        W58077   1.991  33.457   3.805
86462W        W58078  35.096  42.247   3.845
86463W        W58079  23.906  38.950  11.704
86464W        W58080  39.633   0.372  11.586
86465W        W58081  15.033  10.346  11.673
86466W        W58082  33.902  42.596  12.979
86467W        W58083  32.063   8.979   0.856
86468W        W58084  32.669  30.540  10.830
86469W        W58085   9.180   0.368  13.292
86470W        W58086  10.927  19.623   3.765
86471W        W58087  28.049  35.176   1.364
86472W        W58088  28.092  37.813   4.827
86473W        W58089  36.780  13.051  10.252
86474W        W58090  22.255   5.112  14.908
86475W        W58091  12.664   7.888  11.548
86476W        W58092  38.415  13.841   0.342
86477W        W58093   5.911  18.797  11.617
86478W        W58094  35.775  40.442   5.052
86479W        W58095  23.381  40.196  13.936
86480W        W58096   3.336   2.860   3.167
86481W        W58097  12.730  43.561   4.562
86482W        W58098   6.937  24.196  14.946
86483W        W58099  42.978   7.359   4.581
86484W        W58100  35.939  43.529  11.092
86485W        W58101   6.353  17.718  12.505
86486W        W58102  33.508  35.062   1.398
86487W        W58103  26.148   3.002   3.573
86488W        W58104  13.574  38.064  11.149
86489W        W58105  38.591  11.119  11.169
86490W        W58106   3.658  43.429  13.947
86491W        W58107  44.249  27.593   9.965
86492W        W58108  15.510  29.367  11.207
86493W        W58109  35.024  43.037  14.313
86494W        W58110  41.977  36.745  11.930
86495W        W58111  44.938   6.661   0.270
86496W        W58112  44.267  10.412   3.666
86497W        W58113  40.959   6.470  14.114
86498W        W58114   4.361   3.669   2.758
86499W        W58115  31.608   9.913   1.045
86500W        W58116  14.574  13.572   2.163
86501W        W58117  10.281   9.685   1.074
86502W        W58118  42.865  38.998  12.388
86503W        W58119  36.023  42.591   2.238
86504W        W58120   2.719  39.450  13.058
86505W        W58121   7.266  41.094  13.338
86506W        W58122  27.296  38.717   0.241
86507W        W58123  33.450  31.557  10.516
86508W        W58124  32.286   1.972   9.851
86509W        W58125  28.646  19.791  14.972
86510W        W58126  18.769   4.844  14.026
86511W        W58127  26.176  42.565   1.697
86512W        W58128  27.717  28.196  10.383
86513W        W58129  30.561   6.998  15.000
86514W        W58130  28.859   5.370  10.639
86515W        W58131  26.624  43.453  12.934
86516W        W58132  24.771  34.347  13.381
86517W        W58133  20.187  15.081   4.150
86518W        W58134  26.639   3.391   1.856
86519W        W58135   2.373  24.607  12.328
86520W        W58136   9.464  34.656  10.829
86521W        W58137  28.638  23.387   0.432
86522W        W58138  44.684  33.958   3.986
86523W        W58139   0.042   6.240   4.035
86524W        W58140  14.597  34.323  13.804
86525W        W58141  41.814  36.403  13.371
86526W        W58142  13.090  12.628  13.911
86527W        W58143  22.520  37.359   2.866
86528W        W58144  42.022   6.535  13.937
86529W        W58145  13.784  32.533   3.102
86530W        W58146  39.882  24.217  13.170
86531W        W58147   6.436  43.015   2.818
86532W        W58148  26.499  13.440  13.094
86533W        W58149  11.156  24.449  14.471
86534W        W58150  11.882  10.314   0.257
86535W        W58151   4.299  37.768  14.748
86536W        W58152   6.422  11.402   4.525
86537W        W58153  35.644  44.778  11.116
86538W        W58154   8.571  11.216   1.513
86539W        W58155  11.751  37.516  12.135
86540W        W58156  44.661   5.364  11.175
86541W        W58157  35.839   7.396   0.381
86542W        W58158   3.483  31.500  12.516
86543W        W58159   0.780  22.798   2.183
86544W        W58160  13.101  15.857  11.741
86545W        W58161  22.250  37.988   2.836
86546W        W58162  20.877  38.344   0.336
86547W        W58163  41.871  11.819   4.614
86548W        W58164  22.650  10.650   3.158
86549W        W58165   9.678  38.742  11.376
86550W        W58166  38.823   2.828  12.439
86551W        W58167  15.672   7.826  14.051
86552W        W58168  15.277  22.524   0.882
86553W        W58169   6.256  16.040   4.684
86554W        W58170  37.370   9.692   2.856
86555W        W58171  27.027  41.424   2.126
86556W        W58172   1.947  18.694   3.839
86557W        W58173  21.816  41.041  11.181
86558W        W58174  38.499  29.939   5.082
86559W        W58175  25.605  40.441   0.219
86560W        W58176  27.867  19.549  11.155
86561W        W58177  21.620  44.323   1.228
86562W        W58178  18.558  21.150   4.477
86563W        W58179  30.115   0.991  13.637
86564W        W58180  27.536  18.787   1.879
86565W        W58181   0.024   6.218   2.369
86566W        W58182  30.015  32.118  14.312
86567W        W58183  13.573   3.821  14.439
86568W        W58184  39.066   9.584   2.220
86569W        W58185  16.151   3.606  11.997
86570W        W58186  14.116   5.426  11.479
86571W        W58187  34.457  17.279   1.442
86572W        W58188   5.749  20.410   2.657
86573W        W58189  26.410  43.392   4.201
86574W        W58190  42.301  30.497   2.657
86575W        W58191   8.714  36.135   5.312
86576W        W58192   2.830  37.600  14.976
86577W        W58193  21.581  43.061   3.331
86578W        W58194  23.609  24.653  12.000
86579W        W58195   6.328  12.554   3.201
86580W        W58196  34.376  42.508   0.012
86581W        W58197  24.644  20.944  12.579
86582W        W58198  10.731  37.025   3.557
86583W        W58199   1.201  41.370  12.262
86584W        W58200  14.969  41.967   3.441
86585W        W58201  22.102  17.154   2.586
86586W        W58202  22.565   0.349   2.707
86587W        W58203  29.131  13.327  14.321
86588W        W58204  34.169  31.045   1.317
86589W        W58205  33.382   7.810  13.023
86590W        W58206  19.258  26.552  13.814
86591W        W58207  41.693  24.237   2.638
86592W        W58208  44.806  16.731   0.285
86593W        W58209  22.638  31.390  11.196
86594W        W58210  12.385  27.431  12.054
86595W        W58211  12.263  37.634   3.159
86596W        W58212  39.969   7.035  12.463
86597W        W58213  39.158  44.992  10.720
86598W        W58214  14.518  39.070  10.380
86599W        W58215  18.794   6.143  12.910
86600W        W58216   6.388  13.236   1.162
86601W        W58217  37.386   0.365   2.248
86602W        W58218  15.063  24.672  13.045
86603W        W58219  17.958   0.046  10.216
86604W        W58220   1.919  18.629   4.346
86605W        W58221  40.863   0.976   0.775
86606W        W58222  29.963  33.093  14.710
86607W        W58223  27.626  17.802  12.889
86608W        W58224  41.741  13.724  12.059
86609W        W58225  23.469  14.775  13.439
86610W        W58226  30.184  15.626   0.838
86611W        W58227  12.837  10.122  12.012
86612W        W58228  16.460  14.637  12.346
86613W        W58229  33.944  32.556  13.604
86614W        W58230  20.562   6.444  12.474
86615W        W58231  43.331  40.586  11.854
86616W        W58232  17.025   0.930   3.216
86617W        W58233  32.625  41.490   1.164
86618W        W58234  41.782  24.950   0.596
86619W        W58235  12.117  37.564  10.500
86620W        W58236  30.679  31.608  14.363
86621W        W58237  16.902  44.384  13.024
86622W        W58238  22.032   3.329   0.666
86623W        W58239   6.756   9.469  14.070
86624W        W58240  31.369  30.822   1.341
86625W        W58241   9.683  26.831  10.719
86626W        W58242  43.983  29.008  13.500
86627W        W58243  29.484  44.632  12.598
86628W        W58244  44.104  19.765  11.280
86629W        W58245  12.699  28.115   1.276
86630W        W58246  43.588  37.515   3.651
86631W        W58247  33.134  39.978   2.828
86632W        W58248  42.219  24.771  13.221
86633W        W58249  36.473  15.116  10.470
86634W        W58250  22.742   9.192   2.403
86635W        W58251  19.182   6.405   3.303
86636W        W58252   2.874  32.600   4.092
86637W        W58253  26.050   5.273   1.151
86638W        W58254  28.209  38.100  12.128
86639W        W58255  41.824  27.032  11.129
86640W        W58256   8.252  23.933  12.437
86641W        W58257   1.140  40.865   1.336
86642W        W58258   0.510  23.463   0.300
86643W        W58259  43.988  13.283  10.452
86644W        W58260  33.767  21.543  13.553
86645W        W58261  42.046   0.178  12.367
86646W        W58262  25.633  15.033   3.742
86647W        W58263  17.690  40.984   4.278
86648W        W58264  14.169  37.095  12.480
86649W        W58265  23.237   7.402   1.169
86650W        W58266  24.941   4.969   3.427
86651W        W58267  22.800  23.925   3.332
86652W        W58268  42.504  42.065   4.917
86653W        W58269   6.393   9.795   0.408
86654W        W58270  36.501  35.038  11.914
86655W        W58271  31.351  17.238  11.212
86656W        W58272  10.322  42.780  14.443
86657W        W58273   5.523  15.168   1.863
86658W        W58274  35.816  40.145  12.023
86659W        W58275  41.903  15.341  12.777
86660W        W58276  33.449  38.937  10.298
86661W        W58277  27.652  23.708  11.792
86662W        W58278   5.333   8.399   0.860
86663W        W58279   6.964  34.367  11.996
86664W        W58280  23.609  39.741   3.310
86665W        W58281   8.153  11.130  12.444
86666W        W58282  19.177   7.921   1.707
86667W        W58283  36.858  40.050   1.795
86668W        W58284  17.194  17.092   3.265
86669W        W58285  31.913  23.648  12.924
86670W        W58286  29.182  32.580  14.393
86671W        W58287   4.240  18.094   3.464
86672W        W58288   7.809  33.343  14.489
86673W        W58289  32.827  19.541  10.991
86674W        W58290  31.951  43.391  11.958
86675W        W58291  10.852  41.010   4.354
86676W        W58292   2.098  10.925   3.640
86677W        W58293  10.635  44.912   2.332
86678W        W58294  14.559  20.660  10.647
86679W        W58295   1.812  10.200   3.916
86680W        W58296   6.454  41.398  10.655
86681W        W58297  38.373   5.048   1.875
86682W        W58298  12.779   0.430   2.611
86683W        W58299  42.831   7.770   0.256
86684W        W58300   0.574  19.271   2.054
86685W        W58301  33.789  44.874  13.719
86686W        W58302  42.911  22.498   4.054
86687W        W58303  32.949  10.658  13.944
86688W        W58304  20.139   9.927  10.737
86689W        W58305   4.349  31.843   4.503
86690W        W58306  23.651  26.758  12.824
86691W        W58307  30.530  26.628  10.996
86692W        W58308  28.639  32.117  11.957
86693W        W58309  17.236  40.347   0.575
86694W        W58310  19.137  25.086   1.918
86695W        W58311  30.594   6.199  11.799
86696W        W58312  36.950  20.443   1.714
86697W        W58313  14.073   2.876  12.577
86698W        W58314  39.863  14.931  14.966
86699W        W58315  14.845  27.113  13.873
86700W        W58316  21.846  15.845  14.377
86701W        W58317  32.067  34.961   0.243
86702W        W58318  18.118   6.987  14.300
86703W        W58319  41.941  20.595   2.375
86704W        W58320  16.654  42.454   3.382
86705W        W58321   9.703  19.536  11.436
86706W        W58322   5.164  12.393   0.243
86707W        W58323  33.890   2.495   5.056
86708W        W58324  30.431  11.345   2.597
86709W        W58325  30.652   1.156  11.602
86710W        W58326  20.716   0.487   2.687
86711W        W58327  26.419  19.079  11.164
86712W        W58328   1.903   4.909  11.851
86713W        W58329  30.234  42.303  10.988
86714W        W58330   5.193  18.849  11.158
86715W        W58331  39.569   8.158   4.572
86716W        W58332  23.062  25.456  12.080
86717W        W58333  19.087  14.502   3.556
86718W        W58334  36.053  30.859  14.236
86719W        W58335  33.487  22.719   2.927
86720W        W58336   8.006  32.514   4.310
86721W        W58337  14.746  25.590   4.108
86722W        W58338  15.030  20.463   2.944
86723W        W58339  26.151  11.422  14.269
86724W        W58340  11.839  15.610   0.390
86725W        W58341  36.865  25.747   1.728
86726W        W58342  13.663  37.218   1.163
86727W        W58343  35.426   8.163   3.740
86728W        W58344  27.496  13.439   4.108
86729W        W58345  19.219  26.638  11.177
86730W        W58346  41.549  28.725   1.729
86731W        W58347  30.371  34.465  11.927
86732W        W58348  37.260  24.662  10.975
86733W        W58349  20.774   6.274   1.312
86734W        W58350  30.975  44.245  14.636
86735W        W58351  41.564  11.993   4.194
86736W        W58352   2.508  22.528   4.584
86737W        W58353   4.776  30.570  14.158
86738W        W58354  43.761  26.702  11.630
86739W        W58355  11.850  32.012   3.512
86740W        W58356   5.255  34.496  11.838
86741W        W58357   9.876  26.121   4.032
86742W        W58358  14.856  10.928  11.144
86743W        W58359  10.212  29.542  12.697
86744W        W58360  39.430   6.703  13.748
86745W        W58361  40.928  14.264   3.659
86746W        W58362  15.451  18.617  14.379
86747W        W58363   0.293  16.533  11.625
86748W        W58364  21.104  21.054  13.847
86749W        W58365  37.672   7.462  10.357
86750W        W58366   5.811  39.298  14.581
86751W        W58367  36.615  15.091   1.855
86752W        W58368   1.305  38.855  13.433
86753W        W58369   8.696  35.211   0.779
86754W        W58370  26.986  37.109  10.708
86755W        W58371  32.138  36.241   2.388
86756W        W58372  22.543  41.058   2.405
86757W        W58373   5.726  30.288  14.926
86758W        W58374  23.829   0.903  13.787
86759W        W58375   2.985  38.114  14.551
86760W        W58376  23.361  37.280   4.095
86761W        W58377  24.050  27.137  13.780
86762W        W58378  28.945  17.645  11.027
86763W        W58379  42.531  33.510   4.641
86764W        W58380  41.025  41.598   4.137
86765W        W58381   3.325   6.734   0.709
86766W        W58382  42.268  30.138   4.260
86767W        W58383  17.985  12.308  12.983
86768W        W58384   6.106  32.160   1.633
86769W        W58385  22.667  19.800   0.439
86770W        W58386  17.191  11.375   2.814
86771W        W58387  30.521  35.531  11.201
86772W        W58388  34.804  41.447   0.455
86773W        W58389  25.698  17.304   5.111
86774W        W58390  44.185  14.661   4.196
86775W        W58391  28.978  27.508  11.042
86776W        W58392  27.530  19.165   2.683
86777W        W58393  22.857  21.044  12.670
86778W        W58394  13.108   7.769  14.324
86779W        W58395  18.304  43.494   5.591
86780W        W58396   5.359  34.404   4.639
86781W        W58397  26.644  41.245  11.944
86782W        W58398  28.630   4.885  14.904
86783W        W58399  30.237  29.707  12.019
86784W        W58400  37.097  33.582   2.567
86785W        W58401  13.595  36.906  12.621
86786W        W58402  13.172  26.117  10.640
86787W        W58403  25.219  13.331  13.540
86788W        W58404  23.025  21.854  13.822
86789W        W58405  28.668  17.741  14.806
86790W        W58406  44.228  35.151   2.087
86791W        W58407  25.639  38.596   1.255
86792W        W58408  42.292   6.793   4.181
86793W        W58409  35.998  18.062   4.016
86794W        W58410  27.628  23.095  14.423
86795W        W58411  14.773   9.129  10.483
86796W        W58412  27.045  25.234  10.745
86797W        W58413   3.894  41.966  11.681
86798W        W58414  31.553  37.066   3.199
86799W        W58415  11.690  15.138  12.028
86800W        W58416  24.271  25.712   2.085
86801W        W58417  13.287  18.536  14.727
86802W        W58418  21.909  12.629  14.979
86803W        W58419  35.907   3.357  11.913
86804W        W58420  25.000  15.505   3.235
86805W        W58421  33.230   2.206   4.487
86806W        W58422  38.940  39.963   0.368
86807W        W58423  19.976   1.448  13.022
86808W        W58424  15.044  14.579  14.111
86809W        W58425   3.962  20.350   0.885
86810W        W58426  31.615  44.742   1.448
86811W        W58427   3.770  39.090  14.968
86812W        W58428  12.739  41.075   0.323
86813W        W58429  29.962  13.891  13.945
86814W        W58430  27.118  28.398   4.609
86815W        W58431  21.267  40.372   1.721
86816W        W58432  28.135  41.684  10.614
86817W        W58433   6.720  21.761  14.391
86818W        W58434  27.035  25.131   0.177
86819W        W58435   7.746  28.166   2.002
86820W        W58436  39.468  42.009   1.879
86821W        W58437  40.294  14.946  13.368
86822W        W58438  27.214  34.978  10.971
86823W        W58439  44.508   3.431  14.290
86824W        W58440   0.711  13.731  11.041
86825W        W58441  23.496  10.142   4.454
86826W        W58442  26.402  11.645  12.981
86827W        W58443  19.667  33.554   4.581
86828W        W58444  34.567  21.796  11.202
86829W        W58445  18.483  34.216  14.293
86830W        W58446   0.355  11.162   1.232
86831W        W58447  17.500  20.265  11.072
86832W        W58448  11.957  34.913  13.336
86833W        W58449  33.898   3.844  13.505
86834W        W58450  11.209  30.063  10.662
86835W        W58451  20.961  44.645  11.292
86836W        W58452  12.301   2.886  12.269
86837W        W58453  42.912  13.852   4.119
86838W        W58454   4.572   8.430   0.362
86839W        W58455  28.470  24.629  13.521
86840W        W58456  12.777  41.545   1.036
86841W        W58457  19.310  39.328  13.239
86842W        W58458  40.832   5.378  13.505
86843W        W58459   3.217  25.161  14.936
86844W        W58460  26.449   0.877  14.205
86845W        W58461  41.522  35.503   2.111
86846W        W58462  16.073  23.696   1.743
86847W        W58463  22.550  39.873   2.772
86848W        W58464  18.295  30.489   3.259
86849W        W58465   9.851  40.839   4.204
86850W        W58466  24.200  27.621  13.907
86851W        W58467  19.661   0.205  11.282
86852W        W58468   9.367  43.990  12.319
86853W        W58469  25.729  13.869  12.416
86854W        W58470  34.364  23.159   0.468
86855W        W58471  40.555  36.895  12.029
86856W        W58472  27.055  15.796  10.746
86857W        W58473  20.586  17.751   3.147
86858W        W58474  10.210  22.684   1.177
86859W        W58475  10.151  42.414   3.595
86860W        W58476  16.302  40.226  13.945
86861W        W58477  14.290  17.675  13.963
86862W        W58478   2.462  15.686   0.972
86863W        W58479  23.301  18.099  13.491
86864W        W58480   6.891  13.851   0.820
86865W        W58481  20.501   0.322  13.821
86866W        W58482   8.199   4.853  14.529
86867W        W58483  38.852  42.096   0.381
86868W        W58484  25.236  44.889  13.280
86869W        W58485   2.497   0.711   0.600
86870W        W58486  39.684   0.050   0.292
86871W        W58487  28.349  19.506  11.277
86872W        W58488  27.028  10.456   0.301
86873W        W58489   6.789  15.724   2.738
86874W        W58490  31.529   4.630  11.603
86875W        W58491   6.395  28.957  10.704
86876W        W58492  35.259  39.963   3.592
86877W        W58493  43.663  19.907  14.251
86878W        W58494  29.204   0.421   2.251
86879W        W58495  10.474  38.302   1.243
86880W        W58496   9.233  15.388  12.537
86881W        W58497  17.857   0.897   0.405
86882W        W58498  40.812  18.601   5.188
86883W        W58499  17.215   4.778   4.131
86884W        W58500   7.545  26.704  11.201
86885W        W58501  15.921  17.992  11.413
86886W        W58502  13.789  15.022  10.753
86887W        W58503  22.726  32.571  11.572
86888W        W58504  43.859  32.726  11.076
86889W        W58505  32.439  24.655  11.045
86890W        W58506  21.057  32.782  13.253
86891W        W58507  25.009  39.941   1.260
86892W        W58508   4.860  25.956   0.356
86893W        W58509  18.614  40.883  10.752
86894W        W58510  27.340  19.569   4.797
86895W        W58511  28.730  17.710   4.720
86896W        W58512   1.210  12.822   4.208
86897W        W58513  25.686   2.829   1.224
86898W        W58514  25.921  23.655   3.591
86899W        W58515  33.355  28.445   3.284
86900W        W58516  41.573  12.706   1.782
86901W        W58517  20.250   4.338   1.445
86902W        W58518   2.754  28.049  11.625
86903W        W58519  42.278  18.146  12.520
86904W        W58520  30.392  42.368  12.783
86905W        W58521   3.380  37.060   3.663
86906W        W58522   6.851  44.737  13.887
86907W        W58523  40.799  40.271  12.015
86908W        W58524  27.615   8.429  13.752
86909W        W58525   7.375  42.427  14.773
86910W        W58526  14.123   7.196   0.366
86911W        W58527  30.584   6.736   1.732
86912W        W58528  16.261  24.153   3.110
86913W        W58529  10.283  42.265  14.353
86914W        W58530  40.498  16.133   0.357
86915W        W58531  31.459   8.402   1.477
86916W        W58532   1.221  24.093   4.736
86917W        W58533  41.476  11.857  13.262
86918W        W58534  20.070  34.098  10.891
86919W        W58535  38.298  37.058  14.913
86920W        W58536  35.575  36.622   2.243
86921W        W58537  33.954  37.991  12.497
86922W        W58538  40.531  35.401   1.848
86923W        W58539   4.580   2.777  12.132
86924W        W58540  38.002  38.091   1.316
86925W        W58541  11.631  41.347   2.350
86926W        W58542  31.677   9.272  14.730
86927W        W58543  21.038   5.493  11.097
86928W        W58544  21.067  23.193   1.861
86929W        W58545   7.257  17.639  10.697
86930W        W58546   4.677   5.046   4.156
86931W        W58547  27.712  17.497  11.908
86932W        W58548  43.885  41.336  11.931
86933W        W58549  35.527   5.870  10.934
86934W        W58550  30.131  28.140   4.024
86935W        W58551  37.367  23.402   1.774
86936W        W58552   9.707   1.906  13.590
86937W        W58553  35.187   4.549   5.224
86938W        W58554   1.988  27.653   4.571
86939W        W58555  17.989  27.541   4.561
86940W        W58556  19.031  40.541   1.410
86941W        W58557  29.657  42.827  10.088
86942W        W58558  17.639  44.543   0.203
86943W        W58559  10.259  41.571  13.356
86944W        W58560   2.279   4.833   3.081
86945W        W58561  20.064  17.492  13.206
86946W        W58562  32.110  10.386   4.041
86947W        W58563  29.439  42.850   2.697
86948W        W58564   8.165  32.349   2.508
86949W        W58565  22.669   0.686   4.549
86950W        W58566  14.768  17.470  14.031
86951W        W58567  40.032   7.354   1.322
86952W        W58568  22.510  32.981  14.653
86953W        W58569  11.634  22.123  13.572
86954W        W58570  33.787  25.477  12.853
86955W        W58571  30.564  40.869  13.008
86956W        W58572   8.320  31.754   2.731
86957W        W58573   4.615  21.824  13.325
86958W        W58574  28.508   2.692   3.894
86959W        W58575  17.783  40.330   1.941
86960W        W58576   6.084  33.055  12.386
86961W        W58577  13.246  33.184   3.679
86962W        W58578  13.438  43.309  11.568
86963W        W58579  16.320  38.960   3.171
86964W        W58580   0.344   9.011   3.720
86965W        W58581  43.277   9.126  14.455
86966W        W58582  23.698   1.564  11.489
86967W        W58583  36.536   9.163   2.919
86968W        W58584  33.563  13.159  10.882
86969W        W58585  13.558  32.913   3.339
86970W        W58586  27.166  12.095   0.503
86971W        W58587  23.760  40.110   1.850
86972W        W58588   8.813  24.326  12.369
86973W        W58589  40.322  29.098  11.789
86974W        W58590   4.160  22.458   5.101
86975W        W58591  31.959  42.769  11.007
86976W        W58592  12.594  19.524  14.354
86977W        W58593  22.066  21.041   2.346
86978W        W58594  38.081  10.688   2.325
86979W        W58595  10.431  10.687  11.758
86980W        W58596  31.358  21.099   1.671
86981W        W58597  22.159   3.384  11.064
86982W        W58598  21.916  11.772  13.908
86983W        W58599  27.277   6.719  14.299
86984W        W58600  39.970   7.950  13.435
86985W        W58601  36.403  41.892  14.733
86986W        W58602   2.331  40.061  10.666
86987W        W58603   2.471  11.280   4.521
86988W        W58604  24.274   7.157   1.456
86989W        W58605  13.592  17.611   1.724
86990W        W58606  16.923  18.298  11.366
86991W        W58607  43.393  22.571   2.493
86992W        W58608   0.336  34.746  14.710
86993W        W58609  39.300  16.648  12.527
86994W        W58610   0.503  31.872  14.339
86995W        W58611  35.833   4.285   1.250
86996W        W58612  39.720   1.063   0.754
86997W        W58613  38.371  31.863   2.685
86998W        W58614  32.325  28.675   3.348
86999W        W58615  34.370  41.220   3.632
87000W        W58616  34.607   6.329  14.335
87001W        W58617  38.144  29.917   1.541
87002W        W58618  12.737  14.687   2.966
87003W        W58619   1.270  21.604   4.640
87004W        W58620  29.649  28.245  10.999
87005W        W58621  11.849   2.797   4.062
87006W        W58622  40.772  23.153   3.208
87007W        W58623  23.588  10.905  13.016
87008W        W58624  15.688  11.440   3.566
87009W        W58625   5.487  33.143  14.500
87010W        W58626  33.136  22.500  11.049
87011W        W58627   8.763  17.656  11.941
87012W        W58628   4.882   1.776  10.187
87013W        W58629   8.736   3.257  14.803
87014W        W58630  14.167  36.857  12.942
87015W        W58631  10.834  25.958   4.072
87016W        W58632  11.709  20.454  14.858
87017W        W58633  18.568  13.946  11.462
87018W        W58634  19.717  44.385   1.267
87019W        W58635  19.676  14.428   2.812
87020W        W58636   6.240  41.810  13.959
87021W        W58637   2.859  23.895  11.115
87022W        W58638  38.834  36.593  12.497
87023W        W58639  30.663  43.715  14.865
87024W        W58640  29.975   4.714  13.881
87025W        W58641  25.656  16.324  11.421
87026W        W58642  10.986  40.465  13.040
87027W        W58643  23.601  23.712   0.790
87028W        W58644  14.189  10.287   0.719
87029W        W58645  15.837  44.482   3.419
87030W        W58646  34.313  29.755  10.644
87031W        W58647  16.624   9.617   3.450
87032W        W58648  22.232  40.857   4.365
87033W        W58649  28.100  14.529   0.745
87034W        W58650  10.907  27.889   4.228
87035W        W58651  20.704  23.783   3.128
87036W        W58652  33.155  26.525   3.946
87037W        W58653   0.798  19.570   2.423
87038W        W58654   6.807  40.781   3.425
87039W        W58655  41.886  32.633   3.859
87040W        W58656  13.813  17.972   0.365
87041W        W58657   4.833   6.118   3.170
87042W        W58658   4.761   9.211  10.854
87043W        W58659  28.812  13.320   4.562
87044W        W58660  37.582  10.077   1.246
87045W        W58661   8.313   6.536   4.116
87046W        W58662   8.780  10.958   3.064
87047W        W58663  16.806  27.670   2.312
87048W        W58664   8.438  23.906  11.102
87049W        W58665  19.948   3.245   0.531
87050W        W58666  16.728  19.345   0.323
87051W        W58667  28.440   2.741   4.823
87052W        W58668  23.040   2.029   1.663
87053W        W58669  37.413  13.793  12.022
87054W        W58670   4.671   4.212  13.940
87055W        W58671  27.927  17.372   1.336
87056W        W58672  20.602  42.433   2.781
87057W        W58673  29.027  21.509   3.709
87058W        W58674  17.439  12.745  13.061
87059W        W58675  40.287   4.345  10.749
87060W        W58676  33.565  21.998  12.935
87061W        W58677  10.591   5.448   2.756
87062W        W58678  34.816   4.173   2.765
87063W        W58679  33.413  26.641  10.613
87064W        W58680  30.147  12.289  11.242
87065W        W58681  10.817   9.736  13.869
87066W        W58682   3.153  25.950   2.772
87067W        W58683  40.979   2.753   3.729
87068W        W58684  43.939   3.427  12.327
87069W        W58685  36.074   8.120  12.817
87070W        W58686  18.514  22.551  12.530
87071W        W58687   8.373   0.897   3.663
87072W        W58688  25.976  27.558  10.520
87073W        W58689  17.971  27.345  13.321
87074W        W58690  14.659  41.309  10.982
87075W        W58691  34.270   1.821  14.840
87076W        W58692  39.546  26.122   1.774
87077W        W58693  43.385   4.286  14.065
87078W        W58694   3.256   9.218   0.725
87079W        W58695  40.912  25.212   4.482
87080W        W58696  36.945  17.394  14.486
87081W        W58697   6.137  12.892  13.982
87082W        W58698   1.754  12.007  13.258
87083W        W58699  15.790  26.556   2.377
87084W        W58700  11.876   0.944   1.307
87085W        W58701  32.321  24.213  14.526
87086W        W58702  17.531  28.705   1.443
87087W        W58703  15.673  25.671   3.623
87088W        W58704  43.975   9.565   3.829
87089W        W58705  21.207  30.922   1.693
87090W        W58706  11.304   6.382  13.992
87091W        W58707  39.929   9.014   2.957
87092W        W58708   1.965  31.833  14.307
87093W        W58709  26.632  27.549   4.606
87094W        W58710  38.966   9.865   0.517
87095W        W58711  35.859   6.208   3.674
87096W        W58712  39.237  34.149  14.744
87097W        W58713   0.397  36.584  13.804
87098W        W58714  32.185  10.925  12.580
87099W        W58715  23.084  19.210  12.945
87100W        W58716  23.967  21.018   2.175
87101W        W58717  42.443  36.848   1.817
87102W        W58718  25.096  25.712  11.205
87103W        W58719  40.975  43.397   1.743
87104W        W58720   3.333  34.850  11.935
87105W        W58721  26.072  40.271   0.339
87106W        W58722  40.036   7.678  13.885
87107W        W58723  20.046  34.699  13.470
87108W        W58724  32.073  18.689   2.725
87109W        W58725  28.037  25.853  11.064
87110W        W58726  17.047  37.938  12.601
87111W        W58727  16.669  44.369  10.998
87112W        W58728  22.129  17.875  10.373
87113W        W58729  44.579  19.598   4.569
87114W        W58730  43.451  41.688  13.930
87115W        W58731   9.927  13.103   4.933
87116W        W58732  32.487  10.038   2.634
87117W        W58733  23.486  44.451   0.869
87118W        W58734  28.595  38.473  12.105
87119W        W58735  21.417  44.869   3.813
87120W        W58736  12.039   5.948   3.778
87121W        W58737  28.968  33.504   3.214
87122W        W58738   8.205  35.833  14.364
87123W        W58739  14.783  43.759  11.918
87124W        W58740  14.918  36.103   3.846
87125W        W58741   7.439  16.280  11.218
87126W        W58742   1.846  40.951  14.468
87127W        W58743   5.096  14.176   1.448
87128W        W58744  22.440  10.108  12.718
87129W        W58745  31.438  37.932  10.536
87130W        W58746  28.011  40.548  12.065
87131W        W58747  10.372  34.350  10.536
87132W        W58748  17.699  44.187  12.430
87133W        W58749  40.060  34.459   0.574
87134W        W58750  44.533  19.008  13.419
87135W        W58751  39.788  13.092   1.227
87136W        W58752  36.218  10.595  13.042
87137W        W58753  32.451   9.909  12.980
87138W        W58754  14.656  10.192   4.176
87139W        W58755  39.298  11.386  13.878
87140W        W58756  12.825  18.301   2.306
87141W        W58757  19.068  21.646   0.669
87142W        W58758  41.835   1.947  10.777
87143W        W58759  40.230  35.963  13.865
87144W        W58760  19.277  26.057  14.443
87145W        W58761  28.683  42.376  11.430
87146W        W58762  14.330  29.444   1.164
87147W        W58763   9.285   7.760   4.304
87148W        W58764  18.808  40.415   0.433
87149W        W58765  29.152  32.123   3.606
87150W        W58766   2.726  16.138   0.898
87151W        W58767  18.268  21.225  14.776
87152W        W58768  35.713   1.014  11.519
87153W        W58769  25.044  30.662   0.286
87154W        W58770  31.443   1.430   0.161
87155W        W58771  16.842  42.900  13.566
87156W        W58772   7.162   0.783   5.413
87157W        W58773  20.894  24.494  11.184
87158W        W58774  22.959  18.670  10.140
87159W        W58775  32.509  22.756  11.119
87160W        W58776  13.398  15.963   0.381
87161W        W58777  22.332  13.790  12.671
87162W        W58778  38.944  32.168   3.591
87163W        W58779  14.031  33.869   1.303
87164W        W58780   6.869  14.033  14.904
87165W        W58781  17.740   2.154  14.280
87166W        W58782  40.925  37.527   4.535
87167W        W58783  26.522  20.812   1.930
87168W        W58784  27.941  23.200   2.281
87169W        W58785   0.398   6.428  13.908
87170W        W58786  14.743  28.793  10.091
87171W        W58787  10.427  20.579   2.791
87172W        W58788  40.689  41.598   0.391
87173W        W58789   8.463  15.668   0.378
87174W        W58790  28.055  36.984  11.290
87175W        W58791  41.444  35.844   2.506
87176W        W58792  32.367  11.627   0.354
87177W        W58793  10.709  16.093  10.696
87178W        W58794  44.893  35.426  12.960
87179W        W58795   8.735  43.295  13.762
87180W        W58796  33.532  25.526  13.289
87181W        W58797  21.633  29.451   2.156
87182W        W58798  38.248  42.334  13.987
87183W        W58799  38.810  26.700   0.416
87184W        W58800  31.559  25.543   0.479
87185W        W58801  24.048  22.639  10.626
87186W        W58802  24.259  26.346   0.182
87187W        W58803  15.072  32.130   3.187
87188W        W58804  25.703  40.409  14.224
87189W        W58805  38.403  13.712  14.114
87190W        W58806  10.594  20.726   1.259
87191W        W58807   8.729  16.622   3.551
87192W        W58808  16.230  31.875  13.592
87193W        W58809  20.548  17.290  13.301
87194W        W58810  16.356   5.280   0.017
87195W        W58811  40.150  11.370  13.341
87196W        W58812  38.457  37.824   1.349
87197W        W58813  18.264  36.006  14.552
87198W        W58814   9.856  44.500  13.013
87199W        W58815  31.776  40.553  12.578
87200W        W58816   0.686   8.134   0.485
87201W        W58817  25.575  12.662  12.212
87202W        W58818   6.336   1.047  11.874
87203W        W58819   3.875  13.641   3.202
87204W        W58820  18.141  22.555  10.407
87205W        W58821  19.253  21.762   2.258
87206W        W58822   9.933  19.650   0.934
87207W        W58823  38.276  39.694   2.872
87208W        W58824   9.795  36.960  14.898
87209W        W58825   2.819  35.393   3.158
87210W        W58826   4.723  12.689   0.247
87211W        W58827   1.389  37.114   2.611
87212W        W58828  44.450   2.395   1.036
87213W        W58829  32.715  17.333  13.671
87214W        W58830  39.447  34.295  12.975
87215W        W58831  26.041  28.949  10.974
87216W        W58832   7.333  30.692   1.626
87217W        W58833  34.290  34.626  11.554
87218W        W58834  22.291  27.237   3.669
87219W        W58835   9.466   2.261   0.284
87220W        W58836  26.959  32.262  11.933
87221W        W58837  39.515   5.640  13.518
87222W        W58838   4.733  32.147  14.560
87223W        W58839   5.088   8.226   0.446
87224W        W58840  23.534  32.912   4.320
87225W        W58841   9.903  35.290  12.113
87226W        W58842  39.620  25.698  10.763
87227W        W58843  17.398  17.144  10.846
87228W        W58844  18.269  32.904  11.110
87229W        W58845  13.715  25.485   2.756
87230W        W58846   6.820  35.139  11.031
87231W        W58847  31.026  11.727  14.311
87232W        W58848  31.998   1.790  14.107
87233W        W58849   8.468  39.200  11.418
87234W        W58850  34.904  11.575   0.355
87235W        W58851  41.430   0.335   2.914
87236W        W58852  38.884  41.066   1.306
87237W        W58853   3.784   7.032  13.578
87238W        W58854  31.506   3.204  14.350
87239W        W58855  21.559  43.579   4.270
87240W        W58856  13.185  17.306   1.451
87241W        W58857  36.536  38.832  14.652
87242W        W58858  43.370  13.149   2.151
87243W        W58859   0.539  25.617  11.258
87244W        W58860   6.071  34.064  11.915
87245W        W58861  14.262  21.569   1.982
87246W        W58862   9.935   5.289   1.040
87247W        W58863  16.592  26.407  11.600
87248W        W58864   8.442  25.189  13.916
87249W        W58865  42.312  26.466   4.211
87250W        W58866  16.240  17.581   2.590
87251W        W58867  15.057  35.808  13.311
87252W        W58868  25.213  10.636  11.522
87253W        W58869  14.631  16.257   2.277
87254W        W58870  15.732  20.748   9.998
87255W        W58871  28.590  22.247  13.049
87256W        W58872  15.149  11.631  11.552
87257W        W58873  10.072  10.093  12.459
87258W        W58874  26.935  18.758   4.580
87259W        W58875   7.293   5.497   2.354
87260W        W58876  20.991  41.531   3.581
87261W        W58877  35.808   4.548  11.219
87262W        W58878  32.032  31.898  12.405
87263W        W58879  20.753  37.194  12.970
87264W        W58880   3.897  33.504   1.882
87265W        W58881  43.853  35.063  12.615
87266W        W58882  44.618  12.333  14.572
87267W        W58883  25.563   0.815  10.548
87268W        W58884  11.860  29.198  11.167
87269W        W58885  35.862  16.372  14.123
87270W        W58886  17.333  18.036  12.655
87271W        W58887  29.960  25.267   2.740
87272W        W58888  23.614  19.150  11.122
87273W        W58889  19.117   8.971   3.048
87274W        W58890  37.986  31.923   0.955
87275W        W58891  21.614   5.331   0.568
87276W        W58892  42.932  28.545   2.879
87277W        W58893  41.928  16.417   1.571
87278W        W58894  39.439  35.402   1.911
87279W        W58895  14.451  34.461   2.737
87280W        W58896  22.226  42.881   2.216
87281W        W58897  11.760  27.374  11.467
87282W        W58898  18.893   6.207   4.291
87283W        W58899  23.626  13.370   3.550
87284W        W58900  10.305  44.416   3.730
87285W        W58901  12.719  39.545   1.845
87286W        W58902  35.029  23.449   2.896
87287W        W58903  12.269  35.347   2.171
87288W        W58904  23.409  23.450  12.067
87289W        W58905   8.759  15.161   2.900
87290W        W58906  12.271  24.024  13.760
87291W        W58907  19.126   0.326  12.919
87292W        W58908  38.756  37.483   1.941
87293W        W58909  12.972  37.315   3.527
87294W        W58910  16.944  17.768  12.873
87295W        W58911   5.553   5.597   2.207
87296W        W58912   6.455   0.576   4.605
87297W        W58913   6.713  36.457  12.850
87298W        W58914  25.440  28.853  11.245
87299W        W58915  39.767  34.298   2.057
87300W        W58916   0.941  27.000  14.965
87301W        W58917  24.248  33.037   2.286
87302W        W58918  21.917   9.879  13.204
87303W        W58919  43.858   1.746  12.016
87304W        W58920  44.750   1.587   3.703
87305W        W58921  16.710  10.594  14.962
87306W        W58922  30.674  19.660  12.462
87307W        W58923  38.413   1.613  14.963
87308W        W58924  20.511  33.654  11.562
87309W        W58925   9.617   9.089  14.403
87310W        W58926  19.019  28.960   4.355
87311W        W58927  37.681   8.854  13.061
87312W        W58928  23.813   7.925  11.646
87313W        W58929   0.225  37.358   2.092
87314W        W58930  26.092  29.461   0.125
87315W        W58931  31.494  33.162   2.363
87316W        W58932  10.837  38.052   4.889
87317W        W58933  28.911  33.457  14.929
87318W        W58934  42.301  19.315  14.358
87319W        W58935   8.906  12.329   2.644
87320W        W58936  31.614  43.858  14.436
87321W        W58937  43.192   6.743  12.160
87322W        W58938  10.908  29.377   1.369
87323W        W58939  35.461  21.516  14.847
87324W        W58940  43.587  43.974   0.307
87325W        W58941  14.237  33.544  14.980
87326W        W58942   4.181  22.464   4.165
87327W        W58943  36.873  20.228  10.532
87328W        W58944  13.334  29.121   0.030
87329W        W58945  40.965   4.275   4.747
87330W        W58946  43.025   1.397  11.017
87331W        W58947  10.427  13.130   3.294
87332W        W58948  19.943  43.235   4.983
87333W        W58949  28.155  28.216   3.919
87334W        W58950  13.857   9.349  13.550
87335W        W58951  31.340  20.046  13.346
87336W        W58952  28.656   3.342  10.867
87337W        W58953  27.896  19.753   1.886
87338W        W58954   9.763  24.093  10.745
87339W        W58955   4.620  24.838   5.518
87340W        W58956  31.499  29.938  10.076
87341W        W58957   2.125  11.840   4.537
87342W        W58958  26.081  27.269   3.092
87343W        W58959   9.074   1.776   2.118
87344W        W58960  23.245   9.123   2.431
87345W        W58961  10.895  10.155   1.082
87346W        W58962  40.525   4.248  14.722
87347W        W58963  17.304   7.863  10.938
87348W        W58964  41.501  31.603  12.494
87349W        W58965  13.651   0.240   0.467
87350W        W58966  26.065  33.592  14.504
87351W        W58967   0.463  19.302   0.844
87352W        W58968  34.537   4.686   3.206
87353W        W58969   0.425  30.668   1.813
87354W        W58970  30.132  27.579   4.096
87355W        W58971  36.413  36.048   3.158
87356W        W58972  28.193  28.354  14.338
87357W        W58973  18.214  39.895   0.711
87358W        W58974  40.076  23.906   1.923
87359W        W58975  26.131  24.185   3.521
87360W        W58976  28.366  40.965  14.790
87361W        W58977  37.567   6.820   2.321
87362W        W58978  16.806   1.811   2.576
87363W        W58979   5.192   2.423  10.914
87364W        W58980  13.506  22.559   4.263
87365W        W58981   4.316   6.101   1.523
87366W        W58982   6.694  32.269   2.399
87367W        W58983  35.385  19.338  11.056
87368W        W58984  29.755   2.937  12.729
87369W        W58985  11.533  44.291  14.406
87370W        W58986  28.420   1.045  11.720
87371W        W58987  31.593   2.729   1.156
87372W        W58988  44.789   7.998  12.442
87373W        W58989  37.148  14.224  12.407
87374W        W58990  16.297  13.138   3.285
87375W        W58991  25.565  33.470  14.650
87376W        W58992  32.255  31.037   3.633
87377W        W58993  42.094  16.196  11.648
87378W        W58994  19.296  32.991   3.311
87379W        W58995   0.688  44.367  10.658
87380W        W58996   0.933  36.098   2.719
87381W        W58997  30.149   3.329   2.134
87382W        W58998  30.318  17.424   1.916
87383W        W58999   8.781   9.890  10.634
87384W        W59000  30.613  44.698   2.194
87385W        W59001  26.541   6.339  14.328
87386W        W59002  44.861  27.210   1.221
87387W        W59003  10.277  19.485   4.825
87388W        W59004  11.259  37.386  10.862
87389W        W59005  29.812  33.894  11.641
87390W        W59006  28.444  44.028  13.539
87391W        W59007  14.904  42.521  10.665
87392W        W59008  18.108  25.023   1.916
87393W        W59009  18.323  43.196   3.222
87394W        W59010  26.914  25.211   2.168
87395W        W59011  25.181  10.122  11.517
87396W        W59012  25.544   7.307   2.243
87397W        W59013  25.222  25.590   1.741
87398W        W59014  12.775  16.591  11.051
87399W        W59015  19.907   5.344  13.426
87400W        W59016  34.326  29.090  12.475
87401W        W59017  42.659  38.522   5.138
87402W        W59018  41.577  32.471  12.295
87403W        W59019  38.565  20.815  12.605
87404W        W59020  26.726  18.722   5.110
87405W        W59021  41.092  44.530  11.085
87406W        W59022   9.674  32.866   4.724
87407W        W59023  14.786  27.274  12.167
87408W        W59024  39.751  42.811  12.015
87409W        W59025  11.943  13.197   4.555
87410W        W59026  22.648  39.344  12.944
87411W        W59027  42.233  14.084   3.118
87412W        W59028  31.970  39.511  11.689
87413W        W59029  25.023  40.485   0.841
87414W        W59030  25.404  33.397   4.187
87415W        W59031  24.582  20.093   3.885
87416W        W59032  19.223  14.314   2.605
87417W        W59033  13.565  36.053  14.978
87418W        W59034   9.531  40.726   2.382
87419W        W59035  23.552  39.222  13.829
87420W        W59036  28.469  24.113  11.004
87421W        W59037  10.555  27.725  12.124
87422W        W59038  44.430  22.009  11.212
87423W        W59039  40.756  31.508   0.876
87424W        W59040  20.177  18.767  14.310
87425W        W59041   4.227  10.730   4.059
87426W        W59042  27.524  38.115  12.045
87427W        W59043  39.318  31.194  10.615
87428W        W59044  15.892  22.761  10.952
87429W        W59045  29.523   7.227  13.541
87430W        W59046  19.519  30.481  14.805
87431W        W59047  41.597  23.644  10.593
87432W        W59048  19.688  17.478  11.557
87433W        W59049   0.391  33.904  11.406
87434W        W59050  25.433  14.323  12.878
87435W        W59051  43.674   1.991   0.977
87436W        W59052  24.382  38.399  14.807
87437W        W59053  28.066  16.552   1.902
87438W        W59054  36.074  32.005   3.626
87439W        W59055  13.342  43.515  13.857
87440W        W59056  12.399  39.610  12.793
87441W        W59057  20.588  26.430  13.397
87442W        W59058  16.047  27.157  10.756
87443W        W59059  29.692  15.247  14.008
87444W        W59060   8.924   7.429   2.909
87445W        W59061   4.428  43.250   3.209
87446W        W59062  29.441  41.471   2.487
87447W        W59063  34.971   1.204   2.935
87448W        W59064  14.355   6.780   2.731
87449W        W59065  16.790  14.473  13.621
87450W        W59066  40.894  13.605   1.918
87451W        W59067  19.611  13.390   1.609
87452W        W59068  28.008   8.863   0.948
87453W        W59069  41.330  34.524   2.884
87454W        W59070  26.564  40.384   3.868
87455W        W59071  20.915  36.653  13.372
87456W        W59072  18.502  27.118   2.743
87457W        W59073  16.560  17.327  11.126
87458W        W59074  22.230  31.674   1.317
87459W        W59075   7.826  23.184   3.189
87460W        W59076   9.188   6.430   0.932
87461W        W59077   9.853  28.557   1.147
87462W        W59078  33.542  30.195   0.379
87463W        W59079  31.956  27.533   0.124
87464W        W59080   7.874   7.438  13.369
87465W        W59081  44.879  18.866   3.831
87466W        W59082  15.958  13.175  11.149
87467W        W59083  39.948  31.238   1.193
87468W        W59084  33.118   1.351   4.579
87469W        W59085  27.991  13.260   2.598
87470W        W59086  26.959  25.511  11.177
87471W        W59087  10.188   9.549   2.021
87472W        W59088  28.238  30.667   2.877
87473W        W59089  29.513  14.895   3.727
87474W        W59090  41.276  33.434   1.992
87475W        W59091  16.558  15.721   1.450
87476W        W59092  41.317  24.719  10.650
87477W        W59093  30.359   9.418  12.392
87478W        W59094  23.517  31.234   2.673
87479W        W59095  38.844   8.368  10.702
87480W        W59096   3.732  38.040   3.141
87481W        W59097  25.221  36.781  14.436
87482W        W59098  35.920  36.154  12.456
87483W        W59099  41.105  16.401   4.061
87484W        W59100  21.226  37.548  14.203
87485W        W59101  34.485  34.997   2.713
87486W        W59102  25.705  16.781   3.381
87487W        W59103  28.622  37.844  13.950
87488W        W59104  14.832   9.182  14.711
87489W        W59105   4.709   6.958   0.212
87490W        W59106  36.439  37.998  10.719
87491W        W59107  37.913   3.136  13.831
87492W        W59108  31.396   1.948  12.376
87493W        W59109  24.761  39.101   0.949
87494W        W59110   7.927  22.763  10.422
87495W        W59111  27.520  39.506   0.496
87496W        W59112  27.961   6.897   4.629
87497W        W59113  23.318  18.570  12.161
87498W        W59114   2.630  20.962   4.732
87499W        W59115  22.554  37.042  13.899
87500W        W59116  24.336   0.427   2.252
87501W        W59117   1.912  41.042   1.043
87502W        W59118  25.671  10.389  13.891
87503W        W59119   9.294  35.146   1.383
87504W        W59120  44.721  38.943   4.483
87505W        W59121   8.219  26.472   3.599
87506W        W59122  30.901  33.189   2.710
87507W        W59123  42.327  36.931   4.821
87508W        W59124  26.668  14.372  10.515
87509W        W59125  20.700  32.870   1.700
87510W        W59126  43.460  19.429  12.526
87511W        W59127  14.562  12.289  11.575
87512W        W59128  37.866  26.914  11.934
87513W        W59129   5.416  20.544  12.132
87514W        W59130   9.356   9.660   0.648
87515W        W59131  39.973   0.634   0.817
87516W        W59132  27.086  24.591   0.893
87517W        W59133  13.628  23.018   4.504
87518W        W59134   6.012  22.130  11.387
87519W        W59135  36.059  23.065   0.890
87520W        W59136  38.760  10.375   4.738
87521W        W59137  12.878  38.038  10.548
87522W        W59138  24.753  19.101   0.169
87523W        W59139  30.222   4.470  14.882
87524W        W59140  34.076  33.125   4.023
87525W        W59141  28.220  16.686  11.555
87526W        W59142   0.900  43.924  12.907
87527W        W59143  41.360  22.640  10.708
87528W        W59144  41.722   4.830  10.352
87529W        W59145  25.742  36.115  14.076
87530W        W59146  36.347   4.713  13.966
87531W        W59147  34.330  10.369   0.751
87532W        W59148  23.540   1.773  11.944
87533W        W59149  28.935  13.152   4.081
87534W        W59150   1.875   8.771  12.570
87535W        W59151  19.488  29.959   3.257
87536W        W59152  27.226  29.968   2.729
87537W        W59153  13.346   0.510   0.174
87538W        W59154  12.180  34.392  10.948
87539W        W59155   5.772   5.192  11.457
87540W        W59156  15.361  35.680   2.921
87541W        W59157  32.381  43.641   9.788
87542W        W59158  16.702  30.438   4.727
87543W        W59159  32.120  20.031   0.022
87544W        W59160  33.540  15.810   3.227
87545W        W59161  27.970  35.464  10.007
87546W        W59162  25.196   6.405  14.334
87547W        W59163  22.566   2.755   1.311
87548W        W59164  15.725  43.512  10.674
87549W        W59165  16.016  37.548  14.366
87550W        W59166  13.418  19.101   3.139
87551W        W59167  19.572   4.493   1.671
87552W        W59168  43.553  19.756  14.820
87553W        W59169  21.631   5.700  10.364
87554W        W59170  28.227   9.218  13.407
87555W        W59171   8.398  13.799   1.408
87556W        W59172  25.999  27.698  11.932
87557W        W59173  21.228   4.773  11.623
87558W        W59174   6.722   2.443   2.797
87559W        W59175   0.746  36.098  13.853
87560W        W59176  34.220  28.714   4.195
87561W        W59177  19.172   3.166   1.674
87562W        W59178  11.897  28.289   2.360
87563W        W59179  36.411  35.832  10.851
87564W        W59180   4.212  17.701  14.386
87565W        W59181   2.020   5.336  12.599
87566W        W59182  23.920  26.292  13.457
87567W        W59183  39.111  35.033  12.650
87568W        W59184  35.374   3.510  14.260
87569W        W59185  17.726  29.880  11.580
87570W        W59186   5.193   8.162  10.971
87571W        W59187  17.750  24.720   3.219
87572W        W59188  41.847  25.453  13.357
87573W        W59189  12.108   0.854   4.571
87574W        W59190  14.439  29.096  13.396
87575W        W59191  25.786  22.173   2.355
87576W        W59192   7.202  20.158  13.464
87577W        W59193   0.835   0.794   0.441
87578W        W59194  36.703   0.844   1.011
87579W        W59195  32.026  29.266  10.888
87580W        W59196  22.306  24.617  13.364
87581W        W59197  33.888  15.156  10.781
87582W        W59198   7.296  28.881   1.455
87583W        W59199  28.420   7.390   3.770
87584W        W59200  34.836   0.705  13.519
87585W        W59201  14.376  31.906   2.411
87586W        W59202  38.110  29.219   1.294
87587W        W59203  31.427  30.077  11.050
87588W        W59204   7.401  39.748   2.710
87589W        W59205  20.798   8.209   4.149
87590W        W59206  24.983   8.217  11.737
87591W        W59207  33.426  36.784  11.459
87592W        W59208   4.328  16.188  13.038
87593W        W59209  31.523   3.644  11.462
87594W        W59210   2.648  44.299   2.286
87595W        W59211   1.987  21.960   0.185
87596W        W59212  21.499  40.111   1.283
87597W        W59213  30.045  27.681  13.299
87598W        W59214   4.561  42.593  11.606
87599W        W59215   8.220   1.752   3.313
87600W        W59216  13.420  27.286   1.294
87601W        W59217  10.810  33.230  10.087
87602W        W59218  37.364   8.825   4.582
87603W        W59219  32.987  26.638   2.441
87604W        W59220  26.243  37.413   2.065
87605W        W59221  27.710   3.229   3.535
87606W        W59222  34.962  23.545  13.365
87607W        W59223  39.074  26.606   4.674
87608W        W59224  33.476  39.888   2.432
87609W        W59225  18.763  42.273   3.340
87610W        W59226  21.241  37.102   0.999
87611W        W59227  26.126  27.900   2.458
87612W        W59228   4.481  21.325  13.392
87613W        W59229  14.703   8.643   4.965
87614W        W59230  42.308  33.859   3.813
87615W        W59231  25.628   7.341   0.757
87616W        W59232  18.626  27.773  14.933
87617W        W59233  15.648  17.718  14.030
87618W        W59234   3.845  18.621   2.260
87619W        W59235   6.923  12.294  14.066
87620W        W59236  32.494  25.092   0.349
87621W        W59237  27.479  34.930   2.329
87622W        W59238  23.142   8.457   0.384
87623W        W59239  23.896  13.648  10.259
87624W        W59240  41.865   3.229   4.194
87625W        W59241  43.193   2.744   2.855
87626W        W59242   9.283   7.696  14.279
87627W        W59243   7.756  41.049   2.690
87628W        W59244   0.048  26.404   4.077
87629W        W59245  16.291  18.625  13.974
87630W        W59246  35.997  16.420   4.277
87631W        W59247  13.414   7.502  13.390
87632W        W59248  28.291  24.988  11.092
87633W        W59249  12.780  25.316  11.624
87634W        W59250   0.201   4.517   3.737
87635W        W59251   1.797  36.542   2.328
87636W        W59252   7.136  18.825  11.100
87637W        W59253  35.637  20.578   4.205
87638W        W59254   0.409  35.283  12.985
87639W        W59255  10.211  35.095   4.427
87640W        W59256   6.027  23.700   3.169
87641W        W59257  10.755  15.296  12.485
87642W        W59258  18.207  23.502  12.402
87643W        W59259  39.817  32.118   0.729
87644W        W59260  14.246   2.987  14.936
87645W        W59261  34.431  44.054   1.874
87646W        W59262  20.961   2.724   1.309
87647W        W59263   6.194  41.844  10.695
87648W        W59264  19.289  19.682   1.890
87649W        W59265   9.531  37.958  12.525
87650W        W59266  24.985  34.079   3.746
87651W        W59267  39.038  20.500  14.362
87652W        W59268  30.801  13.131  11.602
87653W        W59269   9.621   2.935  14.017
87654W        W59270  19.673  39.858  13.469
87655W        W59271   5.405  28.089   0.523
87656W        W59272  40.970  22.269   3.193
87657W        W59273  40.080  38.972  12.648
87658W        W59274  26.515  41.603   1.447
87659W        W59275  31.557   7.006  14.816
87660W        W59276  12.314  13.662  14.858
87661W        W59277   7.785   2.643   2.361
87662W        W59278  18.690   5.826  13.487
87663W        W59279  40.732  37.190   3.198
87664W        W59280   6.821   7.726   3.401
87665W        W59281  20.600  43.814  11.797
87666W        W59282  19.483  21.418   1.010
87667W        W59283  36.121   4.721  12.161
87668W        W59284   7.195  43.824  13.893
87669W        W59285  16.763  40.779  11.675
87670W        W59286  12.626  44.957   2.217
87671W        W59287  27.469  30.934  12.099
87672W        W59288  17.481  36.632  11.922
87673W        W59289  25.476  19.834  13.481
87674W        W59290  38.466  32.515   2.242
87675W        W59291   9.596  43.248   3.122
87676W        W59292   6.594   0.067   4.587
87677W        W59293  11.419  17.765   0.388
87678W        W59294  11.246  15.225  12.327
87679W        W59295  25.653  32.797  14.074
87680W        W59296  23.270  37.046   1.427
87681W        W59297  14.612  18.716  13.175
87682W        W59298   5.730  28.495   4.496
87683W        W59299   2.428  41.013  11.532
87684W        W59300  18.330  26.512   2.872
87685W        W59301  22.356   5.121  10.370
87686W        W59302  43.875  23.195  13.649
87687W        W59303  17.267  35.335   4.807
87688W        W59304  21.206  22.601  13.807
87689W        W59305  14.236  34.622   1.463
87690W        W59306  36.780  39.158   1.363
87691W        W59307  19.769  35.141   2.077
87692W        W59308  18.765  29.385  13.512
87693W        W59309   2.501  19.723  11.529
87694W        W59310  11.048   8.039  11.038
87695W        W59311  36.368  38.758  11.965
87696W        W59312  28.560  22.594   1.869
87697W        W59313   7.202  19.204  11.646
87698W        W59314   3.825  12.228   0.840
87699W        W59315   6.151  44.089   4.503
87700W        W59316  10.603  27.451   4.334
87701W        W59317  27.594  20.111   2.565
87702W        W59318   4.965  35.962   3.873
87703W        W59319  28.118  15.519   0.945
87704W        W59320   1.263  38.748   3.613
87705W        W59321  26.522  19.603  13.429
87706W        W59322   3.534  16.633  10.393
87707W        W59323  26.556  11.079  14.317
87708W        W59324  29.381  25.005  10.287
87709W        W59325   0.503  39.525  13.345
87710W        W59326  18.267  33.607  12.368
87711W        W59327  34.602  10.208   0.315
87712W        W59328  38.877  40.444  12.645
87713W        W59329  13.093  19.483   2.355
87714W        W59330  11.782  10.175  11.312
87715W        W59331  10.857  38.281  14.979
87716W        W59332  12.400  25.410  14.816
87717W        W59333  24.493  39.691  13.973
87718W        W59334  14.271  23.936  14.864
87719W        W59335  22.703  30.174  14.279
87720W        W59336  25.094   7.796   3.188
87721W        W59337   8.143   6.339   0.207
87722W        W59338   8.916  42.547  13.034
87723W        W59339   4.488   9.162  11.716
87724W        W59340  21.423   1.605  11.965
87725W        W59341  17.996  11.149   3.221
87726W        W59342  41.656  38.916  12.076
87727W        W59343   1.727  21.219  11.154
87728W        W59344  21.518  41.578  14.505
87729W        W59345  36.978  13.066  11.178
87730W        W59346   8.445  16.215   4.148
87731W        W59347  22.547  15.159  11.265
87732W        W59348  13.193  32.836  10.726
87733W        W59349  25.213  16.165  12.198
87734W        W59350  36.280  12.871  12.563
87735W        W59351   4.497  18.789   0.010
87736W        W59352  16.200  30.936  13.847
87737W        W59353  10.660  14.713  14.457
87738W        W59354  14.733  21.513   2.843
87739W        W59355  38.582   0.424   4.286
87740W        W59356   7.853  22.644  14.979
87741W        W59357  37.591  20.254  14.293
87742W        W59358  41.545   7.458   3.197
87743W        W59359  28.996  41.264  13.917
87744W        W59360  31.198  11.644  12.553
87745W        W59361  17.039  24.541  11.872
87746W        W59362  40.797  26.216   4.747
87747W        W59363  34.617  10.589   4.170
87748W        W59364  32.665  25.492  13.428
87749W        W59365  18.166  21.277  13.876
87750W        W59366   6.136  26.941   2.115
87751W        W59367  29.606  11.671   3.170
87752W        W59368   5.833  11.673  11.205
87753W        W59369   4.126  36.517   1.753
87754W        W59370  15.092  19.896   3.283
87755W        W59371  21.771  20.561   0.859
87756W        W59372  26.534  31.684   2.775
87757W        W59373  36.493  13.213   0.460
87758W        W59374  21.472   9.108  12.728
87759W        W59375  30.807  19.233  13.380
87760W        W59376   2.138  39.926   3.433
87761W        W59377   3.886  25.702  13.079
87762W        W59378  28.938   3.856  11.501
87763W        W59379  42.691  33.449   0.856
87764W        W59380  32.639  22.569  13.437
87765W        W59381  19.259   7.755  13.171
87766W        W59382  40.940   4.329   0.893
87767W        W59383  13.792   4.285  10.619
87768W        W59384  23.972  17.092   2.334
87769W        W59385  21.302  38.545  12.297
87770W        W59386   6.180  39.941  11.203
87771W        W59387  31.568  26.317  13.620
87772W        W59388  37.937  38.342   0.832
87773W        W59389  20.831  42.023   5.034
87774W        W59390  23.000  30.618  13.839
87775W        W59391  28.309  18.074   2.591
87776W        W59392  37.852  10.246   5.428
87777W        W59393  25.244  15.722  14.417
87778W        W59394  19.437  23.996  12.552
87779W        W59395   1.826   1.300  12.645
87780W        W59396  44.000  18.992  10.814
87781W        W59397  12.594  14.722   1.726
87782W        W59398  20.099   1.228  12.523
87783W        W59399   6.618  18.371   0.370
87784W        W59400  19.421  31.687  10.552
87785W        W59401  20.764   9.436  11.131
87786W        W59402  32.024  15.360  14.270
87787W        W59403   2.083  23.727   3.814
87788W        W59404  22.506  15.740  13.423
87789W        W59405   4.700  44.436   1.112
87790W        W59406   7.849  43.285  10.432
87791W        W59407  17.650   6.366  10.479
87792W        W59408  22.318  30.719  12.463
87793W        W59409  42.283   1.834  10.469
87794W        W59410  41.642  30.077  10.854
87795W        W59411  13.404   4.035  10.838
87796W        W59412   3.614   8.377   0.280
87797W        W59413  15.169  17.910   0.268
87798W        W59414   4.216  20.242  12.417
87799W        W59415  11.450  21.175   5.144
87800W        W59416  25.167  20.815   3.783
87801W        W59417  17.737  33.550   1.468
87802W        W59418  42.091  43.865   2.709
87803W        W59419  13.811  26.588  14.575
87804W        W59420  33.418  19.541   4.988
87805W        W59421  13.287  24.167  11.998
87806W        W59422  30.705  30.452  11.025
87807W        W59423  41.005  22.745   4.119
87808W        W59424  43.452  22.367  11.100
87809W        W59425   0.249  43.272   1.260
87810W        W59426  17.692  13.531  12.470
87811W        W59427  34.333  38.317  14.434
87812W        W59428   9.203  10.487   4.798
87813W        W59429  43.932  21.175  13.624
87814W        W59430   7.423  33.670   4.288
87815W        W59431  33.037  13.174  13.985
87816W        W59432  21.304  11.261   0.042
87817W        W59433   9.704   4.217  11.973
87818W        W59434  33.009  13.204  11.647
87819W        W59435   1.856  33.269  14.514
87820W        W59436  43.938  40.888   0.522
87821W        W59437   9.703   0.823   0.891
87822W        W59438  31.467  16.897   4.586
87823W        W59439  16.090  24.955  11.107
87824W        W59440  26.973   9.421   4.168
87825W        W59441  13.752  10.585  14.390
87826W        W59442  43.396  18.729   0.013
87827W        W59443  44.753  14.507   2.409
87828W        W59444   6.656   2.467   0.179
87829W        W59445   7.588  39.158  14.544
87830W        W59446  19.009  15.638  13.041
87831W        W59447   3.379   3.817   5.137
87832W        W59448  14.132  27.724   1.051
87833W        W59449  41.759  37.921   2.802
87834W        W59450   9.637  14.747   2.940
87835W        W59451  27.838   1.359   2.234
87836W        W59452  21.199  20.710   4.025
87837W        W59453  24.950  31.856  14.785
87838W        W59454  24.190  29.636  13.843
87839W        W59455  31.175   0.926   0.978
87840W        W59456  16.925  10.721   2.295
87841W        W59457  30.013  18.976  11.617
87842W        W59458  10.574  36.772   2.554
87843W        W59459   1.188  24.198   3.207
87844W        W59460  23.715  39.597  12.575
87845W        W59461  29.207   5.709  14.894
87846W        W59462  21.983  31.551   0.354
87847W        W59463  35.955  21.561   1.410
87848W        W59464  12.241  11.114  10.706
87849W        W59465   7.221  29.446  14.935
87850W        W59466  37.380  42.543  13.447
87851W        W59467  34.409  19.382   1.353
87852W        W59468  43.043  11.486   2.862
87853W        W59469  33.970  43.819  11.034
87854W        W59470  40.350   5.005   0.860
87855W        W59471  26.826  21.169  11.225
87856W        W59472  42.200   4.764   0.687
87857W        W59473  39.082  17.839   1.199
87858W        W59474  25.058   7.777   4.479
87859W        W59475  27.785  42.344   2.754
87860W        W59476  19.568  41.888   4.034
87861W        W59477  11.047  38.075   0.751
87862W        W59478  10.567  20.502  10.931
87863W        W59479  18.530  29.126  10.958
87864W        W59480  31.650  23.319   0.686
87865W        W59481  18.350   9.385  12.400
87866W        W59482   6.398  26.072  13.098
87867W        W59483  11.878  44.238   2.156
87868W        W59484  33.470  44.332  14.065
87869W        W59485  36.017  36.002   4.201
87870W        W59486  30.085  21.262   3.297
87871W        W59487   5.576  25.065  14.399
87872W        W59488  19.892  28.120   0.908
87873W        W59489  38.979  40.993   3.715
87874W        W59490  29.200  24.075  12.790
87875W        W59491  32.741   0.009  14.850
87876W        W59492  34.803  13.383  11.442
87877W        W59493  21.103   0.910  12.498
87878W        W59494  11.719  16.099  14.092
87879W        W59495   5.067  17.219  13.464
87880W        W59496  30.943   4.168  11.054
87881W        W59497  27.791  22.342  12.156
87882W        W59498  22.056  30.701   3.813
87883W        W59499   3.928  13.527   0.867
87884W        W59500   5.424  36.337   1.228
87885W        W59501   9.584  12.875  14.232
87886W        W59502   4.649  23.532  11.208
87887W        W59503  25.752  30.990  13.882
87888W        W59504   4.180  43.018  10.434
87889W        W59505  10.009  28.080  14.415
87890W        W59506  35.907  30.168  12.414
87891W        W59507  16.101   9.013  13.475
87892W        W59508  21.248   3.791  11.346
87893W        W59509  19.694   6.624  12.887
87894W        W59510  32.599   8.634  13.537
87895W        W59511  10.739   4.949   0.393
87896W        W59512  34.204  25.950   0.323
87897W        W59513  26.169   0.436  12.497
87898W        W59514  31.196  33.511  13.500
87899W        W59515  36.584  30.671   3.139
87900W        W59516  30.687  32.545   0.381
87901W        W59517   1.495   7.766  11.586
87902W        W59518  38.087  33.926   0.303
87903W        W59519   1.979  28.602  11.758
87904W        W59520  13.714  21.696   1.187
87905W        W59521  33.886  15.210  14.318
87906W        W59522   2.365   1.445  13.215
87907W        W59523   9.709  28.548   0.149
87908W        W59524   0.891  19.093   3.244
87909W        W59525  27.335  19.143   2.195
87910W        W59526  36.018  40.821  11.337
87911W        W59527  36.403  36.279  11.120
87912W        W59528  18.384   5.592   3.183
87913W        W59529   0.893  38.138   2.800
87914W        W59530  19.083  11.914  12.855
87915W        W59531  15.257  33.155   3.271
87916W        W59532  34.089  38.404  10.355
87917W        W59533  27.672  23.645  11.272
87918W        W59534  22.052   3.463   3.585
87919W        W59535  39.845  22.528   3.712
87920W        W59536   0.444  20.222  11.985
87921W        W59537  32.983  39.262   1.343
87922W        W59538  44.473   7.886   2.856
87923W        W59539   0.327  23.537   2.604
87924W        W59540  21.153  15.843   3.712
87925W        W59541  26.194  17.807  13.846
87926W        W59542   4.232  41.064  14.283
87927W        W59543  37.668  40.729  14.563
87928W        W59544  17.817  43.303  13.406
87929W        W59545   0.459  38.565   0.860
87930W        W59546   4.452  44.691   4.159
87931W        W59547  15.214  24.186  14.972
87932W        W59548   3.756  25.880   3.615
87933W        W59549  39.057  31.650  10.649
87934W        W59550  42.703  43.926   2.266
87935W        W59551  30.696  40.357  12.935
87936W        W59552  39.449   5.277   0.280
87937W        W59553  16.340  33.072   1.225
87938W        W59554  23.551   1.042   2.687
87939W        W59555   8.365  16.726  13.824
87940W        W59556  40.314  39.429   3.209
87941W        W59557  37.483  31.958   0.861
87942W        W59558  42.969  21.963  13.047
87943W        W59559  10.600  41.902  13.018
87944W        W59560  27.261  16.804  10.656
87945W        W59561   7.739   9.280   0.943
87946W        W59562  42.308  17.266  14.078
87947W        W59563  42.045  31.781  14.813
87948W        W59564  20.217  21.143  12.988
87949W        W59565  41.860  16.006   3.899
87950W        W59566   8.797  14.082   0.208
87951W        W59567  38.303  15.158   2.669
87952W        W59568  12.994  40.515  12.808
87953W        W59569  27.614   8.945  12.873
87954W        W59570  37.851  18.831  12.916
87955W        W59571  22.871  16.243   0.288
87956W        W59572  43.720  20.312  13.425
87957W        W59573  19.299   8.853  10.818
87958W        W59574  31.698  21.726  14.036
87959W        W59575  15.767   8.612  13.373
87960W        W59576  35.050  10.711  13.768
87961W        W59577   7.786  21.185   3.721
87962W        W59578  24.629  23.389   4.584
87963W        W59579  14.833  34.815   2.632
87964W        W59580  16.319  22.133  13.377
87965W        W59581   9.659  24.214   0.412
87966W        W59582   9.950  39.646   2.054
87967W        W59583  40.377  40.143   2.426
87968W        W59584  29.639   1.695   4.643
87969W        W59585  42.072  16.101  12.388
87970W        W59586  10.292  12.949  13.941
87971W        W59587  27.392  13.049   5.041
87972W        W59588  21.700  24.046  13.965
87973W        W59589  26.645   7.707  13.868
87974W        W59590  22.969  13.838   3.251
87975W        W59591  11.266  14.249  12.864
87976W        W59592  44.208  28.385   3.323
87977W        W59593  31.373  41.395   4.289
87978W        W59594  20.202  24.014   0.010
87979W        W59595  30.525  23.818  11.500
87980W        W59596  17.802  24.126  14.961
87981W        W59597  14.283   5.701  13.977
87982W        W59598  35.046  21.670   0.350
87983W        W59599  29.863   6.799  14.332
87984W        W59600   0.862  44.605  13.679
87985W        W59601  33.567   5.241  13.140
87986W        W59602   9.721  30.191  12.631
87987W        W59603  38.930  38.752   0.879
87988W        W59604  33.344  33.521   2.411
87989W        W59605  19.852  31.448   3.982
87990W        W59606   8.722   0.978   4.076
87991W        W59607  23.055  30.509   1.979
87992W        W59608   7.780  32.162   2.199
87993W        W59609  41.579  16.215  11.552
87994W        W59610  38.923  31.584   0.278
87995W        W59611   7.646  41.529   2.880
87996W        W59612  34.097  37.458   3.240
87997W        W59613  18.336  10.317  12.929
87998W        W59614  36.774  37.015   3.949
87999W        W59615  17.378  31.601  14.428
88000W        W59616  32.667  24.559  13.440
88001W        W59617  17.059   8.707   0.836
88002W        W59618   8.481   9.746   3.724
88003W        W59619  32.359  24.034  12.622
88004W        W59620   0.019   7.137   4.583
88005W        W59621  24.049   8.389   0.322
88006W        W59622  17.128  39.302   3.270
88007W        W59623  27.088   8.885   3.174
88008W        W59624   2.953  13.609   3.096
88009W        W59625  23.237  27.968  11.193
88010W        W59626  19.566  31.257  11.507
88011W        W59627  19.183  29.101   3.373
88012W        W59628   0.213   5.838   2.775
88013W        W59629  12.469  12.250   2.692
88014W        W59630  29.662  17.807   0.901
88015W        W59631  18.531   6.630   4.146
88016W        W59632  25.905  16.300   3.286
88017W        W59633  20.502  44.280   2.646
88018W        W59634  21.655  38.123  14.860
88019W        W59635  17.795  23.723  12.575
88020W        W59636  12.369   4.834   1.851
88021W        W59637  25.867  14.023  10.229
88022W        W59638  42.926  39.308  14.051
88023W        W59639  24.041  37.546   3.010
88024W        W59640  10.827  28.665  13.481
88025W        W59641  29.063  44.023  11.134
88026W        W59642   1.977   5.431   1.208
88027W        W59643  27.377  16.240  13.940
88028W        W59644  20.798  26.568  10.551
88029W        W59645   7.693   5.495  12.058
88030W        W59646  42.532   9.366   0.391
88031W        W59647  36.990   2.234   0.289
88032W        W59648  28.694   8.802  12.284
88033W        W59649  15.792  36.143  13.500
88034W        W59650  36.202  23.838   1.326
88035W        W59651  34.884  44.083  13.872
88036W        W59652  41.239   8.373   4.099
88037W        W59653  28.196  20.143   1.714
88038W        W59654  28.069   6.096  13.599
88039W        W59655  32.104  27.619  14.007
88040W        W59656  21.212  40.074  10.119
88041W        W59657   6.954  13.172   1.360
88042W        W59658  18.307   7.010   2.465
88043W        W59659  40.860  31.677   4.256
88044W        W59660  13.863  27.004   1.155
88045W        W59661   7.348  17.544  12.152
88046W        W59662  26.694   4.989  13.415
88047W        W59663  43.593  42.286  14.796
88048W        W59664  25.224   1.495   0.907
88049W        W59665  22.099   5.811   1.706
88050W        W59666  35.389  22.167   3.183
88051W        W59667  43.834   3.422   4.555
88052W        W59668   2.630  44.055   4.581
88053W        W59669  41.207  29.431   0.816
88054W        W59670  40.042  38.081   1.354
88055W        W59671  37.390  23.114   2.616
88056W        W59672  39.335  25.174  14.724
88057W        W59673  28.257  26.103   3.914
88058W        W59674   6.856  23.033   1.476
88059W        W59675  35.626   5.519   0.363
88060W        W59676   9.880  41.110   4.649
88061W        W59677   0.257   9.198  13.419
88062W        W59678   6.109  34.845  12.582
88063W        W59679  36.543  30.027   1.043
88064W        W59680   4.410  23.915   0.679
88065W        W59681  15.797  37.094  14.252
88066W        W59682   6.245  25.551   3.040
88067W        W59683   5.452  26.428   2.350
88068W        W59684  39.373  36.307   4.456
88069W        W59685   9.100  16.260  13.909
88070W        W59686  13.053   3.505  11.555
88071W        W59687  22.205   2.231  14.941
88072W        W59688  15.969   5.887  12.774
88073W        W59689   5.224  40.839   3.608
88074W        W59690  22.454  25.918  10.087
88075W        W59691  41.532  21.620  12.491
88076W        W59692  37.342   1.255   1.602
88077W        W59693  14.270  44.042   2.106
88078W        W59694  39.034   2.462   0.778
88079W        W59695   3.342  32.532  13.722
88080W        W59696  17.623   3.268   1.328
88081W        W59697   9.308  17.716   3.034
88082W        W59698  42.817   9.041   1.334
88083W        W59699  19.014  25.485   1.118
88084W        W59700  23.749  26.181   3.916
88085W        W59701  12.153  41.874  12.890
88086W        W59702  35.259  18.639  10.608
88087W        W59703  11.742  37.852   4.359
88088W        W59704  11.617  27.192  11.986
88089W        W59705   9.176  22.378  10.310
88090W        W59706  26.068  22.573   1.031
88091W        W59707   2.902   1.983   2.647
88092W        W59708  29.276   6.910  12.935
88093W        W59709  31.371  13.765   0.826
88094W        W59710  14.155  32.943   1.314
88095W        W59711  29.943  34.119  11.154
88096W        W59712  23.154   3.706   2.012
88097W        W59713  21.018  12.716   2.711
88098W        W59714  35.544  36.557  11.588
88099W        W59715  26.491  16.646  12.539
88100W        W59716   4.346  26.414  10.614
88101W        W59717  43.553  39.395   0.834
88102W        W59718  14.150  28.452   3.204
88103W        W59719  44.238  29.748   1.447
88104W        W59720  27.413  29.976   3.223
88105W        W59721  31.932  31.279  12.061
88106W        W59722  22.292  40.886   2.832
88107W        W59723  20.355  42.837  14.078
88108W        W59724   7.716   4.545  12.093
88109W        W59725   8.689   0.327   0.232
88110W        W59726  31.861  11.202   3.743
88111W        W59727  39.047  12.428   1.351
88112W        W59728  44.156  21.736   1.369
88113W        W59729  40.094  34.915   2.649
88114W        W59730  36.726  25.270   1.507
88115W        W59731  43.765  37.862  14.792
88116W        W59732  40.342   9.502   0.988
88117W        W59733  40.491   4.801  10.945
88118W        W59734   5.630   5.769   4.683
88119W        W59735  34.478   2.293  14.920
88120W        W59736  10.765  26.376  10.742
88121W        W59737  12.333  39.408   4.848
88122W        W59738  18.887  18.260   4.647
88123W        W59739  19.722  27.039   3.379
88124W        W59740   9.729  10.701   3.738
88125W        W59741  18.660  16.413  11.359
88126W        W59742  12.229  43.448  13.431
88127W        W59743  25.314  18.925   2.182
88128W        W59744  28.964  33.748  10.396
88129W        W59745  25.149  38.598  11.087
88130W        W59746   4.381   8.945   3.758
88131W        W59747  16.208   5.746   3.293
88132W        W59748  25.924   9.292  13.480
88133W        W59749  28.067  24.031  14.504
88134W        W59750  17.368  23.629   2.634
88135W        W59751   6.017  42.481   0.368
88136W        W59752   1.235  10.412  13.920
88137W        W59753  12.615  37.276   1.306
88138W        W59754  27.450   2.018   3.358
88139W        W59755  34.892  22.492  12.516
88140W        W59756  15.308  34.317  13.399
88141W        W59757   1.714  25.606   4.752
88142W        W59758  17.082  15.545   4.066
88143W        W59759  14.580  21.034   4.107
88144W        W59760  36.026  43.499   0.564
88145W        W59761  43.094  15.002   3.636
88146W        W59762  11.274  38.522   0.910
88147W        W59763  36.035   7.940  13.299
88148W        W59764  18.226  41.487   2.825
88149W        W59765  37.473  30.814   4.156
88150W        W59766  24.660  12.173  10.489
88151W        W59767  34.898  34.381   0.044
88152W        W59768   7.573  26.246  14.032
88153W        W59769   8.882  23.557  11.472
88154W        W59770   2.259  26.042   0.440
88155W        W59771  41.653  42.069  14.377
88156W        W59772  22.983  18.133   2.465
88157W        W59773  44.814   1.227  13.443
88158W        W59774  38.465  24.735  10.678
88159W        W59775  34.426  39.048  12.061
88160W        W59776  28.237  35.062  13.338
88161W        W59777  18.527  15.680  13.960
88162W        W59778  16.767   9.691   0.752
88163W        W59779  25.374  40.156  11.070
88164W        W59780  42.525  25.074   2.897
88165W        W59781  42.954  15.183   4.536
88166W        W59782  37.081  15.872  14.468
88167W        W59783  30.657  15.723  13.985
88168W        W59784  31.871  15.845   1.899
88169W        W59785  16.644   3.282  13.159
88170W        W59786   2.431  15.780  11.143
88171W        W59787  12.174   2.424  12.463
88172W        W59788   0.448  39.501   4.489
88173W        W59789  41.383   7.587   0.341
88174W        W59790  20.521  15.739  12.970
88175W        W59791   6.266   3.678   1.786
88176W        W59792   7.683  20.638   0.017
88177W        W59793  43.267  32.135  12.598
88178W        W59794  23.632   4.978   3.173
88179W        W59795  23.640   0.712  12.400
88180W        W59796  17.325  36.544  10.606
88181W        W59797  10.260  20.690  10.560
88182W        W59798  14.015  34.589   4.082
88183W        W59799  31.002   3.909   1.406
88184W        W59800  22.195   3.012  11.415
88185W        W59801  31.569  18.320   4.813
88186W        W59802  19.190  15.016  12.580
88187W        W59803  26.579  29.049   1.184
88188W        W59804  16.629  24.046  14.487
88189W        W59805  42.477  35.758  12.550
88190W        W59806   5.619  26.922   1.996
88191W        W59807  26.774  44.441   3.111
88192W        W59808  17.687  27.076   3.305
88193W        W59809   8.217  13.857   4.905
88194W        W59810  32.542  37.776   1.973
88195W        W59811  29.032   8.291   4.765
88196W        W59812  41.521   9.116   4.977
88197W        W59813  10.901  23.004  11.530
88198W        W59814   9.265  44.392   3.400
88199W        W59815  38.866  10.918   0.935
88200W        W59816  23.560  12.583   1.411
88201W        W59817  36.534  20.743  14.835
88202W        W59818  38.337  17.505   1.365
88203W        W59819  14.080  18.506  11.541
88204W        W59820   2.526  32.414  13.039
88205W        W59821  25.132  38.581   3.747
88206W        W59822  24.777  32.352  13.049
88207W        W59823   0.784  41.431   9.825
88208W        W59824  31.472  33.869   4.160
88209W        W59825  29.005   7.142  13.420
88210W        W59826  28.455  18.400   2.986
88211W        W59827  22.304  40.786  11.212
88212W        W59828  26.996   5.336  11.481
88213W        W59829  15.030   9.817  13.906
88214W        W59830   4.991  16.219  10.823
88215W        W59831  34.495  40.532   2.767
88216W        W59832  25.562  25.109   3.300
88217W        W59833  40.857  42.603  13.362
88218W        W59834  16.883  37.874   4.292
88219W        W59835  19.556  32.904  12.551
88220W        W59836  19.727  44.032   4.699
88221W        W59837  24.562  32.915  11.981
88222W        W59838  22.291  38.583   3.853
88223W        W59839  34.488  11.250   2.834
88224W        W59840   6.224  37.889   1.413
88225W        W59841  25.383  39.080  13.328
88226W        W59842  26.171  17.678  13.363
88227W        W59843  36.994  37.916   0.756
88228W        W59844   4.128  21.219   0.506
88229W        W59845  15.585   8.012   0.969
88230W        W59846  23.056  18.641  10.682
88231W        W59847  22.029  31.236   3.712
88232W        W59848  41.500  16.755   1.642
88233W        W59849  33.564   7.451   0.676
88234W        W59850  10.793  35.863   1.085
88235W        W59851  20.697  38.450  14.382
88236W        W59852  17.059  35.525   0.244
88237W        W59853   4.432  10.901   2.098
88238W        W59854   4.753  39.318  11.736
88239W        W59855  12.316  37.585   4.106
88240W        W59856  10.263   8.238  12.449
88241W        W59857  39.296  41.821   2.722
88242W        W59858  27.206  42.939   2.254
88243W        W59859   3.241   1.508  14.797
88244W        W59860  31.982  44.381  11.390
88245W        W59861  29.059  31.095  10.605
88246W        W59862  22.210  33.905   0.401
88247W        W59863  26.659  34.958   3.680
88248W        W59864   5.404   7.279   2.637
88249W        W59865  35.054  10.865  10.670
88250W        W59866  37.581  29.995   1.470
88251W        W59867  21.017  43.704   1.769
88252W        W59868  22.621  15.690   3.946
88253W        W59869   4.976   7.887   2.458
88254W        W59870  18.652  42.463  12.867
88255W        W59871   3.296  37.412  10.616
88256W        W59872  34.046   7.655  12.450
88257W        W59873  42.603  16.239  11.513
88258W        W59874  35.602  15.884  11.264
88259W        W59875  19.785  15.188  13.233
88260W        W59876  37.851  14.141  14.783
88261W        W59877   3.763  32.476   0.042
88262W        W59878   7.829   7.411   4.139
88263W        W59879  37.079  28.031   3.655
88264W        W59880  25.010   0.507  12.466
88265W        W59881   7.747   2.862   0.811
88266W        W59882  26.155  33.629   4.631
88267W        W59883   7.630  37.340   2.177
88268W        W59884  44.538  13.432  12.941
88269W        W59885  24.926  25.231  12.323
88270W        W59886   3.247   5.793   1.007
88271W        W59887   9.825  27.920   3.837
88272W        W59888  17.559  13.362   3.652
88273W        W59889  34.548  26.455  12.614
88274W        W59890   6.867  35.043  14.049
88275W        W59891  21.509  25.678  11.538
88276W        W59892  30.850   6.769   4.671
88277W        W59893  23.580  34.943   0.710
88278W        W59894  42.476  29.025  11.196
88279W        W59895  25.275  44.872  11.010
88280W        W59896   7.824  27.923   3.809
88281W        W59897  33.371  24.963   4.060
88282W        W59898  40.346  36.986   0.843
88283W        W59899  32.674  43.596  13.999
88284W        W59900  16.752  42.951   4.272
88285W        W59901  18.221  38.607   0.314
88286W        W59902   9.064  43.809   0.995
88287W        W59903   6.668  37.573   2.185
88288W        W59904  25.701  22.135  13.482
88289W        W59905  18.039  28.781  13.458
88290W        W59906  28.952  20.099   3.188
88291W        W59907  33.617  15.239   2.508
88292W        W59908  37.703  37.518  13.939
88293W        W59909   5.110  28.753  12.500
88294W        W59910  22.700  23.914  12.425
88295W        W59911  23.255  22.662   2.345
88296W        W59912  31.600  17.394   4.584
88297W        W59913  41.514  17.595   2.912
88298W        W59914   8.660  32.035   2.443
88299W        W59915  37.900  10.616   4.481
88300W        W59916  13.310  10.700  11.525
88301W        W59917  15.735   3.096  10.136
88302W        W59918   8.467  11.843  11.182
88303W        W59919  42.103  25.841  11.603
88304W        W59920  38.086  30.150  13.296
88305W        W59921  14.576   7.662  14.489
88306W        W59922  39.555  26.641  10.912
88307W        W59923  13.354  32.509   2.246
88308W        W59924   9.304  42.124  12.016
88309W        W59925  31.713  30.510  11.022
88310W        W59926  39.410  19.645  14.485
88311W        W59927  24.687  11.184  11.241
88312W        W59928  14.020   2.438   2.825
88313W        W59929   0.895   6.268  13.115
88314W        W59930  17.951  42.962  13.977
88315W        W59931  13.589  12.225   4.724
88316W        W59932   7.079   8.224  14.560
88317W        W59933  37.567   3.769   2.221
88318W        W59934  38.322  21.520   0.435
88319W        W59935  40.973  39.835   1.694
88320W        W59936  35.549  17.297   0.434
88321W        W59937  16.088  14.741   2.560
88322W        W59938  14.961  13.840  14.841
88323W        W59939   2.809  31.553  13.167
88324W        W59940  11.373  26.545  13.000
88325W        W59941   1.772  22.582   4.036
88326W        W59942  10.802  31.892  12.771
88327W        W59943  32.371  13.797  13.847
88328W        W59944  24.382  31.897  12.027
88329W        W59945  32.333  12.801   0.069
88330W        W59946  17.269  34.171  12.608
88331W        W59947  40.764  22.865  11.922
88332W        W59948  20.104  40.555   0.941
88333W        W59949  33.510  32.076   0.173
88334W        W59950  23.314   5.274   2.836
88335W        W59951  25.906  29.744   1.617
88336W        W59952  16.053  38.039   0.339
88337W        W59953  33.705  17.686  13.883
88338W        W59954   1.890  32.332  12.439
88339W        W59955  38.954  15.145   5.261
88340W        W59956  19.857   2.526  14.719
88341W        W59957  10.260   2.035   9.825
88342W        W59958  29.665   3.661   2.022
88343W        W59959  24.167  17.566  11.090
88344W        W59960  17.576  19.522   2.269
88345W        W59961  18.790  42.192  11.821
88346W        W59962   3.404   8.316   1.172
88347W        W59963  15.725  16.248  13.923
88348W        W59964  37.888   9.382   1.699
88349W        W59965  38.348  10.035   2.723
88350W        W59966  38.934   9.887  14.946
88351W        W59967  21.482   1.772   3.112
88352W        W59968   7.003  22.583  12.562
88353W        W59969   6.697  41.781   0.295
88354W        W59970  11.982  20.682  12.562
88355W        W59971   9.932  34.135   2.702
88356W        W59972  36.854   9.752  12.274
88357W        W59973  41.086  43.664  10.686
88358W        W59974  23.980  42.085  13.360
88359W        W59975  31.102  23.440   1.807
88360W        W59976  14.356   6.243  14.415
88361W        W59977  18.162  17.626  13.528
88362W        W59978  29.388  16.520  11.832
88363W        W59979   3.500  18.442  14.885
88364W        W59980  43.892  30.076  11.316
88365W        W59981   4.460   6.665  10.981
88366W        W59982  16.378  21.801  11.966
88367W        W59983  44.809   9.875   0.510
88368W        W59984  31.334  34.554   3.837
88369W        W59985  34.494  20.109  12.775
88370W        W59986  31.297  28.400   4.966
88371W        W59987  16.508  19.021  11.543
88372W        W59988  33.887  20.032   0.893
88373W        W59989  19.342  29.429   1.601
88374W        W59990  26.574   0.169   0.247
88375W        W59991  36.978  37.747  10.714
88376W        W59992   8.391   9.111   3.106
88377W        W59993  20.298  22.006  13.660
88378W        W59994  28.377  27.828   1.277
88379W        W59995  40.728  11.778   4.276
88380W        W59996  33.480  41.723   0.510
88381W        W59997   6.957   1.263   2.620
88382W        W59998  17.581   8.747  12.451
88383W        W59999  42.939  18.686   0.323
88384W        W60000  33.386  11.582   2.395
88385W        W60001   2.285  28.933  12.895
88386W        W60002  41.077  28.022   2.789
88387W        W60003  40.770  32.893  12.059
88388W        W60004  44.284   6.852  13.590
88389W        W60005  21.257  26.751   0.507
88390W        W60006  41.862   9.133  12.643
88391W        W60007  18.294  35.914  11.116
88392W        W60008  38.136  20.267  14.287
88393W        W60009  42.472  13.172   3.782
88394W        W60010  31.133   5.660   2.635
88395W        W60011   7.392  31.953   3.644
88396W        W60012  16.341  40.179   0.816
88397W        W60013  20.504  29.465   2.340
88398W        W60014  20.467  20.505   3.813
88399W        W60015  44.768  43.409  11.156
88400W        W60016   4.879  31.008  12.829
88401W        W60017  43.961  10.301   2.256
88402W        W60018   2.247  20.597  11.966
88403W        W60019   3.073   1.978  13.061
88404W        W60020   9.732  14.647  11.063
88405W        W60021  16.158   0.801  14.981
88406W        W60022   8.169  44.477  11.998
88407W        W60023  29.148  39.882   3.643
88408W        W60024  18.802  34.641   1.349
88409W        W60025  36.030  43.969  14.293
88410W        W60026  40.112  25.454  12.514
88411W        W60027  37.937  31.545   2.895
88412W        W60028  26.342   1.470  13.015
88413W        W60029  23.325  22.116   4.496
88414W        W60030  35.809  13.313  13.819
88415W        W60031  36.609   9.429   2.396
88416W        W60032   0.277   8.642   2.197
88417W        W60033   1.225  31.385  14.870
88418W        W60034  20.679  26.400  11.026
88419W        W60035  15.816   5.402   5.064
88420W        W60036   3.399   4.297   3.386
88421W        W60037  34.586  36.588   3.100
88422W        W60038  12.895   5.307   2.584
88423W        W60039  35.559  44.351   3.654
88424W        W60040  38.726  41.965   2.539
88425W        W60041  44.135  30.365  13.883
88426W        W60042  36.149   7.584  12.101
88427W        W60043  17.054  15.189   1.074
88428W        W60044  29.620  42.510  11.201
88429W        W60045  15.806   5.869  11.157
88430W        W60046  13.875  34.891   3.174
88431W        W60047  18.681  27.101  13.030
88432W        W60048  40.816   0.971  10.554
88433W        W60049  23.688   3.693  12.984
88434W        W60050  17.397   4.145  13.319
88435W        W60051  32.071  43.073  10.608
88436W        W60052  28.489  43.002  10.634
88437W        W60053  10.949  23.393  13.035
88438W        W60054  12.337  10.088  10.691
88439W        W60055  12.700   6.633  12.071
88440W        W60056   6.637  40.047  12.539
88441W        W60057   8.225   2.455  11.985
88442W        W60058  37.183  21.580  11.336
88443W        W60059   3.589  27.429   2.677
88444W        W60060  25.544  31.639  14.831
88445W        W60061  36.793  11.630  14.840
88446W        W60062  44.732  14.653   3.282
88447W        W60063  35.498  17.807  11.130
88448W        W60064  31.949  26.481   1.716
88449W        W60065   4.191  33.000  10.237
88450W        W60066   1.251  13.272   4.837
88451W        W60067  10.212  17.778  13.134
88452W        W60068  40.994   2.998   3.284
88453W        W60069  35.084   2.445   4.087
88454W        W60070  28.429  16.944   9.907
88455W        W60071  44.436  35.844   4.067
88456W        W60072  30.698  10.231   0.264
88457W        W60073  25.607  11.687   1.590
88458W        W60074   7.643  37.320  11.149
88459W        W60075  22.715  13.642  11.357
88460W        W60076  36.639  36.730  10.952
88461W        W60077  11.866  26.164   2.752
88462W        W60078   8.308  27.547  12.108
88463W        W60079  31.034  26.957  11.447
88464W        W60080  21.287   2.950  14.407
88465W        W60081   9.253  22.775   1.751
88466W        W60082  12.317  17.255  12.907
88467W        W60083   8.653  29.600  14.106
88468W        W60084  23.641  35.844   4.246
88469W        W60085  15.566  39.843  12.553
88470W        W60086  16.125  25.947  13.452
88471W        W60087  28.506  23.268  10.395
88472W        W60088   1.734  29.637  13.878
88473W        W60089   5.656  28.952  11.268
88474W        W60090  37.825  39.021   3.131
88475W        W60091  26.999  24.629  13.023
88476W        W60092  16.713  31.465   2.522
88477W        W60093   6.516  22.509   4.127
88478W        W60094  40.525  16.782  14.928
88479W        W60095   9.389  26.458   4.554
88480W        W60096  39.644  36.433   1.721
88481W        W60097   1.255   4.250   0.074
88482W        W60098  44.846  42.550  13.572
88483W        W60099  16.394  20.400  13.996
88484W        W60100   1.498  40.258  14.702
88485W        W60101   2.029  40.976   4.270
88486W        W60102  10.808  23.761   0.415
88487W        W60103  14.716  30.635  12.163
88488W        W60104  41.375  12.333  13.393
88489W        W60105  22.169  13.925  14.469
88490W        W60106  43.673   0.176  11.085
88491W        W60107  26.611  40.091  11.626
88492W        W60108   3.360   2.764  12.587
88493W        W60109   2.916  42.519   1.263
88494W        W60110  41.979   6.189  14.910
88495W        W60111  22.756   3.481   4.770
88496W        W60112  41.782  33.499   4.075
88497W        W60113  44.280  42.540  14.279
88498W        W60114  13.419  26.721  13.939
88499W        W60115   3.951  15.889  12.773
88500W        W60116  34.963   7.976   3.833
88501W        W60117  11.333  24.539  10.623
88502W        W60118  26.631   8.851  10.488
88503W        W60119  11.047   1.844  13.165
88504W        W60120   3.803  39.640  14.995
88505W        W60121   3.359   8.211  12.108
88506W        W60122  35.284  13.577  11.467
88507W        W60123  23.312  36.301   4.212
88508W        W60124  43.817  42.985  11.010
88509W        W60125  37.288  19.786   3.763
88510W        W60126   3.936  10.793  12.951
88511W        W60127  34.620  39.720  14.948
88512W        W60128   3.841  23.232  14.079
88513W        W60129  38.595  11.720  12.983
88514W        W60130  27.091  38.623  12.531
88515W        W60131  13.107  11.800   1.005
88516W        W60132  31.373  36.346   2.618
88517W        W60133   3.050  20.626  12.403
88518W        W60134  35.637  43.916  13.391
88519W        W60135  37.151  29.290  10.763
88520W        W60136   2.469  43.583  10.292
88521W        W60137   4.470   3.387  12.561
88522W        W60138  21.484   4.829   3.582
88523W        W60139  15.513   5.785   2.835
88524W        W60140  30.547   2.735   1.760
88525W        W60141  15.673  34.278   4.892
88526W        W60142   7.190  44.291  12.982
88527W        W60143  11.385  23.103  11.606
88528W        W60144  38.006  43.505  14.418
88529W        W60145   1.959  34.394  11.681
88530W        W60146   0.716   6.000  11.823
88531W        W60147  29.744  24.290   0.780
88532W        W60148  25.517  24.239  11.638
88533W        W60149  10.892  36.356  11.132
88534W        W60150   7.131  18.844  12.071
88535W        W60151  36.550  10.978  12.131
88536W        W60152  15.259   0.455  13.272
88537W        W60153   7.814  41.190   0.966
88538W        W60154   3.897   9.957  11.252
88539W        W60155  28.911   6.995   4.643
88540W        W60156  18.173  20.508  14.311
88541W        W60157   7.683  21.675   4.649
88542W        W60158  22.772  17.100   0.383
88543W        W60159   6.193  12.513  11.628
88544W        W60160  36.114  14.851   3.676
88545W        W60161  11.156  32.504   3.921
88546W        W60162  21.586  28.934   0.889
88547W        W60163  32.517  44.935   5.327
88548W        W60164   8.294   8.291  13.101
88549W        W60165  29.266  23.402  13.868
88550W        W60166  10.861  11.062   1.347
88551W        W60167  13.356  33.983  11.051
88552W        W60168  22.704  29.985   4.721
88553W        W60169  35.544  24.422   0.408
88554W        W60170   1.363  27.999   2.728
88555W        W60171  39.318  16.268   2.316
88556W        W60172  14.796  44.801   1.887
88557W        W60173  11.150   4.379  13.965
88558W        W60174  21.373  23.483  10.631
88559W        W60175  26.279  35.437  14.067
88560W        W60176  14.635  29.854   4.188
88561W        W60177   9.880  15.531  12.086
88562W        W60178   9.735  23.990  12.514
88563W        W60179  20.754  15.029  13.314
88564W        W60180  10.570  14.280   4.632
88565W        W60181   6.392  19.913   1.979
88566W        W60182   0.293  34.544  12.597
88567W        W60183  10.221  44.333   4.271
88568W        W60184  37.132  17.272   2.049
88569W        W60185  33.576  22.456   3.856
88570W        W60186  42.905  35.686   4.539
88571W        W60187  29.776  29.526   2.295
88572W        W60188   1.431  40.017  11.885
88573W        W60189  24.623  32.706  13.905
88574W        W60190  26.015  28.201   0.943
88575W        W60191  15.250  23.918   0.789
88576W        W60192   6.317  12.275   4.093
88577W        W60193  22.090  19.786  14.788
88578W        W60194   3.302  16.566  13.932
88579W        W60195   0.525  14.467  11.413
88580W        W60196  12.549  10.879   0.823
88581W        W60197  40.295  34.086  13.469
88582W        W60198  16.284  36.402   2.744
88583W        W60199   1.058   5.263  12.455
88584W        W60200  28.981  42.092  12.183
88585W        W60201  18.842  26.992   3.794
88586W        W60202  26.514  36.607   4.533
88587W        W60203  27.973  29.533   0.872
88588W        W60204   4.758   8.134   2.843
88589W        W60205  24.112  31.695  13.003
88590W        W60206  20.263   1.259  14.799
88591W        W60207   3.187  37.210  14.902
88592W        W60208  19.090   3.200   4.403
88593W        W60209  15.354  15.426   0.884
88594W        W60210  29.923  29.704  12.593
88595W        W60211  16.300   4.363   9.818
88596W        W60212   5.160   9.404   1.376
88597W        W60213  43.201  19.731   4.151
88598W        W60214   8.431  38.458  12.657
88599W        W60215  30.201   3.510   3.625
88600W        W60216  29.926   3.739  12.339
88601W        W60217  23.409  27.998   1.838
88602W        W60218  25.286  19.025   3.325
88603W        W60219   4.859  31.878  12.147
88604W        W60220  31.903  26.149  11.063
88605W        W60221  22.522   5.411  12.489
88606W        W60222  30.189  21.124  12.965
88607W        W60223  33.496   9.618   4.132
88608W        W60224  30.006  41.292  11.438
88609W        W60225   9.614  39.380   1.729
88610W        W60226  33.407  26.919   2.269
88611W        W60227  38.059  27.196   4.223
88612W        W60228  42.379  13.795   1.860
88613W        W60229  12.347  33.026  14.426
88614W        W60230  23.453  19.649   4.661
88615W        W60231  31.383  31.003  14.833
88616W        W60232  23.037  34.775   3.360
88617W        W60233  14.785  42.728  11.113
88618W        W60234  15.899  28.931  11.774
88619W        W60235  42.927   0.928  10.718
88620W        W60236  26.503   0.988   1.405
88621W        W60237  42.892   5.772   4.161
88622W        W60238  20.144  41.533   4.499
88623W        W60239  36.503  17.134   4.802
88624W        W60240  29.560  29.099   2.146
88625W        W60241   4.994  21.624   2.586
88626W        W60242  26.403  12.650   5.042
88627W        W60243  36.433  32.946   2.766
88628W        W60244   2.610  18.793  14.046
88629W        W60245  24.572  19.218   4.138
88630W        W60246  27.639  24.547   4.610
88631W        W60247  33.707  10.636   3.677
88632W        W60248  17.761  40.134  12.040
88633W        W60249   0.950  15.562   3.330
88634W        W60250  13.338  27.076   3.258
88635W        W60251  38.509  23.177  14.222
88636W        W60252   5.991   1.381   0.844
88637W        W60253   1.302  12.686  14.428
88638W        W60254  10.863   7.900   0.406
88639W        W60255  27.960  39.047   3.143
88640W        W60256   7.496  36.075  10.758
88641W        W60257  40.432  22.312  11.144
88642W        W60258  14.636  20.119   3.660
88643W        W60259  34.436  33.275  10.685
88644W        W60260  15.634  31.753   5.351
88645W        W60261  10.581   1.209  12.975
88646W        W60262  18.594   7.735   4.516
88647W        W60263   7.892  17.527   2.162
88648W        W60264  29.953  41.283   4.098
88649W        W60265  31.514  16.222  13.369
88650W        W60266  22.830   2.000   0.762
88651W        W60267   2.427   2.236  11.141
88652W        W60268  43.268   1.748   1.257
88653W        W60269  27.240  39.041  14.745
88654W        W60270   3.006  37.478  11.077
88655W        W60271   7.228  24.186   3.854
88656W        W60272  29.508  43.084  11.139
88657W        W60273  35.537  28.999   3.889
88658W        W60274  12.312   7.337  14.778
88659W        W60275  15.627   0.431  10.805
88660W        W60276  19.996  37.854  12.621
88661W        W60277   7.269  41.281   2.586
88662W        W60278   4.881   6.573   2.889
88663W        W60279  18.642  37.162   2.799
88664W        W60280  41.322  30.396  14.461
88665W        W60281   0.388   4.456   0.654
88666W        W60282  33.635  43.991   3.013
88667W        W60283  16.970  21.765  13.769
88668W        W60284   8.779   5.000   1.108
88669W        W60285  20.173   4.766   1.154
88670W        W60286  31.966  16.182   4.593
88671W        W60287  44.209  23.596  11.030
88672W        W60288   2.032   7.666   0.775
88673W        W60289  24.271   9.361   2.274
88674W        W60290  36.574   5.363  14.480
88675W        W60291  30.705  40.845   3.582
88676W        W60292  10.269  34.017  13.559
88677W        W60293  18.360  14.759  14.580
88678W        W60294  42.350  33.065  11.421
88679W        W60295  29.167  22.252   2.552
88680W        W60296  13.593  13.221   1.852
88681W        W60297  17.737  10.684   4.075
88682W        W60298   8.852  29.169  14.995
88683W        W60299  35.815  18.918  14.314
88684W        W60300  35.796  31.484  11.098
88685W        W60301  23.608  22.922  10.616
88686W        W60302   6.311  39.203  12.590
88687W        W60303  32.529  29.450  10.273
88688W        W60304  27.362  35.068  12.885
88689W        W60305  40.916  39.104  11.448
88690W        W60306  28.500  16.348  13.489
88691W        W60307  29.361   9.905   1.551
88692W        W60308   3.823   3.216  13.352
88693W        W60309   7.978  20.746  10.826
88694W        W60310  41.386  38.246   0.233
88695W        W60311  13.732  28.403   3.492
88696W        W60312  37.506  16.570   0.864
88697W        W60313  24.602  17.158   1.075
88698W        W60314  29.441  26.954   1.747
88699W        W60315  34.568  20.492  14.931
88700W        W60316  16.356  30.997   1.151
88701W        W60317  17.261  21.991  11.585
88702W        W60318  20.669   4.474  12.480
88703W        W60319  12.305  15.711   1.332
88704W        W60320  44.062  21.986  10.551
88705W        W60321   7.521   7.175  11.542
88706W        W60322  17.064  12.752   4.923
88707W        W60323  39.285  17.533   3.975
88708W        W60324  23.408   2.161  10.600
88709W        W60325   4.825   6.692  10.609
88710W        W60326   1.627   1.494  13.727
88711W        W60327   3.706  20.223   3.667
88712W        W60328  34.901   2.623   4.762
88713W        W60329  35.073  17.853   0.039
88714W        W60330  35.914  37.924  10.619
88715W        W60331   7.833  41.701   0.944
88716W        W60332  25.545  27.039  12.413
88717W        W60333   5.813  26.526  13.994
88718W        W60334  28.683  17.079  13.924
88719W        W60335  27.773  33.024   2.321
88720W        W60336  34.956  40.975   5.184
88721W        W60337  11.813   4.975   3.610
88722W        W60338  28.142  18.504  10.366
88723W        W60339  17.922   3.158  12.376
88724W        W60340   2.773   0.836  10.223
88725W        W60341  15.738  21.065  10.819
88726W        W60342   8.385   8.283   2.589
88727W        W60343  18.711  26.737  11.149
88728W        W60344  20.539   8.326  12.028
88729W        W60345  35.914  19.472   1.410
88730W        W60346   8.180  12.009   3.056
88731W        W60347   2.585   9.553  13.140
88732W        W60348  23.220  20.046  11.346
88733W        W60349   0.762  29.690   3.030
88734W        W60350  38.921  11.869   2.791
88735W        W60351  22.601  44.879   2.322
88736W        W60352   6.720  14.100   2.113
88737W        W60353  43.865   2.073   0.243
88738W        W60354  30.770  38.387  10.351
88739W        W60355  27.899   0.663   1.900
88740W        W60356  42.485  44.301  14.947
88741W        W60357  20.468  24.248  13.937
88742W        W60358  25.223   1.891   1.253
88743W        W60359  36.759  26.852   1.797
88744W        W60360   7.906  38.553  12.841
88745W        W60361  32.894  33.420   3.369
88746W        W60362  35.130   1.993   5.015
88747W        W60363  41.392  26.335  13.784
88748W        W60364  17.360  13.342   0.995
88749W        W60365   3.994  35.132   1.424
88750W        W60366  43.376  25.840  10.570
88751W        W60367   0.519  35.649  10.994
88752W        W60368  36.936  43.421  14.220
88753W        W60369   8.150  44.377   4.226
88754W        W60370  32.957  37.083  13.980
88755W        W60371  28.030  13.938  14.881
88756W        W60372  17.799  30.527  10.715
88757W        W60373  18.747  29.185   0.849
88758W        W60374  31.705  22.512  14.993
88759W        W60375  20.521  10.360   2.245
88760W        W60376   4.198  38.992   3.004
88761W        W60377  16.770  20.087  11.725
88762W        W60378  16.326  42.773  13.568
88763W        W60379   3.304  32.989  10.566
88764W        W60380  22.168   4.832   1.304
88765W        W60381   0.738   8.815  14.767
88766W        W60382  19.684   4.223  12.187
88767W        W60383  37.603  13.340  10.610
88768W        W60384  18.371  41.326  12.593
88769W        W60385   1.710  24.203   3.155
88770W        W60386  25.247  14.719   3.582
88771W        W60387  44.818  10.442  12.584
88772W        W60388  28.856   6.329   4.192
88773W        W60389  35.358  10.783   1.422
88774W        W60390  37.000  27.126   2.201
88775W        W60391  21.076  31.484  12.536
88776W        W60392   7.656  29.159  14.863
88777W        W60393   0.050   9.629  12.026
88778W        W60394  12.196  36.038   4.390
88779W        W60395  33.520  32.113  11.603
88780W        W60396  33.578  12.206  13.578
88781W        W60397  15.296  19.551  10.464
88782W        W60398  34.483  10.579   1.247
88783W        W60399  24.942  38.315   0.403
88784W        W60400   9.671  32.987   4.214
88785W        W60401  22.667  29.455   4.615
88786W        W60402  32.505   2.545   0.775
88787W        W60403  17.279  17.330   0.257
88788W        W60404  11.838  12.690  11.266
88789W        W60405  22.588  24.095   2.025
88790W        W60406  37.643  37.316  12.608
88791W        W60407   1.825   4.237  13.397
88792W        W60408  23.454  21.010  12.067
88793W        W60409  34.927  20.993   2.449
88794W        W60410  23.997  28.543   3.037
88795W        W60411  29.948  35.408   3.650
88796W        W60412   8.150  33.916   3.758
88797W        W60413  12.406  31.193  12.418
88798W        W60414  23.454  26.268  11.150
88799W        W60415  12.234  19.005  13.310
88800W        W60416  14.795  40.560   1.791
88801W        W60417  26.219  42.336  12.083
88802W        W60418  17.432   2.756   2.361
88803W        W60419  33.603  41.047   2.867
88804W        W60420  18.223  44.028  13.525
88805W        W60421  30.012   1.529  13.753
88806W        W60422  32.477  21.140  13.350
88807W        W60423   9.408  11.096  11.068
88808W        W60424  40.257  34.545   1.936
88809W        W60425  21.152  31.199  10.912
88810W        W60426  37.503  42.764  12.474
88811W        W60427  18.360   4.700   1.893
88812W        W60428  22.674  11.608  11.177
88813W        W60429  30.597  21.098  10.674
88814W        W60430  14.315  17.224  10.619
88815W        W60431   4.145  13.208   0.361
88816W        W60432  29.585   5.425   4.658
88817W        W60433  36.404  27.564   4.514
88818W        W60434  21.624   3.751  14.567
88819W        W60435  31.624  17.717   0.888
88820W        W60436   8.022  35.878   4.450
88821W        W60437  40.695  21.134   1.415
88822W        W60438  38.731   8.702  12.128
88823W        W60439  29.736  16.351   3.700
88824W        W60440   5.764  37.141  13.873
88825W        W60441   0.673  25.514   4.658
88826W        W60442  28.131   9.335  14.262
88827W        W60443  22.432  17.558   2.703
88828W        W60444  38.956  36.608  11.592
88829W        W60445  32.108   5.405  13.465
88830W        W60446  16.666  14.886  14.719
88831W        W60447  38.242  37.640  11.587
88832W        W60448  41.281   9.780  12.095
88833W        W60449   4.673  43.951  12.429
88834W        W60450   0.711  34.273  11.125
88835W        W60451  40.089  15.488   3.582
88836W        W60452  28.569  20.822  10.977
88837W        W60453  44.919  22.926   2.127
88838W        W60454  39.181  44.227   2.614
88839W        W60455   9.995  36.420  11.344
88840W        W60456   3.797   3.511   1.300
88841W        W60457  43.462   0.058  14.436
88842W        W60458  41.494  18.080  13.438
88843W        W60459  25.507  11.585   3.097
88844W        W60460  36.478   5.210  11.513
88845W        W60461  39.406  41.963  14.816
88846W        W60462  20.583  12.149  10.502
88847W        W60463  12.718   1.325   1.675
88848W        W60464   3.786  10.390   1.808
88849W        W60465  13.054  26.830  14.310
88850W        W60466  29.682   7.458  12.931
88851W        W60467   2.368  37.353   0.978
88852W        W60468   5.240  30.487  14.363
88853W        W60469  12.352  38.076   0.439
88854W        W60470  27.654  22.052   3.912
88855W        W60471  28.952  11.150  12.410
88856W        W60472  41.397  38.017  12.310
88857W        W60473   7.320  36.938  12.513
88858W        W60474   3.847  28.485  11.356
88859W        W60475  41.365   8.741   1.734
88860W        W60476  33.905   0.008  14.520
88861W        W60477  13.059  35.456  13.811
88862W        W60478  22.235  13.670  10.684
88863W        W60479  34.154  43.288   2.051
88864W        W60480  15.761  12.875  13.974
88865W        W60481   5.678  30.902   1.643
88866W        W60482  21.022  10.839   0.873
88867W        W60483  42.486  36.388   2.611
88868W        W60484   8.379  28.049   2.790
88869W        W60485  30.657   7.088  14.046
88870W        W60486  44.459  18.126  10.696
88871W        W60487  19.571  40.479   1.412
88872W        W60488  15.734   5.473  11.938
88873W        W60489  38.313  21.169   1.417
88874W        W60490  19.088  37.102  10.801
88875W        W60491   1.251   3.657  11.071
88876W        W60492  12.737  34.961  14.439
88877W        W60493   4.274  28.559  14.856
88878W        W60494  33.544  39.294   0.688
88879W        W60495  11.194  17.185  10.760
88880W        W60496  16.779  21.730   2.542
88881W        W60497   4.456  20.087   3.315
88882W        W60498  25.463  44.087  12.496
88883W        W60499  41.989  18.306   2.256
88884W        W60500  21.634  18.567  13.517
88885W        W60501  30.515  14.856  10.747
88886W        W60502  41.549   8.947   3.728
88887W        W60503   4.827  40.358   4.237
88888W        W60504   8.647  36.603  11.203
88889W        W60505  15.283   0.688   3.743
88890W        W60506  20.626  28.830  12.580
88891W        W60507  38.856   3.829   1.318
88892W        W60508   9.083   2.904   1.905
88893W        W60509  30.001  19.833   2.683
88894W        W60510  42.386  13.032   4.302
88895W        W60511   9.085  18.456  11.729
88896W        W60512   4.971  29.458   1.284
88897W        W60513  38.354   7.909  11.758
88898W        W60514   0.020  10.759   2.896
88899W        W60515  13.788  28.629   0.820
88900W        W60516  31.906  38.968   0.575
88901W        W60517   9.790   2.454  13.878
88902W        W60518  10.091  24.690  12.542
88903W        W60519  37.612  38.050  13.924
88904W        W60520  16.642   6.022   1.887
88905W        W60521  16.208  38.405   4.342
88906W        W60522  29.516  40.122  11.148
88907W        W60523  38.750  25.038  12.508
88908W        W60524  14.906  35.767   1.083
88909W        W60525   3.469  34.455  10.595
88910W        W60526  44.844   2.436   1.692
88911W        W60527  22.653  25.652   2.961
88912W        W60528  41.885  12.345   4.011
88913W        W60529  13.761  25.097  13.019
88914W        W60530  40.717  23.897  13.024
88915W        W60531  33.917   8.557  12.895
88916W        W60532  41.394  35.769   4.991
88917W        W60533  22.275   9.714  12.389
88918W        W60534  31.694   5.122  12.515
88919W        W60535  14.081   5.991  14.903
88920W        W60536  41.825  33.571  10.631
88921W        W60537  19.082  27.480  14.919
88922W        W60538   9.145  12.457  12.183
88923W        W60539  44.555  30.557  10.754
88924W        W60540  43.695  33.334   0.862
88925W        W60541  39.885  27.214   4.570
88926W        W60542  11.880   2.559  11.175
88927W        W60543  28.894   1.822   4.109
88928W        W60544  35.353  14.434   5.093
88929W        W60545   3.822  40.115  14.770
88930W        W60546  12.080  18.001   2.286
88931W        W60547  28.168  15.676  10.288
88932W        W60548   5.280  44.931   2.798
88933W        W60549   5.249  28.634  14.425
88934W        W60550  36.914  15.339  13.356
88935W        W60551  43.115  43.273   1.134
88936W        W60552  38.781  23.266  10.419
88937W        W60553   3.776  31.866   2.696
88938W        W60554  41.040  11.090  13.450
88939W        W60555   6.496  39.574   1.207
88940W        W60556  44.981  27.631   1.499
88941W        W60557  17.793  30.620  14.437
88942W        W60558   9.565  32.475   1.358
88943W        W60559  18.529  19.304   0.859
88944W        W60560  34.368  36.578   2.626
88945W        W60561   1.041  29.986  14.921
88946W        W60562  24.640  28.201   2.779
88947W        W60563   7.899   5.285  14.525
88948W        W60564  44.345  28.895   3.249
88949W        W60565   4.634  16.812  13.065
88950W        W60566  24.698   4.423  11.649
88951W        W60567  27.605  27.526   4.418
88952W        W60568  39.132  17.494  14.733
88953W        W60569   2.939  32.573  10.688
88954W        W60570  20.719  22.279   2.748
88955W        W60571  44.650  19.597  11.169
88956W        W60572  21.099   0.534   1.744
88957W        W60573  21.839  23.681   4.373
88958W        W60574  11.672  17.230  11.610
88959W        W60575   7.170  37.588   2.237
88960W        W60576   6.216  35.832  12.398
88961W        W60577   1.332  27.652  14.356
88962W        W60578  10.264  21.132   0.850
88963W        W60579   9.697  42.226   3.849
88964W        W60580  43.278  12.386  14.175
88965W        W60581  10.822  39.861   4.073
88966W        W60582  43.492  32.511  12.287
88967W        W60583  34.595  20.447   2.867
88968W        W60584   8.207  16.497   2.390
88969W        W60585   9.045  41.573  11.496
88970W        W60586   8.387  20.040   2.240
88971W        W60587  23.657   6.915  14.761
88972W        W60588  32.497  36.996  10.628
88973W        W60589  11.653  33.438   0.360
88974W        W60590  27.493  40.236   4.278
88975W        W60591  28.449   4.454  11.700
88976W        W60592  25.677  44.017   4.174
88977W        W60593  41.493  34.548  13.399
88978W        W60594  20.077  24.333   0.445
88979W        W60595  16.514  11.365   3.416
88980W        W60596  22.465  28.408  11.157
88981W        W60597  19.568  28.161   0.488
88982W        W60598  10.252  32.889   1.851
88983W        W60599  17.537  37.323  12.904
88984W        W60600  35.455   1.454   2.323
88985W        W60601   5.792  21.068  12.427
88986W        W60602  44.334   3.301   4.555
88987W        W60603  14.880  34.009  13.498
88988W        W60604  20.999  41.365  12.426
88989W        W60605   6.710   8.182  11.184
88990W        W60606  15.548   3.719   4.524
88991W        W60607  11.431  24.871   1.848
88992W        W60608   5.289  21.046   4.584
88993W        W60609  24.798  15.279   1.919
88994W        W60610  35.323   5.314  12.100
88995W        W60611  31.627  18.836   4.781
88996W        W60612  11.961  14.170   2.257
88997W        W60613  23.977  15.290  12.987
88998W        W60614  10.213  30.189  13.380
88999W        W60615   9.341   0.542  12.400
89000W        W60616  13.222  28.597   1.671
89001W        W60617   2.792  19.164   3.263
89002W        W60618  29.119  19.184  12.708
89003W        W60619  26.060  17.220  10.795
89004W        W60620   3.472  15.070  10.258
89005W        W60621  23.073  15.880   4.102
89006W        W60622  39.771   7.622  11.579
89007W        W60623  31.388  39.555  14.396
89008W        W60624  40.291  34.735   3.428
89009W        W60625  32.591  12.535   1.280
89010W        W60626  14.923  33.970  14.033
89011W        W60627  43.330  30.355   2.655
89012W        W60628   9.075  38.565   1.699
89013W        W60629  44.845   9.153   0.877
89014W        W60630  13.602   9.329   0.899
89015W        W60631  14.793  43.264  12.046
89016W        W60632  24.067  32.626  12.660
89017W        W60633  32.060  14.914   2.696
89018W        W60634   1.063  19.271   3.694
89019W        W60635   5.501   2.421   2.313
89020W        W60636   1.996  17.070   3.357
89021W        W60637   8.856   1.719   1.607
89022W        W60638   5.437  10.091  12.057
89023W        W60639  39.035  31.112   2.208
89024W        W60640  17.003  44.235  10.170
89025W        W60641  36.861   1.493  14.261
89026W        W60642  33.481  33.433  10.908
89027W        W60643  43.450  17.000   1.291
89028W        W60644  16.001  28.656   2.691
89029W        W60645  38.649  11.297  10.326
89030W        W60646  26.655  38.999  12.462
89031W        W60647   1.297   0.003   0.632
89032W        W60648  14.668  33.941  12.534
89033W        W60649  40.898  24.317  14.490
89034W        W60650  26.139   8.741  14.914
89035W        W60651  42.046   4.940  13.442
89036W        W60652  28.983  30.032   0.474
89037W        W60653   2.152  11.435   3.742
89038W        W60654  29.201   9.215   2.760
89039W        W60655  19.475  16.689   1.234
89040W        W60656  12.212   6.932   0.843
89041W        W60657   5.185   2.775   1.782
89042W        W60658   1.451  36.184  14.246
89043W        W60659  29.895  33.355  12.898
89044W        W60660   4.105  25.928   1.828
89045W        W60661   5.333   0.301  14.373
89046W        W60662  36.001  36.992  14.836
89047W        W60663   2.561   1.499  12.221
89048W        W60664  36.822  31.316  12.206
89049W        W60665  15.548   2.191  11.930
89050W        W60666  14.321  28.179   0.904
89051W        W60667  29.485  17.329   3.645
89052W        W60668   9.768  16.524  13.784
89053W        W60669  38.068   2.217   0.903
89054W        W60670  38.959  14.805   0.805
89055W        W60671  32.937  25.986  13.763
89056W        W60672   6.989  15.081   4.048
89057W        W60673  13.195   4.688   4.157
89058W        W60674  41.510  31.734  11.139
89059W        W60675  28.597  26.601  10.157
89060W        W60676  40.511  41.102   3.752
89061W        W60677   2.355  21.989   1.444
89062W        W60678  30.675  15.385   0.390
89063W        W60679  22.747   2.710   2.968
89064W        W60680   2.504  27.671  12.416
89065W        W60681  38.640  38.843  14.323
89066W        W60682  28.395  41.461  11.048
89067W        W60683  12.050  12.719  10.398
89068W        W60684  29.050   4.459   4.631
89069W        W60685  18.840  28.441   2.490
89070W        W60686  17.415  31.699   3.677
89071W        W60687  19.721  39.501   3.356
89072W        W60688  40.382  27.708   0.354
89073W        W60689  22.693  36.609  11.789
89074W        W60690  29.070  40.895  11.154
89075W        W60691  25.550   8.948   1.712
89076W        W60692  17.289  29.094   1.748
89077W        W60693  16.931  40.309  10.809
89078W        W60694  13.302  40.315   0.455
89079W        W60695   1.045  37.087   0.304
89080W        W60696   4.812  44.503  10.526
89081W        W60697  24.896   3.639  14.771
89082W        W60698  12.718  17.221   0.728
89083W        W60699   5.358  44.772  14.366
89084W        W60700  10.584  44.007  12.702
89085W        W60701  20.305  18.823   3.622
89086W        W60702  37.402  30.917   5.043
89087W        W60703  11.068   3.549  11.660
89088W        W60704  10.168   8.299   4.505
89089W        W60705  13.143  11.727  10.692
89090W        W60706  12.814  21.983  11.998
89091W        W60707  20.189  26.533  11.023
89092W        W60708   1.315   9.150  13.422
89093W        W60709  16.823  21.327  14.380
89094W        W60710   1.103  19.922   2.208
89095W        W60711   3.868  29.549  12.321
89096W        W60712  10.852  39.519  11.996
89097W        W60713  36.631  39.865   3.605
89098W        W60714  37.572  22.760   0.002
89099W        W60715  33.598   6.263  10.263
89100W        W60716  23.119  32.509  11.899
89101W        W60717  33.989  37.519  14.246
89102W        W60718  26.902  11.793   2.728
89103W        W60719  14.610  23.153  10.357
89104W        W60720  34.446  13.357   0.310
89105W        W60721  25.452   9.045  12.512
89106W        W60722  24.079  33.807  14.426
89107W        W60723  33.789  33.820  11.806
89108W        W60724  21.969  36.529   4.724
89109W        W60725  11.891  28.400  12.924
89110W        W60726  44.887  21.980  14.770
89111W        W60727  35.394  37.007   3.212
89112W        W60728  28.031   2.840   2.763
89113W        W60729  38.981  10.714   4.152
89114W        W60730  26.089  16.740   0.422
89115W        W60731  26.115  31.567   2.481
89116W        W60732  18.132  10.108  14.335
89117W        W60733   4.441  37.085   4.103
89118W        W60734  44.156   1.002  13.727
89119W        W60735  11.872  12.759  13.074
89120W        W60736   1.132   8.874   4.082
89121W        W60737   6.958  12.235  12.031
89122W        W60738  24.632  38.297   1.268
89123W        W60739  20.087  41.908   4.903
89124W        W60740  33.389  33.945  10.129
89125W        W60741  39.957  14.825  10.903
89126W        W60742  34.660   7.364   3.272
89127W        W60743   1.727  10.462  13.087
89128W        W60744  30.945  42.802  10.560
89129W        W60745  10.513  41.310   4.064
89130W        W60746   1.966  29.174  13.875
89131W        W60747   7.966  24.258  10.271
89132W        W60748   1.011  37.048   3.652
89133W        W60749  34.336  44.876  12.899
89134W        W60750  32.412  19.767  12.575
89135W        W60751  15.337  10.195  13.597
89136W        W60752  23.073  42.559   2.696
89137W        W60753   0.010   1.888  14.891
89138W        W60754  21.865  13.839  11.122
89139W        W60755  11.299  10.863  12.625
89140W        W60756  37.088  11.400  14.469
89141W        W60757  20.556   0.908   3.604
89142W        W60758  42.389  15.211   1.466
89143W        W60759  10.808  28.393   4.181
89144W        W60760  32.627   8.437  12.064
89145W        W60761  18.349   2.979  11.668
89146W        W60762  28.227  20.880  14.337
89147W        W60763  27.074  15.304   4.055
89148W        W60764  14.589  28.117  14.281
89149W        W60765  40.434  26.449  11.967
89150W        W60766  28.178  42.503  10.196
89151W        W60767  15.111  33.877   3.775
89152W        W60768  37.407  27.229   1.307
89153W        W60769  16.759  36.974   0.197
89154W        W60770  13.773   4.579   4.534
89155W        W60771  30.939  23.632   3.180
89156W        W60772  24.110  43.821  10.945
89157W        W60773  37.270  34.691  11.166
89158W        W60774  33.135  39.161  12.405
89159W        W60775  20.101  43.240   3.755
89160W        W60776  31.578  34.446  13.308
89161W        W60777  14.872  13.193  13.341
89162W        W60778  18.797   5.841   2.192
89163W        W60779  32.952   2.462   0.350
89164W        W60780  11.235   6.493   4.280
89165W        W60781  38.146  36.557  13.010
89166W        W60782   4.900  28.681  10.442
89167W        W60783  11.705  42.165   2.124
89168W        W60784  40.871  11.815  13.941
89169W        W60785  36.802  27.509   0.899
89170W        W60786  23.138  28.515   1.177
89171W        W60787  38.087  23.140   1.027
89172W        W60788  22.028  22.717  10.859
89173W        W60789  18.749  33.569   0.921
89174W        W60790  29.574  42.453   2.387
89175W        W60791  16.255  20.869  13.824
89176W        W60792  38.085  18.832  13.364
89177W        W60793  26.503  38.559  14.542
89178W        W60794   1.659   0.880  12.915
89179W        W60795  17.576   5.634   3.680
89180W        W60796  36.193   9.249   2.124
89181W        W60797  38.491  28.155   4.291
89182W        W60798  22.596  41.565   3.309
89183W        W60799  37.818  35.076  11.600
89184W        W60800  34.786  37.893   3.270
89185W        W60801   1.872  25.234  11.823
89186W        W60802  36.072   4.925   3.807
89187W        W60803   4.758  18.292  11.944
89188W        W60804  29.026  28.067   9.873
89189W        W60805  31.891  25.474   1.774
89190W        W60806  13.177  37.482   2.750
89191W        W60807  19.233  43.379  13.573
89192W        W60808  13.823   3.763   5.146
89193W        W60809  21.916  26.528  11.823
89194W        W60810  25.793  26.538   2.763
89195W        W60811  29.695  18.345   3.636
89196W        W60812  26.173  10.837  14.873
89197W        W60813  11.563  21.135  13.813
89198W        W60814  31.953  44.744  10.963
89199W        W60815  16.378  16.755  12.084
89200W        W60816  30.405  13.694  14.292
89201W        W60817  37.140  15.231  11.609
89202W        W60818  37.614  29.550  14.305
89203W        W60819   5.463  19.695   4.585
89204W        W60820  27.451  10.369  14.501
89205W        W60821  38.256  30.432   3.632
89206W        W60822  19.224   4.164  10.363
89207W        W60823  30.524   7.221   0.905
89208W        W60824  43.468   4.967   2.124
89209W        W60825  19.314  13.689   1.909
89210W        W60826  18.554  28.008   2.643
89211W        W60827  26.029   9.535  11.513
89212W        W60828  21.370  41.491   9.862
89213W        W60829  11.664  26.481   0.300
89214W        W60830   5.846   3.032  12.615
89215W        W60831  25.240  29.056   2.771
89216W        W60832  42.262   4.838  11.972
89217W        W60833  17.318  17.150   1.632
89218W        W60834  34.862   9.179  14.416
89219W        W60835  18.093  25.030   0.933
89220W        W60836  14.120  16.345   5.415
89221W        W60837   2.188  27.143   2.802
89222W        W60838  39.684  16.667   2.254
89223W        W60839  24.471  33.106   4.062
89224W        W60840  12.019  41.099  14.852
89225W        W60841  25.217  39.126  12.428
89226W        W60842  38.422  35.056   2.328
89227W        W60843  35.368   4.256   4.066
89228W        W60844  13.367  10.563   1.395
89229W        W60845  44.987  15.647  12.460
89230W        W60846  42.839  14.940  12.981
89231W        W60847   0.761  25.108   5.075
89232W        W60848  25.678  39.532  12.461
89233W        W60849  13.091  24.803   0.457
89234W        W60850  21.016   9.218   4.349
89235W        W60851  16.595   0.578  12.059
89236W        W60852   2.951  36.217  12.525
89237W        W60853  13.654  17.594   3.077
89238W        W60854  17.747  17.229   2.701
89239W        W60855  29.631  32.391  10.752
89240W        W60856  31.642  12.744  12.421
89241W        W60857  29.579   2.646   3.242
89242W        W60858  25.548  12.079   4.526
89243W        W60859  43.369   2.018   0.365
89244W        W60860  44.760  11.637   1.826
89245W        W60861  24.615  34.875   3.684
89246W        W60862   3.296  36.205   3.508
89247W        W60863  34.132  38.008  12.009
89248W        W60864   7.393   7.760   4.111
89249W        W60865  37.183  31.349  12.985
89250W        W60866  33.557  13.789  14.406
89251W        W60867  40.105   3.341  12.083
89252W        W60868  18.275  23.137   4.964
89253W        W60869  36.145  16.270   1.956
89254W        W60870  14.571   0.867  13.504
89255W        W60871  38.335   0.955  13.596
89256W        W60872  29.732  44.557  11.400
89257W        W60873   0.261  14.894  11.304
89258W        W60874  29.571  22.794   1.720
89259W        W60875  12.576  20.088  14.482
89260W        W60876  43.304  39.735   2.162
89261W        W60877  29.432   7.354   0.434
89262W        W60878  34.915  24.631   4.569
89263W        W60879  10.948  11.204   3.630
89264W        W60880  17.626  43.795   1.394
89265W        W60881   9.881   7.770   2.249
89266W        W60882  34.982  26.012  14.050
89267W        W60883   7.618  30.145   3.940
89268W        W60884  33.773  38.298   3.633
89269W        W60885   7.258  39.504   2.291
89270W        W60886  35.613  19.121  14.842
89271W        W60887  28.967  13.081   2.731
89272W        W60888  12.560  10.241   3.930
89273W        W60889   1.212  29.606  13.818
89274W        W60890  36.487   8.417   4.104
89275W        W60891  13.130  10.350   1.798
89276W        W60892  20.983  39.963   3.152
89277W        W60893  43.026  41.940  14.046
89278W        W60894   9.907  28.180  12.650
89279W        W60895  14.950  30.774  10.667
89280W        W60896   4.237  29.852  12.557
89281W        W60897  27.216  12.208   2.828
89282W        W60898  27.586  22.753  10.782
89283W        W60899  10.937  11.663   3.366
89284W        W60900   2.227  26.011  12.652
89285W        W60901  19.763   2.806  10.663
89286W        W60902  28.535  42.493  10.598
89287W        W60903   6.878  15.676  11.050
89288W        W60904  11.159  38.999  12.971
89289W        W60905  22.526  28.990  13.704
89290W        W60906  21.569  44.084   3.374
89291W        W60907  37.055  37.884  13.034
89292W        W60908  25.544   9.739   2.889
89293W        W60909  12.116  28.868   3.423
89294W        W60910  12.269   1.500   1.900
89295W        W60911  27.039   8.351   1.311
89296W        W60912  16.583   7.330   3.279
89297W        W60913  12.900  31.434  10.667
89298W        W60914  23.644  35.602  13.509
89299W        W60915  15.669  39.855  14.475
89300W        W60916  15.853   8.802   4.110
89301W        W60917   3.248   4.241  13.944
89302W        W60918  27.878  16.095  13.924
89303W        W60919  41.484  40.827  12.475
89304W        W60920  27.983   6.112   1.878
89305W        W60921  30.578  40.345   3.764
89306W        W60922  27.272   6.463  13.112
89307W        W60923  41.732  40.357   1.226
89308W        W60924   0.322  16.772   3.140
89309W        W60925  25.939  33.424   3.124
89310W        W60926  35.637  21.991   3.635
89311W        W60927  37.659  28.007   2.345
89312W        W60928  19.286  15.886  13.440
89313W        W60929  35.010   4.930   3.191
89314W        W60930  23.589  41.441   0.361
89315W        W60931  32.409  10.902  13.079
89316W        W60932  38.889  23.961   3.087
89317W        W60933  16.014  14.605   0.785
89318W        W60934  42.871   0.520  12.885
89319W        W60935  42.805   1.542   2.184
89320W        W60936  40.777   6.385  13.626
89321W        W60937  25.493   0.995  14.745
89322W        W60938  19.248  40.026   3.992
89323W        W60939  30.135  35.600  13.324
89324W        W60940  18.659  14.742  11.384
89325W        W60941  30.930  14.369  12.880
89326W        W60942   9.129   3.040   3.185
89327W        W60943  42.086  41.620   2.753
89328W        W60944  24.058  15.205  14.415
89329W        W60945   4.515  44.754   0.515
89330W        W60946   1.691  36.602  14.440
89331W        W60947  33.081   1.190  14.857
89332W        W60948  15.275  10.812   1.070
89333W        W60949  26.551   1.928  13.942
89334W        W60950   0.406  12.874  10.725
89335W        W60951  24.888  12.824   1.344
89336W        W60952   5.358  16.376  13.313
89337W        W60953  11.680  13.681   1.619
89338W        W60954  21.880  27.316   1.504
89339W        W60955  32.164  42.138  12.408
89340W        W60956  13.806   7.950   2.863
89341W        W60957  33.170  30.207   3.725
89342W        W60958  13.730   4.885   2.189
89343W        W60959   5.733  10.932  12.432
89344W        W60960  15.307  21.042   9.814
89345W        W60961  30.510  41.547  10.653
89346W        W60962  31.203  20.806   1.255
89347W        W60963   5.363  14.012   2.717
89348W        W60964  25.055  20.175  14.361
89349W        W60965   0.160   8.871   3.248
89350W        W60966   1.801  30.919   0.682
89351W        W60967   3.669  38.902  11.473
89352W        W60968  44.791  13.529  12.334
89353W        W60969  31.254  22.133  14.047
89354W        W60970  24.459  24.607  12.407
89355W        W60971  20.102  31.851  14.904
89356W        W60972  19.070   0.895   3.279
89357W        W60973  19.584  11.127  14.884
89358W        W60974  43.028  39.336   0.849
89359W        W60975   2.425  44.135   3.799
89360W        W60976  30.023  29.205   3.785
89361W        W60977  17.054  42.425  14.266
89362W        W60978  27.555   3.671   3.797
89363W        W60979  15.227  23.525  10.890
89364W        W60980   5.705  33.903   2.363
89365W        W60981  15.162  27.691   1.720
89366W        W60982  37.655  42.288  12.324
89367W        W60983   5.169  18.525   1.251
89368W        W60984  36.360  23.420  13.027
89369W        W60985  25.015  42.280  13.988
89370W        W60986  35.458  16.276   1.238
89371W        W60987  13.816  12.135   0.958
89372W        W60988   6.211  31.848  14.330
89373W        W60989   9.200  44.386  12.010
89374W        W60990  37.752  27.621   4.212
89375W        W60991  30.105  19.238   0.235
89376W        W60992  32.587  33.619  10.837
89377W        W60993   3.379  20.945  10.966
89378W        W60994  38.052  27.067   2.396
89379W        W60995  40.799  17.203  12.015
89380W        W60996  38.120   4.434  11.425
89381W        W60997  11.706  36.866  14.340
89382W        W60998   3.070  32.437  11.700
89383W        W60999  28.680   7.277   2.853
89384W        W61000  41.178  21.977   0.372
89385W        W61001  31.511  26.775   1.700
89386W        W61002   4.194  23.190   5.438
89387W        W61003  23.776   6.228  13.860
89388W        W61004  44.108   2.482  11.463
89389W        W61005  15.307  37.099  13.982
89390W        W61006  35.953  11.803   4.046
89391W        W61007   2.433  23.278   2.743
89392W        W61008  12.414  33.447   0.292
89393W        W61009  32.860  35.367   1.667
89394W        W61010  16.366   4.791   0.528
89395W        W61011  41.857  29.676  14.429
89396W        W61012  16.289   1.215   2.331
89397W        W61013  20.331  18.228   3.201
89398W        W61014  23.639  28.535   2.268
89399W        W61015  15.323  19.085   2.878
89400W        W61016  34.850   5.556  14.749
89401W        W61017  26.541  16.122  11.399
89402W        W61018   2.886   6.851   0.178
89403W        W61019  18.758  22.099  12.449
89404W        W61020   8.137  37.169   2.229
89405W        W61021  14.129  14.603  10.632
89406W        W61022  43.476  23.683   4.453
89407W        W61023  37.701  25.283  12.813
89408W        W61024  18.638   0.561  13.572
89409W        W61025  18.111   6.147   1.342
89410W        W61026  42.087  35.401  12.452
89411W        W61027  15.510  13.400   3.738
89412W        W61028  14.189  19.591   0.916
89413W        W61029  17.833  13.075   0.061
89414W        W61030  27.548  23.660   3.568
89415W        W61031   1.422   2.873   0.361
89416W        W61032  26.577  32.130  10.970
89417W        W61033  42.338  19.058  12.822
89418W        W61034  26.838  42.865   0.213
89419W        W61035  29.524  36.983  13.521
89420W        W61036  34.522   7.281  13.929
89421W        W61037   2.058  21.808  11.548
89422W        W61038  21.826  42.348  10.849
89423W        W61039  19.812  13.091   2.024
89424W        W61040  25.612  26.398   1.940
89425W        W61041   8.950  42.496   2.839
89426W        W61042  27.574   1.746  13.046
89427W        W61043   2.633  16.945   3.992
89428W        W61044   3.999  21.190  14.291
89429W        W61045  44.205  35.460   4.301
89430W        W61046  23.024  32.737   4.602
89431W        W61047  30.953  37.408  11.164
89432W        W61048  43.940  35.868   4.153
89433W        W61049   4.837  39.910  13.371
89434W        W61050  13.234   6.302  10.698
89435W        W61051  44.987  35.131   2.280
89436W        W61052  43.260  29.961  13.064
89437W        W61053  41.763  17.706   0.407
89438W        W61054  29.980  41.104  14.030
89439W        W61055  42.131  29.450  11.188
89440W        W61056   9.839  24.541   3.273
89441W        W61057  39.494  37.125  13.378
89442W        W61058  12.899  19.203   1.780
89443W        W61059   8.768  21.991  12.949
89444W        W61060  14.115  43.077   0.024
89445W        W61061  41.265   7.360   1.779
89446W        W61062   5.348   9.700   0.317
89447W        W61063  30.446  38.005  11.710
89448W        W61064   2.706  39.324   2.226
89449W        W61065  34.458  23.953   4.623
89450W        W61066  19.660  36.490   3.329
89451W        W61067   2.187  35.388   1.335
89452W        W61068  14.626  27.823  10.362
89453W        W61069  33.282   6.188  12.885
89454W        W61070  36.048   3.814   3.819
89455W        W61071  30.469  37.867  12.899
89456W        W61072  40.835  22.623   1.887
89457W        W61073   6.175   6.465  11.209
89458W        W61074  20.813  15.491  14.762
89459W        W61075  31.129  43.371  14.626
89460W        W61076  42.305  42.491   0.352
89461W        W61077  44.894  16.243   0.518
89462W        W61078  36.661  19.138   1.441
89463W        W61079   8.822   9.987  13.582
89464W        W61080  41.692  20.418   4.250
89465W        W61081  17.324   9.863  14.754
89466W        W61082  13.124  35.166   2.751
89467W        W61083  18.710  11.527  11.282
89468W        W61084  43.866   5.183  13.374
89469W        W61085   6.440  34.549  10.724
89470W        W61086  39.392  22.170   2.212
89471W        W61087   3.710  17.702   0.288
89472W        W61088  25.865  38.871   2.156
89473W        W61089   0.907  27.986   4.985
89474W        W61090  33.402  24.250   2.891
89475W        W61091  31.388  38.122   0.669
89476W        W61092  28.196  28.632   0.002
89477W        W61093  17.119   5.998  13.494
89478W        W61094   9.858  42.133  11.715
89479W        W61095  16.221  30.176  12.930
89480W        W61096  32.426  34.480   4.212
89481W        W61097  36.672  20.658   0.831
89482W        W61098  20.648  35.565   0.412
89483W        W61099  26.049  42.638  14.028
89484W        W61100  15.184  17.843  12.767
89485W        W61101   9.747  18.635   0.774
89486W        W61102  10.308  29.471  11.718
89487W        W61103  10.090  33.361   3.215
89488W        W61104  22.130  34.564   4.816
89489W        W61105  35.110  40.859   3.519
89490W        W61106  40.319  37.491   0.614
89491W        W61107   1.305  26.556  10.719
89492W        W61108  34.127   5.286  14.340
89493W        W61109   1.769   3.514   2.704
89494W        W61110  10.873   4.993   3.647
89495W        W61111   8.435  20.713   1.790
89496W        W61112   7.658   3.063   0.257
89497W        W61113  13.259  19.738   1.465
89498W        W61114  37.816  37.887  11.111
89499W        W61115  28.423   1.871   3.792
89500W        W61116   2.081  23.791  13.896
89501W        W61117  13.795   3.272  13.523
89502W        W61118   5.468   0.350   9.773
89503W        W61119  26.630   3.235  11.092
89504W        W61120  28.428  15.839  11.153
89505W        W61121  15.803   7.404  12.084
89506W        W61122  19.504   6.405  10.895
89507W        W61123  24.924   5.153  14.063
89508W        W61124  29.444  17.208  10.677
89509W        W61125  13.578   2.692  13.433
89510W        W61126  21.059  21.673   3.621
89511W        W61127   9.120  23.648   3.029
89512W        W61128  15.065   4.148  11.867
89513W        W61129  28.970   1.876  12.020
89514W        W61130   8.984  31.853   3.801
89515W        W61131   9.283   8.182  14.628
89516W        W61132  33.376  23.417  11.286
89517W        W61133  18.102  41.564   2.332
89518W        W61134  26.831  20.179  12.454
89519W        W61135   5.403  20.736  10.773
89520W        W61136  21.166  27.389   4.446
89521W        W61137  18.535  38.522  14.600
89522W        W61138  34.942   4.389   2.320
89523W        W61139  19.699  21.258   2.785
89524W        W61140  24.991  29.712  13.040
89525W        W61141  22.075  20.378  12.138
89526W        W61142  28.864  27.030  13.837
89527W        W61143  10.404  43.615  13.010
89528W        W61144  20.893  23.656   1.665
89529W        W61145  41.439  29.023  11.108
89530W        W61146  40.001  14.297   0.967
89531W        W61147  38.077  42.231   2.663
89532W        W61148  37.321   1.773  12.006
89533W        W61149  39.984  28.008   3.848
89534W        W61150  35.571   5.307  14.514
89535W        W61151   7.305  32.181   0.822
89536W        W61152  11.604  11.188  11.268
89537W        W61153  28.078  42.351  12.413
89538W        W61154  10.146  29.088  13.033
89539W        W61155   2.180  35.280  13.531
89540W        W61156  10.129  43.380  12.628
89541W        W61157  25.268  41.631  13.371
89542W        W61158  10.252  20.808   4.085
89543W        W61159   5.715  35.056  12.858
89544W        W61160  28.177  31.665  12.106
89545W        W61161  34.930  38.913  11.988
89546W        W61162  12.117  39.428   0.966
89547W        W61163   5.697  38.546   3.674
89548W        W61164  35.539  32.395   2.970
89549W        W61165  39.460  27.759   4.082
89550W        W61166  28.701  10.283   3.245
89551W        W61167   5.476  28.693   2.781
89552W        W61168  19.638  14.184  12.567
89553W        W61169   5.620  26.052   3.191
89554W        W61170   7.422   2.151   3.224
89555W        W61171  28.573  29.446  14.816
89556W        W61172  39.426  36.307  11.535
89557W        W61173   3.363   5.984   1.474
89558W        W61174  27.959  28.126  13.916
89559W        W61175  28.034  44.888  13.550
89560W        W61176  43.433  14.379  14.358
89561W        W61177   2.291  22.045   2.487
89562W        W61178  12.334  43.948  13.542
89563W        W61179  18.933   9.161  14.980
89564W        W61180  25.581  26.360   0.960
89565W        W61181  18.010  24.583  14.745
89566W        W61182  33.985  40.220   3.634
89567W        W61183  38.489   3.410  13.458
89568W        W61184  31.818  35.490   3.660
89569W        W61185  31.621  14.377   1.903
89570W        W61186  24.690  22.111  13.335
89571W        W61187  17.761   3.024   1.774
89572W        W61188   9.726  40.512  10.483
89573W        W61189  37.292  33.044   1.204
89574W        W61190  33.680  42.481   0.703
89575W        W61191  34.470  30.009  14.784
89576W        W61192  11.920  13.756   4.676
89577W        W61193  24.713  34.033  14.243
89578W        W61194  38.401  28.972   1.829
89579W        W61195   0.739  40.081   2.879
89580W        W61196   7.008  12.545   3.652
89581W        W61197  42.263  32.928  12.585
89582W        W61198  40.260  33.125   4.030
89583W        W61199  37.755  14.652  14.009
89584W        W61200  43.325  22.813   4.166
89585W        W61201  37.837   5.289  11.599
89586W        W61202   4.035  43.845   0.803
89587W        W61203  28.659  17.080   0.700
89588W        W61204   7.972  33.954  12.174
89589W        W61205  11.603  23.314   3.338
89590W        W61206  32.909  29.830   4.010
89591W        W61207   4.770   1.544   5.438
89592W        W61208  39.834  33.638  14.955
89593W        W61209  31.943   1.931   3.284
89594W        W61210  40.966  37.045  11.369
89595W        W61211  39.464   3.423  13.885
89596W        W61212  34.367  27.126   4.319
89597W        W61213  44.283  22.215  12.991
89598W        W61214  17.461  32.456  14.976
89599W        W61215   9.717   4.235  13.429
89600W        W61216  32.773  12.167   1.811
89601W        W61217   3.211  24.128   0.077
89602W        W61218   2.510  35.303  14.963
89603W        W61219   1.461  42.438   2.308
89604W        W61220   6.231   4.369  13.061
89605W        W61221  43.351  23.551   2.674
89606W        W61222   4.576   6.701  13.653
89607W        W61223  42.084   8.343   1.804
89608W        W61224   8.640   1.247   1.500
89609W        W61225  20.597  13.170  14.710
89610W        W61226  16.782  17.499  13.403
89611W        W61227  28.448  23.236   2.227
89612W        W61228  32.138  41.292   1.847
89613W        W61229  36.111  15.769   2.525
89614W        W61230   0.442  25.483  10.776
89615W        W61231  18.643  28.682   0.763
89616W        W61232   0.007  15.523   2.341
89617W        W61233  29.548  18.387   4.746
89618W        W61234  38.006  34.669   3.650
89619W        W61235  21.979  31.786   3.709
89620W        W61236  17.659  16.560  12.337
89621W        W61237  36.437   9.662   2.825
89622W        W61238  41.611  38.058  13.747
89623W        W61239  21.797  29.607   3.099
89624W        W61240  37.605  14.210  11.020
89625W        W61241  44.714  37.101  10.208
89626W        W61242  34.932  22.643  13.861
89627W        W61243   7.153  34.963   1.721
89628W        W61244  11.721   8.939  12.668
89629W        W61245   9.778  24.314   3.742
89630W        W61246  27.734  32.579  14.285
89631W        W61247  38.544  17.586  13.500
89632W        W61248  16.611   6.381   3.267
89633W        W61249  31.509   4.823   4.539
89634W        W61250  14.652  11.309  13.322
89635W        W61251  38.408   4.804   2.794
89636W        W61252  36.542  27.933  10.175
89637W        W61253   9.467  19.819  10.374
89638W        W61254  42.522  17.564   0.062
89639W        W61255  37.552  15.816  13.113
89640W        W61256  42.746   0.029  12.985
89641W        W61257   7.707  15.805  10.494
89642W        W61258  11.545  16.542   1.825
89643W        W61259  15.096  29.932   0.480
89644W        W61260  14.003  15.844  14.626
89645W        W61261   1.752  22.651   4.926
89646W        W61262  33.053  26.772   4.754
89647W        W61263   2.815   2.868  14.371
89648W        W61264  27.446  12.071  12.043
89649W        W61265  24.879  43.015  11.629
89650W        W61266  29.106  41.469   2.880
89651W        W61267  13.689  24.565   1.940
89652W        W61268  12.118  36.534   1.744
89653W        W61269   3.731   4.427  13.719
89654W        W61270  28.463  39.377   1.654
89655W        W61271   2.963   6.470   4.138
89656W        W61272   6.450  35.604   2.156
89657W        W61273  19.330  14.930   2.148
89658W        W61274  28.093   0.748  11.942
89659W        W61275  22.094  20.675  12.609
89660W        W61276  29.670  24.841   2.789
89661W        W61277  25.653  33.370   4.655
89662W        W61278  18.210  17.400  13.977
89663W        W61279  15.577  24.996  12.437
89664W        W61280  14.143  19.275   3.869
89665W        W61281   6.078   8.277  11.648
89666W        W61282  18.158   0.246  12.867
89667W        W61283  12.318   6.289  12.018
89668W        W61284  13.073  30.108  14.134
89669W        W61285  23.773  32.347   1.917
89670W        W61286   3.637  31.014  12.454
89671W        W61287  27.166  21.065  11.617
89672W        W61288  33.682  12.440   3.122
89673W        W61289   8.369  34.665   0.240
89674W        W61290  11.687  19.110   2.231
89675W        W61291  38.050   4.262   2.962
89676W        W61292   2.709  15.591   2.894
89677W        W61293  14.545  38.895   4.497
89678W        W61294  16.070  29.192   0.200
89679W        W61295  25.529  23.307   9.917
89680W        W61296   6.956  40.489   0.683
89681W        W61297  35.994  26.979   0.816
89682W        W61298   6.281  24.228  12.900
89683W        W61299  24.018  11.327   3.754
89684W        W61300  29.381  13.646  13.509
89685W        W61301  35.975  39.481   2.392
89686W        W61302   9.724  41.065   2.897
89687W        W61303  15.574  17.184   0.858
89688W        W61304  15.613  33.351  11.351
89689W        W61305   3.396  26.782   0.376
89690W        W61306  35.688   9.342   2.890
89691W        W61307  11.358  17.090   0.896
89692W        W61308  27.633  13.385   1.641
89693W        W61309  22.847   7.166  14.813
89694W        W61310   3.424   4.769  13.990
89695W        W61311   7.435  14.309  11.112
89696W        W61312  16.354   4.854  13.793
89697W        W61313  25.435   8.211   3.163
89698W        W61314  20.161   1.560  14.377
89699W        W61315  10.372  25.138   2.728
89700W        W61316  26.726  26.988  12.861
89701W        W61317   1.872   7.664   3.146
89702W        W61318   6.101   9.933  12.604
89703W        W61319  15.881  15.122  13.055
89704W        W61320   2.769  19.282  12.867
89705W        W61321  43.225   5.943   3.307
89706W        W61322  38.163  43.942   3.336
89707W        W61323  24.930  36.823   1.421
89708W        W61324   8.996  29.104   0.487
89709W        W61325  40.039  36.929   1.851
89710W        W61326  18.041   0.808  14.504
89711W        W61327   6.638  16.646  11.617
89712W        W61328  38.575  30.183  12.504
89713W        W61329  14.580   4.456  10.195
89714W        W61330   8.649  39.323  13.581
89715W        W61331  31.105  30.152  13.911
89716W        W61332  34.484  36.293   2.205
89717W        W61333  18.623   8.632   0.866
89718W        W61334  13.399  30.361   0.464
89719W        W61335  39.367   3.811  14.875
89720W        W61336  19.517  44.736   0.909
89721W        W61337  39.227  41.404  14.180
89722W        W61338   7.137   3.629  10.334
89723W        W61339  16.394  29.313  13.568
89724W        W61340  10.824  24.312  11.945
89725W        W61341  39.597  29.422  14.279
89726W        W61342  31.560  37.615   0.682
89727W        W61343   2.415   9.195   3.758
89728W        W61344   0.230  29.545   1.333
89729W        W61345   3.732  37.347   3.394
89730W        W61346  14.134  41.792  11.570
89731W        W61347   4.182  32.924   0.253
89732W        W61348  35.110  16.579  11.532
89733W        W61349  29.815  24.088   3.693
89734W        W61350   4.614  12.379  12.509
89735W        W61351  30.334  22.123  12.912
89736W        W61352  44.469  36.495  12.042
89737W        W61353  35.060  17.806  13.709
89738W        W61354   5.568  10.729   0.294
89739W        W61355  43.510  33.949  11.593
89740W        W61356  32.756  23.030   4.072
89741W        W61357  42.984  17.043  11.011
89742W        W61358   7.376   5.972  13.649
89743W        W61359  16.885  16.053   4.179
89744W        W61360  39.563  32.375   3.173
89745W        W61361  24.595   9.894   3.963
89746W        W61362   5.282  42.936  12.147
89747W        W61363  31.602  36.866   3.701
89748W        W61364   0.181  13.887   0.075
89749W        W61365  31.446  32.652  11.172
89750W        W61366   8.429   1.485   2.918
89751W        W61367  18.343  14.786   0.892
89752W        W61368  22.642  11.741  13.581
89753W        W61369  37.101   0.487  13.418
89754W        W61370  37.537  14.060  13.400
89755W        W61371  30.660  20.160   3.901
89756W        W61372  39.587   8.125   1.734
89757W        W61373  11.421  26.029   3.056
89758W        W61374  38.890  32.152  14.421
89759W        W61375  14.795   7.943  13.458
89760W        W61376  44.902   8.098  11.917
89761W        W61377  31.625   0.101  12.157
89762W        W61378  13.547   9.663  14.152
89763W        W61379  18.001  25.691  14.278
89764W        W61380  42.010   7.143   3.225
89765W        W61381  37.520  36.797  14.364
89766W        W61382  34.512   6.961   2.717
89767W        W61383  43.068  44.738  14.421
89768W        W61384  17.604  17.305   9.999
89769W        W61385  18.709  39.131  11.966
89770W        W61386  26.731  29.400  12.928
89771W        W61387   1.325  28.229   1.838
89772W        W61388  10.898  25.285   1.450
89773W        W61389  16.729   2.568   0.329
89774W        W61390   0.879   7.985  12.899
89775W        W61391  19.613  14.134   4.913
89776W        W61392  26.599  21.764   4.935
89777W        W61393  25.614  30.233   3.686
89778W        W61394  43.877  21.610  11.797
89779W        W61395   9.675  25.566   2.820
89780W        W61396  14.303  25.076  14.339
89781W        W61397  33.215   4.179  11.104
89782W        W61398  13.178   4.050   1.037
89783W        W61399  29.015  37.795  14.278
89784W        W61400  44.337  16.033  13.487
89785W        W61401  11.133   0.929  10.538
89786W        W61402  37.385  40.130  13.807
89787W        W61403  14.198  24.433   4.448
89788W        W61404   2.007  29.911  12.499
89789W        W61405  36.611  38.421   0.424
89790W        W61406  37.074  44.338  12.951
89791W        W61407  28.429  14.536  12.991
89792W        W61408  43.833   0.173   2.158
89793W        W61409   3.354  16.959  10.764
89794W        W61410  21.529   6.923   0.254
89795W        W61411  44.050  19.640   2.891
89796W        W61412  24.602   7.272  12.036
89797W        W61413  27.910  14.876  12.651
89798W        W61414  16.837  31.671  12.397
89799W        W61415  38.065   4.719  12.558
89800W        W61416  15.656  19.078  10.170
89801W        W61417   5.703  13.664   4.672
89802W        W61418  13.533  43.032  12.858
89803W        W61419  32.578  23.653  13.752
89804W        W61420  36.093  25.975   2.204
89805W        W61421  26.565  11.294   0.193
89806W        W61422  28.530   2.279  13.773
89807W        W61423  16.423   2.196   3.623
89808W        W61424  13.210   7.666   4.814
89809W        W61425  41.251  41.582  11.017
89810W        W61426  26.801  23.510  12.905
89811W        W61427   5.010  30.079   1.813
89812W        W61428  21.682  44.413  12.433
89813W        W61429   2.991  11.791   1.278
89814W        W61430  35.431  36.286  12.436
89815W        W61431   4.895  10.687   1.913
89816W        W61432  29.432  24.674  14.040
89817W        W61433  24.720   6.471  14.120
89818W        W61434  32.331  25.578   3.087
89819W        W61435  29.389   4.920  14.468
89820W        W61436  16.761   5.801   2.381
89821W        W61437  38.527   5.217  14.969
89822W        W61438  22.034  44.324   3.255
89823W        W61439  40.793  23.748   4.104
89824W        W61440  42.993   0.265  14.337
89825W        W61441  44.059  27.896   0.283
89826W        W61442  23.055  18.191  12.495
89827W        W61443  42.809  39.637   1.265
89828W        W61444   7.759  31.640   3.891
89829W        W61445  20.725   7.693   4.178
89830W        W61446  15.562  37.631  10.247
89831W        W61447  21.200  23.586  12.612
89832W        W61448  25.658  39.017   0.940
89833W        W61449  14.693   3.764   1.293
89834W        W61450   3.483  33.784   4.217
89835W        W61451   2.308  18.185   2.447
89836W        W61452  13.203   1.417   4.712
89837W        W61453  44.256  41.423   3.726
89838W        W61454  12.684  39.817   3.338
89839W        W61455   5.658  37.827   2.859
89840W        W61456  14.003   0.614   0.300
89841W        W61457  43.100  12.941  11.156
89842W        W61458  22.074  20.106  11.112
89843W        W61459   1.955  28.623  13.139
89844W        W61460  19.227   7.648  14.503
89845W        W61461  36.071   6.251  10.396
89846W        W61462  44.685  10.344  12.023
89847W        W61463  40.327  23.231  12.022
89848W        W61464  30.380  44.343   3.119
89849W        W61465  19.976  35.452  12.438
89850W        W61466  17.698  17.904   3.777
89851W        W61467  37.633  27.130   0.876
89852W        W61468  42.554  44.795   2.147
89853W        W61469  37.519  14.053   0.268
89854W        W61470  33.812  26.917  12.660
89855W        W61471  18.704  31.855  11.122
89856W        W61472  26.098  44.323  12.105
89857W        W61473  28.470  19.198   3.129
89858W        W61474  39.084   3.400   2.860
89859W        W61475   1.745  19.007   3.196
89860W        W61476  23.162  41.356   1.814
89861W        W61477  14.533  31.601  12.147
89862W        W61478  11.776  32.883   0.910
89863W        W61479  18.176   7.742  11.144
89864W        W61480   3.370  19.701   1.128
89865W        W61481  22.458   9.351   2.791
89866W        W61482  20.647  27.406  10.718
89867W        W61483  15.199  21.315   2.258
89868W        W61484  10.307  33.690   0.435
89869W        W61485   7.973   0.351   2.873
89870W        W61486  32.192  22.582  14.842
89871W        W61487  33.624  33.090  12.358
89872W        W61488   8.532  41.657  11.553
89873W        W61489  13.418  31.206  14.377
89874W        W61490  19.060   4.828  14.489
89875W        W61491  41.930  28.649  14.009
89876W        W61492  41.968   5.697  11.387
89877W        W61493  28.044   1.964  11.196
89878W        W61494  30.525  38.214   2.143
89879W        W61495  40.300   0.314   1.370
89880W        W61496  40.275  19.537   1.559
89881W        W61497  27.340  35.588  10.118
89882W        W61498  22.160   0.998   1.334
89883W        W61499  14.566   3.026  12.565
89884W        W61500  23.816  29.022   2.327
89885W        W61501  21.740  37.308   4.197
89886W        W61502  40.254  11.307   2.550
89887W        W61503  40.911   6.345   0.163
89888W        W61504  27.018  17.110  14.959
89889W        W61505   2.252  26.292   4.827
89890W        W61506  32.327  17.656   4.949
89891W        W61507  42.773   7.816   4.705
89892W        W61508  13.326  43.564   0.919
89893W        W61509  16.020  14.738  13.878
89894W        W61510   2.989  11.264   0.002
89895W        W61511  44.115  13.869   4.550
89896W        W61512  12.698  38.044   4.834
89897W        W61513  23.649  12.837  12.295
89898W        W61514  18.518  15.243   5.012
89899W        W61515  30.651  41.460  14.020
89900W        W61516   8.809  15.693  12.689
89901W        W61517   1.963  34.267  13.575
89902W        W61518   3.715   7.751  14.032
89903W        W61519  14.245  16.600   3.679
89904W        W61520  43.473   4.621   0.373
89905W        W61521  23.192  23.735   4.027
89906W        W61522  20.655  20.998   1.429
89907W        W61523  19.701   2.278  10.706
89908W        W61524  37.515  18.665  10.805
89909W        W61525  13.903  24.241   3.185
89910W        W61526  43.019  13.035   1.633
89911W        W61527   6.427   3.238   2.020
89912W        W61528  24.963   2.499   4.304
89913W        W61529  10.154  37.039   4.941
89914W        W61530  44.526  13.894  12.042
89915W        W61531   0.262  29.054   4.120
89916W        W61532  24.685   7.386   1.226
89917W        W61533  11.884  36.520   2.251
89918W        W61534  23.915  34.402  14.726
89919W        W61535  13.249  31.296   1.935
89920W        W61536  42.479  37.426   4.635
89921W        W61537  40.814  28.337  11.672
89922W        W61538  40.738   2.272   3.785
89923W        W61539  32.638  44.445  13.740
89924W        W61540  41.569  37.797   1.883
89925W        W61541  29.627   8.619   4.419
89926W        W61542  20.027   3.849   1.317
89927W        W61543  39.402   7.653   3.638
89928W        W61544  43.834  28.157   2.309
89929W        W61545  28.058  28.616   4.884
89930W        W61546  39.255   3.140   3.875
89931W        W61547  16.069  12.283   1.795
89932W        W61548   7.662   1.701   1.495
89933W        W61549   6.559  44.454   2.803
89934W        W61550  26.152   3.257  14.283
89935W        W61551  28.020  40.284   0.723
89936W        W61552   8.392   8.288   1.247
89937W        W61553  10.127  42.377  11.366
89938W        W61554  44.078   7.887  11.067
89939W        W61555  24.212  31.556  11.505
89940W        W61556  17.002   6.887   0.959
89941W        W61557   9.203  38.578  11.145
89942W        W61558  24.872   0.657  13.244
89943W        W61559  18.782  31.063   0.156
89944W        W61560   1.722  11.825   5.059
89945W        W61561  22.808   9.829  11.593
89946W        W61562  25.567   2.722   3.782
89947W        W61563  26.247  32.210   5.074
89948W        W61564  16.250   8.683   3.690
89949W        W61565  37.352  44.387  12.474
89950W        W61566  32.215  38.550  13.163
89951W        W61567   2.993   5.764  11.740
89952W        W61568  12.702   3.215  13.015
89953W        W61569  11.613   9.162   0.909
89954W        W61570  29.420   8.358   0.328
89955W        W61571  12.275  41.352  11.554
89956W        W61572  29.919  21.795   3.274
89957W        W61573  41.531  43.109  11.887
89958W        W61574  39.465  19.314   0.691
89959W        W61575  44.300  43.374   1.355
89960W        W61576  27.020  44.427  12.937
89961W        W61577  41.592   5.263   3.442
89962W        W61578  37.803  10.090  14.310
89963W        W61579  10.715  20.484   3.227
89964W        W61580  23.446  14.765   0.547
89965W        W61581  13.925  21.597  13.392
89966W        W61582  26.937  35.867   1.105
89967W        W61583   0.793  23.556  14.311
89968W        W61584  20.247  43.216   4.564
89969W        W61585  26.537  33.076   2.687
89970W        W61586  25.669  22.495   2.899
89971W        W61587   3.030  29.528  11.693
89972W        W61588   4.933   3.424  13.305
89973W        W61589  32.591  40.297  12.920
89974W        W61590  20.997  11.721   4.079
89975W        W61591  35.042  17.109  12.985
89976W        W61592  42.328  24.866  11.573
89977W        W61593  16.564  29.549   3.818
89978W        W61594  42.261  27.654   4.620
89979W        W61595  30.078   3.248   4.386
89980W        W61596  41.285  25.569   4.548
89981W        W61597  23.470   8.378  11.609
89982W        W61598  40.563  28.568   3.255
89983W        W61599   1.667  15.945   0.753
89984W        W61600  12.726   3.947  13.894
89985W        W61601   4.873  26.569   3.609
89986W        W61602  10.364  39.991  13.483
89987W        W61603   7.722   8.253   1.806
89988W        W61604  31.370  17.231  12.087
89989W        W61605  44.965  10.072  10.086
89990W        W61606  28.976   5.126  12.117
89991W        W61607  41.877  41.395   0.814
89992W        W61608  24.433  15.643  13.305
89993W        W61609   9.662  36.051  12.051
89994W        W61610  37.104  31.896  14.802
89995W        W61611  14.883  11.025   0.823
89996W        W61612  23.041  32.406  10.540
89997W        W61613  12.816  18.523  13.108
89998W        W61614  16.837  17.019  13.569
89999W        W61615  34.282   1.366   3.511
90000W        W61616  26.111  26.053   4.307
90001W        W61617  40.796  12.437  14.588
90002W        W61618  14.823  27.993  13.822
90003W        W61619  22.691  28.421   2.326
90004W        W61620   1.340   1.686   3.732
90005W        W61621  42.750  21.026   4.492
90006W        W61622  38.575   7.297  13.019
90007W        W61623  19.258  12.629   3.444
90008W        W61624  31.971  22.755  12.798
90009W        W61625  17.779  31.954   0.790
90010W        W61626  20.103  33.912   3.742
90011W        W61627   1.905   4.417  11.628
90012W        W61628   0.836  10.645  10.504
90013W        W61629  36.054   5.226   0.390
90014W        W61630  27.675  35.480  13.017
90015W        W61631  30.899   4.404   1.448
90016W        W61632   0.811  26.993   9.927
90017W        W61633  23.125  40.687   4.519
90018W        W61634  37.953  42.706   2.827
90019W        W61635  44.976  30.206   2.457
90020W        W61636  30.791  15.898   0.476
90021W        W61637  38.488  18.946   3.771
90022W        W61638  19.742  21.618   2.351
90023W        W61639  12.564  36.943  14.291
90024W        W61640   4.916  22.223  11.933
90025W        W61641  39.264  32.651   2.797
90026W        W61642  41.186  13.121  14.087
90027W        W61643  23.360  44.232   3.779
90028W        W61644  36.733  12.016   1.913
90029W        W61645  44.413  24.634  10.911
90030W        W61646  35.351  29.163   1.940
90031W        W61647  38.065  18.892  14.151
90032W        W61648  27.200  14.998   0.691
90033W        W61649   3.344   8.822   4.536
90034W        W61650  12.448   2.780   0.240
90035W        W61651  36.564  36.835   0.280
90036W        W61652  10.273  18.945   4.621
90037W        W61653  18.579  38.989   0.271
90038W        W61654  42.872  18.107  13.145
90039W        W61655  14.429  15.804   2.108
90040W        W61656   2.657  43.432  11.994
90041W        W61657   7.306  15.992   3.348
90042W        W61658  32.143  27.495  12.999
90043W        W61659  13.200  11.874   2.019
90044W        W61660  17.182  43.382  14.477
90045W        W61661  32.166  22.289  12.917
90046W        W61662   8.795  29.718  12.599
90047W        W61663  18.597   8.436   3.803
90048W        W61664  23.704  22.269  13.495
90049W        W61665  30.192  34.617  11.117
90050W        W61666  41.072  42.252   2.344
90051W        W61667   0.457  34.055  12.631
90052W        W61668   5.626  32.358   3.078
90053W        W61669  44.742   6.599   0.755
90054W        W61670  34.836  13.793   3.075
90055W        W61671  28.082  31.934   1.649
90056W        W61672  27.431  24.160   4.897
90057W        W61673  44.922  17.273   1.000
90058W        W61674  35.280  17.354   5.020
90059W        W61675   9.899  26.984  14.865
90060W        W61676  19.188   6.826  11.626
90061W        W61677  17.289  10.329   2.779
90062W        W61678   3.162  43.499  13.943
90063W        W61679  36.021  31.457   2.738
90064W        W61680   9.623  36.117  14.268
90065W        W61681   6.636  10.260   0.358
90066W        W61682   5.344  38.904  13.812
90067W        W61683  29.055  39.837  10.965
90068W        W61684  43.909  43.944   2.757
90069W        W61685   6.433  18.146   2.714
90070W        W61686  16.656  20.153   4.655
90071W        W61687   3.903  15.330  13.279
90072W        W61688  29.675  43.901  14.831
90073W        W61689  14.653  17.636   4.901
90074W        W61690  13.401  44.044   4.130
90075W        W61691  28.412  19.650  13.656
90076W        W61692  19.110   0.475   1.008
90077W        W61693  16.359  39.963   2.271
90078W        W61694  19.761  19.414  14.468
90079W        W61695  16.742  33.706   4.014
90080W        W61696  16.961  20.492   1.448
90081W        W61697   8.384  24.251  14.707
90082W        W61698  11.408  44.337   3.164
90083W        W61699  10.457  27.218  10.992
90084W        W61700  25.787  19.701   0.266
90085W        W61701  24.718  21.194  13.514
90086W        W61702   3.046  11.387  10.640
90087W        W61703  10.790  42.797   0.006
90088W        W61704  36.935  37.343   3.108
90089W        W61705  41.327  26.938  14.813
90090W        W61706  28.885   0.027  11.149
90091W        W61707  35.012   3.145   0.748
90092W        W61708  34.855  15.131   3.774
90093W        W61709   4.322  28.570  11.171
90094W        W61710  35.496  20.262   1.321
90095W        W61711  14.816   8.128  14.525
90096W        W61712   0.992  22.756  11.999
90097W        W61713   6.481  36.480   2.111
90098W        W61714   4.275  26.462  12.801
90099W        W61715   7.174  29.599   4.170
90100W        W61716  43.204   9.717   4.221
90101W        W61717   0.579  14.215   2.111
90102W        W61718  30.086   6.901   0.954
90103W        W61719   5.248  12.809   4.662
90104W        W61720  42.933  10.127   4.088
90105W        W61721  36.090  26.802  11.932
90106W        W61722   8.869  31.370   3.052
90107W        W61723  30.715  11.246   2.170
90108W        W61724  27.504  22.052  12.452
90109W        W61725  40.826  22.593  10.610
90110W        W61726  21.790  12.890   3.218
90111W        W61727  14.789  21.128  10.662
90112W        W61728  20.089  10.136  14.507
90113W        W61729  44.487   8.345  13.650
90114W        W61730   3.312  20.177  10.608
90115W        W61731  16.784  34.494   4.612
90116W        W61732  32.534  23.470   3.243
90117W        W61733  39.773  14.820  14.463
90118W        W61734  38.505  10.789   5.679
90119W        W61735  37.423  22.354   0.926
90120W        W61736  10.229  24.209  12.508
90121W        W61737  14.747  11.802   3.888
90122W        W61738  35.425  17.154  13.842
90123W        W61739  23.508  20.066  14.526
90124W        W61740   8.749  18.520   0.480
90125W        W61741  28.995  20.539  10.674
90126W        W61742  19.633  27.492   4.647
90127W        W61743   4.497  18.651   3.226
90128W        W61744  35.376  20.108  13.327
90129W        W61745   0.405  32.793   1.995
90130W        W61746   8.298  28.204  12.898
90131W        W61747  24.091  35.565  12.318
90132W        W61748  33.699  17.321  10.943
90133W        W61749  11.845  20.711  13.889
90134W        W61750  40.961  36.668  13.062
90135W        W61751  21.520   7.878   1.340
90136W        W61752  29.743  11.185  13.395
90137W        W61753  26.641  43.634   3.317
90138W        W61754  16.580  17.742  14.385
90139W        W61755  31.585  43.535  14.863
90140W        W61756  36.140   7.165  10.723
90141W        W61757  40.342  23.794  14.010
90142W        W61758  19.317   1.849  13.824
90143W        W61759  24.634  28.823  10.688
90144W        W61760  31.526  25.226   4.231
90145W        W61761  31.856   9.125   1.316
90146W        W61762  15.763  10.843   0.884
90147W        W61763  38.342  37.329   3.308
90148W        W61764   2.152  31.543  14.899
90149W        W61765  12.708  29.698   4.693
90150W        W61766   1.914  38.857  14.153
90151W        W61767   0.311   7.728   4.437
90152W        W61768   6.713   6.720   1.133
90153W        W61769  10.048   5.235   2.064
90154W        W61770   8.257  20.649   3.350
90155W        W61771  38.752  38.323  14.412
90156W        W61772  44.518  10.390  13.385
90157W        W61773   9.023  13.833  11.352
90158W        W61774  41.896  24.136   0.221
90159W        W61775  16.298   3.953   0.869
90160W        W61776  35.478  18.636   0.001
90161W        W61777  11.377  26.043   0.273
90162W        W61778  17.482  25.535   2.911
90163W        W61779   1.942  10.384   0.316
90164W        W61780  21.604  32.000   3.018
90165W        W61781  37.423  34.141  12.917
90166W        W61782  25.511  26.892  10.006
90167W        W61783  12.734  12.795   3.327
90168W        W61784  29.873   2.570   0.286
90169W        W61785  31.922   8.603   1.311
90170W        W61786   5.098  40.637  14.897
90171W        W61787  17.484  22.781  12.463
90172W        W61788  19.668  19.150   2.935
90173W        W61789  20.128  21.872  12.439
90174W        W61790  20.052  26.693  14.531
90175W        W61791   8.569  23.933  11.598
90176W        W61792  26.611  44.287   0.845
90177W        W61793   1.067  26.067  13.297
90178W        W61794  23.398  21.592   4.478
90179W        W61795   7.284  10.057  11.953
90180W        W61796  22.318  31.053   4.101
90181W        W61797  38.138   1.221  14.006
90182W        W61798  33.822   7.079   3.266
90183W        W61799   9.768  42.549   0.923
90184W        W61800  21.172  31.447   4.618
90185W        W61801  17.379  19.548  10.821
90186W        W61802  29.418  22.102   0.015
90187W        W61803  37.183  42.656   1.329
90188W        W61804  32.368  41.550  10.796
90189W        W61805   0.483  21.216  12.835
90190W        W61806  33.645  27.245   2.618
90191W        W61807  17.999  11.683   1.354
90192W        W61808   8.116   8.189  14.912
90193W        W61809  21.602  14.263   4.615
90194W        W61810  20.736  15.168  11.218
90195W        W61811   2.625  19.376   1.162
90196W        W61812  20.657   5.694   5.012
90197W        W61813   5.444  36.029   0.015
90198W        W61814  17.296  23.662   1.238
90199W        W61815  11.788   2.955   3.249
90200W        W61816  39.449   9.658   3.160
90201W        W61817  33.601  11.813  11.606
90202W        W61818  27.356  25.959  11.537
90203W        W61819  33.363  11.389   1.349
90204W        W61820  12.140  31.523  13.643
90205W        W61821  22.749  12.660   2.357
90206W        W61822  13.771  32.588  14.537
90207W        W61823  14.884  23.787  14.851
90208W        W61824  38.966  27.458  11.102
90209W        W61825   7.278  15.414  11.846
90210W        W61826   3.450   3.712  10.503
90211W        W61827  11.148   7.363  11.893
90212W        W61828  10.341  25.753   4.039
90213W        W61829  20.748  11.181  12.532
90214W        W61830  16.925  18.924  14.543
90215W        W61831  34.945  25.730   1.746
90216W        W61832   8.555   1.869   2.008
90217W        W61833  30.493  11.167  12.794
90218W        W61834   8.270  33.471  10.632
90219W        W61835  37.807  35.995  14.626
90220W        W61836  20.020  37.316  11.149
90221W        W61837  43.245   2.351  12.653
90222W        W61838  13.403  24.492   4.929
90223W        W61839   6.163  44.346   1.423
90224W        W61840   3.329  39.855   4.205
90225W        W61841  35.116  28.494   0.873
90226W        W61842   0.329  24.876   0.815
90227W        W61843  24.566   5.839  13.100
90228W        W61844  36.667   2.774  11.777
90229W        W61845  21.193  22.465   1.272
90230W        W61846  35.116  32.889  12.365
90231W        W61847  30.874  42.889  12.424
90232W        W61848  40.009   0.769   4.906
90233W        W61849  40.719  39.123   3.893
90234W        W61850  14.549  13.740  10.432
90235W        W61851   0.957  18.003   0.867
90236W        W61852  37.135  16.594  12.018
90237W        W61853  25.063  21.863   1.528
90238W        W61854   9.863   3.097   3.045
90239W        W61855  16.746  19.162   4.911
90240W        W61856  20.143  17.546   4.413
90241W        W61857  21.288  29.460   1.747
90242W        W61858  41.819  11.746  12.132
90243W        W61859  21.227  28.901  14.987
90244W        W61860  38.342  38.036   0.889
90245W        W61861  28.356  37.547   1.284
90246W        W61862   8.780  25.336  14.556
90247W        W61863  10.382  31.623   1.359
90248W        W61864   1.724  11.281  10.761
90249W        W61865  35.866  10.652  13.423
90250W        W61866  13.199   3.745   1.459
90251W        W61867   8.274   7.927  11.645
90252W        W61868  19.526  12.909   4.272
90253W        W61869  34.545  19.640  13.626
90254W        W61870  28.442   5.245   0.246
90255W        W61871  33.252  21.861   2.585
90256W        W61872  17.651  38.304   1.307
90257W        W61873  33.688  44.745   1.763
90258W        W61874  14.171   5.383  14.393
90259W        W61875  20.187  43.390   2.871
90260W        W61876  15.837   4.828  14.753
90261W        W61877  39.025   3.513   5.053
90262W        W61878  28.233   9.171  10.536
90263W        W61879  33.868   2.167  10.209
90264W        W61880   9.217  40.364  14.533
90265W        W61881  31.844  18.027  11.267
90266W        W61882   4.278   0.192  14.893
90267W        W61883  29.717  28.394   1.652
90268W        W61884  23.196  37.635   1.380
90269W        W61885  12.829  40.031  13.638
90270W        W61886  29.963  10.227   0.345
90271W        W61887  10.278  30.600  13.032
90272W        W61888  14.064  43.423   3.775
90273W        W61889  24.680  38.489  13.492
90274W        W61890   0.995  21.703  14.407
90275W        W61891  17.727  44.734  10.637
90276W        W61892  29.491  41.586  10.744
90277W        W61893   2.852   1.488   3.878
90278W        W61894  15.142  38.719  13.850
90279W        W61895  10.794  19.070  11.053
90280W        W61896  31.524  15.608  13.514
90281W        W61897   4.738  29.501   0.799
90282W        W61898  18.792  39.443  12.412
90283W        W61899  38.345  36.842   3.145
90284W        W61900  30.011  13.801  12.471
90285W        W61901  29.162  30.988  11.537
90286W        W61902   8.935  44.243  12.427
90287W        W61903  18.591   5.654   2.655
90288W        W61904  44.231   8.895  11.090
90289W        W61905  13.558  16.496   0.344
90290W        W61906  35.885  11.164   4.287
90291W        W61907  17.615   1.427   4.142
90292W        W61908  15.640   4.347  12.022
90293W        W61909   0.681  17.230   1.668
90294W        W61910   9.571   9.763   2.843
90295W        W61911   8.406  43.224  14.193
90296W        W61912  31.365  24.470  12.898
90297W        W61913  13.084  16.598   3.683
90298W        W61914   7.293  17.293   2.593
90299W        W61915  31.732   9.066  13.348
90300W        W61916  21.024  36.089   3.164
90301W        W61917  13.152  30.189  11.540
90302W        W61918   5.542  35.077   2.739
90303W        W61919  21.288  27.931  14.747
90304W        W61920  16.890   3.960   2.238
90305W        W61921  38.427  23.624   0.293
90306W        W61922  43.540  40.740  13.781
90307W        W61923   5.656   1.505   2.261
90308W        W61924  34.827  10.678  13.307
90309W        W61925   5.723  34.452  12.569
90310W        W61926  12.862   0.300   3.112
90311W        W61927  18.940   0.046  10.176
90312W        W61928  40.396  43.448   2.504
90313W        W61929   3.103  25.588  14.662
90314W        W61930  24.787  42.090   0.793
90315W        W61931  42.374  13.421   4.659
90316W        W61932  43.975  30.373  13.399
90317W        W61933  25.463   2.661  13.988
90318W        W61934  16.204  33.337   4.712
90319W        W61935  34.858  16.124   4.073
90320W        W61936   8.347  35.648   3.322
90321W        W61937  22.798   3.080  14.522
90322W        W61938  11.801   1.514  12.002
90323W        W61939   4.912  43.282  10.495
90324W        W61940   3.684  43.695   1.146
90325W        W61941  43.989   7.507   0.816
90326W        W61942  41.614   5.254  14.238
90327W        W61943  18.132  19.613  13.042
90328W        W61944  35.285   9.020  14.115
90329W        W61945  16.506  15.805  10.617
90330W        W61946  26.158  38.722  12.418
90331W        W61947  31.439  26.025  14.549
90332W        W61948   7.455   2.331  13.065
90333W        W61949  34.325  44.875  10.639
90334W        W61950   3.657  36.058   4.605
90335W        W61951  14.215   7.962  12.136
90336W        W61952  25.130   5.450   3.551
90337W        W61953  26.190  43.782  12.037
90338W        W61954   4.883  27.857   1.475
90339W        W61955  39.985  20.118   4.200
90340W        W61956  12.661  21.259   0.768
90341W        W61957  10.214  22.954   2.451
90342W        W61958   2.960  43.363   1.787
90343W        W61959  38.740  20.954  14.289
90344W        W61960  18.459  30.569  14.006
90345W        W61961  11.594  16.613   4.342
90346W        W61962  10.811   2.274  12.452
90347W        W61963  19.247   9.490  12.326
90348W        W61964  14.387  28.591   4.112
90349W        W61965   6.643  23.307  14.498
90350W        W61966  29.534  24.714  10.696
90351W        W61967  40.062  23.008  14.025
90352W        W61968  42.607  35.113   2.753
90353W        W61969  13.824  16.956   0.416
90354W        W61970  35.402   3.842  11.457
90355W        W61971   0.625   0.971  14.981
90356W        W61972  19.753   5.915  11.543
90357W        W61973   6.962  18.786  12.977
90358W        W61974  12.692  41.482  12.468
90359W        W61975  33.787  25.584  10.632
90360W        W61976  28.592  22.775  10.648
90361W        W61977  34.153  10.325  12.090
90362W        W61978  31.073  25.241   4.477
90363W        W61979  36.363   1.336  14.307
90364W        W61980  32.841  42.453  10.660
90365W        W61981   7.176  11.716   4.861
90366W        W61982  31.055   5.967  11.818
90367W        W61983   7.102  15.238   3.074
90368W        W61984  25.094   7.363  14.253
90369W        W61985  42.225  35.442   4.001
90370W        W61986  17.297  41.313   4.121
90371W        W61987   8.425  18.106   4.569
90372W        W61988  25.590   1.330   2.450
90373W        W61989  36.055  20.852  10.700
90374W        W61990  24.184   5.075  13.014
90375W        W61991  19.908  20.117  11.656
90376W        W61992  22.237  12.484  12.563
90377W        W61993   2.450  13.560   2.863
90378W        W61994  40.499   4.413   3.335
90379W        W61995  31.683   3.979  14.351
90380W        W61996  10.593  24.681  11.060
90381W        W61997   2.877  28.140   4.525
90382W        W61998  35.006   7.517  13.978
90383W        W61999  12.036  38.120   3.215
90384W        W62000  32.586  12.740  12.090
90385W        W62001  32.107  17.461  11.521
90386W        W62002  31.375  37.502   1.393
90387W        W62003  28.604   8.205  12.466
90388W        W62004  34.905  34.659   4.541
90389W        W62005  31.649  21.192  13.955
90390W        W62006  22.329  10.045  11.473
90391W        W62007  26.935  20.446  12.969
90392W        W62008  26.993  19.506   2.940
90393W        W62009  32.950  35.919  11.266
90394W        W62010  34.688  19.520   4.099
90395W        W62011  32.351   1.249  14.352
90396W        W62012  11.930  36.916  13.421
90397W        W62013  37.933  20.710   0.864
90398W        W62014   6.393  16.744   2.990
90399W        W62015  32.642  35.136   4.628
90400W        W62016  20.526  15.873   3.184
90401W        W62017   5.251  34.842  12.712
90402W        W62018   0.419  20.046  11.114
90403W        W62019  41.028  32.466  14.364
90404W        W62020  13.017   6.885   2.769
90405W        W62021  24.081   5.357   4.881
90406W        W62022   1.934  36.704  11.965
90407W        W62023  20.196  15.421   3.671
90408W        W62024   7.944  19.558   0.773
90409W        W62025  39.053  39.955  14.305
90410W        W62026  37.619   3.039  12.122
90411W        W62027  37.094  30.165  14.243
90412W        W62028  40.938  38.556   1.397
90413W        W62029  33.233  42.426   0.954
90414W        W62030   9.763  34.897  11.276
90415W        W62031  35.008  43.025  12.461
90416W        W62032  25.919  19.736   4.139
90417W        W62033   0.790  18.272   2.780
90418W        W62034   0.889  41.658   2.366
90419W        W62035   2.690  27.880   4.117
90420W        W62036   7.842   4.697   1.375
90421W        W62037  16.021  34.659   0.903
90422W        W62038  39.857  31.604  14.674
90423W        W62039  38.245  19.976   4.581
90424W        W62040   6.379  31.695   4.649
90425W        W62041  30.485   4.496   3.749
90426W        W62042  38.917  15.182  14.542
90427W        W62043  32.474   2.821  11.114
90428W        W62044  31.285  22.529   3.822
90429W        W62045   2.528  28.213  12.384
90430W        W62046  23.683  14.323   5.078
90431W        W62047   0.454  31.086   2.129
90432W        W62048  44.859  36.083  10.254
90433W        W62049   9.574  38.602   3.769
90434W        W62050  37.824  41.895  11.167
90435W        W62051  32.026  36.760  14.840
90436W        W62052   9.273  35.477  10.525
90437W        W62053  15.294  22.815   3.696
90438W        W62054   3.661  38.985  13.882
90439W        W62055  33.714   3.289  11.064
90440W        W62056  21.467  21.392   4.048
90441W        W62057  43.277  30.854   1.736
90442W        W62058   6.336  18.687  14.216
90443W        W62059  31.873  21.075   1.705
90444W        W62060  43.979   1.222   3.059
90445W        W62061  41.518  31.711   1.977
90446W        W62062  43.729  38.544  10.140
90447W        W62063  44.590  40.966  11.571
90448W        W62064  30.876  32.399  12.018
90449W        W62065   2.637   2.340   4.568
90450W        W62066   9.572  15.763  11.202
90451W        W62067   5.269  28.272   4.400
90452W        W62068  41.863  32.506   4.873
90453W        W62069  20.636  41.939  14.593
90454W        W62070  44.398  12.566   3.184
90455W        W62071  20.195  40.854  14.818
90456W        W62072  14.092  34.497  13.851
90457W        W62073   3.630  16.164  11.598
90458W        W62074   9.664  38.928   0.043
90459W        W62075  38.574   0.596   0.610
90460W        W62076  41.917  31.467   3.278
90461W        W62077  37.819  39.108   0.365
90462W        W62078  34.975  39.233   4.910
90463W        W62079  25.552   9.922   3.732
90464W        W62080  35.477  26.312  14.801
90465W        W62081  19.156   1.209   2.222
90466W        W62082   4.229  40.475   2.794
90467W        W62083   3.310   9.571   1.473
90468W        W62084  30.884  32.513   3.307
90469W        W62085  35.915  42.852   0.752
90470W        W62086  32.645  41.581   4.440
90471W        W62087   9.411  35.572  11.988
90472W        W62088  42.404   0.744  14.305
90473W        W62089  18.287  18.194   0.351
90474W        W62090  14.116   0.598  12.613
90475W        W62091  32.968  34.636  11.870
90476W        W62092  33.940  21.000   0.740
90477W        W62093  41.724  34.932   0.296
90478W        W62094  42.969  16.142  12.113
90479W        W62095  40.402  26.539  12.876
90480W        W62096  22.325  20.730  14.372
90481W        W62097  16.788  19.001  11.972
90482W        W62098  38.222  17.293  11.111
90483W        W62099   2.396   2.705  13.979
90484W        W62100  16.292  41.895   1.226
90485W        W62101  11.376  34.330  14.255
90486W        W62102  23.693  34.188   4.519
90487W        W62103  22.093   1.215   1.798
90488W        W62104  42.402  21.324  12.995
90489W        W62105  24.970  12.863   3.137
90490W        W62106  10.599  44.411  10.482
90491W        W62107  33.932  19.748   5.049
90492W        W62108  15.289  12.155  12.445
90493W        W62109  21.173  10.373  12.769
90494W        W62110   6.779  22.254   4.608
90495W        W62111   0.275  29.956   4.640
90496W        W62112  42.958  31.450   4.658
90497W        W62113  36.439  35.514  11.631
90498W        W62114  16.762   2.535   3.815
90499W        W62115  10.441   1.634   1.809
90500W        W62116  28.549   6.741   0.294
90501W        W62117  27.404  13.489   5.318
90502W        W62118  13.679  27.143  13.750
90503W        W62119  25.599  23.692   2.127
90504W        W62120  15.313  32.958  11.444
90505W        W62121   4.265   6.860   4.860
90506W        W62122  27.664  26.875  12.567
90507W        W62123  13.116   4.901   0.932
90508W        W62124  38.116  30.081   2.401
90509W        W62125  26.001  42.848   4.849
90510W        W62126   6.352  38.108  13.555
90511W        W62127  37.975  17.403   4.605
90512W        W62128  19.525   8.185   3.005
90513W        W62129  11.088  37.067  13.824
90514W        W62130  38.770  42.530  11.826
90515W        W62131   9.055  39.301   4.247
90516W        W62132  18.763   3.923   2.024
90517W        W62133   5.199  15.779  13.793
90518W        W62134   6.311  38.612  10.530
90519W        W62135  42.513  37.876   4.190
90520W        W62136  32.072  26.551   4.684
90521W        W62137  14.280  35.157  13.475
90522W        W62138  29.427  17.317   2.295
90523W        W62139  12.784  11.867  14.735
90524W        W62140   9.322  18.617   2.241
90525W        W62141  22.973  11.193   2.192
90526W        W62142  21.617   7.717  14.923
90527W        W62143  12.215  40.635  11.135
90528W        W62144  19.485   4.274   4.578
90529W        W62145  29.677  40.961  14.398
90530W        W62146  33.263   0.912   2.179
90531W        W62147  40.816  20.633   4.572
90532W        W62148  42.999  41.640   4.500
90533W        W62149  28.050   7.871   0.916
90534W        W62150  32.160  39.644   1.785
90535W        W62151  32.058  34.283  13.384
90536W        W62152   6.187   6.547   2.461
90537W        W62153  18.557  36.281  13.352
90538W        W62154   3.809  24.096  10.251
90539W        W62155  10.177   9.481  10.750
90540W        W62156  25.191  23.182   3.172
90541W        W62157  33.050  30.070   1.250
90542W        W62158   3.679  26.670  11.859
90543W        W62159   6.224   1.864  13.368
90544W        W62160  19.757  39.870   2.670
90545W        W62161  17.008   3.465   1.888
90546W        W62162  38.412  33.514  12.092
90547W        W62163  39.902  20.642  11.925
90548W        W62164  22.556  17.110  14.919
90549W        W62165  34.461  32.659   2.140
90550W        W62166  27.127  37.591  13.986
90551W        W62167   5.720   3.455  12.186
90552W        W62168  35.071  13.212  12.673
90553W        W62169  36.059  24.948   2.316
90554W        W62170  10.423  20.209   1.214
90555W        W62171  18.828  19.663  13.825
90556W        W62172  41.335  22.997   4.921
90557W        W62173   6.649   9.596   0.014
90558W        W62174  41.984  30.062   1.010
90559W        W62175  35.510  10.883   1.992
90560W        W62176  24.442   3.482  14.991
90561W        W62177  19.614  42.929  10.776
90562W        W62178  29.527  36.702  13.956
90563W        W62179  24.737  22.587  11.598
90564W        W62180  32.059  29.985  12.813
90565W        W62181  42.512  23.458  14.735
90566W        W62182  19.984   8.268   1.776
90567W        W62183  32.905  28.560  11.561
90568W        W62184  44.444  10.581  12.890
90569W        W62185  26.296   8.337   2.885
90570W        W62186  44.841  38.365  12.045
90571W        W62187  37.237  14.691  12.590
90572W        W62188  40.778  42.909  14.740
90573W        W62189   5.307  18.395  12.867
90574W        W62190  14.338  20.986  14.890
90575W        W62191  27.008  43.322  11.380
90576W        W62192   1.543  29.364  13.484
90577W        W62193  30.099  42.150  12.386
90578W        W62194  17.442  40.296  10.924
90579W        W62195  20.029  38.133   0.436
90580W        W62196   5.689  21.413   3.705
90581W        W62197  12.493   9.776   0.182
90582W        W62198  33.879  23.734   0.748
90583W        W62199  37.938  31.320  14.027
90584W        W62200   1.359   8.090  11.205
90585W        W62201  28.410   2.855  12.468
90586W        W62202   4.091  21.932   4.067
90587W        W62203   5.367   2.883  11.076
90588W        W62204  27.608   4.774  10.700
90589W        W62205  13.486  34.816   5.082
90590W        W62206   4.243  33.945   4.183
90591W        W62207  35.335   3.357  14.751
90592W        W62208  12.798  35.339  12.935
90593W        W62209   5.496  32.952   1.476
90594W        W62210  12.664  42.416   0.466
90595W        W62211  36.586  37.365   0.255
90596W        W62212   8.392  11.360   1.042
90597W        W62213  26.532  39.946   2.114
90598W        W62214  28.550  21.719  12.963
90599W        W62215  38.955  17.843   3.726
90600W        W62216  36.957  38.499  13.542
90601W        W62217  19.716   9.738  10.510
90602W        W62218  33.818   6.791  11.031
90603W        W62219  15.054  37.828  10.935
90604W        W62220  17.931   8.264  12.559
90605W        W62221  19.549  18.801   3.301
90606W        W62222  41.586   3.404  10.810
90607W        W62223  23.572  30.034  14.357
90608W        W62224   8.255   4.979  11.634
90609W        W62225  40.388  19.086   3.165
90610W        W62226  32.772  20.053  10.663
90611W        W62227   4.179   6.302   0.034
90612W        W62228  14.170   7.700   0.439
90613W        W62229  37.997   2.898  14.459
90614W        W62230   4.678  13.335  11.710
90615W        W62231  32.808   2.024   9.764
90616W        W62232  39.594  28.154  14.027
90617W        W62233  36.121  13.719  14.447
90618W        W62234   4.419  10.388   2.056
90619W        W62235  23.189  43.330  14.076
90620W        W62236   2.771   9.318   2.960
90621W        W62237   5.313  36.271  14.006
90622W        W62238  33.508  20.624   2.856
90623W        W62239  34.893  28.063  11.949
90624W        W62240  39.111  21.454  11.053
90625W        W62241  21.159  35.971   0.827
90626W        W62242   3.008  33.584   3.819
90627W        W62243  29.414  22.766  14.529
90628W        W62244   7.897  37.116  10.745
90629W        W62245  21.466  34.926  14.461
90630W        W62246  14.572  18.154   4.603
90631W        W62247  10.537  15.543  12.896
90632W        W62248  19.045  18.663   3.346
90633W        W62249  27.577  20.274   0.276
90634W        W62250  41.721  23.141  12.220
90635W        W62251  33.283  15.130   3.449
90636W        W62252   8.778  30.021  14.386
90637W        W62253   6.067  13.316  11.109
90638W        W62254  32.437  40.019   3.563
90639W        W62255  40.378  13.045   5.071
90640W        W62256  38.922  13.636   9.684
90641W        W62257   7.337  12.653  13.288
90642W        W62258  37.790   0.932   3.325
90643W        W62259  20.136   2.963   1.065
90644W        W62260  32.877  27.627   1.038
90645W        W62261  44.936  43.490  13.943
90646W        W62262   0.443  18.002  14.964
90647W        W62263  25.238  28.703  10.718
90648W        W62264  36.029  43.003  12.600
90649W        W62265  15.787  28.160  10.750
90650W        W62266  27.191   3.775  13.814
90651W        W62267  44.187   6.099   5.010
90652W        W62268   5.820  38.320   4.117
90653W        W62269  31.965  18.736   3.606
90654W        W62270  33.579  12.624  11.115
90655W        W62271   9.971   1.731  12.233
90656W        W62272  34.932  30.657  10.807
90657W        W62273  41.370  28.428  14.794
90658W        W62274  13.622  13.774   2.265
90659W        W62275  21.209   4.029   1.741
90660W        W62276  30.187  37.592  11.564
90661W        W62277  37.350  44.455   1.371
90662W        W62278  26.674   6.804   0.857
90663W        W62279  15.349   2.726   0.370
90664W        W62280  14.188  12.305  14.019
90665W        W62281  36.464  42.729  14.578
90666W        W62282  26.251  22.147  10.698
90667W        W62283  18.750   7.205   4.683
90668W        W62284  16.267  21.270   4.454
90669W        W62285  24.440   2.842  12.528
90670W        W62286  34.701  38.589   1.804
90671W        W62287  40.386   1.973  14.000
90672W        W62288  35.098   2.109   3.654
90673W        W62289  24.980  22.841   4.544
90674W        W62290   7.714  35.450   0.196
90675W        W62291  23.674  23.839   3.098
90676W        W62292  27.433  39.664   0.992
90677W        W62293  18.088  34.315  14.604
90678W        W62294  20.750  12.371   1.390
90679W        W62295  36.388   3.058  13.478
90680W        W62296  44.468  25.709  10.641
90681W        W62297  22.964  12.525   4.909
90682W        W62298  40.809   8.176   1.408
90683W        W62299  35.707  20.514   0.490
90684W        W62300  13.612  36.409  11.981
90685W        W62301  10.763  22.376   1.350
90686W        W62302   6.910  20.863   2.393
90687W        W62303  11.709  33.465   1.371
90688W        W62304  38.597  13.215   9.743
90689W        W62305  19.674  36.434   4.811
90690W        W62306  29.921  10.029   4.557
90691W        W62307  23.041  14.570   0.903
90692W        W62308  22.702  40.384   2.798
90693W        W62309  33.873  27.421  10.700
90694W        W62310  29.458  38.955   2.368
90695W        W62311  44.457   7.157   9.899
90696W        W62312  24.551  10.139  11.078
90697W        W62313  27.087  17.051  12.911
90698W        W62314  42.559  14.695   0.730
90699W        W62315  39.544   0.657  14.954
90700W        W62316   6.825  44.526  10.709
90701W        W62317  32.807  27.159  14.797
90702W        W62318  36.852  27.677  12.892
90703W        W62319  44.917  10.599   1.900
90704W        W62320   5.343   5.038  11.207
90705W        W62321  28.092   0.259   0.661
90706W        W62322  25.174  15.259   3.684
90707W        W62323  36.397  35.449  14.926
90708W        W62324  25.505  14.615   0.390
90709W        W62325   4.520  28.131  14.630
90710W        W62326  21.260  19.651   3.171
90711W        W62327  38.963  12.728   0.763
90712W        W62328  32.449  25.685  10.920
90713W        W62329  15.148  19.232   3.791
90714W        W62330  27.558  15.708  13.966
90715W        W62331   8.798  28.761   2.233
90716W        W62332  13.185   6.738  10.085
90717W        W62333  15.166   7.318   3.796
90718W        W62334   4.767   0.798   0.610
90719W        W62335   5.213  24.987   3.607
90720W        W62336  42.485  37.808   5.017
90721W        W62337  24.349   8.013   0.946
90722W        W62338   1.268   4.905   2.262
90723W        W62339   6.186   3.462   4.532
90724W        W62340  39.256   5.352  12.815
90725W        W62341  22.499   6.369  11.007
90726W        W62342  28.406   1.008   0.177
90727W        W62343   7.650   6.927   1.105
90728W        W62344  41.250   8.840  12.909
90729W        W62345  33.605  21.953  13.798
90730W        W62346  21.696  27.619   2.780
90731W        W62347  40.437  11.160   5.190
90732W        W62348  24.462  36.129  14.497
90733W        W62349  38.069  22.251   1.674
90734W        W62350  21.148  43.787  13.990
90735W        W62351  26.011  19.858  12.591
90736W        W62352   8.520  16.040  13.498
90737W        W62353   1.822  32.372   0.410
90738W        W62354  23.169   6.109   0.645
90739W        W62355  31.589  20.017   2.421
90740W        W62356  40.545   8.947  12.347
90741W        W62357  32.593   7.410   1.041
90742W        W62358  14.350  33.884  10.714
90743W        W62359  21.960   7.411  14.403
90744W        W62360  39.180  15.104  11.244
90745W        W62361  26.787  18.724  11.174
90746W        W62362  28.509  14.085   0.826
90747W        W62363  29.508  41.546   4.204
90748W        W62364   9.878  33.112  11.241
90749W        W62365   6.816  38.038  13.807
90750W        W62366  26.608  28.871  12.057
90751W        W62367  13.723  24.567  10.651
90752W        W62368   1.701  10.230  12.634
90753W        W62369  42.289  38.110  11.994
90754W        W62370   2.963  13.636   3.638
90755W        W62371   3.162   6.015   2.743
90756W        W62372   9.641   8.769  12.028
90757W        W62373  21.612  24.112   2.618
90758W        W62374   7.869  27.534   2.278
90759W        W62375  25.964  26.776   3.198
90760W        W62376  22.224  37.765  12.865
90761W        W62377   7.827   5.293  14.017
90762W        W62378  25.131  16.640  12.505
90763W        W62379  37.856  22.109   3.644
90764W        W62380  37.392  38.290  12.879
90765W        W62381  33.122  14.558  14.997
90766W        W62382  37.103  36.509  14.258
90767W        W62383   0.487  28.062   0.226
90768W        W62384   0.537  40.946   4.407
90769W        W62385  44.373  43.707   4.185
90770W        W62386  20.209  37.347  11.957
90771W        W62387  10.245  42.601   1.134
90772W        W62388   5.451  34.526  13.905
90773W        W62389  33.607  20.244  12.453
90774W        W62390  36.304  29.000  14.364
90775W        W62391  36.333  41.696  14.262
90776W        W62392   2.242   8.827   2.049
90777W        W62393  39.996  22.593   4.282
90778W        W62394  15.036  19.547   1.962
90779W        W62395  21.854   7.206  12.854
90780W        W62396  28.371  10.061   3.627
90781W        W62397  11.400  37.389  14.917
90782W        W62398  36.668  38.036   2.673
90783W        W62399  13.507  17.765  10.666
90784W        W62400   2.470  10.777   4.939
90785W        W62401  10.347   9.965   3.764
90786W        W62402   1.378  40.428   3.601
90787W        W62403  17.128  32.825  13.781
90788W        W62404  35.180  38.085  11.183
90789W        W62405  42.924  18.076  11.063
90790W        W62406  26.556  37.790   1.812
90791W        W62407  23.549  33.660   2.713
90792W        W62408  33.510  33.875   2.010
90793W        W62409  28.873  13.792  13.419
90794W        W62410  12.251  14.791   3.255
90795W        W62411  22.089  44.724   2.310
90796W        W62412  19.318  22.999  12.568
90797W        W62413  29.792  33.623   0.284
90798W        W62414  13.145  15.029  14.728
90799W        W62415  10.673  21.262   2.133
90800W        W62416  12.769  14.255   0.768
90801W        W62417  38.359  27.132   3.719
90802W        W62418   4.228  17.901  13.418
90803W        W62419  41.457   4.798   4.239
90804W        W62420  16.743  21.953  11.643
90805W        W62421  37.891   9.422   0.832
90806W        W62422  38.998   5.428  14.783
90807W        W62423  23.487  16.969  14.525
90808W        W62424   3.784  22.213  10.636
90809W        W62425  43.612  18.570   4.583
90810W        W62426  28.949  24.755  11.567
90811W        W62427   1.066  10.562   1.248
90812W        W62428  13.149  35.539  14.306
90813W        W62429  16.236   6.771  10.882
90814W        W62430  27.675  11.757   4.083
90815W        W62431  24.015  13.074   3.653
90816W        W62432  34.422  36.921   4.251
90817W        W62433  10.805  39.447  13.619
90818W        W62434  16.985  44.318   4.249
90819W        W62435  28.007  15.755  13.539
90820W        W62436   2.952  24.621  12.550
90821W        W62437  31.138  39.889  11.693
90822W        W62438  18.949  37.976   4.074
90823W        W62439  35.300  19.703  10.106
90824W        W62440  29.788   5.242   3.258
90825W        W62441  37.809  39.146   1.303
90826W        W62442   3.973  12.224  11.902
90827W        W62443  22.198  27.662   4.530
90828W        W62444  44.611  29.854   0.078
90829W        W62445  34.061   1.067   0.395
90830W        W62446   4.911  38.657   1.383
90831W        W62447  12.000   9.900  13.441
90832W        W62448  17.080  28.460  14.463
90833W        W62449  24.303  41.855   1.893
90834W        W62450   9.239  21.666  13.294
90835W        W62451  20.673  20.184  11.584
90836W        W62452  32.694   4.841   1.471
90837W        W62453  14.228  33.847  11.622
90838W        W62454  33.429  41.636   4.841
90839W        W62455  22.601  20.301  10.662
90840W        W62456  37.465  39.539  12.970
90841W        W62457  12.236   7.434   3.655
90842W        W62458  11.016  19.762  11.169
90843W        W62459  19.117  12.784   2.417
90844W        W62460  39.932  15.315  13.405
90845W        W62461  33.259   3.147  13.986
90846W        W62462  38.445  44.183  12.879
90847W        W62463  23.904  35.420  10.903
90848W        W62464  13.810  40.341  11.919
90849W        W62465  21.987  21.460  10.373
90850W        W62466  11.806  17.148  12.917
90851W        W62467  29.378   8.969  13.073
90852W        W62468   5.706  36.641  12.906
90853W        W62469  35.530  13.375  12.429
90854W        W62470  19.360  13.793  13.462
90855W        W62471  29.417  19.803  11.095
90856W        W62472  14.136   8.833  12.530
90857W        W62473  21.191  17.374   2.594
90858W        W62474  22.015  10.388   2.282
90859W        W62475  19.485  41.167   2.272
90860W        W62476  19.634  41.771  11.130
90861W        W62477  31.151  32.438  13.984
90862W        W62478  22.876  15.318  14.949
90863W        W62479  29.124   7.824   4.464
90864W        W62480  38.567  13.502   4.930
90865W        W62481  37.666  33.880  12.538
90866W        W62482  18.167  11.274   2.268
90867W        W62483  38.445  44.182   4.088
90868W        W62484  37.034  32.533  14.045
90869W        W62485   5.640  24.825   3.841
90870W        W62486   3.866   3.423   0.370
90871W        W62487  37.504  19.336  12.342
90872W        W62488  16.615  12.900   0.948
90873W        W62489   0.530  13.220  11.146
90874W        W62490  26.056  29.654  11.690
90875W        W62491   4.715  40.874   0.774
90876W        W62492  33.546   6.456  14.291
90877W        W62493  28.590  41.931   0.950
90878W        W62494  41.048  42.854   1.353
90879W        W62495   9.624  41.977  13.337
90880W        W62496  32.622  37.619  13.477
90881W        W62497  44.335   1.228   0.480
90882W        W62498  37.022  44.059   1.302
90883W        W62499  15.895  37.621   1.400
90884W        W62500   5.327  18.152   4.536
90885W        W62501  38.533  39.059  14.815
90886W        W62502  34.871   8.271  14.721
90887W        W62503   9.406   5.456  13.812
90888W        W62504  24.286  32.809  11.139
90889W        W62505  13.345  32.058  14.844
90890W        W62506  19.285  29.056   2.460
90891W        W62507  25.685  33.106  13.664
90892W        W62508  18.064  16.348   1.345
90893W        W62509  10.766   1.253  12.510
90894W        W62510  34.622  26.365   3.084
90895W        W62511   4.921  22.219  11.411
90896W        W62512  18.697  26.600  12.909
90897W        W62513   5.562   7.073  12.464
90898W        W62514  23.932  34.003  12.476
90899W        W62515  19.530   7.783   1.292
90900W        W62516   8.083  25.025   3.108
90901W        W62517   7.240  21.688  14.531
90902W        W62518   7.760  37.642  10.741
90903W        W62519  38.439  41.531  13.511
90904W        W62520  39.822  32.514   1.958
90905W        W62521  41.691   9.845   4.582
90906W        W62522  21.946  19.251  12.930
90907W        W62523  41.966   7.996  10.563
90908W        W62524  43.844   0.183   1.632
90909W        W62525  39.038  15.696  13.763
90910W        W62526   5.547  41.784  14.766
90911W        W62527  37.375  16.297   4.046
90912W        W62528   6.205   9.764   3.566
90913W        W62529  26.251   5.859   4.619
90914W        W62530  35.644  22.754  14.130
90915W        W62531   2.387  24.203   2.451
90916W        W62532  40.901  33.578  11.466
90917W        W62533  12.157  27.203  14.029
90918W        W62534  41.017  25.719   0.782
90919W        W62535  39.266  39.310  11.431
90920W        W62536   4.455  43.901  14.413
90921W        W62537  28.282   1.956   0.906
90922W        W62538  31.438  22.508   2.383
90923W        W62539   3.455   0.417  14.466
90924W        W62540  42.987  11.118  12.993
90925W        W62541  30.999  31.424   4.767
90926W        W62542  22.618  29.212   0.066
90927W        W62543  32.906  27.601   0.528
90928W        W62544  12.813   4.563  10.655
90929W        W62545  28.537  11.317  14.281
90930W        W62546   2.345  20.182  13.827
90931W        W62547  15.307  18.048  10.612
90932W        W62548  25.408  44.843   1.711
90933W        W62549  38.823  40.868  13.132
90934W        W62550  24.056  38.651   0.570
90935W        W62551   6.217  32.019   4.268
90936W        W62552  15.803   7.748   2.334
90937W        W62553  29.328   6.344   2.116
90938W        W62554  32.642  36.735  12.453
90939W        W62555  27.442  41.745   4.214
90940W        W62556  14.073  11.427  10.463
90941W        W62557  43.018  17.293   1.315
90942W        W62558  29.086  43.841  11.610
90943W        W62559  33.421  23.740  14.731
90944W        W62560  35.814  39.816   0.282
90945W        W62561  28.669  21.991   0.934
90946W        W62562  25.472  35.027   4.545
90947W        W62563   7.979   8.352  11.795
90948W        W62564   7.194  37.220  13.983
90949W        W62565  43.766  18.155   4.266
90950W        W62566  22.814  39.148  13.425
90951W        W62567  11.409   4.708   0.014
90952W        W62568   5.202  13.857  12.617
90953W        W62569  10.103   1.427   0.334
90954W        W62570  32.108  21.008  11.539
90955W        W62571  21.169  12.098  14.484
90956W        W62572  24.626  10.716  12.491
90957W        W62573  15.627  37.962   3.274
90958W        W62574  41.848  17.866   9.674
90959W        W62575  41.904  40.388   3.643
90960W        W62576  31.193  39.079  14.264
90961W        W62577  41.799  10.093  13.041
90962W        W62578  24.688   5.897   1.407
90963W        W62579  35.344  34.445  10.679
90964W        W62580  24.669   3.613  11.172
90965W        W62581  37.171  19.420  14.022
90966W        W62582   4.106  35.964  12.006
90967W        W62583  30.918   8.240   0.371
90968W        W62584  13.115  42.802  11.568
90969W        W62585  23.965  38.889   2.712
90970W        W62586   1.744  12.851  10.701
90971W        W62587  26.514   9.836   1.466
90972W        W62588  17.148  10.090  13.483
90973W        W62589  12.801  10.652  11.991
90974W        W62590   8.922  13.728   1.819
90975W        W62591  24.708  41.320  11.638
90976W        W62592  42.418  13.929  11.084
90977W        W62593   7.583  15.568  14.386
90978W        W62594  23.953  40.542  11.517
90979W        W62595  19.361  43.773  14.177
90980W        W62596  38.014  28.136  10.202
90981W        W62597  14.776   2.931   2.890
90982W        W62598  39.646  41.496   3.577
90983W        W62599  14.528  32.556   1.342
90984W        W62600  20.429  15.568   0.890
90985W        W62601   1.969  31.897   0.300
90986W        W62602  32.342  43.267   3.294
90987W        W62603   7.723  19.282   1.363
90988W        W62604  39.882   0.909  12.649
90989W        W62605  15.713  24.526   3.700
90990W        W62606  23.800  39.105   0.719
90991W        W62607  30.548  12.046  12.102
90992W        W62608  31.325   1.353   0.687
90993W        W62609  26.225   2.183   3.761
90994W        W62610  31.286  44.391   4.650
90995W        W62611  23.184  30.503   3.910
90996W        W62612  10.352  42.938  13.915
90997W        W62613  17.635  22.995   0.714
90998W        W62614  31.256  32.018   1.661
90999W        W62615  32.411   5.950  14.074
91000W        W62616   4.968  13.069   4.279
91001W        W62617  11.021  17.419  11.200
91002W        W62618   2.556  43.278   2.289
91003W        W62619  33.799  29.080   3.332
91004W        W62620  16.253  34.360   3.746
91005W        W62621  12.582  31.226  12.910
91006W        W62622  31.670  43.376   4.804
91007W        W62623  16.049  33.990  11.869
91008W        W62624  25.543  17.587   3.786
91009W        W62625  34.666  24.547  14.425
91010W        W62626  18.134  12.208  10.744
91011W        W62627  37.469  36.203   3.201
91012W        W62628  44.545   4.729   1.396
91013W        W62629  33.252   2.368  10.815
91014W        W62630  20.132  13.649   3.159
91015W        W62631  34.704  28.155  11.031
91016W        W62632   9.815  13.082   3.857
91017W        W62633  44.359   6.782   3.311
91018W        W62634  26.644  32.499  13.121
91019W        W62635   9.253  16.345   2.427
91020W        W62636  13.035  10.749   1.034
91021W        W62637   9.339   8.424   1.363
91022W        W62638   6.937  42.396  13.929
91023W        W62639  28.473  12.147   2.199
91024W        W62640   6.573  37.556   3.205
91025W        W62641  24.474   1.133  11.119
91026W        W62642  25.056   0.333  11.144
91027W        W62643  35.248  17.071  12.043
91028W        W62644  33.177  24.140   3.353
91029W        W62645   4.744  16.273   3.304
91030W        W62646  39.163  10.003  10.244
91031W        W62647  37.557  39.711  11.223
91032W        W62648  25.667  33.597   3.777
91033W        W62649  18.084  15.570  11.397
91034W        W62650  12.139  21.213   0.695
91035W        W62651   5.831  29.959   2.890
91036W        W62652   1.761   8.275  14.443
91037W        W62653  13.870  11.077  14.514
91038W        W62654  20.764  13.195   0.468
91039W        W62655   9.749  22.791   0.405
91040W        W62656   1.919  15.649  11.137
91041W        W62657  19.778  41.401  14.994
91042W        W62658  14.296  30.549   2.494
91043W        W62659  20.386  25.006   3.710
91044W        W62660   2.224  32.052  13.891
91045W        W62661  14.113  14.350  13.421
91046W        W62662  18.797  34.067   3.016
91047W        W62663  13.569  16.072  10.845
91048W        W62664  40.581  14.880   3.203
91049W        W62665  31.651   4.250   2.781
91050W        W62666   2.370  32.615   1.796
91051W        W62667  43.020  24.144   0.297
91052W        W62668  12.819   7.038   0.787
91053W        W62669  39.470  11.680  13.358
91054W        W62670   8.071  17.985  14.305
91055W        W62671   5.092   1.303  11.860
91056W        W62672  23.586   1.469  13.507
91057W        W62673   4.871  28.362   1.403
91058W        W62674   0.456  32.661   0.489
91059W        W62675  17.225  15.370   2.848
91060W        W62676   4.921  11.376  13.012
91061W        W62677  41.615  13.303   1.231
91062W        W62678  13.195   3.992  13.295
91063W        W62679  11.216  34.624  13.830
91064W        W62680  39.958  42.580   2.743
91065W        W62681  38.652  19.938  12.855
91066W        W62682   3.993  18.560  14.699
91067W        W62683   5.718  33.928   3.737
91068W        W62684   8.270  35.605  12.006
91069W        W62685  18.031  25.035  10.736
91070W        W62686  34.566   7.278   4.979
91071W        W62687   3.934  11.638   2.165
91072W        W62688  35.157  11.708   0.808
91073W        W62689  37.365  27.752  13.934
91074W        W62690  17.974  16.169  11.473
91075W        W62691  23.279  39.012   0.835
91076W        W62692  21.171  37.635   1.894
91077W        W62693  33.376  35.499   1.019
91078W        W62694  24.954  32.619  12.127
91079W        W62695   6.706  18.082  12.584
91080W        W62696  39.593  28.117   2.288
91081W        W62697   0.203   2.213  12.073
91082W        W62698  31.918  38.867  12.811
91083W        W62699  15.513   2.799  14.446
91084W        W62700  40.060  13.311  12.378
91085W        W62701  31.956  25.581   0.822
91086W        W62702  40.220   4.971  10.043
91087W        W62703   0.746  31.157  13.930
91088W        W62704  24.541  41.553   2.773
91089W        W62705  32.126  26.361  12.876
91090W        W62706  41.831  22.958  10.587
91091W        W62707  16.276  14.278   2.323
91092W        W62708  43.958  40.067   1.725
91093W        W62709  41.898  39.014   0.452
91094W        W62710   6.182   0.994   4.503
91095W        W62711  14.828  22.641  11.740
91096W        W62712  16.134  25.539   0.314
91097W        W62713   8.767  22.670   1.903
91098W        W62714   6.226   9.580  11.529
91099W        W62715  38.760  10.872   4.632
91100W        W62716  42.313  20.754   0.994
91101W        W62717  32.029  14.113   4.292
91102W        W62718  28.633  27.503   0.914
91103W        W62719  23.206  37.335  10.680
91104W        W62720   2.338  29.961  12.932
91105W        W62721  40.564  40.798  12.516
91106W        W62722  32.381  30.408  11.673
91107W        W62723  18.022  20.182   0.407
91108W        W62724  16.658  13.288  10.360
91109W        W62725  40.529  31.001  13.860
91110W        W62726  39.695  37.115   0.050
91111W        W62727  39.451   8.082  14.406
91112W        W62728  36.034  33.667   2.854
91113W        W62729  12.565   7.238   2.329
91114W        W62730  38.064  14.704   2.427
91115W        W62731  40.316  27.528  12.982
91116W        W62732  35.487  24.483  12.037
91117W        W62733  34.031  26.873  14.472
91118W        W62734   5.940  31.181  13.565
91119W        W62735  19.743  21.996  14.946
91120W        W62736  21.270  33.006   0.110
91121W        W62737  36.098  17.482   1.222
91122W        W62738  35.575  36.058  14.757
91123W        W62739  24.183  30.694   2.361
91124W        W62740  31.391  27.987  11.201
91125W        W62741  17.025   8.166  11.573
91126W        W62742  36.888  24.546  11.388
91127W        W62743  44.309  11.390   2.791
91128W        W62744  21.719  33.885   3.336
91129W        W62745  35.117  14.386   2.219
91130W        W62746   6.309  19.054   3.672
91131W        W62747  20.658  20.626   4.293
91132W        W62748   7.825  20.642  13.058
91133W        W62749  19.089   2.059  12.423
91134W        W62750  44.923  28.556   3.717
91135W        W62751  20.732   7.688   0.217
91136W        W62752  31.243  24.694  11.036
91137W        W62753   2.168  30.350   2.387
91138W        W62754   5.969   4.326   0.431
91139W        W62755  13.041  39.042   4.205
91140W        W62756  25.507  36.251   1.864
91141W        W62757   3.578  36.582   3.717
91142W        W62758  28.002  14.027   0.821
91143W        W62759  33.092  22.980  11.266
91144W        W62760  38.313  22.291  12.320
91145W        W62761  25.224  15.769  11.849
91146W        W62762  11.844  18.522  12.708
91147W        W62763  32.624  40.532   2.412
91148W        W62764  28.109  38.958  12.572
91149W        W62765  19.653  37.740  11.179
91150W        W62766   3.026  22.487  12.977
91151W        W62767  19.192  30.856  11.641
91152W        W62768  34.246  22.563   2.121
91153W        W62769   2.917   8.785   0.723
91154W        W62770  25.145  35.502  13.019
91155W        W62771  23.745  22.282  11.518
91156W        W62772  27.586  22.711   3.337
91157W        W62773  36.702  32.518  12.417
91158W        W62774  35.831   3.891  13.588
91159W        W62775  39.572  17.112  12.451
91160W        W62776   2.246   1.424   1.214
91161W        W62777  37.370  23.439  13.914
91162W        W62778  27.485  34.715   4.282
91163W        W62779  14.286  26.594  14.364
91164W        W62780   0.742  12.130   0.836
91165W        W62781   2.721  36.520   4.204
91166W        W62782  32.391  31.563   4.929
91167W        W62783  38.579  23.015  14.757
91168W        W62784   4.360  19.054   3.887
91169W        W62785  12.673  10.951   1.329
91170W        W62786  44.565  12.184   4.091
91171W        W62787   8.138  25.553   4.590
91172W        W62788  33.581  40.357   2.673
91173W        W62789  18.734  27.050  14.354
91174W        W62790  19.053  20.338  11.505
91175W        W62791  21.977  15.726  12.299
91176W        W62792  20.333  12.105   0.280
91177W        W62793  42.188   7.294   4.145
91178W        W62794  27.711   9.310  14.547
91179W        W62795  16.827  31.427   3.038
91180W        W62796  11.409  37.356  13.461
91181W        W62797  31.854  13.666   3.088
91182W        W62798  14.202  21.933   3.224
91183W        W62799   5.983  14.845   4.081
91184W        W62800  39.037  29.195   2.228
91185W        W62801  44.290   4.621   1.861
91186W        W62802  38.142  41.290   1.830
91187W        W62803  31.821  14.744   2.234
91188W        W62804  25.782  28.560   3.232
91189W        W62805  24.274   7.786   1.840
91190W        W62806  31.968  27.167   4.007
91191W        W62807  27.427  30.652  11.471
91192W        W62808  17.069   6.397   2.386
91193W        W62809   8.907  33.810  11.126
91194W        W62810  16.261  39.857  14.769
91195W        W62811  41.651   2.744   4.314
91196W        W62812  12.229  43.390  14.511
91197W        W62813  15.139   2.186   0.777
91198W        W62814  37.084   1.152   2.848
91199W        W62815   3.444  15.783  12.563
91200W        W62816  26.924   9.246  14.924
91201W        W62817  22.967  42.966  13.756
91202W        W62818  19.963  17.082   4.505
91203W        W62819  10.815  31.414  11.864
91204W        W62820  16.008  10.687   2.322
91205W        W62821  39.180  37.568  12.498
91206W        W62822  25.438   0.252  14.432
91207W        W62823  41.784  36.041   0.278
91208W        W62824   2.435  39.331  14.817
91209W        W62825  43.083   3.823  11.730
91210W        W62826  38.993  20.962  12.931
91211W        W62827  10.659  27.036   4.634
91212W        W62828   4.440   0.959   2.878
91213W        W62829  20.814  25.730  13.889
91214W        W62830  33.004  11.610  11.820
91215W        W62831  27.014  27.028  11.945
91216W        W62832  11.198  37.845  10.574
91217W        W62833  33.123   0.376   2.192
91218W        W62834  29.853   6.396   4.215
91219W        W62835  39.468  10.752  13.511
91220W        W62836  28.232  12.280   2.766
91221W        W62837   5.684  16.166   1.327
91222W        W62838  31.015  31.823   1.218
91223W        W62839  11.658  19.128  10.510
91224W        W62840  39.108  14.128  10.344
91225W        W62841  31.970  18.262  12.611
91226W        W62842  17.946  21.283   2.216
91227W        W62843  31.028  12.585   0.302
91228W        W62844  43.639  21.785   1.318
91229W        W62845  18.813  35.169   0.465
91230W        W62846   7.944  20.502  13.905
91231W        W62847  31.739   2.034  12.865
91232W        W62848  26.527  41.519  11.528
91233W        W62849  44.720   5.995   2.756
91234W        W62850  31.933   0.487   2.391
91235W        W62851   6.361  17.556  14.065
91236W        W62852  35.097  32.161   3.258
91237W        W62853   7.106  42.593  13.472
91238W        W62854  14.329  17.313   4.618
91239W        W62855  31.695  31.254   1.241
91240W        W62856  36.373  36.802   4.185
91241W        W62857  37.621  19.747   3.208
91242W        W62858  26.570   8.242  12.528
91243W        W62859   5.817   7.104  10.842
91244W        W62860  22.850   5.712   0.999
91245W        W62861   9.118  15.806  10.972
91246W        W62862  19.621   7.241  14.241
91247W        W62863  29.608  42.042  10.959
91248W        W62864  12.984  22.181   3.308
91249W        W62865  37.496  43.837   4.629
91250W        W62866  35.415  14.272   1.778
91251W        W62867  29.377  20.205  11.514
91252W        W62868  19.316  33.085  12.152
91253W        W62869  24.782  23.120   0.319
91254W        W62870  14.032  43.259   1.726
91255W        W62871   6.124  16.357   3.237
91256W        W62872  11.806  34.840   4.559
91257W        W62873  18.479  22.095  11.100
91258W        W62874   9.836  20.967   1.168
91259W        W62875  18.119  37.210   0.905
91260W        W62876  13.370  26.647  14.948
91261W        W62877  25.414  13.727   1.311
91262W        W62878  25.093  26.067  12.535
91263W        W62879  43.469  28.430   2.860
91264W        W62880  18.165  14.490  13.380
91265W        W62881   0.317  12.737  11.215
91266W        W62882  12.726  28.989   1.098
91267W        W62883  25.647  31.224  11.224
91268W        W62884  30.088  22.135   2.836
91269W        W62885  32.967  10.666   0.509
91270W        W62886   2.220  11.107  12.976
91271W        W62887   8.950  20.203  11.012
91272W        W62888  21.137   9.166  11.973
91273W        W62889  41.330   9.856   2.740
91274W        W62890   7.807  12.369  13.520
91275W        W62891  15.286  34.855  10.691
91276W        W62892  35.377  29.048   0.278
91277W        W62893  32.587   8.460   2.807
91278W        W62894  31.376   4.201   2.330
91279W        W62895  42.297  23.590   2.133
91280W        W62896  44.134  23.520  10.510
91281W        W62897  23.732  28.767  11.074
91282W        W62898  23.060  36.536  14.118
91283W        W62899  15.190  44.089  14.429
91284W        W62900  14.635  21.377   3.713
91285W        W62901  10.444   6.135   0.552
91286W        W62902  29.231  40.242  10.696
91287W        W62903  25.605  10.653   1.767
91288W        W62904  27.476  21.664   1.714
91289W        W62905  39.878  22.699   0.043
91290W        W62906  14.149  10.146  12.973
91291W        W62907  27.688  43.876  14.276
91292W        W62908  27.046   3.279  14.052
91293W        W62909   2.843  12.627   4.728
91294W        W62910  37.104  29.624  12.544
91295W        W62911  18.105  40.130  14.101
91296W        W62912  22.760  42.945   4.497
91297W        W62913  20.811  10.829   4.837
91298W        W62914  30.318  26.881   2.329
91299W        W62915  44.922  20.616   2.340
91300W        W62916   8.228  23.359  11.158
91301W        W62917  25.096   1.322  14.901
91302W        W62918  34.422   5.639  12.020
91303W        W62919  31.396  11.697   0.006
91304W        W62920  20.468  38.023  12.404
91305W        W62921  15.152   7.951   2.107
91306W        W62922  27.204   3.288   3.769
91307W        W62923  43.339  14.802  12.046
91308W        W62924  25.243  15.139   4.621
91309W        W62925  11.188  28.189  10.550
91310W        W62926  21.100  43.529   0.364
91311W        W62927  14.271  10.614   2.808
91312W        W62928  38.271  39.370  12.567
91313W        W62929  30.583  16.378   1.353
91314W        W62930  28.562  38.974   2.905
91315W        W62931   7.199  13.089  11.584
91316W        W62932   0.518  35.088   4.222
91317W        W62933  12.418  25.308   0.525
91318W        W62934  20.367  36.630   0.253
91319W        W62935  11.241  20.490   3.141
91320W        W62936  10.184  39.501  14.378
91321W        W62937   0.043  34.874  12.917
91322W        W62938  30.082  18.062  14.891
91323W        W62939   8.444   5.256   4.052
91324W        W62940  15.937   0.240   3.918
91325W        W62941  20.486  19.575   2.678
91326W        W62942  32.446  39.709   0.667
91327W        W62943  23.646  11.138   0.689
91328W        W62944  31.048  24.140   3.127
91329W        W62945   5.931  34.400  10.698
91330W        W62946  33.166   4.694  11.830
91331W        W62947  22.218  39.393   4.216
91332W        W62948   0.503  18.227  13.449
91333W        W62949  41.124  12.279   2.369
91334W        W62950  18.789  37.091  14.310
91335W        W62951  19.128   2.750   2.903
91336W        W62952  31.130  38.819   1.932
91337W        W62953  44.736  27.450  11.094
91338W        W62954  14.368  22.529   2.756
91339W        W62955  40.231   4.881  12.950
91340W        W62956   5.347  13.183   3.416
91341W        W62957  36.722  39.998   1.270
91342W        W62958   7.443  15.825  12.094
91343W        W62959  25.649  27.612   3.119
91344W        W62960   1.397   7.191  13.479
91345W        W62961   6.137   8.741   4.256
91346W        W62962  15.646  10.079   4.023
91347W        W62963   3.604  37.276   0.492
91348W        W62964  32.915  15.087  14.798
91349W        W62965  42.537  26.377  12.237
91350W        W62966  16.111   1.020  10.866
91351W        W62967  24.735  40.416   2.252
91352W        W62968   9.891  23.666   4.307
91353W        W62969   6.707   0.013   1.889
91354W        W62970  25.813  17.432   4.200
91355W        W62971  20.805  37.609  13.730
91356W        W62972   7.993  11.608  11.252
91357W        W62973  40.249  28.644  14.411
91358W        W62974  24.656  38.018   2.220
91359W        W62975  21.488  26.814  11.935
91360W        W62976  21.630   8.662  13.799
91361W        W62977   3.675  20.053  13.256
91362W        W62978  12.891   3.237  13.492
91363W        W62979  39.442  22.634  14.669
91364W        W62980  35.478  43.348   0.348
91365W        W62981  37.872  25.818  14.003
91366W        W62982  15.355  28.692  14.362
91367W        W62983  38.447  22.408   0.499
91368W        W62984   3.035  25.467   2.603
91369W        W62985  15.685  15.024   0.875
91370W        W62986  38.087   5.263   0.277
91371W        W62987   0.254   0.058  14.874
91372W        W62988   1.965   5.659  14.847
91373W        W62989  15.103   7.862   0.782
91374W        W62990   5.205   8.211   1.801
91375W        W62991  44.477  21.978   3.746
91376W        W62992  42.420  36.046   3.831
91377W        W62993   3.732  24.239  13.271
91378W        W62994  10.043  32.325  14.282
91379W        W62995  37.906  17.380   1.643
91380W        W62996   5.518   1.794   0.309
91381W        W62997  23.963  33.645  12.098
91382W        W62998  34.977  17.897   3.737
91383W        W62999  39.954  41.732  14.417
91384W        W63000  12.308  19.601   2.622
91385W        W63001  18.630   0.355  11.400
91386W        W63002  20.522  32.348   3.686
91387W        W63003  44.951   9.639  13.271
91388W        W63004  32.219  41.210   0.916
91389W        W63005   4.322  16.167  12.509
91390W        W63006  10.099  14.354   3.796
91391W        W63007  17.308  14.754   4.735
91392W        W63008  31.959  25.508   4.828
91393W        W63009  21.924  44.442   3.748
91394W        W63010   4.400  13.680   3.594
91395W        W63011  32.397   1.348   0.744
91396W        W63012  30.145  11.573  13.738
91397W        W63013  38.810  34.756  14.093
91398W        W63014  13.673   9.187  13.995
91399W        W63015  32.937  27.123   1.167
91400W        W63016  40.504  10.179  12.025
91401W        W63017   4.391  39.047  12.576
91402W        W63018  19.206  35.420   3.702
91403W        W63019  26.846  14.860   4.826
91404W        W63020  15.332  12.613  10.749
91405W        W63021  24.957   8.906  12.714
91406W        W63022   8.307  13.030  10.445
91407W        W63023  27.489  32.620   1.602
91408W        W63024  25.901  14.211   1.893
91409W        W63025  25.774   5.723   4.472
91410W        W63026  40.758  30.896  11.573
91411W        W63027  21.209  11.067   4.588
91412W        W63028  22.644  24.922   3.398
91413W        W63029   5.638  15.811  14.047
91414W        W63030  29.387   6.317  10.561
91415W        W63031  27.839  40.653  13.848
91416W        W63032  17.086  43.047   3.429
91417W        W63033  37.655  24.072   4.886
91418W        W63034  32.552  20.237   1.267
91419W        W63035  34.583  42.962   2.740
91420W        W63036  11.471  42.773   2.218
91421W        W63037  17.343  42.703  12.524
91422W        W63038  33.507  17.071  14.784
91423W        W63039   6.760  24.151  14.439
91424W        W63040   1.791  42.825   3.348
91425W        W63041  22.896  29.143  14.262
91426W        W63042  16.295  13.604  12.923
91427W        W63043  10.403  43.056   1.345
91428W        W63044  36.763  35.630  14.615
91429W        W63045  21.268  37.594   4.177
91430W        W63046   3.804  37.272   0.979
91431W        W63047  27.158  25.753  10.770
91432W        W63048  39.988  14.094   3.795
91433W        W63049   5.189  29.993   3.726
91434W        W63050  30.497  24.922  12.489
91435W        W63051  30.264  36.255   4.182
91436W        W63052  27.381  38.041   2.328
91437W        W63053  20.675  22.084   0.462
91438W        W63054  12.139  44.335   4.635
91439W        W63055  33.464  22.024   3.551
91440W        W63056  18.623  38.948  12.418
91441W        W63057  24.554  32.330  13.523
91442W        W63058  41.427  16.885   1.147
91443W        W63059  27.461   1.751   0.464
91444W        W63060  26.242  34.957   1.874
91445W        W63061  41.469  12.086  11.511
91446W        W63062  18.296  18.990  14.365
91447W        W63063  15.925  28.869   3.599
91448W        W63064   9.963  17.302   0.776
91449W        W63065  21.449  22.582  12.192
91450W        W63066  41.801  41.892  14.871
91451W        W63067  13.212  42.071  10.641
91452W        W63068   5.215   4.181  13.923
91453W        W63069  25.330  17.231  13.812
91454W        W63070  22.684  33.986  10.425
91455W        W63071   0.729  40.442   1.912
91456W        W63072  17.653  31.376  12.873
91457W        W63073   7.731  15.117   0.420
91458W        W63074  24.137   7.668   1.356
91459W        W63075  22.149   5.905  12.028
91460W        W63076  24.478  36.520  10.413
91461W        W63077  34.462   7.615  10.772
91462W        W63078  31.867   0.438   0.783
91463W        W63079   8.407  21.252   0.027
91464W        W63080  15.251  25.570   4.909
91465W        W63081  20.314  38.679  14.670
91466W        W63082   2.146  15.056  14.344
91467W        W63083   1.496  19.698  11.536
91468W        W63084  24.457  20.668   0.867
91469W        W63085  36.391  36.201  13.290
91470W        W63086   1.470   6.576  11.283
91471W        W63087   0.222  43.198  11.205
91472W        W63088  25.056  33.399   0.930
91473W        W63089  15.260  15.530  13.760
91474W        W63090  23.784  12.023   4.249
91475W        W63091   1.844  19.633  11.963
91476W        W63092  41.899  36.454   1.949
91477W        W63093  20.094  18.778   1.650
91478W        W63094  30.940  14.385   5.016
91479W        W63095  17.989  10.838  10.811
91480W        W63096  34.362  44.027   0.028
91481W        W63097   0.053  17.753  14.710
91482W        W63098   2.236  35.996  12.432
91483W        W63099  15.737  44.914   2.575
91484W        W63100  29.401  14.178   3.320
91485W        W63101  17.590  15.728   3.223
91486W        W63102  25.995  21.106  14.342
91487W        W63103  40.478   8.380   4.363
91488W        W63104  28.524  20.136   0.359
91489W        W63105  30.129  25.523   0.382
91490W        W63106  38.901  35.116  11.502
91491W        W63107  43.515   8.298  13.851
91492W        W63108  41.519  29.158  13.536
91493W        W63109  17.653  12.412  11.620
91494W        W63110  31.887  30.065  10.804
91495W        W63111  10.351  38.085  11.095
91496W        W63112   1.999   8.162   3.252
91497W        W63113  29.994  35.656  11.176
91498W        W63114  37.620  41.639   0.976
91499W        W63115  32.581  31.586   4.388
91500W        W63116  35.882  33.815   2.374
91501W        W63117   7.298  16.055   0.770
91502W        W63118  42.055  26.219   4.731
91503W        W63119  38.748   9.939   3.589
91504W        W63120   2.902  17.983  13.360
91505W        W63121  34.454  19.227  14.266
91506W        W63122  28.551  17.662  10.673
91507W        W63123  27.991  42.779   1.756
91508W        W63124  23.717  10.608   0.850
91509W        W63125  26.028  39.782   3.215
91510W        W63126   1.420  35.668  11.139
91511W        W63127  21.689  32.955   3.684
91512W        W63128  10.689   7.099  11.976
91513W        W63129  25.413  10.850  13.013
91514W        W63130  15.701  19.545   4.172
91515W        W63131   4.954  37.936  12.443
91516W        W63132  15.433   4.218   5.559
91517W        W63133  26.409  36.232   3.709
91518W        W63134  24.508  22.952  13.629
91519W        W63135   4.987   3.464  14.716
91520W        W63136  12.735  40.447   3.619
91521W        W63137  43.766  24.587   1.833
91522W        W63138  19.757   1.266   0.624
91523W        W63139  21.519  43.531   1.783
91524W        W63140   5.259  32.747  14.727
91525W        W63141  41.988  30.039   2.499
91526W        W63142  14.857  13.287  12.416
91527W        W63143   7.442   5.760  11.151
91528W        W63144  16.172  33.374  14.877
91529W        W63145  36.220  17.281   1.698
91530W        W63146  39.794  21.615  10.592
91531W        W63147   1.216   7.318  10.734
91532W        W63148  25.976  29.719   2.647
91533W        W63149  11.583  11.664   3.993
91534W        W63150  19.640  27.936  12.569
91535W        W63151  35.027  36.098  13.334
91536W        W63152  22.850  44.681  14.265
91537W        W63153   6.434  31.180  10.692
91538W        W63154  19.981  10.638  14.640
91539W        W63155   5.307  25.757   0.195
91540W        W63156  11.829  36.135   1.888
91541W        W63157   4.464   6.595  14.155
91542W        W63158   8.849  30.891   1.879
91543W        W63159   7.230   6.959   3.842
91544W        W63160  24.176  25.149   0.886
91545W        W63161   2.195  20.812   4.349
91546W        W63162  42.142   4.743  14.821
91547W        W63163  26.804  12.672  11.153
91548W        W63164  39.521  10.309   1.711
91549W        W63165  20.728  42.796   3.252
91550W        W63166  34.663  28.876   3.125
91551W        W63167   8.133  13.770  12.088
91552W        W63168   0.442  29.995   3.716
91553W        W63169  12.019  27.632  12.924
91554W        W63170  20.759  17.211   3.851
91555W        W63171  33.053  19.581   0.059
91556W        W63172  25.491  15.144   0.373
91557W        W63173   5.705  25.329   1.353
91558W        W63174  40.749   8.287  14.934
91559W        W63175  13.991  16.854  10.717
91560W        W63176  39.549  34.626  12.526
91561W        W63177  28.835  18.127   2.590
91562W        W63178  43.798  26.946   2.357
91563W        W63179   1.489  11.774  14.298
91564W        W63180  30.662  28.970  10.401
91565W        W63181  26.741   4.824   1.946
91566W        W63182  12.859  16.575   1.915
91567W        W63183   6.253  42.933   0.426
91568W        W63184  16.601  13.635  11.589
91569W        W63185  43.240  27.672   0.329
91570W        W63186   6.841  31.781   2.492
91571W        W63187   6.384  38.198   3.215
91572W        W63188  42.065  25.411  12.491
91573W        W63189  34.371  18.585   2.841
91574W        W63190  12.576  30.375  11.142
91575W        W63191  24.683  10.965  13.436
91576W        W63192  37.540  14.078   1.373
91577W        W63193  34.009  43.209   3.548
91578W        W63194  12.301  35.483  12.811
91579W        W63195   8.644   8.127  13.824
91580W        W63196  16.963  40.381   4.294
91581W        W63197  12.219  12.934   1.056
91582W        W63198  44.314  34.854  12.503
91583W        W63199  12.418  29.591  13.462
91584W        W63200  15.223   6.619  11.056
91585W        W63201  19.234  18.204  14.246
91586W        W63202  30.179  44.889  12.565
91587W        W63203  12.761  25.627   0.772
91588W        W63204  32.069  42.274   0.918
91589W        W63205  22.459  30.558   0.492
91590W        W63206  41.305  44.797   2.300
91591W        W63207   1.409   7.215   4.365
91592W        W63208  33.580  39.369  10.989
91593W        W63209  12.337  37.924  14.509
91594W        W63210  31.907   4.709   0.977
91595W        W63211  32.451  35.074   2.927
91596W        W63212  26.915  12.255   0.930
91597W        W63213   1.836  38.783  11.128
91598W        W63214   4.938  41.948  11.570
91599W        W63215   1.813  35.362  11.276
91600W        W63216   1.339  13.727   2.602
91601W        W63217  31.867  38.435   1.394
91602W        W63218  31.356  32.046  13.028
91603W        W63219  38.326  29.557  14.889
91604W        W63220  17.085  43.924   3.296
91605W        W63221  25.462  17.686  12.986
91606W        W63222  24.203  24.125   0.702
91607W        W63223  32.453   1.516  13.415
91608W        W63224  37.455  40.810   1.294
91609W        W63225  34.896  43.302   3.530
91610W        W63226  44.823  21.191   2.573
91611W        W63227  37.958  33.001  10.323
91612W        W63228   8.412   0.983   2.769
91613W        W63229  19.001  39.969   3.121
91614W        W63230  12.846  41.966   1.486
91615W        W63231  18.070   6.352  11.996
91616W        W63232   3.792   0.909  11.114
91617W        W63233   6.850  12.316   0.942
91618W        W63234  27.403  20.682   3.787
91619W        W63235  33.036  20.340   0.426
91620W        W63236  22.279   3.668  13.425
91621W        W63237  31.124  36.055   2.267
91622W        W63238  29.557  30.331   3.028
91623W        W63239   0.711  43.044   4.238
91624W        W63240  19.836  23.694  14.768
91625W        W63241  43.455  17.447   0.388
91626W        W63242   8.326  24.070   3.324
91627W        W63243  12.360  13.310  14.248
91628W        W63244  31.603  10.750  11.613
91629W        W63245  30.947  27.563   2.652
91630W        W63246  24.285   9.699   2.703
91631W        W63247  22.472  19.043   3.280
91632W        W63248  28.936  14.311   2.000
91633W        W63249  38.030  34.893  10.691
91634W        W63250  13.998  39.496  12.811
91635W        W63251   9.760  17.237  11.158
91636W        W63252  40.965  36.604  14.039
91637W        W63253   1.094  39.027   1.919
91638W        W63254   6.471  12.650  14.490
91639W        W63255  40.722  39.231  13.540
91640W        W63256  34.045  26.977   2.814
91641W        W63257  20.240  27.921  11.701
91642W        W63258  15.147  10.824   4.669
91643W        W63259   7.741  13.864  11.724
91644W        W63260   9.753  31.532   0.692
91645W        W63261   7.441   8.584  14.450
91646W        W63262  38.577  41.661   4.155
91647W        W63263   6.624  26.090  12.028
91648W        W63264  44.092   0.806   5.042
91649W        W63265  22.166  35.061   4.336
91650W        W63266  42.024  31.867  12.001
91651W        W63267  33.923   4.299  11.987
91652W        W63268  13.220  40.030  11.136
91653W        W63269   0.536   7.511  14.689
91654W        W63270  22.505   7.776  11.088
91655W        W63271   4.439  10.381  13.379
91656W        W63272  42.226   3.333  13.868
91657W        W63273   4.350  36.881   4.595
91658W        W63274   7.421  13.529   2.186
91659W        W63275  34.868  28.078   0.005
91660W        W63276  23.545  32.976   3.817
91661W        W63277  20.254  18.821   1.135
91662W        W63278  26.504  20.623  14.963
91663W        W63279  26.952  30.922   4.616
91664W        W63280  29.558  21.478   2.368
91665W        W63281  17.366  22.255  14.903
91666W        W63282  22.989  37.433  14.483
91667W        W63283  42.435  10.385  12.077
91668W        W63284  33.364  33.383   0.802
91669W        W63285   2.455  23.719  12.426
91670W        W63286  24.242   9.826   4.990
91671W        W63287  18.544   4.708  14.485
91672W        W63288  10.405  17.618  14.083
91673W        W63289  40.030   6.410   0.983
91674W        W63290  20.311   3.071  14.179
91675W        W63291  28.573  18.215  14.497
91676W        W63292  21.621  15.872   3.461
91677W        W63293  37.010  29.282   2.858
91678W        W63294  39.433  32.879   1.862
91679W        W63295  23.538  37.575   1.783
91680W        W63296  34.698  42.942  10.698
91681W        W63297  19.539  24.997  14.048
91682W        W63298   8.224  34.130  11.501
91683W        W63299  14.206  12.321   3.388
91684W        W63300  18.283  35.551  11.475
91685W        W63301   8.204  15.400   4.775
91686W        W63302   6.942  27.018  11.667
91687W        W63303   7.320  13.007   2.766
91688W        W63304   5.624  20.254   1.384
91689W        W63305  41.367  10.659  13.477
91690W        W63306  42.164  42.958   4.872
91691W        W63307  42.362  37.133  12.946
91692W        W63308   5.768  29.796   4.393
91693W        W63309  28.476   5.620  11.260
91694W        W63310  43.708  43.492  12.019
91695W        W63311  29.403  20.684   4.504
91696W        W63312   1.264  40.773   2.263
91697W        W63313   2.457   8.859  10.481
91698W        W63314   9.739  20.463  10.679
91699W        W63315   2.198   0.477   1.898
91700W        W63316  27.466   3.327  13.744
91701W        W63317  28.423  39.259  11.585
91702W        W63318   6.656  21.231  14.548
91703W        W63319  25.658  43.945   3.656
91704W        W63320  11.626  25.209  14.442
91705W        W63321  18.109  23.258   3.532
91706W        W63322  24.887  32.542   3.366
91707W        W63323   6.180  25.559  14.760
91708W        W63324  43.276  26.556   1.064
91709W        W63325  37.494  39.771   2.236
91710W        W63326  28.566  15.305   3.627
91711W        W63327  15.471   5.984  12.978
91712W        W63328  18.567   8.194  10.761
91713W        W63329  33.906  19.803  14.859
91714W        W63330  28.522   5.583   2.922
91715W        W63331   2.904  10.439  12.471
91716W        W63332  19.068  33.907  12.010
91717W        W63333   9.838  14.258  11.353
91718W        W63334  21.992  44.995  13.888
91719W        W63335  26.528  19.758   0.774
91720W        W63336  24.126  27.430   0.745
91721W        W63337  41.924  32.535   1.861
91722W        W63338  11.106  27.525  14.986
91723W        W63339  42.236  34.537   1.838
91724W        W63340  32.716  16.023  12.079
91725W        W63341  30.426  14.226   2.187
91726W        W63342  26.052  15.153  12.060
91727W        W63343  34.576  25.653  11.569
91728W        W63344  11.007  39.119   1.709
91729W        W63345  14.277   2.618   0.356
91730W        W63346  23.921  35.440   2.455
91731W        W63347  40.810  33.683   4.047
91732W        W63348   4.947  35.373  12.046
91733W        W63349  14.714  37.582  11.604
91734W        W63350  21.003  39.533   4.609
91735W        W63351  27.703  15.393   1.209
91736W        W63352  11.856  27.662  13.921
91737W        W63353   3.451  29.564   0.512
91738W        W63354  28.139  31.734  11.201
91739W        W63355   6.434  24.762  11.119
91740W        W63356  27.491  10.010  11.818
91741W        W63357  25.563  41.814  10.493
91742W        W63358  29.989  11.873  10.974
91743W        W63359  17.315   9.884  11.594
91744W        W63360   5.790   0.273   1.371
91745W        W63361  32.538  41.034  11.622
91746W        W63362  36.965  38.787   4.715
91747W        W63363  40.893   1.429  12.617
91748W        W63364  35.896  39.031  12.543
91749W        W63365  35.929   5.978  11.254
91750W        W63366   0.921  41.562   1.758
91751W        W63367  32.109   6.243  10.476
91752W        W63368  16.822  40.806  10.727
91753W        W63369  36.368  14.227   1.917
91754W        W63370  18.772  34.943  11.484
91755W        W63371  18.231  19.105  10.751
91756W        W63372  39.666  35.846  11.527
91757W        W63373   9.881  22.998  11.484
91758W        W63374   7.843   1.849   0.209
91759W        W63375  33.282  36.619  10.976
91760W        W63376  11.725  38.819   0.044
91761W        W63377  27.627  35.963  10.356
91762W        W63378  17.593   3.323  11.963
91763W        W63379  17.052  27.318  10.590
91764W        W63380  22.606  31.064  13.078
91765W        W63381   7.934  43.444  12.339
91766W        W63382  41.136  44.243   2.825
91767W        W63383  41.435  20.498  12.944
91768W        W63384  29.439  23.482   2.226
91769W        W63385  33.928   4.502  10.529
91770W        W63386  26.980   6.923   3.607
91771W        W63387  13.245  24.730  11.956
91772W        W63388  43.905  11.119   3.550
91773W        W63389   7.581  36.429  12.510
91774W        W63390  25.185  29.385   3.185
91775W        W63391  42.946  31.786  10.289
91776W        W63392  21.883  24.509  11.218
91777W        W63393  43.097  42.558  11.177
91778W        W63394  10.619  42.491  10.698
91779W        W63395  30.839   7.403  11.441
91780W        W63396  34.698   7.232   1.940
91781W        W63397   3.630  34.967  12.896
91782W        W63398  19.392  33.664   1.900
91783W        W63399  19.549  11.961  11.617
91784W        W63400  17.726   2.226  12.465
91785W        W63401  27.647  42.407  10.515
91786W        W63402  31.055  37.321  13.467
91787W        W63403  28.938  30.558  12.354
91788W        W63404  41.887  35.572   2.893
91789W        W63405  12.685  20.546  14.230
91790W        W63406  13.673   8.332  11.607
91791W        W63407  32.128  24.118  13.077
91792W        W63408   0.140  35.457   4.301
91793W        W63409   7.393   2.221  14.860
91794W        W63410  37.579   8.581   0.334
91795W        W63411  16.783  44.786   3.129
91796W        W63412  43.283   4.051  13.459
91797W        W63413   4.277  21.708  11.349
91798W        W63414   5.958  24.678  10.486
91799W        W63415  41.568  43.366  14.811
91800W        W63416  33.438  11.295  11.617
91801W        W63417   4.922   0.915  10.146
91802W        W63418  17.731  15.244  14.514
91803W        W63419  28.616  14.074  10.682
91804W        W63420  17.248  16.263  10.250
91805W        W63421  24.677  32.023  12.663
91806W        W63422  30.376  22.022   3.299
91807W        W63423  27.995  22.676   0.624
91808W        W63424  28.184  23.631   0.288
91809W        W63425  27.094  35.114  11.438
91810W        W63426  19.351  40.583   0.955
91811W        W63427  41.558  16.226   0.285
91812W        W63428  39.087  40.083   1.375
91813W        W63429  15.420   3.186   1.491
91814W        W63430  35.810  21.103   4.218
91815W        W63431  38.641  31.982   2.248
91816W        W63432   9.567  27.501  11.212
91817W        W63433  44.859  42.284   4.142
91818W        W63434   5.861  11.425  10.733
91819W        W63435   1.801   6.995  12.158
91820W        W63436   7.944  30.773  10.190
91821W        W63437  37.363  30.647   1.969
91822W        W63438  42.753  36.634  11.025
91823W        W63439  43.374  15.888   0.270
91824W        W63440  17.159   9.087  12.511
91825W        W63441  17.177  18.703   5.215
91826W        W63442  19.564  44.878   0.406
91827W        W63443  24.611  36.139  13.150
91828W        W63444   9.788  18.149   0.552
91829W        W63445  24.626  23.682  14.819
91830W        W63446  24.418  31.097  11.650
91831W        W63447  30.913  24.578  13.792
91832W        W63448  15.073  23.760  11.834
91833W        W63449  14.704   9.562   1.870
91834W        W63450  37.180  42.252  14.418
91835W        W63451  25.192  32.971   3.264
91836W        W63452  39.431  36.770   1.377
91837W        W63453  24.236  11.766   3.043
91838W        W63454  26.627  40.883   3.783
91839W        W63455  40.975  44.726   2.701
91840W        W63456  28.835   2.669  14.516
91841W        W63457  34.473   7.462   2.801
91842W        W63458  14.892  13.233  11.045
91843W        W63459   5.461  12.837  12.941
91844W        W63460  29.619  41.848   2.848
91845W        W63461  11.233  30.481   3.749
91846W        W63462   4.904   5.270   2.850
91847W        W63463  44.234  21.748  14.667
91848W        W63464  18.520  11.166   3.181
91849W        W63465  16.271  37.147   3.176
91850W        W63466  38.171  19.627  12.457
91851W        W63467  31.494   1.581   2.818
91852W        W63468  16.099   0.868  12.355
91853W        W63469  27.306  42.106   0.674
91854W        W63470  41.921   7.398   4.565
91855W        W63471  33.169  12.792  10.854
91856W        W63472   4.713   6.222  12.906
91857W        W63473  44.520  38.151  13.935
91858W        W63474  25.552  38.218  11.144
91859W        W63475  10.730  40.028  11.807
91860W        W63476   6.954  32.848   3.445
91861W        W63477  16.166  30.744   2.131
91862W        W63478   5.189  13.819  11.729
91863W        W63479  23.795  21.345  10.708
91864W        W63480  35.355  18.796  14.511
91865W        W63481  24.578   4.853   1.701
91866W        W63482   0.432  29.152  14.061
91867W        W63483  42.549   1.280   3.591
91868W        W63484  43.370   2.191   4.429
91869W        W63485  31.516   3.841  12.884
91870W        W63486  30.382  33.745   3.313
91871W        W63487   8.761   8.376  10.590
91872W        W63488  33.019  33.893   3.222
91873W        W63489  23.450  42.007   3.717
91874W        W63490  15.892  17.278   4.534
91875W        W63491  14.428   7.741  11.703
91876W        W63492  34.660  25.915   2.150
91877W        W63493  27.364  16.551  11.119
91878W        W63494  22.075   3.749  10.704
91879W        W63495  13.788  41.812  12.885
91880W        W63496  41.352  18.129  13.943
91881W        W63497   6.490  14.337   3.840
91882W        W63498  21.984  23.102   4.566
91883W        W63499   5.837  34.386   2.559
91884W        W63500   0.042  24.701  12.994
91885W        W63501  37.720  36.879   3.669
91886W        W63502   7.145  29.041  12.076
91887W        W63503  35.886  43.530  14.034
91888W        W63504  28.113  11.701  13.732
91889W        W63505  44.042  33.824   2.843
91890W        W63506   2.944  34.668  12.396
91891W        W63507  41.323   0.535  11.151
91892W        W63508  20.612  30.604   4.655
91893W        W63509  15.167   1.029   3.293
91894W        W63510  11.294   0.611   2.161
91895W        W63511  34.149  23.610   4.351
91896W        W63512  10.869   1.498   1.253
91897W        W63513  10.680  30.520   4.284
91898W        W63514  39.054   5.733  13.762
91899W        W63515  26.944  11.520  12.124
91900W        W63516  17.624  26.678   1.639
91901W        W63517  31.075  40.710  12.955
91902W        W63518   6.903  30.254   3.378
91903W        W63519   7.340   9.389  13.994
91904W        W63520  26.495  20.205  12.840
91905W        W63521  17.789   8.653   0.409
91906W        W63522  10.058  27.513  11.997
91907W        W63523  25.408   7.831  11.124
91908W        W63524   4.370  31.881   3.250
91909W        W63525  26.995  26.186   4.706
91910W        W63526  44.884   8.419  13.967
91911W        W63527  27.737  20.272  14.783
91912W        W63528   1.855  17.915   2.819
91913W        W63529  14.857   8.211   0.481
91914W        W63530  28.158  35.607  11.198
91915W        W63531  36.652  23.237  12.490
91916W        W63532  38.522  37.044   0.811
91917W        W63533  39.316  28.127   4.446
91918W        W63534  41.480  19.532   2.801
91919W        W63535  26.193  25.238   3.709
91920W        W63536  44.029  30.211   4.733
91921W        W63537  14.769  40.770  13.364
91922W        W63538  13.857  44.076  13.511
91923W        W63539  24.544  38.196  10.686
91924W        W63540   9.164  27.733  11.571
91925W        W63541  20.292  24.176   4.651
91926W        W63542  40.846   3.895   0.588
91927W        W63543  11.403  31.323   2.128
91928W        W63544   5.402  24.325  14.847
91929W        W63545   6.663  14.102   0.401
91930W        W63546  18.299  37.915  14.530
91931W        W63547   9.316  25.563  12.941
91932W        W63548   1.042  25.377   1.822
91933W        W63549  14.308  27.028   3.085
91934W        W63550  33.442  38.509   4.990
91935W        W63551  21.547  20.069  13.055
91936W        W63552  20.194  38.495  11.426
91937W        W63553  24.123  32.071  13.360
91938W        W63554  37.286  11.040   9.802
91939W        W63555  43.310  28.159   2.399
91940W        W63556  27.284  11.156   2.371
91941W        W63557  19.549   1.161  13.151
91942W        W63558  15.445  31.167   3.787
91943W        W63559  42.521  19.591  12.690
91944W        W63560  13.912   3.283  10.534
91945W        W63561  24.000  15.341   3.258
91946W        W63562  34.344  35.204   3.179
91947W        W63563  30.643  25.806   0.993
91948W        W63564  32.121  40.794  14.323
91949W        W63565  14.281  44.070   5.091
91950W        W63566  27.798  31.569  14.283
91951W        W63567  42.871  16.304   0.068
91952W        W63568  13.188  12.298  12.787
91953W        W63569   2.167  12.229   1.279
91954W        W63570  42.354  37.623  13.882
91955W        W63571  23.667  24.285   3.356
91956W        W63572  24.051  27.249   3.289
91957W        W63573  13.341  18.645   1.210
91958W        W63574  19.918  27.813  12.093
91959W        W63575  41.597  36.513  13.871
91960W        W63576  43.835  18.299   1.651
91961W        W63577  30.515  27.169  14.760
91962W        W63578  42.773   2.884   0.666
91963W        W63579  34.429   4.501  13.895
91964W        W63580  21.203   6.851   2.636
91965W        W63581  31.698  35.099  13.507
91966W        W63582  44.717  41.597   3.600
91967W        W63583  22.260  32.226   2.809
91968W        W63584   7.754  30.945  14.395
91969W        W63585  43.394  44.283  14.926
91970W        W63586  14.920  34.142   0.317
91971W        W63587  15.691   7.352  10.198
91972W        W63588  13.685  28.233  14.746
91973W        W63589  32.856  26.968  10.718
91974W        W63590  44.728   4.712   0.878
91975W        W63591  17.627  10.744   1.165
91976W        W63592  18.795  20.753  12.701
91977W        W63593  12.093  32.531   0.204
91978W        W63594  44.404  27.068   9.958
91979W        W63595  40.172  17.602  11.609
91980W        W63596  22.949  36.130  14.451
91981W        W63597   3.871  24.121   1.861
91982W        W63598  44.857   0.775  11.705
91983W        W63599  19.598  39.344  14.792
91984W        W63600  19.003  37.091  13.839
91985W        W63601  35.918  21.146  14.134
91986W        W63602   9.821  38.323  11.644
91987W        W63603  33.684  13.695  12.503
91988W        W63604  22.694  36.782  10.823
91989W        W63605  23.655   4.778   0.645
91990W        W63606  29.870  33.760   3.342
91991W        W63607  30.588   4.168  12.279
91992W        W63608   9.694  23.253  11.992
91993W        W63609  25.793   2.655   2.918
91994W        W63610  30.216  31.624   2.457
91995W        W63611   5.091   6.241  11.597
91996W        W63612   8.242  22.519  13.399
91997W        W63613  18.758  28.661  10.057
91998W        W63614  32.433  12.804   0.837
91999W        W63615  42.400  10.957   4.622
92000W        W63616  28.198  22.978   1.849
92001W        W63617  27.740  27.139   2.687
92002W        W63618  30.580  33.083   4.114
92003W        W63619  12.079  10.812   3.299
92004W        W63620  18.219   6.719  12.358
92005W        W63621  30.783  27.797   4.538
92006W        W63622  39.368  34.540   0.826
92007W        W63623  22.444  13.912  14.015
92008W        W63624  19.694  15.206   1.902
92009W        W63625  25.193  41.884   1.701
92010W        W63626   8.118   6.310  12.139
92011W        W63627  29.694  11.142  11.979
92012W        W63628  32.490  30.068  12.061
92013W        W63629  34.705  20.126  13.570
92014W        W63630  23.649  21.751   2.232
92015W        W63631  27.462  44.994  13.526
92016W        W63632  34.698  34.467   1.702
92017W        W63633   7.976  22.878  11.226
92018W        W63634  19.779   3.195   2.367
92019W        W63635  26.744  21.295  13.297
92020W        W63636   8.895  41.728  14.904
92021W        W63637  32.493  19.510   2.595
92022W        W63638  42.334  15.178  13.911
92023W        W63639  12.590   7.214  10.943
92024W        W63640  41.726  32.822  12.623
92025W        W63641  11.246  20.998  11.910
92026W        W63642   1.743   3.459  14.933
92027W        W63643  31.447   4.885  12.910
92028W        W63644   7.298   9.119  12.562
92029W        W63645  38.848   9.353  13.917
92030W        W63646  30.679  42.058   1.814
92031W        W63647   4.815  28.430   4.614
92032W        W63648  20.034  33.299   0.172
92033W        W63649  40.258  14.035   2.685
92034W        W63650   6.917   5.148   3.895
92035W        W63651  13.096  40.719  13.995
92036W        W63652   9.760   5.324   3.384
92037W        W63653   9.684  41.875   3.017
92038W        W63654   6.386  22.680   0.001
92039W        W63655  44.840   1.029  14.310
92040W        W63656  44.946  15.664  11.575
92041W        W63657  20.979  27.607   3.147
92042W        W63658   7.251  27.426  13.491
92043W        W63659  31.110  10.703   1.716
92044W        W63660  43.420  39.766  13.765
92045W        W63661  31.919  15.191   3.206
92046W        W63662  18.610  33.891  12.883
92047W        W63663  22.721  18.591   2.348
92048W        W63664  38.073  22.503   1.205
92049W        W63665  40.669   2.881   4.117
92050W        W63666  21.980   1.164   5.028
92051W        W63667   3.809  22.258  12.042
92052W        W63668   1.200  27.461  11.082
92053W        W63669   2.618  18.155   4.791
92054W        W63670  11.232  22.961  14.497
92055W        W63671  32.408  30.964   1.678
92056W        W63672  38.389  20.794  11.632
92057W        W63673   6.349  25.969   2.392
92058W        W63674  41.745  29.241  11.464
92059W        W63675   0.947  20.633   4.711
92060W        W63676  35.290  28.208  12.899
92061W        W63677  33.945   2.760  13.004
92062W        W63678  41.559   2.362  10.474
92063W        W63679  16.042  26.552   3.642
92064W        W63680  31.133  32.558   3.797
92065W        W63681   8.819  20.692   0.813
92066W        W63682  29.340  10.030   2.469
92067W        W63683  30.673  19.576   2.217
92068W        W63684  34.899  23.986   3.390
92069W        W63685  13.576  38.373  14.551
92070W        W63686  17.776  13.074  10.688
92071W        W63687  18.246  42.483   0.690
92072W        W63688  44.320  11.403  14.735
92073W        W63689  20.036  31.642   2.209
92074W        W63690  33.445  29.226   2.759
92075W        W63691  16.065  43.744   1.319
92076W        W63692   2.222  30.857  13.106
92077W        W63693  21.330  15.971  14.223
92078W        W63694  15.082  38.468  12.070
92079W        W63695  17.773  34.861  11.487
92080W        W63696  34.548  10.313   2.213
92081W        W63697  17.661  36.597  13.928
92082W        W63698  21.730  19.043  10.931
92083W        W63699  28.626   1.691  12.935
92084W        W63700  17.725  14.122   4.550
92085W        W63701  37.287   4.967   1.179
92086W        W63702  40.537  11.666   5.131
92087W        W63703  21.555  12.295  10.396
92088W        W63704  37.468  17.135  12.600
92089W        W63705   2.682   6.991  12.309
92090W        W63706  10.770   8.321  12.538
92091W        W63707  14.821  31.154   2.340
92092W        W63708  41.831  18.618   0.532
92093W        W63709  41.071  22.007  13.764
92094W        W63710  41.315  20.203   2.169
92095W        W63711  20.203   2.526  10.711
92096W        W63712  44.158   8.966   4.976
92097W        W63713  38.567  24.047   2.660
92098W        W63714  21.216   9.184   0.240
92099W        W63715  33.089  35.658   0.325
92100W        W63716  26.921   6.164   0.410
92101W        W63717  26.414  13.937  13.096
92102W        W63718  18.739  42.639   3.727
92103W        W63719  38.868  11.309  12.813
92104W        W63720  11.254  38.947  14.831
92105W        W63721  34.818  10.152   1.788
92106W        W63722  25.310   4.416   4.126
92107W        W63723  10.425  21.039   4.498
92108W        W63724  43.942  22.715  13.441
92109W        W63725  28.141   8.757  10.242
92110W        W63726  22.670  22.919  10.748
92111W        W63727  22.785  43.903  11.042
92112W        W63728  27.512   4.612  11.547
92113W        W63729  29.057  18.323  12.568
92114W        W63730  13.033   4.910  13.289
92115W        W63731   4.814  39.018  13.936
92116W        W63732   3.306   2.912  13.222
92117W        W63733  38.371  42.904   2.614
92118W        W63734  28.665  13.850   2.376
92119W        W63735  11.735   5.562  13.848
92120W        W63736  12.042  44.400  13.534
92121W        W63737  22.175  33.679   3.184
92122W        W63738  29.949   6.433  11.470
92123W        W63739  29.396   3.236   1.901
92124W        W63740   3.869  26.602  12.338
92125W        W63741  34.367   6.158   1.883
92126W        W63742  27.599  18.047   0.752
92127W        W63743   5.217  23.452  13.582
92128W        W63744  21.049  26.715   1.213
92129W        W63745  27.704  18.943   1.410
92130W        W63746  13.330   7.616  10.636
92131W        W63747   4.656   7.225   2.038
92132W        W63748  43.808   5.417   0.269
92133W        W63749   7.797  31.122  10.968
92134W        W63750  42.484  31.486   2.056
92135W        W63751  39.037  26.206   0.428
92136W        W63752  18.361  44.211  13.059
92137W        W63753  16.110  33.348  12.635
92138W        W63754  40.007  11.330  14.792
92139W        W63755  13.549  44.929   3.519
92140W        W63756  12.276  32.117  13.050
92141W        W63757  41.898   8.793  10.283
92142W        W63758  35.569  10.089  14.326
92143W        W63759  29.701  23.607  14.053
92144W        W63760  33.897   9.815  14.315
92145W        W63761  20.008  24.596   3.852
92146W        W63762  19.898  30.111   0.942
92147W        W63763  26.994  44.275   3.640
92148W        W63764  29.985  37.496   0.106
92149W        W63765  31.952  28.669  13.937
92150W        W63766  33.549   1.997  12.105
92151W        W63767   8.842  25.084   4.875
92152W        W63768   4.143  39.052  13.095
92153W        W63769  34.938  12.651   1.615
92154W        W63770   8.681   5.945   3.429
92155W        W63771  34.111  26.211  13.433
92156W        W63772   3.905  14.739  14.511
92157W        W63773  40.837  15.443  13.172
92158W        W63774  31.037   2.283   2.259
92159W        W63775   3.279  26.038  12.882
92160W        W63776  25.903  37.944   2.449
92161W        W63777   1.424   4.842  13.872
92162W        W63778  26.234  11.239   5.163
92163W        W63779  35.270  31.536  11.124
92164W        W63780  41.955  34.096  12.091
92165W        W63781  32.834  44.400   1.891
92166W        W63782   1.986   3.199   1.745
92167W        W63783   1.519  41.150   4.199
92168W        W63784  38.978  36.028   3.221
92169W        W63785   8.745  39.806   3.398
92170W        W63786  44.606  21.242   0.337
92171W        W63787  37.587  30.485   3.335
92172W        W63788  39.782  39.903   4.644
92173W        W63789   0.255  15.586  12.022
92174W        W63790  39.494   2.199   2.680
92175W        W63791  21.125  30.733   1.202
92176W        W63792  32.895  18.926   0.687
92177W        W63793  26.649  21.259   5.019
92178W        W63794  29.041  19.242  12.211
92179W        W63795  38.552   5.251   1.216
92180W        W63796  41.854   3.868   3.357
92181W        W63797  42.467  33.031  13.585
92182W        W63798  23.017  38.637  13.008
92183W        W63799  37.997   1.409   3.315
92184W        W63800  13.137  27.551  14.962
92185W        W63801  13.540  27.075  10.697
92186W        W63802  40.304  19.661   4.609
92187W        W63803  13.457  23.372   3.284
92188W        W63804  42.946  15.546   2.726
92189W        W63805  30.232  14.656   2.495
92190W        W63806  37.787  44.022  12.127
92191W        W63807  29.449  38.441  12.547
92192W        W63808  41.934  26.726   4.462
92193W        W63809   8.625   1.607   1.129
92194W        W63810  25.112  21.071   2.784
92195W        W63811  37.835  29.500   4.624
92196W        W63812  41.334  31.113  13.441
92197W        W63813   9.832  38.526   1.278
92198W        W63814   5.974  18.767   3.401
92199W        W63815  34.088   8.210  11.156
92200W        W63816  23.155  38.162  12.898
92201W        W63817  27.745   2.762   3.323
92202W        W63818  11.853   4.740   2.657
92203W        W63819  40.607  16.766  13.345
92204W        W63820  13.589   3.856   2.361
92205W        W63821  14.489  39.958   0.838
92206W        W63822  31.843  23.196   2.868
92207W        W63823  33.179   0.423   4.717
92208W        W63824  44.460  20.266  14.913
92209W        W63825  40.357  25.322   1.142
92210W        W63826  27.104  18.508   1.839
92211W        W63827  41.460  15.805   2.723
92212W        W63828  26.920  38.884  12.022
92213W        W63829  26.512  32.625   3.421
92214W        W63830  34.791   0.587  11.178
92215W        W63831  19.334  31.724  14.481
92216W        W63832  37.330   4.265  13.384
92217W        W63833  34.100  39.997   3.165
92218W        W63834  25.104  24.109  10.775
92219W        W63835  24.932  17.535  10.726
92220W        W63836   5.509  10.360   3.692
92221W        W63837  33.175  29.678  10.679
92222W        W63838  17.486   2.618  14.279
92223W        W63839  21.233  41.438  13.268
92224W        W63840   0.352  10.347   4.982
92225W        W63841  25.943   0.892   3.693
92226W        W63842  37.381  43.388   2.461
92227W        W63843  21.983   4.643  14.213
92228W        W63844  32.046   9.238   0.384
92229W        W63845  12.443  29.202  11.547
92230W        W63846  12.085  25.016  14.552
92231W        W63847   7.651  22.490  11.233
92232W        W63848   7.660  11.240  13.351
92233W        W63849   1.973  37.534   1.930
92234W        W63850  10.646  35.080   3.712
92235W        W63851   5.321  10.353  10.683
92236W        W63852  22.443  14.790  11.943
92237W        W63853  40.270  22.470   2.753
92238W        W63854   6.041  15.838   0.488
92239W        W63855  23.472   7.731   0.800
92240W        W63856   3.751  28.496  14.974
92241W        W63857   1.202  25.441  14.052
92242W        W63858  44.979  44.345  12.071
92243W        W63859   2.379   7.630  14.822
92244W        W63860  12.529  40.029   1.852
92245W        W63861  43.963  39.744  10.596
92246W        W63862  13.646  26.389  12.469
92247W        W63863  17.107  17.677   2.045
92248W        W63864   0.485  27.124  14.654
92249W        W63865  22.754  35.904   2.773
92250W        W63866  10.821   6.256  14.808
92251W        W63867  24.846  30.229  11.925
92252W        W63868  23.144  10.854  10.834
92253W        W63869  12.088  41.845  13.717
92254W        W63870  14.886  16.131   3.248
92255W        W63871  10.883  28.380  12.980
92256W        W63872  41.866   7.912   4.517
92257W        W63873  21.082  43.379  13.035
92258W        W63874   4.999  12.936  14.326
92259W        W63875  39.031  17.819   2.637
92260W        W63876  11.299  12.502   3.433
92261W        W63877  15.499  27.719  13.379
92262W        W63878  34.909  24.898  14.919
92263W        W63879  13.429  44.475   3.267
92264W        W63880  36.528  16.374   4.172
92265W        W63881  13.901  35.879  14.616
92266W        W63882  27.223  31.380  11.987
92267W        W63883  38.386   4.843  14.271
92268W        W63884  37.429  44.521  10.696
92269W        W63885  39.124   4.754   0.964
92270W        W63886  20.653   4.346   0.383
92271W        W63887   2.770  15.414  14.278
92272W        W63888  31.224  30.420   4.113
92273W        W63889  16.104  43.019  13.166
92274W        W63890   2.340  36.198   3.117
92275W        W63891   0.392  22.613  11.401
92276W        W63892  41.844  20.202  14.970
92277W        W63893  39.346  37.344   4.770
92278W        W63894  43.798   3.127  14.593
92279W        W63895  13.702  28.960   2.745
92280W        W63896   9.478  25.104  14.921
92281W        W63897  30.340  42.118  13.259
92282W        W63898  33.087   8.758   4.833
92283W        W63899   6.480  29.742  14.361
92284W        W63900  19.187  38.491   0.208
92285W        W63901  29.645   6.405  11.042
92286W        W63902  44.403  11.657   1.375
92287W        W63903   6.870   0.419  10.760
92288W        W63904  28.228  14.867  13.624
92289W        W63905  34.878   1.094  11.180
92290W        W63906  21.578  19.621   0.330
92291W        W63907  13.359  21.193   0.061
92292W        W63908  20.204  26.249   1.842
92293W        W63909  14.189  18.547   0.844
92294W        W63910  32.490  26.669   3.289
92295W        W63911   5.959  16.600   1.246
92296W        W63912   9.678  28.392  11.334
92297W        W63913   0.976   5.255   4.748
92298W        W63914  25.152  34.578  11.097
92299W        W63915  20.519   7.741  12.488
92300W        W63916  29.145  40.424   4.403
92301W        W63917  23.728   5.756  10.999
92302W        W63918  35.200   6.683  12.256
92303W        W63919  22.597  27.111   2.873
92304W        W63920  40.835  43.349  10.358
92305W        W63921  43.575  21.685   0.452
92306W        W63922   3.647  43.618  14.426
92307W        W63923  24.715   9.757   2.453
92308W        W63924  14.189  18.660   3.130
92309W        W63925  22.577  44.328  14.614
92310W        W63926  37.885  44.572   2.488
92311W        W63927  22.529  27.826   0.677
92312W        W63928  10.668  28.591   2.704
92313W        W63929  27.022   6.450   4.903
92314W        W63930  21.549  22.707  11.690
92315W        W63931  21.490  34.052  12.530
92316W        W63932  42.332  36.791  12.466
92317W        W63933   6.716  40.436  13.447
92318W        W63934  38.810  15.823   4.596
92319W        W63935  42.313  38.287   3.386
92320W        W63936  36.892   6.586   1.148
92321W        W63937  32.756  23.933   0.741
92322W        W63938  11.693  29.622   4.683
92323W        W63939   8.668  16.833   0.841
92324W        W63940  33.988  31.418   2.804
92325W        W63941  26.460  10.597  14.488
92326W        W63942   2.015  19.686   3.710
92327W        W63943  14.829  26.505  13.229
92328W        W63944   2.736  15.620  10.733
92329W        W63945  25.984   3.300  13.266
92330W        W63946  22.641   8.555  13.369
92331W        W63947  25.144   1.416  11.332
92332W        W63948  33.175  34.300   2.461
92333W        W63949  33.042  20.716   2.239
92334W        W63950   7.601  13.351  14.558
92335W        W63951  12.272  38.914   0.201
92336W        W63952  37.000  35.667  13.812
92337W        W63953  33.474   4.164   4.179
92338W        W63954  10.573  29.086  13.337
92339W        W63955  44.025  38.061  13.831
92340W        W63956  10.656   9.439   0.419
92341W        W63957  14.101  25.239  11.273
92342W        W63958  12.830  32.514   2.265
92343W        W63959   2.980  21.712  10.705
92344W        W63960   0.473  28.734   2.832
92345W        W63961  16.418  34.289   2.904
92346W        W63962  40.350  38.809   1.658
92347W        W63963  18.304  40.018   4.355
92348W        W63964  17.264  37.599  10.563
92349W        W63965  19.204  16.119   4.814
92350W        W63966   8.411   2.808  13.319
92351W        W63967  11.229  22.974  13.980
92352W        W63968  27.475  27.082   4.178
92353W        W63969  39.639   0.919   3.716
92354W        W63970  11.762  39.520   1.962
92355W        W63971  11.716  33.505  10.678
92356W        W63972  27.838   3.234   4.023
92357W        W63973  44.757  15.126  13.037
92358W        W63974   2.272  36.468   1.371
92359W        W63975  28.512  26.950   3.121
92360W        W63976  11.762  40.566  10.476
92361W        W63977  34.632  38.982  13.114
92362W        W63978  19.023   7.250  13.409
92363W        W63979  27.912  44.975   0.246
92364W        W63980  10.431  11.158  12.019
92365W        W63981  13.032  29.775  12.677
92366W        W63982  44.971  25.095   3.591
92367W        W63983  41.944   0.311   2.240
92368W        W63984   9.104  19.083  13.009
92369W        W63985  30.986  13.367  10.840
92370W        W63986   2.751  25.212  10.604
92371W        W63987   8.434  35.845  14.843
92372W        W63988  24.234  31.603   3.218
92373W        W63989  32.313  14.616   2.301
92374W        W63990  18.249  32.111  11.919
92375W        W63991   1.806   8.717  10.605
92376W        W63992  32.384  37.828  13.992
92377W        W63993  15.806  28.961   3.087
92378W        W63994  25.593  42.863   3.627
92379W        W63995   0.779   3.390   4.521
92380W        W63996  27.717  27.122   3.606
92381W        W63997   0.424   6.031   3.213
92382W        W63998   4.451   4.573  14.372
92383W        W63999  18.115  10.146   4.626
92384W        W64000  41.979  23.552   3.903
92385W        W64001  35.353  40.334   1.823
92386W        W64002   7.498  17.244   0.435
92387W        W64003  40.779  24.030  14.939
92388W        W64004  15.385  40.974  14.552
92389W        W64005   1.853  22.244   3.512
92390W        W64006  12.199  18.223  10.983
92391W        W64007   6.220  37.773   2.297
92392W        W64008   2.283  36.807   0.804
92393W        W64009  42.304  25.276  14.527
92394W        W64010  15.703  32.700   2.416
92395W        W64011   6.736  27.187   4.044
92396W        W64012  43.682  28.905  14.462
92397W        W64013   3.083   0.827   4.552
92398W        W64014  20.630  43.838  11.239
92399W        W64015  15.810   1.368  13.442
92400W        W64016  40.003  13.459  11.892
92401W        W64017  37.839  40.011   0.387
92402W        W64018  39.650   4.213  13.499
92403W        W64019  25.161  36.865  13.376
92404W        W64020  10.376  27.469   2.619
92405W        W64021  20.258  44.472  11.336
92406W        W64022  24.297  13.407   0.297
92407W        W64023  14.225   9.425   1.616
92408W        W64024   9.365  17.233   3.175
92409W        W64025  35.561   7.820   4.593
92410W        W64026  10.844  44.754   2.794
92411W        W64027  33.622   9.045  13.561
92412W        W64028  35.179  39.941   4.096
92413W        W64029  17.725  43.791   4.998
92414W        W64030  13.458  15.429  14.646
92415W        W64031  25.613  34.873  12.405
92416W        W64032  35.076  36.462   4.355
92417W        W64033  22.777  42.495  14.446
92418W        W64034  17.400  23.399   0.489
92419W        W64035  41.168  34.460   0.288
92420W        W64036  38.637  21.481   2.264
92421W        W64037  14.124  30.579   4.752
92422W        W64038  30.361  13.367  11.556
92423W        W64039  42.317  40.931   0.108
92424W        W64040  41.986  14.576   1.006
92425W        W64041  37.595  32.621  13.835
92426W        W64042   8.694  42.290   3.280
92427W        W64043  14.433  29.065  11.450
92428W        W64044  15.819  40.461  13.954
92429W        W64045  35.412  25.698   0.893
92430W        W64046  35.180  20.513   2.785
92431W        W64047  12.334  17.138   3.343
92432W        W64048  36.666  16.036   0.896
92433W        W64049  11.239  42.279   0.447
92434W        W64050   8.838   4.641   0.190
92435W        W64051  40.423   7.234  12.547
92436W        W64052  36.983  34.863   0.405
92437W        W64053  20.873   8.753   4.643
92438W        W64054   9.275  14.833  11.125
92439W        W64055   4.219  12.665   0.367
92440W        W64056   1.324  28.128  11.920
92441W        W64057  38.899  28.687   1.308
92442W        W64058   6.248  40.455  13.625
92443W        W64059   0.738   6.692  12.427
92444W        W64060  22.996  32.313   0.018
92445W        W64061  13.517  32.073   0.819
92446W        W64062  39.032   5.840  11.685
92447W        W64063  31.129  41.010  14.358
92448W        W64064  19.306  39.408   0.493
92449W        W64065  18.286  39.509   0.385
92450W        W64066  31.106  31.347  14.544
92451W        W64067   0.447  27.665   4.228
92452W        W64068  25.974  20.071   1.279
92453W        W64069  32.414  17.037   4.092
92454W        W64070  39.576  43.447   1.410
92455W        W64071  39.364  20.770  11.188
92456W        W64072  29.405  22.702  10.199
92457W        W64073  22.592  19.163  13.115
92458W        W64074  15.773   7.083  11.660
92459W        W64075   1.778  41.418  14.293
92460W        W64076  12.263  10.130  12.494
92461W        W64077  15.280  44.505   2.199
92462W        W64078   4.229  19.776   1.493
92463W        W64079   0.202  41.521   3.722
92464W        W64080  33.182  32.961   3.142
92465W        W64081  22.345  36.787  13.419
92466W        W64082  38.513   2.715   2.219
92467W        W64083  26.384  28.645  12.599
92468W        W64084  35.510  35.152   3.761
92469W        W64085  20.077  43.905  12.500
92470W        W64086  23.015   1.509   1.678
92471W        W64087  39.466  23.534   3.711
92472W        W64088  38.944   3.442   2.366
92473W        W64089  37.239  12.824  11.654
92474W        W64090  32.277  27.151   4.551
92475W        W64091  23.330  10.824  14.884
92476W        W64092  37.353  13.429  14.396
92477W        W64093   8.566  13.651  13.526
92478W        W64094   6.457   5.779  14.780
92479W        W64095  18.671  24.655  11.871
92480W        W64096  32.865  25.150   3.776
92481W        W64097   2.799  29.882   1.195
92482W        W64098   8.091   9.248  11.412
92483W        W64099  20.672   2.254  10.792
92484W        W64100  14.724  38.483   1.923
92485W        W64101  41.211  39.311   4.069
92486W        W64102  38.923   6.087  10.334
92487W        W64103  43.437  31.712   2.091
92488W        W64104  39.330  18.248  14.704
92489W        W64105  44.315  21.262   4.187
92490W        W64106  30.888  35.972   2.741
92491W        W64107  20.123  20.613   4.190
92492W        W64108  31.080  34.796  11.153
92493W        W64109  37.734  24.685  11.138
92494W        W64110   5.908  41.933   4.202
92495W        W64111  15.210   5.927   5.398
92496W        W64112  33.593  30.540   1.134
92497W        W64113   9.464  23.103   0.804
92498W        W64114   0.834   7.827  14.335
92499W        W64115  23.619  40.920   0.312
92500W        W64116   3.307  28.102  12.818
92501W        W64117   7.968  21.131   2.813
92502W        W64118  30.243  12.883  13.898
92503W        W64119  30.970  10.682   0.276
92504W        W64120  31.170   8.583   1.866
92505W        W64121  40.782  35.420   2.872
92506W        W64122  39.092  18.677   0.191
92507W        W64123  38.131  37.417  12.413
92508W        W64124  21.420   6.197  11.409
92509W        W64125   8.692  22.504   2.409
92510W        W64126  20.399  37.919   1.378
92511W        W64127  38.832  29.689   0.388
92512W        W64128  35.304   5.718  13.939
92513W        W64129  10.494  40.045  11.161
92514W        W64130  19.219  17.294  14.931
92515W        W64131  16.801  41.839   0.413
92516W        W64132  15.315  28.146  11.683
92517W        W64133   0.260  24.397  10.550
92518W        W64134  39.523   4.388   2.340
92519W        W64135   6.615  23.586   4.121
92520W        W64136  11.316   2.532  11.456
92521W        W64137  14.800  35.751  10.674
92522W        W64138  44.334  36.324  14.575
92523W        W64139  39.754   5.486  10.565
92524W        W64140   4.859  41.991  14.859
92525W        W64141  15.856   3.405  14.730
92526W        W64142  15.518  30.086  11.111
92527W        W64143  30.256   0.293   3.285
92528W        W64144  11.553  29.401  12.466
92529W        W64145  13.318  43.382   2.377
92530W        W64146  41.898  32.858  12.143
92531W        W64147  30.575  18.836   4.044
92532W        W64148   3.382  23.865  10.985
92533W        W64149   1.170  24.629  13.537
92534W        W64150  18.936  20.993   2.315
92535W        W64151   0.591  35.866   0.922
92536W        W64152   7.685  11.808  11.651
92537W        W64153   0.448  25.022   2.195
92538W        W64154   7.596  44.318   1.912
92539W        W64155  14.556  41.259   2.900
92540W        W64156  27.244  36.632  10.793
92541W        W64157  15.513  21.981  12.043
92542W        W64158   7.663   8.869   2.194
92543W        W64159  28.581  43.668  13.880
92544W        W64160  36.958  42.386  12.918
92545W        W64161  27.999   7.866   3.023
92546W        W64162   3.683  14.229  11.474
92547W        W64163   7.647   9.664   2.905
92548W        W64164   2.858  36.778  12.517
92549W        W64165  22.602  41.041  14.552
92550W        W64166   8.878  35.729   2.882
92551W        W64167  15.062   5.859  12.696
92552W        W64168  17.227  14.318  11.667
92553W        W64169  30.964  23.120  14.927
92554W        W64170   7.595  17.776   4.302
92555W        W64171  19.252  12.010   2.096
92556W        W64172  18.155   4.220   3.150
92557W        W64173  39.142  44.418  14.363
92558W        W64174  16.113  28.567   3.180
92559W        W64175   7.980  26.234  12.596
92560W        W64176  27.894  38.071   2.437
92561W        W64177  36.424  26.550   3.718
92562W        W64178  29.076  12.336  13.006
92563W        W64179  17.160  14.705  14.715
92564W        W64180  41.752  36.896  14.706
92565W        W64181  23.179  13.474   4.484
92566W        W64182  21.629  38.967  12.895
92567W        W64183  20.669  33.658  10.642
92568W        W64184   3.268   0.321   5.125
92569W        W64185   3.393  16.019  11.142
92570W        W64186  12.855  44.703   0.836
92571W        W64187  29.981  39.917  11.044
92572W        W64188   6.948  29.878   1.970
92573W        W64189  40.857  35.127   0.790
92574W        W64190  22.992  44.679   3.920
92575W        W64191  33.769  13.626   3.471
92576W        W64192  17.140  18.481   3.174
92577W        W64193   4.308  42.509  14.233
92578W        W64194   2.584   6.433  14.319
92579W        W64195  24.208   8.433   2.276
92580W        W64196  24.179  26.130  13.904
92581W        W64197  22.755  32.391  14.075
92582W        W64198  29.141  25.117  14.066
92583W        W64199  12.273  34.153   0.846
92584W        W64200  30.056  15.266  13.665
92585W        W64201  12.905   2.724  12.999
92586W        W64202  18.263  39.845  13.279
92587W        W64203  37.031  29.175   1.298
92588W        W64204  39.537   1.724  13.321
92589W        W64205   1.796  41.949   3.142
92590W        W64206   9.124  28.877   0.923
92591W        W64207  13.998  25.954  13.880
92592W        W64208   5.214  20.628  11.640
92593W        W64209  37.875  43.525   2.292
92594W        W64210  38.540  16.184   1.540
92595W        W64211   0.234  17.744  11.881
92596W        W64212  16.277  37.739   0.720
92597W        W64213  23.198  34.441  12.197
92598W        W64214  44.806  19.687  13.915
92599W        W64215  34.582  19.951   2.126
92600W        W64216  42.293   7.184   0.002
92601W        W64217   1.510   0.437  12.134
92602W        W64218   4.379  23.991   1.186
92603W        W64219  11.441  19.741   3.810
92604W        W64220  22.087  37.307  14.026
92605W        W64221  34.125  40.547   2.280
92606W        W64222   6.953  21.058   0.947
92607W        W64223  10.304  18.191   0.397
92608W        W64224  22.007  11.132   3.109
92609W        W64225  16.669  29.924   4.639
92610W        W64226  40.350  19.934  13.607
92611W        W64227  11.251   8.766  12.809
92612W        W64228  40.821   8.317   3.049
92613W        W64229  26.509  42.625   3.325
92614W        W64230   9.824  41.782   4.075
92615W        W64231  17.051  41.577   1.661
92616W        W64232  30.082   0.549  10.711
92617W        W64233   6.812  25.542   0.292
92618W        W64234  38.117  39.549   1.412
92619W        W64235  24.278  34.926  14.941
92620W        W64236  26.688  26.760  13.442
92621W        W64237  38.785  34.072   2.520
92622W        W64238  15.377  13.122   0.526
92623W        W64239  23.458  12.189   3.827
92624W        W64240   9.687  19.161   1.247
92625W        W64241   3.367  27.603  12.925
92626W        W64242  36.698  43.313  11.533
92627W        W64243  13.393   8.741  12.062
92628W        W64244  43.580  28.902  11.310
92629W        W64245  26.451  39.941   3.623
92630W        W64246   8.298  20.087  13.845
92631W        W64247  22.142   9.530   1.948
92632W        W64248  31.255   1.811  11.331
92633W        W64249   9.282   8.127   3.261
92634W        W64250  25.786  23.916  13.072
92635W        W64251  21.283  17.247   3.633
92636W        W64252   2.056  40.362   2.333
92637W        W64253  37.587  14.058   3.885
92638W        W64254   6.250  13.267  12.833
92639W        W64255  16.486  26.593   4.551
92640W        W64256  18.053  24.665   2.778
92641W        W64257  40.531   9.729   3.165
92642W        W64258   4.342   6.354   4.280
92643W        W64259  22.086  27.345   4.114
92644W        W64260  35.956  19.212   2.127
92645W        W64261  26.015  35.157  10.636
92646W        W64262  11.737  35.131   5.014
92647W        W64263  10.300   4.267   2.305
92648W        W64264  34.413  25.569   3.518
92649W        W64265  11.649  36.593   3.556
92650W        W64266  18.608  35.610  14.539
92651W        W64267   6.654   1.715   2.453
92652W        W64268   5.755  28.825  14.935
92653W        W64269  21.177  40.085  12.008
92654W        W64270  10.537  14.200  11.049
92655W        W64271  13.863  40.933  11.231
92656W        W64272   5.600   7.348  13.834
92657W        W64273  39.669  32.289   0.277
92658W        W64274  38.794   0.248  13.441
92659W        W64275  15.796  28.063   3.188
92660W        W64276  36.444  42.178   3.300
92661W        W64277  31.091  23.919   2.672
92662W        W64278  23.354  36.957   2.850
92663W        W64279   5.440   3.238  13.337
92664W        W64280   0.228  41.731  14.536
92665W        W64281  44.554  40.105  12.945
92666W        W64282  30.064  37.964   4.876
92667W        W64283  16.580  14.128  12.301
92668W        W64284   1.098   6.688  13.313
92669W        W64285  37.861  44.353  12.513
92670W        W64286  40.957  37.055  12.712
92671W        W64287  30.315  13.688   1.746
92672W        W64288  28.470  41.907   2.375
92673W        W64289  18.579  36.298   0.029
92674W        W64290  21.344  13.688  11.151
92675W        W64291  27.253  19.340   3.955
92676W        W64292  39.721  38.638  11.892
92677W        W64293  10.615  38.256  11.500
92678W        W64294  16.146   8.697  12.252
92679W        W64295   3.757  13.549  14.040
92680W        W64296  21.644  22.701  14.055
92681W        W64297  30.139  26.096   3.110
92682W        W64298  35.109   6.547  14.840
92683W        W64299  42.512  18.077   3.627
92684W        W64300  12.508  36.475  11.931
92685W        W64301  10.984  42.800   3.196
92686W        W64302  42.544  14.145  10.484
92687W        W64303  12.873  39.971   3.811
92688W        W64304  22.718  18.524   0.312
92689W        W64305  23.185   8.715  14.922
92690W        W64306   7.630  25.461   4.529
92691W        W64307   3.880   1.236  13.483
92692W        W64308  12.322  34.911   4.588
92693W        W64309   2.208  26.624   1.004
92694W        W64310  33.865  37.027   3.438
92695W        W64311   1.165  10.709   3.569
92696W        W64312  39.546  42.354  12.024
92697W        W64313  28.002  24.540   1.363
92698W        W64314   7.787   3.772   4.532
92699W        W64315   7.313   6.443  11.733
92700W        W64316   9.836  14.174   0.373
92701W        W64317  12.900   4.475   1.192
92702W        W64318  25.147  12.327   2.618
92703W        W64319  11.050  11.333   0.921
92704W        W64320  41.807  16.222   0.726
92705W        W64321   5.686  41.225   4.358
92706W        W64322   7.436  27.077  10.813
92707W        W64323  43.431  23.597   0.776
92708W        W64324  42.091   1.743  11.229
92709W        W64325  41.093   3.640  14.867
92710W        W64326   8.078  12.173   0.459
92711W        W64327   8.431  18.280   1.754
92712W        W64328  12.602  35.052   1.877
92713W        W64329  14.341  40.852   4.636
92714W        W64330  33.555  23.606  12.006
92715W        W64331  14.386   1.691   0.286
92716W        W64332   3.138  33.984   2.266
92717W        W64333  36.987  11.233  12.119
92718W        W64334   7.662  14.060   0.419
92719W        W64335  39.039  21.679   4.319
92720W        W64336   1.402  24.403  13.956
92721W        W64337  43.939  15.714  11.816
92722W        W64338   0.673   8.778   3.156
92723W        W64339  20.086  18.396   2.777
92724W        W64340  22.989   0.775  10.714
92725W        W64341   6.677   1.358  13.962
92726W        W64342   6.036  12.337  14.475
92727W        W64343  27.313  11.872   1.621
92728W        W64344  12.297  21.738   4.143
92729W        W64345   2.378   4.005   3.254
92730W        W64346  34.840   5.221   2.795
92731W        W64347  17.655  37.874  11.433
92732W        W64348  12.619  23.007  11.048
92733W        W64349  13.641  30.926   4.201
92734W        W64350  33.569  12.097  11.155
92735W        W64351  35.898  12.543   0.081
92736W        W64352  29.660  34.505   0.809
92737W        W64353  41.369  43.481  14.363
92738W        W64354  30.066  22.996   1.556
92739W        W64355  13.339  22.557   2.636
92740W        W64356  43.380  39.324   4.188
92741W        W64357   7.353  18.929  13.345
92742W        W64358   6.386  43.846  11.986
92743W        W64359  24.738   3.974   1.643
92744W        W64360  18.584  34.448  14.753
92745W        W64361   1.886   4.984  14.048
92746W        W64362  39.096  24.115   0.240
92747W        W64363  27.539  21.173   0.460
92748W        W64364  41.511  13.022  14.474
92749W        W64365   6.451  36.423  13.630
92750W        W64366   2.030  20.664   3.791
92751W        W64367  27.252   6.022  10.659
92752W        W64368  41.806   0.864   3.085
92753W        W64369  18.173  24.637  11.891
92754W        W64370  44.496  16.212  14.785
92755W        W64371  20.169  22.273  14.093
92756W        W64372   0.838  18.087   4.535
92757W        W64373  19.689   4.653   4.278
92758W        W64374  38.447  32.442   1.687
92759W        W64375  29.041   7.950  12.932
92760W        W64376  29.742  31.505  12.879
92761W        W64377  19.489  20.996   0.717
92762W        W64378  21.299   9.085   3.933
92763W        W64379  27.372  19.049  13.072
92764W        W64380   3.254  25.422   4.504
92765W        W64381  26.051  30.946  12.440
92766W        W64382  17.819  44.064   9.698
92767W        W64383  19.527   0.029  12.781
92768W        W64384   9.612   4.877   1.266
92769W        W64385   8.836  22.352  13.937
92770W        W64386   2.066   4.378  12.963
92771W        W64387  26.276  37.428   3.678
92772W        W64388  13.959  10.459   3.202
92773W        W64389   2.823   6.855  12.794
92774W        W64390   6.959  17.207  13.832
92775W        W64391  41.878  18.091   4.394
92776W        W64392   8.726   9.148   1.254
92777W        W64393  30.121  12.625   4.448
92778W        W64394  12.870   3.195  14.409
92779W        W64395  42.750  26.224   2.672
92780W        W64396  28.484  36.163   2.887
92781W        W64397  35.404  19.593   4.786
92782W        W64398  37.797  15.819  14.967
92783W        W64399  35.134  40.594  11.166
92784W        W64400  39.854   8.216   4.079
92785W        W64401  10.204  10.307  12.004
92786W        W64402  44.790   5.213   0.991
92787W        W64403  29.745  35.934  11.564
92788W        W64404  12.533   6.726   4.739
92789W        W64405  22.520  16.069   1.862
92790W        W64406   6.824  23.607   0.733
92791W        W64407  18.388   4.394  13.214
92792W        W64408  42.247  23.117  12.309
92793W        W64409  11.762  10.844   0.193
92794W        W64410  38.284   0.745   2.313
92795W        W64411  33.701  27.684   3.677
92796W        W64412  37.388  10.720   0.852
92797W        W64413  35.497  39.417  12.501
92798W        W64414  22.476   9.288  12.571
92799W        W64415  39.486  38.536  13.225
92800W        W64416  14.976  21.596  13.375
92801W        W64417  12.041  21.819  13.477
92802W        W64418  42.475  26.670   2.844
92803W        W64419  17.337   6.802  12.465
92804W        W64420  39.479  40.535  10.797
92805W        W64421  28.990  20.089  10.927
92806W        W64422   2.447  29.910   2.322
92807W        W64423  22.606  32.952   4.322
92808W        W64424  16.040  15.231   4.616
92809W        W64425  42.335  32.629   4.161
92810W        W64426  24.420  23.139   3.644
92811W        W64427   9.215  10.146   0.701
92812W        W64428  16.311  42.290   1.726
92813W        W64429  34.682   1.179  11.663
92814W        W64430   9.005  22.787  12.560
92815W        W64431  10.351   8.809  14.029
92816W        W64432  24.459  21.627  14.840
92817W        W64433  39.501  25.778   3.290
92818W        W64434  26.016  20.714  13.555
92819W        W64435   8.246   5.826   1.776
92820W        W64436  44.005  28.694  11.133
92821W        W64437  31.115  42.792  11.962
92822W        W64438   2.751  26.657   1.804
92823W        W64439  16.069   2.352  13.108
92824W        W64440   9.916  26.223  14.471
92825W        W64441  23.142  14.233   5.043
92826W        W64442  11.684  20.812   0.304
92827W        W64443   8.173  30.910   3.486
92828W        W64444  43.884   5.892  14.052
92829W        W64445  21.052  26.498   4.185
92830W        W64446   7.278   5.989   0.879
92831W        W64447  35.499  37.054   0.003
92832W        W64448  27.150  26.583   0.708
92833W        W64449  42.535  35.312  11.673
92834W        W64450  36.270  44.301  12.852
92835W        W64451   7.890  39.720   3.276
92836W        W64452  15.055  17.275   0.784
92837W        W64453  28.974  38.415   3.187
92838W        W64454  38.089  20.164   2.223
92839W        W64455  35.325  19.701  11.427
92840W        W64456  29.405  42.071   3.290
92841W        W64457  41.176  36.200  13.802
92842W        W64458   1.486  39.969  14.027
92843W        W64459   8.285  25.248   0.461
92844W        W64460  11.767  28.542  14.358
92845W        W64461  21.107  40.303  10.595
92846W        W64462  18.903   8.866   5.059
92847W        W64463  21.519  23.955  12.460
92848W        W64464  14.568   1.809  14.013
92849W        W64465  43.690  41.509   1.330
92850W        W64466  43.957  42.971  14.093
92851W        W64467  18.578  19.818   1.010
92852W        W64468  21.158  21.081  12.881
92853W        W64469  18.213  40.734  11.472
92854W        W64470  35.316  19.502  12.437
92855W        W64471  33.986  42.474  14.657
92856W        W64472  16.250  12.883  13.744
92857W        W64473  24.943  33.631  10.736
92858W        W64474  13.072  21.683   2.718
92859W        W64475  19.986  30.419  13.994
92860W        W64476  25.177  26.009  13.071
92861W        W64477  11.695   0.356   1.954
92862W        W64478   7.937   8.398  10.759
92863W        W64479   1.309  30.864   3.227
92864W        W64480  34.549  28.823   2.243
92865W        W64481  30.221  43.075   2.260
92866W        W64482  42.989  28.519  12.886
92867W        W64483  38.050  28.978  12.681
92868W        W64484  23.116  35.275   3.264
92869W        W64485  12.112   3.237  11.709
92870W        W64486  37.289  32.413   0.763
92871W        W64487   0.277  32.368  10.782
92872W        W64488  30.907  33.657   4.196
92873W        W64489  39.112  40.310  11.062
92874W        W64490  34.428  30.628   1.458
92875W        W64491  31.013  22.304   1.201
92876W        W64492  42.752   8.922  11.707
92877W        W64493  20.747  33.564   3.294
92878W        W64494  18.807  24.404  11.455
92879W        W64495  28.167  36.988  14.287
92880W        W64496  23.255  21.717  14.259
92881W        W64497  31.917  18.399  14.815
92882W        W64498  18.751  13.681  12.031
92883W        W64499  37.095  22.085  11.149
92884W        W64500  25.651  16.015   5.480
92885W        W64501  40.499  12.657  13.807
92886W        W64502  41.427   1.721   3.026
92887W        W64503  42.625  15.851  11.174
92888W        W64504   3.914   4.425   0.134
92889W        W64505  14.098  22.119  13.965
92890W        W64506   1.791  32.858   0.532
92891W        W64507  28.401  29.576  12.529
92892W        W64508   7.030  35.514  13.885
92893W        W64509   7.375  39.067   3.881
92894W        W64510  17.503  10.607  10.466
92895W        W64511   4.181  35.476   1.795
92896W        W64512   2.881  25.361   1.246
92897W        W64513  13.404  11.833  12.973
92898W        W64514  37.155  42.283   1.694
92899W        W64515  27.896  29.192   0.410
92900W        W64516   9.628  39.594  14.450
92901W        W64517   5.165   5.326   0.005
92902W        W64518  43.794  10.055   1.369
92903W        W64519  30.524  33.479  14.901
92904W        W64520  18.617  33.617  11.170
92905W        W64521  13.217  44.266  11.736
92906W        W64522  28.930  15.777  10.571
92907W        W64523  14.531  25.834  13.907
92908W        W64524  10.928  11.310   2.627
92909W        W64525  35.624  33.559   3.203
92910W        W64526  37.040   3.933   2.236
92911W        W64527  14.097  36.641  11.166
92912W        W64528  33.946  40.995  13.825
92913W        W64529  13.482  44.815   2.656
92914W        W64530  39.463  31.608  13.676
92915W        W64531  10.371  35.370  11.947
92916W        W64532  34.057  24.543  11.836
92917W        W64533  43.599  14.318  13.305
92918W        W64534  40.751  42.302   0.924
92919W        W64535  14.280  29.120   2.292
92920W        W64536  21.303  43.615  14.483
92921W        W64537  30.393  29.659   4.967
92922W        W64538  10.136  25.653   1.742
92923W        W64539  16.934   0.818  10.658
92924W        W64540  39.309   8.481  11.186
92925W        W64541  16.239  42.012  13.074
92926W        W64542  18.312  38.906  14.862
92927W        W64543  44.140  19.092  14.275
92928W        W64544   0.338   4.353  10.642
92929W        W64545   6.527  13.182  14.305
92930W        W64546  18.035   9.107   0.469
92931W        W64547  28.112  20.489   4.203
92932W        W64548  23.640   9.207   4.325
92933W        W64549   3.609  23.618  13.789
92934W        W64550  25.551   1.195  11.954
92935W        W64551  21.161  32.697  14.276
92936W        W64552  11.413  18.525  13.931
92937W        W64553   6.401  36.028  14.928
92938W        W64554  43.737  12.496  13.422
92939W        W64555  14.678  36.762   1.261
92940W        W64556   9.805  31.912   2.721
92941W        W64557  35.424   3.405  11.201
92942W        W64558  28.049   1.962   4.572
92943W        W64559   6.376  24.703  11.967
92944W        W64560  19.425   8.132  14.446
92945W        W64561   1.523  22.545  11.905
92946W        W64562  21.208  28.164  11.681
92947W        W64563  29.698  38.203   0.212
92948W        W64564   1.102   4.392   2.324
92949W        W64565  39.457  21.121  10.794
92950W        W64566  12.357   5.712  10.576
92951W        W64567  21.599  25.367   3.631
92952W        W64568   9.163  34.639   4.575
92953W        W64569  32.171  26.607  11.068
92954W        W64570  11.671  16.440   0.043
92955W        W64571  26.496  31.004  13.287
92956W        W64572  33.650  33.464   1.717
92957W        W64573  29.696  10.781  12.391
92958W        W64574  16.092   8.338   1.662
92959W        W64575   2.860   2.992  13.845
92960W        W64576   5.168  25.746  12.396
92961W        W64577   5.754  42.522   2.439
92962W        W64578  23.102  39.234   2.402
92963W        W64579   8.954  13.720   0.557
92964W        W64580  20.554  21.624   0.243
92965W        W64581  28.853   6.556   2.205
92966W        W64582  18.708  20.660  11.318
92967W        W64583   7.264  24.007   4.872
92968W        W64584  22.132  43.378  12.490
92969W        W64585  24.051   1.142   2.615
92970W        W64586   3.894  36.941  13.890
92971W        W64587  21.562  36.890   0.287
92972W        W64588  17.379   5.430  14.829
92973W        W64589  32.243   1.491   3.167
92974W        W64590  26.472  13.168   5.033
92975W        W64591  31.394  26.626  14.011
92976W        W64592   9.902   1.428   3.686
92977W        W64593   3.943  41.408  12.570
92978W        W64594  28.221  13.983  11.405
92979W        W64595  14.746  19.796  12.379
92980W        W64596  40.126  31.758  13.524
92981W        W64597  43.900  13.790  10.652
92982W        W64598  29.070   4.495   3.702
92983W        W64599  43.072  32.749  12.469
92984W        W64600  24.453  23.826  13.442
92985W        W64601   2.912   4.256   4.603
92986W        W64602  29.607  12.758   2.429
92987W        W64603   3.881  21.026  11.128
92988W        W64604  37.799  10.765   3.174
92989W        W64605  23.340  14.476  13.856
92990W        W64606  25.584  25.334  14.056
92991W        W64607  39.982  36.266   2.397
92992W        W64608  39.437  44.367  14.844
92993W        W64609   5.778  15.093  12.524
92994W        W64610   1.524  34.951  12.193
92995W        W64611   3.278  12.467   0.335
92996W        W64612  40.323  18.201  11.135
92997W        W64613   1.947   7.227  10.821
92998W        W64614  10.779  42.548   4.213
92999W        W64615  17.824  27.390   2.730
93000W        W64616  16.205  25.179   4.141
93001W        W64617  32.480  30.188   4.611
93002W        W64618   0.730  31.049  13.015
93003W        W64619   8.972   6.585   0.481
93004W        W64620   7.646  25.740  14.058
93005W        W64621  11.890   5.961  10.388
93006W        W64622  23.449   8.722  13.061
93007W        W64623  31.257  31.394   0.400
93008W        W64624  12.269  23.050   4.551
93009W        W64625  11.165  30.121  13.602
93010W        W64626  28.591  40.948   3.310
93011W        W64627  35.609   9.173   1.361
93012W        W64628  18.511  25.301   4.089
93013W        W64629  25.178  32.010   0.238
93014W        W64630  26.762  32.215  13.735
93015W        W64631  44.974  30.617  14.989
93016W        W64632  36.833  24.247   4.080
93017W        W64633  18.506  36.013   0.458
93018W        W64634   8.900  23.210   3.232
93019W        W64635  13.301  29.754  13.125
93020W        W64636  39.054  30.139   1.394
93021W        W64637  36.085  11.405  14.362
93022W        W64638   1.421  14.594   0.408
93023W        W64639  37.463   1.819  13.732
93024W        W64640  27.217  40.002   2.869
93025W        W64641  42.305  41.025  12.630
93026W        W64642   1.851  10.513  11.286
93027W        W64643   6.345  43.274   1.403
93028W        W64644  21.027  11.616  13.716
93029W        W64645   3.478  10.499  10.760
93030W        W64646  39.081  13.728  12.017
93031W        W64647  10.200  39.941   1.058
93032W        W64648  19.006  13.677  14.301
93033W        W64649  10.150  36.702  12.359
93034W        W64650  39.831  27.203  12.424
93035W        W64651  20.595  41.284   3.798
93036W        W64652   4.431  15.995  13.502
93037W        W64653  27.606  18.844   3.388
93038W        W64654  12.412  20.208   0.286
93039W        W64655  12.834  28.649  10.835
93040W        W64656  17.576   7.708   2.638
93041W        W64657  17.307  30.156  14.397
93042W        W64658  43.713  43.566   1.938
93043W        W64659  44.136  39.453  11.204
93044W        W64660   4.909  19.984  13.825
93045W        W64661  19.955  37.388   3.792
93046W        W64662  10.211  22.800  11.141
93047W        W64663  27.786   7.868  13.518
93048W        W64664  20.652  31.980   3.241
93049W        W64665  23.931  21.197   0.340
93050W        W64666  40.391  27.070   2.658
93051W        W64667   0.989   9.280   2.330
93052W        W64668  33.455  44.326   3.744
93053W        W64669   0.415  20.188   2.765
93054W        W64670  36.797  18.621  13.842
93055W        W64671  38.430  33.582   4.603
93056W        W64672   6.268  17.148   1.779
93057W        W64673  35.154  43.115  10.506
93058W        W64674  19.745   7.552   2.227
93059W        W64675  26.349  11.041   1.372
93060W        W64676  20.810  15.340   0.275
93061W        W64677   8.333   5.621   3.209
93062W        W64678  15.378  30.523   1.751
93063W        W64679  22.821  29.097  13.296
93064W        W64680   0.779  11.201   2.373
93065W        W64681  20.209   8.984   0.162
93066W        W64682  25.498  32.761  10.849
93067W        W64683  26.896  36.289   2.758
93068W        W64684  23.505  14.158  10.673
93069W        W64685  11.910  42.003   4.591
93070W        W64686  25.512  39.792  12.029
93071W        W64687  11.124   4.182   1.811
93072W        W64688  43.403  21.763  11.918
93073W        W64689  40.224  31.508   0.210
93074W        W64690   6.483  25.134   1.730
93075W        W64691  16.135   9.446  14.283
93076W        W64692  15.756  44.705   2.119
93077W        W64693  33.341  21.603   0.898
93078W        W64694  10.673  11.055  14.315
93079W        W64695   9.337  35.579   4.640
93080W        W64696  40.366  18.648   1.845
93081W        W64697   2.694  44.533  12.578
93082W        W64698  34.291  30.489   4.928
93083W        W64699  41.022  10.892   1.975
93084W        W64700   8.402  10.324  12.827
93085W        W64701  13.275   3.916   1.955
93086W        W64702   4.203  17.819   0.431
93087W        W64703   2.206  20.821  13.493
93088W        W64704  19.611  31.031   2.169
93089W        W64705  29.441  35.864  14.243
93090W        W64706  23.469  42.886   2.789
93091W        W64707   4.913  43.061  10.013
93092W        W64708  36.596  15.248   0.422
93093W        W64709  27.647  34.144  13.514
93094W        W64710  38.480  19.749  10.723
93095W        W64711   2.384  10.773  12.514
93096W        W64712  26.988  42.041   2.185
93097W        W64713  23.081   2.771  12.576
93098W        W64714  40.418  38.408   4.624
93099W        W64715  17.837  38.745  14.974
93100W        W64716  21.741  37.923  13.013
93101W        W64717  21.662  19.293   1.936
93102W        W64718  17.344  17.263  13.475
93103W        W64719  26.870  20.797  13.381
93104W        W64720  23.288   0.414   0.783
93105W        W64721  43.290  32.635   1.461
93106W        W64722  12.725  31.416   1.793
93107W        W64723  21.851  27.786   4.120
93108W        W64724   7.642   4.087  14.944
93109W        W64725  21.021  28.125   4.163
93110W        W64726  30.166  15.341   0.361
93111W        W64727   6.202  30.271  13.175
93112W        W64728  20.857  18.207   3.185
93113W        W64729  22.040  21.698   1.785
93114W        W64730   9.333  41.886  10.681
93115W        W64731  24.242  34.384   2.803
93116W        W64732   6.317   9.469   3.992
93117W        W64733  37.830  26.615  13.461
93118W        W64734  33.525  34.175   4.973
93119W        W64735  11.997  37.164  11.359
93120W        W64736  15.753  41.090   3.063
93121W        W64737  11.274  41.424   1.936
93122W        W64738  32.460  39.048   3.201
93123W        W64739   1.822  40.278   3.818
93124W        W64740  20.708  28.591   1.786
93125W        W64741  29.924  37.087  14.812
93126W        W64742   3.275  32.851   4.316
93127W        W64743   8.762   0.990   0.397
93128W        W64744   5.680  31.400   3.893
93129W        W64745  17.759   4.226  11.553
93130W        W64746  41.410  12.834  13.347
93131W        W64747  30.973  20.533  13.893
93132W        W64748   6.947   9.817   4.754
93133W        W64749  14.181  37.589   3.616
93134W        W64750  38.857  39.320   4.213
93135W        W64751  27.990  38.056  12.603
93136W        W64752  20.098  15.596  10.192
93137W        W64753  31.422  19.713   3.712
93138W        W64754  13.027   9.119   1.415
93139W        W64755   5.839   4.838  11.088
93140W        W64756  25.402   0.849   2.815
93141W        W64757  44.286  32.415  14.099
93142W        W64758  43.463  34.871   4.466
93143W        W64759   8.681  10.299  14.898
93144W        W64760   3.914  26.046  14.407
93145W        W64761  29.502   0.970   1.799
93146W        W64762  44.762  35.933   1.826
93147W        W64763  20.524  14.666   1.775
93148W        W64764  21.267  36.293  13.267
93149W        W64765   1.205   2.427  14.489
93150W        W64766  34.918   2.332   1.000
93151W        W64767  25.475  33.575   0.198
93152W        W64768  33.489  44.563  10.813
93153W        W64769   7.406   3.369  11.115
93154W        W64770  18.986   8.160   4.127
93155W        W64771   2.260  29.025   3.162
93156W        W64772  16.682   9.830  13.380
93157W        W64773  31.331  31.066   1.791
93158W        W64774   9.275  24.283  10.677
93159W        W64775   2.315   1.372   1.714
93160W        W64776  27.090  34.872  14.084
93161W        W64777  20.230   5.382   4.616
93162W        W64778  32.988  10.405   4.998
93163W        W64779  35.531   7.880  13.474
93164W        W64780   2.705  26.671  11.528
93165W        W64781  12.925  11.560   4.461
93166W        W64782  12.725   0.361   1.189
93167W        W64783  13.193  20.732   4.413
93168W        W64784  29.889  35.619  14.276
93169W        W64785  38.385  17.121   3.637
93170W        W64786  17.247   2.040   3.718
93171W        W64787  23.209   4.347  12.301
93172W        W64788  23.097  42.296   3.157
93173W        W64789  23.029  38.572  14.916
93174W        W64790  35.477   4.676   3.154
93175W        W64791  20.715   4.779   0.048
93176W        W64792  13.793  10.406  13.914
93177W        W64793   7.926   5.383  13.081
93178W        W64794  17.515  42.545   2.895
93179W        W64795  41.030   0.432  11.570
93180W        W64796  33.541  27.622  14.874
93181W        W64797  23.496  44.013   0.083
93182W        W64798   8.150  25.591  12.849
93183W        W64799  13.205  14.911   3.149
93184W        W64800  42.017  22.569   3.348
93185W        W64801  27.933  24.531  12.519
93186W        W64802  18.095  13.359   0.437
93187W        W64803  27.739  19.561  11.968
93188W        W64804  13.239  35.406  11.445
93189W        W64805  26.985  21.224  13.941
93190W        W64806  10.384   9.686  11.605
93191W        W64807  38.074  10.351   9.705
93192W        W64808  44.985  21.080  12.690
93193W        W64809  43.537  20.253  12.786
93194W        W64810  20.541  10.653   2.684
93195W        W64811   3.238  16.228   0.225
93196W        W64812  35.515  19.550  10.565
93197W        W64813  16.514  25.550  13.948
93198W        W64814  34.537  31.520   0.174
93199W        W64815   5.864  24.181  13.512
93200W        W64816  39.347  16.563   1.844
93201W        W64817  38.797   9.336  12.591
93202W        W64818  31.496   0.814   4.631
93203W        W64819  20.263  39.559  14.107
93204W        W64820  14.720   3.823   3.191
93205W        W64821  33.490  30.159  11.944
93206W        W64822   1.124  43.001   3.927
93207W        W64823  16.022  32.853   1.862
93208W        W64824  19.654  17.400  14.544
93209W        W64825  39.288  38.041   0.875
93210W        W64826  18.372  20.522  12.508
93211W        W64827   9.567   2.890  14.910
93212W        W64828  43.503   3.752  10.486
93213W        W64829   5.902  41.816  14.385
93214W        W64830  42.861   7.303  11.061
93215W        W64831  33.768  22.743  10.305
93216W        W64832  37.828  29.809  12.985
93217W        W64833  27.062   4.579  12.105
93218W        W64834  16.753   4.908   0.175
93219W        W64835  37.288  20.334   0.019
93220W        W64836  34.883  35.093  11.115
93221W        W64837  18.282  14.263   0.164
93222W        W64838   5.532   9.508  13.245
93223W        W64839  17.677  11.114   2.120
93224W        W64840  20.221  22.955   3.412
93225W        W64841  15.005  39.282  12.928
93226W        W64842  21.139   3.094  13.770
93227W        W64843  40.957  37.858  13.251
93228W        W64844   3.229   8.881   3.650
93229W        W64845  39.640   2.968  12.902
93230W        W64846  42.779  39.352   3.007
93231W        W64847  34.125  18.281  12.829
93232W        W64848  44.281  15.640   4.077
93233W        W64849  20.207  15.497  13.615
93234W        W64850  31.707  23.099  10.953
93235W        W64851  15.660  43.856  14.460
93236W        W64852  40.826  26.221   2.384
93237W        W64853  16.661  14.913  11.925
93238W        W64854  30.283  15.686   3.169
93239W        W64855  14.666  22.798   5.223
93240W        W64856  30.090  24.393  14.823
93241W        W64857  32.870  41.931  14.197
93242W        W64858   3.814  30.409  13.253
93243W        W64859  33.406  16.983   3.673
93244W        W64860  25.958  43.871  14.491
93245W        W64861  18.565   2.321  11.551
93246W        W64862   1.142   0.521  14.549
93247W        W64863  12.713  44.207  11.841
93248W        W64864  35.113  22.097   3.673
93249W        W64865  25.549  27.283  10.366
93250W        W64866  40.616  25.261  13.742
93251W        W64867  13.324  35.473  12.836
93252W        W64868  10.801   8.382  13.479
93253W        W64869  32.014  31.856   3.736
93254W        W64870  16.461  36.672   0.792
93255W        W64871  18.539  33.498   1.903
93256W        W64872   0.540  15.624   1.500
93257W        W64873   3.984  15.733   4.603
93258W        W64874  12.043  39.251   2.331
93259W        W64875   4.747   9.654  14.844
93260W        W64876  15.006   9.888   0.262
93261W        W64877  41.674  29.254  10.714
93262W        W64878  26.143  43.464   4.659
93263W        W64879  38.302  18.052  11.707
93264W        W64880  40.955  44.297   4.579
93265W        W64881  14.252  21.258   4.723
93266W        W64882   8.133  40.369   1.641
93267W        W64883  43.866  39.484  11.652
93268W        W64884  30.495  28.977   1.178
93269W        W64885  21.534  38.405   4.548
93270W        W64886  16.515   8.440   0.434
93271W        W64887   6.363  10.915   1.374
93272W        W64888  17.731  35.373   4.987
93273W        W64889   1.612  20.494   0.381
93274W        W64890  27.484  25.981  12.384
93275W        W64891  35.182  16.810   0.792
93276W        W64892   4.725  11.423  14.400
93277W        W64893  10.067   0.511   0.316
93278W        W64894  22.286  38.850  14.377
93279W        W64895  29.883  42.892   4.143
93280W        W64896  23.046  27.672  11.555
93281W        W64897   4.853  17.562   4.549
93282W        W64898  10.927  34.714  13.423
93283W        W64899  43.263  18.750   3.239
93284W        W64900   2.319  34.611   3.227
93285W        W64901  25.461   6.779   2.266
93286W        W64902  30.118  20.457  13.925
93287W        W64903  31.279  43.407  13.690
93288W        W64904   1.936  31.469  13.876
93289W        W64905  12.710  32.648   3.196
93290W        W64906  40.873   7.327  11.040
93291W        W64907  12.225  19.543  11.850
93292W        W64908  12.366  17.656  12.548
93293W        W64909  10.852   1.897  12.099
93294W        W64910   6.148   5.864   1.380
93295W        W64911  33.376  14.147  11.675
93296W        W64912  40.035  43.567   1.726
93297W        W64913  15.012  34.155  14.515
93298W        W64914  11.965   1.289  11.575
93299W        W64915  19.299  40.419  12.390
93300W        W64916   8.740  11.194  14.315
93301W        W64917  30.663  43.770  13.076
93302W        W64918  22.487  23.508   0.240
93303W        W64919  23.136   4.934   1.976
93304W        W64920  38.166   4.094   4.093
93305W        W64921  18.880  17.717  10.955
93306W        W64922  39.999  20.465   2.479
93307W        W64923   0.620  42.976   0.820
93308W        W64924   6.663   8.010   4.320
93309W        W64925  12.646   7.661   2.011
93310W        W64926   1.382   5.826   1.963
93311W        W64927  43.268  44.007  13.451
93312W        W64928  19.786  13.289  14.117
93313W        W64929   8.831   2.481   2.193
93314W        W64930  11.148  20.485  13.327
93315W        W64931  44.451  44.519  12.095
93316W        W64932  11.611  13.800  14.301
93317W        W64933  19.217   9.904  10.642
93318W        W64934  15.211  37.950  14.399
93319W        W64935  33.025   5.743  13.304
93320W        W64936  44.952  17.307  11.878
93321W        W64937   5.248  14.484  11.997
93322W        W64938  33.040   4.029  12.896
93323W        W64939  32.662  15.905  13.761
93324W        W64940  31.497  24.105   4.442
93325W        W64941  40.899  38.588  11.536
93326W        W64942  24.649  31.524  11.800
93327W        W64943  38.134  33.681  12.477
93328W        W64944  43.406  37.735  10.346
93329W        W64945  19.142  22.551  11.267
93330W        W64946  12.780   5.945  12.868
93331W        W64947  12.938  11.507   5.022
93332W        W64948   9.855  39.121   1.347
93333W        W64949  22.298  29.145  11.553
93334W        W64950  30.077   3.706  14.287
93335W        W64951  32.917  42.788  13.570
93336W        W64952  40.412   7.694   2.203
93337W        W64953  38.515  11.563   2.812
93338W        W64954  15.846   8.636   3.350
93339W        W64955  38.622  20.512   0.089
93340W        W64956  20.574  42.043   1.515
93341W        W64957   8.946  27.506   2.307
93342W        W64958  19.564  34.493  12.402
93343W        W64959  35.075  33.579   0.928
93344W        W64960  44.251  38.792   4.608
93345W        W64961  31.675  15.859   0.878
93346W        W64962  17.790  17.352   0.566
93347W        W64963  18.231  21.061  13.406
93348W        W64964  28.020   1.184  13.291
93349W        W64965   7.433  21.738   2.317
93350W        W64966  18.228  11.698  12.534
93351W        W64967  32.876  34.803   2.729
93352W        W64968   1.515  42.412   3.175
93353W        W64969  25.658   0.733   4.678
93354W        W64970  18.735  23.539  10.074
93355W        W64971  44.600   6.441  12.858
93356W        W64972   2.363  11.663   2.803
93357W        W64973   4.606  36.795  12.989
93358W        W64974  34.969  40.945   0.431
93359W        W64975  39.961  12.720   0.895
93360W        W64976  32.286  25.189  11.067
93361W        W64977  40.411   4.964  14.475
93362W        W64978  43.654  34.573  12.207
93363W        W64979  41.939  31.554   2.258
93364W        W64980  18.745  21.159   1.838
93365W        W64981  23.105  40.650  12.873
93366W        W64982  31.600  44.223   1.323
93367W        W64983  29.812  15.237  12.703
93368W        W64984  39.514  16.618   4.567
93369W        W64985  43.498  14.626   2.681
93370W        W64986   2.609   4.490   3.310
93371W        W64987  10.918  44.490   3.235
93372W        W64988   5.265  35.087   3.208
93373W        W64989   8.889  41.255  12.951
93374W        W64990  38.903  28.923   3.597
93375W        W64991  11.862   1.920   4.206
93376W        W64992  12.598  44.587   4.199
93377W        W64993   5.899  28.419   1.919
93378W        W64994  37.579  12.739   1.831
93379W        W64995   5.174  26.717  12.781
93380W        W64996  40.467  37.783   1.337
93381W        W64997  32.927  30.976   4.742
93382W        W64998  38.027  12.527   1.949
93383W        W64999  30.177   6.004  10.788
93384W        W65000  17.747   5.737   1.287
93385W        W65001   3.576  24.108   1.430
93386W        W65002  17.198  12.070   0.859
93387W        W65003  19.528  34.566  14.324
93388W        W65004  31.607  30.633   1.871
93389W        W65005  27.647  36.922   0.029
93390W        W65006  41.812   5.245   2.497
93391W        W65007  30.851  36.018   1.820
93392W        W65008   3.471  28.284   0.449
93393W        W65009  29.912  17.600  11.095
93394W        W65010  34.870   6.335  12.446
93395W        W65011  20.575  26.904  10.862
93396W        W65012  32.033  25.685  11.725
93397W        W65013  21.003  16.591   1.182
93398W        W65014   6.629  20.534  13.369
93399W        W65015  42.351  27.489   0.017
93400W        W65016   7.945  23.339   1.784
93401W        W65017  38.314  23.210   3.302
93402W        W65018  23.567  37.335  11.151
93403W        W65019  38.972  44.972   1.241
93404W        W65020  40.852  13.405  11.592
93405W        W65021  24.756  10.429  11.489
93406W        W65022  19.752  23.505   4.042
93407W        W65023  39.034   2.201  12.066
93408W        W65024  22.996  28.494   3.689
93409W        W65025   9.252  37.470  13.249
93410W        W65026   0.269   4.816  12.411
93411W        W65027  22.613  18.167   0.869
93412W        W65028  32.391   4.380  12.799
93413W        W65029  14.285  29.974   1.133
93414W        W65030  37.937  31.663  14.422
93415W        W65031  20.555   7.960   1.231
93416W        W65032  27.526  39.995  14.315
93417W        W65033  30.830  14.561   2.339
93418W        W65034   7.212  11.363  14.029
93419W        W65035  25.932  30.494   3.312
93420W        W65036  35.182  18.812   0.936
93421W        W65037  43.779  31.612  13.161
93422W        W65038  31.116   6.882  12.868
93423W        W65039  32.780  33.240  11.124
93424W        W65040  18.230  25.519  10.672
93425W        W65041  44.906   9.471  14.719
93426W        W65042   6.926  33.776  10.654
93427W        W65043  30.561  17.144  10.734
93428W        W65044  39.568  13.078  12.417
93429W        W65045   6.014  10.548   2.752
93430W        W65046  30.176  35.024  12.021
93431W        W65047   2.812   0.985  12.032
93432W        W65048  44.152  28.057   3.709
93433W        W65049  13.483  38.937   0.345
93434W        W65050  17.444  10.039  12.507
93435W        W65051  10.183  35.999  11.636
93436W        W65052  24.883  29.050   0.328
93437W        W65053  11.785  30.151  14.928
93438W        W65054  25.919  32.409  13.832
93439W        W65055  38.330  16.722   2.312
93440W        W65056  32.564   8.112  13.500
93441W        W65057  36.448   6.346   1.264
93442W        W65058  11.225  23.993   2.866
93443W        W65059   0.924  16.501   4.229
93444W        W65060  36.089  21.642   0.049
93445W        W65061  39.947  19.235   0.411
93446W        W65062   6.817  38.751   3.770
93447W        W65063   0.961  27.981   1.539
93448W        W65064  19.535  20.279  11.170
93449W        W65065   2.474  14.247   3.370
93450W        W65066  36.819  11.561  13.567
93451W        W65067  40.873  25.743   2.193
93452W        W65068   0.930  12.625  12.898
93453W        W65069  11.328  15.536   0.438
93454W        W65070  12.033   4.940  11.991
93455W        W65071   1.905  19.834  14.928
93456W        W65072  43.178   7.901  11.618
93457W        W65073  35.425  28.430   1.269
93458W        W65074   5.687  43.330  14.341
93459W        W65075  41.586  41.711   2.828
93460W        W65076  32.008  30.395   4.629
93461W        W65077   4.162   7.587   2.650
93462W        W65078  36.531  25.442  12.902
93463W        W65079  36.391   3.016   2.470
93464W        W65080   7.386  33.469  12.596
93465W        W65081  10.676  44.065  14.422
93466W        W65082  17.633  39.745   3.378
93467W        W65083  12.777  39.440  10.517
93468W        W65084  15.752  11.341   4.540
93469W        W65085  34.837  16.215  11.258
93470W        W65086  12.348  44.485   2.181
93471W        W65087  44.285  13.138  13.276
93472W        W65088  25.053  15.294  14.693
93473W        W65089  44.348  38.341  12.806
93474W        W65090   3.509  21.587   0.358
93475W        W65091  17.622   1.972   4.108
93476W        W65092   1.433  30.367  14.824
93477W        W65093  23.916  32.065   2.341
93478W        W65094   7.824   9.162  12.402
93479W        W65095  27.022   8.179   4.977
93480W        W65096  40.840   8.639  12.638
93481W        W65097   8.144   4.105   0.057
93482W        W65098  36.908   4.178  12.444
93483W        W65099   4.749   3.933   1.847
93484W        W65100  40.087  29.512  14.416
93485W        W65101  14.786   3.312  13.588
93486W        W65102  35.837  10.252  12.977
93487W        W65103  10.903  37.315  11.201
93488W        W65104  37.779  26.238   4.587
93489W        W65105  28.919  34.889   2.130
93490W        W65106  20.042  31.793   0.415
93491W        W65107  21.202  20.256   2.795
93492W        W65108  43.039  10.599  12.938
93493W        W65109  27.080  25.394   2.665
93494W        W65110  26.984  30.929  13.175
93495W        W65111  11.312  44.853  12.471
93496W        W65112  20.625  34.764   2.146
93497W        W65113  37.900  25.139  11.368
93498W        W65114  13.012  23.958   2.018
93499W        W65115  41.191  10.266  13.177
93500W        W65116   0.389   7.369   2.728
93501W        W65117  12.866  44.922   2.712
93502W        W65118  13.059  40.245  11.586
93503W        W65119  44.066   5.998   0.915
93504W        W65120   5.341  43.823   1.819
93505W        W65121  27.024  30.639   4.187
93506W        W65122   5.228  43.511  13.385
93507W        W65123  42.984  33.538  13.036
93508W        W65124   8.156  11.160  13.552
93509W        W65125  13.272  17.315  10.609
93510W        W65126  19.637  41.276   0.775
93511W        W65127  41.968  44.437  14.928
93512W        W65128  28.618  17.118   4.133
93513W        W65129   1.193   1.774  12.530
93514W        W65130  18.145  31.738   2.665
93515W        W65131  29.924  14.084   4.465
93516W        W65132   4.792  19.658  11.613
93517W        W65133  30.120  28.128   2.728
93518W        W65134  40.251  11.774  10.395
93519W        W65135   0.546  26.080  14.386
93520W        W65136  35.270  12.609  11.351
93521W        W65137  41.213  31.963   1.661
93522W        W65138  27.561  21.085  14.005
93523W        W65139  28.103  37.092   1.428
93524W        W65140  39.457   6.363   2.374
93525W        W65141  13.241  14.577   3.537
93526W        W65142  12.817  28.319  14.917
93527W        W65143  17.288   9.337  14.967
93528W        W65144   8.121  33.521  11.983
93529W        W65145   4.201  14.605  12.145
93530W        W65146   6.441  25.654   1.540
93531W        W65147  42.709  11.960  11.185
93532W        W65148  33.568  28.667   1.390
93533W        W65149  15.597  23.165   4.256
93534W        W65150   1.630  44.275   0.788
93535W        W65151  34.154   7.871  11.570
93536W        W65152  11.696   3.613   1.460
93537W        W65153  31.412  20.568  10.785
93538W        W65154  23.874  10.240  12.505
93539W        W65155  27.246   4.361   0.430
93540W        W65156  36.083  25.903  13.451
93541W        W65157  18.575   1.821   3.115
93542W        W65158   8.995  25.008   4.387
93543W        W65159  27.104  23.072  11.332
93544W        W65160  19.262  15.300  10.448
93545W        W65161  23.725  40.562   2.767
93546W        W65162  18.357  14.741   4.841
93547W        W65163  24.124   8.677  14.864
93548W        W65164  11.560  23.747  14.929
93549W        W65165  35.660  43.125   2.837
93550W        W65166  11.491  38.120   9.886
93551W        W65167   0.539  44.018   1.703
93552W        W65168  28.298   0.648   3.980
93553W        W65169  37.647  41.122   1.763
93554W        W65170  25.185  21.639  10.757
93555W        W65171  25.467  11.681  13.370
93556W        W65172  20.663  11.387  14.418
93557W        W65173  16.688  17.103   3.299
93558W        W65174  12.393  15.320  11.590
93559W        W65175   3.840  26.852   2.137
93560W        W65176   8.755   4.364  13.949
93561W        W65177  22.228  31.471  14.896
93562W        W65178  42.840  29.122   4.293
93563W        W65179  21.723   6.867  11.044
93564W        W65180  40.591  39.967  12.476
93565W        W65181   4.199  12.129   0.493
93566W        W65182  37.819  40.140  12.137
93567W        W65183  19.938   1.256  12.033
93568W        W65184  36.655   1.864   0.472
93569W        W65185  43.427  33.105  13.450
93570W        W65186  12.824  40.204   0.876
93571W        W65187  35.850  33.897  11.160
93572W        W65188  27.184  23.101  13.491
93573W        W65189  43.001   4.517  14.791
93574W        W65190   2.612  39.889  11.054
93575W        W65191  35.994  34.127   1.385
93576W        W65192   8.950  29.361   1.887
93577W        W65193   2.253   2.921   3.150
93578W        W65194  15.557  14.211   1.240
93579W        W65195  36.750   0.828   3.155
93580W        W65196  36.017  36.095  12.955
93581W        W65197  17.121  20.837   4.440
93582W        W65198  43.218  20.829  12.020
93583W        W65199   7.176  32.861   4.626
93584W        W65200  44.306   4.844   3.329
93585W        W65201  15.816   2.404  14.387
93586W        W65202  20.019  20.001   1.816
93587W        W65203   7.970  17.114   0.307
93588W        W65204  30.375  11.601  11.960
93589W        W65205  28.737  30.914   0.008
93590W        W65206  36.634  26.279  12.630
93591W        W65207  32.417  20.848  11.046
93592W        W65208  19.204  40.116   1.170
93593W        W65209  28.638  26.091  11.901
93594W        W65210   6.114  20.057  14.336
93595W        W65211  10.771  33.118  13.638
93596W        W65212  41.746  15.614   4.207
93597W        W65213  38.104  19.390  10.770
93598W        W65214  17.061   4.978   3.682
93599W        W65215   0.928  18.496   0.744
93600W        W65216  42.017   4.401   4.802
93601W        W65217   7.898   0.654   1.301
93602W        W65218   9.412  22.970  11.674
93603W        W65219  44.860  21.105  11.787
93604W        W65220  40.574   2.861  13.953
93605W        W65221  21.839  24.596   1.840
93606W        W65222  24.112  12.095   0.848
93607W        W65223  43.051   9.148  12.049
93608W        W65224  20.363  40.577   4.609
93609W        W65225  30.442  19.266   4.303
93610W        W65226  38.818   2.310   3.679
93611W        W65227  15.914  24.472  11.076
93612W        W65228  13.812  44.300   4.887
93613W        W65229   2.616  15.636  13.265
93614W        W65230  11.315  44.502  13.098
93615W        W65231   5.259   9.361   2.897
93616W        W65232  10.426  25.552  11.701
93617W        W65233   0.432  32.960  13.319
93618W        W65234   4.438  35.489   3.164
93619W        W65235  29.299  29.934   5.062
93620W        W65236  39.021  11.155   0.206
93621W        W65237  27.020  35.322  14.377
93622W        W65238  10.783  41.629   1.065
93623W        W65239  14.752   1.321   4.101
93624W        W65240   4.749  31.022  13.927
93625W        W65241  25.039   6.430   1.708
93626W        W65242  23.578  27.101   0.089
93627W        W65243  28.585  30.328   0.990
93628W        W65244  15.932   3.140   3.411
93629W        W65245  36.045  10.589   3.272
93630W        W65246  19.091  10.875  14.883
93631W        W65247  30.447  43.414   3.366
93632W        W65248  32.048  39.303  14.500
93633W        W65249  15.824  10.245   4.477
93634W        W65250   2.602  26.729  12.028
93635W        W65251  39.453  30.454   0.051
93636W        W65252  16.349  41.576  14.874
93637W        W65253  34.168  33.461   2.845
93638W        W65254  12.703  23.518   4.328
93639W        W65255  12.964  35.825  13.027
93640W        W65256   3.405  24.384   1.879
93641W        W65257  13.231  33.649   1.536
93642W        W65258  22.479  19.730   3.688
93643W        W65259  14.907  32.042   3.679
93644W        W65260   7.054   3.642   2.286
93645W        W65261   7.630  32.576  10.927
93646W        W65262   0.737  16.293   3.767
93647W        W65263  17.283  29.383  10.156
93648W        W65264  18.070  39.938   3.148
93649W        W65265   2.409  14.248   0.847
93650W        W65266  22.024  30.723  14.254
93651W        W65267  36.026  31.442   0.365
93652W        W65268  12.356  32.432   4.958
93653W        W65269  41.384  44.462   1.867
93654W        W65270   7.044  17.868  11.887
93655W        W65271  15.138  17.693   1.613
93656W        W65272  42.675   6.314   2.443
93657W        W65273   0.474  16.711  11.167
93658W        W65274  13.093  14.130   4.285
93659W        W65275  38.246  27.629  10.576
93660W        W65276  27.644  22.214  12.989
93661W        W65277  25.458   2.807   1.947
93662W        W65278  44.097  20.933   5.174
93663W        W65279  22.930  44.442  12.029
93664W        W65280  34.806  37.021  14.006
93665W        W65281  41.561   3.836  11.855
93666W        W65282  17.896  16.020  13.439
93667W        W65283  12.017   0.474   4.255
93668W        W65284  14.384  15.014  10.892
93669W        W65285  38.050  15.198   1.698
93670W        W65286  35.979   3.965   4.688
93671W        W65287  27.263  28.108   0.053
93672W        W65288  38.512   9.138  13.069
93673W        W65289   5.439  17.089  10.460
93674W        W65290  12.591  21.541  12.088
93675W        W65291   4.370  16.615  11.657
93676W        W65292  17.735  28.144   3.221
93677W        W65293  30.512   8.974  14.198
93678W        W65294  42.120  26.816   5.059
93679W        W65295  30.921  31.100   3.900
93680W        W65296  13.755  25.244   0.804
93681W        W65297  28.605   2.374  12.433
93682W        W65298  29.939  15.963  13.513
93683W        W65299  20.535  11.135   0.314
93684W        W65300  42.509  13.175  12.781
93685W        W65301  21.331  33.523  13.331
93686W        W65302  29.999  10.339   2.182
93687W        W65303  19.600   9.857  12.405
93688W        W65304  22.291   2.292   4.116
93689W        W65305  31.182  26.050   2.793
93690W        W65306   9.067   2.269  14.393
93691W        W65307  13.655  21.250   0.933
93692W        W65308  23.295   3.252   1.759
93693W        W65309  44.871  12.419   0.469
93694W        W65310  34.611  29.595   4.922
93695W        W65311   8.299   2.960   4.680
93696W        W65312  13.244   8.653   0.216
93697W        W65313  27.163  31.449  11.087
93698W        W65314  32.495   5.410   3.705
93699W        W65315   1.560  36.203   0.574
93700W        W65316  38.365  10.313  10.726
93701W        W65317   8.328   0.883  13.444
93702W        W65318  34.396  36.739   1.429
93703W        W65319  37.021   4.406   0.604
93704W        W65320  11.208  26.622  12.501
93705W        W65321  44.503   3.748   3.763
93706W        W65322   0.319  12.271  12.426
93707W        W65323  32.657  35.029  11.845
93708W        W65324  32.893  18.981   1.957
93709W        W65325  10.338   0.344   2.167
93710W        W65326  11.975  42.765   2.346
93711W        W65327  39.878  34.886   3.125
93712W        W65328  18.461  28.183  14.546
93713W        W65329  36.910  20.936   2.649
93714W        W65330  27.161  21.845  12.115
93715W        W65331  40.108   6.357  13.103
93716W        W65332  43.196  10.424  11.646
93717W        W65333  18.791  12.528   1.405
93718W        W65334  22.499   7.639   2.302
93719W        W65335  41.770  26.137   1.205
93720W        W65336  31.924  10.257   4.889
93721W        W65337  17.203  40.720  11.114
93722W        W65338  21.584  16.065  14.759
93723W        W65339  40.332  36.559   0.265
93724W        W65340  25.323  41.878   2.200
93725W        W65341  40.427  32.644  13.828
93726W        W65342   7.282   3.875  11.144
93727W        W65343   9.536  39.228  14.055
93728W        W65344  28.077  22.539  10.906
93729W        W65345  23.445   4.143  11.899
93730W        W65346  33.403  23.519   2.253
93731W        W65347  14.662  22.014   2.838
93732W        W65348   4.883  37.400   4.226
93733W        W65349  21.326  16.683  13.537
93734W        W65350  40.337  21.135   5.048
93735W        W65351  24.629  26.428  11.670
93736W        W65352  32.442   3.191  13.974
93737W        W65353  37.543  36.751   4.153
93738W        W65354   3.917   6.225   3.253
93739W        W65355  18.194  13.815   4.307
93740W        W65356  21.854  24.357   0.472
93741W        W65357  11.792  22.726  10.637
93742W        W65358   1.357  35.665  12.538
93743W        W65359   8.175  13.606   3.489
93744W        W65360  29.134  40.950  13.543
93745W        W65361  21.662   3.199   1.791
93746W        W65362  26.970   5.513  12.896
93747W        W65363  44.005  38.879   2.475
93748W        W65364  41.600  41.005   2.310
93749W        W65365  17.683  33.436  13.185
93750W        W65366  16.015   1.478   2.708
93751W        W65367  20.605   9.306   3.108
93752W        W65368  31.982  22.654   2.729
93753W        W65369  21.562  30.413   2.011
93754W        W65370  36.940  37.473  13.475
93755W        W65371  20.879  11.381   3.647
93756W        W65372  30.943  39.344   4.298
93757W        W65373  31.860   3.710  12.452
93758W        W65374   5.224  23.753   0.953
93759W        W65375  12.641  11.114   4.344
93760W        W65376   9.912  43.704  11.670
93761W        W65377  23.420  42.958   4.972
93762W        W65378  41.572   7.180   2.184
93763W        W65379  43.380  14.056   0.736
93764W        W65380  43.742   8.773   0.234
93765W        W65381  27.709  38.045  11.570
93766W        W65382   7.408  10.608  11.953
93767W        W65383  18.093  42.151  12.881
93768W        W65384   3.503  25.176   4.111
93769W        W65385  31.485  31.631   2.199
93770W        W65386  21.106  36.891   0.539
93771W        W65387   0.027  29.589  13.128
93772W        W65388  26.987  23.672  10.512
93773W        W65389  17.876  31.172  14.047
93774W        W65390  22.157  21.992  13.053
93775W        W65391  31.332   6.794   0.493
93776W        W65392  21.209   6.437   1.024
93777W        W65393   1.520  27.456   2.089
93778W        W65394  26.431  13.497  13.619
93779W        W65395  15.195  39.231  13.909
93780W        W65396   9.009  37.296   0.440
93781W        W65397   4.930  13.956   1.005
93782W        W65398   4.991  32.586   1.361
93783W        W65399  36.466   2.785  14.857
93784W        W65400   2.285  28.087  10.711
93785W        W65401  12.479   2.039  14.733
93786W        W65402  30.918  38.273   3.102
93787W        W65403  12.313  16.270   4.651
93788W        W65404  15.566  37.666  13.464
93789W        W65405  32.871   7.756  12.110
93790W        W65406   6.898  26.539   2.449
93791W        W65407  19.707  43.357   2.657
93792W        W65408  22.204  43.046  11.134
93793W        W65409  31.955   8.941   4.010
93794W        W65410  24.752  24.217  12.633
93795W        W65411  28.215  21.685  11.194
93796W        W65412  37.199  34.466   1.219
93797W        W65413  29.171  20.254   2.747
93798W        W65414  42.808  10.820   0.732
93799W        W65415   0.855  27.697   0.404
93800W        W65416  23.844  35.958  13.821
93801W        W65417  21.118   5.814  12.940
93802W        W65418  41.267  26.463   2.270
93803W        W65419  25.213  18.198   2.925
93804W        W65420  16.132  41.010  13.290
93805W        W65421  16.681  18.199  10.916
93806W        W65422  20.161  36.313  12.054
93807W        W65423   9.755  38.400   0.785
93808W        W65424   3.730  43.484   5.354
93809W        W65425   7.967  30.796  12.073
93810W        W65426  21.952  18.729   1.331
93811W        W65427  40.453  15.621   2.766
93812W        W65428   2.194   2.818  12.147
93813W        W65429  12.374  14.088  12.343
93814W        W65430  12.525   0.503   4.164
93815W        W65431   5.147  17.288  14.446
93816W        W65432  23.968  12.176  11.602
93817W        W65433  26.405  14.516   4.996
93818W        W65434   0.024  43.480  11.596
93819W        W65435   0.196  37.944  14.694
93820W        W65436  30.526   7.389   0.399
93821W        W65437  33.934   4.995  10.665
93822W        W65438   9.226  39.803  10.663
93823W        W65439  20.063  31.099   2.393
93824W        W65440  15.514  19.314  12.471
93825W        W65441  17.014  41.242   0.478
93826W        W65442  11.156  12.413   1.744
93827W        W65443  12.225  20.804   1.927
93828W        W65444  21.246  37.907   3.718
93829W        W65445   5.152   6.661   1.104
93830W        W65446   8.679  27.253   1.270
93831W        W65447   4.761   9.204   2.018
93832W        W65448  34.042  10.700   1.023
93833W        W65449   4.270  22.252   4.644
93834W        W65450  42.213  19.641  10.869
93835W        W65451   0.798  13.480   1.618
93836W        W65452  31.654  31.070  12.452
93837W        W65453  22.030  16.521   0.398
93838W        W65454  32.857   2.792   3.836
93839W        W65455  11.378  10.305  14.473
93840W        W65456  15.140  31.415   2.688
93841W        W65457  38.076  19.966  11.694
93842W        W65458  38.748  36.821  14.847
93843W        W65459  36.085  24.796  10.679
93844W        W65460  21.985   7.446   2.241
93845W        W65461  36.357  40.000   1.639
93846W        W65462  41.356  15.761   1.878
93847W        W65463   1.667  40.197  11.167
93848W        W65464  33.529   5.393  11.752
93849W        W65465  21.742  21.212  14.912
93850W        W65466  26.978  24.218  13.327
93851W        W65467  26.446  27.033  11.344
93852W        W65468   9.644  18.693  14.287
93853W        W65469  36.289  41.094   4.486
93854W        W65470  32.849  27.926   2.729
93855W        W65471   2.771  40.836   0.551
93856W        W65472  36.779  27.440  11.850
93857W        W65473  24.039   1.458  10.534
93858W        W65474   4.460  14.280  14.862
93859W        W65475   2.528  18.168  11.966
93860W        W65476  44.234  28.904   1.654
93861W        W65477  40.317  14.274  12.139
93862W        W65478   2.411  36.915   1.746
93863W        W65479  30.430  38.074   3.073
93864W        W65480  43.488   7.460   1.479
93865W        W65481  19.238   1.657   1.955
93866W        W65482  13.403  23.715   9.783
93867W        W65483  35.084  29.474   5.176
93868W        W65484  38.673   9.617  13.520
93869W        W65485   6.138  42.378   4.265
93870W        W65486  43.856  27.385   2.080
93871W        W65487  14.634  18.065   2.691
93872W        W65488  42.966  31.902   0.113
93873W        W65489   0.055  22.927  12.055
93874W        W65490  40.043  12.668   1.779
93875W        W65491  15.762  39.908  11.862
93876W        W65492   3.709  22.747   0.856
93877W        W65493  44.470  11.184   1.185
93878W        W65494  34.174  23.949   2.188
93879W        W65495  31.323   2.415   5.158
93880W        W65496   2.783  37.004   0.137
93881W        W65497  41.896  35.549   0.434
93882W        W65498  19.022  42.398   2.887
93883W        W65499  39.967  43.972   1.366
93884W        W65500  32.916  36.811   4.292
93885W        W65501  30.454  37.023  11.590
93886W        W65502  27.133  23.149  12.674
93887W        W65503  32.191  38.599  11.521
93888W        W65504  29.532  43.233  13.791
93889W        W65505   7.798  30.017  11.693
93890W        W65506  17.246   6.879   0.466
93891W        W65507   9.456  20.249  11.078
93892W        W65508   3.475  32.908   0.836
93893W        W65509  38.422  29.409  13.909
93894W        W65510  12.705  33.122   4.567
93895W        W65511  37.369  21.796   0.274
93896W        W65512  18.685  14.318  11.107
93897W        W65513  22.248  15.191  11.690
93898W        W65514   3.350  37.638  10.099
93899W        W65515  24.694   9.833   1.463
93900W        W65516   9.120  23.092   4.638
93901W        W65517  25.904   4.368  14.954
93902W        W65518  34.465  33.942   4.944
93903W        W65519  41.972  22.581   4.412
93904W        W65520  28.411  12.754  12.056
93905W        W65521  38.866  19.365  10.659
93906W        W65522   7.875  17.441  11.985
93907W        W65523  30.842  15.514  13.541
93908W        W65524  29.533   9.624   0.825
93909W        W65525  19.029  41.494   2.190
93910W        W65526  30.107  21.454   1.245
93911W        W65527  17.028  43.588   4.848
93912W        W65528  12.876  23.670   2.934
93913W        W65529  16.154  31.775   3.694
93914W        W65530  43.336  27.824  12.385
93915W        W65531  21.659  29.613  13.971
93916W        W65532  34.536   8.648   4.496
93917W        W65533  42.793   8.071   3.172
93918W        W65534  36.105  19.312   2.629
93919W        W65535  29.846  13.485  11.560
93920W        W65536  25.191  13.734  12.383
93921W        W65537  10.708   7.859   1.899
93922W        W65538   1.990  18.823  11.651
93923W        W65539  30.671  15.647   4.648
93924W        W65540  11.692  29.641  14.680
93925W        W65541  25.628   8.708  14.782
93926W        W65542  31.328  17.862   4.510
93927W        W65543  30.870  24.469  11.671
93928W        W65544  14.204  16.347   1.965
93929W        W65545  29.909  10.689  11.884
93930W        W65546   7.711  25.597  10.742
93931W        W65547   9.243  10.710   4.338
93932W        W65548   4.899   3.912  13.052
93933W        W65549  41.399  25.252   4.157
93934W        W65550   3.780  15.109   0.892
93935W        W65551  16.197  18.863   0.754
93936W        W65552  25.998   7.129  13.306
93937W        W65553  44.012  38.592  12.116
93938W        W65554  10.653  14.454  14.932
93939W        W65555  10.861   0.226  13.270
93940W        W65556  24.055  35.931  11.530
93941W        W65557  18.223  15.203  14.314
93942W        W65558   8.791   7.364  12.186
93943W        W65559  29.480  17.392   4.583
93944W        W65560  33.058  17.390  11.494
93945W        W65561  14.080  10.392   4.136
93946W        W65562  42.290   4.236  10.632
93947W        W65563  31.951  40.342  11.404
93948W        W65564  10.252  16.538  14.702
93949W        W65565  21.598  13.052   0.818
93950W        W65566  22.476  18.642  11.660
93951W        W65567  40.256  29.878   2.383
93952W        W65568  21.057  40.599  11.985
93953W        W65569  28.926   4.613  14.063
93954W        W65570  12.536  39.868  10.719
93955W        W65571   3.909  30.901  12.035
93956W        W65572   2.893  17.733  14.360
93957W        W65573  22.745   2.364  13.265
93958W        W65574   8.302  15.958  12.044
93959W        W65575  29.755  38.722   3.744
93960W        W65576  22.146  21.125   4.269
93961W        W65577  17.979  33.177  14.947
93962W        W65578  28.581   4.959   3.312
93963W        W65579  27.915  14.789   0.343
93964W        W65580  11.233  28.518   2.863
93965W        W65581  27.978   3.829  12.497
93966W        W65582  37.580  18.333  12.524
93967W        W65583  11.359  39.828   2.990
93968W        W65584   4.864  15.101  12.440
93969W        W65585   4.328  15.492  13.542
93970W        W65586  27.729  10.255   4.709
93971W        W65587  25.722  42.041  12.883
93972W        W65588  44.809  28.000   1.127
93973W        W65589  15.166  44.610  11.064
93974W        W65590  16.861  25.670  13.569
93975W        W65591  33.573  40.564  13.518
93976W        W65592  18.047   5.218   3.150
93977W        W65593  43.281  19.604  13.357
93978W        W65594  43.849  32.704  13.963
93979W        W65595  26.656   2.957   2.165
93980W        W65596  14.757   6.008  13.081
93981W        W65597   8.783  27.580  12.361
93982W        W65598   0.899  35.127   2.772
93983W        W65599  16.724  19.635   4.268
93984W        W65600  10.513   1.887   1.365
93985W        W65601   3.189  42.854   4.986
93986W        W65602  39.463  24.901   2.258
93987W        W65603   2.923  32.652   4.640
93988W        W65604  26.707  28.529   2.940
93989W        W65605   0.429   7.784  13.014
93990W        W65606   7.646  34.808  12.617
93991W        W65607  44.736  22.761  13.499
93992W        W65608  17.729  27.075   3.817
93993W        W65609  30.959  44.765  13.324
93994W        W65610  31.410  36.282  12.896
93995W        W65611  36.063   2.486   4.372
93996W        W65612  25.297  33.552  11.167
93997W        W65613  17.753   4.805  11.694
93998W        W65614  43.437  14.198   3.846
93999W        W65615  15.175  38.466   2.190
94000W        W65616   2.373  24.982   4.178
94001W        W65617  29.894   8.280   2.566
94002W        W65618  16.320  11.366  12.530
94003W        W65619  34.094  13.352  10.678
94004W        W65620  34.441  38.572  13.605
94005W        W65621  14.243   9.234   2.093
94006W        W65622  27.014  18.790   0.356
94007W        W65623  24.768  36.823   0.270
94008W        W65624   9.032  21.215  10.102
94009W        W65625  32.487  42.080  10.740
94010W        W65626  39.518   7.875   1.245
94011W        W65627  18.806   1.369   1.892
94012W        W65628  41.878   2.709   1.810
94013W        W65629  37.890  24.282   4.475
94014W        W65630   3.790  34.157  12.128
94015W        W65631  35.858  14.234  12.343
94016W        W65632  32.493   1.213   3.573
94017W        W65633  20.409  32.668   4.098
94018W        W65634  39.503  17.524  13.376
94019W        W65635  10.124  11.709   3.724
94020W        W65636  21.832  23.185  14.054
94021W        W65637   9.743  22.788   3.842
94022W        W65638  24.156  44.943   3.492
94023W        W65639  40.879   8.727  14.024
94024W        W65640  34.838   4.428   1.357
94025W        W65641  35.418   7.318  14.207
94026W        W65642  35.672  22.581  11.090
94027W        W65643  35.860  34.353  13.619
94028W        W65644  30.921  29.489   1.890
94029W        W65645  43.478  27.675  11.907
94030W        W65646  41.846  19.770   0.271
94031W        W65647  33.105  29.930   0.252
94032W        W65648   6.688  43.925  12.396
94033W        W65649   2.556  23.116   4.996
94034W        W65650  30.356  17.066   4.246
94035W        W65651  31.239  20.879   2.489
94036W        W65652  22.690  15.921  11.486
94037W        W65653   4.022  30.111   3.198
94038W        W65654  20.842  18.535   3.951
94039W        W65655   0.487  20.680   4.468
94040W        W65656  36.624  10.666   0.344
94041W        W65657   1.209  28.668   0.437
94042W        W65658  34.524  27.479  12.539
94043W        W65659  11.388   3.049  12.355
94044W        W65660  24.342  21.056   3.276
94045W        W65661   3.059  24.959  13.595
94046W        W65662  41.443  34.402  10.626
94047W        W65663  18.638  22.721   0.567
94048W        W65664  31.480  31.126   3.189
94049W        W65665  10.641   6.612  11.077
94050W        W65666  37.510   3.513  11.335
94051W        W65667  41.810  39.333  14.845
94052W        W65668  20.208  21.330   0.516
94053W        W65669  20.182  18.309   1.832
94054W        W65670  12.778  21.684   3.145
94055W        W65671  32.871  23.987  12.346
94056W        W65672  27.514   1.888  13.563
94057W        W65673  27.236   5.410  12.471
94058W        W65674  39.588  41.393  14.543
94059W        W65675  41.062   2.136  13.085
94060W        W65676  21.720   1.389   3.417
94061W        W65677  21.631  40.362   4.403
94062W        W65678  32.017  13.487   3.670
94063W        W65679  11.599  40.586   5.058
94064W        W65680  17.093   2.703  10.503
94065W        W65681  42.783   3.063  12.179
94066W        W65682   5.319  26.725  13.271
94067W        W65683  16.870  40.025   2.471
94068W        W65684  39.866   6.175  11.855
94069W        W65685  23.919  41.764   2.243
94070W        W65686   9.412  28.320   3.867
94071W        W65687  22.729  31.893   3.606
94072W        W65688  14.348   9.482  12.018
94073W        W65689  25.138  16.279   3.787
94074W        W65690  14.577   8.960  11.638
94075W        W65691  34.876  31.003  12.682
94076W        W65692  22.995  12.178   3.577
94077W        W65693  19.723  14.559  14.362
94078W        W65694  43.347  26.667  11.938
94079W        W65695  40.480   8.138  12.780
94080W        W65696  24.703   7.342  10.755
94081W        W65697   1.989  18.965   4.783
94082W        W65698   5.030  35.590   0.261
94083W        W65699  24.448  41.715  14.867
94084W        W65700  28.588  30.259   4.511
94085W        W65701  31.586  40.585   4.641
94086W        W65702  17.052   5.145  10.545
94087W        W65703  34.005  35.076  12.879
94088W        W65704  12.687  14.356  13.386
94089W        W65705  25.177  43.015  10.403
94090W        W65706  18.152  30.900   1.392
94091W        W65707   2.443  25.962  10.761
94092W        W65708  41.906  44.984  13.623
94093W        W65709  42.337   6.931  12.445
94094W        W65710  18.969  27.564  11.863
94095W        W65711  12.131  38.069   4.099
94096W        W65712   8.697  21.005   0.389
94097W        W65713   0.875  34.523   3.642
94098W        W65714  25.177  18.353  11.602
94099W        W65715  10.585  10.179  12.495
94100W        W65716  41.360   0.392   3.427
94101W        W65717  28.050   6.883   2.705
94102W        W65718  10.357  37.786   1.370
94103W        W65719  26.676  35.687   0.594
94104W        W65720  12.883   0.305  13.621
94105W        W65721  20.126   2.521  13.462
94106W        W65722   3.653   3.159   0.932
94107W        W65723  24.235   0.944  11.735
94108W        W65724   5.110  17.488   9.969
94109W        W65725  25.083  39.483  10.581
94110W        W65726  43.971  26.781  12.946
94111W        W65727  31.492  27.360   0.850
94112W        W65728  26.092  37.872   2.916
94113W        W65729  29.309  24.001   0.955
94114W        W65730  29.629  40.878  13.405
94115W        W65731  27.666  35.902  12.331
94116W        W65732  36.621  28.120  12.124
94117W        W65733  27.515  41.021   0.915
94118W        W65734   3.790  33.927   1.358
94119W        W65735  20.963   6.359  11.179
94120W        W65736   7.825  44.611  12.916
94121W        W65737  31.956  34.019  10.429
94122W        W65738  35.568  33.543  13.039
94123W        W65739  12.433   8.835   4.781
94124W        W65740  12.128  13.362   0.708
94125W        W65741  20.218  13.868  12.032
94126W        W65742  11.573  26.498  10.269
94127W        W65743  33.560   8.690   4.607
94128W        W65744  26.104  43.432   0.679
94129W        W65745   7.242  12.589   3.192
94130W        W65746  19.680  30.896   1.282
94131W        W65747  17.118  30.005  13.531
94132W        W65748  39.768  37.232  10.813
94133W        W65749  38.339  11.471  14.744
94134W        W65750  39.976  23.110   4.130
94135W        W65751  14.823  13.131  11.539
94136W        W65752   8.645  26.488  13.014
94137W        W65753  35.922   0.716  11.052
94138W        W65754  33.833  31.711   0.352
94139W        W65755   4.930  38.597   0.401
94140W        W65756  17.039  27.429  13.399
94141W        W65757  37.292  22.663  14.400
94142W        W65758   0.555  40.399   3.245
94143W        W65759   5.000  11.899  12.904
94144W        W65760   5.432   7.437   4.188
94145W        W65761   2.790   3.450   4.147
94146W        W65762  19.022  23.182   1.057
94147W        W65763  36.332  35.857  12.423
94148W        W65764  16.729  43.387  12.800
94149W        W65765   9.829  10.243   2.933
94150W        W65766  20.815  17.527  12.526
94151W        W65767  34.108  23.687  14.353
94152W        W65768   2.615  35.663  13.266
94153W        W65769  36.948  12.370   0.761
94154W        W65770  28.907  38.912  12.121
94155W        W65771  20.701  25.924   4.737
94156W        W65772  33.764  19.083  13.438
94157W        W65773  10.199  12.114   1.655
94158W        W65774   3.205  42.885   3.387
94159W        W65775   2.683  16.797  14.444
94160W        W65776   9.021  17.303   3.900
94161W        W65777  20.701  11.373   2.336
94162W        W65778   3.449  27.252  12.542
94163W        W65779  29.772  23.158   2.953
94164W        W65780  10.856  10.076  11.703
94165W        W65781  14.683  16.128   1.774
94166W        W65782   3.989  30.955  14.646
94167W        W65783  20.491  16.367   3.421
94168W        W65784  13.794  25.067  10.478
94169W        W65785  32.013   7.115  12.023
94170W        W65786  37.364   4.506   3.578
94171W        W65787  15.842  21.601  11.726
94172W        W65788   7.924  20.454  11.230
94173W        W65789  14.051  10.799   0.897
94174W        W65790  24.049  19.293   3.809
94175W        W65791  14.281  26.408   4.171
94176W        W65792   2.214  26.641   0.483
94177W        W65793   0.704  15.629   0.320
94178W        W65794   0.376  27.053   4.651
94179W        W65795   4.446   4.340  12.624
94180W        W65796   3.390  10.218  11.170
94181W        W65797   0.466  12.553   0.714
94182W        W65798  39.818  18.770   1.810
94183W        W65799  22.867  23.153  14.004
94184W        W65800  14.757  38.995  14.825
94185W        W65801   0.022  14.666   2.837
94186W        W65802  32.409   5.203  11.678
94187W        W65803  39.130   7.630   0.385
94188W        W65804  27.487  38.861   1.181
94189W        W65805   9.631  44.360   1.221
94190W        W65806  29.664   1.983  12.917
94191W        W65807  16.658   4.410   0.227
94192W        W65808  24.181   3.774  11.208
94193W        W65809  17.099  39.028   3.750
94194W        W65810  36.902  25.137  11.640
94195W        W65811  44.297  27.447   0.355
94196W        W65812   4.738  13.606   2.327
94197W        W65813  23.970  23.021  14.999
94198W        W65814  40.357   2.700   3.748
94199W        W65815  28.049  31.613  10.713
94200W        W65816  43.816  25.230  11.079
94201W        W65817   1.185   5.353   1.983
94202W        W65818  13.687   7.818   1.946
94203W        W65819  34.371   5.154  11.859
94204W        W65820   8.589  28.142  11.653
94205W        W65821  22.137  32.532   4.131
94206W        W65822  41.976  32.921  13.401
94207W        W65823  22.571   3.026  14.994
94208W        W65824  24.215  11.781   4.055
94209W        W65825  17.008  22.268  11.977
94210W        W65826  42.813  24.703  11.598
94211W        W65827  40.773  33.460  14.065
94212W        W65828  25.084  11.358  13.448
94213W        W65829   0.186  12.868  13.438
94214W        W65830   6.072   5.658   2.229
94215W        W65831  17.292  44.931   4.042
94216W        W65832  41.419  33.185   0.814
94217W        W65833  38.318   6.867  12.927
94218W        W65834  10.333   4.940   3.619
94219W        W65835  18.354   3.469  12.422
94220W        W65836  25.212  42.901   2.782
94221W        W65837  33.493  36.001  14.740
94222W        W65838  17.239  12.875   2.823
94223W        W65839   6.192   6.303  12.100
94224W        W65840  30.959   5.596  10.925
94225W        W65841  21.673  38.799   2.303
94226W        W65842  14.489   5.802   4.979
94227W        W65843  22.822  35.306  14.532
94228W        W65844  36.431  23.103   1.857
94229W        W65845   1.174  19.664   3.996
94230W        W65846  12.740   7.377   2.835
94231W        W65847  41.862  43.938  12.859
94232W        W65848  41.327  25.143  12.589
94233W        W65849   2.183  41.474  12.485
94234W        W65850  16.173  33.092   0.316
94235W        W65851   1.962  41.959  12.544
94236W        W65852  30.642  18.550  14.706
94237W        W65853  33.187  15.494   2.294
94238W        W65854  18.625  17.087  10.698
94239W        W65855  11.683  38.975  12.871
94240W        W65856  35.298  14.835  14.238
94241W        W65857  26.950   0.832   1.756
94242W        W65858   3.445  43.244   1.204
94243W        W65859  23.794   8.412  12.774
94244W        W65860  42.923   1.345   0.198
94245W        W65861  23.546  20.587   3.639
94246W        W65862   3.535   0.969  10.684
94247W        W65863  17.710  13.188  12.062
94248W        W65864  35.475  16.746  14.782
94249W        W65865   5.941  11.295  12.080
94250W        W65866   1.922   0.429   5.053
94251W        W65867  33.586  13.597   1.541
94252W        W65868  22.096  13.883  13.145
94253W        W65869  10.110  36.261   2.770
94254W        W65870  19.374   3.642   4.367
94255W        W65871  31.121  40.962  13.387
94256W        W65872  27.125  43.559  10.915
94257W        W65873  38.483  29.078   3.908
94258W        W65874  37.530  27.147   4.396
94259W        W65875  38.831  31.047   4.026
94260W        W65876  40.333  24.677   1.773
94261W        W65877  35.906  39.400  14.494
94262W        W65878  23.194   9.837  11.253
94263W        W65879  40.513  43.080   9.996
94264W        W65880  17.556  15.123  13.055
94265W        W65881  25.549   6.293   0.764
94266W        W65882  26.716  34.640   0.729
94267W        W65883  27.602   5.812  14.900
94268W        W65884  28.615   3.742  10.100
94269W        W65885  30.482  10.629   3.373
94270W        W65886  16.591   0.378   1.301
94271W        W65887  23.265  33.847  13.114
94272W        W65888   4.351  15.613   3.665
94273W        W65889  31.093  18.650   2.668
94274W        W65890   2.761  18.045   1.502
94275W        W65891  10.325   3.178   4.034
94276W        W65892   8.864  22.064   4.547
94277W        W65893  28.177  10.088  14.987
94278W        W65894  25.027  44.136  12.792
94279W        W65895  40.917  24.763   2.387
94280W        W65896  27.412  25.386   2.262
94281W        W65897  35.147  14.626   0.968
94282W        W65898  31.907  11.848  10.811
94283W        W65899  20.698  12.209  11.003
94284W        W65900  37.488  37.130  12.126
94285W        W65901  21.143  20.347   3.629
94286W        W65902   6.717  41.402  11.088
94287W        W65903  34.070  43.488  13.179
94288W        W65904  34.975  19.037  11.183
94289W        W65905  42.507   3.584   3.657
94290W        W65906  43.031  22.908  14.032
94291W        W65907  33.039  19.699   1.435
94292W        W65908  40.302  22.962   1.018
94293W        W65909  25.510  36.010   3.547
94294W        W65910  42.730  11.011  14.069
94295W        W65911  29.231  36.707  12.715
94296W        W65912  14.538  10.213  11.699
94297W        W65913  21.101  19.094  12.613
94298W        W65914  20.134   0.898   1.620
94299W        W65915  24.365  19.543  14.473
94300W        W65916  15.925  16.585  10.232
94301W        W65917   5.930  27.631   3.579
94302W        W65918  29.555  30.643   3.781
94303W        W65919  44.248  11.423   4.602
94304W        W65920  43.920  14.702  10.651
94305W        W65921  28.438  37.954   4.026
94306W        W65922   1.871   3.140   0.846
94307W        W65923  33.163  10.345   2.642
94308W        W65924  22.688  21.305   0.980
94309W        W65925  32.390  32.016  10.732
94310W        W65926  39.506   6.962  12.278
94311W        W65927  25.174  43.798  12.199
94312W        W65928  34.583  12.233   2.257
94313W        W65929  12.081  39.407  10.694
94314W        W65930  42.077  35.907   4.214
94315W        W65931  40.696  43.869   3.751
94316W        W65932   4.348   0.186   4.211
94317W        W65933   8.784  44.781  14.440
94318W        W65934   1.777  25.936   2.519
94319W        W65935  19.187  13.203  12.834
94320W        W65936   8.963  42.211   1.911
94321W        W65937  32.395  17.017  12.007
94322W        W65938  38.329  38.541  14.616
94323W        W65939  40.422  16.971  14.449
94324W        W65940  16.201  12.683  13.255
94325W        W65941  16.018  22.170  12.891
94326W        W65942   7.948  30.526  13.476
94327W        W65943  31.821   2.493   5.038
94328W        W65944  28.142  34.644  11.104
94329W        W65945  24.461  40.843   2.049
94330W        W65946  18.551  19.726  12.764
94331W        W65947  17.749  33.565  14.648
94332W        W65948   3.804  15.212  14.324
94333W        W65949  36.851   4.308   4.842
94334W        W65950  14.774  17.524  10.249
94335W        W65951  43.087  37.113   0.600
94336W        W65952  22.188  12.549  14.552
94337W        W65953  32.883  22.042  11.210
94338W        W65954  43.568  25.901  14.509
94339W        W65955   7.869  17.568  11.476
94340W        W65956  22.110  21.896   2.920
94341W        W65957   6.156  44.232  13.132
94342W        W65958  22.990  34.121  14.062
94343W        W65959   2.684  42.616  10.593
94344W        W65960  44.440  17.124   4.148
94345W        W65961  39.042  29.172   1.203
94346W        W65962   9.037  21.949   1.414
94347W        W65963  23.205   9.041  13.894
94348W        W65964   8.157  22.253   3.304
94349W        W65965   8.786   4.207  14.441
94350W        W65966  36.428  11.770   3.856
94351W        W65967  18.533  44.212   5.059
94352W        W65968  20.594  32.643  10.651
94353W        W65969  13.312   7.151  13.761
94354W        W65970  14.213  44.553  11.015
94355W        W65971   5.140  16.320   4.919
94356W        W65972   1.523   7.274  14.452
94357W        W65973  23.036  13.360  11.677
94358W        W65974  41.546   9.562  12.473
94359W        W65975  40.860  34.512   1.576
94360W        W65976  43.872  19.874   1.115
94361W        W65977  38.680  25.558  12.066
94362W        W65978  20.471   9.072  12.962
94363W        W65979  16.865   1.935  13.949
94364W        W65980  22.782  32.841  13.825
94365W        W65981  39.964  26.582  11.733
94366W        W65982  42.223   9.311  12.976
94367W        W65983   8.898   5.954  10.955
94368W        W65984  36.095   4.445  14.384
94369W        W65985  15.269  35.383   1.017
94370W        W65986  22.214   4.734  13.286
94371W        W65987  14.800   0.610   2.871
94372W        W65988   1.458  28.549  11.656
94373W        W65989  32.055  31.529  14.078
94374W        W65990  35.527  16.784  14.273
94375W        W65991  42.935  22.748  13.480
94376W        W65992  32.402   6.414  13.375
94377W        W65993  28.147  11.684  12.469
94378W        W65994  32.357  31.629   2.302
94379W        W65995  26.674  23.574  11.256
94380W        W65996  40.457  11.771   3.836
94381W        W65997   9.895  36.553   3.169
94382W        W65998  37.530  26.210   1.303
94383W        W65999  37.233  10.837  11.310
94384W        W66000   3.399  33.651  11.187
94385W        W66001   3.063  39.791   3.750
94386W        W66002   6.007   7.115  12.171
94387W        W66003  11.196  29.805  12.634
94388W        W66004  36.838  11.930   2.705
94389W        W66005   9.383  29.431  14.818
94390W        W66006  26.754  14.867   3.151
94391W        W66007  35.828  28.548   3.892
94392W        W66008  38.927   1.497  14.826
94393W        W66009  35.961  44.924   0.909
94394W        W66010  34.136  34.030   0.225
94395W        W66011  15.760  43.248   2.251
94396W        W66012  40.766   0.717   1.803
94397W        W66013  40.856  37.388  12.339
94398W        W66014  20.680  19.719   2.212
94399W        W66015  30.344  18.011   4.188
94400W        W66016  20.195  40.306  14.897
94401W        W66017  25.600  38.609  14.436
94402W        W66018  15.872   6.453   0.859
94403W        W66019  39.673  11.906   4.945
94404W        W66020  12.750  22.677   4.901
94405W        W66021  14.771  26.989   1.166
94406W        W66022  32.472   1.395   5.369
94407W        W66023  39.044  44.494   3.338
94408W        W66024  34.686  39.135   4.091
94409W        W66025  11.339  42.016   1.758
94410W        W66026   2.931   7.895   3.145
94411W        W66027   6.771  23.713  11.933
94412W        W66028  26.637  32.074  12.791
94413W        W66029   6.092  27.611   0.052
94414W        W66030  20.372   4.487  13.336
94415W        W66031  40.569  13.424  12.483
94416W        W66032  31.876  31.080   1.707
94417W        W66033  39.531   1.893   1.706
94418W        W66034  21.066  36.578   2.970
94419W        W66035  42.506  26.965  12.217
94420W        W66036  11.166  15.715  11.553
94421W        W66037   0.274  39.936  10.612
94422W        W66038  16.207   6.317   1.862
94423W        W66039  13.583  19.251  13.388
94424W        W66040  38.120  33.955  13.981
94425W        W66041  41.762  38.077   1.499
94426W        W66042  13.169  40.437   3.930
94427W        W66043  18.412  29.740   0.350
94428W        W66044  24.485   4.175  14.307
94429W        W66045   9.611  25.476  14.258
94430W        W66046   3.593  29.387  11.036
94431W        W66047   1.385  40.379   1.290
94432W        W66048  21.744  39.992  13.029
94433W        W66049  10.581  18.200  12.519
94434W        W66050  40.559  18.083   3.286
94435W        W66051   5.255  41.442   1.366
94436W        W66052  17.615   9.778  12.026
94437W        W66053  40.114  30.454  11.998
94438W        W66054  36.042  43.496   2.477
94439W        W66055  41.726  39.379   4.194
94440W        W66056  34.680   8.740   5.040
94441W        W66057  43.958  27.015   5.027
94442W        W66058   2.363  25.778   1.906
94443W        W66059   2.292   0.126   9.765
94444W        W66060  25.685  34.938  13.418
94445W        W66061  25.935  20.202   2.715
94446W        W66062  13.523  42.153  13.938
94447W        W66063   4.206  18.165   1.358
94448W        W66064   0.460  40.356   4.111
94449W        W66065  32.176   1.081  10.314
94450W        W66066   3.265  16.397  10.787
94451W        W66067  17.571   8.751  13.473
94452W        W66068   9.383   2.513  12.221
94453W        W66069  36.720  14.607  13.855
94454W        W66070  12.875  43.245  11.577
94455W        W66071  40.940  37.129   3.667
94456W        W66072  15.054  24.709  11.947
94457W        W66073  44.871   3.572  10.812
94458W        W66074  33.413  41.072   5.244
94459W        W66075  14.294  18.443   2.689
94460W        W66076  44.398  20.787  14.059
94461W        W66077  31.412  37.835   2.736
94462W        W66078  13.732  22.009  10.712
94463W        W66079  19.642  39.090   0.277
94464W        W66080  36.045  38.354   1.576
94465W        W66081  39.203  43.412  12.780
94466W        W66082  24.052   3.677   0.417
94467W        W66083  20.570  38.736  11.136
94468W        W66084  36.458  29.187   4.035
94469W        W66085   9.930  40.365  11.967
94470W        W66086   0.883  36.073   1.286
94471W        W66087   4.774   9.580   1.673
94472W        W66088  13.783  30.686   3.730
94473W        W66089  12.761  27.630   2.355
94474W        W66090  21.332  42.038  11.979
94475W        W66091  25.965  27.214  14.041
94476W        W66092  33.945   2.852   4.569
94477W        W66093   4.220   0.960  11.809
94478W        W66094  20.822  23.975  11.695
94479W        W66095   6.425   8.717   4.666
94480W        W66096  13.171   4.459   3.709
94481W        W66097  28.114  27.432   3.599
94482W        W66098  16.642  35.991   2.811
94483W        W66099  38.358  21.751  10.734
94484W        W66100  31.882  40.187  12.245
94485W        W66101  43.739  28.887   1.757
94486W        W66102  44.611  14.368   5.433
94487W        W66103  10.698  13.221   1.715
94488W        W66104   5.892  22.960  11.107
94489W        W66105  37.021  34.959   2.812
94490W        W66106  24.601  23.383   4.062
94491W        W66107   6.883  16.616   2.855
94492W        W66108  37.347  13.739   1.710
94493W        W66109  17.066  44.961   3.540
94494W        W66110  12.382  20.012   1.313
94495W        W66111   7.167  21.084  11.590
94496W        W66112  38.754  44.932   3.752
94497W        W66113  43.289  28.010  13.783
94498W        W66114  28.465   6.353   2.509
94499W        W66115  18.505  33.920  13.858
94500W        W66116  13.416  17.175   1.909
94501W        W66117  17.765  14.527   1.453
94502W        W66118  29.724  11.818  13.904
94503W        W66119  30.618  29.452   2.856
94504W        W66120  20.468  31.339   2.181
94505W        W66121  37.295  14.716   0.651
94506W        W66122   0.303  33.862   1.196
94507W        W66123  40.330  20.162   2.248
94508W        W66124  16.734  23.783  13.991
94509W        W66125  28.865  18.805  12.460
94510W        W66126  27.116  11.826   0.028
94511W        W66127  37.411  23.105   3.121
94512W        W66128  16.699   2.070   0.311
94513W        W66129  25.563  11.710   2.589
94514W        W66130   0.676  12.739  13.324
94515W        W66131  17.609  27.870  13.993
94516W        W66132  31.409  30.596  12.419
94517W        W66133  23.507  38.865   4.088
94518W        W66134  32.795   2.031   3.617
94519W        W66135  14.157  18.260  10.218
94520W        W66136  28.225  21.663  12.581
94521W        W66137  12.191  29.587   1.529
94522W        W66138  17.593   2.717  10.645
94523W        W66139   1.602  44.758  10.620
94524W        W66140  23.244  30.354  12.520
94525W        W66141  16.586   6.999   0.641
94526W        W66142  36.354  10.107  12.934
94527W        W66143   7.442   4.437  14.479
94528W        W66144  28.411   5.214  14.362
94529W        W66145  18.328   0.696   2.658
94530W        W66146  29.031  36.946   4.395
94531W        W66147  29.594   2.226   1.663
94532W        W66148  42.512  34.106  11.975
94533W        W66149  11.294   9.198   4.028
94534W        W66150   3.718   3.414  11.469
94535W        W66151   3.289   8.439  14.007
94536W        W66152  27.528  39.863  14.978
94537W        W66153  27.096   8.133  10.838
94538W        W66154  36.379  40.439  14.438
94539W        W66155  30.349  43.720  11.491
94540W        W66156   8.709  10.554  10.736
94541W        W66157  39.290   1.076  14.025
94542W        W66158  16.084   5.838   5.091
94543W        W66159  41.984  12.303   0.779
94544W        W66160  33.916  14.078   0.358
94545W        W66161  20.486  18.720   2.039
94546W        W66162   4.903   2.135  12.964
94547W        W66163  25.545  22.569  10.642
94548W        W66164  32.199  23.160  13.061
94549W        W66165   9.925  20.461   0.495
94550W        W66166  40.923  35.443   4.688
94551W        W66167  31.465   7.951  11.088
94552W        W66168  22.434  30.614   2.779
94553W        W66169  32.109  28.479  11.972
94554W        W66170   0.688  24.485  13.503
94555W        W66171   1.710  39.103  13.746
94556W        W66172  30.876  26.346  14.176
94557W        W66173   2.947  14.415  12.890
94558W        W66174  34.309   2.453   0.378
94559W        W66175  25.399  36.607  14.917
94560W        W66176  19.688  11.214  11.916
94561W        W66177   5.763  40.309  14.297
94562W        W66178  30.693  36.474   1.981
94563W        W66179  22.818  32.900  12.866
94564W        W66180  34.914  15.891  10.353
94565W        W66181  41.942   3.959   3.855
94566W        W66182   1.443  11.839  11.054
94567W        W66183  10.813  29.139   3.060
94568W        W66184   7.909  11.729  13.355
94569W        W66185  31.207  16.605  12.486
94570W        W66186  40.850  11.703  14.891
94571W        W66187   6.391  27.892  12.948
94572W        W66188  16.945   9.199   1.377
94573W        W66189  36.334  37.542  11.613
94574W        W66190  20.983  39.926   1.075
94575W        W66191  15.664  40.052  13.023
94576W        W66192   8.376  14.350   4.169
94577W        W66193  29.881   9.239  12.467
94578W        W66194  16.041  15.759  12.811
94579W        W66195   6.202  40.123   0.370
94580W        W66196   3.274  29.505   0.986
94581W        W66197  13.206   1.384  12.891
94582W        W66198  40.776  38.541  14.487
94583W        W66199  42.691   9.723  12.038
94584W        W66200  28.598  44.877   2.612
94585W        W66201  14.808  12.710   2.284
94586W        W66202  18.061   1.121   4.160
94587W        W66203   2.789   7.842  12.498
94588W        W66204  22.457  41.462  14.839
94589W        W66205  27.167  44.894   1.403
94590W        W66206  16.555  16.181   3.725
94591W        W66207  18.195  41.098  10.520
94592W        W66208  12.037   7.121   2.225
94593W        W66209  29.894  14.890  11.520
94594W        W66210  21.825  35.546  11.913
94595W        W66211  19.759  26.501  10.724
94596W        W66212  31.938   6.316  12.818
94597W        W66213  32.232  28.713  13.201
94598W        W66214   6.463   2.871   3.738
94599W        W66215  15.844  37.125   5.033
94600W        W66216   5.044  18.563   3.200
94601W        W66217   8.721  43.230  12.436
94602W        W66218  14.613  31.512   4.539
94603W        W66219  41.830  40.946  14.933
94604W        W66220   4.420  41.311   3.225
94605W        W66221  25.007  42.373   0.316
94606W        W66222  34.732   5.347   1.954
94607W        W66223   0.992  30.492  10.197
94608W        W66224  29.156   9.837  11.538
94609W        W66225   0.689  11.388  12.740
94610W        W66226  14.546  15.706   0.344
94611W        W66227   8.171  17.022  13.433
94612W        W66228  44.015  32.627  14.487
94613W        W66229  38.922   7.437   3.687
94614W        W66230   9.211  17.105   1.859
94615W        W66231   8.721  35.841  11.948
94616W        W66232  13.057  36.931  11.716
94617W        W66233  19.947  12.124   4.615
94618W        W66234  19.733  18.676   1.305
94619W        W66235  42.868  34.004   0.077
94620W        W66236  13.319   3.463  12.371
94621W        W66237  35.007   9.402  13.931
94622W        W66238   9.905  20.141   1.184
94623W        W66239  21.110  30.408   1.711
94624W        W66240   3.881  16.243  14.065
94625W        W66241   9.621  15.335   1.861
94626W        W66242   0.491  35.872  11.511
94627W        W66243   3.300  14.648   3.539
94628W        W66244  40.970  17.797  13.763
94629W        W66245   6.297   8.324   3.179
94630W        W66246  12.246  38.650  13.396
94631W        W66247  20.436  25.213   0.379
94632W        W66248  35.108  13.759  14.909
94633W        W66249  37.811  17.991  11.643
94634W        W66250  37.391  14.804   3.702
94635W        W66251  10.329  44.845   2.744
94636W        W66252   4.557  39.445   3.175
94637W        W66253  43.720  40.249   3.663
94638W        W66254  12.680   4.232   0.795
94639W        W66255  30.865  34.910  11.609
94640W        W66256  38.819  27.237  14.914
94641W        W66257  44.313  40.421  10.161
94642W        W66258  44.716  36.274  11.115
94643W        W66259  20.509   9.699   0.499
94644W        W66260  38.623  20.140  14.443
94645W        W66261  40.588  35.481  12.141
94646W        W66262  15.018  14.236  13.337
94647W        W66263   4.501  30.037   1.851
94648W        W66264   4.136  43.492  14.514
94649W        W66265  39.993  32.866  11.716
94650W        W66266   3.660  44.280   2.541
94651W        W66267  41.267  13.629  14.967
94652W        W66268  28.731  26.508   0.853
94653W        W66269  31.925  32.396   2.110
94654W        W66270  28.062  26.113   2.318
94655W        W66271  28.896  10.439   0.629
94656W        W66272  41.994  36.346   2.448
94657W        W66273  15.020  13.456  11.967
94658W        W66274  21.216  23.965   4.606
94659W        W66275  39.618  17.364  14.860
94660W        W66276   5.174  21.116   1.318
94661W        W66277  28.043   9.402  11.414
94662W        W66278  44.322   2.602   1.755
94663W        W66279  18.327  18.554   4.102
94664W        W66280  38.453  30.312  14.223
94665W        W66281  17.629   2.830   4.695
94666W        W66282  11.847  33.970   1.251
94667W        W66283  35.247  24.707  12.475
94668W        W66284  31.938   2.821  13.527
94669W        W66285   6.818  38.022   4.480
94670W        W66286  23.194  25.733   4.199
94671W        W66287  28.988  20.971   3.731
94672W        W66288   1.360  37.347   1.391
94673W        W66289  19.468  16.406  14.407
94674W        W66290  14.587  22.233   2.386
94675W        W66291  33.018   6.735   3.711
94676W        W66292   6.000  15.360   0.863
94677W        W66293  40.729  14.255  10.769
94678W        W66294  27.581  30.253   4.805
94679W        W66295  26.579  26.114  11.988
94680W        W66296  12.058   0.507  14.391
94681W        W66297  39.837  21.708   2.836
94682W        W66298  14.642  20.116   2.229
94683W        W66299   3.628  33.213   4.197
94684W        W66300  20.425   4.038   1.007
94685W        W66301  29.505   0.431   2.675
94686W        W66302  30.216   1.001   4.110
94687W        W66303  34.999  32.115   2.246
94688W        W66304  25.525  29.658   2.420
94689W        W66305  39.450   2.208  10.729
94690W        W66306  37.932  44.280   0.022
94691W        W66307  22.008   1.297  12.540
94692W        W66308   2.866   8.039  13.457
94693W        W66309   2.599   0.820   4.233
94694W        W66310  40.792  37.395   1.253
94695W        W66311  28.704   2.863   2.306
94696W        W66312  19.357  35.483   3.215
94697W        W66313  18.576  10.825   1.266
94698W        W66314   2.506   5.828   1.189
94699W        W66315  36.518  39.773   0.832
94700W        W66316  25.877  41.784   0.409
94701W        W66317  20.326   4.110  11.115
94702W        W66318  35.085  43.849  10.916
94703W        W66319  17.073  32.104   3.647
94704W        W66320   1.860  37.271   2.767
94705W        W66321  40.080  16.698  14.712
94706W        W66322   0.876  13.965   2.883
94707W        W66323  16.933  38.929  12.065
94708W        W66324  24.175  35.293  14.571
94709W        W66325  22.242  39.089  11.803
94710W        W66326  18.138  32.361  14.479
94711W        W66327   2.186  12.238   1.788
94712W        W66328  24.893  33.624  11.999
94713W        W66329   3.394  11.831   4.131
94714W        W66330  18.160  11.321  13.007
94715W        W66331  40.851  34.020  12.908
94716W        W66332  15.817   1.931  13.976
94717W        W66333  34.051  15.024   3.159
94718W        W66334  30.649  38.406  11.932
94719W        W66335  30.409  36.194   2.800
94720W        W66336  26.291  30.645  14.700
94721W        W66337  17.030  35.465  12.599
94722W        W66338   2.482  15.725   4.655
94723W        W66339  17.049  18.293   4.858
94724W        W66340  36.398   1.282  12.028
94725W        W66341  43.225  14.220   2.875
94726W        W66342   4.308   6.603   1.327
94727W        W66343  30.485  24.187   0.069
94728W        W66344  34.882  17.983   2.306
94729W        W66345  40.851  31.411  12.932
94730W        W66346  41.517  18.077   2.179
94731W        W66347  26.085  28.583   2.341
94732W        W66348   6.167  30.146   3.705
94733W        W66349  32.175  24.251  11.216
94734W        W66350  41.885  13.760   2.885
94735W        W66351  40.103  27.566  11.677
94736W        W66352  15.326  39.085   0.416
94737W        W66353  26.023  23.627  12.558
94738W        W66354  19.976  20.580  11.907
94739W        W66355   4.455  44.478  10.903
94740W        W66356  42.041  12.661  12.098
94741W        W66357  31.400  15.084   1.148
94742W        W66358  43.967   9.588  12.033
94743W        W66359  43.957  41.964   4.180
94744W        W66360  33.010  17.642   1.282
94745W        W66361   3.287  41.982   0.782
94746W        W66362  33.476  44.700  14.505
94747W        W66363   3.313  13.931  11.966
94748W        W66364   1.012   4.678  14.369
94749W        W66365   4.737  25.517  13.573
94750W        W66366  25.162  38.459   4.583
94751W        W66367  19.289  39.508   3.875
94752W        W66368  44.256  18.750   2.159
94753W        W66369   1.985  43.203   3.693
94754W        W66370  39.152   1.563   0.294
94755W        W66371  19.730  26.944   2.125
94756W        W66372  42.127  13.173   1.193
94757W        W66373   9.254  22.969  11.195
94758W        W66374  39.806   5.991   3.624
94759W        W66375   2.223  27.101  12.156
94760W        W66376  29.881  18.350  10.980
94761W        W66377  40.974  42.857  11.142
94762W        W66378  11.720  32.116   1.792
94763W        W66379  12.145  25.645  13.337
94764W        W66380   1.024  10.931  13.424
94765W        W66381  29.924  18.708   4.578
94766W        W66382   2.919  21.450   5.456
94767W        W66383  18.545  21.511   4.837
94768W        W66384   8.692  27.942   2.406
94769W        W66385  13.258  34.623  12.017
94770W        W66386  22.459  28.987  14.607
94771W        W66387  37.465  41.240   3.038
94772W        W66388  25.408  29.676   4.662
94773W        W66389  16.326   1.310  13.544
94774W        W66390   7.957   2.481  12.459
94775W        W66391  31.686   1.012   3.643
94776W        W66392   3.715  24.112  12.389
94777W        W66393  36.585  39.251   4.151
94778W        W66394  40.591  14.182   4.036
94779W        W66395  11.665  42.067   3.736
94780W        W66396  13.156  28.671  10.437
94781W        W66397  39.069  16.713  11.622
94782W        W66398  26.671  18.396   0.416
94783W        W66399  10.663  37.807  14.723
94784W        W66400  39.884  15.646   4.525
94785W        W66401   0.849  33.110  10.666
94786W        W66402   3.987   5.568   3.739
94787W        W66403  13.110  38.658   1.215
94788W        W66404  29.451   4.726  10.709
94789W        W66405  16.562  39.667   1.695
94790W        W66406  16.863  22.971  12.468
94791W        W66407  31.004  40.068   3.731
94792W        W66408   2.474  13.048  14.926
94793W        W66409  27.980  40.186  10.678
94794W        W66410  22.383  39.770  13.812
94795W        W66411   8.381  10.315  11.108
94796W        W66412  34.613  17.309  12.314
94797W        W66413  30.373  16.519  13.498
94798W        W66414  30.391  41.506   4.177
94799W        W66415   1.407   5.833  14.076
94800W        W66416   5.228  39.065   4.705
94801W        W66417  31.003  32.698  14.974
94802W        W66418  28.141  38.848  11.677
94803W        W66419   1.352  17.328   0.836
94804W        W66420  18.591   0.405   1.172
94805W        W66421   4.893   5.820  12.635
94806W        W66422  17.571  35.943   3.657
94807W        W66423  28.979   5.636  13.271
94808W        W66424  16.028  23.093  11.366
94809W        W66425  17.328  31.995  13.443
94810W        W66426  41.894  11.121  14.406
94811W        W66427  10.311   6.139   2.128
94812W        W66428  36.988  26.596  12.430
94813W        W66429   1.653  43.907  12.432
94814W        W66430  12.673  24.221  11.545
94815W        W66431  23.507   3.469   0.936
94816W        W66432  15.115  11.122  13.507
94817W        W66433  31.143   7.164  11.097
94818W        W66434  23.441  39.972  12.358
94819W        W66435   2.545  16.798  12.084
94820W        W66436  29.839   1.770   3.345
94821W        W66437   9.213  34.141   4.722
94822W        W66438   8.186  16.528  11.938
94823W        W66439  29.511  26.686  14.389
94824W        W66440  26.099  12.759   3.776
94825W        W66441  30.515  27.599   1.425
94826W        W66442  35.117  10.655   4.060
94827W        W66443  12.070  24.685  12.884
94828W        W66444  16.827  43.305   9.852
94829W        W66445   2.083  37.885  12.571
94830W        W66446  43.681  39.599  11.006
94831W        W66447  42.331  23.362   0.215
94832W        W66448  11.641  35.698  12.982
94833W        W66449  26.741  36.418   4.079
94834W        W66450   4.101   0.581  10.181
94835W        W66451   0.339   4.375   1.189
94836W        W66452   3.260  33.431  12.577
94837W        W66453   3.665  15.035   2.294
94838W        W66454  11.806  16.816   0.855
94839W        W66455  15.255   5.911   2.341
94840W        W66456  25.110  28.453   2.377
94841W        W66457  38.005   3.406   2.793
94842W        W66458   4.004   7.313  14.030
94843W        W66459  37.106  38.728  12.444
94844W        W66460  30.184  12.980   4.831
94845W        W66461  44.956  32.037  13.388
94846W        W66462  17.318   9.561  12.633
94847W        W66463   2.762   9.712  10.737
94848W        W66464  31.444   6.177   0.955
94849W        W66465   4.737  31.452  11.843
94850W        W66466  28.775  19.109   2.273
94851W        W66467  43.558  30.545  10.697
94852W        W66468  41.352  30.791   3.183
94853W        W66469  30.627  19.131   3.416
94854W        W66470  39.908   6.298  13.965
94855W        W66471  29.551  37.637   0.410
94856W        W66472  13.222  29.600  10.967
94857W        W66473   3.623  29.063   2.672
94858W        W66474   2.456  13.586   1.240
94859W        W66475  40.461  19.995   3.301
94860W        W66476  43.046  13.310  10.539
94861W        W66477  41.690   7.815   1.582
94862W        W66478  31.384  29.003  12.397
94863W        W66479  15.527  23.103  11.431
94864W        W66480  40.541   8.448   1.791
94865W        W66481  42.802  12.805   4.563
94866W        W66482   1.497  39.023  14.431
94867W        W66483  30.591  38.322  10.867
94868W        W66484   2.525  13.237   0.847
94869W        W66485   5.407  22.212  12.050
94870W        W66486  25.208  43.656  12.680
94871W        W66487   4.633  15.741  11.639
94872W        W66488  20.973  13.297   3.841
94873W        W66489  10.468  13.673   4.457
94874W        W66490  39.539  16.484  11.629
94875W        W66491  15.651   3.723  11.319
94876W        W66492  19.156  19.636  10.755
94877W        W66493   1.118  33.549   5.108
94878W        W66494  37.989  27.699  12.115
94879W        W66495  17.259  40.090  13.518
94880W        W66496  24.459  29.026   3.591
94881W        W66497  40.294   6.333  10.722
94882W        W66498  10.140  22.590  13.000
94883W        W66499  41.558  13.841   4.219
94884W        W66500  10.409  42.434  14.846
94885W        W66501  29.248   8.069  14.406
94886W        W66502  37.045  16.979  12.349
94887W        W66503   1.459  27.571   4.036
94888W        W66504  38.829  10.407   0.836
94889W        W66505  35.552  40.917   3.893
94890W        W66506  37.319  27.480  12.975
94891W        W66507  24.049  24.479  14.405
94892W        W66508  32.748  44.685   0.751
94893W        W66509  34.590   8.681  10.697
94894W        W66510  43.257  29.691   2.351
94895W        W66511  16.779  28.194   1.072
94896W        W66512  29.905  35.712  12.550
94897W        W66513  18.076  25.990   2.047
94898W        W66514  26.082  20.765  11.117
94899W        W66515  27.444   3.611  11.442
94900W        W66516  27.969  22.727   5.117
94901W        W66517  30.616   0.235   3.694
94902W        W66518  26.996  33.822  11.932
94903W        W66519  42.682  40.418  13.804
94904W        W66520   4.173  12.046  12.867
94905W        W66521  13.067  16.122  10.984
94906W        W66522  37.660  16.289   1.272
94907W        W66523   3.188  27.516   0.782
94908W        W66524  31.469  40.902   2.801
94909W        W66525  35.349   9.022  14.629
94910W        W66526  40.275  17.258  14.841
94911W        W66527   2.019  16.684   1.000
94912W        W66528  27.196  12.355  10.946
94913W        W66529  14.208  16.773   3.128
94914W        W66530  17.612  39.218   3.445
94915W        W66531   7.874  24.627   4.281
94916W        W66532   4.233  14.109  11.491
94917W        W66533   4.179  22.249   1.465
94918W        W66534   6.754  19.762   4.705
94919W        W66535  42.787   1.988  13.939
94920W        W66536  26.088  28.365   4.552
94921W        W66537  25.543  15.355  11.918
94922W        W66538  43.041  35.422  10.508
94923W        W66539  15.345  38.393  13.460
94924W        W66540   2.409  43.014   3.447
94925W        W66541   1.455  32.071  12.491
94926W        W66542  33.655  38.984  11.324
94927W        W66543   0.756  22.470   1.779
94928W        W66544  44.815   1.662   2.764
94929W        W66545  14.261  18.902   3.558
94930W        W66546  29.328  16.757   1.258
94931W        W66547  16.881   3.955   4.202
94932W        W66548  42.972  35.977   2.265
94933W        W66549  40.239  32.003   0.440
94934W        W66550  33.157  35.080   0.337
94935W        W66551  29.494  35.524   1.019
94936W        W66552   6.455  23.472  12.627
94937W        W66553  24.943  42.887   0.355
94938W        W66554  16.336  16.091   5.039
94939W        W66555   4.758  21.741   1.268
94940W        W66556  26.881  19.673  10.409
94941W        W66557  25.813  19.711   1.670
94942W        W66558  28.924   3.758   3.323
94943W        W66559  18.602  31.463   1.080
94944W        W66560  35.513  33.062  10.622
94945W        W66561   1.788   2.733   1.702
94946W        W66562   0.303  32.304   3.333
94947W        W66563  41.053  14.406  11.622
94948W        W66564   4.301   8.423  10.603
94949W        W66565  30.474  25.126  14.262
94950W        W66566  19.589  44.815   4.336
94951W        W66567  25.450  32.486   1.357
94952W        W66568   4.751  28.631  12.119
94953W        W66569   7.661  42.475  12.499
94954W        W66570  44.736  27.028  11.873
94955W        W66571  20.584   3.256  13.062
94956W        W66572   5.209   9.454   0.852
94957W        W66573   9.355  12.923   1.856
94958W        W66574  17.770   8.904   2.217
94959W        W66575  32.585  22.297  13.889
94960W        W66576  19.133  24.207  14.407
94961W        W66577  41.509   2.018  14.364
94962W        W66578   5.896  42.397  14.001
94963W        W66579   1.532  19.321   0.991
94964W        W66580  10.737   7.325   2.375
94965W        W66581   3.451   4.650  14.965
94966W        W66582  23.076  11.953  12.527
94967W        W66583  43.767  18.659   3.074
94968W        W66584  13.646  25.723   0.943
94969W        W66585  35.038   8.261   1.102
94970W        W66586  42.371   7.176   0.931
94971W        W66587  13.546   5.952   2.687
94972W        W66588  29.958  28.913   4.717
94973W        W66589  32.101  14.319  12.935
94974W        W66590  19.730  40.765  13.862
94975W        W66591  39.468  43.835   2.820
94976W        W66592  16.232  15.345  10.592
94977W        W66593   0.918   4.461   4.062
94978W        W66594  41.179   0.034   0.152
94979W        W66595  13.620  41.337   3.168
94980W        W66596  42.440   6.143  11.513
94981W        W66597  14.873  36.956  14.283
94982W        W66598  42.104  25.359   1.774
94983W        W66599  33.111  19.163  10.232
94984W        W66600  44.019   6.326  13.752
94985W        W66601  15.562  41.349   2.628
94986W        W66602  18.010  29.604  14.217
94987W        W66603  23.561  38.733  14.907
94988W        W66604  24.902  29.265   4.037
94989W        W66605  25.009  35.420  10.695
94990W        W66606  34.938  27.095  12.401
94991W        W66607  14.091  24.916   2.000
94992W        W66608  15.617  25.790   1.813
94993W        W66609  36.016   5.861  10.752
94994W        W66610   0.803  27.725   2.395
94995W        W66611  21.962   4.703   4.740
94996W        W66612  23.052  11.232   3.661
94997W        W66613  36.867   9.915   3.755
94998W        W66614   0.163   7.331  13.203
94999W        W66615   6.917   8.368   2.726
95000W        W66616  33.016   2.746   0.787
95001W        W66617  23.828  27.128   2.294
95002W        W66618  12.324   9.902   3.636
95003W        W66619  34.616  31.536   4.138
95004W        W66620  20.590  33.119  11.605
95005W        W66621  29.396  12.564   1.966
95006W        W66622  33.409   7.103   9.961
95007W        W66623  38.393  36.094  11.928
95008W        W66624  38.986  15.518   4.226
95009W        W66625  24.540   0.750  12.480
95010W        W66626   9.109  18.292   1.422
95011W        W66627  20.997   1.678   2.275
95012W        W66628  29.659   3.835  13.305
95013W        W66629   0.172  32.566   3.771
95014W        W66630  28.730  34.006  11.652
95015W        W66631   1.880  12.067  14.153
95016W        W66632   8.102  44.418   2.867
95017W        W66633   8.300  41.397  13.471
95018W        W66634   7.358  15.808   2.414
95019W        W66635  41.334   5.705   0.053
95020W        W66636  18.499   7.974   4.061
95021W        W66637  44.946  29.912   5.035
95022W        W66638  34.625   3.569  11.067
95023W        W66639  38.911  41.570  12.760
95024W        W66640  23.598  36.511   0.290
95025W        W66641   3.391  13.696   3.339
95026W        W66642  14.594  13.682  10.961
95027W        W66643   6.207  20.764  12.549
95028W        W66644  22.487  27.738  12.283
95029W        W66645  21.730  25.755   0.405
95030W        W66646  35.937  17.284   3.696
95031W        W66647  20.507  13.651   4.194
95032W        W66648  41.294  36.478   1.238
95033W        W66649   6.635   8.248   4.802
95034W        W66650  35.652  31.358   3.188
95035W        W66651  37.353   9.514  13.571
95036W        W66652  18.300  42.948   3.668
95037W        W66653   4.962  15.355  11.616
95038W        W66654  17.245  10.805   3.645
95039W        W66655  32.811  25.663  12.856
95040W        W66656   9.270  21.546   0.114
95041W        W66657   9.145   2.160  11.690
95042W        W66658  42.601   5.115  11.533
95043W        W66659   0.787  28.799  14.330
95044W        W66660  33.962  21.719  13.097
95045W        W66661  36.502  39.373   2.282
95046W        W66662  40.891  13.572  12.065
95047W        W66663   6.927  23.769   4.494
95048W        W66664  22.499   7.259  10.938
95049W        W66665   8.856  39.384  12.596
95050W        W66666  15.737   8.872  11.930
95051W        W66667  27.001  15.832   4.074
95052W        W66668  15.065   6.840   0.866
95053W        W66669  36.809  22.473   2.746
95054W        W66670  34.432  36.414   0.737
95055W        W66671  39.352  25.258   1.280
95056W        W66672  32.905  44.080  13.399
95057W        W66673  27.425  19.321  11.156
95058W        W66674  43.071  13.117   3.449
95059W        W66675  42.289   0.551  11.991
95060W        W66676  35.599  26.173  10.801
95061W        W66677  41.854   8.272   1.348
95062W        W66678  40.929  10.434  11.857
95063W        W66679  25.042  34.011  12.404
95064W        W66680  35.837   6.034   3.199
95065W        W66681   3.020   4.159  13.076
95066W        W66682  34.737  41.949  11.671
95067W        W66683  14.310  26.584  13.355
95068W        W66684  17.013  25.283   4.106
95069W        W66685  18.089  26.232   4.205
95070W        W66686  14.112  11.281  10.966
95071W        W66687   4.517  11.782   0.195
95072W        W66688  19.075  13.526  12.442
95073W        W66689   8.146  16.784  14.941
95074W        W66690  42.423   4.402   1.271
95075W        W66691  41.371   7.921  13.947
95076W        W66692  43.246  39.022   3.769
95077W        W66693   5.533  20.534  11.232
95078W        W66694  38.794  12.130   3.828
95079W        W66695  16.119   5.259  14.018
95080W        W66696  14.724  17.801  13.068
95081W        W66697  28.969  16.066   2.363
95082W        W66698  36.868  11.689   3.175
95083W        W66699   9.839  18.046   0.056
95084W        W66700  30.909  16.174  12.445
95085W        W66701  26.695  12.267   2.824
95086W        W66702  38.280   7.600   0.864
95087W        W66703  18.509  27.458  12.452
95088W        W66704   8.375  16.830   0.413
95089W        W66705  37.560  12.601  12.891
95090W        W66706  32.081   1.381   4.408
95091W        W66707  28.501   8.516   0.389
95092W        W66708  38.068  43.450  13.905
95093W        W66709  24.589  44.793  13.575
95094W        W66710   2.478  26.172   3.642
95095W        W66711  21.786  26.983  13.787
95096W        W66712  25.684  30.156  11.267
95097W        W66713  16.923  41.975  11.212
95098W        W66714  41.961  44.505   2.839
95099W        W66715  43.711  19.592   4.210
95100W        W66716  26.520  26.148  12.519
95101W        W66717  29.320  43.285  14.264
95102W        W66718  28.957  37.957   3.805
95103W        W66719  41.900  30.706  14.521
95104W        W66720  22.550  23.186   2.817
95105W        W66721   3.327  34.898   3.680
95106W        W66722  36.622  10.194  13.345
95107W        W66723   6.277  21.105  12.179
95108W        W66724  27.250  19.572  10.761
95109W        W66725  28.456   2.481   0.211
95110W        W66726  15.697  28.002   1.941
95111W        W66727  23.465  10.138  13.396
95112W        W66728  34.854  25.732  11.158
95113W        W66729  29.671  28.163  12.471
95114W        W66730  10.649  37.312  12.939
95115W        W66731   2.958  41.571   3.806
95116W        W66732  38.906  32.899   0.969
95117W        W66733  26.543  17.831   1.696
95118W        W66734  21.310  32.113   0.819
95119W        W66735   8.875  31.627   0.332
95120W        W66736  22.643   4.754   0.742
95121W        W66737  27.110   1.617   2.622
95122W        W66738   4.536   8.185  12.609
95123W        W66739  22.043  31.732   4.625
95124W        W66740  19.799  33.091   4.791
95125W        W66741  38.340  42.060   4.748
95126W        W66742  38.733  10.297  10.349
95127W        W66743  30.903   3.845   0.855
95128W        W66744   6.956   1.333  13.523
95129W        W66745  38.299  37.522   0.810
95130W        W66746  30.547  12.744   4.090
95131W        W66747   8.715  30.654  10.603
95132W        W66748  40.106  35.392  12.465
95133W        W66749   0.409  33.596   3.743
95134W        W66750  10.237  28.673  14.447
95135W        W66751  20.246  44.118  10.456
95136W        W66752   1.477  20.113  14.997
95137W        W66753   0.462  31.132   2.649
95138W        W66754  40.254  39.365  10.947
95139W        W66755   6.986  42.841  12.078
95140W        W66756  28.584  38.899   1.439
95141W        W66757   4.358  31.684   0.897
95142W        W66758  25.970  14.583   1.009
95143W        W66759  42.991  30.693  14.387
95144W        W66760   6.256   7.967  12.593
95145W        W66761   1.015   9.270  14.859
95146W        W66762  36.764   8.312   1.226
95147W        W66763  16.526  44.296  12.644
95148W        W66764  37.415  17.525   0.806
95149W        W66765  30.106  38.356   2.787
95150W        W66766  26.114  20.628  10.594
95151W        W66767  41.331  11.319  11.098
95152W        W66768  12.039  16.000  13.212
95153W        W66769  44.995  25.734  10.553
95154W        W66770  31.246  22.308  13.540
95155W        W66771  23.648   5.603  14.986
95156W        W66772  16.607  34.471   3.339
95157W        W66773  27.634  32.862  11.024
95158W        W66774  16.657   8.318  12.153
95159W        W66775  41.099  13.158   3.326
95160W        W66776  36.813  27.282  14.380
95161W        W66777  27.946   2.805   4.698
95162W        W66778  34.314  24.830   1.239
95163W        W66779   5.489  31.919   3.740
95164W        W66780   1.836  20.098   4.450
95165W        W66781  22.591   5.424   0.464
95166W        W66782  11.702  16.265   2.421
95167W        W66783  19.387   1.156   1.769
95168W        W66784  20.585  15.059  14.890
95169W        W66785   8.572  24.489   0.533
95170W        W66786  19.142  41.379   3.235
95171W        W66787  13.630   9.761   4.877
95172W        W66788  15.049  41.445   1.284
95173W        W66789  23.664  11.996  14.250
95174W        W66790  15.244   7.333   2.749
95175W        W66791  28.990  18.394  11.542
95176W        W66792  40.281  36.018  11.083
95177W        W66793  26.047  15.491  14.856
95178W        W66794   0.129   0.954  14.940
95179W        W66795  31.424  33.995  11.662
95180W        W66796  31.908  16.322  13.055
95181W        W66797  40.024  41.324   1.799
95182W        W66798  22.109  35.922  13.238
95183W        W66799  16.557  42.175   4.648
95184W        W66800   0.231  19.231   2.655
95185W        W66801  33.132   7.787  12.562
95186W        W66802  38.488  12.923  10.729
95187W        W66803  32.876  39.758   1.251
95188W        W66804  19.176  44.889   5.094
95189W        W66805  17.793  38.226   4.582
95190W        W66806  10.403  29.623   0.868
95191W        W66807   1.368  21.744  14.011
95192W        W66808  32.435   1.447   4.039
95193W        W66809  31.994  44.275  11.916
95194W        W66810  36.496  18.267  14.092
95195W        W66811   1.828  24.529   5.344
95196W        W66812  33.587  19.680  14.436
95197W        W66813  17.100  27.533  12.487
95198W        W66814  15.054  38.959  12.522
95199W        W66815  28.726  27.671   5.465
95200W        W66816  18.199  14.769   0.067
95201W        W66817  21.522  10.804   0.214
95202W        W66818  31.597  31.417  12.885
95203W        W66819   0.100  37.729   5.579
95204W        W66820  24.970   9.194   4.610
95205W        W66821  28.062  13.820   3.343
95206W        W66822  30.676  10.289  12.820
95207W        W66823  28.691   9.356  10.701
95208W        W66824  33.088  29.589   2.946
95209W        W66825  37.026  33.263  12.910
95210W        W66826   6.656   7.780   0.270
95211W        W66827   9.391  17.083  12.041
95212W        W66828  36.567  37.724   1.000
95213W        W66829  12.941  16.073   1.809
95214W        W66830  22.958  36.133  11.562
95215W        W66831  32.606  16.125  10.783
95216W        W66832  31.196   2.798  14.332
95217W        W66833  18.667   1.232  11.532
95218W        W66834  10.577   0.482   1.186
95219W        W66835   6.679  41.883  10.894
95220W        W66836  24.216   7.673   0.011
95221W        W66837  31.452   6.251  13.118
95222W        W66838  35.042  23.209  13.882
95223W        W66839  26.544  32.725   0.490
95224W        W66840   5.330  25.838  11.548
95225W        W66841  30.103   2.143   2.696
95226W        W66842  12.715  17.172  11.633
95227W        W66843   2.652  22.261   3.794
95228W        W66844   4.262   3.860  12.711
95229W        W66845  35.145  32.115  14.574
95230W        W66846  25.065   4.844  11.959
95231W        W66847  43.928  26.137   2.077
95232W        W66848  32.048  44.850  12.965
95233W        W66849  20.094   5.605   1.156
95234W        W66850  39.547   4.379   4.353
95235W        W66851  41.470  30.756   1.850
95236W        W66852  13.809  43.195   2.442
95237W        W66853  15.627  20.826   0.970
95238W        W66854  23.644   0.371   1.551
95239W        W66855   5.934   8.310   4.053
95240W        W66856  28.342  21.779  14.000
95241W        W66857  10.477  36.894   0.502
95242W        W66858  22.554  32.455   2.397
95243W        W66859  12.347  36.015   1.841
95244W        W66860  24.485  41.009   4.829
95245W        W66861  41.331  44.466  11.526
95246W        W66862  34.101  26.755  14.993
95247W        W66863  29.528  17.989  12.141
95248W        W66864  27.188   5.471   4.895
95249W        W66865  44.367  36.096   0.029
95250W        W66866   4.829   9.688  10.122
95251W        W66867  30.112  34.338  13.068
95252W        W66868  26.225  39.428  13.311
95253W        W66869  43.480   3.902   3.629
95254W        W66870  30.156  42.777   3.235
95255W        W66871  32.273   9.722   0.402
95256W        W66872  38.360   5.953   1.382
95257W        W66873  40.949  41.473   0.821
95258W        W66874  32.105  15.033  13.882
95259W        W66875  38.408  24.114   3.134
95260W        W66876   0.248  28.464   0.469
95261W        W66877  29.429  28.618  12.536
95262W        W66878  34.415  32.974   1.718
95263W        W66879  13.384  20.745   4.884
95264W        W66880  22.751  44.438   2.675
95265W        W66881   3.957  42.410  11.950
95266W        W66882   7.823  17.116   2.542
95267W        W66883   5.720  11.883  14.516
95268W        W66884  15.334   7.609   1.168
95269W        W66885  34.592  17.226   2.518
95270W        W66886  29.701  33.997  12.506
95271W        W66887  23.025  16.837  12.928
95272W        W66888  42.851  34.546   4.322
95273W        W66889  17.663   2.401  14.734
95274W        W66890   6.687  44.977  13.447
95275W        W66891  37.879  10.150  10.537
95276W        W66892  39.771  15.434  14.889
95277W        W66893  17.180  38.597   1.281
95278W        W66894  38.047   2.730   0.932
95279W        W66895  21.954  17.796   4.483
95280W        W66896  30.884  44.418  11.050
95281W        W66897  30.936  42.296   2.215
95282W        W66898   0.858  11.610  14.438
95283W        W66899  22.034  30.721  10.755
95284W        W66900   3.914  37.793   4.138
95285W        W66901  14.498  24.049   1.463
95286W        W66902  22.480  21.958   4.241
95287W        W66903  19.684  24.080   2.793
95288W        W66904  17.318   1.702  10.567
95289W        W66905  39.016  44.791   1.899
95290W        W66906  44.993  35.620   2.643
95291W        W66907  27.938   8.909  12.477
95292W        W66908  29.905  36.564  14.727
95293W        W66909  39.757  31.689   2.406
95294W        W66910  30.164  44.000   2.551
95295W        W66911  27.724  28.573   2.691
95296W        W66912   6.173  20.830  13.526
95297W        W66913  19.606  28.982   1.496
95298W        W66914  11.398  11.472   3.567
95299W        W66915   6.974  43.732  14.393
95300W        W66916  44.904  33.265  11.136
95301W        W66917  27.081  40.962   4.005
95302W        W66918   7.664  13.353   3.388
95303W        W66919  17.195  28.774  11.615
95304W        W66920   4.704  29.654  10.594
95305W        W66921  28.971  22.141  11.119
95306W        W66922  29.113  37.976   1.310
95307W        W66923  15.392  41.857  11.035
95308W        W66924  37.805  34.370  11.984
95309W        W66925  13.603  40.286   2.212
95310W        W66926  41.495  39.732   1.785
95311W        W66927  37.095  38.113  13.893
95312W        W66928   9.290  26.113   2.018
95313W        W66929  11.858  33.092  10.956
95314W        W66930  31.768   2.370   5.531
95315W        W66931  35.400  42.071   0.857
95316W        W66932  44.426  10.901  13.837
95317W        W66933  27.535  25.747  11.124
95318W        W66934  42.461  29.752  10.933
95319W        W66935  38.336  44.935  11.772
95320W        W66936   6.014   6.227  14.516
95321W        W66937   7.315  30.627  14.325
95322W        W66938  24.209  41.954   2.912
95323W        W66939  42.571  27.111  10.640
95324W        W66940  20.198  15.936  13.327
95325W        W66941  42.303  10.645  12.512
95326W        W66942  28.543  25.182  11.541
95327W        W66943   9.311  41.868   4.744
95328W        W66944   9.201   7.944   0.093
95329W        W66945  14.157  13.193   3.899
95330W        W66946  41.662  13.782   0.449
95331W        W66947  19.869   8.252   3.778
95332W        W66948  38.980  13.616  14.208
95333W        W66949  11.737  27.163   4.747
95334W        W66950   4.773  25.768  13.123
95335W        W66951  32.726  42.767   2.209
95336W        W66952  44.027   6.337  12.017
95337W        W66953   1.984  40.851  12.367
95338W        W66954  33.078  11.755   2.005
95339W        W66955   8.453  14.872  14.873
95340W        W66956  23.321   9.750   1.047
95341W        W66957   4.080   8.834   9.936
95342W        W66958  38.276  41.941  11.614
95343W        W66959  20.163   7.863   0.914
95344W        W66960  30.781  11.705   4.283
95345W        W66961  30.731   8.289  13.629
95346W        W66962   8.160  42.061  13.916
95347W        W66963  43.961  29.858  13.373
95348W        W66964  11.408  29.636  12.022
95349W        W66965  32.333  32.010  12.004
95350W        W66966  26.731   2.410  14.072
95351W        W66967  39.212   1.636   1.370
95352W        W66968   0.187  33.028   0.732
95353W        W66969  35.902  20.200  13.623
95354W        W66970  16.663  22.421  11.484
95355W        W66971  26.897   6.821  13.961
95356W        W66972   0.186  14.234  11.754
95357W        W66973  33.855  12.588  12.441
95358W        W66974   5.241  26.918   2.379
95359W        W66975   9.051   6.831  12.448
95360W        W66976  33.197  18.863  14.268
95361W        W66977  34.575   9.882  12.066
95362W        W66978  17.217   2.443  11.709
95363W        W66979  40.748   6.744   4.582
95364W        W66980  31.525  28.645   3.146
95365W        W66981  15.141  18.709  12.982
95366W        W66982  10.392  18.770  14.736
95367W        W66983  11.596  42.177   1.216
95368W        W66984  25.432  17.610  10.408
95369W        W66985  29.940  31.356   1.019
95370W        W66986  29.945  37.469  14.123
95371W        W66987  37.378   3.986   1.789
95372W        W66988  35.607  10.304   2.171
95373W        W66989  22.518  36.999  12.582
95374W        W66990  44.947   6.203   3.324
95375W        W66991  37.836  17.234  12.931
95376W        W66992  39.278  22.233  13.897
95377W        W66993  38.005  27.183   3.339
95378W        W66994  33.560   6.702  11.474
95379W        W66995   9.625  28.720  12.380
95380W        W66996  37.797  11.508  14.806
95381W        W66997   0.527   2.400  12.474
95382W        W66998  16.363  19.006  12.878
95383W        W66999  39.649   1.355   1.469
95384W        W67000  13.317   0.682   2.419
95385W        W67001   9.726   3.930   2.670
95386W        W67002  29.465  31.921  13.880
95387W        W67003  36.760  22.702  13.667
95388W        W67004   2.672  37.443   4.162
95389W        W67005  14.298   6.758  11.303
95390W        W67006  35.475  22.702   0.092
95391W        W67007  24.086  27.205   0.262
95392W        W67008  34.309  26.318  11.011
95393W        W67009  42.009  15.317  10.695
95394W        W67010  22.635  17.572   3.744
95395W        W67011  38.156  30.309   0.475
95396W        W67012   7.887  28.034   2.942
95397W        W67013   4.451  10.493   4.592
95398W        W67014  25.775  24.038   3.901
95399W        W67015  36.439  36.053   2.211
95400W        W67016  20.745  33.433  11.130
95401W        W67017   6.469  20.019  14.739
95402W        W67018  19.328  21.740   4.490
95403W        W67019  42.469  27.552   3.251
95404W        W67020   1.664  31.738   1.189
95405W        W67021  36.487  40.217  14.912
95406W        W67022  13.110  22.423  11.577
95407W        W67023  14.979   1.701  13.713
95408W        W67024  11.307  13.380   2.356
95409W        W67025  28.153  30.634   0.928
95410W        W67026  36.535  41.339  12.328
95411W        W67027  30.374  12.543   0.903
95412W        W67028  16.653  29.988   3.078
95413W        W67029  26.945  30.444   2.008
95414W        W67030  20.051   4.451  14.915
95415W        W67031   0.979   5.181  14.377
95416W        W67032  13.319  26.363  10.206
95417W        W67033  16.711  40.323   0.306
95418W        W67034  39.033  17.743  13.422
95419W        W67035   5.935  11.666   0.491
95420W        W67036   9.152   3.456  14.257
95421W        W67037  22.785  31.989  14.390
95422W        W67038   9.540  31.222  11.452
95423W        W67039  27.152  39.250   1.129
95424W        W67040   1.306  44.463   3.375
95425W        W67041  23.278  36.952   0.462
95426W        W67042   0.523   9.169   1.347
95427W        W67043  18.279  11.166   0.330
95428W        W67044   6.189  20.055   4.701
95429W        W67045  11.430   4.910  14.553
95430W        W67046  26.574  29.098   1.697
95431W        W67047  22.635  39.594  10.770
95432W        W67048  12.922  32.107   0.613
95433W        W67049  20.614  12.078   0.706
95434W        W67050  18.278  32.449   0.415
95435W        W67051  44.515  43.289  11.587
95436W        W67052  11.769   7.867  14.284
95437W        W67053   1.304   0.332  14.105
95438W        W67054  24.769  14.209  11.573
95439W        W67055  35.590  34.898  14.525
95440W        W67056  28.251  21.164   1.816
95441W        W67057  35.611  41.476  13.825
95442W        W67058   5.579  39.834  13.994
95443W        W67059  20.487  11.176  11.331
95444W        W67060   4.665  40.501   1.285
95445W        W67061  33.660  36.936  12.488
95446W        W67062  39.044  10.689   5.039
95447W        W67063  23.344  10.382   2.160
95448W        W67064  12.730  29.383   0.772
95449W        W67065  30.296  43.898   4.258
95450W        W67066   9.972   5.370  11.450
95451W        W67067   9.712  20.743  11.136
95452W        W67068  21.590   7.945   4.590
95453W        W67069  16.119   3.856  12.855
95454W        W67070   7.646   7.553  11.216
95455W        W67071  23.044   7.093   0.313
95456W        W67072  34.481  41.575   2.789
95457W        W67073  32.505  27.169  12.401
95458W        W67074  34.838  12.485  12.720
95459W        W67075  41.896  34.885   3.260
95460W        W67076  15.060  11.229  12.859
95461W        W67077   2.965  39.536  11.173
95462W        W67078  35.964   0.450   2.648
95463W        W67079  34.677   2.767   0.588
95464W        W67080  22.083  20.219  14.006
95465W        W67081  40.671  34.797   1.166
95466W        W67082  18.254  24.038   0.465
95467W        W67083  44.939  39.412   1.919
95468W        W67084  38.258  14.046  12.908
95469W        W67085  44.741   7.325   2.354
95470W        W67086  17.278  20.186  14.704
95471W        W67087   7.747  40.406  10.959
95472W        W67088  37.991  22.527   0.239
95473W        W67089   8.285  38.334   3.902
95474W        W67090  39.996  36.964   0.450
95475W        W67091  29.987  26.606   9.938
95476W        W67092  17.309  14.649  12.936
95477W        W67093  37.002   4.771   4.558
95478W        W67094  30.067  38.566  10.929
95479W        W67095   1.621   5.872  13.620
95480W        W67096  35.308  44.348  12.014
95481W        W67097  18.690  33.144  14.447
95482W        W67098  34.706  31.081   1.368
95483W        W67099  28.116  30.277  10.294
95484W        W67100   9.279  39.327  14.734
95485W        W67101   9.878  32.824   2.741
95486W        W67102  13.134  10.675  12.417
95487W        W67103  21.150   1.738   0.221
95488W        W67104  40.835   7.941  11.697
95489W        W67105  24.164  33.431  14.774
95490W        W67106  35.325  37.918   0.891
95491W        W67107  19.689  41.490  12.587
95492W        W67108  17.972  22.041  11.097
95493W        W67109  10.517  28.292   2.248
95494W        W67110  21.673  12.159   2.794
95495W        W67111  44.230   6.536   0.783
95496W        W67112  34.002  34.464   2.458
95497W        W67113  16.012  17.157  12.893
95498W        W67114  21.584  21.283   0.464
95499W        W67115   7.934  16.284   2.005
95500W        W67116  44.450  38.087  10.988
95501W        W67117  36.815  22.759   1.923
95502W        W67118  41.097  43.072  12.443
95503W        W67119  35.450   4.220   2.255
95504W        W67120  34.747  22.998   0.129
95505W        W67121  23.205   7.330  14.397
95506W        W67122  33.416  42.119  10.934
95507W        W67123  33.883  10.828  14.405
95508W        W67124  23.592  17.623  13.000
95509W        W67125  24.441  25.087  13.687
95510W        W67126  41.369   9.369   3.983
95511W        W67127  13.331  36.259   2.144
95512W        W67128  12.594  38.450   1.955
95513W        W67129  37.036  33.576   0.703
95514W        W67130  19.844  39.913  14.826
95515W        W67131  44.042  29.499  13.031
95516W        W67132  36.190   0.872  11.452
95517W        W67133   9.862   8.673  14.159
95518W        W67134  23.645  29.871  13.084
95519W        W67135  11.559  41.981  14.847
95520W        W67136  25.104  11.436   1.553
95521W        W67137  22.457  22.687  11.921
95522W        W67138  19.756  33.646  10.667
95523W        W67139  14.565  13.228  12.926
95524W        W67140   4.701  43.192   3.704
95525W        W67141  29.238  36.847  14.378
95526W        W67142  43.489   0.417   2.912
95527W        W67143  25.295  28.554   1.896
95528W        W67144  23.599  35.942  12.515
95529W        W67145   4.969  10.018   3.124
95530W        W67146  32.111  22.671  13.315
95531W        W67147  13.349   1.698   3.183
95532W        W67148  42.442  41.387  11.653
95533W        W67149   0.817  10.221   5.235
95534W        W67150   9.846   2.932   2.441
95535W        W67151   2.223  44.116  11.096
95536W        W67152  31.995   9.996  12.728
95537W        W67153  39.653   7.188   3.059
95538W        W67154  37.851  37.459   2.665
95539W        W67155   6.574  44.676   2.295
95540W        W67156  40.560  10.354  10.450
95541W        W67157  25.489   2.523   4.354
95542W        W67158   3.323  25.933  13.821
95543W        W67159  25.924   7.404   4.357
95544W        W67160  19.412  27.935  12.082
95545W        W67161  38.853  22.587  13.019
95546W        W67162  39.507  44.898   4.668
95547W        W67163   8.590  22.161  14.351
95548W        W67164  12.307  41.693   0.781
95549W        W67165  42.353  12.094  11.533
95550W        W67166  27.511  36.558  14.673
95551W        W67167  27.631   9.850  10.861
95552W        W67168  25.147  11.865   2.866
95553W        W67169  31.650   6.328  14.166
95554W        W67170  36.510  39.071  10.691
95555W        W67171  36.523  18.068   0.995
95556W        W67172  10.650  40.515   1.618
95557W        W67173  31.560  41.142   2.333
95558W        W67174  30.692  36.987   3.791
95559W        W67175   3.459  11.339   2.193
95560W        W67176  30.044  39.408   4.474
95561W        W67177  28.171  30.583  10.733
95562W        W67178  24.792  34.489  12.493
95563W        W67179   3.367  31.020   2.634
95564W        W67180  40.732  43.255  10.872
95565W        W67181  31.490   1.500  12.055
95566W        W67182   0.681  16.218  11.022
95567W        W67183  30.402  28.711   2.170
95568W        W67184  28.605  27.459  14.954
95569W        W67185   1.201  36.840  13.528
95570W        W67186  32.911  40.347   4.409
95571W        W67187  19.445  21.266  11.187
95572W        W67188   7.320  16.075  10.759
95573W        W67189  10.039   5.914   0.788
95574W        W67190   8.676  30.604   2.320
95575W        W67191  34.507  28.160  11.498
95576W        W67192  38.334  13.536   3.537
95577W        W67193  25.780   6.942   2.658
95578W        W67194   6.655  13.567   0.457
95579W        W67195   2.691  40.475  12.013
95580W        W67196   0.801  38.924   2.339
95581W        W67197  11.552   1.840   1.426
95582W        W67198  13.401  10.860  14.618
95583W        W67199  28.502   8.159  11.554
95584W        W67200  21.818  16.332   4.282
95585W        W67201  24.687  40.505   0.348
95586W        W67202  19.418   6.905  12.123
95587W        W67203  11.641   0.260   0.305
95588W        W67204  41.848  42.398  11.447
95589W        W67205   5.831  26.609   3.355
95590W        W67206  13.998   9.327  14.385
95591W        W67207  34.509  27.679   2.654
95592W        W67208   5.487  43.914  12.883
95593W        W67209  30.491  14.813   3.207
95594W        W67210  29.319  26.119   1.452
95595W        W67211  42.683   7.768  11.675
95596W        W67212   1.866  21.707   0.851
95597W        W67213  43.799  26.082  10.393
95598W        W67214   6.683  33.067  13.390
95599W        W67215  40.800   3.442   0.848
95600W        W67216   0.237  26.178  11.864
95601W        W67217  22.123  10.802  10.864
95602W        W67218   7.462   2.922   1.530
95603W        W67219   5.311  40.412   2.699
95604W        W67220  17.259  29.691  10.585
95605W        W67221  20.235   4.975  14.983
95606W        W67222  35.311  12.538  13.926
95607W        W67223  33.762  28.098  13.921
95608W        W67224  25.009  35.849   3.341
95609W        W67225  25.719  16.930  13.661
95610W        W67226  21.054   7.544   3.812
95611W        W67227  41.360  43.927   1.751
95612W        W67228  11.298   4.818   2.701
95613W        W67229  44.761  25.363  11.959
95614W        W67230  39.569   1.374  11.966
95615W        W67231  29.438   8.720  10.406
95616W        W67232  12.162   6.371  13.045
95617W        W67233  15.113  41.230  10.745
95618W        W67234  21.703   9.890   3.171
95619W        W67235  32.085   0.302   0.319
95620W        W67236  23.181   4.404   1.316
95621W        W67237  42.340  27.953   2.415
95622W        W67238   8.930  30.664  12.558
95623W        W67239  44.901  11.278   1.467
95624W        W67240  22.979  18.552  14.836
95625W        W67241  12.503  39.127  13.545
95626W        W67242   7.264  20.566   2.667
95627W        W67243  20.645  19.289   4.767
95628W        W67244   0.226  18.736  13.907
95629W        W67245  12.103  38.944  10.964
95630W        W67246  18.782   5.989  13.967
95631W        W67247  39.063   7.301   4.165
95632W        W67248  21.027  29.555   3.672
95633W        W67249  18.570  43.925   0.804
95634W        W67250   1.725  38.431   0.235
95635W        W67251  12.679   0.192  12.814
95636W        W67252  22.007  33.123  11.435
95637W        W67253  18.666   5.163   9.775
95638W        W67254  41.859  39.577   2.319
95639W        W67255  26.936  31.502  12.382
95640W        W67256   1.050  22.613  13.886
95641W        W67257  31.085  43.815  14.352
95642W        W67258  43.289  21.091  11.583
95643W        W67259  25.033  24.607  14.391
95644W        W67260  21.942  36.075   5.033
95645W        W67261  35.393  22.231   4.218
95646W        W67262  36.829   6.040  12.868
95647W        W67263  16.501   1.211   3.625
95648W        W67264  44.770   9.428  11.652
95649W        W67265  28.617  42.374  14.286
95650W        W67266   9.412   3.614  11.187
95651W        W67267  10.766  27.082   2.650
95652W        W67268   7.499  20.231   5.056
95653W        W67269  32.891  40.421   3.572
95654W        W67270  44.236   2.493  11.963
95655W        W67271  18.722   8.159   0.640
95656W        W67272  12.215  24.880  11.107
95657W        W67273  12.059  38.519   0.442
95658W        W67274  21.037  35.495   3.797
95659W        W67275  21.105  15.865   2.736
95660W        W67276  35.581  32.157  13.625
95661W        W67277  26.684  16.154  12.463
95662W        W67278  19.695  43.819  11.852
95663W        W67279  15.710   8.892  11.380
95664W        W67280  15.655  35.034  12.327
95665W        W67281  12.083  25.560  14.409
95666W        W67282  26.153  33.932   1.776
95667W        W67283  37.807  37.301   0.827
95668W        W67284   0.290  11.236  13.465
95669W        W67285  40.858  11.296  11.243
95670W        W67286  11.672  30.700  10.304
95671W        W67287  10.289  18.106  13.528
95672W        W67288   0.034  38.903  13.441
95673W        W67289  29.472  21.870   1.438
95674W        W67290  38.059  11.159   0.086
95675W        W67291  42.633  41.249   9.939
95676W        W67292  34.398   7.109  10.692
95677W        W67293  12.321  36.093   0.047
95678W        W67294  32.037  41.649  11.177
95679W        W67295  34.076  30.573  11.118
95680W        W67296  36.956  18.917   2.664
95681W        W67297  14.151  24.641   3.814
95682W        W67298  33.892  31.459   1.439
95683W        W67299  34.888  26.722  10.275
95684W        W67300  33.405  14.806   4.849
95685W        W67301  19.305  31.913   1.117
95686W        W67302  16.527  13.414   3.718
95687W        W67303  17.304   1.402  12.376
95688W        W67304   3.368  17.312   2.299
95689W        W67305   8.379  20.209   3.082
95690W        W67306  44.475  42.289   0.753
95691W        W67307  20.492  33.230  14.897
95692W        W67308  18.671  28.015  11.467
95693W        W67309   2.421  35.634  10.679
95694W        W67310  33.162   2.419   3.624
95695W        W67311   1.739  30.377   0.690
95696W        W67312   4.682  26.481   4.138
95697W        W67313  11.589  25.442   2.245
95698W        W67314  15.527  42.392   1.316
95699W        W67315  24.490  31.035   1.398
95700W        W67316  16.362  33.210  11.907
95701W        W67317  14.659  30.797   4.064
95702W        W67318  44.738  11.138  11.444
95703W        W67319  27.586   0.196   0.748
95704W        W67320  28.939  38.006  10.873
95705W        W67321  40.998   8.816  12.174
95706W        W67322  10.087  32.393  13.350
95707W        W67323  23.675   9.253   0.337
95708W        W67324  11.330  30.938   1.802
95709W        W67325  20.672  38.867   0.399
95710W        W67326  23.025  18.718   3.733
95711W        W67327  20.754  44.179   3.095
95712W        W67328   5.181  19.829   3.186
95713W        W67329   2.945  36.136  11.204
95714W        W67330   2.955  16.989   4.402
95715W        W67331   7.270  19.697   2.178
95716W        W67332  42.339  40.937  14.123
95717W        W67333   4.018  15.302  10.988
95718W        W67334  26.591  30.990   0.907
95719W        W67335  14.479   6.424  10.145
95720W        W67336  27.623  37.791  11.125
95721W        W67337  14.412  29.562  14.288
95722W        W67338  37.915  25.318   3.174
95723W        W67339  28.556  27.704  14.494
95724W        W67340  14.422  24.073   1.976
95725W        W67341  13.216  32.801   4.450
95726W        W67342   5.217  21.054   9.789
95727W        W67343  13.726  44.325  14.487
95728W        W67344   0.704  43.825   4.383
95729W        W67345   0.832   0.250   0.473
95730W        W67346   7.307  18.431  13.228
95731W        W67347  28.506  35.339  14.538
95732W        W67348  43.218   0.896   0.306
95733W        W67349  24.454  40.260  12.374
95734W        W67350  20.646  42.459  12.470
95735W        W67351  18.251  41.999   2.643
95736W        W67352  34.641   6.739   4.104
95737W        W67353  35.626  26.179  13.359
95738W        W67354  33.419  17.562  12.912
95739W        W67355   0.400  25.552  12.596
95740W        W67356   2.369  41.237   4.565
95741W        W67357   5.218  17.819  14.544
95742W        W67358  33.481  37.888   2.415
95743W        W67359  34.829  32.489   4.266
95744W        W67360  21.624  15.723   5.106
95745W        W67361  34.056  33.093   4.531
95746W        W67362  24.110  22.675   4.344
95747W        W67363  41.940  31.319   4.635
95748W        W67364  10.330   3.038  14.520
95749W        W67365   5.740  19.187   1.733
95750W        W67366  23.033  32.488   3.627
95751W        W67367  21.659  38.912   3.223
95752W        W67368  40.279  22.149   4.138
95753W        W67369   0.480  14.108  13.586
95754W        W67370  26.434  44.499  13.880
95755W        W67371  10.226  33.660   2.767
95756W        W67372  23.756  10.561  14.997
95757W        W67373  22.305  35.323  14.502
95758W        W67374  31.607  30.776   5.630
95759W        W67375  38.187   2.636  11.099
95760W        W67376  16.666  15.541   2.442
95761W        W67377  38.918  22.902  14.361
95762W        W67378  21.896  35.604   2.667
95763W        W67379   9.379  26.303  12.437
95764W        W67380  27.917  16.411   5.378
95765W        W67381  36.438   7.441  14.412
95766W        W67382   9.605   8.215   0.955
95767W        W67383  37.374  14.775  11.704
95768W        W67384   3.394  42.938  10.958
95769W        W67385  37.752   5.295  10.568
95770W        W67386  19.080  11.861   2.802
95771W        W67387  39.466   9.082   3.197
95772W        W67388  14.571   2.879   0.880
95773W        W67389  15.605  41.336  13.802
95774W        W67390  13.293  26.247   2.595
95775W        W67391  34.148  27.522   3.524
95776W        W67392   2.947   1.794   1.754
95777W        W67393  17.689   5.375   2.389
95778W        W67394   4.758   0.802   4.655
95779W        W67395  23.701  15.360   3.697
95780W        W67396  24.169  43.030  13.891
95781W        W67397   5.272  44.848   1.848
95782W        W67398  43.093  18.361  13.621
95783W        W67399  25.694   4.211   1.279
95784W        W67400   1.514  22.022  13.051
95785W        W67401  25.060  34.576   3.674
95786W        W67402  41.449  31.662   4.152
95787W        W67403   0.747  16.505   3.284
95788W        W67404  35.638  22.549  11.995
95789W        W67405  35.674  23.553   4.237
95790W        W67406   7.159  20.125   0.720
95791W        W67407  34.438  22.267  14.754
95792W        W67408   6.600  31.359   0.772
95793W        W67409  40.918  33.360  14.546
95794W        W67410  30.596  25.619   0.137
95795W        W67411  19.297  44.228  11.941
95796W        W67412   4.233  40.438   3.839
95797W        W67413  11.799  42.408   0.792
95798W        W67414  10.363  41.418   3.586
95799W        W67415   6.765  28.854   1.483
95800W        W67416   1.711  10.643  13.918
95801W        W67417   3.710  24.714  13.903
95802W        W67418  36.501  41.947  12.930
95803W        W67419   6.631  42.877  10.766
95804W        W67420  17.772  32.144   4.586
95805W        W67421  33.926   0.814  10.479
95806W        W67422  42.060  33.941   0.476
95807W        W67423  20.711  26.086   1.746
95808W        W67424  36.844   7.309   3.696
95809W        W67425  23.044  15.571  12.703
95810W        W67426  29.544  31.884  10.821
95811W        W67427  14.407   0.390  13.597
95812W        W67428  23.193  39.308   4.095
95813W        W67429  10.137  11.900   4.193
95814W        W67430  11.080  33.492   1.892
95815W        W67431  43.014  18.607   4.632
95816W        W67432  39.243  35.048   0.907
95817W        W67433  32.119  20.228   0.508
95818W        W67434  10.605   4.808  11.178
95819W        W67435  33.092  44.079   4.921
95820W        W67436  24.568  35.504   0.671
95821W        W67437  16.694  37.643  12.852
95822W        W67438   2.396  42.272  12.946
95823W        W67439  26.602  20.770   3.471
95824W        W67440   1.873  40.259  13.834
95825W        W67441   0.852  19.566  13.890
95826W        W67442  14.625   3.963  11.010
95827W        W67443  44.871  21.777  11.053
95828W        W67444  33.559   2.825   0.857
95829W        W67445  30.058   4.579   2.287
95830W        W67446  42.550   4.338   4.825
95831W        W67447  29.245  31.405  12.978
95832W        W67448   6.220  23.057  14.691
95833W        W67449  25.243  15.781   1.197
95834W        W67450   1.320  15.075   0.684
95835W        W67451  12.735  37.307  13.943
95836W        W67452  44.825   5.137   1.494
95837W        W67453  24.674  36.968   3.576
95838W        W67454  28.590  43.519   1.932
95839W        W67455   6.227  14.488  13.360
95840W        W67456  17.609  32.724  11.561
95841W        W67457  28.738  23.077   0.830
95842W        W67458  21.310  29.241  13.197
95843W        W67459  37.397  44.732   2.646
95844W        W67460  10.898  35.000   1.421
95845W        W67461  28.231  28.512   0.906
95846W        W67462  25.660   2.048   4.570
95847W        W67463  15.428  40.878  13.999
95848W        W67464  18.438  43.403   5.081
95849W        W67465   4.882  34.832   1.879
95850W        W67466  13.813   2.672  11.252
95851W        W67467  20.178  21.311   3.611
95852W        W67468  35.167  29.378   3.713
95853W        W67469  25.931  35.364   1.818
95854W        W67470  15.170   6.511   4.164
95855W        W67471   3.804  35.116  14.986
95856W        W67472  43.596  25.480  12.367
95857W        W67473  13.409   9.865   3.605
95858W        W67474  37.928  33.561  11.000
95859W        W67475  18.259  17.261  11.508
95860W        W67476  25.081  37.646   2.829
95861W        W67477  29.229  31.081  14.982
95862W        W67478  24.177  37.567   1.385
95863W        W67479  39.004  29.014  14.003
95864W        W67480   6.342  26.525  11.082
95865W        W67481  30.224  36.543   1.636
95866W        W67482  26.665  13.086   3.984
95867W        W67483  42.752   8.647   4.893
95868W        W67484  25.158   3.468  13.959
95869W        W67485  23.477  18.703   0.793
95870W        W67486  10.259  12.227  11.023
95871W        W67487  34.708  19.176  13.451
95872W        W67488  42.033  30.530  10.712
95873W        W67489   1.191  44.842  14.224
95874W        W67490  29.176  37.456   3.117
95875W        W67491  43.579  15.681  12.182
95876W        W67492  25.421  17.038   4.727
95877W        W67493  41.384  26.068   0.868
95878W        W67494   6.535  33.922  13.342
95879W        W67495  26.174  27.849  13.501
95880W        W67496   7.405  22.954   2.681
95881W        W67497  24.235  44.419  12.420
95882W        W67498  42.526  42.425  13.552
95883W        W67499   3.552   5.226  11.605
95884W        W67500  39.335  13.121  12.933
95885W        W67501  12.446   5.986  13.256
95886W        W67502   4.295   9.895  12.069
95887W        W67503   5.717  22.202  10.501
95888W        W67504  33.516  29.571   0.774
95889W        W67505   9.849  41.469  14.379
95890W        W67506  13.660  21.976  11.767
95891W        W67507  22.788  22.432  12.426
95892W        W67508  16.067   4.897   0.952
95893W        W67509  24.985  11.805  10.738
95894W        W67510  37.357   8.433  14.437
95895W        W67511  23.877  20.260  12.476
95896W        W67512  16.640  43.079   5.102
95897W        W67513  19.094  24.011  12.952
95898W        W67514  12.745  10.430   1.337
95899W        W67515   9.934  18.801   3.617
95900W        W67516  16.601  18.989  10.298
95901W        W67517  31.482   1.076  14.670
95902W        W67518  18.636  35.767   5.039
95903W        W67519  14.103  17.236  13.741
95904W        W67520  30.885  34.021  11.567
95905W        W67521  37.565  43.891  11.695
95906W        W67522  16.130   0.480  10.267
95907W        W67523  17.756  19.145   0.415
95908W        W67524   9.838  36.417  14.937
95909W        W67525   0.807  18.182  12.422
95910W        W67526  11.883  13.886  11.585
95911W        W67527  33.328   4.717   4.124
95912W        W67528   4.935  30.356   0.709
95913W        W67529  39.488  11.706  11.874
95914W        W67530  32.040  40.874   4.550
95915W        W67531  35.350  20.534   0.881
95916W        W67532   1.305  37.647   3.448
95917W        W67533  24.628  10.304  10.596
95918W        W67534  30.068   5.331   0.063
95919W        W67535  44.383  37.976  11.523
95920W        W67536  26.540  24.730  11.686
95921W        W67537  32.981  14.077   2.628
95922W        W67538  29.415  40.607  11.419
95923W        W67539  23.569  36.789  12.950
95924W        W67540   1.917   9.955  14.323
95925W        W67541   4.939  19.238   4.889
95926W        W67542  27.374  28.572  12.389
95927W        W67543  31.961  38.815   2.309
95928W        W67544   3.916  10.134  14.237
95929W        W67545  23.208  41.932  13.055
95930W        W67546  31.875  25.944  12.575
95931W        W67547  16.070  30.683   0.851
95932W        W67548  19.637  21.639  12.475
95933W        W67549   1.795  23.672   1.987
95934W        W67550  35.015  27.109   0.727
95935W        W67551   6.765  20.483   1.316
95936W        W67552  11.142  11.244   3.136
95937W        W67553  34.209   8.349  13.286
95938W        W67554  21.277  32.235  14.450
95939W        W67555  18.392  35.804   0.002
95940W        W67556  17.115  28.707  13.025
95941W        W67557  31.937  24.199   3.668
95942W        W67558  11.245  18.060   2.423
95943W        W67559  14.815  18.106  12.391
95944W        W67560  17.177  39.082  11.643
95945W        W67561   5.172  32.138  10.699
95946W        W67562  41.780  35.008  13.909
95947W        W67563  37.344  44.784  14.324
95948W        W67564  34.122  41.513   2.370
95949W        W67565  18.309   1.837   1.278
95950W        W67566  24.228   5.329   2.356
95951W        W67567   6.431   5.441   3.789
95952W        W67568  10.343  31.814   9.972
95953W        W67569  22.270  20.451   0.952
95954W        W67570  17.034  34.549  10.375
95955W        W67571  21.649  30.634  13.901
95956W        W67572  27.500  14.699  14.048
95957W        W67573   5.046  41.522  14.744
95958W        W67574  34.477  40.007  13.064
95959W        W67575  33.162  40.870  13.482
95960W        W67576   4.251  31.599  11.725
95961W        W67577  12.766  19.690   4.562
95962W        W67578  34.969  28.361   4.457
95963W        W67579  36.887  33.971   4.259
95964W        W67580   5.372  35.348  12.510
95965W        W67581  33.413  10.753   2.396
95966W        W67582  16.175  28.572   0.932
95967W        W67583  12.552  34.375   3.259
95968W        W67584   0.846  23.513  13.261
95969W        W67585  40.164  21.307   2.893
95970W        W67586   3.767   5.727   3.269
95971W        W67587  35.403  35.772   4.866
95972W        W67588  35.478  38.049   2.686
95973W        W67589  17.057  12.438  12.868
95974W        W67590  27.429  10.377  12.618
95975W        W67591  11.648   7.886  10.651
95976W        W67592   4.023  40.596  14.903
95977W        W67593   5.375  31.203  13.403
95978W        W67594  34.565  24.942   4.341
95979W        W67595  33.301  22.207   4.532
95980W        W67596   0.811   4.508   0.959
95981W        W67597  28.609   4.197   4.587
95982W        W67598  32.623  30.886  11.712
95983W        W67599  13.214   4.419  12.987
95984W        W67600  44.504   9.203   0.491
95985W        W67601   8.210  10.827  12.873
95986W        W67602  11.310  17.142  13.254
95987W        W67603  26.502   8.805   0.781
95988W        W67604  10.212   4.031  14.315
95989W        W67605  11.698   7.503  12.682
95990W        W67606  11.341  33.024   2.676
95991W        W67607   2.040   7.336  14.378
95992W        W67608  26.159  25.810   1.573
95993W        W67609  27.132  16.563   1.726
95994W        W67610  16.061  29.981  14.472
95995W        W67611  27.614  44.555   3.637
95996W        W67612  26.699  37.533  10.669
95997W        W67613  28.909  18.745   4.525
95998W        W67614  43.356  18.449  14.058
95999W        W67615  32.720  24.415  12.601
96000W        W67616  15.333  36.433  10.829
96001W        W67617   2.460  31.918  14.510
96002W        W67618   8.577  18.151   2.265
96003W        W67619  35.440   3.329   4.333
96004W        W67620  42.867  30.940   4.600
96005W        W67621  41.246  27.543   2.689
96006W        W67622   2.971  34.307  10.648
96007W        W67623  32.525   4.537  13.674
96008W        W67624  20.154  13.747   3.694
96009W        W67625   7.659  32.507  15.000
96010W        W67626  10.349  25.195  12.474
96011W        W67627  34.375  38.875   0.668
96012W        W67628  11.797  42.836  10.984
96013W        W67629  40.408  15.230  12.933
96014W        W67630  42.590   8.311  12.386
96015W        W67631   1.249   9.219  12.614
96016W        W67632  20.177  33.579   0.597
96017W        W67633  24.547  33.589   0.135
96018W        W67634  33.498  13.203  13.721
96019W        W67635  15.283  21.533   1.796
96020W        W67636   8.579  32.768  13.915
96021W        W67637  43.621   8.672  12.973
96022W        W67638  10.310   9.825  14.648
96023W        W67639   7.282  17.082  13.445
96024W        W67640   9.215  19.528  14.849
96025W        W67641   9.644  43.456  13.901
96026W        W67642  13.378  31.319   4.487
96027W        W67643  25.473  43.518   2.215
96028W        W67644  40.906  38.739  12.033
96029W        W67645  14.547  16.637  12.358
96030W        W67646  12.373  43.462   2.354
96031W        W67647  19.213   3.458  13.538
96032W        W67648  31.038  36.628   4.763
96033W        W67649  43.701   8.685   1.434
96034W        W67650   8.617  18.546  11.518
96035W        W67651  41.550  30.223  12.607
96036W        W67652  23.144  41.900  10.511
96037W        W67653  22.606   7.105   4.127
96038W        W67654  16.735   4.901  10.900
96039W        W67655   9.616  18.807  13.482
96040W        W67656  40.834  25.051  13.317
96041W        W67657  30.062  42.785  10.407
96042W        W67658  41.278  30.969  11.550
96043W        W67659  30.441  24.064   1.978
96044W        W67660  41.894   9.251   4.149
96045W        W67661  28.636  26.536   3.397
96046W        W67662  33.571   9.687  10.740
96047W        W67663  17.344   2.881  13.870
96048W        W67664   0.999   1.651   3.314
96049W        W67665  25.267  10.607  10.651
96050W        W67666  14.704  27.688   4.310
96051W        W67667  37.013  21.005  11.097
96052W        W67668  43.031  36.932   2.618
96053W        W67669  13.730  37.792   4.599
96054W        W67670  29.002  35.836   3.659
96055W        W67671   4.399  21.989   5.071
96056W        W67672  25.248  35.912  13.880
96057W        W67673  13.936  32.495  11.499
96058W        W67674  34.424  26.542   4.701
96059W        W67675   2.907  14.161   0.944
96060W        W67676   4.866  41.311  12.572
96061W        W67677   7.711  10.853  12.311
96062W        W67678  31.870  23.970  10.916
96063W        W67679  10.775  43.054  14.556
96064W        W67680  44.552  32.421  12.578
96065W        W67681   7.396   4.535  11.594
96066W        W67682  13.608   6.194  13.950
96067W        W67683  33.322  25.548  11.936
96068W        W67684  21.699  36.384   2.271
96069W        W67685   2.940   8.890   2.710
96070W        W67686  11.650  34.474   1.292
96071W        W67687  30.839  41.398   2.741
96072W        W67688  12.262  12.371   0.740
96073W        W67689  14.930  23.246  12.123
96074W        W67690  35.556  37.295  12.595
96075W        W67691  14.364  33.131  13.490
96076W        W67692  34.602   0.298   1.224
96077W        W67693  41.955  30.482   2.238
96078W        W67694  32.548  43.038   4.466
96079W        W67695  12.098  24.032  14.267
96080W        W67696  11.290  18.227  13.495
96081W        W67697  12.263  40.955   2.002
96082W        W67698  13.075  32.520  13.435
96083W        W67699   1.251  17.679  13.714
96084W        W67700  13.589  42.783   0.341
96085W        W67701   9.729  29.377  12.959
96086W        W67702   4.283  41.538  14.448
96087W        W67703  37.889  39.161   4.984
96088W        W67704  26.947  31.044   1.308
96089W        W67705  43.150   3.815  14.316
96090W        W67706  19.688  19.004   0.052
96091W        W67707  34.623  37.065  12.645
96092W        W67708   2.419  11.131  13.930
96093W        W67709  21.097  26.646  11.139
96094W        W67710  21.648  14.776   0.449
96095W        W67711  37.303  35.362   3.766
96096W        W67712  12.331  20.727   0.947
96097W        W67713  38.767  36.083  14.330
96098W        W67714  15.512  26.065  11.110
96099W        W67715  34.124  19.363  14.982
96100W        W67716   0.479  14.561  14.434
96101W        W67717  18.027   4.935  12.133
96102W        W67718   1.380  34.307  14.051
96103W        W67719  10.155  24.730  11.279
96104W        W67720  37.635   8.716  14.808
96105W        W67721  43.312  20.303   1.808
96106W        W67722  25.573  12.321   1.343
96107W        W67723   9.517  19.565  10.962
96108W        W67724   6.616   8.589  14.870
96109W        W67725  15.159  25.203  11.155
96110W        W67726  32.638  38.790   1.020
96111W        W67727   5.168  30.128  12.536
96112W        W67728  30.055  11.623   2.817
96113W        W67729  33.538  40.298  11.051
96114W        W67730  26.471  17.158   2.357
96115W        W67731  30.000  10.589   2.717
96116W        W67732  21.053   0.941   3.450
96117W        W67733   5.442  29.597   2.651
96118W        W67734   6.098   0.951  13.539
96119W        W67735  25.590  10.634   3.143
96120W        W67736   6.929   0.723  13.864
96121W        W67737  16.484  18.676  14.478
96122W        W67738  39.310  35.535  14.393
96123W        W67739  43.430  14.339   0.291
96124W        W67740  14.549  28.943  13.872
96125W        W67741  42.069  22.462   4.934
96126W        W67742   7.484  31.188   0.548
96127W        W67743   4.404  20.840  10.969
96128W        W67744  33.023  20.773   1.342
96129W        W67745  26.649  20.235   3.185
96130W        W67746  37.503  28.110   1.869
96131W        W67747  26.013  27.682   0.928
96132W        W67748  18.472  39.605  12.053
96133W        W67749   9.515  23.743   1.549
96134W        W67750  27.402  15.892  11.438
96135W        W67751  24.300  18.512  11.549
96136W        W67752  35.330  11.299  10.763
96137W        W67753  32.535   1.510   9.826
96138W        W67754  22.238  12.905  11.129
96139W        W67755   3.905  32.618  10.895
96140W        W67756  43.615  21.169   4.962
96141W        W67757  24.068   4.061   3.640
96142W        W67758   9.076   1.706   0.884
96143W        W67759  10.021   8.297  12.885
96144W        W67760   0.743  26.871   2.805
96145W        W67761   0.933  39.314  10.630
96146W        W67762  28.418  33.140   4.863
96147W        W67763  41.988  27.714  14.259
96148W        W67764   3.132   6.480   1.949
96149W        W67765  23.486  27.602   3.884
96150W        W67766  44.720  34.005  12.039
96151W        W67767  39.127  21.810  11.932
96152W        W67768  13.730   0.522   2.747
96153W        W67769   8.854  22.320   3.672
96154W        W67770  17.564  12.101   1.963
96155W        W67771  44.916   8.678   3.682
96156W        W67772  28.638  30.571  14.013
96157W        W67773  16.787  16.827   4.554
96158W        W67774   0.660  28.075  11.629
96159W        W67775   6.102  17.405   3.344
96160W        W67776   0.311  21.707  11.368
96161W        W67777  12.170  32.101  11.990
96162W        W67778  39.895  36.996  14.171
96163W        W67779   9.607  33.365  12.144
96164W        W67780  20.989  27.483   1.310
96165W        W67781  36.466  25.379   4.260
96166W        W67782  38.284   4.779  14.796
96167W        W67783  32.116   3.581  13.857
96168W        W67784  22.127  39.607  12.953
96169W        W67785  40.291  28.133   4.533
96170W        W67786   0.768   5.902   1.831
96171W        W67787  22.305  15.343   3.649
96172W        W67788  27.818   8.923  10.717
96173W        W67789  21.094  12.521   3.661
96174W        W67790  33.503  30.440   3.169
96175W        W67791  37.865   8.522  12.395
96176W        W67792  29.198   2.864  14.830
96177W        W67793  29.593  12.644  13.399
96178W        W67794  16.010  22.095   0.503
96179W        W67795  22.026  25.786  10.582
96180W        W67796   3.711   6.698  13.108
96181W        W67797   2.292   3.721   4.168
96182W        W67798  32.621  14.894   1.968
96183W        W67799  42.883  40.463  13.186
96184W        W67800  35.551  31.017   4.632
96185W        W67801  44.058  26.289   1.618
96186W        W67802  34.645   0.939   2.611
96187W        W67803  24.451  10.949   0.422
96188W        W67804   7.626  35.972  12.935
96189W        W67805   5.101  15.070  12.004
96190W        W67806  21.090  37.060  10.743
96191W        W67807  14.898   6.117  10.230
96192W        W67808  30.472  18.187  13.142
96193W        W67809  27.220   5.977   4.690
96194W        W67810   1.854  37.273   3.663
96195W        W67811  14.738  34.306   1.233
96196W        W67812  37.126   2.303   0.790
96197W        W67813  36.900  21.285   0.341
96198W        W67814  15.715  12.030  12.179
96199W        W67815  14.197   4.918   2.449
96200W        W67816   7.172  19.652   4.284
96201W        W67817  44.650  19.108   1.797
96202W        W67818  16.883   9.578  14.721
96203W        W67819  28.029  21.442   3.138
96204W        W67820   8.573   9.095  14.589
96205W        W67821  12.145  11.317  11.158
96206W        W67822  21.515  39.025  12.370
96207W        W67823  40.328  40.911   1.961
96208W        W67824  10.874   6.884   4.187
96209W        W67825  25.622  25.008  14.489
96210W        W67826  10.670  41.555   2.360
96211W        W67827  12.111   7.305  12.080
96212W        W67828   5.228  20.211  12.510
96213W        W67829  37.447  10.385  11.172
96214W        W67830  14.162  19.207  10.910
96215W        W67831   8.389  15.077  13.659
96216W        W67832   0.058  41.839   2.213
96217W        W67833  40.565  31.150   3.774
96218W        W67834   9.139  26.606   3.505
96219W        W67835  10.865  40.411   2.714
96220W        W67836  20.607  34.624   0.150
96221W        W67837  19.197  10.407  10.780
96222W        W67838  37.373  18.599  12.935
96223W        W67839  21.235  27.724  13.861
96224W        W67840  30.553  29.724  12.975
96225W        W67841  38.049  30.674   3.191
96226W        W67842  28.507   4.836  12.077
96227W        W67843  25.513   7.380  10.398
96228W        W67844  17.475  12.710  11.203
96229W        W67845   6.176  24.771   4.979
96230W        W67846  24.208  26.044  12.362
96231W        W67847  34.051   5.400   1.185
96232W        W67848  37.722   9.242   0.397
96233W        W67849   1.314  28.428  13.589
96234W        W67850   4.663  31.655   1.343
96235W        W67851   1.469   3.199   1.736
96236W        W67852  26.983  35.895  11.924
96237W        W67853  19.149  38.665  13.831
96238W        W67854  13.125  27.129   2.745
96239W        W67855   8.109   3.724  10.620
96240W        W67856  23.799  23.834  14.308
96241W        W67857  26.338  12.646  13.266
96242W        W67858  17.095  17.188   4.209
96243W        W67859  33.660  17.265  13.347
96244W        W67860  33.148  25.052   3.346
96245W        W67861  25.975  39.349  12.873
96246W        W67862  11.265  27.614   1.419
96247W        W67863  12.722  24.500   1.397
96248W        W67864  15.693  16.321   9.804
96249W        W67865  29.009  26.494  10.932
96250W        W67866  36.777   1.954   4.871
96251W        W67867  42.012  23.221   2.795
96252W        W67868  29.485  17.200   0.162
96253W        W67869  10.623   8.720   2.771
96254W        W67870  15.237  32.382  11.982
96255W        W67871  15.614  10.681  14.961
96256W        W67872  44.408   4.962  13.935
96257W        W67873  21.328  11.677  11.990
96258W        W67874   9.125   9.126   3.418
96259W        W67875  26.152  12.715   1.007
96260W        W67876   2.328  11.795  14.508
96261W        W67877  26.524   1.332  10.975
96262W        W67878  13.189  29.179   0.932
96263W        W67879  25.598  29.637   3.341
96264W        W67880  21.734  43.396  14.755
96265W        W67881  22.783  16.799  12.359
96266W        W67882   4.864  30.612  11.545
96267W        W67883  34.916  29.271   0.527
96268W        W67884   8.411  12.265  11.467
96269W        W67885  37.876  23.647   2.642
96270W        W67886  27.395  36.314   1.404
96271W        W67887  27.779  44.274   4.931
96272W        W67888  20.566  35.662   4.115
96273W        W67889   9.160  26.924  11.974
96274W        W67890   0.528  18.797   1.840
96275W        W67891  24.591   8.778   4.588
96276W        W67892   6.723  20.285   4.643
96277W        W67893   7.007  40.978   4.883
96278W        W67894  20.049  20.176   3.881
96279W        W67895  16.792  18.678  13.031
96280W        W67896  43.236  43.027   4.720
96281W        W67897  28.091   2.352   4.934
96282W        W67898  33.861  39.733   3.818
96283W        W67899  37.842  44.216   4.712
96284W        W67900   6.418  27.230  14.879
96285W        W67901  38.414  40.444  14.660
96286W        W67902   3.986  24.070  11.109
96287W        W67903  31.854  14.814  12.100
96288W        W67904  13.302  31.436  11.195
96289W        W67905  13.331  42.209  14.413
96290W        W67906   3.001  22.575  14.848
96291W        W67907  36.038  42.003   4.174
96292W        W67908  24.587   1.045   1.733
96293W        W67909  41.465  32.648   3.557
96294W        W67910  16.843  24.237  14.918
96295W        W67911  17.644  22.673  10.236
96296W        W67912  38.793  43.008  11.990
96297W        W67913  24.597  29.411   2.259
96298W        W67914  38.085  40.195   2.771
96299W        W67915  41.787  17.016   0.807
96300W        W67916  31.353   9.376   1.805
96301W        W67917  27.723  29.018   4.885
96302W        W67918  13.374   0.440  14.665
96303W        W67919  40.941  22.246  11.496
96304W        W67920  17.112  17.179   9.858
96305W        W67921  36.448  35.546   3.614
96306W        W67922   2.855   8.981   1.705
96307W        W67923  41.249  40.766   0.533
96308W        W67924  22.244  17.825  13.026
96309W        W67925  23.756  16.631  13.496
96310W        W67926  27.068  12.491  14.545
96311W        W67927  23.518  29.457   2.094
96312W        W67928  37.450   0.768   1.537
96313W        W67929  23.765  37.045  13.356
96314W        W67930  42.872  13.871  10.825
96315W        W67931  42.189  24.225  13.074
96316W        W67932  26.068  35.452   0.945
96317W        W67933  11.247  21.570  11.191
96318W        W67934   2.351  39.244   1.843
96319W        W67935  40.420   1.871   3.609
96320W        W67936  20.703  28.140  11.822
96321W        W67937  43.441  20.100   3.098
96322W        W67938  39.279  30.649   1.047
96323W        W67939  14.705  33.951   2.056
96324W        W67940  41.344  32.462   1.537
96325W        W67941  27.601   0.711  10.752
96326W        W67942   4.111  36.924  13.413
96327W        W67943  42.962  33.190  11.179
96328W        W67944   7.231  37.448  13.140
96329W        W67945  26.197   4.243   1.329
96330W        W67946  36.084  13.364   1.245
96331W        W67947  23.718   2.695   3.634
96332W        W67948  23.943  15.642   0.778
96333W        W67949  41.989   8.978  12.137
96334W        W67950  15.568  12.850  12.031
96335W        W67951  20.216  35.450   1.709
96336W        W67952   0.836  12.543   1.143
96337W        W67953  43.993  13.974  13.351
96338W        W67954  39.698  24.020  10.499
96339W        W67955  19.138  14.091  11.208
96340W        W67956  11.110  23.207   1.276
96341W        W67957  23.934   8.369  11.348
96342W        W67958  34.918   5.826   0.693
96343W        W67959   4.980   7.858   0.891
96344W        W67960   2.827  36.308   3.277
96345W        W67961  36.611  21.662   0.058
96346W        W67962  13.024  21.591   1.718
96347W        W67963   7.664  13.040   0.443
96348W        W67964  43.190  17.946  12.275
96349W        W67965  21.048   4.235   2.273
96350W        W67966  24.435  17.189  12.026
96351W        W67967  12.614  12.324  14.952
96352W        W67968   7.684  41.232   1.878
96353W        W67969  35.474  15.645  13.840
96354W        W67970  20.207   9.264   0.626
96355W        W67971  17.137  37.834   2.318
96356W        W67972  38.507  31.617  11.553
96357W        W67973  26.912  10.530   1.781
96358W        W67974  28.534  22.780  13.052
96359W        W67975  18.608   5.211   0.307
96360W        W67976  11.830  14.643   4.890
96361W        W67977  12.163  26.238  13.949
96362W        W67978  24.320  15.985   0.724
96363W        W67979  19.715  17.052   4.989
96364W        W67980   4.345   2.725   4.098
96365W        W67981   0.856   0.431  10.674
96366W        W67982  19.549  38.811  10.286
96367W        W67983  30.001  31.037   3.266
96368W        W67984  30.456   1.562   4.972
96369W        W67985  31.470  20.211   4.453
96370W        W67986  13.715  39.607  10.449
96371W        W67987  17.257  27.546  14.621
96372W        W67988  17.759  29.637  10.744
96373W        W67989   8.718   4.433   3.270
96374W        W67990   5.972  17.053  13.558
96375W        W67991  10.295  10.017   0.133
96376W        W67992   6.783   4.969   1.808
96377W        W67993  30.984  31.612   2.772
96378W        W67994  13.812  13.251  14.027
96379W        W67995   7.858  27.431  14.284
96380W        W67996   0.594  21.156  13.323
96381W        W67997  29.023  13.852   5.326
96382W        W67998   8.224  23.074  12.428
96383W        W67999  19.811   1.304   3.291
96384W        W68000  42.186  16.525  12.072
96385W        W68001  16.168   1.837  12.463
96386W        W68002   6.786  16.590  10.721
96387W        W68003  38.960  23.069  11.933
96388W        W68004  29.119   9.873   2.019
96389W        W68005  41.359  44.832  12.616
96390W        W68006  37.923  13.686   0.035
96391W        W68007  20.894  11.894   4.556
96392W        W68008  35.548  33.841   2.782
96393W        W68009  31.125  30.154  12.591
96394W        W68010  17.728  25.777   1.444
96395W        W68011   2.956  26.747   3.001
96396W        W68012  11.774  19.321  10.969
96397W        W68013   0.729  33.347  12.465
96398W        W68014  32.491  44.780  12.014
96399W        W68015  23.728  21.614  13.118
96400W        W68016  37.103  23.668   2.310
96401W        W68017  44.325  15.861   2.136
96402W        W68018  23.387  24.409  11.100
96403W        W68019  15.371   9.211  14.779
96404W        W68020  20.260  33.110  12.894
96405W        W68021  24.492  30.780  10.483
96406W        W68022  10.171  41.001   3.837
96407W        W68023  29.434  11.932  13.089
96408W        W68024  41.472  41.629   3.856
96409W        W68025  31.543   9.242   4.111
96410W        W68026   0.713   7.298  10.569
96411W        W68027  36.606  24.899   4.133
96412W        W68028  24.778  42.221  14.800
96413W        W68029  32.057  12.401  14.861
96414W        W68030  39.487  15.690   4.178
96415W        W68031   6.698  29.697  11.106
96416W        W68032  23.609   6.267  12.533
96417W        W68033  29.196  33.909  14.955
96418W        W68034  35.732  23.418   0.477
96419W        W68035  40.085  19.761  14.282
96420W        W68036  32.310  36.395   3.718
96421W        W68037   3.303  26.412   4.660
96422W        W68038  23.530  43.928  12.600
96423W        W68039  34.491   0.468  13.954
96424W        W68040   6.986  41.478  10.669
96425W        W68041  32.261  44.884   0.076
96426W        W68042  32.087  34.265   1.828
96427W        W68043  43.171   7.376   4.099
96428W        W68044   1.300  10.170   4.906
96429W        W68045   7.939   3.550  12.493
96430W        W68046   4.421  19.549   2.798
96431W        W68047  17.371  21.106   3.640
96432W        W68048   8.220  10.673   3.745
96433W        W68049  44.300  29.706   0.506
96434W        W68050  32.294  42.306  12.931
96435W        W68051  24.418  13.358  12.901
96436W        W68052  16.553  44.772   0.189
96437W        W68053  18.654  37.671  12.119
96438W        W68054  35.395  14.784   1.957
96439W        W68055  16.707  34.111   3.682
96440W        W68056  27.936  41.922   2.350
96441W        W68057   0.467  22.976   5.063
96442W        W68058  27.685  10.145   3.116
96443W        W68059  44.101  23.668   3.183
96444W        W68060  16.526  37.480   3.514
96445W        W68061  24.489   2.620   4.132
96446W        W68062  25.660  16.653  14.474
96447W        W68063  31.424   9.862  14.949
96448W        W68064  15.792  31.928   4.873
96449W        W68065  39.254  41.281   4.528
96450W        W68066  24.079  40.363  14.994
96451W        W68067  42.803  27.458   1.287
96452W        W68068   1.390  12.372   3.353
96453W        W68069  41.013  21.523   3.769
96454W        W68070  42.048  21.136  14.751
96455W        W68071  32.665   2.210  11.412
96456W        W68072   4.832   8.865  13.584
96457W        W68073  16.047  11.952  13.944
96458W        W68074  10.611   8.903  11.236
96459W        W68075  31.418  28.993   1.377
96460W        W68076  23.665  38.587  13.433
96461W        W68077   8.359  33.291   2.149
96462W        W68078  42.002  38.971   4.027
96463W        W68079  32.662  30.565  13.074
96464W        W68080  44.562   6.496   2.419
96465W        W68081  35.114  22.728  12.922
96466W        W68082  25.382  15.450  11.432
96467W        W68083  33.876  21.489   0.884
96468W        W68084  41.759  44.282   3.350
96469W        W68085  15.096  11.672  14.860
96470W        W68086  18.047  29.139  12.396
96471W        W68087  21.780  31.566  11.548
96472W        W68088  35.009   2.910  10.653
96473W        W68089  40.819  13.147   2.469
96474W        W68090  23.588   7.065  13.588
96475W        W68091   9.767  11.836  11.745
96476W        W68092  19.583  10.737  13.359
96477W        W68093  44.498   0.143   3.702
96478W        W68094  33.486  44.432   9.791
96479W        W68095  40.552  39.019  14.471
96480W        W68096  17.631   1.939   2.253
96481W        W68097  35.484  28.088   0.871
96482W        W68098  14.872  41.027   1.992
96483W        W68099  20.814   7.734   5.170
96484W        W68100  17.586  21.260  13.074
96485W        W68101   9.680  33.333   2.045
96486W        W68102   3.764   0.421   0.631
96487W        W68103  16.377  39.399  11.547
96488W        W68104  39.022  35.676   2.150
96489W        W68105  44.179  11.832   4.132
96490W        W68106  28.183   8.708  14.940
96491W        W68107  39.749  31.284   0.079
96492W        W68108  33.584  38.883  10.805
96493W        W68109   0.769  18.294   3.633
96494W        W68110  21.885  32.134  11.531
96495W        W68111   5.176  27.086   1.305
96496W        W68112  31.713   1.275  10.314
96497W        W68113  30.536  31.100   3.191
96498W        W68114  37.897  29.941   4.381
96499W        W68115   2.850  16.145   3.678
96500W        W68116  22.094  28.294   3.702
96501W        W68117  17.309  21.555  13.434
96502W        W68118  11.858  16.332  11.525
96503W        W68119   3.277  15.281   4.702
96504W        W68120  44.480  18.237  13.915
96505W        W68121  27.735  41.567  11.981
96506W        W68122  44.756  34.140   0.880
96507W        W68123  33.939  21.321   0.348
96508W        W68124  37.277  19.925  13.929
96509W        W68125  18.153  22.939   0.577
96510W        W68126  18.415  42.546  12.009
96511W        W68127  15.544  22.598   1.337
96512W        W68128  26.660   6.380   2.577
96513W        W68129  22.914  20.248  12.238
96514W        W68130   0.411  12.401  10.473
96515W        W68131  31.576  10.325  12.738
96516W        W68132  21.659  19.343   2.939
96517W        W68133  21.449  23.479  12.178
96518W        W68134  25.951  42.302  13.598
96519W        W68135  40.668  17.501   0.132
96520W        W68136  31.109   0.365  10.650
96521W        W68137   3.226  43.538   9.864
96522W        W68138  26.505  43.321  11.165
96523W        W68139   7.713  19.778   1.810
96524W        W68140   0.515   5.542   3.104
96525W        W68141   8.792   8.802   3.158
96526W        W68142   3.242  29.170  11.353
96527W        W68143  39.408  29.025   1.908
96528W        W68144   6.939  34.305   3.368
96529W        W68145   2.372  13.322  10.762
96530W        W68146  37.237   9.667   9.982
96531W        W68147   3.342  16.736  12.462
96532W        W68148  16.378   8.139  12.569
96533W        W68149  10.188  41.892   3.730
96534W        W68150  14.840  25.724  11.596
96535W        W68151   1.034  35.122  14.811
96536W        W68152  23.235   2.945   2.794
96537W        W68153  12.352  31.993  13.558
96538W        W68154  22.464  27.140  12.042
96539W        W68155  38.895  28.675  14.412
96540W        W68156   9.836  40.938  12.928
96541W        W68157  15.718  22.265   0.915
96542W        W68158   5.256  39.006  14.325
96543W        W68159  18.604   8.932  12.526
96544W        W68160  33.311   8.081   4.104
96545W        W68161  29.512  25.178   1.854
96546W        W68162  30.916  37.034  14.817
96547W        W68163  26.202  37.804  12.710
96548W        W68164   5.962  23.975  14.821
96549W        W68165  36.449   5.963   0.407
96550W        W68166  43.333  28.965  10.867
96551W        W68167  28.633  19.712  10.492
96552W        W68168  23.760  18.080   9.723
96553W        W68169  31.376  16.687  13.589
96554W        W68170  18.845  39.491  13.770
96555W        W68171  29.943  27.959   1.408
96556W        W68172  13.824  38.576   4.258
96557W        W68173   5.671   7.342   1.000
96558W        W68174  10.833  39.535   1.355
96559W        W68175  23.201  25.719   3.292
96560W        W68176  31.485  34.853   4.215
96561W        W68177  18.876  31.003  10.789
96562W        W68178  16.628  34.555  14.726
96563W        W68179  30.695  27.476   0.414
96564W        W68180  36.921  36.144  12.928
96565W        W68181  26.465  10.877   2.405
96566W        W68182   8.643  16.114   0.722
96567W        W68183  15.053  40.721  12.540
96568W        W68184   8.858  41.312   2.236
96569W        W68185  16.966   8.617  11.810
96570W        W68186   8.836  21.512  14.241
96571W        W68187  42.818  30.186   0.622
96572W        W68188   3.282  31.693  12.007
96573W        W68189  10.781  41.288  12.132
96574W        W68190   0.048  31.504  10.421
96575W        W68191  26.562  11.772   2.277
96576W        W68192  25.548  14.644   5.484
96577W        W68193  22.469  33.977  14.561
96578W        W68194   4.402   7.943  10.438
96579W        W68195  19.917  23.648   3.569
96580W        W68196   1.679  20.670  11.095
96581W        W68197   5.938  16.790   4.228
96582W        W68198  40.529  34.314   0.418
96583W        W68199   8.153  39.905  12.145
96584W        W68200   7.317  25.779  12.845
96585W        W68201  35.623  44.166  14.022
96586W        W68202  19.191   8.577  14.325
96587W        W68203  23.954   6.348  14.550
96588W        W68204   2.697  37.278  12.548
96589W        W68205  43.565  28.409   1.930
96590W        W68206  28.538  15.777   2.306
96591W        W68207  32.877  12.245   2.733
96592W        W68208  18.148  14.099  11.163
96593W        W68209  26.878  15.778  13.267
96594W        W68210  35.563  33.420  11.261
96595W        W68211  42.585  13.631   1.350
96596W        W68212  15.654  39.342   3.647
96597W        W68213  12.251  26.209  13.067
96598W        W68214  12.814  16.245   0.858
96599W        W68215   3.610  30.425   3.280
96600W        W68216   2.293   1.546  11.509
96601W        W68217  29.928   9.667   3.382
96602W        W68218  41.464  43.495  11.464
96603W        W68219  38.798   5.132   2.698
96604W        W68220  10.767   5.119  14.007
96605W        W68221  39.225   0.257   0.092
96606W        W68222  39.328  33.078  12.165
96607W        W68223   2.043  30.833  10.751
96608W        W68224  23.154  36.030   1.381
96609W        W68225   3.998  23.221   4.557
96610W        W68226  38.985  33.387  14.022
96611W        W68227  28.254   0.702  14.790
96612W        W68228  25.540  22.448   4.910
96613W        W68229   0.994   0.047   4.478
96614W        W68230  30.990  35.396  11.884
96615W        W68231   4.423  17.669   1.414
96616W        W68232  28.697  20.522   3.394
96617W        W68233  21.273  22.793  13.292
96618W        W68234   0.828  41.514   3.804
96619W        W68235  43.481  44.788  13.043
96620W        W68236  13.027  11.165  11.538
96621W        W68237  15.236  36.710  11.664
96622W        W68238  27.942  30.572   3.821
96623W        W68239   6.735  33.622   2.774
96624W        W68240  28.559   0.986   1.850
96625W        W68241  32.954   2.205   2.157
96626W        W68242  24.312  36.570   3.451
96627W        W68243  23.574  42.404   2.935
96628W        W68244  15.754  19.010  12.114
96629W        W68245  21.020  28.944   0.865
96630W        W68246  33.985  40.027   0.734
96631W        W68247  19.691  30.696   1.764
96632W        W68248  15.798   7.898   4.321
96633W        W68249  30.493   3.476   4.610
96634W        W68250  35.890  43.485   0.030
96635W        W68251   8.120  23.060  11.935
96636W        W68252  42.926  27.452  12.564
96637W        W68253  30.953  40.732  12.180
96638W        W68254  10.283   6.076   1.608
96639W        W68255  42.629  25.664   0.965
96640W        W68256  26.201  44.863  11.215
96641W        W68257  34.997  42.478  10.928
96642W        W68258  35.080  18.702  12.673
96643W        W68259  14.766  35.090   3.064
96644W        W68260  18.864  29.459   0.395
96645W        W68261  21.653  19.260  12.458
96646W        W68262   7.889  33.921  11.153
96647W        W68263  12.605  23.487   3.810
96648W        W68264  15.716   5.151  13.239
96649W        W68265  23.062  29.640  11.946
96650W        W68266   1.048   7.919   4.851
96651W        W68267  19.828  34.688   2.329
96652W        W68268  31.529   2.792  11.440
96653W        W68269  13.009  29.176  11.602
96654W        W68270  22.978  21.512   4.802
96655W        W68271  25.778  38.304   2.804
96656W        W68272  10.249   3.856   1.452
96657W        W68273  33.072  43.943   2.139
96658W        W68274  11.846  31.068   1.890
96659W        W68275  28.637   9.845  11.413
96660W        W68276  43.259  20.082   3.566
96661W        W68277  11.394  28.069   0.649
96662W        W68278  21.016  38.918  13.495
96663W        W68279  27.067  43.752  13.856
96664W        W68280   8.888   1.672  10.832
96665W        W68281  40.796   5.468  12.494
96666W        W68282   1.409  31.138   2.816
96667W        W68283  31.451  44.434  11.117
96668W        W68284   6.075  15.125   3.186
96669W        W68285  21.073   1.947  11.025
96670W        W68286  27.455  40.771  13.332
96671W        W68287  17.164  22.717   3.566
96672W        W68288  17.326  42.494   0.868
96673W        W68289  20.327  33.544   1.608
96674W        W68290   2.149   1.316   5.123
96675W        W68291  11.868   6.819  14.581
96676W        W68292  28.448  11.240  13.781
96677W        W68293  34.429  22.617  10.533
96678W        W68294  11.664  36.236  13.131
96679W        W68295  30.358  44.455   1.784
96680W        W68296  34.647  29.603   3.831
96681W        W68297  13.067   7.185  10.783
96682W        W68298  26.342  31.630   4.407
96683W        W68299  11.658   5.705  11.461
96684W        W68300  43.771  16.492  11.034
96685W        W68301  15.231  30.253  11.510
96686W        W68302  34.063  17.571  11.196
96687W        W68303  33.809  19.786  11.170
96688W        W68304  24.118  28.416  13.510
96689W        W68305  41.741  32.414  10.595
96690W        W68306  17.355   6.236  13.087
96691W        W68307  37.364  36.471   2.213
96692W        W68308  33.397   1.316  14.311
96693W        W68309   6.565  35.902  11.515
96694W        W68310  35.587  19.117   4.105
96695W        W68311  42.332  22.633  12.126
96696W        W68312   4.279  24.504   4.207
96697W        W68313  26.375  15.174  11.518
96698W        W68314  36.342  21.091   0.842
96699W        W68315   5.751   2.047  12.543
96700W        W68316  11.306  24.492   2.873
96701W        W68317  21.778  22.819  13.045
96702W        W68318  36.071  15.016   0.793
96703W        W68319  19.670   1.762  11.579
96704W        W68320  17.822  21.736  13.092
96705W        W68321  32.416   2.611  11.613
96706W        W68322  14.841  16.056   2.716
96707W        W68323  10.912  14.074   1.298
96708W        W68324  35.624  37.912  11.349
96709W        W68325   0.861  17.147   0.733
96710W        W68326   6.680  28.354   1.618
96711W        W68327  19.115  10.731  12.627
96712W        W68328  24.229  32.388   2.752
96713W        W68329  32.171  20.274  13.028
96714W        W68330  42.762  21.065   0.243
96715W        W68331   0.738  31.029  11.902
96716W        W68332  11.263  44.204  11.060
96717W        W68333   4.191   9.213  10.740
96718W        W68334  26.620  14.379   0.872
96719W        W68335   1.983  32.030   4.610
96720W        W68336  13.838  33.093  14.368
96721W        W68337  27.140  14.010  14.742
96722W        W68338   3.885  23.993  12.853
96723W        W68339  11.693  34.484  11.182
96724W        W68340  20.445  31.448   1.674
96725W        W68341   5.340  42.276  12.924
96726W        W68342   4.524  11.411  10.204
96727W        W68343  13.684  21.011  12.972
96728W        W68344  23.100  34.076  11.845
96729W        W68345  28.579  31.651   2.344
96730W        W68346  42.811  36.466   3.333
96731W        W68347  36.763   9.314  13.460
96732W        W68348  11.358  35.131  12.935
96733W        W68349  28.171  41.544  12.874
96734W        W68350  44.066   8.446   0.472
96735W        W68351  18.798   9.150  14.078
96736W        W68352  13.619  14.334   1.872
96737W        W68353   3.274  29.428  13.891
96738W        W68354  27.622  18.834  13.791
96739W        W68355  32.475  38.447  12.347
96740W        W68356  44.839  22.586   0.235
96741W        W68357   2.334   0.549   0.108
96742W        W68358  38.417  28.465   3.041
96743W        W68359   6.774   7.638  11.302
96744W        W68360  17.116   7.173  11.531
96745W        W68361  33.115  11.929  11.423
96746W        W68362  25.490  20.507  14.907
96747W        W68363  33.098  41.683  11.121
96748W        W68364   1.913  14.311  13.648
96749W        W68365   2.319   7.785  14.314
96750W        W68366  26.603   9.307   3.810
96751W        W68367  16.122  25.645   3.913
96752W        W68368   7.911  30.463   4.704
96753W        W68369  17.264  16.150  11.234
96754W        W68370  17.307  19.683  13.813
96755W        W68371  14.800  11.376   3.604
96756W        W68372   0.904  37.166   2.777
96757W        W68373  38.485   4.012  12.081
96758W        W68374   0.417  26.224   4.867
96759W        W68375  43.497   2.488  10.710
96760W        W68376   8.606   6.864   2.313
96761W        W68377  41.473  31.414   2.430
96762W        W68378   6.326  15.123  13.934
96763W        W68379  21.133  15.876   5.039
96764W        W68380  13.949  33.162  11.089
96765W        W68381  43.959  23.941  10.738
96766W        W68382  31.098   2.842   3.149
96767W        W68383  36.320   7.407  10.121
96768W        W68384  31.779  33.398   0.225
96769W        W68385  14.346  41.985   3.321
96770W        W68386  41.715  37.307  12.830
96771W        W68387  26.201   2.923  13.875
96772W        W68388  18.236  21.732  11.432
96773W        W68389  11.144  11.251  13.862
96774W        W68390  38.975  23.643   0.471
96775W        W68391  38.232   4.418  10.743
96776W        W68392  22.948  44.329  13.888
96777W        W68393  23.916   9.818   0.378
96778W        W68394  20.748  13.611   0.813
96779W        W68395  26.214  23.460   0.692
96780W        W68396  32.055   6.321  13.823
96781W        W68397  29.218   7.487  13.130
96782W        W68398  20.477  22.096   0.937
96783W        W68399  15.151  36.498   1.266
96784W        W68400  43.939  20.148   2.993
96785W        W68401   6.209  11.265   0.288
96786W        W68402  42.968  37.728  10.028
96787W        W68403  16.831  38.110  13.053
96788W        W68404  21.419  21.616  11.981
96789W        W68405  19.140  41.008  14.004
96790W        W68406  29.632  22.683   4.114
96791W        W68407   1.673  13.342   2.438
96792W        W68408  11.401  22.212  13.116
96793W        W68409   3.338   1.024   2.713
96794W        W68410  33.704  16.801   2.350
96795W        W68411  20.750  19.538  13.486
96796W        W68412  33.991  18.783   4.611
96797W        W68413  36.543  33.025  12.508
96798W        W68414  24.512  13.815  13.304
96799W        W68415  12.545  16.653  11.536
96800W        W68416   8.381  26.075   2.001
96801W        W68417  15.811   2.936   0.504
96802W        W68418  26.649  13.533   0.521
96803W        W68419  14.726  10.077   1.803
96804W        W68420  14.439  40.886   1.157
96805W        W68421  17.175  18.191   5.359
96806W        W68422  32.037  23.769  11.346
96807W        W68423  40.970  13.486   2.923
96808W        W68424  41.407  10.916   1.213
96809W        W68425   4.454  35.536   2.256
96810W        W68426   6.008  30.437  11.007
96811W        W68427  22.155  44.750   1.777
96812W        W68428  28.843  27.007  14.954
96813W        W68429  30.064  15.620   2.217
96814W        W68430   6.218  12.570   4.908
96815W        W68431  40.651   8.624   2.260
96816W        W68432   4.267  15.133   0.254
96817W        W68433   1.139  25.159  12.427
96818W        W68434  24.904  22.580  11.133
96819W        W68435  28.553  23.628   4.394
96820W        W68436  31.612  29.561   2.649
96821W        W68437  38.888  28.684   2.154
96822W        W68438  39.000  42.240   1.712
96823W        W68439  24.313  24.061  12.372
96824W        W68440  17.203   7.945   0.215
96825W        W68441  42.744  10.896   1.791
96826W        W68442  42.772   0.347   4.743
96827W        W68443  20.025  29.237  11.989
96828W        W68444  20.873   2.453   3.691
96829W        W68445  39.466  38.550  10.916
96830W        W68446  10.776  32.652  13.847
96831W        W68447  14.415   8.414  12.587
96832W        W68448  28.311   1.972  12.598
96833W        W68449  27.670  12.281   0.484
96834W        W68450  16.440  22.238   1.906
96835W        W68451   1.390  27.985  14.785
96836W        W68452   2.410  18.600   3.612
96837W        W68453   1.971  29.642   3.724
96838W        W68454  41.749  13.194   0.755
96839W        W68455  11.049  15.847   2.711
96840W        W68456  34.414  25.368  13.420
96841W        W68457  27.042  21.703  13.457
96842W        W68458  26.051  29.932   0.348
96843W        W68459  24.582  13.495   1.706
96844W        W68460   9.389  16.951   4.642
96845W        W68461  44.727   0.738  14.725
96846W        W68462  15.383  18.439   5.242
96847W        W68463  25.152  13.062   3.743
96848W        W68464   1.053   8.817  14.324
96849W        W68465  35.457  30.107   4.444
96850W        W68466  27.613  34.581   0.796
96851W        W68467   6.672  18.070   1.342
96852W        W68468   4.771  24.384   1.285
96853W        W68469  38.089  30.815   0.467
96854W        W68470  33.150  41.562   2.002
96855W        W68471  39.720  14.717   2.252
96856W        W68472  25.418   5.715   2.108
96857W        W68473  24.224  33.928   3.604
96858W        W68474  21.468  41.745   3.625
96859W        W68475  38.161  13.735  14.581
96860W        W68476  26.670   4.239  11.993
96861W        W68477  24.088  33.395   0.305
96862W        W68478  30.851  16.121   2.166
96863W        W68479  31.519  21.693  14.524
96864W        W68480  18.431  35.427  10.496
96865W        W68481  22.358  15.265  12.178
96866W        W68482   5.272  16.801  11.686
96867W        W68483   4.261  15.508  14.288
96868W        W68484  22.942  38.920   2.812
96869W        W68485   9.657  25.559   3.334
96870W        W68486  13.756  34.528  14.764
96871W        W68487  38.930   9.227  14.409
96872W        W68488  31.097  29.025   0.463
96873W        W68489  13.393   4.927   3.712
96874W        W68490  22.805   3.421   1.753
96875W        W68491  16.808  14.160   4.270
96876W        W68492   7.114  42.027  11.559
96877W        W68493  40.559  24.754  14.424
96878W        W68494  17.332  39.788   2.548
96879W        W68495  29.649  29.904   9.932
96880W        W68496  38.443  12.635   0.895
96881W        W68497   7.204  22.746  14.446
96882W        W68498  32.814  37.435  14.968
96883W        W68499   8.351  11.727   1.384
96884W        W68500  25.936  44.589  13.994
96885W        W68501  31.424  41.133  12.990
96886W        W68502  42.609   0.851  13.841
96887W        W68503  38.412  28.054  14.832
96888W        W68504   9.253  39.335   0.728
96889W        W68505  32.837   6.201  13.148
96890W        W68506  38.158  25.574  12.086
96891W        W68507  34.201  33.583  11.034
96892W        W68508  24.011  41.372  12.125
96893W        W68509  14.247  23.747   0.708
96894W        W68510  17.118  25.432  12.810
96895W        W68511  30.673  19.996   2.921
96896W        W68512  40.613   6.474   1.841
96897W        W68513  35.373  43.414   3.755
96898W        W68514  14.861   6.172  14.474
96899W        W68515  17.748   4.773   4.091
96900W        W68516   7.930  10.667   4.964
96901W        W68517  24.493   6.429   1.694
96902W        W68518  26.242  30.952  13.736
96903W        W68519  14.094   3.834   2.359
96904W        W68520  43.904   5.498   0.856
96905W        W68521  24.091   9.282   1.303
96906W        W68522   8.645  14.666  13.508
96907W        W68523  40.490  31.504  13.803
96908W        W68524  10.529  10.077   5.275
96909W        W68525  19.672   2.792  13.458
96910W        W68526  11.714  44.136   4.852
96911W        W68527  30.476  26.209  14.504
96912W        W68528   7.924  20.662   3.800
96913W        W68529  39.432   4.378   3.365
96914W        W68530  43.348   1.963  10.759
96915W        W68531   2.713   0.787   3.135
96916W        W68532  29.212  14.061   2.853
96917W        W68533  24.731  31.616  12.308
96918W        W68534   7.288   9.803   3.278
96919W        W68535  13.272   1.906   2.692
96920W        W68536  15.907  25.930   1.371
96921W        W68537  21.813  11.901  12.014
96922W        W68538  17.023  15.797  10.554
96923W        W68539  41.913  35.560   1.787
96924W        W68540   6.414  23.004  11.835
96925W        W68541   5.168  39.176  12.853
96926W        W68542  29.539   5.794   3.218
96927W        W68543  35.968  33.491   0.529
96928W        W68544  35.469   7.071  13.268
96929W        W68545  34.418  43.730   2.305
96930W        W68546   2.318  41.082  14.259
96931W        W68547   9.337  15.617  14.546
96932W        W68548   3.224  37.947  14.999
96933W        W68549  18.694  11.374   2.304
96934W        W68550   5.120  17.206   2.505
96935W        W68551  11.878   2.982  10.733
96936W        W68552  38.197  25.660   0.414
96937W        W68553  40.463  15.654   0.847
96938W        W68554  12.794   1.758   2.454
96939W        W68555   9.858  37.469  13.945
96940W        W68556  29.030  26.444  10.415
96941W        W68557  43.181   1.047   3.308
96942W        W68558  38.821  10.652  11.063
96943W        W68559  22.620  28.506  14.411
96944W        W68560  36.129  16.280  11.733
96945W        W68561  35.347  13.502   4.569
96946W        W68562  23.485  18.197   2.301
96947W        W68563  10.849  17.518   1.280
96948W        W68564  38.698   6.106  13.837
96949W        W68565  41.799  17.642  13.050
96950W        W68566  11.662  30.174  12.884
96951W        W68567   0.535  36.941   2.146
96952W        W68568   6.452  44.425  14.774
96953W        W68569  32.335  13.681   3.292
96954W        W68570  27.817   5.710  13.927
96955W        W68571  36.033   7.281   4.481
96956W        W68572  20.302   8.091  14.961
96957W        W68573  43.645  26.451  13.386
96958W        W68574  16.784  27.963  13.859
96959W        W68575   6.702  40.337  14.411
96960W        W68576  39.029  44.034   3.104
96961W        W68577  17.375   9.318  13.912
96962W        W68578  44.026  43.448  11.614
96963W        W68579  19.570   0.507  14.845
96964W        W68580  36.611  32.081  11.144
96965W        W68581   7.237  32.025  11.988
96966W        W68582  44.986   1.046  12.527
96967W        W68583  18.040  44.936   2.318
96968W        W68584  43.322  10.846   1.175
96969W        W68585   9.266  22.736  13.007
96970W        W68586   5.062  34.542  10.645
96971W        W68587  37.422  33.084   3.186
96972W        W68588  25.570  21.081  12.397
96973W        W68589  42.537   6.400  13.824
96974W        W68590  24.821  22.785  14.902
96975W        W68591  37.335  37.342  10.839
96976W        W68592  43.685   6.889  12.000
96977W        W68593  22.211  42.369  10.495
96978W        W68594   8.308   8.687  14.377
96979W        W68595   5.478  10.366  13.411
96980W        W68596  40.435  26.485  13.387
96981W        W68597  23.044  20.117  10.872
96982W        W68598  25.903   9.300  11.074
96983W        W68599  35.845  32.090   4.107
96984W        W68600  36.405  14.846  14.833
96985W        W68601  12.250  38.321  12.525
96986W        W68602   0.205  22.022  13.123
96987W        W68603   7.188   2.909   0.515
96988W        W68604  30.064  30.845   0.934
96989W        W68605  41.501  29.556   3.272
96990W        W68606  22.459  18.612  14.847
96991W        W68607  28.008  25.709   2.671
96992W        W68608  12.680   1.380   2.820
96993W        W68609  24.598  29.392   4.858
96994W        W68610  12.619  34.169  11.537
96995W        W68611   5.252  33.238   4.041
96996W        W68612  36.533   6.894  13.499
96997W        W68613   6.490   5.762   2.804
96998W        W68614  20.695  30.852  12.162
96999W        W68615   8.535  20.046  10.716
97000W        W68616  43.542  23.753  12.905
97001W        W68617  35.322  25.656  14.228
97002W        W68618  25.067  26.566  11.397
97003W        W68619  43.579  13.128  11.126
97004W        W68620   4.439  38.026  12.416
97005W        W68621   3.746  16.734   4.720
97006W        W68622  39.960   0.036   3.331
97007W        W68623  13.131   4.240   9.882
97008W        W68624   1.466  31.354   3.292
97009W        W68625  22.978  19.996   3.231
97010W        W68626  23.060  19.542  11.646
97011W        W68627  34.529   1.375  14.764
97012W        W68628  16.934   4.423   1.068
97013W        W68629  26.447  21.405   1.263
97014W        W68630  39.496  22.808   0.664
97015W        W68631  21.738  18.055   2.233
97016W        W68632  24.992  28.763  13.035
97017W        W68633  16.860  14.261   0.823
97018W        W68634  40.136  11.988   9.937
97019W        W68635  39.880  39.566   2.824
97020W        W68636  39.027  18.730   2.199
97021W        W68637  23.512  28.968  12.891
97022W        W68638  40.053  40.913  13.888
97023W        W68639  26.484   5.262  12.849
97024W        W68640  16.784  14.133  11.461
97025W        W68641   9.476  10.171   4.476
97026W        W68642  22.569  17.806   1.258
97027W        W68643  30.027  21.762  12.050
97028W        W68644  31.108  29.924   2.185
97029W        W68645  30.509  25.501  12.432
97030W        W68646  39.375  41.309   2.680
97031W        W68647   5.845   7.099  14.635
97032W        W68648  11.089  22.159  12.496
97033W        W68649   3.935   9.633   0.328
97034W        W68650  26.020  24.158  14.310
97035W        W68651  38.451  28.901   4.768
97036W        W68652   2.220  30.827   3.816
97037W        W68653   7.565  20.126   2.696
97038W        W68654   4.040  26.831  13.740
97039W        W68655  23.528  33.062  11.479
97040W        W68656   0.615  28.012   4.568
97041W        W68657   4.879  25.710  14.024
97042W        W68658  21.020   1.984  10.511
97043W        W68659  42.537  32.996  10.950
97044W        W68660   9.343   4.941   3.437
97045W        W68661   3.836  20.874   2.683
97046W        W68662  10.914  12.699   2.449
97047W        W68663  40.945  40.269   4.661
97048W        W68664  35.540   2.956  13.847
97049W        W68665  23.228  40.280   3.253
97050W        W68666  16.143  10.318  14.372
97051W        W68667  15.289  22.450   1.780
97052W        W68668  37.864  25.590  11.647
97053W        W68669  18.654  29.413   2.263
97054W        W68670  36.054   2.923   4.841
97055W        W68671  36.089  37.419  14.556
97056W        W68672  25.261  35.318   0.355
97057W        W68673  44.869  38.508  10.662
97058W        W68674  30.330   2.420   4.609
97059W        W68675  38.791  30.055  12.949
97060W        W68676  39.256  10.760   1.783
97061W        W68677  17.214  38.085  10.689
97062W        W68678  16.585  33.386  11.108
97063W        W68679   2.229  17.509   0.223
97064W        W68680  27.436  40.517   4.707
97065W        W68681   9.812  42.838  11.978
97066W        W68682  25.698   7.244  12.888
97067W        W68683  25.473  38.694   4.216
97068W        W68684  35.645  15.765   3.753
97069W        W68685  18.604  16.582  14.383
97070W        W68686  16.683  29.636   1.195
97071W        W68687  23.019  40.883  12.422
97072W        W68688  25.270  34.525  13.492
97073W        W68689  22.256  30.164  13.341
97074W        W68690  43.111  44.929  12.067
97075W        W68691  31.414  35.685  14.139
97076W        W68692  28.675   9.812  13.076
97077W        W68693  12.316  34.598   1.825
97078W        W68694   4.334  34.424   2.498
97079W        W68695  31.058  13.317  12.020
97080W        W68696   9.001   2.558  12.565
97081W        W68697  24.724   8.080   2.791
97082W        W68698  38.762  32.481  13.445
97083W        W68699  39.098  31.003   0.621
97084W        W68700  14.402  31.432   2.188
97085W        W68701  41.221  19.302  10.725
97086W        W68702  11.360  20.779  12.964
97087W        W68703  20.852  42.014  11.572
97088W        W68704  36.328  11.274  12.946
97089W        W68705  16.671  44.764   0.665
97090W        W68706  29.766  10.081  12.074
97091W        W68707  14.054  35.535  12.034
97092W        W68708  41.843  39.819   2.803
97093W        W68709  33.599  44.232   0.429
97094W        W68710   3.719  20.548  10.872
97095W        W68711  19.812  28.788   4.161
97096W        W68712  36.500   1.535   1.424
97097W        W68713  17.249  30.633   4.584
97098W        W68714   0.074  23.604  11.531
97099W        W68715   5.217  16.624   3.707
97100W        W68716  11.386  42.338  10.515
97101W        W68717  17.136  14.613   4.264
97102W        W68718  15.551   2.202   3.749
97103W        W68719  29.506  13.046   0.663
97104W        W68720  39.478  20.045   0.048
97105W        W68721  27.506  21.204  10.685
97106W        W68722   8.940   2.908   2.707
97107W        W68723  17.762  34.977  12.458
97108W        W68724  22.289  27.485   1.008
97109W        W68725  21.187   2.462  14.473
97110W        W68726  40.800  24.038  14.061
97111W        W68727  39.015  34.625  11.464
97112W        W68728  44.349  37.620  13.979
97113W        W68729  44.206   4.689   0.531
97114W        W68730  15.316   0.807  14.071
97115W        W68731  15.797  31.041   1.146
97116W        W68732  15.643  12.625   1.721
97117W        W68733  35.216  31.187  11.531
97118W        W68734  39.798  13.149   1.736
97119W        W68735  40.560   8.782  10.876
97120W        W68736  28.868  36.888   1.840
97121W        W68737  28.577   7.383  10.721
97122W        W68738  28.560  22.568  12.585
97123W        W68739  36.394  39.261   3.218
97124W        W68740   4.861  37.884   9.705
97125W        W68741   9.945  39.817   4.111
97126W        W68742  15.818  43.767  13.874
97127W        W68743  27.256  14.535  11.211
97128W        W68744   0.308   4.449   2.627
97129W        W68745  43.193  28.922  11.642
97130W        W68746   2.881  23.251   0.953
97131W        W68747  21.091  26.497  13.398
97132W        W68748  22.458  24.005   0.020
97133W        W68749  36.799   7.931  14.985
97134W        W68750  39.551   4.892   2.469
97135W        W68751  11.340  24.100   4.824
97136W        W68752   8.455   3.891   0.852
97137W        W68753  19.054  20.671  10.483
97138W        W68754   3.430  18.394   0.925
97139W        W68755  44.868  31.814   4.574
97140W        W68756  13.624   2.476  12.022
97141W        W68757  12.851  15.264   0.991
97142W        W68758   3.550  33.426   1.497
97143W        W68759  13.241   0.518  10.651
97144W        W68760  28.561  11.593   1.354
97145W        W68761  44.300  30.826  14.962
97146W        W68762  32.971  23.551  14.535
97147W        W68763  34.952  14.538   0.418
97148W        W68764  28.711   3.163   3.920
97149W        W68765  14.054  13.208  11.564
97150W        W68766  36.799   2.937   3.725
97151W        W68767  24.512  22.033   4.397
97152W        W68768  15.244  32.265   4.531
97153W        W68769   0.065  30.043  13.874
97154W        W68770  34.601  41.728  14.447
97155W        W68771   5.434  20.669   3.670
97156W        W68772  29.251   7.505  12.626
97157W        W68773  28.419  17.362  13.518
97158W        W68774   8.935  28.064  12.506
97159W        W68775   3.325  21.715  13.824
97160W        W68776   5.283  30.371  13.839
97161W        W68777  37.574  36.435   0.313
97162W        W68778   4.798  33.592   3.239
97163W        W68779  16.092  14.890  11.489
97164W        W68780  12.982  12.292   2.733
97165W        W68781  27.536  18.597  11.965
97166W        W68782  11.376   1.927   4.813
97167W        W68783  41.399  37.263  14.867
97168W        W68784  21.733  34.172   0.377
97169W        W68785  26.578  25.924   4.483
97170W        W68786  36.579   2.799  13.915
97171W        W68787  27.732  16.041  12.358
97172W        W68788  27.992  39.023   1.302
97173W        W68789   8.974  36.029   0.868
97174W        W68790  10.139  22.076  12.888
97175W        W68791  12.161  17.997  13.537
97176W        W68792  35.163  33.978  14.263
97177W        W68793  37.534   6.023   1.911
97178W        W68794  21.205  31.750  14.331
97179W        W68795  13.154  39.940   3.158
97180W        W68796  43.221  40.442  11.384
97181W        W68797   9.113   5.141   2.145
97182W        W68798  41.266  27.588   3.642
97183W        W68799  13.252   9.353   1.857
97184W        W68800  13.462  15.935  14.782
97185W        W68801   0.370  43.481   0.789
97186W        W68802  44.732  15.539   3.857
97187W        W68803  39.066  44.185  12.036
97188W        W68804  29.107  36.395   1.056
97189W        W68805  39.875   8.583   4.429
97190W        W68806   6.666   7.093   0.750
97191W        W68807  18.785  12.475  12.460
97192W        W68808  17.751  36.360   2.185
97193W        W68809   0.964  43.268   3.532
97194W        W68810  21.201  43.897  13.084
97195W        W68811  37.201  31.521  13.911
97196W        W68812  31.457   5.749  10.852
97197W        W68813  14.093  28.006  14.967
97198W        W68814  20.556  29.930  13.366
97199W        W68815  12.430  33.084  11.123
97200W        W68816  34.862  38.640   4.157
97201W        W68817  33.978  30.400   1.487
97202W        W68818  34.086  29.398  11.506
97203W        W68819  31.956  26.878  10.684
97204W        W68820   9.742  39.884   0.799
97205W        W68821   0.308  42.715  12.522
97206W        W68822  42.299  33.509   4.177
97207W        W68823  19.453  25.977  14.916
97208W        W68824  28.283  38.625   1.148
97209W        W68825   9.458  31.506  11.027
97210W        W68826  36.030  35.126  10.635
97211W        W68827  32.205   4.110   3.605
97212W        W68828  26.040  18.327   4.659
97213W        W68829  39.988   3.342   4.544
97214W        W68830  32.886  44.877   2.109
97215W        W68831  42.262  41.918   4.398
97216W        W68832   4.577  31.437  14.153
97217W        W68833  26.105   8.869   4.394
97218W        W68834  11.635  20.697   1.284
97219W        W68835  19.636  11.899   0.424
97220W        W68836  17.902  32.538  14.045
97221W        W68837  18.449   9.098   0.149
97222W        W68838  26.686  17.969  13.269
97223W        W68839  22.887   9.137   5.039
97224W        W68840  35.866  23.647  10.965
97225W        W68841  25.917  43.552   4.190
97226W        W68842  18.834  40.516   1.881
97227W        W68843  38.885   5.873   3.108
97228W        W68844   4.401  25.115  12.585
97229W        W68845   7.507   1.907  11.140
97230W        W68846  11.875  30.607   3.100
97231W        W68847  35.544  33.091   1.247
97232W        W68848   6.718  13.806  13.200
97233W        W68849  42.460   4.250   2.963
97234W        W68850  18.008  28.494   1.972
97235W        W68851  11.360  17.896   1.877
97236W        W68852  41.352  21.320  10.973
97237W        W68853  29.543  13.713  14.938
97238W        W68854  11.581  44.250   0.262
97239W        W68855  16.372  22.900  10.237
97240W        W68856   3.209  18.840   1.803
97241W        W68857  33.684  32.174  13.358
97242W        W68858   6.091  43.046   3.652
97243W        W68859  25.272  34.062   2.198
97244W        W68860  30.533   1.403   2.373
97245W        W68861  31.768  31.934   4.912
97246W        W68862  30.027  36.390   2.102
97247W        W68863   2.549  21.264   5.127
97248W        W68864  32.104  44.627  12.315
97249W        W68865  23.660   8.310  10.692
97250W        W68866   2.460  30.581  11.641
97251W        W68867   7.451  12.251  13.882
97252W        W68868  24.213  12.830   0.348
97253W        W68869   3.235  40.735  14.297
97254W        W68870  22.639  27.453   4.754
97255W        W68871  31.736   0.411  13.003
97256W        W68872  25.606   9.757  12.410
97257W        W68873  25.268  34.863   4.103
97258W        W68874  39.998  16.771  11.717
97259W        W68875   1.682  31.943   2.666
97260W        W68876  34.544   7.764  11.244
97261W        W68877  20.314  36.891  11.138
97262W        W68878  37.873  44.722   4.527
97263W        W68879   8.141   0.437   1.718
97264W        W68880  18.607  43.913   3.987
97265W        W68881  26.327   6.272  12.886
97266W        W68882  27.922  25.362  11.141
97267W        W68883  28.889  42.328  10.962
97268W        W68884  26.638  21.728  12.098
97269W        W68885  27.027  24.969   4.007
97270W        W68886  35.439  10.355   0.741
97271W        W68887  40.489   8.842   4.096
97272W        W68888  26.527  31.677   0.284
97273W        W68889  39.327  36.579   3.127
97274W        W68890  33.333  13.077   2.404
97275W        W68891  44.795  32.391  11.019
97276W        W68892  11.148  27.093   0.818
97277W        W68893  33.887  20.992  14.313
97278W        W68894  21.245  30.932  13.968
97279W        W68895  41.499  17.184   2.253
97280W        W68896   1.290  27.011  12.562
97281W        W68897  27.586  19.326   1.772
97282W        W68898  21.040  33.734   0.830
97283W        W68899   2.617  27.982  13.381
97284W        W68900  37.096  36.640   1.179
97285W        W68901  32.119   4.908   1.416
97286W        W68902   4.194  41.019   0.718
97287W        W68903  29.430  22.750  12.695
97288W        W68904  29.574  39.819   2.332
97289W        W68905  20.216  35.878   0.410
97290W        W68906  34.481   9.131  13.450
97291W        W68907  27.036  20.019  10.784
97292W        W68908  41.079  44.265  11.928
97293W        W68909   6.129  30.598   4.147
97294W        W68910  10.745   2.720   0.545
97295W        W68911  22.069  15.044   0.296
97296W        W68912   2.232   0.315  11.515
97297W        W68913  32.912  36.662  12.016
97298W        W68914   8.635  36.362   1.522
97299W        W68915  43.381  14.605   0.732
97300W        W68916  13.186  18.611   3.438
97301W        W68917   3.576  38.453   2.424
97302W        W68918  36.995  19.095  13.208
97303W        W68919  44.752   2.326  14.798
97304W        W68920  22.537   3.536  14.669
97305W        W68921   7.900   0.077   3.297
97306W        W68922  20.578   2.349   0.508
97307W        W68923   6.701  43.295  14.262
97308W        W68924  10.877   9.241   1.378
97309W        W68925   6.075  14.302   1.195
97310W        W68926  22.907  13.253   2.747
97311W        W68927  26.821  20.505   1.231
97312W        W68928   0.470  25.187   3.680
97313W        W68929  26.973   0.914   1.233
97314W        W68930  17.778  12.390  13.464
97315W        W68931  32.148   4.960   3.226
97316W        W68932  10.324  27.073   1.934
97317W        W68933   5.035  20.225  12.003
97318W        W68934  23.440   9.103   1.911
97319W        W68935   6.222  17.138   2.672
97320W        W68936  42.465  42.723  11.919
97321W        W68937  34.438  15.111   2.164
97322W        W68938  41.296   0.566   0.078
97323W        W68939   4.558  22.348  12.916
97324W        W68940   2.869  35.721   4.036
97325W        W68941  28.372  15.764   5.079
97326W        W68942  13.193  11.419   2.718
97327W        W68943  32.877  43.264  14.344
97328W        W68944  32.429  21.708   1.923
97329W        W68945  26.592  31.647  13.825
97330W        W68946  21.775   8.737   2.679
97331W        W68947  14.992   8.378   4.167
97332W        W68948  15.827  21.029   1.455
97333W        W68949  29.144  23.974   0.087
97334W        W68950  34.010  12.807  14.921
97335W        W68951   9.906  29.167  12.514
97336W        W68952  36.476  34.872   0.288
97337W        W68953   5.814  42.501  14.889
97338W        W68954  26.026  39.524  11.181
97339W        W68955  22.517  29.433  11.182
97340W        W68956   4.207  31.859   1.837
97341W        W68957  40.331  26.447   0.310
97342W        W68958  10.166  41.567   2.257
97343W        W68959  28.137  16.255  14.350
97344W        W68960  39.513  20.802   4.184
97345W        W68961  42.692  30.514   1.409
97346W        W68962  27.389  13.716   2.909
97347W        W68963  34.572  10.656  11.445
97348W        W68964  34.860  36.824   2.685
97349W        W68965   4.292  18.153  12.972
97350W        W68966   3.023  39.139  12.194
97351W        W68967  35.365   7.601  10.718
97352W        W68968  32.873  42.350   3.956
97353W        W68969  25.102   9.681   3.822
97354W        W68970  43.855  37.423  11.189
97355W        W68971  11.551   1.775  14.364
97356W        W68972  41.361  31.726   0.367
97357W        W68973  44.469  21.207  10.787
97358W        W68974  10.729  23.517  11.453
97359W        W68975  25.723  32.964   4.260
97360W        W68976  10.282  44.384  12.474
97361W        W68977  42.770   2.170  12.524
97362W        W68978  29.646  17.623  11.604
97363W        W68979   0.304  25.118  11.123
97364W        W68980  21.662  14.118  13.846
97365W        W68981  28.881  29.221   5.120
97366W        W68982  32.003  20.639   3.787
97367W        W68983  38.979  29.501  10.239
97368W        W68984  42.580  30.462  14.598
97369W        W68985  13.061  34.835   1.944
97370W        W68986   0.199  19.180   1.707
97371W        W68987  36.909   6.277   4.546
97372W        W68988  41.455  39.899  13.998
97373W        W68989   0.775  41.041  13.468
97374W        W68990   4.734  12.179   3.940
97375W        W68991  37.615  38.678  12.587
97376W        W68992  23.786  33.892  12.988
97377W        W68993   3.798  18.372   3.610
97378W        W68994   9.394  12.614  13.016
97379W        W68995  43.254   3.766   4.322
97380W        W68996  43.919   8.924  14.271
97381W        W68997   0.181  19.984   3.172
97382W        W68998  44.505  13.916   0.253
97383W        W68999   4.697  27.140   4.505
97384W        W69000  21.039  43.440   4.187
97385W        W69001   1.994  22.977   2.739
97386W        W69002  20.386  11.824   4.702
97387W        W69003  43.506  30.435   0.915
97388W        W69004  26.135  44.846   1.352
97389W        W69005  12.921  30.928   1.807
97390W        W69006  11.394  17.373  10.311
97391W        W69007   4.765  43.823   2.426
97392W        W69008  38.634  18.180   4.317
97393W        W69009   9.827  26.730  14.426
97394W        W69010   9.130  15.872   2.643
97395W        W69011   1.187  19.227  10.676
97396W        W69012  44.052   9.924   1.837
97397W        W69013  25.116   0.967   0.499
97398W        W69014  39.645   8.034   2.804
97399W        W69015  22.810  29.985  13.378
97400W        W69016   4.645   0.734  13.006
97401W        W69017  28.656   3.464   1.153
97402W        W69018   2.268  14.645  11.675
97403W        W69019  34.908   9.729   2.355
97404W        W69020  29.211   4.059  11.139
97405W        W69021  10.459  35.424   1.848
97406W        W69022   5.767  19.825  13.973
97407W        W69023  13.233   5.798  14.885
97408W        W69024  44.783  26.835  12.538
97409W        W69025   9.921  20.771  14.064
97410W        W69026  33.170  28.618  13.468
97411W        W69027  27.170   4.700  13.328
97412W        W69028   2.787  39.001   0.967
97413W        W69029   1.369  32.921  12.007
97414W        W69030  26.828  14.071  12.820
97415W        W69031  41.784  20.475  13.646
97416W        W69032   5.353   7.305   3.154
97417W        W69033  27.012  10.195   0.749
97418W        W69034  42.309  30.866  14.888
97419W        W69035  29.139  43.217  12.907
97420W        W69036  27.995   6.791   0.481
97421W        W69037  27.992  29.580   0.035
97422W        W69038  37.590  33.529   1.308
97423W        W69039   1.927   4.303  10.593
97424W        W69040  38.660  15.916  13.490
97425W        W69041  18.190  10.384  14.832
97426W        W69042  34.052  36.639   2.217
97427W        W69043  37.341  42.979  11.627
97428W        W69044  40.700  34.953   4.655
97429W        W69045  13.838   9.273  14.872
97430W        W69046   8.060  28.186  12.458
97431W        W69047  41.738  35.617   1.273
97432W        W69048  24.426  12.067  12.357
97433W        W69049  29.113  29.876   1.719
97434W        W69050  19.421  31.183  13.982
97435W        W69051  22.201  33.597  11.571
97436W        W69052   3.228  42.761   2.211
97437W        W69053  42.400  38.802  12.517
97438W        W69054  12.219  18.993   2.274
97439W        W69055  39.601  19.355   2.701
97440W        W69056  14.165   0.445  10.662
97441W        W69057  32.520  11.486  11.682
97442W        W69058  10.849  18.293   2.674
97443W        W69059   7.275  20.698   3.181
97444W        W69060  15.774  27.436  11.630
97445W        W69061   1.372   0.725   1.855
97446W        W69062  35.391  13.738   3.757
97447W        W69063  39.250  27.587  10.674
97448W        W69064  29.325  37.232   1.346
97449W        W69065  24.344   7.823   3.686
97450W        W69066  20.167  10.394   3.759
97451W        W69067   7.342  23.956   2.766
97452W        W69068   9.557  21.992  14.390
97453W        W69069   9.780   8.253   2.381
97454W        W69070  10.189  16.638   4.578
97455W        W69071  41.070  32.499  12.200
97456W        W69072  21.260  40.383  12.417
97457W        W69073   0.351  17.308   4.375
97458W        W69074  16.745  32.010   4.766
97459W        W69075  10.409   7.430  11.196
97460W        W69076  14.688   6.325  14.003
97461W        W69077  25.788  24.442  12.086
97462W        W69078  24.152  41.434   1.124
97463W        W69079  10.636   4.737   3.255
97464W        W69080  22.231  14.616   1.236
97465W        W69081   2.961   4.523   4.176
97466W        W69082  31.482  36.927  10.602
97467W        W69083   7.775  38.820   3.562
97468W        W69084  29.487  19.674   4.058
97469W        W69085  33.077  37.069   0.743
97470W        W69086  14.850  17.523  11.160
97471W        W69087  15.383  35.801  12.161
97472W        W69088  11.449  21.542   3.830
97473W        W69089  23.969  14.139  11.085
97474W        W69090  24.018  33.507   2.387
97475W        W69091  18.085  41.080   0.531
97476W        W69092  34.368   7.632  12.050
97477W        W69093  32.187  38.895   4.335
97478W        W69094  37.073  11.145  10.246
97479W        W69095  31.979  32.525  11.254
97480W        W69096  26.469  16.634   4.069
97481W        W69097   2.422   7.629   4.911
97482W        W69098  35.439   5.123  10.612
97483W        W69099  13.343  29.036   5.176
97484W        W69100  27.216  34.189  12.827
97485W        W69101  28.404  34.117   4.580
97486W        W69102   3.394  25.612   2.256
97487W        W69103  10.576  38.065   2.397
97488W        W69104  17.654  26.119   2.322
97489W        W69105   0.258  39.870   1.243
97490W        W69106  31.052   9.882  12.952
97491W        W69107  34.090  14.883  13.924
97492W        W69108  17.019   0.719  14.385
97493W        W69109   2.485  23.737  14.470
97494W        W69110  19.051  43.686   0.224
97495W        W69111  35.937  36.891   3.928
97496W        W69112  21.507  43.087   4.429
97497W        W69113  44.882   5.434  12.894
97498W        W69114  26.739   1.072   4.023
97499W        W69115  10.376  32.477  14.758
97500W        W69116  29.448  16.513  12.339
97501W        W69117  36.595  32.663   1.909
97502W        W69118  12.122  25.980   3.665
97503W        W69119  10.393   6.347  14.531
97504W        W69120  31.014  24.967  14.091
97505W        W69121  12.708  20.638   0.279
97506W        W69122  24.656  37.517   0.786
97507W        W69123  40.554   4.794   2.800
97508W        W69124  34.966  31.176   0.886
97509W        W69125  14.848  15.475   2.151
97510W        W69126  13.847  34.480   1.781
97511W        W69127  16.155  28.349  12.900
97512W        W69128  37.322  19.239  14.486
97513W        W69129  32.397  15.659  13.383
97514W        W69130   6.897  41.362  13.082
97515W        W69131   1.228  33.131   3.706
97516W        W69132  29.230  18.413   0.866
97517W        W69133  43.196  20.102   2.273
97518W        W69134  36.613   7.809   3.291
97519W        W69135   8.317   8.761  13.373
97520W        W69136   2.921  20.243   4.760
97521W        W69137  20.183  24.354  12.386
97522W        W69138  32.436  18.316  14.845
97523W        W69139  15.993  19.786   0.899
97524W        W69140  26.793  28.282   0.165
97525W        W69141  22.696  44.096  12.330
97526W        W69142   1.822  14.422  10.493
97527W        W69143  39.142  43.025   2.194
97528W        W69144   9.913  38.120  10.643
97529W        W69145  10.125  33.925  10.720
97530W        W69146  16.119  17.214  12.005
97531W        W69147  28.624  14.306   1.298
97532W        W69148   1.859  16.210   2.122
97533W        W69149  23.131  37.602  11.089
97534W        W69150  23.777  21.154  12.871
97535W        W69151   7.215  35.424  11.210
97536W        W69152  17.055  24.492   2.766
97537W        W69153  41.756   1.052   5.072
97538W        W69154  16.050  37.522  10.536
97539W        W69155  43.002   6.451  14.045
97540W        W69156  26.057  42.358  14.565
97541W        W69157   4.815  33.576   2.343
97542W        W69158  18.059  31.972   3.460
97543W        W69159  23.539   9.295   2.845
97544W        W69160  31.544  28.657  11.975
97545W        W69161  27.925  27.670   2.713
97546W        W69162  15.827   3.858   4.092
97547W        W69163  10.662  13.411  14.934
97548W        W69164  40.907  38.499   1.910
97549W        W69165   5.451  25.448   3.359
97550W        W69166  26.514  23.798  12.523
97551W        W69167  32.546  16.736  10.995
97552W        W69168   0.758  18.721  12.148
97553W        W69169  27.010   0.402   0.394
97554W        W69170  39.143  26.421  12.098
97555W        W69171  37.334  42.245   3.315
97556W        W69172  33.626  21.779   1.759
97557W        W69173  25.039  12.172  12.935
97558W        W69174  21.358   6.631  10.378
97559W        W69175  40.783  26.634  14.364
97560W        W69176  24.453  39.158  14.763
97561W        W69177  37.851  35.686   5.080
97562W        W69178   2.985  26.364   2.159
97563W        W69179   5.178  29.675  12.819
97564W        W69180  37.611   3.971  11.937
97565W        W69181  36.100   5.684   0.122
97566W        W69182   0.945  20.256  12.092
97567W        W69183   9.461   2.778   2.847
97568W        W69184  40.272  36.250  10.173
97569W        W69185  43.720  33.696  10.699
97570W        W69186  12.557  20.774   2.600
97571W        W69187   2.345  33.395   2.279
97572W        W69188  33.144  13.187  14.967
97573W        W69189  39.840  23.160  10.803
97574W        W69190  34.942   2.176  11.985
97575W        W69191  28.448  28.988   3.292
97576W        W69192  29.916   7.157   1.790
97577W        W69193  19.703  23.247   1.207
97578W        W69194  33.890  22.529  12.510
97579W        W69195   9.185  18.126   4.980
97580W        W69196  11.592  13.810  12.455
97581W        W69197  12.107  14.832  14.374
97582W        W69198   9.472   9.397  13.014
97583W        W69199  29.233  28.568  11.148
97584W        W69200  11.894   0.461   3.414
97585W        W69201   3.901  30.517   3.707
97586W        W69202  21.451  18.985   3.314
97587W        W69203  17.409   3.395  11.489
97588W        W69204  22.741   3.870   4.435
97589W        W69205  12.232  36.310  10.952
97590W        W69206   9.936  42.488   4.643
97591W        W69207   2.941  24.255   2.114
97592W        W69208  15.395   7.263  12.410
97593W        W69209  41.534   6.635   3.731
97594W        W69210  37.733  41.154  11.780
97595W        W69211  37.298   7.796  11.556
97596W        W69212  18.124  39.123  14.059
97597W        W69213  18.932   3.904   2.523
97598W        W69214  29.452   0.924  11.956
97599W        W69215  19.896   6.171  11.098
97600W        W69216  18.589  37.954  11.668
97601W        W69217  21.698  28.925  13.280
97602W        W69218  17.816   5.432   0.869
97603W        W69219  21.750  16.100  11.970
97604W        W69220  14.757  41.253   3.794
97605W        W69221  20.321  26.321   0.955
97606W        W69222  37.907  28.715   3.047
97607W        W69223   1.279  35.991  14.727
97608W        W69224  41.951  26.958   2.818
97609W        W69225  14.631  32.534   2.820
97610W        W69226  38.949  11.189  14.232
97611W        W69227  27.449  31.929   0.824
97612W        W69228  12.616  35.097  11.013
97613W        W69229   3.957   3.532  12.482
97614W        W69230   1.745  33.559  12.557
97615W        W69231  39.272   0.486  11.229
97616W        W69232  38.354  38.677   3.769
97617W        W69233   6.760  18.958   2.732
97618W        W69234  44.124  17.184   5.001
97619W        W69235   8.822  20.128  13.945
97620W        W69236   0.490   4.716  14.448
97621W        W69237  30.399  27.654   9.764
97622W        W69238  11.291  21.790  12.814
97623W        W69239  22.778  43.911   2.298
97624W        W69240  39.299   8.178   3.180
97625W        W69241  42.113  21.701   2.937
97626W        W69242  32.942  16.348  13.797
97627W        W69243  32.421  42.449   1.261
97628W        W69244  26.574  19.541  14.920
97629W        W69245   6.845  33.293  10.807
97630W        W69246  37.925   6.683  10.716
97631W        W69247  27.701   7.708  12.123
97632W        W69248  31.168  44.327  12.046
97633W        W69249   1.973  44.578  11.089
97634W        W69250  10.237   4.892   0.253
97635W        W69251  35.359  41.286   0.399
97636W        W69252   1.788  39.852  11.560
97637W        W69253  41.251  39.360   0.972
97638W        W69254  26.552   5.209   2.632
97639W        W69255  39.089  37.343   3.723
97640W        W69256  34.428  27.151  14.270
97641W        W69257  25.688  13.949   3.436
97642W        W69258  42.069  12.801   0.822
97643W        W69259  29.164   6.332  14.665
97644W        W69260  29.873  13.721  14.447
97645W        W69261  14.139  18.093  14.245
97646W        W69262   4.645  37.085  12.582
97647W        W69263   0.692  14.248  10.232
97648W        W69264  16.754  37.415   4.498
97649W        W69265  13.690   3.963  11.701
97650W        W69266  35.659  15.626  10.837
97651W        W69267  17.219  24.587   1.688
97652W        W69268  34.221  22.056   4.539
97653W        W69269  43.048  41.883   4.032
97654W        W69270  28.032  28.677   1.371
97655W        W69271  17.796  33.372   2.273
97656W        W69272  17.813  34.505  14.229
97657W        W69273  14.767  31.280   4.113
97658W        W69274  19.758  39.870  12.045
97659W        W69275  44.703  39.022   1.280
97660W        W69276  37.529  43.867   4.098
97661W        W69277  29.052  33.271   0.866
97662W        W69278  18.217  20.126  10.741
97663W        W69279  17.820  35.352  11.582
97664W        W69280  22.717  21.957  11.532
97665W        W69281  13.181   5.402   4.681
97666W        W69282   3.441   2.027   4.538
97667W        W69283  40.329  31.672   4.333
97668W        W69284  40.257   4.678  14.880
97669W        W69285  40.114  30.969   0.266
97670W        W69286  19.814   7.751   3.673
97671W        W69287  43.518  24.034  13.438
97672W        W69288  39.757   2.690   4.554
97673W        W69289  41.419  30.895  12.064
97674W        W69290  43.495   5.837   1.415
97675W        W69291   6.215  36.624  14.570
97676W        W69292  13.902  24.085  12.866
97677W        W69293  14.711  32.938   0.597
97678W        W69294   4.545  23.028   9.861
97679W        W69295  32.985  11.361  14.345
97680W        W69296  35.585  27.509  11.708
97681W        W69297  34.792  31.923   0.455
97682W        W69298  29.332  37.236  13.083
97683W        W69299  14.404   4.818   3.727
97684W        W69300  37.335  17.143   2.584
97685W        W69301  22.741  21.569  12.570
97686W        W69302   8.183  18.834   2.639
97687W        W69303  26.178  34.901  14.256
97688W        W69304  38.355  30.629   4.555
97689W        W69305  44.524  15.384   2.312
97690W        W69306  16.265  19.271  11.970
97691W        W69307  15.282  13.624   4.527
97692W        W69308   7.062  35.716  11.588
97693W        W69309  18.833  37.613   3.076
97694W        W69310  21.889  15.133  10.768
97695W        W69311   5.341  22.531  14.319
97696W        W69312   1.260  43.172  11.338
97697W        W69313  33.552  20.445  13.859
97698W        W69314  19.032  39.932   2.125
97699W        W69315   9.946  20.961  14.855
97700W        W69316  30.474   3.583   1.827
97701W        W69317  17.867  21.270  12.597
97702W        W69318  24.980   5.341   0.815
97703W        W69319  33.694  13.359  12.917
97704W        W69320  40.282  22.718  11.933
97705W        W69321   9.337   7.050  12.838
97706W        W69322  14.595  32.951   1.705
97707W        W69323  12.165  28.379  10.946
97708W        W69324  12.404  21.102  11.948
97709W        W69325   0.187  31.261   4.120
97710W        W69326  17.650  14.503   2.837
97711W        W69327   8.677  14.355  13.923
97712W        W69328   7.683  18.820   3.775
97713W        W69329  20.331  32.545  14.901
97714W        W69330  32.572  25.958  11.607
97715W        W69331  38.941   3.539   0.029
97716W        W69332  43.920  23.273  11.313
97717W        W69333  39.034  23.564   4.064
97718W        W69334  12.340  43.698  13.017
97719W        W69335  24.512  26.903  13.901
97720W        W69336  14.361  12.533  13.437
97721W        W69337  17.235  24.638   1.169
97722W        W69338  25.490  15.587   4.584
97723W        W69339  42.237  40.070   0.483
97724W        W69340  33.053  34.311   0.761
97725W        W69341  31.622  15.897  12.944
97726W        W69342  37.247  14.700  13.872
97727W        W69343  32.161  16.302  13.539
97728W        W69344  17.735  17.236   5.492
97729W        W69345  10.245  19.331  12.484
97730W        W69346  20.847   6.495  14.375
97731W        W69347  28.131   8.137  10.587
97732W        W69348  20.641  43.778   3.412
97733W        W69349   8.431  40.578  13.862
97734W        W69350  36.051  38.963  14.765
97735W        W69351  10.446  17.682  10.823
97736W        W69352   5.148  21.096  13.991
97737W        W69353   7.112  27.475  14.983
97738W        W69354  28.445  19.555   4.146
97739W        W69355  36.761  29.954  12.358
97740W        W69356  22.131  38.682  11.312
97741W        W69357  33.251  23.339   1.784
97742W        W69358  23.582  10.774  13.972
97743W        W69359  31.685  33.831  10.835
97744W        W69360  36.948   5.788   1.684
97745W        W69361  12.842  19.756  13.578
97746W        W69362  14.000   4.921  13.494
97747W        W69363   2.314   7.028  11.116
97748W        W69364  44.276  31.107   1.739
97749W        W69365  44.223  43.273  11.140
97750W        W69366  24.404  43.338  11.592
97751W        W69367  40.299  28.127   3.033
97752W        W69368  15.751  21.159   3.699
97753W        W69369  30.382  22.162  11.997
97754W        W69370  14.064   2.505   4.123
97755W        W69371  24.955  27.569   2.321
97756W        W69372   8.328   8.151  12.120
97757W        W69373  42.836   6.189  10.807
97758W        W69374  37.504  36.838  10.677
97759W        W69375  43.197   7.212  12.345
97760W        W69376  39.142  36.825  13.648
97761W        W69377  32.466  11.130  11.326
97762W        W69378  20.379  28.663   3.764
97763W        W69379  35.381  38.062  14.994
97764W        W69380   3.902  33.599   4.478
97765W        W69381  43.036  25.529  11.838
97766W        W69382  13.570  24.453  12.652
97767W        W69383  24.949  34.141  14.843
97768W        W69384   5.985  37.083  14.748
97769W        W69385  29.938  28.404  11.662
97770W        W69386  30.635  28.501  13.412
97771W        W69387  39.039   7.427  13.307
97772W        W69388   9.320  24.494   1.145
97773W        W69389  25.593  15.598  13.149
97774W        W69390  38.978   8.990   4.688
97775W        W69391  20.319  44.524   1.802
97776W        W69392  42.619  15.234   3.730
97777W        W69393  28.699  15.393  11.143
97778W        W69394  44.379  43.115   0.455
97779W        W69395  32.923   9.344   1.660
97780W        W69396  21.267  25.695   0.034
97781W        W69397  21.759  26.373   3.813
97782W        W69398  33.463   5.745   2.395
97783W        W69399  35.135  44.208   3.399
97784W        W69400  44.475  19.741   2.646
97785W        W69401  16.166   8.074   0.295
97786W        W69402  43.029   8.021   5.133
97787W        W69403  26.282  18.823  13.685
97788W        W69404  22.746  24.065   9.894
97789W        W69405  20.444  41.310  11.255
97790W        W69406  14.060  25.740   1.244
97791W        W69407  39.406  15.299  13.826
97792W        W69408  42.922  35.622  11.886
97793W        W69409   4.377   2.251  12.876
97794W        W69410  22.185  20.480  11.497
97795W        W69411  38.530   3.695   0.905
97796W        W69412  21.123   0.025  14.372
97797W        W69413  15.540  12.737   3.087
97798W        W69414  30.935  29.670  13.921
97799W        W69415  33.358  39.042   3.296
97800W        W69416  25.529  32.381  12.554
97801W        W69417   9.858  14.298  13.572
97802W        W69418  43.771  44.964   2.798
97803W        W69419  15.202  41.636  14.462
97804W        W69420  10.764  37.851  11.828
97805W        W69421  26.728  29.012   4.649
97806W        W69422  35.121  38.380   2.827
97807W        W69423   0.652  25.242   4.174
97808W        W69424  16.651  14.341   1.964
97809W        W69425  32.876   4.566  12.767
97810W        W69426  13.820  11.359   4.341
97811W        W69427   7.151   4.253  13.503
97812W        W69428  21.975  41.863   1.919
97813W        W69429  36.979   3.882  13.417
97814W        W69430   9.259   9.326   4.155
97815W        W69431   6.996  10.222   1.185
97816W        W69432  27.468  20.645  12.851
97817W        W69433  44.446  17.844  11.153
97818W        W69434  40.874   0.679  13.561
97819W        W69435  20.662  14.942   2.211
97820W        W69436   6.298  10.353  11.082
97821W        W69437   9.819  31.974   0.936
97822W        W69438   3.247  43.297   5.446
97823W        W69439  11.119  28.985   0.803
97824W        W69440  41.904  10.196   4.240
97825W        W69441  17.489  12.288   0.485
97826W        W69442  30.547  10.638   0.549
97827W        W69443  20.614   3.404   3.826
97828W        W69444  27.642   1.001  11.180
97829W        W69445   1.469  27.968  13.786
97830W        W69446  22.003  33.979   4.148
97831W        W69447  37.424   7.307  14.908
97832W        W69448  32.125  19.696   1.739
97833W        W69449  39.555  23.603   1.986
97834W        W69450   0.710  20.026   3.182
97835W        W69451   8.604  44.274   0.265
97836W        W69452  27.157  18.093  13.052
97837W        W69453  41.420  24.080  12.466
97838W        W69454   8.298  34.287   0.572
97839W        W69455  17.976  32.981  13.522
97840W        W69456  35.224  28.942   4.346
97841W        W69457   8.221   4.296  13.803
97842W        W69458  10.084  10.627  12.523
97843W        W69459  14.238   1.463  10.646
97844W        W69460   6.286  39.016  10.207
97845W        W69461  20.639  42.972  11.627
97846W        W69462  43.457  13.640  11.375
97847W        W69463   0.449  26.366  10.730
97848W        W69464  14.522  11.579  14.833
97849W        W69465  33.625  31.041   1.265
97850W        W69466  12.832  32.159   3.102
97851W        W69467   5.485  41.542   0.889
97852W        W69468  17.767  26.226  12.284
97853W        W69469   6.035  12.697   3.939
97854W        W69470  29.670  14.738  14.870
97855W        W69471   7.626  35.793   1.784
97856W        W69472  30.667  32.457  14.224
97857W        W69473  10.137   2.831  14.048
97858W        W69474   2.323  35.595   2.281
97859W        W69475  18.740   6.681  12.975
97860W        W69476  37.981  15.728   4.135
97861W        W69477  37.285  10.629   5.084
97862W        W69478  20.221   7.085  14.958
97863W        W69479   9.484  30.576   2.596
97864W        W69480   8.562  10.321   3.621
97865W        W69481  30.577   9.841   4.574
97866W        W69482  11.590   0.276  13.169
97867W        W69483  43.012  36.208   0.883
97868W        W69484  21.923  43.289  11.540
97869W        W69485  33.028  12.718   2.597
97870W        W69486   0.234  42.627   4.300
97871W        W69487  36.878  23.138   3.671
97872W        W69488  16.500   0.761  13.635
97873W        W69489   2.968  20.897   0.929
97874W        W69490  15.039  39.930  11.625
97875W        W69491  21.183  39.247  12.957
97876W        W69492  26.702  44.099   0.142
97877W        W69493  44.332  15.657  12.136
97878W        W69494  19.243  38.732   2.424
97879W        W69495  35.788  38.836   3.223
97880W        W69496  23.881  26.688   4.429
97881W        W69497  13.533  32.166   4.046
97882W        W69498  30.609  41.508   4.681
97883W        W69499   2.710  41.305   1.720
97884W        W69500  27.275  35.404   2.439
97885W        W69501  11.115  40.640  14.953
97886W        W69502   4.807  19.377  14.420
97887W        W69503  30.879  10.271   4.598
97888W        W69504  20.195  34.948   0.490
97889W        W69505  27.736   2.376  11.075
97890W        W69506  19.659  12.124  10.687
97891W        W69507  25.742  22.044   3.168
97892W        W69508  12.679  13.233  11.430
97893W        W69509   1.235  38.376   1.838
97894W        W69510  22.657  26.550   0.771
97895W        W69511  37.244   6.766  12.046
97896W        W69512  41.962  37.117   2.217
97897W        W69513  36.416  22.473  13.317
97898W        W69514   5.758  20.571   1.789
97899W        W69515  44.012   8.510   1.018
97900W        W69516  38.843  32.421   0.795
97901W        W69517  14.589  16.144   3.713
97902W        W69518  44.535  43.817   1.584
97903W        W69519  18.668  43.859  11.513
97904W        W69520  20.036   7.416  10.578
97905W        W69521  38.364  27.575   2.550
97906W        W69522  10.908  36.908   1.388
97907W        W69523  40.389  42.574  13.044
97908W        W69524   2.406  31.064   1.866
97909W        W69525  44.215  35.108  10.296
97910W        W69526  39.304  11.247   5.372
97911W        W69527  19.705  16.249   0.326
97912W        W69528  35.977  10.419   3.792
97913W        W69529  37.356  11.256  13.788
97914W        W69530  28.020  40.117   3.183
97915W        W69531  12.239  35.387  12.316
97916W        W69532  36.139   8.819   2.363
97917W        W69533  35.878  38.905   0.270
97918W        W69534   2.542  14.508   2.835
97919W        W69535   6.887  12.842   2.533
97920W        W69536  43.703  17.570   4.096
97921W        W69537  39.543   6.166   0.790
97922W        W69538   4.109  17.354   0.256
97923W        W69539  41.593  25.466   3.666
97924W        W69540  36.609  15.703  11.177
97925W        W69541  13.128  22.108   1.878
97926W        W69542   7.544   2.424  12.157
97927W        W69543  35.866  37.605   5.343
97928W        W69544  20.917   5.174  10.133
97929W        W69545  28.657  30.018  12.476
97930W        W69546   2.879  34.865   4.626
97931W        W69547   0.960  23.451   1.502
97932W        W69548   6.396  16.762  12.319
97933W        W69549  33.730  41.078  12.032
97934W        W69550  28.773  37.835   4.874
97935W        W69551  17.851   4.574   0.730
97936W        W69552  36.207  18.569  14.736
97937W        W69553  13.549   8.569  14.793
97938W        W69554  15.557  36.367  12.927
97939W        W69555  13.125  42.766   3.681
97940W        W69556  25.937   3.214   1.511
97941W        W69557  15.766  16.000   5.048
97942W        W69558   7.453  42.465  13.846
97943W        W69559   2.200  27.138  13.543
97944W        W69560  15.130  43.340   3.590
97945W        W69561  37.444   4.000  10.543
97946W        W69562  21.530  42.602   4.227
97947W        W69563   9.913  13.282  14.304
97948W        W69564   9.564   8.639  13.731
97949W        W69565   8.600  26.122  12.015
97950W        W69566   7.770  35.976   0.388
97951W        W69567  34.009  36.370   3.591
97952W        W69568   2.916  44.186   3.610
97953W        W69569  14.255  22.184   4.506
97954W        W69570  22.607  24.556  10.715
97955W        W69571  28.947  36.459  14.187
97956W        W69572  36.065  43.056  10.192
97957W        W69573   5.218   3.727   1.915
97958W        W69574  24.443  30.689   4.119
97959W        W69575  21.024  34.888   4.989
97960W        W69576  32.628  32.859   4.389
97961W        W69577   3.529  44.370  11.466
97962W        W69578   9.848  44.339   0.708
97963W        W69579   8.759  27.944  13.565
97964W        W69580   1.530   6.901  10.831
97965W        W69581  38.294  30.043  12.078
97966W        W69582  42.370  22.105  13.890
97967W        W69583  21.177  41.249  14.738
97968W        W69584  43.578  10.731  13.876
97969W        W69585  27.912  38.794   4.550
97970W        W69586  41.934   9.651   2.244
97971W        W69587  26.219  26.019  12.931
97972W        W69588  41.797  11.912   3.712
97973W        W69589  41.291   1.916  10.431
97974W        W69590   2.395  33.594   1.782
97975W        W69591  14.855  31.117  11.034
97976W        W69592  24.402   0.795   3.873
97977W        W69593  37.451  19.074   2.503
97978W        W69594  11.111  34.903  12.502
97979W        W69595   5.440   2.278  13.473
97980W        W69596  11.368  30.617  13.538
97981W        W69597  36.810  13.745   3.542
97982W        W69598   4.005   7.706  11.616
97983W        W69599  26.561  32.174  12.272
97984W        W69600   8.307   3.228   0.207
97985W        W69601   6.427   8.318  12.150
97986W        W69602  31.035  18.106   3.220
97987W        W69603  22.740  13.719   4.605
97988W        W69604  29.973  34.533   3.087
97989W        W69605  22.180  29.486  10.489
97990W        W69606  21.072  24.454   1.156
97991W        W69607   4.255  16.871   0.434
97992W        W69608   8.546  20.154   4.838
97993W        W69609  30.632  36.577   3.081
97994W        W69610  11.389  10.363  10.516
97995W        W69611  32.098  19.112  10.880
97996W        W69612  43.411  44.432  10.948
97997W        W69613  33.096  29.657  14.331
97998W        W69614   8.171  12.963  12.945
97999W        W69615  29.939  11.681  13.262
98000W        W69616  42.238  37.362   3.395
98001W        W69617  12.711  35.337   1.440
98002W        W69618  14.179   3.616  14.109
98003W        W69619  35.111  25.612   2.218
98004W        W69620  25.275  35.919  10.749
98005W        W69621  13.259   6.628   3.173
98006W        W69622  41.064  24.838  14.445
98007W        W69623   2.048   4.811  10.947
98008W        W69624  36.625  29.024  12.789
98009W        W69625  42.011  29.524   1.763
98010W        W69626   0.539  29.520   3.905
98011W        W69627  19.156   5.902   1.208
98012W        W69628   8.137  30.741   2.998
98013W        W69629   2.701   5.356  11.837
98014W        W69630   5.521  26.822  11.430
98015W        W69631  37.735   5.624  12.791
98016W        W69632  19.091  26.061  13.383
98017W        W69633  24.277  18.583   2.133
98018W        W69634  36.881  30.641  14.422
98019W        W69635   3.189  35.030   3.196
98020W        W69636  15.643   2.323  13.410
98021W        W69637  30.865  35.033   0.811
98022W        W69638  20.010  21.570   0.107
98023W        W69639  14.113  13.181   4.399
98024W        W69640  34.758  33.637   3.679
98025W        W69641  28.714  12.359   0.408
98026W        W69642   0.915  17.797  14.101
98027W        W69643   3.881  12.282  11.394
98028W        W69644  11.750   4.528   0.402
98029W        W69645  22.238  34.519   3.788
98030W        W69646  33.080  43.304   0.740
98031W        W69647  33.983  39.542   0.582
98032W        W69648  42.381  19.789  13.502
98033W        W69649  35.321  10.859   4.878
98034W        W69650  21.403   7.889   3.707
98035W        W69651  32.415  29.919   4.173
98036W        W69652   2.714  27.415   0.537
98037W        W69653   3.834  38.486  10.633
98038W        W69654  44.283   3.881   2.371
98039W        W69655  18.988  12.454  13.762
98040W        W69656  23.836  31.540   2.309
98041W        W69657  18.243  11.390   3.622
98042W        W69658  32.544  23.827  14.828
98043W        W69659  40.669   5.025   1.974
98044W        W69660  30.362  42.453  14.052
98045W        W69661   0.855  25.016  14.248
98046W        W69662  13.236  19.061   4.177
98047W        W69663  19.053  23.652   3.240
98048W        W69664  18.826  34.858   1.950
98049W        W69665  16.766  12.071  12.686
98050W        W69666  24.299  39.999  12.769
98051W        W69667  34.640  37.910   1.179
98052W        W69668   0.106  17.739   4.588
98053W        W69669  38.139  15.699   3.616
98054W        W69670  30.918  39.905  12.792
98055W        W69671   8.152  41.122   1.752
98056W        W69672  28.696  15.614   1.447
98057W        W69673  20.761  13.131   1.722
98058W        W69674  35.544  43.741  14.347
98059W        W69675   8.151   5.719   1.275
98060W        W69676  13.572  16.241   2.670
98061W        W69677  31.455  12.587  10.672
98062W        W69678   8.274  13.338   1.598
98063W        W69679  25.605   9.899   2.370
98064W        W69680  36.902   0.422   1.232
98065W        W69681   7.422  14.800   4.128
98066W        W69682  23.678  27.243  11.006
98067W        W69683   2.722   7.393  11.773
98068W        W69684  24.690   2.225   2.374
98069W        W69685  20.013  30.908  14.875
98070W        W69686  13.731  10.834   0.493
98071W        W69687  21.995  16.126   1.836
98072W        W69688  16.593  26.643   1.185
98073W        W69689  29.565  16.302   1.302
98074W        W69690  30.629  17.371  11.632
98075W        W69691  19.662  19.525   0.016
98076W        W69692  38.760  23.244   0.197
98077W        W69693   1.608  43.839  14.201
98078W        W69694  32.132  23.554   0.006
98079W        W69695  30.043  39.794   1.713
98080W        W69696   2.024   8.598   2.926
98081W        W69697  19.528  24.567   3.655
98082W        W69698  25.220  42.262   3.625
98083W        W69699  34.493  22.192   2.851
98084W        W69700  33.455  39.780   0.493
98085W        W69701  34.860  24.863  10.278
98086W        W69702  21.013  44.593  11.817
98087W        W69703   3.535  23.183   4.795
98088W        W69704  19.014  40.961   2.151
98089W        W69705   4.814  25.412  14.472
98090W        W69706  42.799  29.181  12.943
98091W        W69707  43.422  43.835   2.946
98092W        W69708  41.189   7.449   3.974
98093W        W69709   8.147   7.181  12.071
98094W        W69710   9.051  42.315  14.072
98095W        W69711  38.778  42.005  11.797
98096W        W69712  15.859   1.728  11.115
98097W        W69713   1.372  28.737   3.803
98098W        W69714  19.290  32.034  12.299
98099W        W69715  19.013  11.213   1.848
98100W        W69716  13.767  23.633  11.161
98101W        W69717  22.738  20.531   1.696
98102W        W69718  10.219  24.211   4.561
98103W        W69719  41.968  16.210  14.265
98104W        W69720   8.422   5.301  14.569
98105W        W69721  35.919  34.007   4.381
98106W        W69722  28.888   8.638   2.563
98107W        W69723   0.013  38.037  11.541
98108W        W69724  38.084  44.518  11.251
98109W        W69725  23.474  10.160   3.907
98110W        W69726   9.353  33.465  13.874
98111W        W69727  12.148  34.091   3.052
98112W        W69728  12.056  31.152  12.879
98113W        W69729  31.621  39.905  11.467
98114W        W69730   3.149  10.271  12.919
98115W        W69731  41.835  21.545  14.976
98116W        W69732   8.867  42.025  14.483
98117W        W69733   4.005  24.985   4.169
98118W        W69734  23.970  18.414  11.174
98119W        W69735   1.321  25.143  11.032
98120W        W69736  19.565   3.485   1.801
98121W        W69737  24.748  24.999   3.738
98122W        W69738   8.204  36.361  11.112
98123W        W69739  19.742  43.280  11.195
98124W        W69740   2.878  37.895   4.399
98125W        W69741   3.825  44.198   1.133
98126W        W69742  26.978  38.944  13.504
98127W        W69743   2.774   8.382  14.884
98128W        W69744  23.705  42.525   4.913
98129W        W69745   8.211   5.266   3.584
98130W        W69746  22.264  27.494  13.143
98131W        W69747  27.315  42.288  12.938
98132W        W69748  41.837  29.557  13.910
98133W        W69749   6.710   0.865  12.564
98134W        W69750   0.988  35.115  13.058
98135W        W69751  28.673  29.624   2.460
98136W        W69752  27.188  16.175   2.153
98137W        W69753  30.400   8.711  14.956
98138W        W69754   2.930   7.042   0.911
98139W        W69755  23.321   0.379   4.956
98140W        W69756  38.397  42.871   1.707
98141W        W69757  35.191   2.137   2.821
98142W        W69758   4.663   9.329   3.559
98143W        W69759   0.811   3.898   3.830
98144W        W69760  15.626  19.574  10.038
98145W        W69761  20.193   6.404  12.862
98146W        W69762   4.199  41.763   3.386
98147W        W69763  12.405   5.289   3.156
98148W        W69764  11.619  37.523   0.371
98149W        W69765  39.603   4.072  10.509
98150W        W69766  34.838  23.025   3.558
98151W        W69767  37.423  12.255   4.636
98152W        W69768  15.265  16.061   4.163
98153W        W69769   2.411  41.554  11.528
98154W        W69770   4.522  43.440   1.915
98155W        W69771  29.704  23.770   1.870
98156W        W69772  13.574  34.140   2.768
98157W        W69773  28.964  34.685  10.637
98158W        W69774  42.536  37.073   0.953
98159W        W69775   7.595  44.467  14.353
98160W        W69776  37.636  38.896   3.588
98161W        W69777   2.207  10.217  11.053
98162W        W69778  31.738  41.257   0.665
98163W        W69779  43.462   8.601  14.279
98164W        W69780   7.231   5.232   1.743
98165W        W69781  14.120  24.677   4.881
98166W        W69782  21.306  31.222   1.270
98167W        W69783  39.607  18.625  11.641
98168W        W69784  41.389  33.990  12.587
98169W        W69785  37.512  16.054   0.789
98170W        W69786  33.000   8.329  14.322
98171W        W69787  25.962  10.905   2.273
98172W        W69788  37.511   3.059  11.588
98173W        W69789  33.849  11.549   0.475
98174W        W69790  40.363  32.925  14.879
98175W        W69791  34.451  20.640  12.673
98176W        W69792  37.465   4.570   1.800
98177W        W69793  23.893  26.971   0.688
98178W        W69794   7.860  32.305  14.553
98179W        W69795  27.018  33.480   0.528
98180W        W69796  36.464  20.738  13.467
98181W        W69797  16.083  23.810   4.155
98182W        W69798  26.686  32.169   2.735
98183W        W69799  40.052  32.489  10.407
98184W        W69800  21.620   8.395   3.637
98185W        W69801  12.710  33.007   2.156
98186W        W69802   0.420  30.499   1.309
98187W        W69803  15.223  36.298   1.740
98188W        W69804   7.698  43.830  13.771
98189W        W69805  35.129   1.734   1.669
98190W        W69806  34.974  30.484  14.364
98191W        W69807   8.474   3.953  14.096
98192W        W69808  26.986   5.033   4.136
98193W        W69809  27.906  18.709   0.171
98194W        W69810  39.075  27.004  10.217
98195W        W69811  37.838  43.692  13.478
98196W        W69812  26.465  12.294   3.281
98197W        W69813   3.991   9.147  11.568
98198W        W69814  34.127  32.242   2.231
98199W        W69815  24.499  13.261  11.493
98200W        W69816  40.851   2.764   4.585
98201W        W69817  25.979  34.086   4.486
98202W        W69818  20.103   4.259  11.853
98203W        W69819  21.488  12.205  12.873
98204W        W69820  15.818  39.350   4.492
98205W        W69821  24.560   1.412   4.678
98206W        W69822  13.625   2.228   2.094
98207W        W69823  31.401  13.057   2.232
98208W        W69824  17.329  35.916   4.143
98209W        W69825  36.023  36.359   3.791
98210W        W69826  27.442  16.764   9.851
98211W        W69827  33.394  24.759  10.153
98212W        W69828  22.290  43.807  12.253
98213W        W69829  10.928   0.806  14.541
98214W        W69830  37.025  24.209  11.006
98215W        W69831   4.998  15.583  11.157
98216W        W69832  18.992  34.217  10.737
98217W        W69833  14.157  37.126   0.285
98218W        W69834  34.831   2.381  14.487
98219W        W69835  19.793  13.642   2.086
98220W        W69836  34.155  30.133  11.337
98221W        W69837   5.060   4.264   0.238
98222W        W69838  28.617   1.509   1.824
98223W        W69839  29.204  19.642   3.161
98224W        W69840  44.226   7.763   1.499
98225W        W69841  31.347  19.001  14.005
98226W        W69842  17.233  27.414   2.204
98227W        W69843  43.342   3.804   3.144
98228W        W69844  30.488   4.998   3.643
98229W        W69845  31.023  16.802   3.321
98230W        W69846  35.823   7.940  12.387
98231W        W69847  19.914  19.570   2.649
98232W        W69848   6.496  38.008   1.915
98233W        W69849  19.192  30.648  10.515
98234W        W69850  16.658  28.605   0.750
98235W        W69851  38.508  19.184  11.046
98236W        W69852  29.474  41.063   1.823
98237W        W69853  26.874   5.179  10.991
98238W        W69854   7.394   0.918  13.907
98239W        W69855  14.854  32.166   2.257
98240W        W69856  20.207  43.629  10.621
98241W        W69857  13.797   7.356   1.000
98242W        W69858  23.113  41.233   3.621
98243W        W69859  33.705  15.305  12.037
98244W        W69860  37.984  33.873   1.755
98245W        W69861  15.234  23.961   4.453
98246W        W69862  16.811  20.604  10.705
98247W        W69863  25.129   6.677   0.399
98248W        W69864  29.764  31.647  14.250
98249W        W69865  27.353  27.645  11.119
98250W        W69866  32.129  35.305   1.073
98251W        W69867  16.695  33.563   0.892
98252W        W69868  18.572  37.910   4.424
98253W        W69869  19.260   9.341   1.900
98254W        W69870  18.101   9.725   3.311
98255W        W69871   4.766  41.328   2.776
98256W        W69872  15.933  18.642   0.355
98257W        W69873  35.591  23.111   3.142
98258W        W69874  44.267  42.864  10.789
98259W        W69875  29.022  11.319   4.378
98260W        W69876  25.189  44.094   3.446
98261W        W69877  15.284  28.188  13.056
98262W        W69878  34.558  40.180   2.358
98263W        W69879  19.028  28.107  13.794
98264W        W69880   5.886  22.467  14.925
98265W        W69881  43.155   8.657  14.706
98266W        W69882  39.397  20.568   0.108
98267W        W69883   7.933  38.770   2.177
98268W        W69884   1.267   7.565  11.183
98269W        W69885  17.573  11.264  14.514
98270W        W69886  25.899  18.069   2.231
98271W        W69887  40.144  42.025  14.048
98272W        W69888  10.984  38.398   1.328
98273W        W69889  31.862  24.238   1.025
98274W        W69890  18.421  30.635  13.074
98275W        W69891  43.555  36.162  11.523
98276W        W69892  28.051  44.474   0.342
98277W        W69893   4.893  29.947   2.925
98278W        W69894  25.869  29.713  12.993
98279W        W69895  29.449   4.689  13.998
98280W        W69896   9.347  14.356   1.307
98281W        W69897  26.435  22.840  12.847
98282W        W69898  32.122  30.608   1.903
98283W        W69899   7.884  10.466   4.079
98284W        W69900  21.793  12.741  11.690
98285W        W69901  19.622  34.878  12.771
98286W        W69902  34.952   5.934   3.312
98287W        W69903  37.579  25.432  14.855
98288W        W69904  38.538  32.961   1.825
98289W        W69905  27.202  31.664   4.206
98290W        W69906  25.757  26.029   2.897
98291W        W69907   9.592  14.681  11.562
98292W        W69908  19.430  17.042  12.495
98293W        W69909  35.134  23.094   2.142
98294W        W69910  32.243  18.170   0.314
98295W        W69911  14.364  41.717   4.657
98296W        W69912  40.082  12.429  11.956
98297W        W69913  27.726  25.553   4.266
98298W        W69914  15.236  24.656   0.255
98299W        W69915   4.019  22.225  13.774
98300W        W69916  39.769  30.063  11.124
98301W        W69917   0.296  12.097   0.493
98302W        W69918  17.529  44.815   2.295
98303W        W69919  37.471  42.745  11.093
98304W        W69920  30.371  23.327  13.362
98305W        W69921  42.410  27.407   2.427
98306W        W69922  20.840  44.212  14.003
98307W        W69923  18.919  21.201  11.273
98308W        W69924  14.821  25.054   4.112
98309W        W69925  10.471  24.555  13.851
98310W        W69926  31.868  13.720   4.597
98311W        W69927   4.706  13.713  14.018
98312W        W69928  18.012  25.604   0.229
98313W        W69929  42.301  31.426  12.821
98314W        W69930   8.379  23.123   4.512
98315W        W69931  22.035  32.534   0.982
98316W        W69932  16.290  36.159   0.921
98317W        W69933  33.079   5.251  14.482
98318W        W69934  32.523  18.133   0.799
98319W        W69935  31.009  16.566   2.859
98320W        W69936  16.583  43.077   1.642
98321W        W69937  15.851  18.511   5.491
98322W        W69938   9.174   1.845   0.390
98323W        W69939  24.562  34.995   0.951
98324W        W69940  35.514   3.144   4.817
98325W        W69941  12.688  42.269   4.140
98326W        W69942   7.929  19.235   0.040
98327W        W69943  39.378  26.786  12.472
98328W        W69944  21.064  41.749   2.262
98329W        W69945  31.437  26.536   1.203
98330W        W69946   5.410   2.750  10.566
98331W        W69947  29.348   5.248  10.751
98332W        W69948  38.331  11.733  12.519
98333W        W69949  33.184  19.265  12.579
98334W        W69950  19.726  32.698  10.755
98335W        W69951   7.953  43.809  11.091
98336W        W69952  30.918  36.919   1.869
98337W        W69953  13.369  14.187   0.311
98338W        W69954  29.024  19.609  12.986
98339W        W69955   0.097   1.278   3.970
98340W        W69956  26.473  15.355   0.470
98341W        W69957  21.591  26.615  13.426
98342W        W69958  43.329  23.124   0.288
98343W        W69959   0.483  19.684   2.815
98344W        W69960   9.644  32.421   4.424
98345W        W69961   4.861  44.347   0.619
98346W        W69962  23.111  24.788   3.159
98347W        W69963  20.422  32.444  14.055
98348W        W69964  18.279  24.286   3.222
98349W        W69965  28.228   8.630  10.730
98350W        W69966   6.753   4.392  13.865
98351W        W69967  15.803  42.122   1.712
98352W        W69968  17.828  28.198  12.582
98353W        W69969  25.169   3.923   0.791
98354W        W69970  36.421  23.115   1.283
98355W        W69971  42.754  32.544  10.932
98356W        W69972   2.383   6.354   1.461
98357W        W69973  33.993  26.543  13.811
98358W        W69974   2.185  13.814  14.396
98359W        W69975  26.370   8.716   1.725
98360W        W69976  20.064  28.528  12.474
98361W        W69977   4.316  15.125   3.529
98362W        W69978  28.339  18.527   1.776
98363W        W69979  13.071  32.891  12.527
98364W        W69980  31.179  17.284  12.943
98365W        W69981  29.383  26.149  11.107
98366W        W69982  28.586   4.774   0.453
98367W        W69983  15.622  31.507   1.508
98368W        W69984  35.018  14.908  11.332
98369W        W69985  11.638  28.458  12.469
98370W        W69986   2.664  33.480  13.936
98371W        W69987  22.673   9.844   2.710
98372W        W69988   5.180   6.836  11.996
98373W        W69989  12.067   9.564   3.355
98374W        W69990   8.237  42.850  13.876
98375W        W69991   6.503   2.635   4.193
98376W        W69992  26.123   4.684   4.144
98377W        W69993  42.027  21.668   3.918
98378W        W69994   1.371  17.600  14.206
98379W        W69995  36.580  30.428  10.692
98380W        W69996  27.390   9.627  13.325
98381W        W69997  34.024  27.056   3.347
98382W        W69998  27.735  41.335   3.631
98383W        W69999  15.657  21.913   4.086
98384W        W70000  20.862  38.506   0.823
98385W        W70001  28.249  12.669   0.839
98386W        W70002  26.666  34.939  14.407
98387W        W70003   2.043  27.208  13.038
98388W        W70004  19.708  14.597  11.565
98389W        W70005  20.499  29.633   1.286
98390W        W70006   2.762  32.726  14.421
98391W        W70007   7.036   6.398  12.822
98392W        W70008  33.548  34.544   2.701
98393W        W70009   6.783  20.474  14.716
98394W        W70010  38.831  23.141  10.923
98395W        W70011   3.391  31.413  14.399
98396W        W70012  34.549  38.349   4.482
98397W        W70013  30.619  11.276  14.245
98398W        W70014   5.478   8.582  14.065
98399W        W70015  17.532  14.633   1.916
98400W        W70016  42.679   8.977  10.896
98401W        W70017  24.119  42.681   4.156
98402W        W70018  27.263  20.519   2.646
98403W        W70019  36.510   9.406   3.370
98404W        W70020  34.978  18.301  12.996
98405W        W70021   8.262  26.137  13.609
98406W        W70022  11.655   9.071  11.553
98407W        W70023  18.097  10.660  12.548
98408W        W70024   6.725  23.291   4.580
98409W        W70025  17.276  23.609  13.127
98410W        W70026  23.029  12.581   0.896
98411W        W70027  24.893   9.415  14.917
98412W        W70028  41.883  34.538  11.495
98413W        W70029  30.381   6.742  14.343
98414W        W70030   9.106   6.349   3.082
98415W        W70031   1.821  34.038  14.044
98416W        W70032  11.983  14.271  10.288
98417W        W70033  20.994  36.421  11.278
98418W        W70034  27.601  40.044   0.484
98419W        W70035  25.063  25.264   2.224
98420W        W70036  43.013  24.638  12.076
98421W        W70037  20.483  33.565  12.077
98422W        W70038   6.221  20.411   2.025
98423W        W70039  22.094  40.872   4.852
98424W        W70040  32.351   7.809  13.872
98425W        W70041   4.253  40.165   0.076
98426W        W70042  30.006  23.589  13.626
98427W        W70043  10.240  21.849   1.851
98428W        W70044  24.204  19.401   2.806
98429W        W70045  27.477  33.618  14.354
98430W        W70046   3.811   5.692   4.271
98431W        W70047  38.334   5.952  13.077
98432W        W70048  11.254  42.906  14.661
98433W        W70049   1.256  16.260  11.988
98434W        W70050  31.572  20.668  13.994
98435W        W70051  13.662   4.745  10.387
98436W        W70052  43.709   8.717   5.034
98437W        W70053  18.562  40.986   0.784
98438W        W70054  17.756  37.047  11.984
98439W        W70055   2.146   6.967   3.711
98440W        W70056  14.201  36.021   1.308
98441W        W70057  16.797   6.866   3.274
98442W        W70058  18.706  17.259   3.620
98443W        W70059  37.541  30.610  14.850
98444W        W70060  26.188  23.439  11.123
98445W        W70061   8.663  17.839  13.478
98446W        W70062  41.019  40.562  11.599
98447W        W70063  23.746  39.985  11.902
98448W        W70064   2.908  17.919  13.871
98449W        W70065  30.744   2.578   0.926
98450W        W70066  27.274  23.603  14.419
98451W        W70067  29.413   2.477   4.048
98452W        W70068  17.131  12.252  14.050
98453W        W70069  17.845  36.036  13.417
98454W        W70070  42.365  25.311   1.307
98455W        W70071  30.511  41.750  13.586
98456W        W70072  29.802  16.924  10.440
98457W        W70073  11.399  10.182   0.439
98458W        W70074  19.701  11.771   2.265
98459W        W70075  27.090  20.635  12.486
98460W        W70076  21.250  13.925  13.494
98461W        W70077  35.765  36.091  11.459
98462W        W70078  31.898  42.807  13.342
98463W        W70079   9.216  11.235  14.042
98464W        W70080  38.286  14.849   4.876
98465W        W70081  30.297  12.896  14.829
98466W        W70082  39.894   5.254   3.187
98467W        W70083  12.393   9.605  10.867
98468W        W70084   8.263  29.572  12.068
98469W        W70085  11.085   5.188   1.361
98470W        W70086  12.776   1.738  14.450
98471W        W70087  31.866  26.534   2.680
98472W        W70088  32.861  17.515   4.655
98473W        W70089  12.811   7.941   0.259
98474W        W70090  24.190  23.127   4.635
98475W        W70091  29.050  17.845  10.571
98476W        W70092   5.947  41.629   2.182
98477W        W70093  19.065  19.229   3.064
98478W        W70094  33.342  13.815   3.686
98479W        W70095   5.122  38.428  13.874
98480W        W70096  40.564  18.576  12.623
98481W        W70097  16.609  35.058   4.286
98482W        W70098  42.138   4.816  11.488
98483W        W70099  10.598  22.622   4.978
98484W        W70100  17.186   4.952  14.799
98485W        W70101  14.404  13.228   2.929
98486W        W70102   4.416  38.859   2.110
98487W        W70103  34.647  26.695   2.679
98488W        W70104  32.380  23.045   4.978
98489W        W70105  38.969  37.970   3.140
98490W        W70106  14.348   6.431  14.902
98491W        W70107   9.413  17.807   0.244
98492W        W70108   8.280  26.704  13.895
98493W        W70109  34.033  30.878   3.698
98494W        W70110  33.544  34.500   4.131
98495W        W70111   4.273  37.566  14.267
98496W        W70112  15.645   5.181  14.239
98497W        W70113  31.185  44.531  12.928
98498W        W70114  30.944   9.766  14.419
98499W        W70115  19.196  10.264  13.572
98500W        W70116  15.287  21.257   4.509
98501W        W70117  23.047  38.096  11.126
98502W        W70118  11.463  41.205   3.731
98503W        W70119   0.036  14.228   3.214
98504W        W70120  27.783  11.744   1.792
98505W        W70121  27.392  38.903   4.631
98506W        W70122   1.210   6.176  14.904
98507W        W70123   3.817   8.167   2.343
98508W        W70124  28.603  35.053  13.921
98509W        W70125   4.221  42.234   4.133
98510W        W70126  35.382  14.269   2.667
98511W        W70127  30.104  44.808  11.021
98512W        W70128  33.971   5.568   4.066
98513W        W70129  43.094  35.042   2.751
98514W        W70130   5.183   5.282   4.173
98515W        W70131  19.084  44.545  11.061
98516W        W70132  27.574  31.171   3.775
98517W        W70133   5.669  39.888   3.853
98518W        W70134  11.660  26.216   3.761
98519W        W70135  24.229  14.710  13.929
98520W        W70136  12.855  28.722   3.465
98521W        W70137  25.938   8.745  14.358
98522W        W70138  25.308  17.199  11.487
98523W        W70139  33.443  13.293  11.945
98524W        W70140  43.821  30.055  10.788
98525W        W70141  27.673  27.472   0.880
98526W        W70142  19.647  34.666   0.588
98527W        W70143  41.851   4.474   1.569
98528W        W70144  11.552  18.079   4.682
98529W        W70145   4.439  29.079   0.914
98530W        W70146  40.664  31.981   4.626
98531W        W70147  28.496   5.355  12.090
98532W        W70148   6.222  11.891  14.767
98533W        W70149  18.812  29.559  10.816
98534W        W70150   8.551  17.161   3.733
98535W        W70151  20.759   2.206   3.243
98536W        W70152  22.270  38.705  12.672
98537W        W70153  20.019  20.614   0.982
98538W        W70154   7.261  20.995  12.465
98539W        W70155  15.142  33.006   4.137
98540W        W70156  19.707  15.624   3.739
98541W        W70157  25.529  24.497   3.720
98542W        W70158  43.480  11.400   0.621
98543W        W70159   1.768  14.158  13.147
98544W        W70160   2.397  40.172   0.372
98545W        W70161   8.227  41.074   0.309
98546W        W70162   2.260  26.058   1.348
98547W        W70163   8.793  41.934   4.219
98548W        W70164  34.477  29.615   2.688
98549W        W70165  35.009   1.714   2.178
98550W        W70166  43.026  39.494   3.719
98551W        W70167  32.507  23.479   0.846
98552W        W70168  13.363  18.953   1.666
98553W        W70169   9.089  20.245   2.701
98554W        W70170   5.675  16.190  13.703
98555W        W70171  17.881   3.192  11.510
98556W        W70172   7.952  10.058  12.633
98557W        W70173  20.077  39.297   4.569
98558W        W70174  15.342  43.745  14.054
98559W        W70175   5.096  38.071  13.352
98560W        W70176   4.229  23.814  10.156
98561W        W70177  41.212  25.124   3.400
98562W        W70178   1.340  24.014   0.923
98563W        W70179  31.150  10.322  14.946
98564W        W70180  39.351  34.989  12.195
98565W        W70181  29.557  21.863  14.039
98566W        W70182  25.711   8.366   0.677
98567W        W70183   8.017  37.321  13.370
98568W        W70184  36.497   3.840   0.204
98569W        W70185   9.720  25.950   1.806
98570W        W70186   7.269   1.794   4.633
98571W        W70187  27.691   0.357   3.230
98572W        W70188  27.296   1.311   2.232
98573W        W70189  17.598  33.406   4.177
98574W        W70190  39.529   0.674   2.308
98575W        W70191  15.859  33.514   2.700
98576W        W70192  28.360  24.307   0.475
98577W        W70193  33.717   7.253   4.332
98578W        W70194  10.785  14.019   4.227
98579W        W70195  12.213  42.832  11.975
98580W        W70196  19.696  40.286   0.686
98581W        W70197  41.792  40.001  13.600
98582W        W70198  20.379  25.562   4.470
98583W        W70199  41.227  39.098  11.871
98584W        W70200  16.012  12.215  14.483
98585W        W70201  38.700   4.744   4.952
98586W        W70202  23.157  15.060   0.880
98587W        W70203  13.373  15.771   2.312
98588W        W70204  35.443  31.871   2.943
98589W        W70205  25.447  39.355  12.879
98590W        W70206  17.762  36.135  12.439
98591W        W70207   6.621  23.984  12.604
98592W        W70208  20.776  21.481   1.227
98593W        W70209  38.928  13.121  10.569
98594W        W70210   0.271   2.026  13.045
98595W        W70211  43.484   6.402   4.684
98596W        W70212  33.427  38.883  14.032
98597W        W70213  41.964  18.722  13.051
98598W        W70214  20.156   5.233  10.710
98599W        W70215  41.896  41.973  11.163
98600W        W70216  32.017  15.416   3.674
98601W        W70217  16.669  39.054  14.899
98602W        W70218  44.068  12.252  12.481
98603W        W70219  27.429   9.331  14.976
98604W        W70220  13.134  25.325   1.686
98605W        W70221  27.169  38.089  13.904
98606W        W70222  24.763  28.068  11.630
98607W        W70223  24.724  34.858  13.374
98608W        W70224  19.124  29.843  13.475
98609W        W70225   4.436  11.940  11.059
98610W        W70226  15.832  39.952  13.991
98611W        W70227  25.630   4.187  13.805
98612W        W70228  16.433  37.721   1.741
98613W        W70229  32.602  20.716   3.377
98614W        W70230  40.119   5.677   2.367
98615W        W70231   3.538  42.482  13.029
98616W        W70232  29.450  44.144  14.015
98617W        W70233  10.230  42.827   2.707
98618W        W70234  15.124  38.405  10.777
98619W        W70235  10.212  28.661   3.431
98620W        W70236  30.611  29.389   0.105
98621W        W70237  20.803  38.996  11.501
98622W        W70238  22.809   8.148  13.653
98623W        W70239  14.809  35.513  11.538
98624W        W70240   1.530  36.480   1.894
98625W        W70241  43.522  23.024   2.707
98626W        W70242  35.046  41.339   1.252
98627W        W70243   7.306   3.204  10.636
98628W        W70244  19.536  38.104   2.320
98629W        W70245  15.072   0.421  10.716
98630W        W70246  19.451  41.909  13.387
98631W        W70247   5.616  31.099   4.729
98632W        W70248  19.583  35.587  12.019
98633W        W70249  24.906   6.626   2.981
98634W        W70250  33.127  16.001   2.273
98635W        W70251  15.377  39.056   0.918
98636W        W70252  21.405  12.716  14.888
98637W        W70253  37.336  26.928   3.141
98638W        W70254  25.337  19.723   4.075
98639W        W70255  35.380  17.468   1.897
98640W        W70256  27.784  26.705  13.518
98641W        W70257  13.284  34.699   2.392
98642W        W70258  35.370   1.507   0.282
98643W        W70259  33.195   7.713  13.967
98644W        W70260  42.557  18.092   1.403
98645W        W70261  10.850  44.768   0.842
98646W        W70262  14.960  43.217   4.438
98647W        W70263  26.492  38.356   3.549
98648W        W70264  34.970  27.995   0.954
98649W        W70265  11.684  25.455  12.998
98650W        W70266  21.191  21.949   0.340
98651W        W70267  20.338  37.013   1.290
98652W        W70268  18.035  21.130   3.238
98653W        W70269  10.625  13.824  13.393
98654W        W70270   6.349  25.653  12.833
98655W        W70271  32.462  32.797   1.696
98656W        W70272   8.186  35.389   0.843
98657W        W70273  44.772  29.046   3.527
98658W        W70274   6.649  12.763  11.495
98659W        W70275  43.805   2.739  11.145
98660W        W70276  18.061  44.766   0.503
98661W        W70277  31.805  12.831  14.935
98662W        W70278  31.363  42.746  12.445
98663W        W70279  43.820   5.682  13.561
98664W        W70280   2.016  11.885   0.948
98665W        W70281  18.074  36.846  13.577
98666W        W70282  36.506  28.901  14.841
98667W        W70283  32.065  16.697  11.167
98668W        W70284   8.941   5.317  12.972
98669W        W70285   2.273  13.959   2.132
98670W        W70286  36.887  36.065   4.295
98671W        W70287  43.284  36.080   2.667
98672W        W70288   0.963  15.069   4.116
98673W        W70289  34.940  15.665   1.473
98674W        W70290  11.211  42.484   1.430
98675W        W70291  37.002  34.382   3.603
98676W        W70292  43.186   9.718  13.839
98677W        W70293   6.985  25.525  14.397
98678W        W70294  43.335  35.658  13.119
98679W        W70295  39.865  13.673   1.825
98680W        W70296  11.282   6.000   0.944
98681W        W70297  12.913  12.751   0.017
98682W        W70298   5.233  16.359  11.948
98683W        W70299  16.737  26.060  12.839
98684W        W70300   2.429  19.096   4.556
98685W        W70301  15.196  31.946   2.624
98686W        W70302  14.937  23.186   2.841
98687W        W70303   2.770   2.616  11.077
98688W        W70304  14.338  29.609   4.986
98689W        W70305  33.639  20.793   4.791
98690W        W70306  31.167   3.413  13.905
98691W        W70307  41.099  26.494   2.752
98692W        W70308  29.926  36.466   2.615
98693W        W70309  35.936  27.130  10.648
98694W        W70310   5.609  15.180  12.015
98695W        W70311   1.455  41.491   4.639
98696W        W70312  30.263   8.348  12.805
98697W        W70313  22.555  16.920  11.576
98698W        W70314  21.317   4.433  14.082
98699W        W70315  39.478   3.806   5.180
98700W        W70316  17.136  44.963  11.126
98701W        W70317   1.328  23.191  14.962
98702W        W70318  44.769  26.164  10.772
98703W        W70319   2.346  25.179   2.338
98704W        W70320  13.849  34.876  11.657
98705W        W70321  20.792  22.935   1.174
98706W        W70322  40.238   0.397   0.438
98707W        W70323  39.507  29.583  11.951
98708W        W70324  10.391  18.611  13.389
98709W        W70325  22.632  17.080   2.579
98710W        W70326  36.500  19.208  13.031
98711W        W70327  25.980  40.044  11.997
98712W        W70328  22.697  23.101  13.505
98713W        W70329  34.495  35.611   2.883
98714W        W70330  22.229  44.487  11.544
98715W        W70331  38.077  35.912   0.940
98716W        W70332   3.816  42.352   1.850
98717W        W70333  40.549   7.485   4.206
98718W        W70334  44.270  14.911   0.321
98719W        W70335  36.678  28.006   4.518
98720W        W70336  37.470   3.771   0.753
98721W        W70337  38.850  10.362  13.978
98722W        W70338  33.473  26.928   0.691
98723W        W70339  10.658   8.190   2.865
98724W        W70340  11.549  27.473  12.839
98725W        W70341  23.729  24.387   1.407
98726W        W70342  43.859  31.437   0.987
98727W        W70343  21.559  35.797  14.376
98728W        W70344   2.177  17.967  12.915
98729W        W70345  19.252  22.277   0.598
98730W        W70346  38.156  31.042  12.080
98731W        W70347  20.106  43.161  10.856
98732W        W70348  18.075  35.481  13.311
98733W        W70349  21.270  17.226  14.466
98734W        W70350  20.498  39.909   0.482
98735W        W70351   3.137   5.726   0.490
98736W        W70352  38.094  15.638  12.399
98737W        W70353  31.076   8.653   4.566
98738W        W70354  41.416  20.062   0.333
98739W        W70355   1.775   2.708   3.077
98740W        W70356   6.212   4.673  10.298
98741W        W70357  28.927  41.299   0.689
98742W        W70358  20.987  42.315  14.557
98743W        W70359   6.560  17.304   3.581
98744W        W70360   3.090  25.630   4.936
98745W        W70361   0.716  22.387  12.332
98746W        W70362  30.470  16.327   0.325
98747W        W70363   0.339  16.937   2.147
98748W        W70364  25.655  38.505  12.565
98749W        W70365   5.633  44.954  11.016
98750W        W70366  39.913  12.123  12.380
98751W        W70367   2.319   1.489  12.685
98752W        W70368  39.582  23.712  14.507
98753W        W70369  19.731  16.201   1.239
98754W        W70370  18.175   9.563   0.247
98755W        W70371  10.906   6.850   0.626
98756W        W70372  18.535  41.260   0.337
98757W        W70373  24.892   9.404   1.689
98758W        W70374  23.694  16.598   1.469
98759W        W70375  10.186  23.220  14.335
98760W        W70376  14.489  33.520   3.291
98761W        W70377  20.613  26.523  12.376
98762W        W70378  21.047  34.657   2.835
98763W        W70379  22.661  44.640   1.850
98764W        W70380  26.159   6.516   2.066
98765W        W70381  30.787  13.089   5.304
98766W        W70382   7.963   4.003  13.394
98767W        W70383  44.473  39.091   5.109
98768W        W70384  18.126  10.845   0.942
98769W        W70385  23.295  41.138   0.858
98770W        W70386  14.567  37.909  12.595
98771W        W70387  37.837  24.959   3.715
98772W        W70388   8.386  24.731  10.733
98773W        W70389  19.243  18.952  12.458
98774W        W70390  24.149  27.858  12.563
98775W        W70391  33.038  16.883  11.522
98776W        W70392  11.654  29.003   0.822
98777W        W70393   0.997  41.058   4.138
98778W        W70394   9.132  35.568   1.101
98779W        W70395  11.617   5.099   1.282
98780W        W70396  30.880  22.633   0.816
98781W        W70397  13.633  23.157  14.193
98782W        W70398  39.989  11.576   3.821
98783W        W70399   4.100  36.388   0.351
98784W        W70400  21.509   4.299  11.596
98785W        W70401  25.701  39.490  13.314
98786W        W70402  26.559  28.038   2.719
98787W        W70403  17.726  25.631   2.444
98788W        W70404  31.072  42.271   4.504
98789W        W70405   3.475  12.846   2.382
98790W        W70406  18.652  13.549   4.178
98791W        W70407   2.668  41.488   2.660
98792W        W70408  28.039  35.655   3.633
98793W        W70409  25.247  31.871  13.912
98794W        W70410   2.295  21.104   0.477
98795W        W70411  14.285  21.034  11.347
98796W        W70412  35.705  38.923  14.377
98797W        W70413  34.771  34.646   2.411
98798W        W70414  35.515  27.105   1.481
98799W        W70415  21.040  24.094  12.553
98800W        W70416  32.873  31.047  13.005
98801W        W70417  44.357  42.776  13.806
98802W        W70418  11.302  32.568  10.728
98803W        W70419  11.259  23.527   0.357
98804W        W70420  39.566  15.122  12.497
98805W        W70421  18.653  30.657   5.014
98806W        W70422  22.957  22.981   2.617
98807W        W70423   5.393   4.664   1.853
98808W        W70424  26.247   7.153   2.842
98809W        W70425   1.208  13.613  11.013
98810W        W70426  28.099   7.388  12.364
98811W        W70427  32.131  31.121   5.066
98812W        W70428  27.415  40.391  13.975
98813W        W70429  12.270  35.302   1.144
98814W        W70430  30.556  37.967   4.541
98815W        W70431  36.020  17.017   3.263
98816W        W70432   2.138  10.676   1.321
98817W        W70433  34.047  30.928  14.556
98818W        W70434  17.809  14.716   0.951
98819W        W70435  32.493  27.163  11.874
98820W        W70436  19.413   7.216   1.249
98821W        W70437  41.014  40.995  13.816
98822W        W70438   8.569  19.805   0.112
98823W        W70439  12.070  34.536   3.377
98824W        W70440  10.698  28.650   3.236
98825W        W70441  14.481   9.321  12.467
98826W        W70442  32.397  19.805  10.933
98827W        W70443  26.598  25.002   1.339
98828W        W70444  43.351  38.597  12.854
98829W        W70445  37.874  11.289  13.844
98830W        W70446  25.666   3.900   3.252
98831W        W70447  35.889  37.198   0.859
98832W        W70448  19.661   7.695   3.171
98833W        W70449  39.153  39.051   2.677
98834W        W70450   7.704  35.694  10.471
98835W        W70451   2.016  14.901   3.653
98836W        W70452  18.876  36.503  12.460
98837W        W70453  11.144  21.656   2.435
98838W        W70454   7.250  43.489   2.880
98839W        W70455  31.049   5.396  11.625
98840W        W70456  29.685   1.321   3.143
98841W        W70457  33.800  20.208   3.559
98842W        W70458  12.571  18.438  11.992
98843W        W70459  10.273  15.189   4.003
98844W        W70460  21.558  32.456   3.357
98845W        W70461  34.975  39.870  13.856
98846W        W70462  17.059   8.225   4.470
98847W        W70463  14.975  32.946  14.582
98848W        W70464  28.069  27.781  11.577
98849W        W70465  43.436  30.953  11.557
98850W        W70466  37.420   2.408  14.976
98851W        W70467  20.713  26.081   4.225
98852W        W70468  18.481  21.646  12.486
98853W        W70469  39.853   2.962  11.139
98854W        W70470  36.801  14.557  11.206
98855W        W70471  42.782   2.169   3.632
98856W        W70472  15.125  21.013   0.959
98857W        W70473  22.143  42.224   3.082
98858W        W70474  33.979  10.476   2.798
98859W        W70475  28.710  35.367   2.293
98860W        W70476  21.133  27.010   4.083
98861W        W70477   5.345  27.426   2.324
98862W        W70478  41.960   2.663  14.766
98863W        W70479  18.646   1.180   0.481
98864W        W70480  43.696  34.528  13.502
98865W        W70481   6.205  22.263   0.336
98866W        W70482  36.692  24.623  14.342
98867W        W70483  37.722  44.434   1.023
98868W        W70484  28.274   3.233   0.881
98869W        W70485  18.091  15.727   1.781
98870W        W70486  20.539  40.782  13.511
98871W        W70487  39.320  19.656  11.216
98872W        W70488  43.576  17.682  12.528
98873W        W70489  35.891  19.907  10.544
98874W        W70490  26.530  11.057   3.532
98875W        W70491  38.568  42.717  13.124
98876W        W70492  36.603  16.679  14.004
98877W        W70493  32.379  44.367  14.929
98878W        W70494   3.434  30.516   2.808
98879W        W70495  36.983  32.027   3.722
98880W        W70496  21.276   7.754   1.805
98881W        W70497  18.341  25.785   4.076
98882W        W70498   5.203   3.817  13.491
98883W        W70499  28.874   1.712   3.597
98884W        W70500  39.154  22.095   4.049
98885W        W70501  15.611   4.671  14.311
98886W        W70502  37.412  28.257  12.482
98887W        W70503  33.007  43.056  13.075
98888W        W70504  27.677   2.232   2.793
98889W        W70505  24.748  15.760   1.399
98890W        W70506  20.688  29.022  14.929
98891W        W70507  19.762  38.960  12.213
98892W        W70508  33.530  25.057   4.536
98893W        W70509  29.897  29.829  11.127
98894W        W70510  41.530   0.318  11.552
98895W        W70511  38.677  10.834  12.933
98896W        W70512  42.052  21.626   3.424
98897W        W70513   6.627   1.381   3.888
98898W        W70514   6.297  18.441   2.228
98899W        W70515  10.510  21.786  13.123
98900W        W70516   1.949   2.471   1.287
98901W        W70517   9.114   6.155  13.075
98902W        W70518  28.652   0.960   4.177
98903W        W70519  15.037  15.399  11.992
98904W        W70520  24.095  19.751   1.307
98905W        W70521  11.688  38.357  13.605
98906W        W70522  40.752  40.485  14.487
98907W        W70523  25.128   3.144  11.641
98908W        W70524   7.769  13.347   1.804
98909W        W70525  35.273  44.060   2.931
98910W        W70526   7.290  28.157   3.766
98911W        W70527  12.690   8.878   3.365
98912W        W70528  43.505   9.088  11.252
98913W        W70529  29.926  15.909  11.207
98914W        W70530   7.674  16.139   1.301
98915W        W70531  36.098   5.248  13.884
98916W        W70532  21.233  12.663  14.409
98917W        W70533   5.987  24.761   4.244
98918W        W70534  33.859  14.248  11.219
98919W        W70535  29.714  43.808   2.384
98920W        W70536  28.619  15.254  13.052
98921W        W70537  31.100  30.986  12.338
98922W        W70538  42.037  17.653   2.810
98923W        W70539  12.845   0.509  11.503
98924W        W70540  44.823   6.951   1.752
98925W        W70541   6.044  41.836  13.016
98926W        W70542  44.809  30.996   0.784
98927W        W70543  18.848  41.324   4.589
98928W        W70544  12.224  42.120  14.538
98929W        W70545  41.897  44.689  11.123
98930W        W70546  22.517  12.162   3.810
98931W        W70547   6.247  13.340  14.739
98932W        W70548  31.931  33.334   1.680
98933W        W70549  43.318  13.071  14.771
98934W        W70550  15.682  23.718   0.596
98935W        W70551  20.574  19.254  14.913
98936W        W70552  21.725  14.057   3.728
98937W        W70553   5.775   2.401  10.693
98938W        W70554  42.955  26.163  12.489
98939W        W70555  14.238  18.046  13.598
98940W        W70556  21.776  37.313  13.582
98941W        W70557  20.487  10.900   1.379
98942W        W70558  19.199  20.559   0.776
98943W        W70559   0.561  31.177   0.338
98944W        W70560  26.300  44.283  13.426
98945W        W70561  21.960  16.069   0.126
98946W        W70562   6.195  25.359   4.920
98947W        W70563   1.020  21.561   3.694
98948W        W70564  41.088  11.724  11.445
98949W        W70565  18.113  18.509  14.357
98950W        W70566  36.679  24.399   1.914
98951W        W70567  39.844  36.774   2.314
98952W        W70568  43.265  33.790  12.464
98953W        W70569  14.288   2.030   4.140
98954W        W70570   5.930  24.994  11.516
98955W        W70571  18.805   3.434  12.160
98956W        W70572  21.390  29.037  11.845
98957W        W70573  12.612  35.535  13.390
98958W        W70574   6.456  21.504  13.062
98959W        W70575  16.312  22.609   0.890
98960W        W70576  35.397  38.730  10.231
98961W        W70577  20.071   9.423   2.276
98962W        W70578  36.535   2.502   3.577
98963W        W70579  20.924   8.652  12.851
98964W        W70580  36.615  19.020  13.535
98965W        W70581  39.110  25.682  10.646
98966W        W70582  25.998   4.453   2.700
98967W        W70583  32.644  22.812  14.800
98968W        W70584  18.773  18.453  14.492
98969W        W70585  34.482   8.822   2.506
98970W        W70586  31.896  10.834   4.159
98971W        W70587  22.309  32.067  13.452
98972W        W70588  30.123  27.090  13.220
98973W        W70589  24.607  21.791   2.943
98974W        W70590  32.499  43.555   1.566
98975W        W70591   8.281  13.061   1.120
98976W        W70592  30.981  36.823  10.736
98977W        W70593  21.769  16.215  12.874
98978W        W70594  40.899  32.406  11.700
98979W        W70595  28.833  40.784   0.678
98980W        W70596  26.341  26.992  14.932
98981W        W70597  26.459   2.814  14.312
98982W        W70598  41.534  35.320   4.759
98983W        W70599  36.002  44.006   2.413
98984W        W70600   9.645  16.711  11.171
98985W        W70601  35.220  13.059   4.919
98986W        W70602   2.502   1.368  11.078
98987W        W70603  39.483   5.804  11.925
98988W        W70604  26.047  28.158  12.135
98989W        W70605  22.997  19.077  13.433
98990W        W70606  38.275   8.211   3.653
98991W        W70607  42.356  11.773   2.663
98992W        W70608  40.710  42.744  12.053
98993W        W70609  10.792   3.340   1.538
98994W        W70610  33.196  17.685  13.907
98995W        W70611   6.182   4.875  12.963
98996W        W70612  36.870   7.701   4.366
98997W        W70613  35.381  23.649  12.542
98998W        W70614  12.429  17.643  13.869
98999W        W70615  36.028  42.929   1.242
99000W        W70616  29.153  29.695  10.586
99001W        W70617  32.865  41.943  13.683
99002W        W70618  14.720  43.504   0.615
99003W        W70619  37.293   7.260  13.964
99004W        W70620  29.868  42.356   4.287
99005W        W70621  32.753  41.037   0.968
99006W        W70622  39.064  21.632   0.949
99007W        W70623  44.077  38.854  10.385
99008W        W70624   1.118   4.139  13.009
99009W        W70625   6.776   2.718  13.577
99010W        W70626  24.335  11.849   2.554
99011W        W70627  37.347  26.027   3.023
99012W        W70628  42.051   9.290   0.279
99013W        W70629  34.515  12.870   1.950
99014W        W70630   1.171  40.952  11.114
99015W        W70631  28.634   7.137   4.173
99016W        W70632  28.581  37.863  12.445
99017W        W70633  12.746  30.960   3.758
99018W        W70634  19.507  40.101   0.239
99019W        W70635  18.028  22.656   2.262
99020W        W70636   3.029  20.045   2.905
99021W        W70637  43.491  33.101  11.143
99022W        W70638  14.341  35.029   3.357
99023W        W70639  41.400  32.208   2.834
99024W        W70640  24.259  18.982   3.166
99025W        W70641  39.385  20.885   4.722
99026W        W70642  29.484  26.440  10.692
99027W        W70643  30.587  41.919  11.016
99028W        W70644   8.408   6.250  11.184
99029W        W70645  38.507  43.112   3.842
99030W        W70646   6.972  36.316   3.676
99031W        W70647  10.875  32.387  11.015
99032W        W70648  17.594  28.672   0.304
99033W        W70649  41.869  16.149  14.801
99034W        W70650  33.545   0.379  14.799
99035W        W70651  24.279  33.972   2.250
99036W        W70652  16.695   7.968   0.383
99037W        W70653   4.254  25.951  11.981
99038W        W70654  17.731   3.005   2.712
99039W        W70655  28.711  27.025  11.519
99040W        W70656  40.421   4.341   4.227
99041W        W70657  20.550  28.088   1.708
99042W        W70658   3.114  14.193  14.066
99043W        W70659  24.488  37.119  12.943
99044W        W70660  34.062  23.199   4.700
99045W        W70661  44.510   3.710  13.318
99046W        W70662  18.761  42.688  11.095
99047W        W70663   5.387  36.481  11.120
99048W        W70664  28.673  12.442  13.312
99049W        W70665  14.319  19.806  14.043
99050W        W70666  28.595  21.193  10.624
99051W        W70667  25.980  21.569  11.493
99052W        W70668  24.629   7.251   3.772
99053W        W70669  26.823   2.731   1.754
99054W        W70670  14.671  12.244   4.724
99055W        W70671  17.253  16.239   0.302
99056W        W70672   2.679  17.982   4.223
99057W        W70673   9.830  22.763  11.933
99058W        W70674  23.978  16.936   3.258
99059W        W70675  42.011  10.583   0.271
99060W        W70676  10.661  42.259  12.056
99061W        W70677  11.282  43.940   3.737
99062W        W70678   5.753  10.534  12.976
99063W        W70679  44.727  19.304   2.617
99064W        W70680   6.636  28.211  10.637
99065W        W70681   2.350  31.344  12.998
99066W        W70682   3.092   7.929   1.292
99067W        W70683  28.759  24.071  10.578
99068W        W70684  23.735  15.191  13.437
99069W        W70685  31.747   6.581   2.876
99070W        W70686  40.318  22.575   1.871
99071W        W70687  21.223  18.518  14.890
99072W        W70688  43.309  38.305  12.424
99073W        W70689  14.494  30.307   4.043
99074W        W70690   0.014  19.536  13.440
99075W        W70691   9.857  37.611   1.249
99076W        W70692  42.332   1.889  12.463
99077W        W70693  34.354  35.439   0.977
99078W        W70694  33.041  23.578  12.064
99079W        W70695  31.405  17.218   4.153
99080W        W70696   6.307  23.011   4.789
99081W        W70697   5.617  19.195  11.219
99082W        W70698   4.776  32.586  14.830
99083W        W70699  25.515  35.257   0.800
99084W        W70700  22.089  19.015  10.552
99085W        W70701  41.427  14.544   3.149
99086W        W70702  11.249  14.896   4.137
99087W        W70703  36.271  31.136  11.628
99088W        W70704   3.403   3.169   0.476
99089W        W70705  15.537  27.129   1.855
99090W        W70706  32.435  39.561   3.231
99091W        W70707  31.181   6.284   0.472
99092W        W70708  37.776  31.961   4.442
99093W        W70709   4.620   1.970  13.375
99094W        W70710  15.527  34.507   4.457
99095W        W70711  24.095  36.805  13.056
99096W        W70712   5.645  23.952  13.925
99097W        W70713  11.097  33.035   3.143
99098W        W70714   2.868  13.642   2.591
99099W        W70715  20.394   0.026  13.390
99100W        W70716  13.064  41.768  10.231
99101W        W70717   1.907  34.065  10.706
99102W        W70718  15.226  15.594   5.428
99103W        W70719  22.571  29.700  10.212
99104W        W70720   1.394  39.398   2.802
99105W        W70721  13.613  24.418   2.763
99106W        W70722  15.046   0.355  14.857
99107W        W70723  10.001  44.260  11.642
99108W        W70724   4.779  22.712  12.614
99109W        W70725  18.489  32.702  14.319
99110W        W70726  37.814  36.097   4.184
99111W        W70727  10.566   2.700  10.674
99112W        W70728  15.219  12.610  14.437
99113W        W70729  12.278  21.200   4.091
99114W        W70730   0.440  16.878  12.009
99115W        W70731  17.063  43.522   3.623
99116W        W70732  16.064   2.747   3.099
99117W        W70733  39.401   7.123   4.528
99118W        W70734  11.687  41.111   4.930
99119W        W70735  39.669   3.805   1.714
99120W        W70736  30.434  20.002  13.406
99121W        W70737  36.160  43.727   3.329
99122W        W70738  28.085   7.872   5.020
99123W        W70739  20.018  21.499   1.896
99124W        W70740  21.134  13.795  12.110
99125W        W70741  44.748   2.823  12.450
99126W        W70742  36.485  17.688   4.789
99127W        W70743   1.852  25.054  12.929
99128W        W70744   7.068   7.376  12.871
99129W        W70745   9.304   7.173   3.145
99130W        W70746   8.309   5.293   4.546
99131W        W70747   5.220  35.551  11.655
99132W        W70748  21.078  11.253  12.938
99133W        W70749  28.642  14.647  14.793
99134W        W70750   6.277   5.329   0.677
99135W        W70751   9.081   2.788  11.075
99136W        W70752  22.903   2.443   1.034
99137W        W70753   8.402  44.714   0.450
99138W        W70754  19.532  32.394  14.353
99139W        W70755  36.741  25.596   0.275
99140W        W70756  24.513  42.987  12.569
99141W        W70757  18.730  19.573   3.309
99142W        W70758  17.625  41.424   1.415
99143W        W70759  19.154  43.264   0.592
99144W        W70760   7.280   1.391  12.137
99145W        W70761  16.511  10.474   3.557
99146W        W70762  22.783  20.485   2.211
99147W        W70763  42.730  22.092   1.384
99148W        W70764  44.009   6.234   0.455
99149W        W70765   8.716  27.680  11.848
99150W        W70766  23.658  25.003  13.703
99151W        W70767  12.435  35.112   0.322
99152W        W70768  34.482  32.895   4.273
99153W        W70769  10.708  33.456   2.894
99154W        W70770  42.293  17.541  11.495
99155W        W70771  29.714  29.470   0.413
99156W        W70772   4.746  10.248  11.407
99157W        W70773  14.793   4.295   1.308
99158W        W70774  21.981  38.182  13.994
99159W        W70775  20.004   0.134   3.672
99160W        W70776  20.191  37.819   2.861
99161W        W70777  16.959  34.980   1.948
99162W        W70778   1.425  31.304  12.023
99163W        W70779  12.713  34.234   4.234
99164W        W70780  16.270  40.682   0.957
99165W        W70781  16.857  34.453  12.452
99166W        W70782  44.500  43.609   0.388
99167W        W70783  26.462   3.765   0.166
99168W        W70784  20.028  39.641  11.659
99169W        W70785  24.593  30.027   3.619
99170W        W70786   6.163   5.207   0.197
99171W        W70787   9.914  29.146   2.863
99172W        W70788   8.452   0.205  11.495
99173W        W70789  38.032   4.295  14.775
99174W        W70790   8.398  16.178  11.581
99175W        W70791  31.951   5.878   0.242
99176W        W70792  34.166   2.648  11.826
99177W        W70793   9.814  33.524  10.626
99178W        W70794  44.862  35.080  11.659
99179W        W70795   0.022   9.260   1.344
99180W        W70796  37.714  13.923   3.415
99181W        W70797  21.741   9.290   0.141
99182W        W70798  34.011  16.054  13.281
99183W        W70799  44.880   1.013  10.737
99184W        W70800  35.608  42.412   4.793
99185W        W70801  22.913  10.849   0.412
99186W        W70802  17.078  11.319   4.514
99187W        W70803  14.318  11.734   4.643
99188W        W70804  16.698  40.257   4.738
99189W        W70805   8.203  27.524  13.052
99190W        W70806  31.680   1.461  13.864
99191W        W70807  43.991  43.906   2.240
99192W        W70808  38.558  32.034  12.900
99193W        W70809  34.073  16.894  14.831
99194W        W70810  21.690  16.328  14.302
99195W        W70811  13.168  21.338   3.171
99196W        W70812  37.340  27.041  10.608
99197W        W70813  33.444  23.431   0.818
99198W        W70814  30.996  38.715  11.119
99199W        W70815  18.815   5.121   4.629
99200W        W70816  42.822   5.302   1.029
99201W        W70817  36.066  23.751   0.269
99202W        W70818  20.273  22.898  14.897
99203W        W70819  30.894   1.814   1.611
99204W        W70820  26.611  30.100  12.465
99205W        W70821  32.119  17.234   5.376
99206W        W70822   8.638  42.228  12.710
99207W        W70823  23.593  40.247  14.862
99208W        W70824   3.440  13.984  11.012
99209W        W70825  33.573  16.083  12.505
99210W        W70826  43.391  39.853   3.597
99211W        W70827  26.266  31.000  11.974
99212W        W70828  28.590   1.809  11.673
99213W        W70829  43.749  16.512  11.886
99214W        W70830  20.823   5.500   0.929
99215W        W70831  17.768  38.546  13.618
99216W        W70832  14.119  18.859  13.897
99217W        W70833  33.378   8.387   1.384
99218W        W70834  38.851  30.472  11.606
99219W        W70835  40.652  29.043  10.670
99220W        W70836  41.878  41.492  11.990
99221W        W70837  19.623  25.096  11.654
99222W        W70838   7.453   6.253   5.201
99223W        W70839  26.756  35.743   4.577
99224W        W70840  37.986  21.357  14.481
99225W        W70841  16.814  35.490   2.815
99226W        W70842   2.996  34.045   3.310
99227W        W70843  22.229  36.452   0.561
99228W        W70844  44.588  21.173  13.017
99229W        W70845  29.476  43.027  14.675
99230W        W70846  16.603  10.109  12.976
99231W        W70847   4.889  13.725  13.045
99232W        W70848  41.587   7.131   0.454
99233W        W70849  29.087  16.568   4.863
99234W        W70850  30.126  18.583  14.837
99235W        W70851  11.377  10.809  14.772
99236W        W70852  15.175  20.781   0.042
99237W        W70853  29.641  36.802  13.033
99238W        W70854   3.747  18.881  12.874
99239W        W70855  15.523  27.028   4.229
99240W        W70856  26.743   9.208  13.117
99241W        W70857   2.671  17.286   0.117
99242W        W70858  31.039  22.947   5.055
99243W        W70859  22.792  42.023   2.449
99244W        W70860  16.826  43.872   2.841
99245W        W70861  40.973  42.326   2.845
99246W        W70862  19.306  21.757  11.922
99247W        W70863   4.863   0.648  14.505
99248W        W70864   8.217  40.064  11.656
99249W        W70865  35.417  20.013   3.546
99250W        W70866   3.509   7.624  11.611
99251W        W70867  13.001  20.635  13.371
99252W        W70868  18.696  44.306   5.543
99253W        W70869  31.167  18.805  11.196
99254W        W70870  30.646  12.623  12.409
99255W        W70871  33.450  26.115   4.087
99256W        W70872  25.724  41.287   0.339
99257W        W70873  22.459  31.541   1.770
99258W        W70874   6.716  14.806  12.184
99259W        W70875  17.340  11.628   3.243
99260W        W70876  13.419  43.549  12.061
99261W        W70877  40.100   4.564   4.571
99262W        W70878  26.647   8.118   3.322
99263W        W70879  41.481  11.162   3.599
99264W        W70880   8.525  25.253  14.995
99265W        W70881  19.655  37.969  10.694
99266W        W70882  33.871  16.420   4.344
99267W        W70883  22.771   9.797  12.453
99268W        W70884  15.349  27.428  10.956
99269W        W70885  15.653   1.892   2.736
99270W        W70886   6.007  17.158  14.064
99271W        W70887   0.886   4.268   0.478
99272W        W70888  29.138  42.394  12.578
99273W        W70889  40.813  32.099   0.428
99274W        W70890   3.816  10.215   1.294
99275W        W70891  28.755   3.239   0.692
99276W        W70892  43.475  21.565  12.412
99277W        W70893  27.596  40.939  11.077
99278W        W70894  10.365  17.731  11.669
99279W        W70895  19.071  44.909   2.687
99280W        W70896  41.013  31.502   3.302
99281W        W70897  26.672  38.546  10.747
99282W        W70898  27.699  39.293  13.571
99283W        W70899  11.687  27.957  12.661
99284W        W70900  12.937   1.106  10.663
99285W        W70901   5.817   7.810  11.505
99286W        W70902  39.004  27.650   1.446
99287W        W70903   6.125  29.469   4.228
99288W        W70904  20.627  35.917  14.067
99289W        W70905  25.088  25.483   2.694
99290W        W70906   5.269  28.459  10.752
99291W        W70907  13.136  25.821  11.132
99292W        W70908  19.419  12.693  13.605
99293W        W70909  16.285  39.866   4.052
99294W        W70910  24.700  38.122  12.866
99295W        W70911  31.381   8.222   4.175
99296W        W70912  41.973   8.361  14.289
99297W        W70913  43.967  10.347   4.088
99298W        W70914  11.675   0.539   3.879
99299W        W70915  31.609  21.687  12.144
99300W        W70916   8.644  23.661   3.242
99301W        W70917  16.143  40.752  12.856
99302W        W70918  11.258  30.699  11.642
99303W        W70919   8.455  17.658   1.487
99304W        W70920  19.274  16.036  12.474
99305W        W70921   0.979   0.782  10.163
99306W        W70922  43.200  24.270   5.176
99307W        W70923  32.815   7.809   2.816
99308W        W70924  35.735  33.993   0.517
99309W        W70925  14.857  17.775  10.697
99310W        W70926  32.539  42.562  11.094
99311W        W70927  30.067   6.358   3.746
99312W        W70928  12.186  24.496  14.494
99313W        W70929  42.288  42.999  14.449
99314W        W70930  42.122   4.249   2.534
99315W        W70931  38.528   6.732   4.055
99316W        W70932   6.785  16.711  13.853
99317W        W70933   7.337   0.432   4.103
99318W        W70934  14.161  43.502  13.979
99319W        W70935  25.275   9.731   4.697
99320W        W70936  19.316  32.533   1.802
99321W        W70937   1.569   9.895   0.946
99322W        W70938  43.830  10.972  13.330
99323W        W70939  15.304  17.599   1.125
99324W        W70940  23.446  35.914   3.249
99325W        W70941  36.541  34.327   2.858
99326W        W70942  33.878   5.502  10.632
99327W        W70943  39.056   5.498   2.108
99328W        W70944   1.330  35.587   2.280
99329W        W70945  21.293  19.747   0.766
99330W        W70946  31.368   1.078  13.736
99331W        W70947  37.666  27.665   1.172
99332W        W70948  18.070  35.363   2.186
99333W        W70949  32.886  33.966  10.613
99334W        W70950  42.609  44.840  14.257
99335W        W70951  22.054  12.596   2.876
99336W        W70952   8.321  31.336  13.768
99337W        W70953  32.912  40.777   1.412
99338W        W70954   3.856   4.296   3.601
99339W        W70955  44.199  38.929   1.295
99340W        W70956  33.326   1.246  13.262
99341W        W70957  10.891  44.258   0.769
99342W        W70958   1.046  24.366   2.732
99343W        W70959   5.874  24.825   2.436
99344W        W70960  11.193  32.618   1.502
99345W        W70961  25.001  15.571   2.325
99346W        W70962  27.984  18.665   3.705
99347W        W70963  22.541  44.039  11.467
99348W        W70964  32.519  24.555   1.614
99349W        W70965   7.854  21.705   3.718
99350W        W70966  24.100  32.373  11.306
99351W        W70967  33.380  38.861  12.888
99352W        W70968   9.647  10.743   2.741
99353W        W70969  33.310   1.486   1.301
99354W        W70970  14.915   7.177   1.755
99355W        W70971  14.338  40.082   3.958
99356W        W70972   6.123  33.717  13.889
99357W        W70973   9.515  26.556  13.294
99358W        W70974   6.865   8.894   2.676
99359W        W70975  20.259  21.592   2.352
99360W        W70976  23.461   5.255  13.553
99361W        W70977   8.028   4.743  12.469
99362W        W70978  25.031   8.918   5.037
99363W        W70979  13.965  15.700   0.486
99364W        W70980  10.196  23.740  14.372
99365W        W70981  24.281  42.624   3.660
99366W        W70982  31.498  44.946  13.067
99367W        W70983  14.527   0.285  11.848
99368W        W70984  16.945  44.112  10.673
99369W        W70985  27.951  30.502   0.480
99370W        W70986  16.804  10.463  12.074
99371W        W70987   3.405  36.390   2.134
99372W        W70988  44.446  40.761  12.397
99373W        W70989   4.413  44.682   1.511
99374W        W70990  16.222  38.819  13.813
99375W        W70991   7.327  24.008   1.885
99376W        W70992  10.126  39.463   3.152
99377W        W70993  20.175   1.490  10.740
99378W        W70994   4.495   9.264  13.968
99379W        W70995  10.806  30.011   2.180
99380W        W70996  14.795  41.679   0.012
99381W        W70997  33.825   7.212   3.819
99382W        W70998  38.553  34.799  11.231
99383W        W70999  26.625   3.851  10.533
99384W        W71000  29.532  23.972   2.330
99385W        W71001  39.466   4.851   0.571
99386W        W71002   4.320   4.168   2.859
99387W        W71003   8.396  11.397  14.688
99388W        W71004  15.863  12.332  11.349
99389W        W71005  19.727  29.650  12.870
99390W        W71006  44.879  29.573   4.634
99391W        W71007  20.039   1.975   3.742
99392W        W71008  21.901  16.647  13.404
99393W        W71009  21.683   7.063  11.513
99394W        W71010  25.507  28.882  11.757
99395W        W71011  27.059  20.060   3.926
99396W        W71012  27.064  34.409   0.388
99397W        W71013  13.316   0.489  11.693
99398W        W71014  11.698  19.103  14.754
99399W        W71015  28.126   6.760   2.182
99400W        W71016   6.660  19.564   3.285
99401W        W71017   7.770   1.972  14.192
99402W        W71018  19.266  16.851   0.803
99403W        W71019  11.706  11.459   2.304
99404W        W71020  16.242  33.337   0.785
99405W        W71021  12.286  24.552  11.540
99406W        W71022  27.974  33.848  10.691
99407W        W71023  10.882  20.494  13.766
99408W        W71024  26.301  13.036   0.069
99409W        W71025  21.693  33.799  13.965
99410W        W71026   1.718  38.904   3.822
99411W        W71027  38.469  40.466   0.167
99412W        W71028  11.763  14.241  14.056
99413W        W71029  14.575  35.540   0.761
99414W        W71030   6.721  19.166   1.912
99415W        W71031  14.649  19.082  11.035
99416W        W71032   2.817  24.269  14.791
99417W        W71033  12.505  28.135   3.162
99418W        W71034   6.675  15.612  11.537
99419W        W71035  39.002   7.273   3.186
99420W        W71036  10.920  39.880  12.758
99421W        W71037  42.703  17.856   0.930
99422W        W71038   0.515  26.767  10.407
99423W        W71039   3.124  23.412  11.104
99424W        W71040   8.253   1.466   0.804
99425W        W71041  36.584  26.218   1.396
99426W        W71042  39.281  33.460   2.828
99427W        W71043  23.894  35.973  12.008
99428W        W71044   7.196  40.037  12.520
99429W        W71045  42.000  30.200  11.613
99430W        W71046  21.540  30.940   4.562
99431W        W71047  10.587   2.609   0.048
99432W        W71048  31.162   6.160  10.949
99433W        W71049  29.507  26.666  10.215
99434W        W71050  18.417  16.180  13.447
99435W        W71051  27.409  28.535   3.682
99436W        W71052  44.872  43.767   0.714
99437W        W71053  11.138   9.382   1.832
99438W        W71054  17.257  20.107   1.136
99439W        W71055  32.452  14.521  10.779
99440W        W71056  15.735   0.810  12.950
99441W        W71057  40.367  13.644   0.020
99442W        W71058  11.610  37.969  10.839
99443W        W71059  38.689  13.009   2.997
99444W        W71060  40.788  40.594   4.207
99445W        W71061  42.514  34.351  11.476
99446W        W71062  17.156  20.294  11.454
99447W        W71063   3.457  10.677   2.965
99448W        W71064  32.580  17.216  11.543
99449W        W71065   9.742  23.496  14.773
99450W        W71066   2.022  29.741  11.756
99451W        W71067  37.463  35.816  13.581
99452W        W71068  44.847  15.626  12.961
99453W        W71069  11.695  14.205   1.775
99454W        W71070   3.211  42.772   0.306
99455W        W71071  37.881  28.029  12.579
99456W        W71072  35.364   5.729  13.343
99457W        W71073  28.457  21.647  13.456
99458W        W71074  36.069  21.123   2.662
99459W        W71075  16.018  32.930  12.374
99460W        W71076  30.630   8.573  14.517
99461W        W71077  29.721  42.264  13.504
99462W        W71078  20.565  13.873   3.357
99463W        W71079  14.162  11.706   0.877
99464W        W71080  44.030  11.629  11.725
99465W        W71081  31.890   9.951  12.207
99466W        W71082  24.006   1.419   4.362
99467W        W71083   1.605   4.355   2.259
99468W        W71084  43.566  22.914  13.982
99469W        W71085  21.442  40.797   0.514
99470W        W71086  12.391  30.083   2.697
99471W        W71087  44.068  36.395  11.404
99472W        W71088  44.412  20.814  14.816
99473W        W71089   5.840  26.959  14.307
99474W        W71090  39.640  13.836   4.079
99475W        W71091  24.714  38.694  10.763
99476W        W71092  34.543  41.805   4.460
99477W        W71093  26.187  14.964   3.176
99478W        W71094   2.051   6.682   2.758
99479W        W71095  28.916   6.397  11.449
99480W        W71096  15.249  21.758  12.961
99481W        W71097  42.256  27.634  10.788
99482W        W71098   4.678  43.811  11.084
99483W        W71099   1.223  20.627  13.432
99484W        W71100   5.856   5.192   2.408
99485W        W71101  32.470   2.637   0.269
99486W        W71102  11.709  10.288   2.891
99487W        W71103  16.785   7.369   0.951
99488W        W71104  17.347  34.155   0.658
99489W        W71105  15.727  34.086  11.033
99490W        W71106  37.086  13.814  13.450
99491W        W71107  25.590  18.213   1.800
99492W        W71108  22.459  35.566   5.262
99493W        W71109   7.362  39.000   2.242
99494W        W71110  12.307  11.587   0.303
99495W        W71111  37.836  19.515  11.607
99496W        W71112  38.910   6.486   2.321
99497W        W71113  28.157  25.185   2.580
99498W        W71114  39.879  28.950   3.163
99499W        W71115   7.736   4.237   3.296
99500W        W71116   7.898   9.542   0.227
99501W        W71117  22.985  12.729   2.803
99502W        W71118  15.158  26.626   1.221
99503W        W71119  36.469  19.256  10.427
99504W        W71120  34.959   8.239   3.109
99505W        W71121  20.906   2.819  11.974
99506W        W71122  42.526  28.877   0.425
99507W        W71123  22.779  41.043   0.771
99508W        W71124  18.676  31.702  10.509
99509W        W71125  36.392  27.043   0.469
99510W        W71126   4.909  31.182   3.337
99511W        W71127  31.234  17.550  12.478
99512W        W71128  36.081  31.614   3.972
99513W        W71129   1.987   0.823  10.658
99514W        W71130  17.741  18.986  14.904
99515W        W71131   8.673  42.713  12.499
99516W        W71132   1.944  10.306   2.212
99517W        W71133  13.564  39.051   4.147
99518W        W71134  15.304  30.130   3.666
99519W        W71135   8.305  20.714   2.826
99520W        W71136  27.901   8.981   4.266
99521W        W71137  17.589  33.889  12.963
99522W        W71138   5.154  40.538  10.752
99523W        W71139  44.961  34.417   3.296
99524W        W71140   5.866  19.699   4.925
99525W        W71141  26.013  25.777  11.102
99526W        W71142  14.492  14.429  12.077
99527W        W71143  26.669  23.780  13.354
99528W        W71144  41.095  37.853  11.065
99529W        W71145  39.059   9.405  14.878
99530W        W71146  16.020  13.267   3.709
99531W        W71147   4.108  10.639   1.236
99532W        W71148  22.254  16.697  13.808
99533W        W71149  11.600  16.431   0.543
99534W        W71150  14.854  17.239   3.638
99535W        W71151   5.279  39.968   4.605
99536W        W71152  37.103  24.307   1.621
99537W        W71153  35.339  44.050  14.939
99538W        W71154   2.303   1.813  14.232
99539W        W71155  37.003  35.886  13.360
99540W        W71156   1.311  28.481  10.643
99541W        W71157   4.188   7.450  12.658
99542W        W71158  22.127   0.817  14.357
99543W        W71159   7.453  43.485  12.526
99544W        W71160  37.888  13.658  10.113
99545W        W71161  32.036   6.860  11.551
99546W        W71162  30.195  21.381  12.382
99547W        W71163  34.967  12.352  14.718
99548W        W71164  38.502  37.362   0.368
99549W        W71165  16.266  16.557  13.875
99550W        W71166  39.476  41.887  14.329
99551W        W71167  33.477   6.617  12.002
99552W        W71168  26.974  31.665   3.705
99553W        W71169   3.323  23.372   2.873
99554W        W71170  20.519  11.575  11.671
99555W        W71171   0.803  42.503   0.656
99556W        W71172  25.013   5.854  11.089
99557W        W71173  31.283  12.943  11.624
99558W        W71174  36.450  17.205   3.604
99559W        W71175  37.407   3.067   3.609
99560W        W71176  15.249  16.369  14.995
99561W        W71177  36.623  14.115   3.212
99562W        W71178  36.604  32.091  14.808
99563W        W71179  17.504  24.156  10.747
99564W        W71180  16.667  12.315   2.444
99565W        W71181  19.725   2.358  14.223
99566W        W71182  38.586  35.135  14.720
99567W        W71183   0.421  21.264   0.845
99568W        W71184  33.110   0.290   0.037
99569W        W71185  15.945  29.758   0.301
99570W        W71186  31.962  40.464   4.000
99571W        W71187  15.510  15.101  13.544
99572W        W71188  42.890  41.955   2.118
99573W        W71189  33.389  12.361  11.547
99574W        W71190  17.052  42.050   0.856
99575W        W71191  41.236  18.062  12.058
99576W        W71192  35.115  16.298   0.853
99577W        W71193   4.242  28.815  12.535
99578W        W71194  37.130  37.904  12.166
99579W        W71195  24.100  36.763   4.279
99580W        W71196  10.237  12.020  11.540
99581W        W71197  32.880  26.076  14.786
99582W        W71198  11.862   9.119   4.162
99583W        W71199   8.512  37.258  13.535
99584W        W71200  35.624   4.960  12.338
99585W        W71201  13.356   4.645   1.891
99586W        W71202  31.617  21.296   4.521
99587W        W71203  44.491  33.571   0.934
99588W        W71204  36.553  17.753  14.453
99589W        W71205  24.030  30.114   3.274
99590W        W71206   4.074  35.513  12.261
99591W        W71207  19.068  24.772  13.971
99592W        W71208  38.864   0.045   2.442
99593W        W71209   0.484  33.247   2.831
99594W        W71210  15.748   0.092  11.886
99595W        W71211   4.404  19.231  14.737
99596W        W71212  35.352  15.108  12.505
99597W        W71213  39.738  10.841  11.180
99598W        W71214   3.897  37.907   4.652
99599W        W71215  22.078  31.179   4.546
99600W        W71216  44.989  19.250   2.170
99601W        W71217   2.499   8.149   3.129
99602W        W71218   9.377  22.392  13.954
99603W        W71219   5.382  26.714   3.666
99604W        W71220  39.132  20.714  10.727
99605W        W71221   0.867  12.334   3.115
99606W        W71222  42.797   3.681  11.255
99607W        W71223   3.935  27.663   4.506
99608W        W71224  23.119  36.497  13.048
99609W        W71225  12.673  42.505   3.675
99610W        W71226   7.826   4.372  14.122
99611W        W71227  18.133  38.530   1.345
99612W        W71228  21.773  15.599  14.918
99613W        W71229  25.889   0.064   1.751
99614W        W71230  10.191  23.180  10.790
99615W        W71231  11.626  41.879  13.883
99616W        W71232   6.510  28.099  13.411
99617W        W71233   7.733  43.863   1.148
99618W        W71234  27.913  33.000  10.560
99619W        W71235  11.260  39.427  11.428
99620W        W71236   4.561   4.822  12.069
99621W        W71237   3.511   8.867   2.783
99622W        W71238   8.377  40.912  11.647
99623W        W71239  42.959  14.529   0.428
99624W        W71240  30.128  21.279  11.889
99625W        W71241  35.091  32.842  13.745
99626W        W71242  21.462   7.108  14.756
99627W        W71243   8.106  10.167  14.838
99628W        W71244   0.718  30.112   3.315
99629W        W71245   7.600   0.081   2.421
99630W        W71246  28.261  30.553   4.245
99631W        W71247  28.695   6.213   3.729
99632W        W71248  32.703  34.346  12.511
99633W        W71249  42.463  34.661   4.010
99634W        W71250  25.206  20.609   0.343
99635W        W71251  43.601   7.820  14.812
99636W        W71252  44.063  17.782  12.490
99637W        W71253  43.529   5.336   1.632
99638W        W71254  22.855  18.650   1.806
99639W        W71255  14.745  14.294  12.872
99640W        W71256  10.215  22.815   4.125
99641W        W71257  38.863  39.908  11.257
99642W        W71258  13.686  13.348   4.621
99643W        W71259  37.632  42.359   1.485
99644W        W71260  32.131  25.457  13.464
99645W        W71261   5.228  42.328   4.244
99646W        W71262   8.355   9.418  11.834
99647W        W71263   0.314  15.761  13.305
99648W        W71264   3.723  26.746   3.942
99649W        W71265   1.969   0.400   0.472
99650W        W71266  38.475   5.233  12.433
99651W        W71267  30.128  14.625   1.984
99652W        W71268  11.320   4.742   3.546
99653W        W71269  14.334  23.351  12.567
99654W        W71270  21.578  28.539   4.524
99655W        W71271  31.202  14.310  11.182
99656W        W71272  38.608  11.789  12.046
99657W        W71273  33.255  19.992  13.546
99658W        W71274  13.605   0.042  11.723
99659W        W71275  38.455   1.660   0.760
99660W        W71276  44.521  15.126   3.174
99661W        W71277  28.998  35.442  12.605
99662W        W71278   1.734   3.424  13.111
99663W        W71279   7.187  11.181   1.633
99664W        W71280  11.875  42.453  10.629
99665W        W71281  25.155   7.168   1.439
99666W        W71282   8.830   9.823   0.814
99667W        W71283   6.377   5.676  13.355
99668W        W71284  41.043  13.293  10.688
99669W        W71285  12.056   6.437  11.054
99670W        W71286  43.363   6.349   3.612
99671W        W71287  41.509   1.449   1.810
99672W        W71288  16.083   6.342   3.277
99673W        W71289  31.862  36.058  13.214
99674W        W71290  23.996  25.278  13.458
99675W        W71291  35.578  18.546   1.879
99676W        W71292   5.338  27.588   1.289
99677W        W71293  20.093  42.568  12.365
99678W        W71294  42.539   5.528   0.286
99679W        W71295  41.040  42.939  10.610
99680W        W71296   2.174   8.268   1.305
99681W        W71297   3.275  24.624  14.919
99682W        W71298  37.320   2.250  11.527
99683W        W71299   3.428  12.371   2.592
99684W        W71300  17.797   6.878  13.683
99685W        W71301  22.112  41.039  11.620
99686W        W71302  11.790  37.484   1.929
99687W        W71303  24.950   6.850   3.803
99688W        W71304  25.015  42.081  13.498
99689W        W71305  38.272   0.724  14.041
99690W        W71306  41.267  23.491  11.011
99691W        W71307   0.512   1.271   4.284
99692W        W71308  15.629  12.770  11.137
99693W        W71309  38.801  24.114   4.692
99694W        W71310  20.259  15.589   4.184
99695W        W71311  22.036  33.045  12.418
99696W        W71312  36.486  24.936  12.904
99697W        W71313  22.610   3.590  10.875
99698W        W71314  40.719  18.954  14.413
99699W        W71315  31.049  43.345  13.234
99700W        W71316  25.902  10.366  12.421
99701W        W71317   5.769  27.967  12.305
99702W        W71318  27.680   4.716   4.581
99703W        W71319  13.747   2.771  10.740
99704W        W71320  21.477   6.119   4.141
99705W        W71321  36.606  24.716  14.869
99706W        W71322  28.567  20.837  13.979
99707W        W71323  12.716  34.438  14.312
99708W        W71324  12.792  18.130   4.414
99709W        W71325  10.129  40.334  14.791
99710W        W71326  31.085  34.187  14.947
99711W        W71327   3.282  10.272   2.699
99712W        W71328   9.253  16.126  10.597
99713W        W71329  19.018  12.764   1.878
99714W        W71330  17.313  34.463  14.395
99715W        W71331  25.154  40.251   0.387
99716W        W71332  43.338  28.757   0.501
99717W        W71333  35.436   0.879  11.120
99718W        W71334  35.293   1.996  12.358
99719W        W71335  33.554  15.599  10.730
99720W        W71336   8.995  12.384  11.444
99721W        W71337  35.892  40.286   1.692
99722W        W71338   2.753  21.719   5.039
99723W        W71339  19.518  19.956   3.843
99724W        W71340  34.433  13.084  14.233
99725W        W71341  30.974  43.668   1.804
99726W        W71342  44.706  34.485   1.873
99727W        W71343  29.667  43.998  13.210
99728W        W71344   7.408  44.107  13.432
99729W        W71345  32.378  11.048   1.200
99730W        W71346  30.559   0.767  13.972
99731W        W71347  33.648   5.736  10.143
99732W        W71348  32.873  24.599  11.502
99733W        W71349  44.833  16.037   3.496
99734W        W71350  36.332   9.157   0.805
99735W        W71351  31.081   2.648   1.321
99736W        W71352  12.109  32.421   2.811
99737W        W71353   4.541  33.287   1.423
99738W        W71354  38.114  39.944   3.778
99739W        W71355  12.799  31.644   0.402
99740W        W71356  22.065  43.186  13.383
99741W        W71357  23.475  30.488  14.035
99742W        W71358  21.005  35.176  14.565
99743W        W71359  40.995  31.576   2.228
99744W        W71360   3.944  23.569   0.046
99745W        W71361  21.353  14.945   3.608
99746W        W71362  27.744  12.632   4.464
99747W        W71363  19.204  10.612   0.313
99748W        W71364  20.507  22.210  12.415
99749W        W71365   4.922  10.131  10.412
99750W        W71366  15.654  43.778   4.172
99751W        W71367  13.119  31.327  13.963
99752W        W71368  10.480  25.108  11.442
99753W        W71369  26.530  16.771   0.154
99754W        W71370  33.062  44.382   1.412
99755W        W71371  14.763  20.619   2.111
99756W        W71372  19.660  41.414   3.791
99757W        W71373  11.846  14.632  12.835
99758W        W71374  34.918  30.079  12.000
99759W        W71375  35.274  23.862   3.075
99760W        W71376   0.257  21.091  13.703
99761W        W71377  17.643  19.757   1.757
99762W        W71378  30.675  30.975   5.118
99763W        W71379  27.626  26.260  11.188
99764W        W71380  24.654   6.432   0.330
99765W        W71381  43.138  12.220   0.080
99766W        W71382   1.597   0.456   5.445
99767W        W71383  31.779   6.610  14.593
99768W        W71384   2.339   6.926   2.398
99769W        W71385  28.724  29.632   0.261
99770W        W71386   4.278  40.782   3.386
99771W        W71387   0.253  38.809  11.334
99772W        W71388  10.191  23.121   0.412
99773W        W71389  34.203  42.483   3.742
99774W        W71390  12.150  38.723  12.862
99775W        W71391  27.754  21.146  13.429
99776W        W71392  27.509  15.113   4.231
99777W        W71393   9.028   0.312  10.668
99778W        W71394  24.188  29.362   0.938
99779W        W71395  12.691  27.173  14.100
99780W        W71396  43.472  12.817  13.776
99781W        W71397  25.349   9.386   1.893
99782W        W71398  31.680  38.971   4.239
99783W        W71399  36.140   1.437   2.611
99784W        W71400  20.803  27.930   4.594
99785W        W71401  28.556  21.228   4.517
99786W        W71402  10.737  35.817  11.535
99787W        W71403   8.959   2.378   3.186
99788W        W71404  31.412   1.796   1.521
99789W        W71405  36.131  35.261   2.802
99790W        W71406  11.726  13.076   4.095
99791W        W71407   7.531   9.418  14.880
99792W        W71408  26.940  41.399   1.174
99793W        W71409  21.292  10.928  11.424
99794W        W71410  15.797  40.230  14.876
99795W        W71411  26.615  44.284  12.026
99796W        W71412  16.805  20.664   2.354
99797W        W71413  25.551  13.434  12.631
99798W        W71414   3.918   1.089   4.979
99799W        W71415   9.622  33.893  10.298
99800W        W71416  22.716   7.915   1.897
99801W        W71417  44.529   3.740  14.709
99802W        W71418  21.984  24.095   2.201
99803W        W71419  30.087  39.468   0.393
99804W        W71420   8.121  24.747   0.464
99805W        W71421   8.152  15.640   3.471
99806W        W71422  26.934  21.703   1.530
99807W        W71423   8.662  44.069  12.827
99808W        W71424  31.435  44.215   2.310
99809W        W71425  39.945  37.549  14.188
99810W        W71426  38.409  33.421  10.891
99811W        W71427  37.989  26.408  11.076
99812W        W71428  11.050   7.854  14.833
99813W        W71429  18.578   0.345   3.609
99814W        W71430  10.459  26.050   2.794
99815W        W71431  22.502  41.526  10.659
99816W        W71432  29.167  14.868   3.218
99817W        W71433  14.998  26.155  14.934
99818W        W71434  36.612  42.854   4.147
99819W        W71435  26.698  17.673  10.586
99820W        W71436  20.105  33.913   4.629
99821W        W71437  19.899  16.748  12.101
99822W        W71438   3.263  18.736  13.054
99823W        W71439  36.780   9.320  11.073
99824W        W71440   4.279  27.528   3.184
99825W        W71441  43.272  10.111   2.775
99826W        W71442   9.386  10.760   2.277
99827W        W71443   7.383  41.478   0.768
99828W        W71444  29.162  28.956   2.424
99829W        W71445  10.038  29.647   4.554
99830W        W71446  15.660  16.760  10.644
99831W        W71447  27.197  10.139   2.295
99832W        W71448  18.134  22.075   1.131
99833W        W71449  31.107  39.812   3.286
99834W        W71450  24.515  39.378  12.049
99835W        W71451   1.637  24.339  14.427
99836W        W71452  41.633  23.390   4.678
99837W        W71453  27.724  40.028  13.836
99838W        W71454  32.656   0.881   0.760
99839W        W71455   4.171  31.481  13.846
99840W        W71456  30.523   5.369  14.817
99841W        W71457  34.977  14.346  13.899
99842W        W71458  25.256  33.984  10.501
99843W        W71459  23.146   6.901   1.308
99844W        W71460  20.235  21.717  14.270
99845W        W71461  37.088  20.692   1.184
99846W        W71462  18.151  27.464  14.226
99847W        W71463  38.390  27.888   4.950
99848W        W71464  27.097  38.562   4.346
99849W        W71465  41.922  38.687  12.872
99850W        W71466  40.914  29.024  11.152
99851W        W71467  21.758  28.964   2.309
99852W        W71468  27.474  14.438  14.492
99853W        W71469  12.644  11.172  11.151
99854W        W71470  33.454  19.507   2.754
99855W        W71471  19.153  28.143  12.528
99856W        W71472  12.223  35.020   3.197
99857W        W71473   4.376  29.619  12.100
99858W        W71474  44.867  34.529  10.772
99859W        W71475  44.786  29.351   0.077
99860W        W71476  19.557  20.795  12.120
99861W        W71477  39.057   1.395  11.959
99862W        W71478  38.167  31.636   1.405
99863W        W71479  27.569  25.001   4.812
99864W        W71480  41.612  24.573   4.678
99865W        W71481  27.637  16.353  10.140
99866W        W71482  29.114  20.802   2.670
99867W        W71483  43.739  40.350  11.427
99868W        W71484  34.112  28.898  12.923
99869W        W71485  22.594  22.728  14.119
99870W        W71486   6.407  13.768   0.024
99871W        W71487  41.757  38.350   4.159
99872W        W71488   1.963  27.667  10.673
99873W        W71489  44.366  41.926  14.911
99874W        W71490  43.051  10.030   1.170
99875W        W71491  28.716  25.106  12.858
99876W        W71492  37.827  29.095  10.131
99877W        W71493   2.949  33.828  12.731
99878W        W71494  34.487  39.581   3.145
99879W        W71495  41.283  41.270   2.752
99880W        W71496  35.830  24.206   3.711
99881W        W71497   4.466  41.911   3.810
99882W        W71498   6.969  16.437   0.306
99883W        W71499  42.495  27.474   4.173
99884W        W71500  41.950  23.540  14.015
99885W        W71501  44.461  13.649   1.302
99886W        W71502  16.311  32.894   2.334
99887W        W71503  19.148  44.192   0.013
99888W        W71504  13.543  20.801   2.671
99889W        W71505   7.877  10.048   1.967
99890W        W71506  13.049  20.512   1.933
99891W        W71507  31.281  40.690   0.042
99892W        W71508  34.959   9.312  11.576
99893W        W71509   5.802  14.678   2.659
99894W        W71510  16.507   0.880   3.227
99895W        W71511  30.518  15.694  13.011
99896W        W71512  36.087  32.241  12.533
99897W        W71513  20.391  21.683  14.760
99898W        W71514  29.705  28.610   0.709
99899W        W71515  43.045  32.161  11.092
99900W        W71516  27.641   5.217  14.913
99901W        W71517  27.111   8.103  14.132
99902W        W71518   8.235  29.102  14.311
99903W        W71519   7.733   1.846  11.599
99904W        W71520  25.230  16.524  13.067
99905W        W71521  25.509   5.092  12.998
99906W        W71522  14.505  44.097   1.251
99907W        W71523  21.644   4.333   3.549
99908W        W71524  30.262  25.530   4.213
99909W        W71525   4.898  11.945  12.124
99910W        W71526  21.459   3.347  12.549
99911W        W71527  16.245  16.593   2.869
99912W        W71528  17.121   9.314   1.851
99913W        W71529  33.057   4.928   4.515
99914W        W71530   7.681  19.948   0.518
99915W        W71531   9.197   8.279   4.194
99916W        W71532  17.161  23.689   2.144
99917W        W71533   7.701   4.941  11.600
99918W        W71534   1.305  27.192  12.067
99919W        W71535  35.303  39.796   0.330
99920W        W71536  42.817  36.940  11.882
99921W        W71537  11.438   1.357   3.579
99922W        W71538  17.710  16.317   1.789
99923W        W71539  34.504   9.360  13.902
99924W        W71540  33.419  29.917   4.128
99925W        W71541  33.754  43.302   1.704
99926W        W71542   3.770  35.550   4.586
99927W        W71543  23.633  39.255   3.150
99928W        W71544  28.555  38.955   0.733
99929W        W71545  28.693  29.911  10.850
99930W        W71546  36.818  31.954   1.619
99931W        W71547  27.896  28.110   1.905
99932W        W71548  28.037  28.357  10.755
99933W        W71549  41.183   0.996  12.650
99934W        W71550  41.034  10.473  14.340
99935W        W71551   5.445   3.620   4.153
99936W        W71552  35.099  33.080   3.689
99937W        W71553  27.031  41.865  12.129
99938W        W71554   2.859   8.373  14.374
99939W        W71555  37.790   6.167  10.756
99940W        W71556  10.132  10.659  13.545
99941W        W71557  35.792  43.802   4.490
99942W        W71558  26.216  40.620  10.735
99943W        W71559  31.905  44.188  12.469
99944W        W71560  25.032  38.720  13.190
99945W        W71561  43.505  16.839  14.547
99946W        W71562  30.383   8.375   2.706
99947W        W71563  38.423  17.109   0.941
99948W        W71564   0.140  11.705   2.677
99949W        W71565  13.118  32.446   0.300
99950W        W71566  38.386  27.962   2.908
99951W        W71567  40.835   7.351  10.456
99952W        W71568   5.611  18.261   4.105
99953W        W71569  44.926  34.002  12.508
99954W        W71570  28.921  43.402   3.380
99955W        W71571   5.286  19.336   3.337
99956W        W71572  28.765  16.136   3.700
99957W        W71573  42.362   6.639   0.738
99958W        W71574  16.640  24.270   2.221
99959W        W71575  24.920  28.670   3.866
99960W        W71576  41.563   2.044   4.938
99961W        W71577  43.821  40.299  14.394
99962W        W71578   9.130  33.395  11.965
99963W        W71579  27.555  21.191  12.933
99964W        W71580  34.323  25.671  14.461
99965W        W71581   2.104  30.846  14.300
99966W        W71582  29.142   8.323   4.282
99967W        W71583  40.431   2.145  12.461
99968W        W71584   7.511  26.077  10.708
99969W        W71585  31.215  44.254  10.675
99970W        W71586  39.323  24.750  11.048
99971W        W71587  37.431  20.783  12.474
99972W        W71588   1.881  14.079  11.435
99973W        W71589  21.034   9.987   2.332
99974W        W71590  11.228   5.363  13.885
99975W        W71591  38.777  40.960  12.623
99976W        W71592   1.579  19.572  12.402
99977W        W71593   8.265  33.139   0.040
99978W        W71594  42.991  36.269  10.741
99979W        W71595  43.833  26.651   3.309
99980W        W71596  44.330  13.772  13.924
99981W        W71597  20.433  20.738  12.084
99982W        W71598   4.992  33.034   3.192
99983W        W71599  18.601   5.117   3.211
99984W        W71600  32.676  23.242  11.136
99985W        W71601  31.388   7.810   4.577
99986W        W71602  33.212   0.252   1.304
99987W        W71603  22.024  43.798  14.933
99988W        W71604  15.509   0.371   5.090
99989W        W71605  14.837  37.506   0.912
99990W        W71606   3.766  23.592   4.255
99991W        W71607  12.136   5.192  10.603
99992W        W71608  23.176  12.154  11.111
99993W        W71609  33.210   1.062   5.001
99994W        W71610  39.496  32.622  14.913
99995W        W71611  22.001   6.163   3.296
99996W        W71612  11.249  10.433  11.697
99997W        W71613  39.043   5.811  12.932
99998W        W71614  33.505   2.021   3.135
99999W        W71615  10.667   3.336  11.912
    0W        W71616  23.032  40.314  10.877
    1W        W71617  32.026  18.059   0.958
    2W        W71618  39.735  16.221  11.059
    3W        W71619  24.028  28.620  13.051
    4W        W71620  38.473   0.947   1.886
    5W        W71621  20.591  32.863   3.664
    6W        W71622   2.401   1.296   4.095
    7W        W71623  33.099  36.582   1.182
    8W        W71624  12.097   7.497   4.658
    9W        W71625   4.279   7.226  13.560
   10W        W71626   3.665  34.818   4.067
   11W        W71627   9.650  34.833  13.529
   12W        W71628   7.230  33.809   2.736
   13W        W71629  42.968  18.061   4.554
   14W        W71630  44.668  28.071  11.640
   15W        W71631  41.756  36.347   3.293
   16W        W71632   4.412  31.808  13.354
   17W        W71633  14.509  43.885  10.733
   18W        W71634  21.184  31.912  14.853
   19W        W71635  27.970  35.885   0.967
   20W        W71636  27.830   7.473   3.906
   21W        W71637  40.369   8.911  13.817
   22W        W71638  43.495  34.866   9.791
   23W        W71639  18.206  16.858   4.062
   24W        W71640   6.819   0.949   2.094
   25W        W71641  34.952  13.168   4.437
   26W        W71642  38.526   8.866   4.445
   27W        W71643  29.483  32.195   0.164
   28W        W71644  31.797  39.218  12.089
   29W        W71645  17.278  42.211  12.718
   30W        W71646  22.524  35.310   4.811
   31W        W71647  16.613  35.630   2.363
   32W        W71648  37.079  20.215  11.477
   33W        W71649  11.618  24.436   2.149
   34W        W71650  15.529   7.287   3.213
   35W        W71651   2.058  29.144   0.177
   36W        W71652  12.367   4.026  11.484
   37W        W71653  35.974  26.326  12.047
   38W        W71654  29.510   6.780   4.317
   39W        W71655  32.025  33.670  12.063
   40W        W71656  28.051  10.169   1.800
   41W        W71657  28.411  39.852   3.399
   42W        W71658   1.450  22.059  12.109
   43W        W71659  32.837  33.415  12.418
   44W        W71660  25.481  24.169   1.963
   45W        W71661  37.208   9.843   1.833
   46W        W71662  27.609  13.928   4.132
   47W        W71663  38.425  36.429  11.516
   48W        W71664  24.192  38.356   2.688
   49W        W71665   6.754  15.188   2.696
   50W        W71666  17.813  39.360  12.591
   51W        W71667  34.424  23.597   0.755
   52W        W71668  20.093  30.920   3.822
   53W        W71669  44.406  27.115  10.871
   54W        W71670  33.576  23.864  11.379
   55W        W71671  13.274   2.368   0.365
   56W        W71672  19.020  24.247  13.903
   57W        W71673  35.947  27.463  13.419
   58W        W71674  20.664  44.873  14.573
   59W        W71675  17.531   8.246  11.629
   60W        W71676   1.419  29.792   0.650
   61W        W71677  22.670   2.960   4.138
   62W        W71678  41.231  24.754  13.539
   63W        W71679  40.895  10.578   3.898
   64W        W71680   1.867  18.621  13.441
   65W        W71681  26.812  32.564   5.169
   66W        W71682  15.416  17.574   0.576
   67W        W71683  33.386   3.860  14.390
   68W        W71684  34.013  17.314  12.956
   69W        W71685  42.826  15.642  14.348
   70W        W71686  37.922  28.182  13.579
   71W        W71687   5.049  39.528   1.408
   72W        W71688   9.900  36.278   4.652
   73W        W71689  11.375  18.536  12.451
   74W        W71690   8.794  19.572  12.582
   75W        W71691  11.208  29.618  13.694
   76W        W71692  11.257  43.331  14.328
   77W        W71693  16.677  42.576  13.949
   78W        W71694   8.219  30.017   1.170
   79W        W71695   9.763  43.549   4.634
   80W        W71696   5.532   9.061  13.818
   81W        W71697   6.681   1.029   3.043
   82W        W71698  41.047   4.458   1.389
   83W        W71699  21.032   3.247  12.823
   84W        W71700  28.051  26.588  14.942
   85W        W71701  38.059  10.738   1.316
   86W        W71702  19.762  32.408  12.566
   87W        W71703   4.881   8.803   1.051
   88W        W71704  38.099   8.809  12.770
   89W        W71705   5.439   3.242   1.853
   90W        W71706  15.502  42.878   4.852
   91W        W71707  19.701   3.976   1.725
   92W        W71708  16.038   7.609  14.344
   93W        W71709  19.157  40.790  14.868
   94W        W71710  26.526  26.465  13.028
   95W        W71711   5.994  37.550   3.653
   96W        W71712   5.439  34.230   4.171
   97W        W71713  38.098  25.791   3.248
   98W        W71714   0.131   4.861  13.247
   99W        W71715   6.269  34.610   2.253
  100W        W71716  20.068  44.806   4.086
  101W        W71717  13.774   1.208  13.541
  102W        W71718   1.237   3.249  12.637
  103W        W71719  13.672   2.345  13.841
  104W        W71720  17.964  36.305  11.139
  105W        W71721  36.823  21.117  10.627
  106W        W71722  20.137  17.607   3.360
  107W        W71723  32.479  23.573  11.458
  108W        W71724  12.621  36.384  14.237
  109W        W71725  20.957  39.814   4.159
  110W        W71726  12.093  24.991   4.100
  111W        W71727  34.030   2.401   4.171
  112W        W71728  43.256  32.086  12.064
  113W        W71729  10.306  38.469  13.450
  114W        W71730  26.006  23.156  12.362
  115W        W71731   1.405   6.525   1.272
  116W        W71732  29.362   7.820  10.609
  117W        W71733   9.422  15.049   0.894
  118W        W71734  44.439  29.731  11.039
  119W        W71735  22.333  21.711   2.238
  120W        W71736   2.727   9.276  14.369
  121W        W71737  31.749  15.094  13.458
  122W        W71738  14.667  11.105  12.030
  123W        W71739  15.320  11.808   4.684
  124W        W71740  29.083  27.669   1.163
  125W        W71741  27.638  33.135  14.425
  126W        W71742  36.261  12.213  13.075
  127W        W71743  27.472  18.986  14.284
  128W        W71744  16.442   4.759   4.686
  129W        W71745  43.442  44.208   0.759
  130W        W71746  24.235  11.451  11.085
  131W        W71747   6.437  32.827  11.521
  132W        W71748  37.586  34.858  12.047
  133W        W71749   0.750  19.879   4.246
  134W        W71750   1.328  37.991   2.577
  135W        W71751  19.447  36.939   0.947
  136W        W71752  36.799   2.444  14.345
  137W        W71753  21.835  42.714  12.337
  138W        W71754  33.456  42.312  14.824
  139W        W71755   7.467   8.716   0.299
  140W        W71756  27.931   2.654  14.704
  141W        W71757  34.763  27.540   0.825
  142W        W71758  19.208  11.240  12.588
  143W        W71759  19.882  35.978   3.850
  144W        W71760  40.671  11.637   3.407
  145W        W71761   0.841   9.561   1.290
  146W        W71762  37.548  42.816   0.324
  147W        W71763  13.269  15.107   1.877
  148W        W71764  33.053  38.097  12.944
  149W        W71765  41.732   4.959  11.941
  150W        W71766   1.938   5.799  11.802
  151W        W71767  12.909  31.467  11.527
  152W        W71768  41.895  32.159  13.945
  153W        W71769  28.030  39.397   0.319
  154W        W71770   9.389  27.990   3.038
  155W        W71771  32.067  25.970  13.199
  156W        W71772  27.679  19.513   2.306
  157W        W71773  25.746  25.738   4.117
  158W        W71774  38.318   5.133  13.827
  159W        W71775  16.553  19.673   2.624
  160W        W71776  40.287  14.437   3.031
  161W        W71777   5.474  15.374   4.521
  162W        W71778  23.976  44.285  11.965
  163W        W71779  44.754  22.225  12.492
  164W        W71780  42.398  14.078  14.052
  165W        W71781   3.406  44.608  14.811
  166W        W71782  12.808   0.862   2.337
  167W        W71783  21.057  27.329  14.204
  168W        W71784  22.546  15.540   1.984
  169W        W71785  18.292  36.778   4.307
  170W        W71786  14.738   4.221  11.435
  171W        W71787  42.477  18.968   4.015
  172W        W71788  27.079  12.862  14.912
  173W        W71789  23.174   5.153  13.992
  174W        W71790  37.584  17.603   3.690
  175W        W71791  34.919  43.304   0.805
  176W        W71792   5.234  23.151   3.961
  177W        W71793  12.450  23.615   3.336
  178W        W71794  20.732  37.817   3.158
  179W        W71795  22.567   1.306  10.113
  180W        W71796  26.424  29.629   1.826
  181W        W71797  26.270  16.820  10.551
  182W        W71798  44.951  17.128   3.278
  183W        W71799  32.838  15.650   4.950
  184W        W71800  41.499  15.534   3.159
  185W        W71801   1.732  41.766  14.828
  186W        W71802   8.170  27.096  13.396
  187W        W71803  28.491  22.067   4.139
  188W        W71804  12.914  28.107   2.695
  189W        W71805  35.336  41.360   4.079
  190W        W71806   9.368  27.547  14.079
  191W        W71807   3.996  22.033  11.062
  192W        W71808  16.472  29.542   0.210
  193W        W71809  18.228   7.929   2.345
  194W        W71810  14.278   6.388   0.823
  195W        W71811  24.014  30.251  12.974
  196W        W71812   6.062   9.069   3.048
  197W        W71813  44.773   6.940  13.917
  198W        W71814   5.832   4.351   1.342
  199W        W71815   8.597  36.810   1.244
  200W        W71816  37.513   0.774  11.376
  201W        W71817  13.526  14.758   0.442
  202W        W71818  37.539  31.927   4.959
  203W        W71819  13.731   4.372   3.081
  204W        W71820  23.685  36.542  12.491
  205W        W71821  13.305   6.792  10.575
  206W        W71822  11.041  14.225  11.041
  207W        W71823  42.825  12.601   4.090
  208W        W71824  39.537   6.193   4.789
  209W        W71825  11.142  13.711   0.188
  210W        W71826  37.218  20.495   2.595
  211W        W71827  31.056  35.132   4.195
  212W        W71828   9.213   1.902   3.244
  213W        W71829  28.367   7.689   4.582
  214W        W71830  41.546  25.606   2.703
  215W        W71831  17.621   5.915  13.397
  216W        W71832   9.802  41.989  14.427
  217W        W71833  10.201  37.739   2.757
  218W        W71834  40.309  35.891   4.657
  219W        W71835  37.294   2.230  13.490
  220W        W71836   1.771   4.400  12.533
  221W        W71837   4.365  42.391   3.647
  222W        W71838  34.946  18.229  14.022
  223W        W71839   7.720  41.999  10.786
  224W        W71840  27.562  28.474  14.670
  225W        W71841   3.894  36.373   2.376
  226W        W71842  18.174  18.312  12.119
  227W        W71843  31.473  11.847   2.628
  228W        W71844   2.698  15.002  11.550
  229W        W71845  20.713   0.269   4.289
  230W        W71846  26.638  25.739   2.692
  231W        W71847   4.070  22.674   5.551
  232W        W71848   0.459   2.658  12.006
  233W        W71849   3.135   1.998  11.889
  234W        W71850  21.212  23.439   3.846
  235W        W71851  10.548  39.453   2.819
  236W        W71852   0.302  40.407  13.550
  237W        W71853  31.143  31.508  11.565
  238W        W71854  23.638   6.352  13.029
  239W        W71855  31.696   5.738   3.269
  240W        W71856  12.734  24.242  10.655
  241W        W71857   6.867   9.369  14.590
  242W        W71858   3.457  30.813   1.603
  243W        W71859   5.302  28.626   1.448
  244W        W71860   5.096   3.997   4.225
  245W        W71861  22.228  34.840   1.457
  246W        W71862  36.657   0.879  12.275
  247W        W71863  26.860  19.206  12.991
  248W        W71864   9.717  11.106  13.866
  249W        W71865  15.065   0.106  11.117
  250W        W71866  41.001  15.799  12.833
  251W        W71867  37.833   3.714   1.795
  252W        W71868  15.219  25.567   3.395
  253W        W71869  37.667  29.554   1.689
  254W        W71870   0.510  15.604   2.382
  255W        W71871  28.186   4.320  14.389
  256W        W71872  42.626  20.311   2.900
  257W        W71873  12.675  41.291   2.048
  258W        W71874   4.085  38.276   3.447
  259W        W71875  35.403   5.407  12.597
  260W        W71876  28.903   6.128  10.531
  261W        W71877   7.487  25.449  14.470
  262W        W71878  18.201  20.207  14.897
  263W        W71879  36.290  32.638   2.357
  264W        W71880  29.465  30.903  14.574
  265W        W71881   3.796  35.039  14.474
  266W        W71882  31.184  17.044   2.224
  267W        W71883   6.597  15.184   3.215
  268W        W71884  31.087  26.988   2.865
  269W        W71885  22.187  27.560   0.393
  270W        W71886  42.357  11.084   2.076
  271W        W71887  30.495  17.304   0.330
  272W        W71888   2.556  34.195   4.135
  273W        W71889  28.501  44.886  14.493
  274W        W71890  19.637  17.186   1.367
  275W        W71891   7.017  39.086  13.866
  276W        W71892  23.933  23.800  13.467
  277W        W71893  19.626  25.247  13.607
  278W        W71894  22.364  23.665  11.185
  279W        W71895  13.834  31.515   3.230
  280W        W71896  43.779   8.388   3.201
  281W        W71897   0.675  31.966   2.400
  282W        W71898  20.458   2.758   1.483
  283W        W71899  10.349  38.530   3.183
  284W        W71900  21.658  41.007  10.686
  285W        W71901   5.226  30.883  13.787
  286W        W71902  43.195  35.660   3.816
  287W        W71903  32.858   7.232   0.440
  288W        W71904   5.773   8.285   0.480
  289W        W71905  27.834  30.574   1.357
  290W        W71906  38.616  42.417  12.473
  291W        W71907  34.076  42.836   2.854
  292W        W71908   1.304   8.595   4.930
  293W        W71909  39.572   8.828  12.416
  294W        W71910  35.779  23.595   4.754
  295W        W71911  25.807  20.227  10.727
  296W        W71912  23.939   3.619  14.876
  297W        W71913  33.658  36.004  13.761
  298W        W71914   6.328  16.695  14.103
  299W        W71915  15.276  17.100  12.534
  300W        W71916   5.303  41.427  13.346
  301W        W71917  42.454  28.485  12.793
  302W        W71918   8.087  23.679   2.316
  303W        W71919  18.691  28.535  13.702
  304W        W71920  37.179  19.714  11.371
  305W        W71921  14.247   1.086  11.241
  306W        W71922  38.983  12.769   1.745
  307W        W71923  29.974   0.888  11.996
  308W        W71924  12.672  12.202   3.168
  309W        W71925  38.347  15.927   3.207
  310W        W71926  12.175  21.662  10.698
  311W        W71927  26.109  43.287   2.620
  312W        W71928  20.263  22.036   0.100
  313W        W71929   1.273  19.652   2.612
  314W        W71930   7.954  16.685   4.225
  315W        W71931  15.512  37.519  14.381
  316W        W71932   6.654  14.263   3.103
  317W        W71933  13.697  31.976  10.628
  318W        W71934   7.326   0.379   3.585
  319W        W71935  41.638  36.526   0.406
  320W        W71936  17.386   7.430   4.562
  321W        W71937   5.286  19.480  11.608
  322W        W71938  36.630   7.127   2.830
  323W        W71939  44.800  30.858  13.792
  324W        W71940  21.782   8.942   1.411
  325W        W71941  27.196  20.266  12.079
  326W        W71942   4.518   2.672   2.705
  327W        W71943  26.130  37.051  14.840
  328W        W71944  33.379  24.325   0.416
  329W        W71945  14.750  28.048   1.727
  330W        W71946  39.402  39.309   4.122
  331W        W71947   8.676   3.810   0.387
  332W        W71948   8.676  18.817  13.107
  333W        W71949  38.011  40.489   0.393
  334W        W71950  36.986  16.039   4.272
  335W        W71951   8.601  10.884  12.519
  336W        W71952   4.691  29.074  11.865
  337W        W71953  12.875  23.632   0.864
  338W        W71954   0.878  41.364  13.060
  339W        W71955  15.718  42.164   2.733
  340W        W71956   9.869  40.313   4.160
  341W        W71957  14.745  14.880   4.431
  342W        W71958   2.416  40.326   3.234
  343W        W71959   3.718  41.409   2.699
  344W        W71960  44.442   9.635  14.539
  345W        W71961  42.615  13.452  11.046
  346W        W71962  35.157  29.877  13.381
  347W        W71963  37.151  33.887  11.568
  348W        W71964  34.277  19.241   0.473
  349W        W71965   9.315  11.661  13.663
  350W        W71966  44.664  39.060  14.811
  351W        W71967   8.096  13.051  10.902
  352W        W71968  35.413   9.058  11.662
  353W        W71969   9.363  22.565  11.995
  354W        W71970  30.797  25.456  11.083
  355W        W71971  19.490   8.784  11.354
  356W        W71972   3.841  39.250   2.241
  357W        W71973   1.554  24.272   2.638
  358W        W71974   6.797  37.447   0.376
  359W        W71975  44.842  19.098   4.301
  360W        W71976  19.480  16.702   2.207
  361W        W71977  30.450  27.384   3.709
  362W        W71978  15.621   4.670  11.586
  363W        W71979  39.925  40.247  10.740
  364W        W71980   8.222  38.443   1.864
  365W        W71981  37.784   7.883   4.134
  366W        W71982   5.946  15.485   0.126
  367W        W71983   7.794   2.924  14.341
  368W        W71984  12.382   3.271  12.613
  369W        W71985   4.222   4.869   4.646
  370W        W71986  43.952  39.896  11.376
  371W        W71987  15.266  39.253  14.920
  372W        W71988   7.836  39.922   1.563
  373W        W71989   3.277  18.352  11.502
  374W        W71990  21.835  12.351   2.080
  375W        W71991  20.474  20.582  10.668
  376W        W71992   1.048  37.455   9.865
  377W        W71993   6.798  26.454   0.418
  378W        W71994  28.586  22.064   1.773
  379W        W71995  17.562   9.854   3.561
  380W        W71996  11.816  14.192   3.615
  381W        W71997  40.569  29.607  14.575
  382W        W71998  29.289  41.908  12.554
  383W        W71999   1.924  41.466   4.364
  384W        W72000   6.922  29.191  12.511
  385W        W72001  40.196  43.079  12.927
  386W        W72002   5.972  26.048   2.764
  387W        W72003   2.614  35.421   1.882
  388W        W72004  43.259   6.592   4.273
  389W        W72005  12.786  39.477   4.036
  390W        W72006  33.202   1.678   2.800
  391W        W72007  30.386  19.748   1.834
  392W        W72008  21.483  26.280   2.394
  393W        W72009  34.047   5.499   3.266
  394W        W72010  20.959  23.178   4.426
  395W        W72011   4.869  15.071  11.206
  396W        W72012  27.382  25.470   1.382
  397W        W72013  27.075   5.095  12.098
  398W        W72014  42.538  38.898  13.362
  399W        W72015   5.351  16.263   2.247
  400W        W72016  19.702  28.588  10.710
  401W        W72017  35.045  10.526  12.585
  402W        W72018   2.382  24.725   1.760
  403W        W72019  11.783  16.504  10.655
  404W        W72020  42.439  20.907  11.458
  405W        W72021   4.403  36.774  13.840
  406W        W72022  33.503  28.983  13.552
  407W        W72023   9.043  40.048  12.337
  408W        W72024   8.213  30.497  14.872
  409W        W72025  26.678  37.775  12.060
  410W        W72026   7.760  10.557   1.772
  411W        W72027  15.253  17.176   3.229
  412W        W72028  11.730  32.111  11.510
  413W        W72029   0.977  22.117  13.280
  414W        W72030   0.367   5.840   4.532
  415W        W72031   5.467  27.557  13.929
  416W        W72032   1.522  14.246   1.733
  417W        W72033   7.647   4.196  10.838
  418W        W72034  43.716  38.532   1.779
  419W        W72035   5.375  19.213  14.953
  420W        W72036  16.311  18.737  12.068
  421W        W72037  10.300  11.743  14.291
  422W        W72038   8.581  12.833   1.510
  423W        W72039   0.273  37.404  12.509
  424W        W72040  16.190  24.032   2.095
  425W        W72041   0.033  21.769  14.308
  426W        W72042  19.086  42.999   2.379
  427W        W72043  40.523  42.941  10.510
  428W        W72044  38.553   3.409   1.399
  429W        W72045   9.728  42.708   3.677
  430W        W72046  40.723  41.271   2.213
  431W        W72047  37.366  22.140   4.748
  432W        W72048  30.099  42.412   0.987
  433W        W72049  30.481  33.561  12.012
  434W        W72050  13.234  16.278  13.017
  435W        W72051   7.286  15.725   2.922
  436W        W72052  12.799  11.899  14.214
  437W        W72053  35.042  31.814  13.864
  438W        W72054  30.105   2.816  14.450
  439W        W72055   0.514  35.832  13.484
  440W        W72056  12.939  33.100  11.101
  441W        W72057   7.018  28.547   2.844
  442W        W72058   3.217  23.621   4.363
  443W        W72059  42.866  36.110   0.388
  444W        W72060  12.890  33.978   3.407
  445W        W72061  21.478  12.937   2.801
  446W        W72062   4.307  25.369  13.044
  447W        W72063  25.082   2.823   3.932
  448W        W72064  13.772   5.694  13.952
  449W        W72065  30.281   4.553   0.395
  450W        W72066  17.143  21.671   3.358
  451W        W72067   6.873  25.018   0.821
  452W        W72068  11.149  37.565   4.268
  453W        W72069  12.662  19.814  12.014
  454W        W72070  23.036  40.868   1.877
  455W        W72071  18.194  16.077  13.887
  456W        W72072  10.522   7.763  12.461
  457W        W72073  40.399  27.675  10.802
  458W        W72074  30.166  31.680  12.571
  459W        W72075   7.333  40.692   0.338
  460W        W72076   2.463  30.762  12.659
  461W        W72077   0.618  12.198   4.850
  462W        W72078  30.055  38.982   1.324
  463W        W72079  34.975  18.075  12.003
  464W        W72080  27.089  16.637  13.832
  465W        W72081  34.365  14.989  14.371
  466W        W72082  13.854  25.108  14.066
  467W        W72083   0.907  13.156  12.461
  468W        W72084  14.150  39.718  14.428
  469W        W72085  30.093   7.647   1.763
  470W        W72086  29.874  40.810   3.379
  471W        W72087  35.916  29.604   1.001
  472W        W72088  42.907   1.509  13.810
  473W        W72089   3.032  15.240  14.863
  474W        W72090   2.857  43.895  11.913
  475W        W72091   1.057   5.955  11.074
  476W        W72092  21.429  26.581   0.054
  477W        W72093  26.062  44.104  11.633
  478W        W72094  33.965   3.601  11.498
  479W        W72095  27.557  13.806   0.387
  480W        W72096   6.331   9.620   4.518
  481W        W72097   6.392  29.456   2.238
  482W        W72098   1.350  15.370  13.763
  483W        W72099   7.629   4.204   2.782
  484W        W72100  12.020  33.034  11.433
  485W        W72101  21.329  44.134  14.366
  486W        W72102  23.962  24.200  13.966
  487W        W72103  31.555  44.438  13.828
  488W        W72104  33.327  29.028   1.830
  489W        W72105   2.240  10.083  11.558
  490W        W72106  32.839  23.963   4.176
  491W        W72107   4.973  35.533  10.668
  492W        W72108   6.079  12.160   0.407
  493W        W72109  12.062   0.713   2.712
  494W        W72110  34.075   4.952   3.245
  495W        W72111   1.025   9.052   1.402
  496W        W72112  20.074  16.447  13.437
  497W        W72113  35.825  17.614   1.666
  498W        W72114  33.017   0.550   0.477
  499W        W72115   0.813  10.977   1.430
  500W        W72116   4.738  26.168   3.276
  501W        W72117  26.128  12.113  11.675
  502W        W72118  10.591  36.395   2.922
  503W        W72119  36.354  19.937  12.395
  504W        W72120  33.337  21.530   3.389
  505W        W72121  21.635  38.446  13.042
  506W        W72122  11.841  22.473  13.850
  507W        W72123  28.411  27.958  14.083
  508W        W72124   4.460  11.507   4.850
  509W        W72125   4.196   3.209   4.034
  510W        W72126  24.000  27.237  12.845
  511W        W72127  43.426  22.597   1.991
  512W        W72128  33.985  25.916  13.028
  513W        W72129  43.987  22.148   3.636
  514W        W72130  36.900  42.893   0.486
  515W        W72131  20.264  37.469   0.479
  516W        W72132  29.541  11.091   2.334
  517W        W72133  36.885  17.799  12.839
  518W        W72134  17.391  38.497  14.909
  519W        W72135  19.687  23.134   2.659
  520W        W72136  39.516  10.419  11.404
  521W        W72137  15.482  24.347   4.143
  522W        W72138  29.003   2.032  11.145
  523W        W72139  17.534   8.710   1.776
  524W        W72140  33.510  39.809  11.276
  525W        W72141  18.776   4.974   1.850
  526W        W72142  13.458  26.371  12.998
  527W        W72143   1.537  35.388   4.583
  528W        W72144  34.263   3.739   4.467
  529W        W72145  31.503   7.584   2.827
  530W        W72146  24.385  41.406   4.521
  531W        W72147  36.406   0.042   0.535
  532W        W72148  15.281  30.460  14.793
  533W        W72149  43.466  21.476   4.558
  534W        W72150  27.332   4.212  13.123
  535W        W72151  34.110   1.216   5.370
  536W        W72152  25.603  14.789   1.343
  537W        W72153  27.994  14.866  10.575
  538W        W72154   1.263   6.194   4.740
  539W        W72155   8.290  36.666  12.088
  540W        W72156  41.914  35.506  13.876
  541W        W72157  32.566  12.661  12.619
  542W        W72158  42.001  33.510   4.581
  543W        W72159  24.705  15.192   4.645
  544W        W72160  17.822   6.466   0.821
  545W        W72161  41.545  19.516  11.944
  546W        W72162  28.644  31.932  11.011
  547W        W72163  12.860  14.795  13.764
  548W        W72164  39.002  39.567   1.328
  549W        W72165  14.643  34.313  10.733
  550W        W72166  11.362  13.677  10.454
  551W        W72167  40.359  33.998   1.259
  552W        W72168  25.686  38.169  13.532
  553W        W72169  36.594  43.983   4.347
  554W        W72170  25.179  11.661  11.587
  555W        W72171  18.568  27.722  11.017
  556W        W72172  16.885  38.066   1.816
  557W        W72173  13.220  44.417  10.899
  558W        W72174  24.077   0.415   3.725
  559W        W72175  23.318   2.946   0.804
  560W        W72176  26.451  14.134  11.288
  561W        W72177   1.612  43.352   4.026
  562W        W72178   8.337   1.383   1.895
  563W        W72179  24.187  34.590   4.765
  564W        W72180  39.843  10.624   1.069
  565W        W72181  37.234  22.234   0.001
  566W        W72182  10.257  35.096  11.160
  567W        W72183  12.691  10.979   2.243
  568W        W72184   7.767  13.643   4.220
  569W        W72185  31.603   8.372   2.411
  570W        W72186  39.666  20.021  13.013
  571W        W72187  33.777  39.338  11.716
  572W        W72188  13.447  31.044   4.915
  573W        W72189  41.052   7.164   1.346
  574W        W72190  28.358   0.699   1.449
  575W        W72191  32.441   2.028  13.421
  576W        W72192   9.358  23.985  11.106
  577W        W72193  39.412  14.063   4.498
  578W        W72194   6.870  36.233  13.285
  579W        W72195  37.344  37.976   1.620
  580W        W72196  33.171  17.187   1.872
  581W        W72197   3.641   6.282   4.875
  582W        W72198  32.404  25.896  13.624
  583W        W72199   6.284  41.113  14.752
  584W        W72200   5.087  26.189  12.091
  585W        W72201  25.580  29.891  11.708
  586W        W72202  26.454   5.441  13.812
  587W        W72203   9.967   6.160  13.838
  588W        W72204  27.234  21.664  10.742
  589W        W72205   8.849  11.733  12.936
  590W        W72206  26.174   3.387   4.676
  591W        W72207  39.803  32.042  14.406
  592W        W72208  29.925  27.533  11.924
  593W        W72209  36.831  10.556   5.610
  594W        W72210  15.250   5.409   3.660
  595W        W72211   3.871  37.441  13.789
  596W        W72212  25.629  22.289   0.895
  597W        W72213  18.164  42.447   3.613
  598W        W72214  12.915  15.988  10.243
  599W        W72215  18.659   9.683   3.255
  600W        W72216   3.403  13.273  11.518
  601W        W72217   5.382  14.826  14.144
  602W        W72218  34.615  42.208   3.592
  603W        W72219  36.513  37.079  14.796
  604W        W72220  41.832  24.549  14.808
  605W        W72221  32.030  20.049  11.208
  606W        W72222  10.353  31.475  13.400
  607W        W72223  15.413  30.366  13.860
  608W        W72224  26.871  12.069  12.482
  609W        W72225   1.946   7.273  13.473
  610W        W72226   7.103  31.814   3.220
  611W        W72227  27.390  14.668   2.593
  612W        W72228  38.041   5.862  14.056
  613W        W72229  10.260  32.170   2.680
  614W        W72230  16.371  28.473  14.437
  615W        W72231   5.004  26.717   4.465
  616W        W72232  29.274   5.316   3.299
  617W        W72233  18.294  42.503   4.136
  618W        W72234  32.326   8.210   0.471
  619W        W72235  29.592  17.207   1.282
  620W        W72236  37.752   5.268   2.664
  621W        W72237  40.422  24.255  11.606
  622W        W72238  32.462  15.668  14.241
  623W        W72239  39.307  34.537  11.019
  624W        W72240  30.857  20.656  10.764
  625W        W72241  16.273  32.335  14.985
  626W        W72242  25.087  26.180   0.861
  627W        W72243  25.218  37.466  10.682
  628W        W72244  15.746  29.167  12.574
  629W        W72245   7.262  12.489   2.694
  630W        W72246   0.353  44.840  12.537
  631W        W72247   9.830  36.793   4.578
  632W        W72248   3.193   2.027   3.586
  633W        W72249  34.393   2.135  14.423
  634W        W72250  38.986  40.268   4.700
  635W        W72251  43.453  40.913  14.283
  636W        W72252  21.975  13.091   2.748
  637W        W72253  25.698  43.024  12.052
  638W        W72254  19.162  16.520   4.485
  639W        W72255  36.664  44.213   0.922
  640W        W72256  29.254   2.877   2.245
  641W        W72257  25.551  25.477   3.680
  642W        W72258   6.234  31.600  12.897
  643W        W72259  39.891  30.781   2.244
  644W        W72260   3.660  21.809   0.887
  645W        W72261  41.247  41.832  12.518
  646W        W72262  31.076   0.916   4.361
  647W        W72263  21.923  44.973   3.691
  648W        W72264  23.541  34.180   2.769
  649W        W72265   9.916  44.684   1.821
  650W        W72266   5.784   2.502  14.860
  651W        W72267  41.436  31.530   4.679
  652W        W72268  18.613  35.641  13.998
  653W        W72269   2.066  21.978   3.047
  654W        W72270   5.729  30.113  10.722
  655W        W72271  26.738  12.342   4.775
  656W        W72272  42.034   4.553  13.802
  657W        W72273  35.018  35.567   4.572
  658W        W72274  19.659   3.718   3.123
  659W        W72275  34.539   2.638   3.350
  660W        W72276  36.886  22.262  13.357
  661W        W72277  27.408  32.211   0.381
  662W        W72278  18.631  30.022  10.661
  663W        W72279  17.241  30.312   0.262
  664W        W72280  12.567  33.574   1.713
  665W        W72281  38.552  28.998   2.385
  666W        W72282   3.742  15.725   1.733
  667W        W72283  31.199  21.125  13.118
  668W        W72284  32.006  38.931   5.410
  669W        W72285   6.311  35.006   1.443
  670W        W72286  18.874   1.295   2.889
  671W        W72287   8.009  22.087   2.217
  672W        W72288  17.639   9.646   3.079
  673W        W72289   4.107  41.785   1.878
  674W        W72290  12.584   8.130   1.818
  675W        W72291  42.086  37.419   1.028
  676W        W72292   7.657  42.043  14.032
  677W        W72293   0.309  34.142   3.935
  678W        W72294   6.363  42.054   2.943
  679W        W72295  37.562  15.669  13.991
  680W        W72296  40.807  39.420   3.450
  681W        W72297  13.877  38.513   2.455
  682W        W72298  29.515   5.294  13.359
  683W        W72299  17.536   7.063  12.880
  684W        W72300  17.862  17.393   3.720
  685W        W72301  32.331  14.342   1.321
  686W        W72302  30.557  20.690   0.704
  687W        W72303  27.762  12.317  13.480
  688W        W72304  14.318   9.201   1.164
  689W        W72305  40.517   7.946   1.764
  690W        W72306   5.728  39.158   2.312
  691W        W72307  37.957   5.764   0.334
  692W        W72308  36.353  11.772   2.801
  693W        W72309  12.768  29.035  11.174
  694W        W72310  16.367   9.806  12.543
  695W        W72311   9.301  11.148  13.548
  696W        W72312  34.804  33.619  12.572
  697W        W72313  29.934  40.886  11.120
  698W        W72314  17.535  39.294  12.162
  699W        W72315  39.014  33.434  13.515
  700W        W72316  40.445  44.641   4.993
  701W        W72317  23.938  30.897   3.689
  702W        W72318  24.566  35.337  13.520
  703W        W72319   5.547   1.075   3.261
  704W        W72320  34.200   0.339  11.969
  705W        W72321   0.308  21.579  13.374
  706W        W72322  14.870  11.835  11.005
  707W        W72323   9.307  30.162   1.933
  708W        W72324  23.982  39.991  12.360
  709W        W72325  39.608   7.916  12.454
  710W        W72326   0.497  34.214  13.862
  711W        W72327  21.620  24.641   4.178
  712W        W72328   8.799   5.412   3.369
  713W        W72329  13.252  11.780   1.502
  714W        W72330   1.696  14.603   0.858
  715W        W72331  28.416  41.852  13.605
  716W        W72332  28.123  42.888  13.033
  717W        W72333  37.921  27.263   4.718
  718W        W72334   1.420  10.699   2.683
  719W        W72335  35.545   7.864   0.392
  720W        W72336   9.776   1.454  10.944
  721W        W72337  31.202  29.416  13.572
  722W        W72338   6.980  28.047  10.988
  723W        W72339  28.556  26.266   4.906
  724W        W72340  15.573  16.579   2.319
  725W        W72341  15.554  24.210   0.383
  726W        W72342  32.176   2.420  12.477
  727W        W72343  20.210  32.753  10.988
  728W        W72344  42.408  20.675   0.413
  729W        W72345  29.527  23.767  11.565
  730W        W72346   7.169   4.184   1.901
  731W        W72347  30.409  14.336   1.302
  732W        W72348   7.900  30.067   2.398
  733W        W72349  11.707  44.893  12.822
  734W        W72350  37.551  38.308   1.178
  735W        W72351  26.139   1.688  11.684
  736W        W72352  32.378  12.426  11.467
  737W        W72353  44.319  11.436   3.699
  738W        W72354  39.759  41.371   4.522
  739W        W72355   8.188  42.880   1.625
  740W        W72356  37.051  35.504  13.008
  741W        W72357  44.115  44.659  13.849
  742W        W72358  14.213   8.896   4.261
  743W        W72359   4.702  19.620  10.543
  744W        W72360  32.866  21.156  11.100
  745W        W72361  29.766  37.643  10.271
  746W        W72362  22.717  22.261  13.900
  747W        W72363   2.742  44.405  14.077
  748W        W72364   9.161  33.464   1.287
  749W        W72365  34.431  43.497   2.771
  750W        W72366   0.190   0.160  11.057
  751W        W72367   5.632  42.276  14.442
  752W        W72368   7.283  19.990  13.946
  753W        W72369   2.383  12.228  12.716
  754W        W72370  27.572  13.127   1.168
  755W        W72371  19.908  28.271  12.875
  756W        W72372  14.093  35.033   3.816
  757W        W72373   6.012  32.715   2.209
  758W        W72374   8.858   4.991   2.632
  759W        W72375  30.518  37.826   0.152
  760W        W72376   0.308   8.378  14.234
  761W        W72377  12.065  32.561  14.345
  762W        W72378   9.225  42.937   2.793
  763W        W72379  36.295  11.776  14.860
  764W        W72380  28.985  25.676   3.683
  765W        W72381  36.023  39.901  13.034
  766W        W72382  44.902  28.898  14.835
  767W        W72383  19.818  12.737   3.821
  768W        W72384  30.640   7.347   2.980
  769W        W72385  26.494  29.455   0.824
  770W        W72386   5.405  18.764  14.708
  771W        W72387  13.840  37.041   1.959
  772W        W72388  38.460  20.492   3.123
  773W        W72389   2.074   1.852  12.963
  774W        W72390  18.701  42.173  13.348
  775W        W72391   6.929  42.430   1.373
  776W        W72392  33.202  14.515  11.339
  777W        W72393  43.465  15.117  13.303
  778W        W72394  23.307   6.799  14.422
  779W        W72395  34.154   2.064   3.636
  780W        W72396  28.024  17.654  11.526
  781W        W72397   6.221  40.351   0.940
  782W        W72398  42.323  32.602  11.222
  783W        W72399  16.098  29.036  12.234
  784W        W72400  44.220   3.254  13.333
  785W        W72401   6.157  29.071  13.571
  786W        W72402  40.935  43.064   3.271
  787W        W72403  21.649  15.300   4.357
  788W        W72404  12.183  43.785   1.990
  789W        W72405  16.094  39.915  10.653
  790W        W72406  22.507   2.174   0.383
  791W        W72407  20.706  27.006   1.980
  792W        W72408  10.251  40.973   2.924
  793W        W72409  40.478  26.693   0.751
  794W        W72410  20.598   8.307  14.584
  795W        W72411  39.468  24.520   2.779
  796W        W72412  24.053   1.862  11.758
  797W        W72413  26.590  40.713   4.284
  798W        W72414  40.611  13.758  11.122
  799W        W72415   0.839  19.011   0.638
  800W        W72416  22.536   8.325  12.657
  801W        W72417   6.951  18.697  11.558
  802W        W72418  23.302  25.572   0.005
  803W        W72419  19.002  28.390   3.099
  804W        W72420   2.472   7.358   3.721
  805W        W72421  31.010  22.940   4.321
  806W        W72422   9.157   8.665  11.154
  807W        W72423  41.131  30.981   4.649
  808W        W72424  11.492  11.447   1.836
  809W        W72425  22.071   4.732  11.067
  810W        W72426  44.261  18.767  11.195
  811W        W72427  21.656  22.128  12.047
  812W        W72428   7.235  10.678   2.454
  813W        W72429  22.718  21.006   1.955
  814W        W72430  17.780  42.119  13.946
  815W        W72431  27.972   4.709   2.354
  816W        W72432  12.809   7.583  10.590
  817W        W72433   1.364  28.445   0.883
  818W        W72434  15.190  36.800   4.387
  819W        W72435  26.983  20.473  14.982
  820W        W72436  33.864  10.270  11.558
  821W        W72437  44.854  10.380   0.651
  822W        W72438  24.032   2.226   1.740
  823W        W72439  15.047  14.408  11.984
  824W        W72440  13.896  35.862  11.374
  825W        W72441  25.452  24.226   4.276
  826W        W72442  21.898  36.006   0.090
  827W        W72443  41.530  27.212   1.202
  828W        W72444  19.045   4.947   0.914
  829W        W72445  18.547   3.217   0.529
  830W        W72446  18.216   9.801   0.695
  831W        W72447   2.400  12.408   3.695
  832W        W72448  28.543  21.085   4.021
  833W        W72449  28.342  21.134   0.936
  834W        W72450   8.833  33.544   2.132
  835W        W72451  26.774  42.067   1.502
  836W        W72452  19.171  35.874  12.126
  837W        W72453  41.211   4.142  11.647
  838W        W72454   2.338   2.334  12.056
  839W        W72455  14.193  27.242  12.488
  840W        W72456  16.448  31.352  12.104
  841W        W72457  28.098  30.179   1.162
  842W        W72458  30.108   9.237   4.124
  843W        W72459   0.320   5.991  11.426
  844W        W72460  29.246  40.387  14.861
  845W        W72461  39.849  15.396   2.672
  846W        W72462  18.112  22.689   3.158
  847W        W72463  43.821  25.208   4.421
  848W        W72464   7.668  41.666   0.055
  849W        W72465  14.390  18.421  13.949
  850W        W72466  13.109  39.530   0.841
  851W        W72467  26.727  36.302  13.973
  852W        W72468  11.755  32.766  13.799
  853W        W72469  24.725   1.868   2.908
  854W        W72470  24.656   7.449  12.935
  855W        W72471  22.558  42.965   4.975
  856W        W72472  27.067   5.907  14.424
  857W        W72473  27.063  22.650   2.219
  858W        W72474   2.375   4.460  14.261
  859W        W72475  13.837  10.800  11.553
  860W        W72476  37.930  39.762   4.239
  861W        W72477  34.972  16.811  14.937
  862W        W72478  32.283   1.331   1.235
  863W        W72479   4.787   5.950   1.334
  864W        W72480   5.230  21.507  11.134
  865W        W72481  42.327  29.868   0.167
  866W        W72482   4.991  39.626  12.097
  867W        W72483  14.539  25.456   0.297
  868W        W72484   4.268  25.151   4.607
  869W        W72485  28.577  20.585   3.906
  870W        W72486   9.551   6.714  12.505
  871W        W72487  43.275  38.952  11.394
  872W        W72488   0.725  31.568  13.574
  873W        W72489  40.793  14.701  13.947
  874W        W72490  16.049  31.134  14.284
  875W        W72491  40.901   7.349  12.700
  876W        W72492  15.314   5.767   0.433
  877W        W72493  35.385   8.566   4.550
  878W        W72494  36.302  20.758  12.962
  879W        W72495   1.888   4.994   1.474
  880W        W72496  20.095  14.176   0.181
  881W        W72497  18.087  19.933   3.247
  882W        W72498  43.284   4.506  12.071
  883W        W72499   8.357   7.843   4.406
  884W        W72500  16.984  12.288   0.360
  885W        W72501  21.996  42.385   0.786
  886W        W72502  34.864  13.393  13.106
  887W        W72503  15.192  43.037  13.458
  888W        W72504   0.562  10.372  11.862
  889W        W72505  39.105  27.230  13.151
  890W        W72506  31.670  29.184   4.663
  891W        W72507  11.352  33.853  11.976
  892W        W72508   9.364  41.349  10.728
  893W        W72509  21.986   1.887   4.790
  894W        W72510   2.460  14.969   1.287
  895W        W72511   6.744   6.855   3.680
  896W        W72512  16.119  36.757  12.165
  897W        W72513   6.899  35.042   4.118
  898W        W72514   8.291  30.825  11.677
  899W        W72515  34.602   5.891  12.516
  900W        W72516  34.563  29.104   2.667
  901W        W72517  20.018   5.239   2.821
  902W        W72518  34.968  21.193  14.103
  903W        W72519  15.617  25.519  12.857
  904W        W72520  37.835  23.180   1.896
  905W        W72521  21.169  30.211   1.228
  906W        W72522   8.950  16.682   2.118
  907W        W72523   3.763  33.630   3.228
  908W        W72524  14.387  36.147   2.375
  909W        W72525   5.209  12.619   4.176
  910W        W72526  13.715  20.488  12.110
  911W        W72527  43.556  37.037   1.806
  912W        W72528  18.766  21.272  12.716
  913W        W72529  27.333  23.783  13.945
  914W        W72530   9.715   1.088  12.899
  915W        W72531   4.734  41.873   0.354
  916W        W72532  26.634  23.976   1.382
  917W        W72533   9.518  15.809  10.177
  918W        W72534  15.341  43.539   4.573
  919W        W72535  32.877  13.783  12.965
  920W        W72536  17.777  11.853  13.451
  921W        W72537  25.726  32.329  13.117
  922W        W72538  32.356  12.593   4.036
  923W        W72539  19.626  43.045  13.565
  924W        W72540  40.496  19.804  12.878
  925W        W72541  31.613  23.860   0.705
  926W        W72542  39.938  37.951   2.551
  927W        W72543  20.024  11.855   1.427
  928W        W72544  31.445  16.371   4.502
  929W        W72545  23.733  15.666  10.738
  930W        W72546  40.947  14.260  14.224
  931W        W72547   5.209   3.420  12.310
  932W        W72548  25.060  24.231  13.430
  933W        W72549  11.451  43.655  13.609
  934W        W72550  17.314  41.423   0.087
  935W        W72551   0.464   3.827  13.398
  936W        W72552  40.289   9.705  11.956
  937W        W72553  34.754  19.147   0.249
  938W        W72554   9.869  41.288  12.108
  939W        W72555  22.556  43.780   1.706
  940W        W72556  32.124  10.797  11.621
  941W        W72557  27.516  33.571   1.686
  942W        W72558  13.611   4.054   4.484
  943W        W72559  18.830  37.822  13.471
  944W        W72560  27.467  31.467  11.547
  945W        W72561  39.794   8.877  11.959
  946W        W72562  20.814  26.747  13.015
  947W        W72563  11.556  28.723   1.698
  948W        W72564  12.272  32.291  13.969
  949W        W72565  13.202  17.800   1.383
  950W        W72566  15.796  20.086   5.203
  951W        W72567  33.562  16.290   2.203
  952W        W72568  43.374  24.899  14.505
  953W        W72569   4.510  40.840   1.691
  954W        W72570  34.691  26.702   1.257
  955W        W72571  28.252  10.867   4.025
  956W        W72572  34.606  29.559  12.512
  957W        W72573  38.087  16.135  12.094
  958W        W72574  43.408  24.248   4.317
  959W        W72575   2.380  17.598  11.200
  960W        W72576  19.539  43.381  13.143
  961W        W72577  32.338  31.771  12.823
  962W        W72578  10.248  20.014  11.937
  963W        W72579   4.492  25.009   2.823
  964W        W72580   2.428  15.125   2.798
  965W        W72581  32.394  17.326   4.510
  966W        W72582  24.180  40.441  13.596
  967W        W72583  36.511  28.710  13.513
  968W        W72584   2.525  33.539  12.154
  969W        W72585  40.748   6.714   1.372
  970W        W72586  33.954  22.492  14.813
  971W        W72587  21.024  23.030   3.404
  972W        W72588  39.784  22.318   2.545
  973W        W72589   7.947  29.532  13.443
  974W        W72590  40.329  42.057  14.569
  975W        W72591  23.229  43.071   0.019
  976W        W72592  26.470   5.747  10.607
  977W        W72593  14.728  40.478   3.371
  978W        W72594   4.034  32.895  13.560
  979W        W72595  15.202  15.897   4.945
  980W        W72596   8.205  43.733  11.548
  981W        W72597   4.781  22.213  10.897
  982W        W72598  19.641  10.630   2.646
  983W        W72599  16.298  20.099  13.079
  984W        W72600   0.025  33.935   3.572
  985W        W72601  35.971   8.239   0.906
  986W        W72602  19.048  29.540  14.744
  987W        W72603  13.809  40.757  13.814
  988W        W72604  19.322  16.606   0.355
  989W        W72605  15.082  18.990  12.376
  990W        W72606  14.817  39.153  10.792
  991W        W72607  40.385   1.513  11.666
  992W        W72608  16.150  23.992  10.703
  993W        W72609  17.785  17.315   2.155
  994W        W72610  44.014  14.239  10.913
  995W        W72611  25.092  13.296  14.174
  996W        W72612  44.751   9.171  13.425
  997W        W72613   8.805  11.376   4.097
  998W        W72614  37.039   9.289  12.049
  999W        W72615  18.688  33.545   5.180
 1000W        W72616   9.444  32.552   2.916
 1001W        W72617  19.300  13.673   0.936
 1002W        W72618  35.501  18.537  13.541
 1003W        W72619   1.142  33.904   3.956
 1004W        W72620  16.688   4.390  10.675
 1005W        W72621   1.320   9.761   1.386
 1006W        W72622  14.683  12.257   4.154
 1007W        W72623  41.015  15.258   2.261
 1008W        W72624  10.544  38.556   2.706
 1009W        W72625  44.284   7.760   4.587
 1010W        W72626   2.715   4.858  11.616
 1011W        W72627  12.561   5.816  12.021
 1012W        W72628  26.706  21.305  11.804
 1013W        W72629  28.017  21.733  14.402
 1014W        W72630  32.320  22.189   0.159
 1015W        W72631   4.080  43.372  12.094
 1016W        W72632  24.752   6.404   2.138
 1017W        W72633   2.349  14.573  13.490
 1018W        W72634  24.984  24.073   1.833
 1019W        W72635  13.770  33.372   0.211
 1020W        W72636  22.997  29.074  12.825
 1021W        W72637  30.387  18.076  13.640
 1022W        W72638  12.323  15.820   2.273
 1023W        W72639  30.439   6.897   4.347
 1024W        W72640  31.220  44.980  10.316
 1025W        W72641  36.078  29.828  11.129
 1026W        W72642  36.946  38.028   1.259
 1027W        W72643   4.653  25.144   2.320
 1028W        W72644  21.484  21.626   0.070
 1029W        W72645  30.484   7.667   2.143
 1030W        W72646  13.391  24.426   0.652
 1031W        W72647  31.133  13.361  14.034
 1032W        W72648  38.018  29.755  10.757
 1033W        W72649  18.306  24.245   0.009
 1034W        W72650   0.857  11.087   3.401
 1035W        W72651  28.896   7.799   2.967
 1036W        W72652  33.334  24.387  11.631
 1037W        W72653   5.978   4.997  12.506
 1038W        W72654  42.993  30.118   1.611
 1039W        W72655  10.188  22.713  14.328
 1040W        W72656  23.236  12.283  10.616
 1041W        W72657  31.819   5.842  13.003
 1042W        W72658   7.781   2.296   4.503
 1043W        W72659  13.709  42.518   0.767
 1044W        W72660   7.919  17.106   5.076
 1045W        W72661  19.685  24.975  12.686
 1046W        W72662   9.057  15.583   3.143
 1047W        W72663  41.474   4.309   4.891
 1048W        W72664  19.666   2.817   0.399
 1049W        W72665  28.886  37.570  12.068
 1050W        W72666   1.243  39.613   3.248
 1051W        W72667  18.210  28.992   0.773
 1052W        W72668  40.981  42.872  12.908
 1053W        W72669  36.112   9.381  10.603
 1054W        W72670  25.918  11.394   4.158
 1055W        W72671  34.162  24.638   1.911
 1056W        W72672  39.405  25.172   0.650
 1057W        W72673  11.538  17.594  11.253
 1058W        W72674  32.089  38.606   1.862
 1059W        W72675  36.933  24.128   4.598
 1060W        W72676   5.475  33.594  14.778
 1061W        W72677  41.466  43.985   4.186
 1062W        W72678  42.086  14.894  12.567
 1063W        W72679   6.814  41.237   3.738
 1064W        W72680  11.476  41.948  12.942
 1065W        W72681  40.173  27.052  11.566
 1066W        W72682  16.654  38.641   2.227
 1067W        W72683  35.266  24.720   0.727
 1068W        W72684   4.818  15.683  13.479
 1069W        W72685  43.749  29.601   2.199
 1070W        W72686  36.394  41.494  11.431
 1071W        W72687  38.560   7.433  13.505
 1072W        W72688   9.815  26.879   2.985
 1073W        W72689  26.080  27.424  14.613
 1074W        W72690  23.209  36.552   1.261
 1075W        W72691  28.673  38.510  13.015
 1076W        W72692  36.520  27.149  13.961
 1077W        W72693  23.366  28.057   4.136
 1078W        W72694   2.632  23.431  11.031
 1079W        W72695   3.283  41.580   4.540
 1080W        W72696  43.350  25.397   1.335
 1081W        W72697  24.548  36.353  12.385
 1082W        W72698  15.444  27.796  14.444
 1083W        W72699  43.355  42.511   4.787
 1084W        W72700  25.067  23.462  10.780
 1085W        W72701   8.449  31.919  11.637
 1086W        W72702  43.440  37.698   4.946
 1087W        W72703  17.045  15.240  12.005
 1088W        W72704  25.038   1.476   2.716
 1089W        W72705  25.590  30.950  12.960
 1090W        W72706  18.772  39.987  11.851
 1091W        W72707   2.934  39.278  11.668
 1092W        W72708  21.069  10.826  14.857
 1093W        W72709  22.150  32.308   4.612
 1094W        W72710  35.651  44.165   2.072
 1095W        W72711  35.872   1.779   2.354
 1096W        W72712  12.674  20.076   3.736
 1097W        W72713  32.119  20.893  10.609
 1098W        W72714  33.905  44.180   3.468
 1099W        W72715   6.997  32.810  14.363
 1100W        W72716  44.783  36.783  11.030
 1101W        W72717   7.639  26.763  13.992
 1102W        W72718  15.330  16.566  13.859
 1103W        W72719  32.378   7.348   0.577
 1104W        W72720  15.285  41.602  13.510
 1105W        W72721  24.011  31.083  11.346
 1106W        W72722  31.682  42.663  14.342
 1107W        W72723  10.909  19.517   0.789
 1108W        W72724   6.388  27.180  12.442
 1109W        W72725  16.779   8.073   4.051
 1110W        W72726   6.191  25.482   1.101
 1111W        W72727  41.727   1.390  12.165
 1112W        W72728   5.114  25.489   3.745
 1113W        W72729   6.364  17.358   0.907
 1114W        W72730  32.960  19.297   2.426
 1115W        W72731  22.048  31.749   2.966
 1116W        W72732   3.406  34.656  11.466
 1117W        W72733   9.386  24.523   4.026
 1118W        W72734  37.248  31.626   3.885
 1119W        W72735  21.610   1.474   0.236
 1120W        W72736   7.488  34.364  13.890
 1121W        W72737  44.407  33.331  12.870
 1122W        W72738  16.116  29.478  14.339
 1123W        W72739   7.289  11.152  10.697
 1124W        W72740  34.188  32.587   2.662
 1125W        W72741  13.684   4.235   1.850
 1126W        W72742  38.387   9.723   3.865
 1127W        W72743  44.548   8.833  12.013
 1128W        W72744   7.738   7.566  13.858
 1129W        W72745   2.757  40.063   4.121
 1130W        W72746   0.424  43.973   2.604
 1131W        W72747   0.967  26.184  10.594
 1132W        W72748  26.931  32.523  10.882
 1133W        W72749  10.843  17.826  11.514
 1134W        W72750  21.254   0.410  11.298
 1135W        W72751  40.056  11.816  13.072
 1136W        W72752  35.617  35.318   4.532
 1137W        W72753  44.795  40.914  12.034
 1138W        W72754  40.139  28.274  14.775
 1139W        W72755  41.955  12.391  10.545
 1140W        W72756  29.791  15.779   0.341
 1141W        W72757   8.269  29.061  11.407
 1142W        W72758   4.279  42.856   1.247
 1143W        W72759  11.082   8.425   0.960
 1144W        W72760   7.900  27.076  11.079
 1145W        W72761   3.605  14.966  13.553
 1146W        W72762  16.788  37.298  12.423
 1147W        W72763  23.999  13.126   4.183
 1148W        W72764  21.015  37.987   2.281
 1149W        W72765  22.777  38.509   1.321
 1150W        W72766  35.909  28.613  11.572
 1151W        W72767  21.940  39.008   2.780
 1152W        W72768   0.939  12.853  14.838
 1153W        W72769  43.394   0.857  10.310
 1154W        W72770  43.739  12.269  13.889
 1155W        W72771  23.694  15.523  14.928
 1156W        W72772   3.372  17.938  14.973
 1157W        W72773   1.420   7.683   4.579
 1158W        W72774  40.347  35.059  12.009
 1159W        W72775  17.105  14.211  14.420
 1160W        W72776  18.886  14.334  11.584
 1161W        W72777  43.789   9.243   4.775
 1162W        W72778  32.525  42.789   3.455
 1163W        W72779   2.726  36.097  13.799
 1164W        W72780  18.726  43.210  12.528
 1165W        W72781  43.046   2.869  14.382
 1166W        W72782  14.820   9.953  13.443
 1167W        W72783  31.066  28.600   0.733
 1168W        W72784  16.165  18.297  11.014
 1169W        W72785   4.783  33.673  11.697
 1170W        W72786  12.257  21.261  13.058
 1171W        W72787   6.939  39.501   2.758
 1172W        W72788  39.567  28.114  13.089
 1173W        W72789  41.554  11.246  12.108
 1174W        W72790  13.874  20.749  11.157
 1175W        W72791   3.843   4.238   1.687
 1176W        W72792  19.095  43.928   4.103
 1177W        W72793  13.456  10.482   3.059
 1178W        W72794  31.117   5.886  10.489
 1179W        W72795  24.054  16.102   2.436
 1180W        W72796  18.387  15.153  11.457
 1181W        W72797  22.796  34.441   4.205
 1182W        W72798  37.408  13.607   4.167
 1183W        W72799  39.410  14.405  14.317
 1184W        W72800   7.152  33.412   4.656
 1185W        W72801   4.727  12.757   4.640
 1186W        W72802  40.429  18.903  13.953
 1187W        W72803  14.348  37.083  11.081
 1188W        W72804  38.089   1.207  12.126
 1189W        W72805  30.538  27.587  10.248
 1190W        W72806  32.145   7.973   3.582
 1191W        W72807  37.379   1.272   0.322
 1192W        W72808  40.958   3.298   4.586
 1193W        W72809   3.681   8.149   4.344
 1194W        W72810  30.608  34.435   1.743
 1195W        W72811  30.142  18.557  13.003
 1196W        W72812  31.002   4.495   4.593
 1197W        W72813   5.319  12.511   0.733
 1198W        W72814  34.224   6.563  11.962
 1199W        W72815  25.171  29.580   3.710
 1200W        W72816   7.184  31.107   1.923
 1201W        W72817  41.402   3.243  14.028
 1202W        W72818  17.319  24.071   2.894
 1203W        W72819  22.763  40.254   0.256
 1204W        W72820  31.059   0.026   1.336
 1205W        W72821  23.689  23.124   4.496
 1206W        W72822   4.914  32.102  13.609
 1207W        W72823  29.774  21.729   2.770
 1208W        W72824  27.151  21.323  12.059
 1209W        W72825  29.785  30.762   2.837
 1210W        W72826  22.027  16.725  14.288
 1211W        W72827   8.206  36.825  13.426
 1212W        W72828  10.725  42.955   2.662
 1213W        W72829  13.346  13.274   2.663
 1214W        W72830  33.394  44.481   0.921
 1215W        W72831  36.760  44.746   0.792
 1216W        W72832   4.212  24.117  13.454
 1217W        W72833  35.931   0.660   3.549
 1218W        W72834  22.188  33.507  13.112
 1219W        W72835  21.026   4.623  12.873
 1220W        W72836  11.792  35.170   0.393
 1221W        W72837   3.141  44.997  10.635
 1222W        W72838  24.195   2.885  11.852
 1223W        W72839   3.986  29.580  11.301
 1224W        W72840  40.503   1.410   2.864
 1225W        W72841   6.993   1.313   4.717
 1226W        W72842  27.934  31.990   0.676
 1227W        W72843   2.702  31.029  11.970
 1228W        W72844  21.904   2.195  12.491
 1229W        W72845   6.368   7.953   3.880
 1230W        W72846  26.955  28.048  12.149
 1231W        W72847  20.534  25.132  11.520
 1232W        W72848  39.978  11.083   2.911
 1233W        W72849  18.596   7.194  14.314
 1234W        W72850  40.560  23.018   4.063
 1235W        W72851  34.886  36.441  10.739
 1236W        W72852  33.131  25.135  10.995
 1237W        W72853   6.321  29.421  13.961
 1238W        W72854  19.802  14.158   3.798
 1239W        W72855  18.272  38.225  14.953
 1240W        W72856  28.108  16.380  12.446
 1241W        W72857   3.383  18.802   1.314
 1242W        W72858   2.921   7.922   0.619
 1243W        W72859  26.622  16.688   3.095
 1244W        W72860  38.080  11.265   1.173
 1245W        W72861   9.511  23.436  13.617
 1246W        W72862   3.407  34.284  11.794
 1247W        W72863  38.965  39.298   1.863
 1248W        W72864  33.678   5.534  11.136
 1249W        W72865  26.138  41.416  11.905
 1250W        W72866  38.935  29.736   2.239
 1251W        W72867  26.749  13.042   0.367
 1252W        W72868  22.287   9.194  11.091
 1253W        W72869  34.916  35.807  13.739
 1254W        W72870  20.982  31.582   1.450
 1255W        W72871  31.911  12.339  10.616
 1256W        W72872  41.971  38.573   4.597
 1257W        W72873  39.420  15.097  14.722
 1258W        W72874  20.431  19.165   0.714
 1259W        W72875  15.626  34.363  10.594
 1260W        W72876  39.759  13.279  11.046
 1261W        W72877  31.667  43.284   3.808
 1262W        W72878  33.292  30.202   2.768
 1263W        W72879   4.545  17.270   3.282
 1264W        W72880  24.367  38.619  13.873
 1265W        W72881  44.970   4.193   0.853
 1266W        W72882  16.937   5.272  11.636
 1267W        W72883  28.060   2.172  13.528
 1268W        W72884   4.680  43.709   3.790
 1269W        W72885  12.026  32.646   4.142
 1270W        W72886   0.452  16.644   4.051
 1271W        W72887  24.711   7.312   1.751
 1272W        W72888  22.072  15.736  13.818
 1273W        W72889   2.720  29.596   3.232
 1274W        W72890  36.754  12.681  11.668
 1275W        W72891  43.497   4.840   3.696
 1276W        W72892  28.593  23.617   2.518
 1277W        W72893  37.407  29.685  13.850
 1278W        W72894   2.398  40.358  14.866
 1279W        W72895  41.375  28.683  10.727
 1280W        W72896  38.911   9.719   3.128
 1281W        W72897  42.811  19.912  13.047
 1282W        W72898  37.581   5.225   0.372
 1283W        W72899  20.640   0.195  10.683
 1284W        W72900  31.112  21.306   1.248
 1285W        W72901  24.068  13.120  14.932
 1286W        W72902  38.840  10.113  13.531
 1287W        W72903  14.830  21.206  14.875
 1288W        W72904  21.551  38.666  13.867
 1289W        W72905  31.684  28.816  14.914
 1290W        W72906  14.191  41.757   0.878
 1291W        W72907  26.128   9.287   5.140
 1292W        W72908  28.615  32.937  12.912
 1293W        W72909  43.532  24.053   2.689
 1294W        W72910  10.551  37.091  10.949
 1295W        W72911   6.707  26.663  13.398
 1296W        W72912   2.706  33.036  12.003
 1297W        W72913  31.156  41.449  13.976
 1298W        W72914   9.843  35.110  12.982
 1299W        W72915  21.476  28.060   2.164
 1300W        W72916  20.793  43.494   1.341
 1301W        W72917  15.075   6.442  10.588
 1302W        W72918  25.078   7.444  12.003
 1303W        W72919  33.686  10.179   9.969
 1304W        W72920  25.649  10.335  11.536
 1305W        W72921  36.104  40.945   0.938
 1306W        W72922  33.585   6.878  12.921
 1307W        W72923  42.346   5.812  13.320
 1308W        W72924  25.262  12.184   4.100
 1309W        W72925  16.661  23.747  14.928
 1310W        W72926  31.620  21.080  10.647
 1311W        W72927  16.475  21.048  11.541
 1312W        W72928  42.565  33.431   2.308
 1313W        W72929   5.522  44.967   2.318
 1314W        W72930  17.960  33.507   0.385
 1315W        W72931  19.804  24.522   2.207
 1316W        W72932  17.562  27.870   2.785
 1317W        W72933  18.725  10.192   3.995
 1318W        W72934  37.793   9.084  12.434
 1319W        W72935  34.333   0.596   2.825
 1320W        W72936  34.797  11.876   4.946
 1321W        W72937  26.416  14.263   1.719
 1322W        W72938  13.307  44.435   0.881
 1323W        W72939  37.911  18.592  11.124
 1324W        W72940  21.472  40.858   3.167
 1325W        W72941  22.634  44.398   5.118
 1326W        W72942  27.053  43.565   4.348
 1327W        W72943  17.274  30.011   0.726
 1328W        W72944  27.992   1.789   3.126
 1329W        W72945  21.935  18.575  13.939
 1330W        W72946  37.412  11.793   3.813
 1331W        W72947  25.067  41.743  13.895
 1332W        W72948  29.646  42.832   3.173
 1333W        W72949  19.774  37.020   4.157
 1334W        W72950   7.469  27.138   1.870
 1335W        W72951  37.468  35.356  12.065
 1336W        W72952  16.962  32.505   4.624
 1337W        W72953   2.863  43.572  12.625
 1338W        W72954  37.433  38.806   4.437
 1339W        W72955  27.262  11.361   0.245
 1340W        W72956  39.481  22.185  13.419
 1341W        W72957  23.626  33.560   0.459
 1342W        W72958  27.973   3.864   0.326
 1343W        W72959   6.865  28.454   1.127
 1344W        W72960  18.089  38.320   3.259
 1345W        W72961  23.496  42.684  11.589
 1346W        W72962  17.059   0.741   4.501
 1347W        W72963   1.494  44.921  12.878
 1348W        W72964  44.908  11.880   2.269
 1349W        W72965  10.409  13.406  14.140
 1350W        W72966  40.564  29.750   0.307
 1351W        W72967  41.375   8.896   4.223
 1352W        W72968  32.461  21.123   0.755
 1353W        W72969   5.650  36.421   2.970
 1354W        W72970  14.045  23.483   4.751
 1355W        W72971  17.224  18.733   2.704
 1356W        W72972  15.230  34.027   1.895
 1357W        W72973  23.764  43.296   2.736
 1358W        W72974  18.894  38.801   3.337
 1359W        W72975  19.579   0.726  10.593
 1360W        W72976  31.102  18.137   0.827
 1361W        W72977  33.390  25.060  13.429
 1362W        W72978  12.203  42.897  14.778
 1363W        W72979  38.381   5.625   0.916
 1364W        W72980  16.664  14.149   2.928
 1365W        W72981  15.320  35.295   1.907
 1366W        W72982   5.564   4.211  13.521
 1367W        W72983  14.986  25.690   0.164
 1368W        W72984  21.915   6.933   2.294
 1369W        W72985   6.969  16.286  12.493
 1370W        W72986  23.486   8.279  14.323
 1371W        W72987  39.865   3.187  13.578
 1372W        W72988  37.880  30.861   1.889
 1373W        W72989   0.823  23.620  12.326
 1374W        W72990  37.307  42.789   0.810
 1375W        W72991  36.012  23.524  14.409
 1376W        W72992  10.217   2.831   4.407
 1377W        W72993  28.290   1.517   3.440
 1378W        W72994  29.319  23.166   2.662
 1379W        W72995  29.579  31.042   0.813
 1380W        W72996   4.688  29.062  12.391
 1381W        W72997  15.588   2.253   5.043
 1382W        W72998  26.896  22.715   1.143
 1383W        W72999  39.407  40.609  14.798
 1384W        W73000   5.352  37.358   0.382
 1385W        W73001  10.719  13.335  11.678
 1386W        W73002  35.303  41.983   4.668
 1387W        W73003  16.962   4.765   4.595
 1388W        W73004  27.090   9.770   3.217
 1389W        W73005   3.968   0.339   1.960
 1390W        W73006  13.742  18.705  12.620
 1391W        W73007  35.375  21.557   0.826
 1392W        W73008  31.893  18.299  10.824
 1393W        W73009  31.080   5.138  11.107
 1394W        W73010  16.828  28.476  12.653
 1395W        W73011  15.560   0.897  12.445
 1396W        W73012   3.834  28.458  13.340
 1397W        W73013  40.889  44.947  12.856
 1398W        W73014  13.256   8.735  10.319
 1399W        W73015   3.929  15.658   3.161
 1400W        W73016   4.734  14.663   4.153
 1401W        W73017   5.293  31.838  12.402
 1402W        W73018  14.851   3.959   2.703
 1403W        W73019  44.993  23.979   1.235
 1404W        W73020   9.771  15.368   3.819
 1405W        W73021  29.132  38.946  12.584
 1406W        W73022  25.582  23.049  12.069
 1407W        W73023  19.855   8.055   2.237
 1408W        W73024  40.192  16.575   2.250
 1409W        W73025  19.478  42.854   9.723
 1410W        W73026  41.722  37.367   4.156
 1411W        W73027  30.513  17.948  10.490
 1412W        W73028  22.097  21.064  10.667
 1413W        W73029  32.542  42.273  12.044
 1414W        W73030   6.277  41.308  13.852
 1415W        W73031  30.446   8.944  12.604
 1416W        W73032  20.664  35.408  13.897
 1417W        W73033   6.201  32.229   2.644
 1418W        W73034  43.126  18.215  14.529
 1419W        W73035  13.306   6.655   0.510
 1420W        W73036  41.756  13.852  14.917
 1421W        W73037  40.501  38.779  13.512
 1422W        W73038  27.136   0.451  10.740
 1423W        W73039  14.254  23.095   0.442
 1424W        W73040  10.315   9.309   1.440
 1425W        W73041  20.715  12.153   4.138
 1426W        W73042   0.773  24.299  11.039
 1427W        W73043  15.840   3.234   2.919
 1428W        W73044  13.237  21.074  13.641
 1429W        W73045  41.968   3.138  11.076
 1430W        W73046  35.129  38.911   4.517
 1431W        W73047  13.186  21.056   9.791
 1432W        W73048  28.059  41.531   1.341
 1433W        W73049  22.352  42.910  12.393
 1434W        W73050  38.801  38.010   4.433
 1435W        W73051  13.413  33.303  12.517
 1436W        W73052  26.624  14.199  14.102
 1437W        W73053   7.155  35.441  12.480
 1438W        W73054  38.458   1.274  10.645
 1439W        W73055  44.903  42.286   1.411
 1440W        W73056   5.496  18.681  12.456
 1441W        W73057  29.940  40.862   1.945
 1442W        W73058  12.289  29.171   2.444
 1443W        W73059  40.184   2.629   0.029
 1444W        W73060  16.694  41.276  11.635
 1445W        W73061  40.357  44.858  13.247
 1446W        W73062  24.016  41.021   3.351
 1447W        W73063  13.629  37.777   2.035
 1448W        W73064  40.616  12.171   2.282
 1449W        W73065  15.673  14.113   2.006
 1450W        W73066  24.597  22.735  14.421
 1451W        W73067  17.071  19.813  12.157
 1452W        W73068  26.601  38.781   4.262
 1453W        W73069  42.117  35.417  11.932
 1454W        W73070  19.723  30.063  11.575
 1455W        W73071  16.285  35.434   4.615
 1456W        W73072  37.402   1.421  12.902
 1457W        W73073  36.052  31.877  12.119
 1458W        W73074  38.309  36.345   3.050
 1459W        W73075   7.219  21.820   0.568
 1460W        W73076  38.561  21.311  12.877
 1461W        W73077  36.241  35.474  12.084
 1462W        W73078  30.289  30.674   4.366
 1463W        W73079  10.592   8.109  12.099
 1464W        W73080   6.729  32.444  11.278
 1465W        W73081   6.768  31.474  14.811
 1466W        W73082  26.474  26.163   3.918
 1467W        W73083  34.163  25.995  11.594
 1468W        W73084  41.396  37.005   3.887
 1469W        W73085  35.205  19.254   1.669
 1470W        W73086  16.336  38.026  12.870
 1471W        W73087  40.229   6.746   1.381
 1472W        W73088  41.366   8.781  14.255
 1473W        W73089   8.711  40.339   3.270
 1474W        W73090  30.663  27.112   1.477
 1475W        W73091  24.444  32.037  11.521
 1476W        W73092  40.810   9.329   0.775
 1477W        W73093  13.124   8.845   1.868
 1478W        W73094  17.275  32.846  11.971
 1479W        W73095  10.382  38.276  14.044
 1480W        W73096   0.746  16.880  11.570
 1481W        W73097  35.920  25.960  13.966
 1482W        W73098  34.422  14.666   3.288
 1483W        W73099  39.868  40.097   4.154
 1484W        W73100  34.959  36.534   2.190
 1485W        W73101  22.629   6.860   4.582
 1486W        W73102  37.576  15.135  13.972
 1487W        W73103  34.036   3.603   3.700
 1488W        W73104  43.990  14.875  13.953
 1489W        W73105  18.045  26.960  14.014
 1490W        W73106  34.351  40.434   3.248
 1491W        W73107  20.695   4.678   1.377
 1492W        W73108  40.330  35.161  10.763
 1493W        W73109  15.051  26.076   4.026
 1494W        W73110  31.232  44.515   0.550
 1495W        W73111  30.525  22.357   3.663
 1496W        W73112  14.587  41.443   0.747
 1497W        W73113  40.895   9.434  10.505
 1498W        W73114  22.547   8.582  12.051
 1499W        W73115  35.533  24.997  11.946
 1500W        W73116  30.063  24.559  10.647
 1501W        W73117   0.264   6.798   2.699
 1502W        W73118  32.095  32.375   0.686
 1503W        W73119  44.995  37.707   9.774
 1504W        W73120  13.197   2.233   4.116
 1505W        W73121  20.176  36.185  14.016
 1506W        W73122  30.091  29.945  10.222
 1507W        W73123  20.991  16.656  12.166
 1508W        W73124  39.424  27.945   1.282
 1509W        W73125  14.074  40.428   2.360
 1510W        W73126  23.340   7.288  14.900
 1511W        W73127  44.473  42.487  11.516
 1512W        W73128  18.771  15.181   4.568
 1513W        W73129   0.785   7.718   1.330
 1514W        W73130  32.953  44.706   4.094
 1515W        W73131  43.245  10.343   4.880
 1516W        W73132  17.543  23.298   1.908
 1517W        W73133  24.633  36.192   3.272
 1518W        W73134  28.064  28.202  12.463
 1519W        W73135  32.055  34.788  13.304
 1520W        W73136  20.470  39.298   0.773
 1521W        W73137  18.168  28.537   0.465
 1522W        W73138   7.396   5.620  13.293
 1523W        W73139  41.631  15.732   0.898
 1524W        W73140  36.353   4.347  12.465
 1525W        W73141  19.273   5.362   1.474
 1526W        W73142   3.632  44.535  13.507
 1527W        W73143  34.708   1.900   0.781
 1528W        W73144  34.602  11.532   3.240
 1529W        W73145  41.585   5.220  11.533
 1530W        W73146   7.782  29.711  10.772
 1531W        W73147  19.247  32.532  12.466
 1532W        W73148  31.476  28.667   0.395
 1533W        W73149  22.658  41.966  14.893
 1534W        W73150  35.003  16.555   1.354
 1535W        W73151  25.246  24.158   0.956
 1536W        W73152  22.445  25.096  13.509
 1537W        W73153   4.970  44.018  12.908
 1538W        W73154  29.098  27.194   3.263
 1539W        W73155  21.437  36.888   2.239
 1540W        W73156   3.652  10.815  13.639
 1541W        W73157   4.434  42.582  11.119
 1542W        W73158   6.485   5.525  11.117
 1543W        W73159  24.615   9.281   2.690
 1544W        W73160  40.326   7.319  14.998
 1545W        W73161  22.034  16.529   1.318
 1546W        W73162  22.496  29.348   2.301
 1547W        W73163   3.358  33.896   0.522
 1548W        W73164  10.809  13.181   2.236
 1549W        W73165   7.733  34.559   4.349
 1550W        W73166  22.726  35.168   0.082
 1551W        W73167   9.915   6.908  14.746
 1552W        W73168  26.191  25.988  10.643
 1553W        W73169   8.133  22.182   1.703
 1554W        W73170  29.469  38.909   0.000
 1555W        W73171   0.051   3.188  10.530
 1556W        W73172  32.267  43.703   5.031
 1557W        W73173  22.177  19.093  12.500
 1558W        W73174   4.594   6.172   2.723
 1559W        W73175   0.392  33.453  11.142
 1560W        W73176   5.402   8.909   2.693
 1561W        W73177  15.546  41.459   1.220
 1562W        W73178  23.539  25.653  12.090
 1563W        W73179  40.761  21.088   3.643
 1564W        W73180  34.873   1.952   4.125
 1565W        W73181  25.000   8.957   2.839
 1566W        W73182  37.892   0.287  14.982
 1567W        W73183   3.214  13.812  12.455
 1568W        W73184  24.729  17.688   0.226
 1569W        W73185  32.558  36.205  12.669
 1570W        W73186  18.971   8.195  11.931
 1571W        W73187  37.749  32.301   4.045
 1572W        W73188  29.551   0.932   2.817
 1573W        W73189   4.468  41.728   2.900
 1574W        W73190   3.414  38.019  14.281
 1575W        W73191  27.075  31.513   1.511
 1576W        W73192   2.389  25.128  13.013
 1577W        W73193  34.954  44.487   5.005
 1578W        W73194   3.525  35.176   2.820
 1579W        W73195  15.642  33.136  13.439
 1580W        W73196  41.025   0.227  13.776
 1581W        W73197  17.504  34.626  11.102
 1582W        W73198  44.755  21.168   4.470
 1583W        W73199  18.032  17.728  11.357
 1584W        W73200  31.441  26.944  12.950
 1585W        W73201  11.185  11.779   2.687
 1586W        W73202  42.933   7.540  12.052
 1587W        W73203   0.255  25.854   4.537
 1588W        W73204  33.667  17.135   2.767
 1589W        W73205  19.560  15.341   2.400
 1590W        W73206   0.758  12.095  10.708
 1591W        W73207   3.870   7.988   1.773
 1592W        W73208   4.480  15.141  11.548
 1593W        W73209   0.009  24.443  14.999
 1594W        W73210  29.964  13.842   0.757
 1595W        W73211  31.234   4.864   4.101
 1596W        W73212  14.872  26.612   2.054
 1597W        W73213  13.970   8.105  11.128
 1598W        W73214  10.237  30.695   0.897
 1599W        W73215  16.647  19.807  14.335
 1600W        W73216  18.321  42.454  14.784
 1601W        W73217  32.566  12.299   2.284
 1602W        W73218  19.281  24.758  13.028
 1603W        W73219  20.004  26.101  13.862
 1604W        W73220  24.401  40.273  14.039
 1605W        W73221   3.732  28.752   0.435
 1606W        W73222  30.936  26.734   0.839
 1607W        W73223  34.426  38.029   0.174
 1608W        W73224  37.086  31.246   3.332
 1609W        W73225  41.888  11.305  10.657
 1610W        W73226  14.254   2.677   1.766
 1611W        W73227  40.728  10.554   2.273
 1612W        W73228   6.333  34.126   1.389
 1613W        W73229  29.935  12.233   0.716
 1614W        W73230  38.436   0.290  13.811
 1615W        W73231   8.625  28.881   0.757
 1616W        W73232  32.706   3.801  12.162
 1617W        W73233  22.237  13.764   4.533
 1618W        W73234  21.022   4.298  11.881
 1619W        W73235  20.703  16.083  13.394
 1620W        W73236  27.627  39.301   2.791
 1621W        W73237  29.234   1.435  12.049
 1622W        W73238  37.280  20.045  12.879
 1623W        W73239  40.436  18.266   2.751
 1624W        W73240  10.094  38.246   0.457
 1625W        W73241   9.228  43.929   0.529
 1626W        W73242  17.979  39.568  14.964
 1627W        W73243   9.861  22.303   0.194
 1628W        W73244  19.020  35.578   2.386
 1629W        W73245  15.077  18.249   4.557
 1630W        W73246  25.142  34.111   2.757
 1631W        W73247  19.755  21.573   0.601
 1632W        W73248  12.698  30.658   4.626
 1633W        W73249   7.862   8.294  12.314
 1634W        W73250  15.771  21.005  13.968
 1635W        W73251  22.951  26.586   4.566
 1636W        W73252  41.721   6.718   3.264
 1637W        W73253  10.057  25.730  14.301
 1638W        W73254  13.313  20.228  13.226
 1639W        W73255  10.409  40.856   1.923
 1640W        W73256  33.044  40.091   0.882
 1641W        W73257   2.541  34.463   1.337
 1642W        W73258  37.893   0.005   0.418
 1643W        W73259  23.533  17.211  12.203
 1644W        W73260  12.631   9.420   2.273
 1645W        W73261   0.141  26.576   4.557
 1646W        W73262  41.131   0.648  12.269
 1647W        W73263  23.814  11.002  12.144
 1648W        W73264  17.011  12.621  10.998
 1649W        W73265  20.142  26.524   4.519
 1650W        W73266  29.107  11.690   1.913
 1651W        W73267  26.486  43.262  12.052
 1652W        W73268  33.622  18.193  14.609
 1653W        W73269  10.571  32.089   1.443
 1654W        W73270   1.932  42.885   4.246
 1655W        W73271  41.606  24.516   2.178
 1656W        W73272  30.620  36.437  10.658
 1657W        W73273   2.773  42.241   3.114
 1658W        W73274  12.119  29.485  14.972
 1659W        W73275  30.397   5.094  13.828
 1660W        W73276  42.573  26.085   3.999
 1661W        W73277   6.597  16.224   2.630
 1662W        W73278  35.345  23.718   2.330
 1663W        W73279   4.748  18.808   3.634
 1664W        W73280  30.043  37.659   0.966
 1665W        W73281  39.978  10.050   4.727
 1666W        W73282  14.353   2.454  12.813
 1667W        W73283  27.601  28.973   3.856
 1668W        W73284  26.118  10.455   2.474
 1669W        W73285  11.666  24.750  10.290
 1670W        W73286  38.921  43.511   1.358
 1671W        W73287  33.688  37.024  14.327
 1672W        W73288   4.551  11.303   3.229
 1673W        W73289   0.046  30.546   0.893
 1674W        W73290  16.809  42.499   0.804
 1675W        W73291  38.535  31.055   4.959
 1676W        W73292   6.825  10.917  13.036
 1677W        W73293  36.387  25.448   1.834
 1678W        W73294   1.358  16.275   2.205
 1679W        W73295  36.065  22.878   3.128
 1680W        W73296  18.850   6.200  14.445
 1681W        W73297   5.671  38.516  13.925
 1682W        W73298   9.321  28.651  14.464
 1683W        W73299  22.733  37.857  12.926
 1684W        W73300  12.775  43.695  13.455
 1685W        W73301  18.320  24.438   4.109
 1686W        W73302  42.663  28.741  13.217
 1687W        W73303  15.301  23.196  12.505
 1688W        W73304   6.464  43.321  12.441
 1689W        W73305  37.100  32.987  11.573
 1690W        W73306  38.704  32.006   4.101
 1691W        W73307  12.873   4.880   3.769
 1692W        W73308  12.617   3.419   4.333
 1693W        W73309  17.460  19.155   1.917
 1694W        W73310  42.264  44.109   4.509
 1695W        W73311  11.229  44.264   4.128
 1696W        W73312  22.939  27.576  12.064
 1697W        W73313  39.357  16.062  13.580
 1698W        W73314   0.396  37.194   1.640
 1699W        W73315   4.649   3.230  11.186
 1700W        W73316  37.669  31.743  13.973
 1701W        W73317  14.287   8.464  12.071
 1702W        W73318   6.443  22.962   2.713
 1703W        W73319   1.243   3.273   4.704
 1704W        W73320  13.236  26.095  14.879
 1705W        W73321  10.765  31.041  14.587
 1706W        W73322  22.553  41.043   3.263
 1707W        W73323   7.643  20.902   4.179
 1708W        W73324  33.981   7.167  13.612
 1709W        W73325  31.098  30.603   1.810
 1710W        W73326   5.092  44.221  10.164
 1711W        W73327  33.102  30.970   2.392
 1712W        W73328   4.787  25.429   4.133
 1713W        W73329  20.255  43.214   0.000
 1714W        W73330  43.793   2.388   4.692
 1715W        W73331  19.809  34.575  10.689
 1716W        W73332  37.752  27.135  14.410
 1717W        W73333  36.660  29.327   3.256
 1718W        W73334  13.109  27.552   3.207
 1719W        W73335  29.898  34.934  10.779
 1720W        W73336  10.831  42.606   0.529
 1721W        W73337  11.669   0.847   0.835
 1722W        W73338  17.660  41.017  14.676
 1723W        W73339  33.603   4.120   3.282
 1724W        W73340  44.503  38.843  12.067
 1725W        W73341  33.940  39.024   0.432
 1726W        W73342   7.699  11.877  12.520
 1727W        W73343   3.870  25.757   3.120
 1728W        W73344  16.691  15.187   4.089
 1729W        W73345  23.992   4.151  14.986
 1730W        W73346  29.053  20.016  14.708
 1731W        W73347  24.085   5.232  13.782
 1732W        W73348  20.805  29.979  12.009
 1733W        W73349   7.439  22.565  13.528
 1734W        W73350  41.535   3.636   3.026
 1735W        W73351   3.326  44.907   1.331
 1736W        W73352  40.057   8.302  13.052
 1737W        W73353  30.706   7.489  14.911
 1738W        W73354   7.921  11.202   4.874
 1739W        W73355  29.997   5.412  14.058
 1740W        W73356   3.247  40.591   1.804
 1741W        W73357  14.666   1.974   3.001
 1742W        W73358  29.637  28.421   5.122
 1743W        W73359  33.697  36.872   0.397
 1744W        W73360  11.186  20.092  13.901
 1745W        W73361  26.262  14.469   4.099
 1746W        W73362  39.345  18.724  12.072
 1747W        W73363   3.764  32.690   3.143
 1748W        W73364  15.520  19.427   2.098
 1749W        W73365   9.224  41.617  12.564
 1750W        W73366   4.796  43.176   5.510
 1751W        W73367   1.635  19.307  12.955
 1752W        W73368  44.809  30.613  14.511
 1753W        W73369  37.609  14.554  13.512
 1754W        W73370   2.020  36.267   3.717
 1755W        W73371  24.159   1.084  14.177
 1756W        W73372  44.253   2.166  11.098
 1757W        W73373  11.677   3.348  14.908
 1758W        W73374  42.408   1.672   0.332
 1759W        W73375  10.738  16.740   0.336
 1760W        W73376  29.122  26.114  14.430
 1761W        W73377  32.202  14.489   0.069
 1762W        W73378   0.966  30.976  13.489
 1763W        W73379  28.144  19.144   3.928
 1764W        W73380  15.361  28.391  10.527
 1765W        W73381  32.452  38.083   4.432
 1766W        W73382  35.587  13.703  14.423
 1767W        W73383  15.139  29.488  13.860
 1768W        W73384  27.993  43.291   2.476
 1769W        W73385  44.281  39.197  12.939
 1770W        W73386  26.972  20.008  11.642
 1771W        W73387   2.218  24.570  14.241
 1772W        W73388  16.647  11.898   4.836
 1773W        W73389  10.175  34.162   1.246
 1774W        W73390  42.312  10.786   1.169
 1775W        W73391  14.804   7.819  14.028
 1776W        W73392   0.221  43.046   4.024
 1777W        W73393  13.979  41.752   1.885
 1778W        W73394  43.683  21.092   1.759
 1779W        W73395  35.682  40.947   2.872
 1780W        W73396  21.021  36.540  12.871
 1781W        W73397  33.041  20.710  13.078
 1782W        W73398  42.566  28.046   1.267
 1783W        W73399  37.094   1.059  12.111
 1784W        W73400  23.197  30.604   1.490
 1785W        W73401  22.362  28.439   4.110
 1786W        W73402  36.081   7.848   0.346
 1787W        W73403   3.950  15.098  11.476
 1788W        W73404  43.058  21.804   0.369
 1789W        W73405   5.301  29.696  12.312
 1790W        W73406  40.045  25.630  12.037
 1791W        W73407  11.589  17.699  14.408
 1792W        W73408  10.837  18.796  11.475
 1793W        W73409  33.422  13.693   1.012
 1794W        W73410  21.635  10.727   1.572
 1795W        W73411  17.527  28.709  14.407
 1796W        W73412  31.913  22.127   4.888
 1797W        W73413  21.837   7.834  13.962
 1798W        W73414  16.616  24.580   3.538
 1799W        W73415  18.476   8.788  13.921
 1800W        W73416  22.006   6.833   0.826
 1801W        W73417  15.126  33.549  13.173
 1802W        W73418  32.555  32.629  13.190
 1803W        W73419  13.164   4.440   0.711
 1804W        W73420  10.127  11.530  11.523
 1805W        W73421  37.846   8.256   2.943
 1806W        W73422  26.486  28.167   1.167
 1807W        W73423   0.409  21.449  10.927
 1808W        W73424  39.051  19.627   5.269
 1809W        W73425  43.766  29.034  13.013
 1810W        W73426  19.978   3.919  14.927
 1811W        W73427  41.141   1.264   0.406
 1812W        W73428  38.906  33.876  11.200
 1813W        W73429  41.719  38.631   3.730
 1814W        W73430   9.225   3.917   2.953
 1815W        W73431  22.311   2.450  12.972
 1816W        W73432  40.487  44.431  14.835
 1817W        W73433   4.316  26.174   1.397
 1818W        W73434  25.551  23.150  14.562
 1819W        W73435  34.887  27.919  10.603
 1820W        W73436   8.495  26.062  11.498
 1821W        W73437  34.549  13.519  14.528
 1822W        W73438   7.835  13.044   1.375
 1823W        W73439  18.290   3.521   4.663
 1824W        W73440  35.374  10.085   2.661
 1825W        W73441  30.229   5.220   0.960
 1826W        W73442   6.478  15.993  11.172
 1827W        W73443   5.874  14.922  14.386
 1828W        W73444  18.226   3.261  14.767
 1829W        W73445  14.961  33.492   4.187
 1830W        W73446  24.018   2.669   4.336
 1831W        W73447  10.352   9.300  13.399
 1832W        W73448  30.873  15.116   1.137
 1833W        W73449  10.796  44.190   3.694
 1834W        W73450  20.434   6.690  14.084
 1835W        W73451  30.813  17.748   4.634
 1836W        W73452  39.643   0.797  13.323
 1837W        W73453  10.582  31.966   0.017
 1838W        W73454   5.653  39.990  11.252
 1839W        W73455  12.583  36.308  13.727
 1840W        W73456  27.553  17.565   4.619
 1841W        W73457  17.755  42.907  11.507
 1842W        W73458  13.270   4.412   4.585
 1843W        W73459   8.678  11.466   2.890
 1844W        W73460  28.020  38.835   0.777
 1845W        W73461  14.438  35.941   3.735
 1846W        W73462  33.350  28.363  14.232
 1847W        W73463   2.958  27.000  10.958
 1848W        W73464   2.518  43.775   0.198
 1849W        W73465  27.963  34.875  14.191
 1850W        W73466   1.722  36.596   4.010
 1851W        W73467  13.770  44.243  11.032
 1852W        W73468   3.254  25.771   1.329
 1853W        W73469   9.671  28.874  12.868
 1854W        W73470   3.247   2.936   4.627
 1855W        W73471  43.845  44.283  14.583
 1856W        W73472  27.225  30.700  13.569
 1857W        W73473  10.466  14.829   3.167
 1858W        W73474  15.267  25.469  11.581
 1859W        W73475  33.622   3.456  12.503
 1860W        W73476  25.701  33.316  14.137
 1861W        W73477   3.474  27.598  13.435
 1862W        W73478  13.820  31.657  11.020
 1863W        W73479  34.156  18.498  10.764
 1864W        W73480  31.949  38.276   2.269
 1865W        W73481  11.134   2.423   2.103
 1866W        W73482  28.433  34.914   3.174
 1867W        W73483  17.570   2.222   0.223
 1868W        W73484  36.576   1.210  11.525
 1869W        W73485  22.303  15.659  14.276
 1870W        W73486  31.960  15.385  14.826
 1871W        W73487  21.569  20.580  13.161
 1872W        W73488  24.420  31.112  14.441
 1873W        W73489  35.968  26.414   3.089
 1874W        W73490  24.249  44.883   4.003
 1875W        W73491  27.674  15.281   4.696
 1876W        W73492  27.268   0.477  12.049
 1877W        W73493   5.580  22.483   4.562
 1878W        W73494   2.780  42.751   3.163
 1879W        W73495  37.306  11.370  10.657
 1880W        W73496   9.771  11.419  10.864
 1881W        W73497  10.832  36.355   1.351
 1882W        W73498  33.821   8.764   3.907
 1883W        W73499   9.400  27.913   3.541
 1884W        W73500  26.394   3.339   4.203
 1885W        W73501   7.193  11.116   2.190
 1886W        W73502  34.880  11.770   1.258
 1887W        W73503   0.204   4.864   0.995
 1888W        W73504  33.478  18.610  13.364
 1889W        W73505  10.342  14.748  10.466
 1890W        W73506  36.158  40.792  10.310
 1891W        W73507  35.755  11.336   1.176
 1892W        W73508  25.006  36.640   0.698
 1893W        W73509   0.306   9.413   0.925
 1894W        W73510  30.105  14.343   0.578
 1895W        W73511  37.961   1.726   0.879
 1896W        W73512   5.973  11.411   4.212
 1897W        W73513  37.947  18.747  14.991
 1898W        W73514  14.750  32.556  11.906
 1899W        W73515   5.191  14.660   3.919
 1900W        W73516   7.658  39.103  11.202
 1901W        W73517  27.011  21.157   0.422
 1902W        W73518  35.953   7.661   2.575
 1903W        W73519  28.547  38.841  14.871
 1904W        W73520  17.294  19.837  11.707
 1905W        W73521   5.602   2.691   4.666
 1906W        W73522  43.436  34.085  13.351
 1907W        W73523  33.219  37.105  11.130
 1908W        W73524  42.481  42.514   4.164
 1909W        W73525  17.786  10.740  11.886
 1910W        W73526  17.321  44.570   4.574
 1911W        W73527  23.414  30.062  10.769
 1912W        W73528  31.224  41.084   3.368
 1913W        W73529  40.474  28.655  10.361
 1914W        W73530  25.505   9.077  14.409
 1915W        W73531  44.761  11.168   3.804
 1916W        W73532  23.615  12.226  14.729
 1917W        W73533  17.115  30.461   3.159
 1918W        W73534  29.700  21.656   1.010
 1919W        W73535  24.267   0.940   2.134
 1920W        W73536  18.700   3.342   2.417
 1921W        W73537   9.961   2.627   3.262
 1922W        W73538  36.476  23.597  11.700
 1923W        W73539  44.874  31.323   1.460
 1924W        W73540   1.812  41.326   1.631
 1925W        W73541  28.092  17.583  13.125
 1926W        W73542  39.587  32.688  10.657
 1927W        W73543  30.034  23.338   4.241
 1928W        W73544  14.940  36.904  14.837
 1929W        W73545  27.709  39.235   0.894
 1930W        W73546  17.734  27.551   4.074
 1931W        W73547  36.346  29.416   2.390
 1932W        W73548  27.682  13.608   9.627
 1933W        W73549  10.634  37.413  12.118
 1934W        W73550  32.442  31.142   4.632
 1935W        W73551  44.996  36.120   2.807
 1936W        W73552  23.659  18.065  11.341
 1937W        W73553  32.384  42.489  13.876
 1938W        W73554  15.178  31.662   0.134
 1939W        W73555  40.099   8.250  11.629
 1940W        W73556   0.885  17.339  10.734
 1941W        W73557  14.152  16.420  12.596
 1942W        W73558   9.684  24.498   4.882
 1943W        W73559  28.157  36.701   2.317
 1944W        W73560   3.927  19.147  10.818
 1945W        W73561  38.412  21.810  12.465
 1946W        W73562  36.365  31.670   1.690
 1947W        W73563   3.328  18.166  12.308
 1948W        W73564  11.793  35.269   3.398
 1949W        W73565   4.237  12.472  10.178
 1950W        W73566  43.932  28.675  10.630
 1951W        W73567  35.057  39.978  14.926
 1952W        W73568  12.218  32.608  12.074
 1953W        W73569  35.922  13.796   1.488
 1954W        W73570   7.923   7.651   4.628
 1955W        W73571  35.910   1.295   1.601
 1956W        W73572  28.876   1.340  12.420
 1957W        W73573  22.824  21.104  13.161
 1958W        W73574  32.991   5.383  11.806
 1959W        W73575  12.796  33.844  10.663
 1960W        W73576  30.154   0.646   0.466
 1961W        W73577  39.534  16.097   3.871
 1962W        W73578  14.846  22.699   2.606
 1963W        W73579  24.658  25.550  13.567
 1964W        W73580  32.208  14.131  11.136
 1965W        W73581  42.187   3.184   0.651
 1966W        W73582  15.842  31.116   2.450
 1967W        W73583  11.290  21.985   4.808
 1968W        W73584   6.695   4.965  10.471
 1969W        W73585   3.333  31.986  12.428
 1970W        W73586  42.018   0.545   1.761
 1971W        W73587  34.380   5.344  12.466
 1972W        W73588  36.562  30.590  14.915
 1973W        W73589  29.962  43.262   3.198
 1974W        W73590  44.542  34.915  10.651
 1975W        W73591  23.662   0.192  12.376
 1976W        W73592  32.732  43.972   5.691
 1977W        W73593  24.627  20.456  14.460
 1978W        W73594  33.590   6.963   2.598
 1979W        W73595  34.506  14.880   1.698
 1980W        W73596  14.820   2.770   0.275
 1981W        W73597   7.297  34.501   4.631
 1982W        W73598  41.667  11.384   1.118
 1983W        W73599  36.004  36.969   2.929
 1984W        W73600  23.248  25.744  12.515
 1985W        W73601  43.338  13.727  13.985
 1986W        W73602  43.767  25.729   3.211
 1987W        W73603  17.024   8.676  12.808
 1988W        W73604  34.050  38.129  12.999
 1989W        W73605  29.141   9.358   2.068
 1990W        W73606  26.928  11.371  14.845
 1991W        W73607  37.836  12.586   4.682
 1992W        W73608  13.099  35.662   2.816
 1993W        W73609  17.186  10.907  12.477
 1994W        W73610  33.415   4.884  14.752
 1995W        W73611  19.566  16.921  14.328
 1996W        W73612  11.392  28.936  11.238
 1997W        W73613  24.614  36.862  12.482
 1998W        W73614   5.887  23.250   0.961
 1999W        W73615   7.921  35.842  14.907
 2000W        W73616   1.248   0.439  11.695
 2001W        W73617  43.446  41.741  10.873
 2002W        W73618  39.540  22.313   3.130
 2003W        W73619  12.760  24.748  11.577
 2004W        W73620  42.583   8.207  11.423
 2005W        W73621  38.446  34.389   2.755
 2006W        W73622  18.253  24.791   3.240
 2007W        W73623  15.544  44.166  13.712
 2008W        W73624  31.081  42.618  11.141
 2009W        W73625  29.993  14.178  12.869
 2010W        W73626  21.141   2.996  10.563
 2011W        W73627  18.141  27.188   3.109
 2012W        W73628   0.924  43.354   0.675
 2013W        W73629  31.576  18.843   2.824
 2014W        W73630  10.095  30.438  10.278
 2015W        W73631  39.210  28.999  10.219
 2016W        W73632  41.572   1.380   3.820
 2017W        W73633  33.479  40.788  13.007
 2018W        W73634  15.338  10.934  10.944
 2019W        W73635  38.896  23.636  12.234
 2020W        W73636  23.192  39.758   2.352
 2021W        W73637  31.836   6.904  13.350
 2022W        W73638  43.905  21.058  14.128
 2023W        W73639  10.429   5.373  11.674
 2024W        W73640  26.548  44.005  11.586
 2025W        W73641  30.560   1.316  11.122
 2026W        W73642   6.895  29.119   4.828
 2027W        W73643  19.117   8.752  11.735
 2028W        W73644  21.966  42.513   3.941
 2029W        W73645  39.045   7.041  10.392
 2030W        W73646   6.083   4.228  13.534
 2031W        W73647  10.873  41.957  11.547
 2032W        W73648   5.890  39.971  11.688
 2033W        W73649  15.611  21.741  14.534
 2034W        W73650   1.286  34.394   3.918
 2035W        W73651  40.241  41.347   0.319
 2036W        W73652  19.326  27.932  14.648
 2037W        W73653  20.131  25.743   1.816
 2038W        W73654  44.418   5.560   0.857
 2039W        W73655  44.956  31.145  13.406
 2040W        W73656  44.297  37.266  11.567
 2041W        W73657  19.101  30.509   2.624
 2042W        W73658  26.526  42.552   4.886
 2043W        W73659  29.851  34.575   2.109
 2044W        W73660  37.522   5.583  10.011
 2045W        W73661   1.862  28.207  14.037
 2046W        W73662   9.630  29.659   4.181
 2047W        W73663  26.563  43.551   1.353
 2048W        W73664  37.650  19.136   1.408
 2049W        W73665  26.098  22.074  11.530
 2050W        W73666  24.763  35.137   4.111
 2051W        W73667   4.537  24.026   4.126
 2052W        W73668  30.988  16.622  10.657
 2053W        W73669  29.287   2.671  10.793
 2054W        W73670  36.925  41.916   3.345
 2055W        W73671  44.364  35.574  10.069
 2056W        W73672  32.910  32.476   2.298
 2057W        W73673   7.449  38.447  14.306
 2058W        W73674  22.005   0.066  12.939
 2059W        W73675  43.762  31.353  13.604
 2060W        W73676  41.084  35.082   1.253
 2061W        W73677  35.222   0.265  11.894
 2062W        W73678   3.126  18.083   1.881
 2063W        W73679  13.266  26.569  13.467
 2064W        W73680  29.490   9.279  13.896
 2065W        W73681  29.901  41.552   0.761
 2066W        W73682   7.362  38.027   0.017
 2067W        W73683   2.230  15.995   5.026
 2068W        W73684  27.108  29.973  14.253
 2069W        W73685  12.616  18.207   0.187
 2070W        W73686  14.839  40.566   0.925
 2071W        W73687   7.286  26.339   4.207
 2072W        W73688  33.531  22.829  13.254
 2073W        W73689  15.743  40.191   3.349
 2074W        W73690  21.217   8.792  14.363
 2075W        W73691   6.938  32.050   3.893
 2076W        W73692  36.181  22.506   0.497
 2077W        W73693  40.063  17.564   1.308
 2078W        W73694  29.096  20.771   2.057
 2079W        W73695   8.414  34.459   1.033
 2080W        W73696  38.387  13.022   4.998
 2081W        W73697  34.961   4.258  12.152
 2082W        W73698  26.942  39.286  13.124
 2083W        W73699  27.403   6.940   1.358
 2084W        W73700  29.156  17.797  13.943
 2085W        W73701  34.772   8.165   4.347
 2086W        W73702  32.041  35.459  11.475
 2087W        W73703  28.305  44.719  14.940
 2088W        W73704  11.182   6.715   1.771
 2089W        W73705  16.241  33.381  13.501
 2090W        W73706  17.951  38.850  11.817
 2091W        W73707  15.198  32.212   1.807
 2092W        W73708   9.902  17.643  13.949
 2093W        W73709  21.176  16.751   4.061
 2094W        W73710  17.887  17.580   9.515
 2095W        W73711  38.851  11.672   4.237
 2096W        W73712  40.441  11.117  11.464
 2097W        W73713   4.645   9.364   1.198
 2098W        W73714  34.473  40.276   3.709
 2099W        W73715  16.072  22.447   2.304
 2100W        W73716  23.968  25.578   4.639
 2101W        W73717  11.077  10.356  12.611
 2102W        W73718  31.328   4.441  13.683
 2103W        W73719  26.977  29.425   9.865
 2104W        W73720  15.416  33.646   1.030
 2105W        W73721  18.757  29.650  11.714
 2106W        W73722   5.647  29.298   1.715
 2107W        W73723  16.584  38.426  10.650
 2108W        W73724  33.479  25.167  10.632
 2109W        W73725   7.330  25.058   3.730
 2110W        W73726   9.970   6.981   4.103
 2111W        W73727  20.956  14.018  12.531
 2112W        W73728  31.986  23.652   2.340
 2113W        W73729   8.458  37.853   4.060
 2114W        W73730  15.083  37.566   2.112
 2115W        W73731  18.862  25.685   4.143
 2116W        W73732  17.757  21.349   0.978
 2117W        W73733  30.148   5.629   2.236
 2118W        W73734  22.479  39.825   0.287
 2119W        W73735   1.765  30.102   3.473
 2120W        W73736  42.264  27.523  12.924
 2121W        W73737  25.007  11.032   1.153
 2122W        W73738  12.250  44.695  12.227
 2123W        W73739  31.637  13.528   2.226
 2124W        W73740   3.083  24.277   1.313
 2125W        W73741  42.942  12.762   3.104
 2126W        W73742   7.337  40.755   2.673
 2127W        W73743  41.366  13.109  11.611
 2128W        W73744   9.898   2.665  12.351
 2129W        W73745  42.559  42.095  10.645
 2130W        W73746  42.493  15.615   1.160
 2131W        W73747   7.417   8.733   4.444
 2132W        W73748  15.006  31.862  12.037
 2133W        W73749   1.438   8.704  11.876
 2134W        W73750  21.229  31.050   2.196
 2135W        W73751  11.847   7.328   0.749
 2136W        W73752   8.845  14.505  11.982
 2137W        W73753  22.743  44.602  10.654
 2138W        W73754  14.815   7.678   4.033
 2139W        W73755  28.425   0.187   4.330
 2140W        W73756   7.906   7.584  10.788
 2141W        W73757  21.662   2.553  14.094
 2142W        W73758  44.547  31.583  10.934
 2143W        W73759  37.966  33.365   3.278
 2144W        W73760  18.700  38.067   2.822
 2145W        W73761  39.497  31.615  11.934
 2146W        W73762  14.568  43.420   2.525
 2147W        W73763   6.808  36.428  12.023
 2148W        W73764   5.695   4.858  14.429
 2149W        W73765  24.240  26.006   3.844
 2150W        W73766  14.532  21.559  10.710
 2151W        W73767   3.713  38.186   3.849
 2152W        W73768  43.759  31.120  14.555
 2153W        W73769  21.096  16.838  10.714
 2154W        W73770  40.944  33.437  13.594
 2155W        W73771  38.701  31.632  13.896
 2156W        W73772  24.058   9.514   4.193
 2157W        W73773   9.378  13.961   3.596
 2158W        W73774  29.596  42.722  13.714
 2159W        W73775  34.716  41.571  10.552
 2160W        W73776  26.084  24.395  10.947
 2161W        W73777   2.009  18.292  14.381
 2162W        W73778  28.172   9.854  12.556
 2163W        W73779  26.414  26.992   0.806
 2164W        W73780  11.975  36.436  11.826
 2165W        W73781   4.168  32.338   3.245
 2166W        W73782  33.417  29.045  11.167
 2167W        W73783  34.810  31.353  14.458
 2168W        W73784   3.382  10.853  14.559
 2169W        W73785  30.480  34.467  13.853
 2170W        W73786  10.669   4.199  12.432
 2171W        W73787  23.592  42.182  12.150
 2172W        W73788   6.611  20.518  12.763
 2173W        W73789   3.910  22.912   5.069
 2174W        W73790  27.533  29.013  14.350
 2175W        W73791   0.942  29.171  13.979
 2176W        W73792  38.470  39.703  10.495
 2177W        W73793  34.125  34.212   1.710
 2178W        W73794  44.235  35.320   0.384
 2179W        W73795  16.935  17.615  12.030
 2180W        W73796  31.203   1.478  12.486
 2181W        W73797  35.334  25.849  11.096
 2182W        W73798   5.282  20.713  12.618
 2183W        W73799  16.359  20.766   0.719
 2184W        W73800   9.363   7.922  11.586
 2185W        W73801   8.302  41.854  12.934
 2186W        W73802  29.354   4.745  13.082
 2187W        W73803  33.362   0.762   2.665
 2188W        W73804   7.691   3.466   3.641
 2189W        W73805  22.344  34.844  11.324
 2190W        W73806  17.117  22.760  14.056
 2191W        W73807  25.585  44.575  14.843
 2192W        W73808  17.007  35.491  10.788
 2193W        W73809  32.119  18.058   2.322
 2194W        W73810   4.847  39.228  10.249
 2195W        W73811  36.061  32.138  14.896
 2196W        W73812  10.785  21.646  10.942
 2197W        W73813  32.270  38.311   1.020
 2198W        W73814  22.589   7.311  13.327
 2199W        W73815   4.820  34.472   4.653
 2200W        W73816  22.084  15.766  12.803
 2201W        W73817  38.397  43.673  12.932
 2202W        W73818  37.572  27.625  14.394
 2203W        W73819  18.554  42.295   4.604
 2204W        W73820  26.529   2.375   2.424
 2205W        W73821  29.672  28.537  13.734
 2206W        W73822   9.591  43.996   3.387
 2207W        W73823   4.673  17.003   2.356
 2208W        W73824  17.069  23.653   3.136
 2209W        W73825   4.818  13.729  10.699
 2210W        W73826   1.830  35.497   2.439
 2211W        W73827  18.599  16.840   0.371
 2212W        W73828  22.609  22.082  11.022
 2213W        W73829  24.776  26.214   1.987
 2214W        W73830  11.768  32.422   2.213
 2215W        W73831  23.618   9.398  12.061
 2216W        W73832  18.576  34.448   0.900
 2217W        W73833  16.261  13.511   1.391
 2218W        W73834  39.466  18.302   4.193
 2219W        W73835  17.465  11.838   3.710
 2220W        W73836  24.473  29.081  14.573
 2221W        W73837  11.262  18.518  11.574
 2222W        W73838  19.998  31.926   4.576
 2223W        W73839  42.450  21.894   4.137
 2224W        W73840  21.160  30.456   4.465
 2225W        W73841  31.986  17.004  14.825
 2226W        W73842  36.822  18.685  12.926
 2227W        W73843   5.366  31.065  10.647
 2228W        W73844  36.576  37.199   4.979
 2229W        W73845  34.110  13.868  10.945
 2230W        W73846   4.155  43.071  12.500
 2231W        W73847  43.686   7.299  13.071
 2232W        W73848  13.693  23.593   1.956
 2233W        W73849   8.643  13.042  12.427
 2234W        W73850  24.511  41.146  13.493
 2235W        W73851  17.166  43.473  11.194
 2236W        W73852  38.538   0.728  10.654
 2237W        W73853  32.557  40.064   2.189
 2238W        W73854  38.910  41.579   0.371
 2239W        W73855  43.872  41.018   4.460
 2240W        W73856  18.352  18.081  13.488
 2241W        W73857   5.831  12.389   0.807
 2242W        W73858   0.717  32.761   2.910
 2243W        W73859  33.474  25.997   3.229
 2244W        W73860   9.225  34.955  11.185
 2245W        W73861   3.235   7.873   2.698
 2246W        W73862   2.573  21.686   2.965
 2247W        W73863  11.883  43.870  12.793
 2248W        W73864  14.150  32.301   2.709
 2249W        W73865   6.442   5.345  12.947
 2250W        W73866  21.849   5.746   0.740
 2251W        W73867   9.336  31.665   0.962
 2252W        W73868  12.169  23.540  14.497
 2253W        W73869  40.785   8.088   4.062
 2254W        W73870  18.334  41.325  13.672
 2255W        W73871   0.955  10.721   4.417
 2256W        W73872  42.823  44.520  12.178
 2257W        W73873  26.382   6.814  14.095
 2258W        W73874  44.104  18.220  11.289
 2259W        W73875  25.315  40.456  11.477
 2260W        W73876  30.136  23.020   2.053
 2261W        W73877  39.813  31.508  12.863
 2262W        W73878  26.755  15.835  12.048
 2263W        W73879  25.765  31.462   1.275
 2264W        W73880  37.395   7.306   2.428
 2265W        W73881  32.774  36.151   3.560
 2266W        W73882   8.872  21.736  12.490
 2267W        W73883  44.232  42.165   2.117
 2268W        W73884   1.647  34.402   1.799
 2269W        W73885  14.047  34.982  14.078
 2270W        W73886  38.957  19.202   3.865
 2271W        W73887  11.137  16.202   1.728
 2272W        W73888   8.391  24.444  11.165
 2273W        W73889  23.693  37.032   3.804
 2274W        W73890  41.322  29.580   1.316
 2275W        W73891  12.167  10.709   0.503
 2276W        W73892  11.461  43.205   4.245
 2277W        W73893   5.485  20.167  10.887
 2278W        W73894  28.736  36.565   3.368
 2279W        W73895  20.817   1.208  12.987
 2280W        W73896  36.512  12.752   0.771
 2281W        W73897  35.434   3.666   3.279
 2282W        W73898  19.857  39.527  12.392
 2283W        W73899  17.107  41.039  14.782
 2284W        W73900  40.850  15.577   1.901
 2285W        W73901  15.686  23.160   2.114
 2286W        W73902   5.063  40.030  12.925
 2287W        W73903  39.430  22.525   4.609
 2288W        W73904  32.174   5.445   4.555
 2289W        W73905  33.890  34.144  14.805
 2290W        W73906   9.120  24.501   3.594
 2291W        W73907   1.090  31.887  11.744
 2292W        W73908  38.948  10.700   2.676
 2293W        W73909   2.624  35.461   2.676
 2294W        W73910   9.798  31.881  14.391
 2295W        W73911  41.984   6.397   4.065
 2296W        W73912   3.922  31.323   4.161
 2297W        W73913   6.875  41.348   0.088
 2298W        W73914  27.012  29.805   3.568
 2299W        W73915   7.892  12.736  10.204
 2300W        W73916  36.636  19.375   5.058
 2301W        W73917   7.187   1.708   3.347
 2302W        W73918   6.003  24.299   4.744
 2303W        W73919   7.784   9.825   1.168
 2304W        W73920  35.077  22.057   1.481
 2305W        W73921  13.793  15.249   4.312
 2306W        W73922  34.043  22.248  13.021
 2307W        W73923   7.415   0.859   4.378
 2308W        W73924  14.865  17.648   3.962
 2309W        W73925  10.802  13.253  14.448
 2310W        W73926  25.175  29.425  14.399
 2311W        W73927   6.827  23.017   5.020
 2312W        W73928  41.222  26.485   4.591
 2313W        W73929  36.924  30.705   1.392
 2314W        W73930  21.569  41.427   2.870
 2315W        W73931  41.902  43.512   1.962
 2316W        W73932  31.454   3.793   1.663
 2317W        W73933  20.142  38.807   1.397
 2318W        W73934  19.343  18.715   4.309
 2319W        W73935  36.349  26.134   0.936
 2320W        W73936   5.208   6.301  14.228
 2321W        W73937  43.882   5.561  11.597
 2322W        W73938  33.055  35.795   4.186
 2323W        W73939  34.801  24.378   2.883
 2324W        W73940   5.639  44.320  14.377
 2325W        W73941  41.837   6.125   0.403
 2326W        W73942  18.816  19.559  11.157
 2327W        W73943   0.008   6.604  14.285
 2328W        W73944  19.452  42.038  10.707
 2329W        W73945  13.115  40.244   1.314
 2330W        W73946  36.539   8.863   3.325
 2331W        W73947  30.003  18.186   4.556
 2332W        W73948  24.016   0.739  13.316
 2333W        W73949  19.185  37.646   3.765
 2334W        W73950  17.453  17.527   3.304
 2335W        W73951  21.625  35.649   1.520
 2336W        W73952  24.369  28.886  13.488
 2337W        W73953  10.274  14.145  12.034
 2338W        W73954  21.215  13.569  11.666
 2339W        W73955  12.671   3.429  14.818
 2340W        W73956  42.341  24.460  10.739
 2341W        W73957  26.560  28.292   0.656
 2342W        W73958  31.996  16.660   2.352
 2343W        W73959  37.422   0.510   3.637
 2344W        W73960   1.340  15.439  12.957
 2345W        W73961  38.140  39.253  13.490
 2346W        W73962  35.420  43.545  14.820
 2347W        W73963  26.639  19.699   3.268
 2348W        W73964  44.368  40.066  10.688
 2349W        W73965  17.780  43.732  14.800
 2350W        W73966  16.035  11.753  14.787
 2351W        W73967  36.823  11.434   4.087
 2352W        W73968  17.228  36.072   0.164
 2353W        W73969   0.222  27.378  11.186
 2354W        W73970  29.372   9.125   0.746
 2355W        W73971  25.804  12.158   1.785
 2356W        W73972  26.717  22.428  10.705
 2357W        W73973   7.143  18.237   2.130
 2358W        W73974  10.776   6.372   2.328
 2359W        W73975  42.514  31.891   1.083
 2360W        W73976   9.125  13.775  14.295
 2361W        W73977   6.134  12.244   3.610
 2362W        W73978  16.574  29.333  14.617
 2363W        W73979  24.516  41.087  11.217
 2364W        W73980   7.235  26.606  11.664
 2365W        W73981  13.669   0.791   4.555
 2366W        W73982  15.928  36.044   2.230
 2367W        W73983  41.926  16.288   2.067
 2368W        W73984  32.147   2.749   1.714
 2369W        W73985  19.532  17.844   0.977
 2370W        W73986   9.305  16.369   1.257
 2371W        W73987   6.203  36.607  10.573
 2372W        W73988   5.335  28.532  14.947
 2373W        W73989  23.303  39.505   2.804
 2374W        W73990   4.131  33.667  13.079
 2375W        W73991  36.937  36.330  11.736
 2376W        W73992  16.216  20.770   3.562
 2377W        W73993  11.196   6.119   3.808
 2378W        W73994  15.884  38.938   1.634
 2379W        W73995  25.125   5.391   1.739
 2380W        W73996  42.364  18.981   3.498
 2381W        W73997   5.107   3.313  11.004
 2382W        W73998  22.995  24.148  10.746
 2383W        W73999  11.469   0.375  11.573
 2384W        W74000  18.139  31.128   4.451
 2385W        W74001  38.543  37.226   4.947
 2386W        W74002  23.033  12.549  13.541
 2387W        W74003  25.951  32.066  14.810
 2388W        W74004  12.535   0.880   2.793
 2389W        W74005   2.414  24.569   3.891
 2390W        W74006  11.471  35.861   2.144
 2391W        W74007  28.623  43.938   4.685
 2392W        W74008  36.469  39.520  12.377
 2393W        W74009  18.605  40.295  14.090
 2394W        W74010  16.199  11.886   4.228
 2395W        W74011  12.419  42.952  12.463
 2396W        W74012  37.782   0.236   0.879
 2397W        W74013   0.293  40.083   0.749
 2398W        W74014  43.708   9.842  11.116
 2399W        W74015   2.375  40.957  13.088
 2400W        W74016  38.015  39.396  10.541
 2401W        W74017  22.546  12.900   0.940
 2402W        W74018  38.368  36.970  13.766
 2403W        W74019  10.853  40.022   3.587
 2404W        W74020  37.985  27.532  12.647
 2405W        W74021  30.199  43.980  10.724
 2406W        W74022  25.371  43.880   0.344
 2407W        W74023  17.226  37.880  12.134
 2408W        W74024  18.179  32.524  13.338
 2409W        W74025  44.045  39.353   0.528
 2410W        W74026  37.095  33.878  13.849
 2411W        W74027  18.540   6.659  14.325
 2412W        W74028  34.688  23.897   2.208
 2413W        W74029  41.562  13.535   2.431
 2414W        W74030  14.268   7.819   1.895
 2415W        W74031  14.684  18.667   3.330
 2416W        W74032  35.178   7.469   4.994
 2417W        W74033  26.188  30.476  11.996
 2418W        W74034  23.987   6.255   4.555
 2419W        W74035  26.590  12.695  13.729
 2420W        W74036  41.251   6.810   4.571
 2421W        W74037  33.679  12.397  14.045
 2422W        W74038   2.941  32.538  11.206
 2423W        W74039  14.619  12.676  12.087
 2424W        W74040  40.894  43.459   2.295
 2425W        W74041  15.151  10.678  13.775
 2426W        W74042   5.206  39.234  11.453
 2427W        W74043  40.816  32.976   0.903
 2428W        W74044  11.828  29.623   3.842
 2429W        W74045  10.335  25.019   0.521
 2430W        W74046   3.337  35.474   4.216
 2431W        W74047   4.307  32.507  12.105
 2432W        W74048   8.717   4.678  14.643
 2433W        W74049  32.156  20.667   0.784
 2434W        W74050  33.551  36.314  10.659
 2435W        W74051  20.105   1.997  13.061
 2436W        W74052   3.127  18.738  14.091
 2437W        W74053  28.536  16.074  12.479
 2438W        W74054  42.908  16.192   4.473
 2439W        W74055   2.907  10.405   3.715
 2440W        W74056  41.887  44.520   1.586
 2441W        W74057  30.635  23.727  14.731
 2442W        W74058   9.060  13.280  11.266
 2443W        W74059  34.398  22.461  13.881
 2444W        W74060  14.243   5.403   0.704
 2445W        W74061  10.815  37.039  10.523
 2446W        W74062   8.353  15.568  12.458
 2447W        W74063  18.757  40.399  10.642
 2448W        W74064   3.842   1.243  12.057
 2449W        W74065  29.472  25.073  11.150
 2450W        W74066  42.192  12.197  12.390
 2451W        W74067   4.954   4.400  14.328
 2452W        W74068  27.694  24.076   3.857
 2453W        W74069  42.112  25.512   3.598
 2454W        W74070   5.937  10.222   3.408
 2455W        W74071  23.295  19.542  11.189
 2456W        W74072  29.381  19.001   2.316
 2457W        W74073   4.874  36.511  13.871
 2458W        W74074  30.533  37.161  10.671
 2459W        W74075  33.858  12.097   0.966
 2460W        W74076  28.721  32.936   1.113
 2461W        W74077  13.542   3.175   0.990
 2462W        W74078  36.008  24.196  12.880
 2463W        W74079   3.655  31.542  13.876
 2464W        W74080  44.587  23.741   1.433
 2465W        W74081  31.462  39.451  11.637
 2466W        W74082   1.110  19.844  12.370
 2467W        W74083  14.241  39.097  11.048
 2468W        W74084  37.786  15.860   3.265
 2469W        W74085  15.036  42.938   3.926
 2470W        W74086  20.102  36.451  11.363
 2471W        W74087  37.987  20.254   4.040
 2472W        W74088  21.665  34.475  11.502
 2473W        W74089   3.865  29.713  10.745
 2474W        W74090   4.877  22.160   5.247
 2475W        W74091  24.735   1.693   0.951
 2476W        W74092  33.069  12.253   1.256
 2477W        W74093  39.577  37.650  13.486
 2478W        W74094  39.963  17.176  11.414
 2479W        W74095  30.947   2.309  12.041
 2480W        W74096  40.749   6.724   0.484
 2481W        W74097   8.183  17.641  14.780
 2482W        W74098   9.459  44.143   3.997
 2483W        W74099   1.540  18.280   3.149
 2484W        W74100  18.172  34.285   4.126
 2485W        W74101   0.804  35.611  13.117
 2486W        W74102   8.226   7.788  13.808
 2487W        W74103  41.259  11.456  12.996
 2488W        W74104  14.886  27.563  10.753
 2489W        W74105   5.940  32.447   4.842
 2490W        W74106  11.754   9.339  10.709
 2491W        W74107  38.922  32.969  13.312
 2492W        W74108  18.992  26.886  14.796
 2493W        W74109  35.467  17.521   3.663
 2494W        W74110  29.421  27.399   3.839
 2495W        W74111  18.273  20.795  12.020
 2496W        W74112   5.957   8.795   0.395
 2497W        W74113  23.247  10.813  14.363
 2498W        W74114  41.937  21.475  10.676
 2499W        W74115  29.677  27.447   2.335
 2500W        W74116  32.584  22.563   1.368
 2501W        W74117  19.747  40.564   3.095
 2502W        W74118   1.638  16.575   2.500
 2503W        W74119   4.927  15.085   0.094
 2504W        W74120  41.883   3.876   0.279
 2505W        W74121   3.393  14.809   4.505
 2506W        W74122  43.269  41.647   2.294
 2507W        W74123  14.314  36.137   5.085
 2508W        W74124  15.763  42.296   0.850
 2509W        W74125   7.634  23.663  11.742
 2510W        W74126  17.605  22.621   3.260
 2511W        W74127  42.971  34.756   0.880
 2512W        W74128  31.127  18.740   4.801
 2513W        W74129   2.362  11.953  10.339
 2514W        W74130  36.954  30.855   4.189
 2515W        W74131  22.397   4.357  11.167
 2516W        W74132  41.886  42.970  10.661
 2517W        W74133  20.639   7.972  14.183
 2518W        W74134  34.017  29.677   4.508
 2519W        W74135  39.175  13.725   0.723
 2520W        W74136  40.060  24.039  10.099
 2521W        W74137  36.489  39.717  11.906
 2522W        W74138  25.295  12.836  14.335
 2523W        W74139   0.317  13.315   1.852
 2524W        W74140  10.398   2.990  11.657
 2525W        W74141  27.113  17.101   5.369
 2526W        W74142  26.452  13.416  14.312
 2527W        W74143  37.339  44.265  14.277
 2528W        W74144  32.418  22.853  12.047
 2529W        W74145  26.022   1.059  13.884
 2530W        W74146  14.648  35.513  13.396
 2531W        W74147  40.009  11.302   3.369
 2532W        W74148  18.486   4.923   3.753
 2533W        W74149   6.135  36.735  12.603
 2534W        W74150  35.900  36.358  13.404
 2535W        W74151  38.405  37.756   4.681
 2536W        W74152  17.734  26.631  11.987
 2537W        W74153  22.240   6.089   4.581
 2538W        W74154  11.791  19.002  14.228
 2539W        W74155  40.505  15.786   3.661
 2540W        W74156   7.818  17.247   1.724
 2541W        W74157  30.444   6.035  12.937
 2542W        W74158  36.163   4.858   4.850
 2543W        W74159  31.326  43.246   1.409
 2544W        W74160  19.331  43.776  10.557
 2545W        W74161  26.641  29.445  10.650
 2546W        W74162   4.343  40.104  13.413
 2547W        W74163   7.897  12.302   3.806
 2548W        W74164  43.551  12.253   3.724
 2549W        W74165  11.106  42.442   1.951
 2550W        W74166  13.090  34.989  14.069
 2551W        W74167  10.648  26.050  14.846
 2552W        W74168  43.845  43.237   1.569
 2553W        W74169  40.297   7.498   1.721
 2554W        W74170  14.116   1.277   4.471
 2555W        W74171  22.868   4.640  12.044
 2556W        W74172   7.274  31.545  14.767
 2557W        W74173  26.640  43.107  14.803
 2558W        W74174  39.480  20.270   4.141
 2559W        W74175  29.730  31.494   2.357
 2560W        W74176   6.801   9.890   2.409
 2561W        W74177  13.500   1.654  10.244
 2562W        W74178  31.774   9.863   0.358
 2563W        W74179  36.566  11.452   0.743
 2564W        W74180  21.261  33.644   3.219
 2565W        W74181  27.921  34.909   3.232
 2566W        W74182  12.584   3.259   0.900
 2567W        W74183  18.488  11.675   1.235
 2568W        W74184  35.906  26.022  11.184
 2569W        W74185  30.359  21.400   2.455
 2570W        W74186  21.434   3.854   3.406
 2571W        W74187   5.753  39.835  12.521
 2572W        W74188  44.799   4.765   3.213
 2573W        W74189  10.881  17.028   1.107
 2574W        W74190  18.351   2.214   0.898
 2575W        W74191   3.449  13.085  14.798
 2576W        W74192  16.306   2.851  13.952
 2577W        W74193  40.696  15.992   4.153
 2578W        W74194  14.646  20.000  11.071
 2579W        W74195  20.526  21.788   3.569
 2580W        W74196  22.681   7.753  14.514
 2581W        W74197   6.779  10.251   4.489
 2582W        W74198  42.758   3.928  12.577
 2583W        W74199   1.538  15.693  14.118
 2584W        W74200  44.149   5.752   0.471
 2585W        W74201  25.181  33.176  10.798
 2586W        W74202  41.576   0.283  13.896
 2587W        W74203  27.018  40.807   0.294
 2588W        W74204  18.714   8.623   1.377
 2589W        W74205  40.447  32.639   3.065
 2590W        W74206  26.985  36.970  12.394
 2591W        W74207  18.128  41.052   3.589
 2592W        W74208  38.738  11.596   2.338
 2593W        W74209  15.147   6.353  12.820
 2594W        W74210  31.056  17.307   1.360
 2595W        W74211  18.492   8.717  11.144
 2596W        W74212   3.723   2.441   4.660
 2597W        W74213  20.984  28.935  11.090
 2598W        W74214  42.519  43.762  14.959
 2599W        W74215   9.887  11.684   3.252
 2600W        W74216  40.098   2.126  11.333
 2601W        W74217   3.857  33.913  10.501
 2602W        W74218  13.852  31.915  11.466
 2603W        W74219   0.014  40.990  12.505
 2604W        W74220   5.384  27.164  14.508
 2605W        W74221   0.665  38.832  11.671
 2606W        W74222  23.222  35.580  13.219
 2607W        W74223  39.132  10.339  14.766
 2608W        W74224  36.500   8.280  12.593
 2609W        W74225   0.770  39.504   0.024
 2610W        W74226  19.153   2.275   1.237
 2611W        W74227  43.057  30.290  13.440
 2612W        W74228  43.522  30.526   4.120
 2613W        W74229  15.698  41.082   1.540
 2614W        W74230  40.123  17.268   3.701
 2615W        W74231  22.046  14.855   2.199
 2616W        W74232   7.794   3.227  11.713
 2617W        W74233  22.080  43.822  13.432
 2618W        W74234  11.274  37.141  14.303
 2619W        W74235  38.082  34.179  12.390
 2620W        W74236  36.727   5.667   4.757
 2621W        W74237  30.897  34.972   3.129
 2622W        W74238  24.602  44.266   2.786
 2623W        W74239  10.795   4.418  10.863
 2624W        W74240  23.829  20.139  14.934
 2625W        W74241   2.415  28.677   4.610
 2626W        W74242  12.109   4.162   0.257
 2627W        W74243  27.630  21.628  14.748
 2628W        W74244   2.846  25.078  11.460
 2629W        W74245  22.049  26.480   4.221
 2630W        W74246  38.958  12.099  10.518
 2631W        W74247  27.231  30.883   2.080
 2632W        W74248  36.017  11.503  11.121
 2633W        W74249  16.707  20.177   3.771
 2634W        W74250  17.328  10.230  11.195
 2635W        W74251  11.544  42.884  14.229
 2636W        W74252  14.609  29.972  12.848
 2637W        W74253  23.531  33.398   2.282
 2638W        W74254  15.891   4.015   5.782
 2639W        W74255  39.471   2.034   0.834
 2640W        W74256  29.001   1.226  13.532
 2641W        W74257   2.860   1.208   2.879
 2642W        W74258  14.339  34.638  13.419
 2643W        W74259  26.146   5.746   0.904
 2644W        W74260  26.266  18.576  11.129
 2645W        W74261   9.175  26.008  12.021
 2646W        W74262  12.936  37.103   1.981
 2647W        W74263  32.043   4.328  13.415
 2648W        W74264   0.946  36.982  14.810
 2649W        W74265  13.294  30.675   0.871
 2650W        W74266   9.756  24.259  13.447
 2651W        W74267  17.559  26.607  14.365
 2652W        W74268  30.919  18.500  12.482
 2653W        W74269  27.831  29.606  13.305
 2654W        W74270  27.774  26.118   4.120
 2655W        W74271  27.042  15.504   2.695
 2656W        W74272  36.590   2.212   2.786
 2657W        W74273  24.022  30.610   0.484
 2658W        W74274  13.773  13.697   1.232
 2659W        W74275  14.693   8.172   1.993
 2660W        W74276  44.515  41.273  12.267
 2661W        W74277  40.807  15.492  13.853
 2662W        W74278   5.828   4.326  10.942
 2663W        W74279   1.438  40.464  11.598
 2664W        W74280  36.467  44.997  11.411
 2665W        W74281  24.500  11.479   0.447
 2666W        W74282   8.003  32.276   3.123
 2667W        W74283  25.674  44.068   1.342
 2668W        W74284   7.840  15.009  14.901
 2669W        W74285  16.711   3.342  14.705
 2670W        W74286  29.753   9.784  13.967
 2671W        W74287  13.286   1.324  11.222
 2672W        W74288  39.330  36.939   2.319
 2673W        W74289  41.043  35.749  11.476
 2674W        W74290   6.940  30.564   4.522
 2675W        W74291  32.870  26.132  14.270
 2676W        W74292  42.119  23.530  10.722
 2677W        W74293   1.381  30.532  10.551
 2678W        W74294  15.223   0.031   3.161
 2679W        W74295  12.578   4.285  11.078
 2680W        W74296  26.773  43.957  12.914
 2681W        W74297  37.488  19.519   1.720
 2682W        W74298  35.174  36.061   2.218
 2683W        W74299   3.361  15.296   0.597
 2684W        W74300  28.125  26.623  12.643
 2685W        W74301  34.464   8.883   0.590
 2686W        W74302  42.775  25.031   0.388
 2687W        W74303  20.272  19.791  12.581
 2688W        W74304  30.885  26.602   4.153
 2689W        W74305  12.530  31.724  12.828
 2690W        W74306  28.996  42.878  12.501
 2691W        W74307  29.663  16.575  14.081
 2692W        W74308  27.401  10.374   3.704
 2693W        W74309  39.044  32.381  14.890
 2694W        W74310   3.820  43.888   5.044
 2695W        W74311  26.339  36.609   1.332
 2696W        W74312  27.677  22.051   2.056
 2697W        W74313  35.807  28.063   1.380
 2698W        W74314  12.753  41.434   1.544
 2699W        W74315  10.183  26.655   4.156
 2700W        W74316  12.411  19.505  12.351
 2701W        W74317  43.841  22.086   0.636
 2702W        W74318   9.850   7.217  13.488
 2703W        W74319  35.520  44.833  11.989
 2704W        W74320  42.240  44.894  11.424
 2705W        W74321  21.637  19.968  11.322
 2706W        W74322  34.444  12.559  13.945
 2707W        W74323  17.192   5.675  12.319
 2708W        W74324  42.476   3.992   2.135
 2709W        W74325  37.308  35.149   3.250
 2710W        W74326  26.206   7.613  10.731
 2711W        W74327  28.562  18.990   4.805
 2712W        W74328  19.733  17.669   3.693
 2713W        W74329   8.162  14.474   1.810
 2714W        W74330  27.044  28.940   3.803
 2715W        W74331  11.941   3.760   1.904
 2716W        W74332  31.529  12.386  14.936
 2717W        W74333  27.021   5.097  10.383
 2718W        W74334  26.528  41.979  14.013
 2719W        W74335  25.970  14.351   0.275
 2720W        W74336  19.408  16.395  13.511
 2721W        W74337   2.835  44.765   3.646
 2722W        W74338  22.521  24.796   0.717
 2723W        W74339  41.716  44.788   4.100
 2724W        W74340   5.463  36.970  10.371
 2725W        W74341  23.828  35.826   1.217
 2726W        W74342  41.491  42.890   4.082
 2727W        W74343  13.681  43.906  13.041
 2728W        W74344  20.801  17.981  14.275
 2729W        W74345  31.574   6.235   4.723
 2730W        W74346  43.546  23.726   3.163
 2731W        W74347  15.662  11.522  12.104
 2732W        W74348  18.608   7.253   1.729
 2733W        W74349  17.085  17.297  13.014
 2734W        W74350  16.997   1.518  12.766
 2735W        W74351  37.632  16.442  12.042
 2736W        W74352   9.763  14.037   4.026
 2737W        W74353   3.852   5.862  11.162
 2738W        W74354  19.931  38.640  11.860
 2739W        W74355  24.257  11.246   4.208
 2740W        W74356   6.873  17.667  12.328
 2741W        W74357  13.829  23.736   3.314
 2742W        W74358  31.012  32.104   2.954
 2743W        W74359  24.569  44.566   3.218
 2744W        W74360  21.590  42.476   2.012
 2745W        W74361  20.732  43.523   4.623
 2746W        W74362  20.005   9.954  14.999
 2747W        W74363   9.674   7.597   3.764
 2748W        W74364  38.684  19.436   1.147
 2749W        W74365  40.542  18.791  14.902
 2750W        W74366   8.772  38.538   0.701
 2751W        W74367  38.971  15.648  14.279
 2752W        W74368  34.888   3.168  13.048
 2753W        W74369   0.806   1.843  10.808
 2754W        W74370   2.979  38.499   1.705
 2755W        W74371  25.632  44.778  10.387
 2756W        W74372  32.434  35.078   1.924
 2757W        W74373   6.489  30.816  12.364
 2758W        W74374  27.672  43.831   1.300
 2759W        W74375   8.888  40.808  11.618
 2760W        W74376  16.265   8.916   0.580
 2761W        W74377   5.526  20.811   0.258
 2762W        W74378  12.566  43.827  12.152
 2763W        W74379  21.178  42.988  13.530
 2764W        W74380   4.150  40.553  10.682
 2765W        W74381   9.818  17.898  13.497
 2766W        W74382  44.876  36.465  13.820
 2767W        W74383   1.013   7.886   1.824
 2768W        W74384   2.412  20.100   4.656
 2769W        W74385  29.071  30.182  10.618
 2770W        W74386   2.344   8.104   0.026
 2771W        W74387   0.273  43.823   4.706
 2772W        W74388   8.461  23.086   0.910
 2773W        W74389  18.079  20.543   4.107
 2774W        W74390  19.522  31.583  12.860
 2775W        W74391   2.725  13.057  14.442
 2776W        W74392   2.318  43.162  13.236
 2777W        W74393  12.154   4.641  13.840
 2778W        W74394  18.300  17.600   1.733
 2779W        W74395   5.347  16.175  10.449
 2780W        W74396  20.235   6.109   3.338
 2781W        W74397  15.274  23.664  12.898
 2782W        W74398  25.345  31.081   3.813
 2783W        W74399  24.609  36.701   4.154
 2784W        W74400  19.794  27.539   1.769
 2785W        W74401  20.225  42.331   1.751
 2786W        W74402  38.806  26.770   5.147
 2787W        W74403   3.752  40.056  13.855
 2788W        W74404   8.937  43.401  14.220
 2789W        W74405  44.385  28.242   0.894
 2790W        W74406  27.875  40.848  10.124
 2791W        W74407  19.668  25.273  13.106
 2792W        W74408  40.153   3.352  10.978
 2793W        W74409  16.761  12.699   2.778
 2794W        W74410  36.848   7.754  12.969
 2795W        W74411  31.302  18.536   3.145
 2796W        W74412  16.270  11.340  14.527
 2797W        W74413   2.096  44.851  10.622
 2798W        W74414   8.605   4.199  11.944
 2799W        W74415   2.465  34.533   4.506
 2800W        W74416  21.549   3.329  13.547
 2801W        W74417  15.654  33.865  11.501
 2802W        W74418  11.302  18.237   2.917
 2803W        W74419  11.085  34.654  11.662
 2804W        W74420  35.527  22.768   2.291
 2805W        W74421  32.400   7.342   4.198
 2806W        W74422  18.047  24.893  12.961
 2807W        W74423   6.682  36.959  13.828
 2808W        W74424  19.459  32.221   3.819
 2809W        W74425  36.277  26.991   1.872
 2810W        W74426   0.453  35.083   1.977
 2811W        W74427  20.624  41.279  13.533
 2812W        W74428  18.567  20.184   0.393
 2813W        W74429  20.807   4.451   5.153
 2814W        W74430  14.450  17.204   1.863
 2815W        W74431  15.129  41.442  11.217
 2816W        W74432  34.806  27.141  14.740
 2817W        W74433  25.943  31.889   0.843
 2818W        W74434  25.765  38.916   4.610
 2819W        W74435  21.748   6.667  14.856
 2820W        W74436  33.968  36.621   0.818
 2821W        W74437   9.442  31.451   2.137
 2822W        W74438  38.992  31.052   4.535
 2823W        W74439  25.644  32.837   4.768
 2824W        W74440   5.950  19.657   0.896
 2825W        W74441  23.136  19.103  10.930
 2826W        W74442  41.821  24.600  10.714
 2827W        W74443   8.966  43.813  11.035
 2828W        W74444  13.871   5.437  11.021
 2829W        W74445  22.229   3.382   0.190
 2830W        W74446  17.397   8.592   4.324
 2831W        W74447  28.125  33.249   1.048
 2832W        W74448   2.459  12.637   2.227
 2833W        W74449  33.350  12.274  10.637
 2834W        W74450  29.390  43.963   2.779
 2835W        W74451  28.756  32.164   2.394
 2836W        W74452  37.133  22.925   0.714
 2837W        W74453   5.168  39.395  13.918
 2838W        W74454   8.861  29.316   0.965
 2839W        W74455  35.134  10.588   3.550
 2840W        W74456  42.952  25.081   3.818
 2841W        W74457  11.852  26.195   3.276
 2842W        W74458   2.222  28.186  11.522
 2843W        W74459  33.387  34.817   3.179
 2844W        W74460  39.385  17.003  10.649
 2845W        W74461  10.129  40.524  12.852
 2846W        W74462  20.785  40.349   2.188
 2847W        W74463   7.844  25.479  14.881
 2848W        W74464  27.012  42.901   3.777
 2849W        W74465  12.192  40.902  12.923
 2850W        W74466   9.327  43.781  11.420
 2851W        W74467   6.181   6.945   1.846
 2852W        W74468   8.079  14.160  12.826
 2853W        W74469   6.573   9.697  12.522
 2854W        W74470  16.629  24.660   3.031
 2855W        W74471  25.086  21.236  12.548
 2856W        W74472  33.180  27.016   2.729
 2857W        W74473   8.830  44.651   1.253
 2858W        W74474  27.149  15.853  13.696
 2859W        W74475  39.059   4.984   2.283
 2860W        W74476  30.911  44.301  12.558
 2861W        W74477   7.403  32.598   0.494
 2862W        W74478  41.361  28.155  10.629
 2863W        W74479  38.901  22.865  13.458
 2864W        W74480   9.250  16.051   0.796
 2865W        W74481  41.388   6.618  13.461
 2866W        W74482  24.754  11.810   1.360
 2867W        W74483  18.205   5.173  10.707
 2868W        W74484  10.152  39.796  14.838
 2869W        W74485  31.269  16.047   0.327
 2870W        W74486  28.865  40.037   4.585
 2871W        W74487  36.707  14.679   2.999
 2872W        W74488  43.752  28.918  12.000
 2873W        W74489  21.168   4.127  12.906
 2874W        W74490  11.256   5.126   1.853
 2875W        W74491  40.186  24.332  11.115
 2876W        W74492  19.576   6.839   4.154
 2877W        W74493   2.018  12.050   2.794
 2878W        W74494  22.083  34.659   0.020
 2879W        W74495  19.074  10.175   2.088
 2880W        W74496  13.183  27.921   5.003
 2881W        W74497   7.221  40.504   2.217
 2882W        W74498   2.284   0.987  10.251
 2883W        W74499  26.467  38.266  12.115
 2884W        W74500  15.372   3.847  12.157
 2885W        W74501  41.500  18.205   3.656
 2886W        W74502   8.953  30.483   3.246
 2887W        W74503  37.053  11.889   0.264
 2888W        W74504  44.555  33.669   2.861
 2889W        W74505  34.451  30.953  11.974
 2890W        W74506  42.749  27.414   0.330
 2891W        W74507  37.916  37.067  10.424
 2892W        W74508  17.655  15.814  11.251
 2893W        W74509  42.922  33.979  13.480
 2894W        W74510  26.726  25.984  10.514
 2895W        W74511   9.210  40.974   2.842
 2896W        W74512  12.220  41.465   3.261
 2897W        W74513  24.185  38.086   1.417
 2898W        W74514   5.110  22.499   4.763
 2899W        W74515  35.447  17.645  14.048
 2900W        W74516   6.868  17.127  14.646
 2901W        W74517  44.207  22.425  10.329
 2902W        W74518  40.894   0.224   3.611
 2903W        W74519  10.255  35.420  13.084
 2904W        W74520  44.022  25.971   1.228
 2905W        W74521   6.707   4.380  14.844
 2906W        W74522   5.816  24.616  14.996
 2907W        W74523   0.339  39.472  14.738
 2908W        W74524  35.523   1.961  10.308
 2909W        W74525  30.460  20.135  12.519
 2910W        W74526  35.760   8.981  13.905
 2911W        W74527  31.249  41.370   0.517
 2912W        W74528   0.294  14.593   2.379
 2913W        W74529  26.794  21.145   2.240
 2914W        W74530  36.505  43.247  14.486
 2915W        W74531  36.814  18.799  11.083
 2916W        W74532   3.555  12.330  13.519
 2917W        W74533  44.873  14.207  10.791
 2918W        W74534   8.430  38.490  12.153
 2919W        W74535   5.340   1.857   3.183
 2920W        W74536  31.061  22.818   0.366
 2921W        W74537  15.341  32.356  13.764
 2922W        W74538  23.056  35.202  14.047
 2923W        W74539  35.453  14.561  13.841
 2924W        W74540  27.161  41.776   4.684
 2925W        W74541  39.226  21.035  14.342
 2926W        W74542  35.060   0.205   3.843
 2927W        W74543   0.213  11.902   1.796
 2928W        W74544  31.701  44.464  12.914
 2929W        W74545   3.210   2.142   2.026
 2930W        W74546  27.662  27.257   0.400
 2931W        W74547   8.149  34.877  11.096
 2932W        W74548  18.178  28.503   0.985
 2933W        W74549   8.645  41.898   0.326
 2934W        W74550   9.107  19.509   3.325
 2935W        W74551   8.417  30.102   4.185
 2936W        W74552   7.792  16.625  11.609
 2937W        W74553  32.952  39.839   0.376
 2938W        W74554  40.864  41.717   3.221
 2939W        W74555   4.764  11.306   2.751
 2940W        W74556   1.219  18.729   0.367
 2941W        W74557   0.757  22.233  12.837
 2942W        W74558  18.438  15.954  11.407
 2943W        W74559   2.817  32.648   2.100
 2944W        W74560  41.521  20.625  11.066
 2945W        W74561   4.957  14.739   0.490
 2946W        W74562   7.282  10.634   3.826
 2947W        W74563  24.545  36.669  11.990
 2948W        W74564  30.946  29.886  11.259
 2949W        W74565  39.187  42.845  10.031
 2950W        W74566  29.936  40.354   1.486
 2951W        W74567  44.717   1.784   1.824
 2952W        W74568  14.793  21.536   1.974
 2953W        W74569  26.645   1.434  14.094
 2954W        W74570  32.451   0.509  12.595
 2955W        W74571  11.217  13.761   4.066
 2956W        W74572  34.746  23.074  10.530
 2957W        W74573   2.680   9.748  14.645
 2958W        W74574  21.055   1.239  13.856
 2959W        W74575  28.390  14.785  14.352
 2960W        W74576  28.392  43.516  12.497
 2961W        W74577  35.336  34.937  12.820
 2962W        W74578   9.560  28.830   4.202
 2963W        W74579   8.801  22.516  12.966
 2964W        W74580  28.216   7.010   0.919
 2965W        W74581  26.144  43.858   1.409
 2966W        W74582  44.366   2.918   0.781
 2967W        W74583  22.935  41.499   0.991
 2968W        W74584   8.658  43.521   3.220
 2969W        W74585  41.024  12.712  13.792
 2970W        W74586   9.249  33.850   1.659
 2971W        W74587  34.473   4.214   4.554
 2972W        W74588  41.829   6.654  11.885
 2973W        W74589  21.106  22.929   0.261
 2974W        W74590  44.980  32.464   0.368
 2975W        W74591   6.475  19.599  11.950
 2976W        W74592  39.445   1.728   4.040
 2977W        W74593  20.941  38.286   1.441
 2978W        W74594  26.608   0.553   1.158
 2979W        W74595  20.111  33.661  13.356
 2980W        W74596   2.183  43.543  12.896
 2981W        W74597  37.391   4.579  13.908
 2982W        W74598  12.162  30.282  14.521
 2983W        W74599   6.981  39.006   4.219
 2984W        W74600  43.225  44.058  10.598
 2985W        W74601  14.680  29.985   0.764
 2986W        W74602  38.698  19.604  12.383
 2987W        W74603  14.837  24.952   2.398
 2988W        W74604  44.260   2.409   4.465
 2989W        W74605  10.121  23.017   4.651
 2990W        W74606   9.757  39.902  13.481
 2991W        W74607   6.908  39.223   1.115
 2992W        W74608  40.868  33.144   4.239
 2993W        W74609  30.455  23.278  14.923
 2994W        W74610  38.374   8.803  11.292
 2995W        W74611  10.952  36.290   0.831
 2996W        W74612  43.503  26.208   4.458
 2997W        W74613  25.754  31.458  13.542
 2998W        W74614  29.227  25.107  12.869
 2999W        W74615  41.922   8.733   4.099
 3000W        W74616  41.319   8.926  13.768
 3001W        W74617  18.655   6.445  12.506
 3002W        W74618  17.132  21.016   2.150
 3003W        W74619  36.832  42.905   1.015
 3004W        W74620   9.773   3.450   2.480
 3005W        W74621   1.200  39.008   0.944
 3006W        W74622   2.724  16.053  13.556
 3007W        W74623  32.370   6.851   0.420
 3008W        W74624  26.281  41.853   0.759
 3009W        W74625  24.640  28.448  13.399
 3010W        W74626   4.795  26.526  12.428
 3011W        W74627  20.259  34.805   4.912
 3012W        W74628  33.369  26.500   3.132
 3013W        W74629   8.347  31.426  12.521
 3014W        W74630  15.545  14.901  10.683
 3015W        W74631  24.049   4.754  12.103
 3016W        W74632  43.740  36.633   3.087
 3017W        W74633   7.330  17.029   4.017
 3018W        W74634  16.856   1.157  13.534
 3019W        W74635   6.779  40.380  12.917
 3020W        W74636   4.949  22.833   0.555
 3021W        W74637  42.441   1.963  10.929
 3022W        W74638  11.766  32.248  13.852
 3023W        W74639  42.981  27.677   3.244
 3024W        W74640  30.504  17.803   2.411
 3025W        W74641   5.075  29.149   1.800
 3026W        W74642   9.798   0.747  12.533
 3027W        W74643  19.888   7.379   1.326
 3028W        W74644   9.184  10.843  10.666
 3029W        W74645  23.080  28.030   2.815
 3030W        W74646   3.320  37.848   4.700
 3031W        W74647  31.629  18.734   0.508
 3032W        W74648   3.996  41.414   2.254
 3033W        W74649  11.799  41.428  10.283
 3034W        W74650   4.674  33.879  12.154
 3035W        W74651  11.628  22.622  11.494
 3036W        W74652  41.452   2.439  11.528
 3037W        W74653  40.642   8.770   0.353
 3038W        W74654  17.180  17.947   3.153
 3039W        W74655  14.978   3.423  11.220
 3040W        W74656  25.023  21.173  13.972
 3041W        W74657  26.183   7.880  11.624
 3042W        W74658  16.351  16.107   2.703
 3043W        W74659  21.898  14.016  12.335
 3044W        W74660  29.520   4.259   4.719
 3045W        W74661  41.281  32.559  13.534
 3046W        W74662  36.774  28.477  13.898
 3047W        W74663  17.603  39.737   4.807
 3048W        W74664  42.418  24.748   4.952
 3049W        W74665   8.160  26.478   4.152
 3050W        W74666   0.307  28.582  14.956
 3051W        W74667  40.257  25.327   2.389
 3052W        W74668  25.472   9.735   4.221
 3053W        W74669  16.518  35.349  12.596
 3054W        W74670  28.956  33.985   2.991
 3055W        W74671  11.732   5.770   3.081
 3056W        W74672  28.947  11.342   3.212
 3057W        W74673  24.877   5.710   2.180
 3058W        W74674  32.629  24.173  10.950
 3059W        W74675  44.210  24.483  13.487
 3060W        W74676  32.868   3.010   2.907
 3061W        W74677  21.599  41.786  13.147
 3062W        W74678  42.380  12.627  10.737
 3063W        W74679  36.782  31.675   3.380
 3064W        W74680  36.891  37.969  11.154
 3065W        W74681  26.650  37.530  12.596
 3066W        W74682   7.805  29.524   4.586
 3067W        W74683  23.536  19.190  14.272
 3068W        W74684  39.068  17.208  12.405
 3069W        W74685  16.627  21.764   2.003
 3070W        W74686  35.686   2.270   2.754
 3071W        W74687  37.513   7.561  11.115
 3072W        W74688  30.112  18.619   1.353
 3073W        W74689  17.703  43.443  12.914
 3074W        W74690  13.703  16.195   2.150
 3075W        W74691  31.531  31.920  10.680
 3076W        W74692  32.905  21.118   4.007
 3077W        W74693  33.377  35.332   3.341
 3078W        W74694  41.849   9.901   2.699
 3079W        W74695  43.701  14.014   4.255
 3080W        W74696  12.139   3.270   3.043
 3081W        W74697   2.808  31.552  12.162
 3082W        W74698   6.336  23.288   2.284
 3083W        W74699  24.243  14.313  14.278
 3084W        W74700  20.266  33.939  10.455
 3085W        W74701  24.030  12.387   1.282
 3086W        W74702  13.340  29.434   0.450
 3087W        W74703   2.677   5.261  13.019
 3088W        W74704  42.477   1.325  14.029
 3089W        W74705   5.434  29.678   0.433
 3090W        W74706   7.281  37.250   0.456
 3091W        W74707  18.888  30.143   1.012
 3092W        W74708  16.525  44.695  11.676
 3093W        W74709   9.290  18.632   4.441
 3094W        W74710  18.582  20.326  14.562
 3095W        W74711  25.867  32.413  10.697
 3096W        W74712   5.836  31.811   1.879
 3097W        W74713  43.968  43.431   2.376
 3098W        W74714   8.067  35.135  11.582
 3099W        W74715  11.759  39.528   4.192
 3100W        W74716  13.571  44.334   1.442
 3101W        W74717  20.192  22.514  13.579
 3102W        W74718  21.282  29.962  14.926
 3103W        W74719  19.196  41.560  12.882
 3104W        W74720  44.193  32.325   2.399
 3105W        W74721  27.221  26.824  12.847
 3106W        W74722  39.848   5.971  13.328
 3107W        W74723  25.244  31.161  10.561
 3108W        W74724  17.170   3.691  10.883
 3109W        W74725  38.465  23.510   4.798
 3110W        W74726  20.764  33.299   2.454
 3111W        W74727  26.570  10.292  11.572
 3112W        W74728   4.899  32.959  13.062
 3113W        W74729  13.687   7.316   3.447
 3114W        W74730   3.706  27.949   2.710
 3115W        W74731  18.222   5.063  11.659
 3116W        W74732  12.656  39.050  11.797
 3117W        W74733   2.390   2.412   3.178
 3118W        W74734  31.543  35.871   3.958
 3119W        W74735   8.083  44.900   2.354
 3120W        W74736   7.652  43.253  11.422
 3121W        W74737  14.767  11.813   4.415
 3122W        W74738   2.675   7.052  10.231
 3123W        W74739  19.348   3.208  13.969
 3124W        W74740  13.653  25.092   1.820
 3125W        W74741  37.287   1.796   3.200
 3126W        W74742  17.258   3.743  13.619
 3127W        W74743   9.373  34.672  11.601
 3128W        W74744   0.470  26.955  12.345
 3129W        W74745  40.277  38.559  14.383
 3130W        W74746  44.428  41.729   1.018
 3131W        W74747  13.952  20.998  14.491
 3132W        W74748  23.206  14.283  14.476
 3133W        W74749  36.614   2.239   0.819
 3134W        W74750  17.365   2.240   3.106
 3135W        W74751   3.799  16.129   4.985
 3136W        W74752  42.199  26.771  10.814
 3137W        W74753  33.231  28.961   3.244
 3138W        W74754  31.642  13.718   4.125
 3139W        W74755   8.627  27.832   4.529
 3140W        W74756   6.180   2.325   0.139
 3141W        W74757  37.526   1.844  12.634
 3142W        W74758  23.161  25.392  11.167
 3143W        W74759  42.331  29.252  10.754
 3144W        W74760   4.526  40.881   2.945
 3145W        W74761  13.402  13.197  14.379
 3146W        W74762  14.359  28.232  13.813
 3147W        W74763  14.680  33.636   4.578
 3148W        W74764   6.962  11.845   2.226
 3149W        W74765  42.820  17.673   0.469
 3150W        W74766  36.644  10.853  13.130
 3151W        W74767  13.047  32.201   4.828
 3152W        W74768  41.434  30.488   2.311
 3153W        W74769  17.183  33.380  10.366
 3154W        W74770  44.572  18.364  11.133
 3155W        W74771   3.261  21.468  11.090
 3156W        W74772  12.869   6.864  13.005
 3157W        W74773   4.166  12.352   1.759
 3158W        W74774  34.850  15.281  12.511
 3159W        W74775   8.906  32.668   0.297
 3160W        W74776  36.446   6.609   4.137
 3161W        W74777  10.540  39.989   1.478
 3162W        W74778   1.829  35.848  11.622
 3163W        W74779  10.075  11.986   1.104
 3164W        W74780   9.630  34.411   4.924
 3165W        W74781  23.197  15.117  12.490
 3166W        W74782  41.373  41.621  12.031
 3167W        W74783  41.182  39.890  14.687
 3168W        W74784  37.530  27.135   2.263
 3169W        W74785  15.669  22.784  12.620
 3170W        W74786  26.529   4.059  11.531
 3171W        W74787   4.399  43.187   4.108
 3172W        W74788  26.031   4.236  11.669
 3173W        W74789  13.704   6.937  14.405
 3174W        W74790   1.507  23.639   0.145
 3175W        W74791   1.268  16.875  13.089
 3176W        W74792  17.564   1.174   3.706
 3177W        W74793  20.890  10.273   2.731
 3178W        W74794  22.710  40.084   3.227
 3179W        W74795  18.227  44.351   3.261
 3180W        W74796  14.089  18.374   5.664
 3181W        W74797   1.256  26.960  13.064
 3182W        W74798  10.332  36.561  14.176
 3183W        W74799   6.664  11.347  11.116
 3184W        W74800  24.992  20.118   1.946
 3185W        W74801  11.260   5.871  13.969
 3186W        W74802  38.543  19.940   2.353
 3187W        W74803   7.440   1.379  11.646
 3188W        W74804   1.376  20.272   4.662
 3189W        W74805   6.917   9.357   4.532
 3190W        W74806   3.316   2.285   4.996
 3191W        W74807  35.760  23.652  14.863
 3192W        W74808   1.878  25.424   1.235
 3193W        W74809  36.709  29.833  11.879
 3194W        W74810  35.806  41.960   4.643
 3195W        W74811  13.681  43.263   4.174
 3196W        W74812  38.232  20.929   2.414
 3197W        W74813  26.928   2.754   4.629
 3198W        W74814  33.509   1.782  14.090
 3199W        W74815  33.070  32.616  11.115
 3200W        W74816  43.024  10.715   0.263
 3201W        W74817  21.087  19.494  14.830
 3202W        W74818   5.142  43.880   2.828
 3203W        W74819   9.606  12.674  12.546
 3204W        W74820  29.460   3.677   0.825
 3205W        W74821   6.031   9.270  11.953
 3206W        W74822  27.582  29.976  14.481
 3207W        W74823   0.341  29.512   4.383
 3208W        W74824  42.746   9.938   1.793
 3209W        W74825   5.145  44.244  14.324
 3210W        W74826  35.614  31.242  14.412
 3211W        W74827  23.635  15.512   2.398
 3212W        W74828  26.134  14.191  11.682
 3213W        W74829  40.534  42.068   1.354
 3214W        W74830  24.666  25.893   4.677
 3215W        W74831  40.539  30.092   4.562
 3216W        W74832  37.775  35.223   1.662
 3217W        W74833  18.467  27.435  13.406
 3218W        W74834  12.685   8.900  10.452
 3219W        W74835  44.337  14.850   2.350
 3220W        W74836   9.971  35.560  14.409
 3221W        W74837  27.558  32.604   2.103
 3222W        W74838  17.054  34.950   4.535
 3223W        W74839  20.534  16.738   4.570
 3224W        W74840  19.008  36.827   0.677
 3225W        W74841  38.091  13.808   2.459
 3226W        W74842  23.178  18.833  14.433
 3227W        W74843   2.247  21.682   4.924
 3228W        W74844  20.263  43.805   2.510
 3229W        W74845  21.518   2.855   0.036
 3230W        W74846  33.967  32.499  13.081
 3231W        W74847  39.113  23.016   2.909
 3232W        W74848  13.683  36.918   3.817
 3233W        W74849   3.011  29.502  14.384
 3234W        W74850  36.612  14.035  13.525
 3235W        W74851  15.241  12.931   1.644
 3236W        W74852  44.451  32.760  11.716
 3237W        W74853  25.279  11.367   5.108
 3238W        W74854  25.932  41.485   0.831
 3239W        W74855   8.337  25.681  14.716
 3240W        W74856   8.706   3.675  14.474
 3241W        W74857  19.938  21.158   0.907
 3242W        W74858  29.761  10.973  14.690
 3243W        W74859  28.986   3.962  10.685
 3244W        W74860  28.474  19.429   0.955
 3245W        W74861  35.420  14.038   4.750
 3246W        W74862  10.476  17.185   0.330
 3247W        W74863   0.278  19.907   4.063
 3248W        W74864   2.975   3.132   1.143
 3249W        W74865  18.070   1.772   3.331
 3250W        W74866  40.049  30.494  14.533
 3251W        W74867   3.078  31.168  13.426
 3252W        W74868   8.736  26.143   3.218
 3253W        W74869  20.557   9.282   2.136
 3254W        W74870  40.015  12.108   3.795
 3255W        W74871   3.270  38.793  13.592
 3256W        W74872  14.241  20.641   3.902
 3257W        W74873  40.814  44.926   2.234
 3258W        W74874   7.846   6.405  14.763
 3259W        W74875  10.371  17.728   1.246
 3260W        W74876  31.613   1.643   4.564
 3261W        W74877   3.850  22.958  10.226
 3262W        W74878  33.529  10.586  14.701
 3263W        W74879  15.290  33.039  10.444
 3264W        W74880  15.323  35.985   1.303
 3265W        W74881  36.473  37.346  13.753
 3266W        W74882  38.043  12.265  10.314
 3267W        W74883  32.168   4.797   0.158
 3268W        W74884   5.252  14.880   1.159
 3269W        W74885   0.231  33.259  10.700
 3270W        W74886  20.190  15.633  12.148
 3271W        W74887  17.125  38.505   3.742
 3272W        W74888  27.672  37.560   2.254
 3273W        W74889  34.495   8.429  12.331
 3274W        W74890  36.877  11.694  11.405
 3275W        W74891   2.761  16.080   4.941
 3276W        W74892   2.940  13.168   3.908
 3277W        W74893  42.383   9.915   2.149
 3278W        W74894  23.468  38.631  11.706
 3279W        W74895  14.786  37.591   2.893
 3280W        W74896  42.265  35.154  14.083
 3281W        W74897  43.895  16.315   1.723
 3282W        W74898   1.352  21.481   1.407
 3283W        W74899  15.705  29.338   1.415
 3284W        W74900  11.861  19.986  13.213
 3285W        W74901  18.104  19.297   2.559
 3286W        W74902  27.097  19.393  13.403
 3287W        W74903  14.825  42.203   0.089
 3288W        W74904  27.152  18.529  11.481
 3289W        W74905  13.814   5.037  11.870
 3290W        W74906  29.470  26.268  13.463
 3291W        W74907  25.426  39.499   4.563
 3292W        W74908   2.795  30.906   2.187
 3293W        W74909  10.621  16.109   0.798
 3294W        W74910  33.878  16.088  14.574
 3295W        W74911   0.900  35.872   2.137
 3296W        W74912   1.768  25.937   1.301
 3297W        W74913  13.652  21.084   3.376
 3298W        W74914  30.054  33.052   2.397
 3299W        W74915   8.978  41.406   1.386
 3300W        W74916  15.830   1.937  11.582
 3301W        W74917  13.877   7.945   4.163
 3302W        W74918  11.746  37.467   1.393
 3303W        W74919  13.064  20.634  12.436
 3304W        W74920  25.625  40.913  14.947
 3305W        W74921   0.848  24.532   5.127
 3306W        W74922   1.188   0.163   1.838
 3307W        W74923  41.838  41.316   3.713
 3308W        W74924   9.885  12.379   1.383
 3309W        W74925  43.213   5.999  12.861
 3310W        W74926   2.701  32.548  13.517
 3311W        W74927  31.585   3.897   4.143
 3312W        W74928  37.964  18.487   4.528
 3313W        W74929   7.344  28.281  14.015
 3314W        W74930  30.343  15.351   4.939
 3315W        W74931  22.651  33.076   2.751
 3316W        W74932  16.787  17.973   0.748
 3317W        W74933  14.338  14.192   3.103
 3318W        W74934  40.494  28.297   0.151
 3319W        W74935  25.117  25.960   4.409
 3320W        W74936   1.410  23.981  11.819
 3321W        W74937   1.452  23.019  12.094
 3322W        W74938  14.393   1.509  12.567
 3323W        W74939   6.504  36.646   0.546
 3324W        W74940   5.652  41.047   0.828
 3325W        W74941  19.349  27.613   2.822
 3326W        W74942  41.879  20.290   3.396
 3327W        W74943  16.036   3.908  13.688
 3328W        W74944  21.498  17.777   0.215
 3329W        W74945   3.345  19.279   1.474
 3330W        W74946  35.655  41.026  13.159
 3331W        W74947  28.502  37.815  14.489
 3332W        W74948  36.272  20.358  14.635
 3333W        W74949  23.671  14.243   1.030
 3334W        W74950  37.419  22.911   1.659
 3335W        W74951  25.240  20.528   1.234
 3336W        W74952  14.522   2.356  11.991
 3337W        W74953  27.773   6.566   3.821
 3338W        W74954  29.019  39.565   1.251
 3339W        W74955   2.449   8.365  10.646
 3340W        W74956  32.718  10.263   1.204
 3341W        W74957   3.321  37.539  11.489
 3342W        W74958  16.082  31.165  11.775
 3343W        W74959  26.995  37.338  11.917
 3344W        W74960  36.994  15.831   2.349
 3345W        W74961  38.498  37.924   2.255
 3346W        W74962  22.497  32.487  13.025
 3347W        W74963  32.515  16.080   3.317
 3348W        W74964  25.512   3.769   0.381
 3349W        W74965   1.167  39.812   4.569
 3350W        W74966  37.419   3.620  13.241
 3351W        W74967  22.616  12.257  13.442
 3352W        W74968  32.528  23.006   2.146
 3353W        W74969   3.269  21.025   5.027
 3354W        W74970  18.550   0.214  13.957
 3355W        W74971   2.681  20.050   4.223
 3356W        W74972  18.715  38.580  14.091
 3357W        W74973  29.343   0.364   0.792
 3358W        W74974  35.861  43.643   2.017
 3359W        W74975  21.005   7.726   1.358
 3360W        W74976  28.997  24.926  13.327
 3361W        W74977  10.814  13.201   4.874
 3362W        W74978  38.623   4.661  13.828
 3363W        W74979  18.685  11.953  12.493
 3364W        W74980  26.608  21.997  13.924
 3365W        W74981   0.780   6.122  14.121
 3366W        W74982  35.911  25.774  10.705
 3367W        W74983   3.011  22.128  13.844
 3368W        W74984  10.566  43.950   2.334
 3369W        W74985  35.508  34.008  14.744
 3370W        W74986   9.963  10.009  11.600
 3371W        W74987   2.374  24.011  14.904
 3372W        W74988  35.269   8.381   0.070
 3373W        W74989  44.109  15.548  10.823
 3374W        W74990  11.896  27.807   2.232
 3375W        W74991  15.195  25.995  10.704
 3376W        W74992  26.863  40.609  11.551
 3377W        W74993   6.206   8.274   4.507
 3378W        W74994  22.514  14.836   2.737
 3379W        W74995   3.938  42.085   3.737
 3380W        W74996  35.775   3.621  14.582
 3381W        W74997  41.195   4.291  10.661
 3382W        W74998  34.091   5.623  11.444
 3383W        W74999  11.792  36.801   0.936
 3384W        W75000  21.657  44.799   1.986
 3385W        W75001  31.595   8.943  12.075
 3386W        W75002   9.701  22.750  11.054
 3387W        W75003   6.166  34.581   1.199
 3388W        W75004   6.526  34.531   3.596
 3389W        W75005  31.066  22.923  14.423
 3390W        W75006  41.010  30.931   1.683
 3391W        W75007  27.925  21.247  14.513
 3392W        W75008   7.542  23.266  13.254
 3393W        W75009  25.035  35.963   4.367
 3394W        W75010  29.190  27.621   2.343
 3395W        W75011  27.728  18.096  12.474
 3396W        W75012   3.766  24.960   0.342
 3397W        W75013  19.057  28.003   0.823
 3398W        W75014   3.010   1.381  11.083
 3399W        W75015  21.685  26.964   3.365
 3400W        W75016  20.775  35.037   1.617
 3401W        W75017  15.030  43.376  13.825
 3402W        W75018  29.677  40.350  12.616
 3403W        W75019  27.022  26.156   1.905
 3404W        W75020  41.320  31.336  14.966
 3405W        W75021  14.517  10.185  14.229
 3406W        W75022  28.648  22.372  12.109
 3407W        W75023  33.700  14.623  10.630
 3408W        W75024  32.533  23.442   4.653
 3409W        W75025  19.517  17.286  10.708
 3410W        W75026  32.958  40.961  12.505
 3411W        W75027  21.917  18.073   2.871
 3412W        W75028  22.953  39.938   4.065
 3413W        W75029  23.035  42.687   1.814
 3414W        W75030   7.618  30.373  12.172
 3415W        W75031  12.737  18.887  12.182
 3416W        W75032  16.564  12.165  14.030
 3417W        W75033   1.280   5.990   1.155
 3418W        W75034   1.053  37.935  13.484
 3419W        W75035  37.699  42.812  14.795
 3420W        W75036  23.337  23.110  12.581
 3421W        W75037  18.610  16.582  13.841
 3422W        W75038  38.703  20.979   2.212
 3423W        W75039  43.717  32.606  13.450
 3424W        W75040  10.198  17.241   3.683
 3425W        W75041  12.665  24.977   3.148
 3426W        W75042  35.117  16.570   4.490
 3427W        W75043   8.890  21.247  13.472
 3428W        W75044  10.004  31.674  14.866
 3429W        W75045  38.381   1.813  10.667
 3430W        W75046  21.743   5.401   4.553
 3431W        W75047   5.728  14.195   4.731
 3432W        W75048   3.339  41.016  11.401
 3433W        W75049  33.547  25.427   2.203
 3434W        W75050   6.805  26.841  12.517
 3435W        W75051  10.706  12.568   3.724
 3436W        W75052  24.165  43.059  14.803
 3437W        W75053  44.517   4.346   3.254
 3438W        W75054  18.169  15.600   2.320
 3439W        W75055  18.599   4.825   2.352
 3440W        W75056  10.560  32.409  14.273
 3441W        W75057  22.374   7.166  12.105
 3442W        W75058  11.315  29.690   1.475
 3443W        W75059  34.997  31.437  10.695
 3444W        W75060   0.465  32.797   3.365
 3445W        W75061  32.108  22.187   2.939
 3446W        W75062   8.703  25.529   1.827
 3447W        W75063  30.237  11.242  13.269
 3448W        W75064  41.897  18.116  14.921
 3449W        W75065  34.107  24.715  12.338
 3450W        W75066  33.138  24.449  12.310
 3451W        W75067   3.143  42.948  10.515
 3452W        W75068   3.938  31.868  13.563
 3453W        W75069  23.954  40.293   4.988
 3454W        W75070   2.928   6.079   3.206
 3455W        W75071  13.862  15.809  11.172
 3456W        W75072   2.312  23.058  12.707
 3457W        W75073  36.495   7.363   4.181
 3458W        W75074  44.042   8.448  14.942
 3459W        W75075  15.569  21.811  12.549
 3460W        W75076  42.294  40.877   0.684
 3461W        W75077  11.849   3.533  12.088
 3462W        W75078  26.190  32.392  13.385
 3463W        W75079   4.715  39.042   4.620
 3464W        W75080  25.433  29.986  13.051
 3465W        W75081  21.910  43.996   0.402
 3466W        W75082   4.608  34.070   1.745
 3467W        W75083  41.334   1.972  10.937
 3468W        W75084  19.218  11.794   4.279
 3469W        W75085  41.064  34.060  10.685
 3470W        W75086  30.227  31.565   4.127
 3471W        W75087  35.958  36.239   1.113
 3472W        W75088  14.138  43.571   0.374
 3473W        W75089  24.657  14.725  11.680
 3474W        W75090  22.994   4.360  13.296
 3475W        W75091   9.509  21.885  13.842
 3476W        W75092   7.407  14.097  14.953
 3477W        W75093  30.535  44.951  10.579
 3478W        W75094  30.449  44.874   4.760
 3479W        W75095  34.132   9.939   4.306
 3480W        W75096  29.632   3.187   4.692
 3481W        W75097  18.718  26.154   2.835
 3482W        W75098  38.399   8.485  10.479
 3483W        W75099  10.338  33.373   0.004
 3484W        W75100   3.607  27.860   0.758
 3485W        W75101  29.281  44.140  12.848
 3486W        W75102  29.146   8.170  13.480
 3487W        W75103  15.368  31.058   4.598
 3488W        W75104  42.569  23.008   0.502
 3489W        W75105  21.111  29.179   0.411
 3490W        W75106  42.803  21.218  11.681
 3491W        W75107  35.542  24.001  12.912
 3492W        W75108  32.232   1.677  12.039
 3493W        W75109  22.498  17.382  10.623
 3494W        W75110  15.623  13.337  13.735
 3495W        W75111  44.593  38.574  11.102
 3496W        W75112   0.777   7.689   3.777
 3497W        W75113  10.892  43.078   1.440
 3498W        W75114  10.838  42.977  10.659
 3499W        W75115  39.024  29.408   4.099
 3500W        W75116  35.082  25.242  12.005
 3501W        W75117  26.538  42.502  12.472
 3502W        W75118  42.511  36.104  13.874
 3503W        W75119  34.920   0.342   1.995
 3504W        W75120  15.690  18.336   1.485
 3505W        W75121  34.879  37.323  14.902
 3506W        W75122   5.387  39.517  14.373
 3507W        W75123  19.640  12.301   2.266
 3508W        W75124   9.182  26.791  12.471
 3509W        W75125  10.086  25.028   3.611
 3510W        W75126  42.194  37.611   0.234
 3511W        W75127  30.887  15.141   4.533
 3512W        W75128  12.979  23.849  13.849
 3513W        W75129  39.345  24.242   3.253
 3514W        W75130  25.687  37.995  14.960
 3515W        W75131   2.027  16.070   1.652
 3516W        W75132   4.750  32.307  14.063
 3517W        W75133  21.385  22.055   1.526
 3518W        W75134  20.504  18.832   0.284
 3519W        W75135  21.708  30.096  12.528
 3520W        W75136  11.744  31.224  13.863
 3521W        W75137  32.349  38.295  13.761
 3522W        W75138  24.942  43.163   1.911
 3523W        W75139  33.520   7.897  11.154
 3524W        W75140   3.767   7.919   4.817
 3525W        W75141  32.008  12.155   4.084
 3526W        W75142  19.237  38.436  11.919
 3527W        W75143   0.054  27.090   1.717
 3528W        W75144  28.016  14.004   9.709
 3529W        W75145  39.526  27.653  12.504
 3530W        W75146  42.827  23.811  12.514
 3531W        W75147  43.365  34.829   1.810
 3532W        W75148  29.487   1.214  11.131
 3533W        W75149  21.532  39.736  13.454
 3534W        W75150  27.895  29.466   3.066
 3535W        W75151  35.419  15.401  13.387
 3536W        W75152  39.927  15.325   1.730
 3537W        W75153  40.367   7.671  12.985
 3538W        W75154   3.899  20.580   2.279
 3539W        W75155  27.061  33.366   1.885
 3540W        W75156  29.272  44.239  14.910
 3541W        W75157  26.218  12.409  14.473
 3542W        W75158   3.788   8.495  12.032
 3543W        W75159  28.983  22.656  11.015
 3544W        W75160  14.273  36.012   4.569
 3545W        W75161   7.811  17.170  11.156
 3546W        W75162  30.425   6.054   0.675
 3547W        W75163  10.135  16.332   1.505
 3548W        W75164   7.694  13.174   4.397
 3549W        W75165  29.521  31.023   4.111
 3550W        W75166  42.969  15.304   3.205
 3551W        W75167  11.697  26.031   1.372
 3552W        W75168   8.439  30.640   3.856
 3553W        W75169  17.191  28.263  11.714
 3554W        W75170  38.939   3.558   3.665
 3555W        W75171  20.966  29.061  10.588
 3556W        W75172  12.362   6.773  10.850
 3557W        W75173  24.413   8.828  10.598
 3558W        W75174  32.106   7.698   2.216
 3559W        W75175  36.937  14.888   2.583
 3560W        W75176  28.992  43.493   2.321
 3561W        W75177  29.718   5.124   1.025
 3562W        W75178   6.334  23.513  12.120
 3563W        W75179  23.547  13.085   4.444
 3564W        W75180  39.136  44.724  11.987
 3565W        W75181  25.191  14.233   0.544
 3566W        W75182  31.200  34.361  12.401
 3567W        W75183  33.821  11.658   1.338
 3568W        W75184   9.669   6.362  14.221
 3569W        W75185  16.021  20.238  12.430
 3570W        W75186   3.557  18.170   3.170
 3571W        W75187  20.139   4.865  13.629
 3572W        W75188  14.884   1.757  12.581
 3573W        W75189  29.082  14.197   1.503
 3574W        W75190   9.038  30.370   2.737
 3575W        W75191  21.354   8.689   0.304
 3576W        W75192  29.704  22.068   1.887
 3577W        W75193  40.994  22.733   0.159
 3578W        W75194  41.795  44.241   1.164
 3579W        W75195  13.662  33.586  13.665
 3580W        W75196  15.155   9.829   2.030
 3581W        W75197  18.741  28.685  11.881
 3582W        W75198  19.580  27.084   1.616
 3583W        W75199  28.984  41.278  14.800
 3584W        W75200  19.565  31.901  14.920
 3585W        W75201  22.581  43.875   3.757
 3586W        W75202  36.816  38.512   3.852
 3587W        W75203  32.865  21.129  14.361
 3588W        W75204  25.387   4.883   3.202
 3589W        W75205  15.260  42.926  11.109
 3590W        W75206  34.114  27.872   1.650
 3591W        W75207   9.575  11.405   0.353
 3592W        W75208  42.470  43.252  14.891
 3593W        W75209  28.951  17.643  14.384
 3594W        W75210  29.980  23.785   4.518
 3595W        W75211  26.178  30.447  14.235
 3596W        W75212   6.501  39.063  13.849
 3597W        W75213  10.760  19.697  12.920
 3598W        W75214  30.390  23.354   2.348
 3599W        W75215  14.108  37.480   2.713
 3600W        W75216   1.992  10.104  12.213
 3601W        W75217  15.593  37.642  11.775
 3602W        W75218  39.902  38.265  13.328
 3603W        W75219  33.922  25.152  13.377
 3604W        W75220   0.417  15.803   4.610
 3605W        W75221   8.708   7.751   0.066
 3606W        W75222  38.973   5.105  12.471
 3607W        W75223  14.820  26.126  13.600
 3608W        W75224  42.991  38.461   4.746
 3609W        W75225  21.769  40.293   0.407
 3610W        W75226  25.436  28.122   3.164
 3611W        W75227   1.931  40.519   3.379
 3612W        W75228  27.663  19.323   3.166
 3613W        W75229  10.282  20.805   4.925
 3614W        W75230  35.598  27.156   4.721
 3615W        W75231   0.453   4.225   0.184
 3616W        W75232   1.397  31.242   0.810
 3617W        W75233  15.421  30.262   4.961
 3618W        W75234   9.054  31.917   1.357
 3619W        W75235  26.660  25.027  13.148
 3620W        W75236  19.249   7.844  11.288
 3621W        W75237   6.528  31.033   3.066
 3622W        W75238   5.103   3.841  14.378
 3623W        W75239  29.896  12.747   0.855
 3624W        W75240  20.776  34.627  13.866
 3625W        W75241  14.521  30.378  12.567
 3626W        W75242   4.769   0.740   3.822
 3627W        W75243  12.296  23.297  13.231
 3628W        W75244  42.685  43.164   2.678
 3629W        W75245  40.460   4.494  13.227
 3630W        W75246  41.360  21.187  10.479
 3631W        W75247  39.779   8.210   2.308
 3632W        W75248   3.998  33.373  14.988
 3633W        W75249  26.619  31.437   2.315
 3634W        W75250   0.794   1.725  11.802
 3635W        W75251  38.854   6.424   3.740
 3636W        W75252  27.555   5.628  13.078
 3637W        W75253   2.202  24.237   0.950
 3638W        W75254  22.037  10.494  11.563
 3639W        W75255  19.993  31.111   3.359
 3640W        W75256   3.808  35.848   2.330
 3641W        W75257   5.270  25.116   1.176
 3642W        W75258  40.587  15.154   1.040
 3643W        W75259  18.093  14.728  13.837
 3644W        W75260  37.418  13.786  12.544
 3645W        W75261  14.544  32.118  12.092
 3646W        W75262  40.120  17.093  10.572
 3647W        W75263  16.657  22.521  14.204
 3648W        W75264  10.278   3.528  14.437
 3649W        W75265  19.257  12.228   0.263
 3650W        W75266   9.596  41.976  13.909
 3651W        W75267  29.266  31.421   0.651
 3652W        W75268   9.177  17.371  12.548
 3653W        W75269  36.094  30.632  12.334
 3654W        W75270  26.557  21.009  13.718
 3655W        W75271  31.661  40.421   0.331
 3656W        W75272  10.592  33.616   1.844
 3657W        W75273  28.003  35.877   4.109
 3658W        W75274  35.466  37.824  10.852
 3659W        W75275  30.814  16.851   1.297
 3660W        W75276  32.839   1.442  13.007
 3661W        W75277  31.092   7.376  14.004
 3662W        W75278  29.020  20.062  10.404
 3663W        W75279   8.912  12.547   0.047
 3664W        W75280  31.582  22.473  12.508
 3665W        W75281   6.965   5.295  11.251
 3666W        W75282   4.009  21.686   2.662
 3667W        W75283   7.445  33.366   3.858
 3668W        W75284  43.260  26.158   2.822
 3669W        W75285  20.127  24.780   0.750
 3670W        W75286  30.017  40.331   2.021
 3671W        W75287  42.595  23.150  11.889
 3672W        W75288  23.570  29.558  12.077
 3673W        W75289   1.947  29.024   0.667
 3674W        W75290  28.881  25.193   1.115
 3675W        W75291  26.023   5.206  10.735
 3676W        W75292  39.462  20.588   3.713
 3677W        W75293  14.552  36.548  14.321
 3678W        W75294  12.329  15.585  14.861
 3679W        W75295  19.641   9.643  13.049
 3680W        W75296  14.271  42.471   3.175
 3681W        W75297   1.568  38.031  12.573
 3682W        W75298  34.159  11.919  10.736
 3683W        W75299  25.758  37.347   3.613
 3684W        W75300  29.077  41.150  12.142
 3685W        W75301  20.362  42.294  12.038
 3686W        W75302  11.580  36.525   2.714
 3687W        W75303  25.712  33.216  11.021
 3688W        W75304  20.260  32.416   2.863
 3689W        W75305  25.487  11.926  12.926
 3690W        W75306  32.334  21.172  14.420
 3691W        W75307  12.183   3.387   4.607
 3692W        W75308   6.222  43.366  11.955
 3693W        W75309  39.497  41.386   4.053
 3694W        W75310   8.707  36.873   2.368
 3695W        W75311  19.670  20.797  11.105
 3696W        W75312  33.033  43.848  10.850
 3697W        W75313  37.380  22.119   2.760
 3698W        W75314  36.196   7.391  11.182
 3699W        W75315   2.524  42.512  11.957
 3700W        W75316   5.242  17.980   1.442
 3701W        W75317   8.818  20.683  11.128
 3702W        W75318  37.617  34.097  11.575
 3703W        W75319  41.307   5.873   4.657
 3704W        W75320  10.031  25.328   4.102
 3705W        W75321  17.722   8.214   4.107
 3706W        W75322  41.065  32.019  14.988
 3707W        W75323  19.971  40.968   2.164
 3708W        W75324   7.124  38.419   3.143
 3709W        W75325  40.053  12.795  13.556
 3710W        W75326  21.701   9.284   2.366
 3711W        W75327   5.698   5.439  14.450
 3712W        W75328  18.001  10.370  10.530
 3713W        W75329  12.591   1.015  12.502
 3714W        W75330   1.085   3.697  12.388
 3715W        W75331  16.372  24.678   1.480
 3716W        W75332  43.467   4.406  13.059
 3717W        W75333  38.313   8.088   2.707
 3718W        W75334  15.012  40.299  11.967
 3719W        W75335  24.266  31.881   3.647
 3720W        W75336   8.347  29.453  12.567
 3721W        W75337  33.727  28.044   1.965
 3722W        W75338  42.813   9.625   2.208
 3723W        W75339  33.463   8.877  14.065
 3724W        W75340  20.634  30.133   1.291
 3725W        W75341  13.069  22.591   3.594
 3726W        W75342  38.385   8.884  11.785
 3727W        W75343  15.439   7.325  14.794
 3728W        W75344  19.945   8.264   2.710
 3729W        W75345   3.948  35.554  14.014
 3730W        W75346  14.698  43.921  13.332
 3731W        W75347  14.200  37.646   0.382
 3732W        W75348   7.993  29.071  12.492
 3733W        W75349  44.669  21.995   4.562
 3734W        W75350  26.924  10.562  11.166
 3735W        W75351  27.407   6.321   3.122
 3736W        W75352  28.000   0.515   4.401
 3737W        W75353  26.071  38.807  14.364
 3738W        W75354  29.975  26.159  13.470
 3739W        W75355   1.887  26.006   1.820
 3740W        W75356  28.783  42.017  12.661
 3741W        W75357  31.573   3.524   0.693
 3742W        W75358  24.416  23.502   0.328
 3743W        W75359  40.263   1.783  10.672
 3744W        W75360  19.975  41.000   0.273
 3745W        W75361  18.819  13.872   4.981
 3746W        W75362  21.087  14.079  10.161
 3747W        W75363  20.947   4.096   0.962
 3748W        W75364  26.041  12.825   2.299
 3749W        W75365  41.710  23.506   1.401
 3750W        W75366  34.048  12.321  13.715
 3751W        W75367   3.216  12.545  12.204
 3752W        W75368   9.424  41.032   1.316
 3753W        W75369  30.676  33.582   1.943
 3754W        W75370  13.338  19.254  10.630
 3755W        W75371  21.492  43.373  11.847
 3756W        W75372  31.168  34.433  11.509
 3757W        W75373  26.609  30.535   4.544
 3758W        W75374  27.572   7.108   4.965
 3759W        W75375  35.921  34.455  12.361
 3760W        W75376   8.237   3.497   3.769
 3761W        W75377  31.177   4.195  14.440
 3762W        W75378  14.273   2.891  11.253
 3763W        W75379   2.491  25.448   3.243
 3764W        W75380  14.022  31.750   5.235
 3765W        W75381  22.821  11.739  14.303
 3766W        W75382  34.910  33.086  10.563
 3767W        W75383  31.110  20.636  11.200
 3768W        W75384  39.265  33.970   2.663
 3769W        W75385  14.310   5.795  12.931
 3770W        W75386  10.216  27.124   4.359
 3771W        W75387   0.001  13.350   4.679
 3772W        W75388  10.153  30.187   1.396
 3773W        W75389  33.576   4.565   1.056
 3774W        W75390  21.076  25.226   4.120
 3775W        W75391  42.529   9.669   0.810
 3776W        W75392  33.486   0.793   1.716
 3777W        W75393   5.392  13.908   0.793
 3778W        W75394  27.204  42.755  14.833
 3779W        W75395  38.794  14.643  14.062
 3780W        W75396  18.151  35.958   2.761
 3781W        W75397  42.003  17.105  11.375
 3782W        W75398  33.427  24.728   0.063
 3783W        W75399  42.233  29.610   2.275
 3784W        W75400  12.857   0.913   4.130
 3785W        W75401  26.100   2.056   3.262
 3786W        W75402  19.494  29.670   2.236
 3787W        W75403  22.114  17.115  13.477
 3788W        W75404  19.106  31.600  14.025
 3789W        W75405   8.215  24.952  11.177
 3790W        W75406   7.362  20.282   0.268
 3791W        W75407  22.278  37.265  13.549
 3792W        W75408  30.076  22.889  13.469
 3793W        W75409  14.357  36.586  12.512
 3794W        W75410  30.560  26.110  14.995
 3795W        W75411  37.535   7.878  10.660
 3796W        W75412  16.531  16.652   0.129
 3797W        W75413  35.264  35.391   4.150
 3798W        W75414  36.477  24.442  10.710
 3799W        W75415  42.000  37.622   2.324
 3800W        W75416  30.871  22.090   0.754
 3801W        W75417   3.793  24.553  14.750
 3802W        W75418   1.406  42.034  11.529
 3803W        W75419  12.195  12.248   4.309
 3804W        W75420  16.324  34.339  12.480
 3805W        W75421  18.448   7.304  10.830
 3806W        W75422  12.023  14.796   0.212
 3807W        W75423  33.759  36.482  11.116
 3808W        W75424  18.325   5.143  13.863
 3809W        W75425  40.909  13.520   3.693
 3810W        W75426   8.286  22.280   1.201
 3811W        W75427  22.619  16.260  13.471
 3812W        W75428  33.521  43.768  14.390
 3813W        W75429   5.239  20.975  11.216
 3814W        W75430  10.895  36.643   4.684
 3815W        W75431  24.328  28.976   2.352
 3816W        W75432  20.291  28.329  11.230
 3817W        W75433   0.199   7.866   1.302
 3818W        W75434  37.212  37.601  13.911
 3819W        W75435  11.108  38.603   1.846
 3820W        W75436  22.836  11.095   0.879
 3821W        W75437   7.313  10.741  12.950
 3822W        W75438   8.483   3.399   0.669
 3823W        W75439  30.463  13.349   1.370
 3824W        W75440  12.649  16.811   0.392
 3825W        W75441  25.002  16.236   1.457
 3826W        W75442  34.878  17.562   0.416
 3827W        W75443   7.721   8.712   2.685
 3828W        W75444   1.226  39.139  13.887
 3829W        W75445   0.388   7.244  12.294
 3830W        W75446  16.921  19.114   4.323
 3831W        W75447  23.549  25.558   1.841
 3832W        W75448  21.262   5.953   1.944
 3833W        W75449  23.420  26.053  11.618
 3834W        W75450  39.903   2.947   3.744
 3835W        W75451   4.727  34.039   0.293
 3836W        W75452  11.141  20.083  11.846
 3837W        W75453  11.215  21.626  10.660
 3838W        W75454  19.655  13.491   2.952
 3839W        W75455   0.188  21.157  10.544
 3840W        W75456  41.299  15.764  10.925
 3841W        W75457  44.922   7.785  13.078
 3842W        W75458  18.237  20.630  11.022
 3843W        W75459  10.007  17.324  11.610
 3844W        W75460  23.196   2.410   2.921
 3845W        W75461  44.253  40.662   5.026
 3846W        W75462  20.208  12.147   4.168
 3847W        W75463   4.867  38.873   1.872
 3848W        W75464  22.835   7.243  11.912
 3849W        W75465  18.639  21.237  13.673
 3850W        W75466  38.823  18.767  12.020
 3851W        W75467   6.229  40.826  10.628
 3852W        W75468  25.310  29.761   2.876
 3853W        W75469  16.068  32.936   3.641
 3854W        W75470  30.093   0.512   1.354
 3855W        W75471  20.948  24.258   3.237
 3856W        W75472   2.090  21.820  10.323
 3857W        W75473  35.676  38.441   1.932
 3858W        W75474  33.349   3.494  14.790
 3859W        W75475   7.381   1.834  12.956
 3860W        W75476  18.519  29.589  14.306
 3861W        W75477  35.068  35.525   2.145
 3862W        W75478  28.911  42.403  13.866
 3863W        W75479  16.961  31.399  11.970
 3864W        W75480  14.711  16.882  12.965
 3865W        W75481   8.357  15.222  11.473
 3866W        W75482   2.365  24.223  10.293
 3867W        W75483   1.311  25.073  14.860
 3868W        W75484  26.060  13.565   3.344
 3869W        W75485  24.976   5.665  13.913
 3870W        W75486   6.748  40.037   0.402
 3871W        W75487  43.263  44.743  11.604
 3872W        W75488   0.888  32.974  14.010
 3873W        W75489   5.438  36.944   3.215
 3874W        W75490  34.920  36.663   4.996
 3875W        W75491  21.038  13.459  12.502
 3876W        W75492  20.293  21.205  14.561
 3877W        W75493   4.459   7.750   0.942
 3878W        W75494  14.026  15.501  12.869
 3879W        W75495  26.323  20.215  12.355
 3880W        W75496  36.492   8.706   0.026
 3881W        W75497  20.908  37.787   1.401
 3882W        W75498  27.111  22.747  10.513
 3883W        W75499  23.712  13.121  11.846
 3884W        W75500  43.044  18.765   1.317
 3885W        W75501   9.278  44.220  11.136
 3886W        W75502  20.764   1.971   2.767
 3887W        W75503   4.035   4.837  12.033
 3888W        W75504  28.394  22.267   2.242
 3889W        W75505  26.693  17.056  11.409
 3890W        W75506  19.197   2.276  14.117
 3891W        W75507  32.976   3.845   1.754
 3892W        W75508  19.048  17.025   4.433
 3893W        W75509   4.769  11.755  13.362
 3894W        W75510   6.162  27.559   1.871
 3895W        W75511  20.307  37.699   1.916
 3896W        W75512   6.913  27.664  12.070
 3897W        W75513  16.286  15.043  11.018
 3898W        W75514  14.400  34.614  12.492
 3899W        W75515  41.093  28.465   3.145
 3900W        W75516  36.804  35.990   0.506
 3901W        W75517   6.869   6.138  13.512
 3902W        W75518  26.442   5.285   0.165
 3903W        W75519   4.944   0.450   3.441
 3904W        W75520  36.819  36.065  12.417
 3905W        W75521  44.949   1.943   2.354
 3906W        W75522  36.279  28.629  14.002
 3907W        W75523  31.792   7.112   1.127
 3908W        W75524  19.651   6.438   3.819
 3909W        W75525  24.981  33.810  11.479
 3910W        W75526  29.157  20.314  13.729
 3911W        W75527  28.938  29.124  13.653
 3912W        W75528   8.678  35.623  12.446
 3913W        W75529  42.194  34.647  13.885
 3914W        W75530  14.099  13.716  11.213
 3915W        W75531  33.438  14.787   1.308
 3916W        W75532  23.691  38.748   3.172
 3917W        W75533  10.005  33.867   0.846
 3918W        W75534   9.229  25.156   0.367
 3919W        W75535   6.679  36.535  10.768
 3920W        W75536  44.718  32.508   2.773
 3921W        W75537   9.418   7.699  13.362
 3922W        W75538  39.989  36.332  13.428
 3923W        W75539  44.551  40.828   3.813
 3924W        W75540  43.252  28.950  13.043
 3925W        W75541  29.092  31.904   0.702
 3926W        W75542  22.592  26.610  14.474
 3927W        W75543  15.428  18.812   0.306
 3928W        W75544  15.979  20.017   0.417
 3929W        W75545  14.229  36.524   1.181
 3930W        W75546  33.580  40.867   3.886
 3931W        W75547   4.577   1.745  12.908
 3932W        W75548  16.280   4.755   0.022
 3933W        W75549  37.410   9.454  11.662
 3934W        W75550  24.479  11.925  13.394
 3935W        W75551  23.968  22.225  11.987
 3936W        W75552  22.612  32.192  10.778
 3937W        W75553   3.308  31.590  10.737
 3938W        W75554  35.698  24.114   3.229
 3939W        W75555  21.528  13.174  11.572
 3940W        W75556  22.798   7.900   2.861
 3941W        W75557  34.339   6.593  10.684
 3942W        W75558  21.194   7.379   4.281
 3943W        W75559  14.182   9.174   2.869
 3944W        W75560  43.517  39.943   2.580
 3945W        W75561  35.054  12.612   0.726
 3946W        W75562  42.069   1.010  13.990
 3947W        W75563  22.205  33.107   3.457
 3948W        W75564   1.400   8.358   2.446
 3949W        W75565  34.957   4.275  10.405
 3950W        W75566  23.048   8.733  12.100
 3951W        W75567  15.983  12.995   4.180
 3952W        W75568   1.143  11.588   2.678
 3953W        W75569   5.097   1.806   4.472
 3954W        W75570   0.229  11.377  10.571
 3955W        W75571   5.672  18.307   0.408
 3956W        W75572  17.633  22.625   2.736
 3957W        W75573  34.924   6.416   3.592
 3958W        W75574  37.413  40.676   3.007
 3959W        W75575  15.172  37.060   2.887
 3960W        W75576   9.619  32.018  14.881
 3961W        W75577  19.759  22.194  11.346
 3962W        W75578  32.091  37.615  14.411
 3963W        W75579   8.940   6.839  11.071
 3964W        W75580  28.398   8.851   4.144
 3965W        W75581  42.605   5.418  14.633
 3966W        W75582  31.859   5.676  14.775
 3967W        W75583  21.960  23.969   5.038
 3968W        W75584  11.441  32.512  11.621
 3969W        W75585  18.270  31.092   5.019
 3970W        W75586  30.742  40.988   0.777
 3971W        W75587  21.049  17.851   2.397
 3972W        W75588  17.280  16.576   0.807
 3973W        W75589  42.582  41.761  14.601
 3974W        W75590  27.641  10.254   4.158
 3975W        W75591  44.260  28.455  12.337
 3976W        W75592  26.056  12.260   3.663
 3977W        W75593  42.290  37.566  11.995
 3978W        W75594  36.606  15.905   5.089
 3979W        W75595  33.640  36.365   0.495
 3980W        W75596   4.144   1.694  14.245
 3981W        W75597  16.668  36.558   1.287
 3982W        W75598  13.725  39.000   2.409
 3983W        W75599  31.853  12.730  13.183
 3984W        W75600  19.079   2.253   0.439
 3985W        W75601   9.880  17.863  11.602
 3986W        W75602  10.882  41.813   0.250
 3987W        W75603  34.650  13.293  12.309
 3988W        W75604  17.794  21.438  13.547
 3989W        W75605  26.560  36.904   4.090
 3990W        W75606  16.371  37.943   4.138
 3991W        W75607  34.124  18.734  13.116
 3992W        W75608   4.001  12.585   2.559
 3993W        W75609  41.528  33.223   1.541
 3994W        W75610  13.413  14.664   2.232
 3995W        W75611  36.988  28.339   2.691
 3996W        W75612  44.754  37.993  10.564
 3997W        W75613  26.763  20.259   0.791
 3998W        W75614   8.626  39.818  11.447
 3999W        W75615  27.456  20.215   3.044
 4000W        W75616  14.256  19.607   1.465
 4001W        W75617  22.746  25.653   2.372
 4002W        W75618  31.672  37.064   1.412
 4003W        W75619  27.217  25.932   4.314
 4004W        W75620  21.116  29.533  12.822
 4005W        W75621  10.596  29.383  10.422
 4006W        W75622  29.411   4.416   2.896
 4007W        W75623  32.694  15.654  11.683
 4008W        W75624  30.111   3.102  13.086
 4009W        W75625   6.942  43.496  12.502
 4010W        W75626  18.199  22.487  10.908
 4011W        W75627  35.771  34.476  11.015
 4012W        W75628  43.907  31.981   2.659
 4013W        W75629   5.118   7.235   1.758
 4014W        W75630  28.183  40.495   1.429
 4015W        W75631  29.948   1.045   3.645
 4016W        W75632  34.160  42.446   0.504
 4017W        W75633  28.223   3.311   3.656
 4018W        W75634  11.104  38.357  10.562
 4019W        W75635  42.630  10.793   2.394
 4020W        W75636  17.538  44.633   0.882
 4021W        W75637   7.228  10.162  10.656
 4022W        W75638  38.156   2.214  12.390
 4023W        W75639   5.692  23.695  10.624
 4024W        W75640  43.542  23.019   3.740
 4025W        W75641  11.341  38.975   0.338
 4026W        W75642  20.855  12.700   5.020
 4027W        W75643  16.306   1.845   4.035
 4028W        W75644   6.734   8.663  10.969
 4029W        W75645  25.610   1.633   4.926
 4030W        W75646  23.237  40.612  14.958
 4031W        W75647  17.980   9.757  10.949
 4032W        W75648  30.248   9.734  14.043
 4033W        W75649  22.756   3.910   3.903
 4034W        W75650  28.591  27.704  12.863
 4035W        W75651  22.784  39.407   2.792
 4036W        W75652   7.616   9.282   1.893
 4037W        W75653  34.140  43.893  14.570
 4038W        W75654  21.933  28.043   1.904
 4039W        W75655  22.806  12.111  13.926
 4040W        W75656   8.186   9.751   1.462
 4041W        W75657  19.118  16.307   2.657
 4042W        W75658  13.662   3.331   0.504
 4043W        W75659  11.193   7.286  11.386
 4044W        W75660  42.644  29.533  11.345
 4045W        W75661  32.938   8.826   4.335
 4046W        W75662  26.383  36.301   2.703
 4047W        W75663  31.380  27.436   2.904
 4048W        W75664   0.592  23.454   9.856
 4049W        W75665  30.631  29.996  12.463
 4050W        W75666  16.641  29.400   4.699
 4051W        W75667  26.440  38.751  11.955
 4052W        W75668  40.087   8.668   2.206
 4053W        W75669   1.728  25.742  11.893
 4054W        W75670   0.903  23.721  10.324
 4055W        W75671   7.315   0.212   1.292
 4056W        W75672  42.458  27.020  14.033
 4057W        W75673  16.056  23.106  10.601
 4058W        W75674  20.530  18.229   3.672
 4059W        W75675  24.740  16.657  12.860
 4060W        W75676  17.134   8.231  13.041
 4061W        W75677   9.019   1.176  13.709
 4062W        W75678  31.481  27.935   2.296
 4063W        W75679  12.450  17.431   0.238
 4064W        W75680  20.150  18.495  12.139
 4065W        W75681  10.553  33.025  14.121
 4066W        W75682  17.442  33.489  12.683
 4067W        W75683  13.003   1.304   3.247
 4068W        W75684  22.285   3.854   0.994
 4069W        W75685  15.406  29.724   1.291
 4070W        W75686  27.652   4.928  13.305
 4071W        W75687   4.815  16.729  11.943
 4072W        W75688  27.177  20.243  14.034
 4073W        W75689  28.664  37.883   1.532
 4074W        W75690  38.078  43.855  14.777
 4075W        W75691  29.470  16.317  10.679
 4076W        W75692   0.401  26.870  13.175
 4077W        W75693  33.484  24.560   3.304
 4078W        W75694  40.054  17.059  12.312
 4079W        W75695   5.250  34.471  12.357
 4080W        W75696  21.497  33.118  11.542
 4081W        W75697  12.291   6.650   0.402
 4082W        W75698  14.310  13.049  13.338
 4083W        W75699  12.375   7.715  12.838
 4084W        W75700   2.009  33.570  13.055
 4085W        W75701  37.860   1.278   0.715
 4086W        W75702  38.859  44.802  12.454
 4087W        W75703  13.786  31.128  13.396
 4088W        W75704   2.494   2.427   1.295
 4089W        W75705   7.156  32.109   2.174
 4090W        W75706  23.892  14.738   0.257
 4091W        W75707  22.207   5.991  11.187
 4092W        W75708   7.502  10.252   1.249
 4093W        W75709  39.973   6.453   2.581
 4094W        W75710  26.867  27.497  12.962
 4095W        W75711  25.239  22.091   4.069
 4096W        W75712  13.591  43.905  10.609
 4097W        W75713  43.326  31.375   2.767
 4098W        W75714  41.982  44.951   1.275
 4099W        W75715   1.705  42.487  14.393
 4100W        W75716   3.419  27.615   1.232
 4101W        W75717  30.268  29.573   2.423
 4102W        W75718  13.878  19.713  12.621
 4103W        W75719   4.477  41.329  12.970
 4104W        W75720   4.451  34.904   3.690
 4105W        W75721   6.905  15.011  14.976
 4106W        W75722  18.060   2.662   0.964
 4107W        W75723   7.394  30.165  14.544
 4108W        W75724  25.478  22.137   1.791
 4109W        W75725  12.215  14.595   0.663
 4110W        W75726  14.096  43.253   9.959
 4111W        W75727  20.130   1.256   2.466
 4112W        W75728  30.836  22.178   4.589
 4113W        W75729  40.995   3.805  13.292
 4114W        W75730   6.510  24.723   1.096
 4115W        W75731  13.344  28.576  10.916
 4116W        W75732  24.689  23.795  12.969
 4117W        W75733  23.067   4.849   2.995
 4118W        W75734  21.177  41.289   1.761
 4119W        W75735  41.600  33.975   3.303
 4120W        W75736  27.168  43.371   3.896
 4121W        W75737  34.077  28.469   3.741
 4122W        W75738  18.184   5.777  14.507
 4123W        W75739  42.839   1.750   4.108
 4124W        W75740  29.687  25.491  12.133
 4125W        W75741  37.010   8.855  11.449
 4126W        W75742  44.800  32.405  14.073
 4127W        W75743  31.244  10.181   0.442
 4128W        W75744  35.529  12.419   2.327
 4129W        W75745  41.326   9.971   0.415
 4130W        W75746  41.572  25.945   3.370
 4131W        W75747  14.724  24.583   0.226
 4132W        W75748  30.955  15.516  14.348
 4133W        W75749  22.270  20.042   0.632
 4134W        W75750   5.265  25.673   1.256
 4135W        W75751  23.694  14.627  10.721
 4136W        W75752  10.236  41.346  14.697
 4137W        W75753  27.543   4.688  14.168
 4138W        W75754  26.909  32.611   4.053
 4139W        W75755  24.180  13.644   0.778
 4140W        W75756   0.285  34.612   4.667
 4141W        W75757  40.010  11.493   9.823
 4142W        W75758   1.238   1.753   2.850
 4143W        W75759  18.481  40.493  11.077
 4144W        W75760  10.620   3.952   3.261
 4145W        W75761  11.342  24.809   3.297
 4146W        W75762   4.704  39.869   1.890
 4147W        W75763  37.122  28.055   2.237
 4148W        W75764  16.196  15.057  12.141
 4149W        W75765  43.893  31.674  12.670
 4150W        W75766  23.513  40.964  13.466
 4151W        W75767   2.801  41.026  14.474
 4152W        W75768  22.532  12.384   2.828
 4153W        W75769  31.553  28.130   3.179
 4154W        W75770  35.463  43.261  13.936
 4155W        W75771   3.350   1.077  11.978
 4156W        W75772  14.095  21.897  13.021
 4157W        W75773   2.285  28.637   1.429
 4158W        W75774   5.841  26.088   2.263
 4159W        W75775  17.224  27.139  14.965
 4160W        W75776  29.958   6.931   4.122
 4161W        W75777  34.836  22.638  10.209
 4162W        W75778  36.526  11.828   0.322
 4163W        W75779  11.839  20.781   0.801
 4164W        W75780  40.448  16.836  12.070
 4165W        W75781   3.865  20.185   1.753
 4166W        W75782   8.763  16.613  11.129
 4167W        W75783  11.876   1.538  13.261
 4168W        W75784   6.360  24.046  13.473
 4169W        W75785  17.171  39.329   2.071
 4170W        W75786  20.679  20.049   3.674
 4171W        W75787   5.654  35.011  14.153
 4172W        W75788  22.179  15.583   0.235
 4173W        W75789  32.903  39.598  14.913
 4174W        W75790   4.451  12.280   0.071
 4175W        W75791  42.267   0.029   2.536
 4176W        W75792   9.122   0.950   3.158
 4177W        W75793  38.806  33.558  13.026
 4178W        W75794  24.792  26.183  11.171
 4179W        W75795  23.171  21.345  13.917
 4180W        W75796   6.365  18.086  11.417
 4181W        W75797   8.354  19.695   4.683
 4182W        W75798  43.025  16.357  10.650
 4183W        W75799  35.903   4.728   2.825
 4184W        W75800  16.015  39.719   2.690
 4185W        W75801  22.855   2.340  12.777
 4186W        W75802   3.903  39.536  13.092
 4187W        W75803  31.059  43.711   2.771
 4188W        W75804   3.925  35.977  12.472
 4189W        W75805  40.576  12.147  10.216
 4190W        W75806  40.064  21.462   2.388
 4191W        W75807  27.480  41.289   2.380
 4192W        W75808  33.158  11.875  14.424
 4193W        W75809  31.616  20.518   0.941
 4194W        W75810   2.735  21.735   0.982
 4195W        W75811   9.112  27.901  14.462
 4196W        W75812  26.541  41.774  11.964
 4197W        W75813  25.202  16.270  11.675
 4198W        W75814  42.895  37.038   3.091
 4199W        W75815  34.948  34.533   0.604
 4200W        W75816   7.132  37.369  11.131
 4201W        W75817   1.168   5.330  13.924
 4202W        W75818  25.153  13.829   4.575
 4203W        W75819  34.865  27.386  10.631
 4204W        W75820  39.599  36.873  14.592
 4205W        W75821   4.746  34.607   0.295
 4206W        W75822  17.288  28.936   3.232
 4207W        W75823  12.695  30.875  14.007
 4208W        W75824  14.701  38.089  11.597
 4209W        W75825  30.569  28.170  10.927
 4210W        W75826   9.700  41.781  12.091
 4211W        W75827   2.479  42.034  14.381
 4212W        W75828   0.753  32.042   1.600
 4213W        W75829  14.177  40.219  11.606
 4214W        W75830   1.507  33.107  12.486
 4215W        W75831   6.773  12.815   3.265
 4216W        W75832  42.274  27.393  12.029
 4217W        W75833  40.359  44.776   3.138
 4218W        W75834  23.579   7.610  11.283
 4219W        W75835  13.172  26.757   3.660
 4220W        W75836  41.789  26.205  12.940
 4221W        W75837   9.661  22.604  14.830
 4222W        W75838  44.463  40.335  14.772
 4223W        W75839  43.055  31.659  12.635
 4224W        W75840  18.777   1.501   2.403
 4225W        W75841  37.413  44.973  11.858
 4226W        W75842  31.022   0.229  13.520
 4227W        W75843  33.362   9.810  13.955
 4228W        W75844  44.141  41.184  11.512
 4229W        W75845  13.676  11.905   1.802
 4230W        W75846   6.832  22.485   3.706
 4231W        W75847  32.474  36.101   3.128
 4232W        W75848  28.546  37.355   0.274
 4233W        W75849  19.941   6.434   4.242
 4234W        W75850  38.571  38.946   1.318
 4235W        W75851  20.983   4.333  10.766
 4236W        W75852   7.513  38.492  12.001
 4237W        W75853  38.211  37.544  11.077
 4238W        W75854  34.406   2.319   0.868
 4239W        W75855  22.345  18.013  13.495
 4240W        W75856  12.094  37.856  10.923
 4241W        W75857  16.123   8.657   2.194
 4242W        W75858  21.907  43.240   0.859
 4243W        W75859  25.020  14.050   2.122
 4244W        W75860   4.829   4.928   1.168
 4245W        W75861  30.337   2.148  11.426
 4246W        W75862  25.220   1.966   4.932
 4247W        W75863   2.299   9.716   1.521
 4248W        W75864   6.536  14.274  10.349
 4249W        W75865  19.052  31.740  12.670
 4250W        W75866  19.515   1.276   1.264
 4251W        W75867  44.316  23.560  13.531
 4252W        W75868   2.275  20.025  12.953
 4253W        W75869   2.820  18.692   2.320
 4254W        W75870  18.394  42.946  10.824
 4255W        W75871  26.239  23.767   1.694
 4256W        W75872  26.583  14.895  11.906
 4257W        W75873  31.596  33.655  13.843
 4258W        W75874  32.905  37.172   3.375
 4259W        W75875  27.897  22.176  11.697
 4260W        W75876  24.113  27.617  10.812
 4261W        W75877  30.978  39.831   4.553
 4262W        W75878  29.974  29.992  13.639
 4263W        W75879  19.831   5.266  14.792
 4264W        W75880  31.904  18.297  12.114
 4265W        W75881  21.273   3.664   0.877
 4266W        W75882  17.572   0.935  11.139
 4267W        W75883  28.721  30.245   5.004
 4268W        W75884  32.542  23.514   0.310
 4269W        W75885  37.475   8.305   4.186
 4270W        W75886  39.572  37.468   3.639
 4271W        W75887  27.227   4.858  12.517
 4272W        W75888  11.162  26.505   0.474
 4273W        W75889  10.664  19.533   0.324
 4274W        W75890   2.490  19.091   3.706
 4275W        W75891  23.501  30.386  12.985
 4276W        W75892  44.261  43.522  14.503
 4277W        W75893  29.751  18.616   2.307
 4278W        W75894  10.454  39.722  12.918
 4279W        W75895  13.747  33.565  14.181
 4280W        W75896  38.123  21.606  14.936
 4281W        W75897   0.903  44.267   3.118
 4282W        W75898   6.507  10.818  11.162
 4283W        W75899  15.365  41.816  13.991
 4284W        W75900  41.030   6.349   4.365
 4285W        W75901   4.300   6.680   3.830
 4286W        W75902   7.916  16.586   0.361
 4287W        W75903  21.745  35.897  11.138
 4288W        W75904  27.465  12.738   0.329
 4289W        W75905  26.318  22.683   3.615
 4290W        W75906  37.493  40.132   0.755
 4291W        W75907  35.746  18.415  14.497
 4292W        W75908  11.922  32.203  14.825
 4293W        W75909  33.913  12.869  12.005
 4294W        W75910  26.073  13.200  10.981
 4295W        W75911   8.814  20.763  12.147
 4296W        W75912  26.285  17.667   3.008
 4297W        W75913  24.986  18.630   3.108
 4298W        W75914  15.242  12.244   2.366
 4299W        W75915   9.673   9.314  10.721
 4300W        W75916  32.649  31.182  12.142
 4301W        W75917   0.466  19.727  13.595
 4302W        W75918  37.692  25.991   4.141
 4303W        W75919   0.306  35.302   1.318
 4304W        W75920  34.639  27.604  14.937
 4305W        W75921   9.172  31.042  13.168
 4306W        W75922  32.934  38.156  12.427
 4307W        W75923  20.218  29.601  12.605
 4308W        W75924  19.542  43.534   0.404
 4309W        W75925  24.229  11.662   4.555
 4310W        W75926  36.835  25.948   0.859
 4311W        W75927  27.821   6.761  11.121
 4312W        W75928  43.332  27.037   2.897
 4313W        W75929  28.120  36.620  13.770
 4314W        W75930  17.327  28.495  12.563
 4315W        W75931  23.282  17.646  12.409
 4316W        W75932  11.324   4.256   0.261
 4317W        W75933  24.157  41.413   4.993
 4318W        W75934  14.735  15.092  14.773
 4319W        W75935  23.432  13.322   2.683
 4320W        W75936  12.874  36.470   4.384
 4321W        W75937  43.586  38.869  10.514
 4322W        W75938  42.422   1.810   1.896
 4323W        W75939  22.363  21.169  12.920
 4324W        W75940  39.420  42.439  13.109
 4325W        W75941  17.197   5.740  12.931
 4326W        W75942  17.659  22.730   3.771
 4327W        W75943   2.854  36.465   4.714
 4328W        W75944  33.380  35.533  13.835
 4329W        W75945  39.536  32.607   3.652
 4330W        W75946   8.692  23.219  13.804
 4331W        W75947   6.111  40.044   1.800
 4332W        W75948  27.565  10.933  10.574
 4333W        W75949  16.889   3.036   1.625
 4334W        W75950  15.735  29.675  12.470
 4335W        W75951  20.791   5.045  11.113
 4336W        W75952  11.208   6.888  12.108
 4337W        W75953   1.310   3.714   3.793
 4338W        W75954  34.542  17.607   2.171
 4339W        W75955  26.635   6.736   4.728
 4340W        W75956  10.233  11.588   4.617
 4341W        W75957  11.187  39.808   0.122
 4342W        W75958  38.161  15.036  14.788
 4343W        W75959  40.362  29.609  12.441
 4344W        W75960   2.183  12.191   2.304
 4345W        W75961   2.413   5.912   2.189
 4346W        W75962   1.965   9.218   2.415
 4347W        W75963  12.139  23.562   4.574
 4348W        W75964  10.129  32.816   3.220
 4349W        W75965  41.242  10.672  10.977
 4350W        W75966  33.829   2.601   0.466
 4351W        W75967  31.637  32.437  13.794
 4352W        W75968  41.342  19.997  12.027
 4353W        W75969  36.619  25.144   3.174
 4354W        W75970  34.879  43.857   2.653
 4355W        W75971  23.086  39.612   1.436
 4356W        W75972  42.071   5.459   4.832
 4357W        W75973  38.952  42.749  13.825
 4358W        W75974  18.105  22.819   0.055
 4359W        W75975  39.586  21.711   0.787
 4360W        W75976  25.646  33.118   0.045
 4361W        W75977   1.353   1.365  12.848
 4362W        W75978  18.110  29.962  12.513
 4363W        W75979  27.897  32.507   4.899
 4364W        W75980  42.831  40.913   1.888
 4365W        W75981  21.299  10.737  14.317
 4366W        W75982  28.334  42.544   5.089
 4367W        W75983  31.190  38.262  11.231
 4368W        W75984  11.738   2.827  11.601
 4369W        W75985   7.155  18.790  14.218
 4370W        W75986  35.509   4.091  12.433
 4371W        W75987  34.152   9.325   3.630
 4372W        W75988  10.414  21.546   4.560
 4373W        W75989  29.406   1.919   4.243
 4374W        W75990  33.876  16.651   2.832
 4375W        W75991  14.271  17.295   3.187
 4376W        W75992  42.447  32.930   0.980
 4377W        W75993  23.861   1.738  14.793
 4378W        W75994  15.259   6.658   5.460
 4379W        W75995  24.168  21.523   1.208
 4380W        W75996  10.256   0.954  10.449
 4381W        W75997  38.486   6.257   4.735
 4382W        W75998  25.178   4.336   1.277
 4383W        W75999  26.131  42.810  13.386
 4384W        W76000  14.351  13.248  12.440
 4385W        W76001  10.215  25.219  14.502
 4386W        W76002  32.486   4.027   1.752
 4387W        W76003  43.029  17.009  11.915
 4388W        W76004  30.163   5.496  11.632
 4389W        W76005   1.194  17.175  11.997
 4390W        W76006  24.303  12.253  13.783
 4391W        W76007  43.419  34.291  12.564
 4392W        W76008  37.319  35.334  13.435
 4393W        W76009   3.623  12.983   5.179
 4394W        W76010  29.061  33.117   2.614
 4395W        W76011  18.517  25.697  11.932
 4396W        W76012  10.198  13.373   1.035
 4397W        W76013   1.202  24.516   2.231
 4398W        W76014  25.218  21.151   0.808
 4399W        W76015  27.883  21.293  12.519
 4400W        W76016  32.026  30.139  12.320
 4401W        W76017  37.393  39.472  14.821
 4402W        W76018  31.713  39.482   0.480
 4403W        W76019   4.139  29.072   1.322
 4404W        W76020  26.061   1.754   1.313
 4405W        W76021  11.361  15.186   1.982
 4406W        W76022  31.191  38.336   3.529
 4407W        W76023  42.741  36.656   5.030
 4408W        W76024   4.841  43.714   5.509
 4409W        W76025  30.466  36.062   0.757
 4410W        W76026  30.682  29.434  13.521
 4411W        W76027  34.851  44.074   1.183
 4412W        W76028  44.074  25.199  14.878
 4413W        W76029  40.344  15.507   1.364
 4414W        W76030  34.523  28.770  13.785
 4415W        W76031  42.152  43.313  14.053
 4416W        W76032  15.807  43.318   0.266
 4417W        W76033  16.328  26.475   3.208
 4418W        W76034  38.561   1.956  11.134
 4419W        W76035   1.711  37.464   3.216
 4420W        W76036  43.257  19.858   0.266
 4421W        W76037  23.292  19.180  12.473
 4422W        W76038  14.943  18.244   2.327
 4423W        W76039  33.865  16.075   3.564
 4424W        W76040  34.451  13.007  14.747
 4425W        W76041  43.674  26.179  14.980
 4426W        W76042   1.082  15.692  12.572
 4427W        W76043   0.528  37.467   4.534
 4428W        W76044  22.761  35.498  13.426
 4429W        W76045  15.281  36.265  13.373
 4430W        W76046  44.177  43.882   1.201
 4431W        W76047  16.060  28.152  12.068
 4432W        W76048  42.813   4.524   1.666
 4433W        W76049  19.577  30.249   2.850
 4434W        W76050  12.110  17.654   4.640
 4435W        W76051   4.896  29.564  11.591
 4436W        W76052  44.423  31.424   4.357
 4437W        W76053  26.970  12.707   4.173
 4438W        W76054  31.548  31.237  13.382
 4439W        W76055  43.523  27.969  11.067
 4440W        W76056  17.075  17.859  11.603
 4441W        W76057  37.384  17.204  14.639
 4442W        W76058  19.124  13.221  13.351
 4443W        W76059   9.565  36.887   2.772
 4444W        W76060  35.513  40.940   0.976
 4445W        W76061  21.502   4.208  13.297
 4446W        W76062  42.752  21.890  14.952
 4447W        W76063  13.408   5.240   3.298
 4448W        W76064  30.991  13.619   3.389
 4449W        W76065  44.252  39.955   1.319
 4450W        W76066   5.334   4.419  12.622
 4451W        W76067  44.108  42.352  14.776
 4452W        W76068  44.911  41.281   1.256
 4453W        W76069  32.472  39.546  11.566
 4454W        W76070  16.403  15.777   9.721
 4455W        W76071  31.431  13.385   3.144
 4456W        W76072  32.465   7.355  14.352
 4457W        W76073  40.793  18.480  10.957
 4458W        W76074   3.391  16.677   4.312
 4459W        W76075   9.810   5.227   4.404
 4460W        W76076  30.455  35.720   3.555
 4461W        W76077   7.379  40.743  11.092
 4462W        W76078   4.047  27.019  14.599
 4463W        W76079  38.865  29.373  13.633
 4464W        W76080  24.865  28.354  10.535
 4465W        W76081  31.895  22.143   4.365
 4466W        W76082   9.782  23.756   0.227
 4467W        W76083  12.637  22.569   1.414
 4468W        W76084   7.740  29.941   0.351
 4469W        W76085  35.552  44.330   0.497
 4470W        W76086  17.556  33.908  13.870
 4471W        W76087  44.399   5.364   4.591
 4472W        W76088  32.450  16.565  10.530
 4473W        W76089  42.954  16.945   4.255
 4474W        W76090  20.572  13.149  12.444
 4475W        W76091  25.636  11.293  12.462
 4476W        W76092  14.535   8.705   1.269
 4477W        W76093   8.428  17.310   0.621
 4478W        W76094  21.966  24.193   3.100
 4479W        W76095  20.575   8.785   2.940
 4480W        W76096  12.311  19.365  12.948
 4481W        W76097  12.024   2.696  13.803
 4482W        W76098  40.955   4.013   4.283
 4483W        W76099  26.537  12.048  11.998
 4484W        W76100  36.800  18.090   3.634
 4485W        W76101   6.652   4.312   4.112
 4486W        W76102  17.552  15.076   2.187
 4487W        W76103   4.511  36.478  13.444
 4488W        W76104  10.347  29.967  10.240
 4489W        W76105  43.698   9.458   0.868
 4490W        W76106  17.217   6.406   3.763
 4491W        W76107  44.949  39.951   1.896
 4492W        W76108   0.040  29.330   0.869
 4493W        W76109  12.081   1.949   3.217
 4494W        W76110  10.318  20.303  12.920
 4495W        W76111  14.654   1.865   1.951
 4496W        W76112  36.896   4.865  14.364
 4497W        W76113   2.910  38.843   2.376
 4498W        W76114  11.827   8.871  10.928
 4499W        W76115   7.499  44.198  11.203
 4500W        W76116  29.184  35.835   2.309
 4501W        W76117   0.517  30.359  10.414
 4502W        W76118  14.681  26.514   1.012
 4503W        W76119  41.829  18.136   1.764
 4504W        W76120  12.766  40.028  12.702
 4505W        W76121  37.297  15.167   2.342
 4506W        W76122  25.430  19.777   2.025
 4507W        W76123  17.562  29.969  12.822
 4508W        W76124  38.873  38.678  14.778
 4509W        W76125  19.509  27.719   4.161
 4510W        W76126  43.982  11.213   1.325
 4511W        W76127  22.140  27.981  11.938
 4512W        W76128  17.127  32.351  12.004
 4513W        W76129  16.121   5.216   3.319
 4514W        W76130  22.372  42.362  11.540
 4515W        W76131  41.454   6.210   1.326
 4516W        W76132  32.422  32.402   4.311
 4517W        W76133   3.464  22.344   2.738
 4518W        W76134  43.352  33.537   3.500
 4519W        W76135   1.794  22.172   4.366
 4520W        W76136   6.940  40.495  11.448
 4521W        W76137  26.577  13.915  11.761
 4522W        W76138  44.824   1.955  11.861
 4523W        W76139  30.633  16.272   2.622
 4524W        W76140   1.479  29.482  12.999
 4525W        W76141  18.766  15.071  13.040
 4526W        W76142  12.744  28.209   3.618
 4527W        W76143   0.198  31.585  13.477
 4528W        W76144  42.816  29.219   1.478
 4529W        W76145   3.437  33.970  10.782
 4530W        W76146  14.524   8.815  14.927
 4531W        W76147  41.436  33.534   3.098
 4532W        W76148  26.436  38.476   0.040
 4533W        W76149  33.136  11.159   2.249
 4534W        W76150  39.839   5.761   3.148
 4535W        W76151  23.147  13.792  11.978
 4536W        W76152  31.707  44.407  10.632
 4537W        W76153  10.938  18.695  13.343
 4538W        W76154  11.583  29.591   2.863
 4539W        W76155  13.020   3.539   1.014
 4540W        W76156   6.049  32.657   3.203
 4541W        W76157  37.158  33.985  13.345
 4542W        W76158  10.729  25.436   4.172
 4543W        W76159  25.182  32.567   4.876
 4544W        W76160  19.619   5.810   1.465
 4545W        W76161  38.374  26.469   0.891
 4546W        W76162  14.076   3.880  13.006
 4547W        W76163  10.726  31.528  12.374
 4548W        W76164  39.850  10.913  12.067
 4549W        W76165  17.199  34.590   4.911
 4550W        W76166  11.526  18.355   4.213
 4551W        W76167  33.033  38.509  14.947
 4552W        W76168  21.292  25.166  11.070
 4553W        W76169  27.106  20.935   3.427
 4554W        W76170  33.130  43.815   5.359
 4555W        W76171  17.749  11.051  12.325
 4556W        W76172  29.879   8.625   0.370
 4557W        W76173  32.536  43.997  10.735
 4558W        W76174  33.955  32.086   0.879
 4559W        W76175  29.328  25.311  13.502
 4560W        W76176  33.314  32.070  10.638
 4561W        W76177  42.068   6.007   2.168
 4562W        W76178  31.439  32.390   2.820
 4563W        W76179  11.174  44.758   2.394
 4564W        W76180  30.756   9.207   4.532
 4565W        W76181  16.928   6.736  10.172
 4566W        W76182  39.574   3.538   2.974
 4567W        W76183  37.952  36.926   4.387
 4568W        W76184   1.885  38.922   2.412
 4569W        W76185  39.325  34.361   1.786
 4570W        W76186  17.628  26.395  14.867
 4571W        W76187  31.564  28.202  13.158
 4572W        W76188  30.049  39.861  13.453
 4573W        W76189  41.818  29.954   3.390
 4574W        W76190  42.494  39.628   3.761
 4575W        W76191  15.628  30.139   1.501
 4576W        W76192  31.976  42.357   2.463
 4577W        W76193  15.710  22.811   0.340
 4578W        W76194  20.598  31.118   4.786
 4579W        W76195  30.147   9.552   4.534
 4580W        W76196  34.089  19.351  11.196
 4581W        W76197  29.427  29.021   3.132
 4582W        W76198  15.587   3.180   3.805
 4583W        W76199   2.614   3.276  12.004
 4584W        W76200  13.044  27.160  10.898
 4585W        W76201  27.517  19.471  14.484
 4586W        W76202  41.074  31.662   1.261
 4587W        W76203  24.928  40.871  13.136
 4588W        W76204  25.562   3.220  10.446
 4589W        W76205   1.578   8.175  13.139
 4590W        W76206  16.324  43.810   2.735
 4591W        W76207   7.379  44.264   3.275
 4592W        W76208  44.214  18.298   2.902
 4593W        W76209  37.366   9.786  13.071
 4594W        W76210  42.871  28.894  12.054
 4595W        W76211   0.714  32.433  11.189
 4596W        W76212   8.630  19.799   4.260
 4597W        W76213  25.165  20.279  13.379
 4598W        W76214  16.449   6.968   1.131
 4599W        W76215   3.818   1.044  10.257
 4600W        W76216   2.836   3.819  14.639
 4601W        W76217  33.831  24.229   1.773
 4602W        W76218  18.048  11.894   1.828
 4603W        W76219  37.786   7.694   1.777
 4604W        W76220  24.718  19.064   0.714
 4605W        W76221  43.501   6.415   1.328
 4606W        W76222  33.687  18.544  12.883
 4607W        W76223  41.808  28.696   3.867
 4608W        W76224   2.106  26.762   2.480
 4609W        W76225   0.236  34.956  13.395
 4610W        W76226  40.376   6.817  14.830
 4611W        W76227   8.758  26.824  10.757
 4612W        W76228  16.179  17.617  14.042
 4613W        W76229  33.484   6.453   2.593
 4614W        W76230  39.342  27.756  12.012
 4615W        W76231  19.250  29.341   0.741
 4616W        W76232  30.664  39.781   1.291
 4617W        W76233  22.019  37.799   4.217
 4618W        W76234  12.083  22.608  13.007
 4619W        W76235   1.334  29.138   4.171
 4620W        W76236  18.568   4.432  11.145
 4621W        W76237  31.891  36.535  13.009
 4622W        W76238   7.424   3.993  13.909
 4623W        W76239   7.818  36.148   1.418
 4624W        W76240   7.824  35.625   4.842
 4625W        W76241  28.511  28.042  11.643
 4626W        W76242  30.501  22.020  14.461
 4627W        W76243   8.819   0.154  11.119
 4628W        W76244  13.426  18.650   3.892
 4629W        W76245  14.543  30.636  13.943
 4630W        W76246  41.546  23.010   1.360
 4631W        W76247   5.935  25.670   1.961
 4632W        W76248   1.704  36.628   0.861
 4633W        W76249  28.591  17.264  11.014
 4634W        W76250   9.067  30.177  11.002
 4635W        W76251  38.276  16.013   4.544
 4636W        W76252  18.183   2.735   2.715
 4637W        W76253   7.411  20.481  13.828
 4638W        W76254  28.708  27.559   1.944
 4639W        W76255  42.003   4.040   1.278
 4640W        W76256   7.495  36.717  12.075
 4641W        W76257  33.340   1.621  11.814
 4642W        W76258  29.037  32.029  10.639
 4643W        W76259  10.287  15.688   0.737
 4644W        W76260   7.978  25.139  11.599
 4645W        W76261  31.378  30.626   3.229
 4646W        W76262  28.205  38.831   0.293
 4647W        W76263   3.112  25.133  12.712
 4648W        W76264  44.983  36.560   4.459
 4649W        W76265  10.784  11.560  14.376
 4650W        W76266  23.299  11.159  11.884
 4651W        W76267  29.942   5.752  12.076
 4652W        W76268  38.107   6.737  11.530
 4653W        W76269  25.216   1.825  10.667
 4654W        W76270  16.750  10.871  13.405
 4655W        W76271  40.081  39.252   1.746
 4656W        W76272  25.250  42.441   4.461
 4657W        W76273  25.895  34.209  13.025
 4658W        W76274   5.797  44.687  12.834
 4659W        W76275  42.079  17.099  11.877
 4660W        W76276  31.500  15.684   2.830
 4661W        W76277  23.300  28.549  11.989
 4662W        W76278  29.016  37.056  14.820
 4663W        W76279  11.334   8.113  14.488
 4664W        W76280  16.225  20.804  11.107
 4665W        W76281   7.187   3.666  14.242
 4666W        W76282  26.092   1.909  10.836
 4667W        W76283   8.842  12.786   0.525
 4668W        W76284  16.543  24.409  11.905
 4669W        W76285  28.704  37.488   3.358
 4670W        W76286  20.073  25.377  11.599
 4671W        W76287  37.499   1.979   2.753
 4672W        W76288  33.034  18.236   1.801
 4673W        W76289  11.823  18.652  11.020
 4674W        W76290  30.079  30.569  14.815
 4675W        W76291  25.661  20.221   4.224
 4676W        W76292  32.004  14.665   3.164
 4677W        W76293   3.542  11.727  13.878
 4678W        W76294  41.221  23.393   1.256
 4679W        W76295  35.534  10.259   3.581
 4680W        W76296  42.298  42.859   2.847
 4681W        W76297  33.668  10.323   2.289
 4682W        W76298  18.525  40.009   2.824
 4683W        W76299  13.550  18.263  13.518
 4684W        W76300  29.231  26.382   1.008
 4685W        W76301  30.559  28.952  14.770
 4686W        W76302  17.809  41.971  11.624
 4687W        W76303  32.417  12.230  13.359
 4688W        W76304  26.458  26.009   3.112
 4689W        W76305  33.623   4.394  14.499
 4690W        W76306   4.320  42.419   2.666
 4691W        W76307   9.167  23.973   0.291
 4692W        W76308  36.384  20.149  10.405
 4693W        W76309  36.287  43.690   4.646
 4694W        W76310  41.063  32.925  13.236
 4695W        W76311  38.958   5.714  10.676
 4696W        W76312  14.327  39.507   3.544
 4697W        W76313  24.543  37.861   1.731
 4698W        W76314  33.369  32.104   4.160
 4699W        W76315  35.131   5.065  11.049
 4700W        W76316  35.687  24.171  14.044
 4701W        W76317  40.025  27.454   1.874
 4702W        W76318  33.844  36.405   4.110
 4703W        W76319  41.862  23.098   4.251
 4704W        W76320  21.005  37.795   5.040
 4705W        W76321  10.901  44.247  13.006
 4706W        W76322  17.596   8.592  14.923
 4707W        W76323   6.829  19.613  12.310
 4708W        W76324  22.154  37.750  13.726
 4709W        W76325   8.589  16.244  13.973
 4710W        W76326  43.939  26.534  10.169
 4711W        W76327  37.546   3.924  11.043
 4712W        W76328   4.708  31.886   2.808
 4713W        W76329  27.569  17.263  10.010
 4714W        W76330  14.673   6.538  11.046
 4715W        W76331  31.850  36.686   4.348
 4716W        W76332  30.710  14.099   3.842
 4717W        W76333   1.766  34.245  11.223
 4718W        W76334  39.273  26.471  13.934
 4719W        W76335   1.480  42.481   0.773
 4720W        W76336  40.512  13.243  11.979
 4721W        W76337  42.772  12.088   4.216
 4722W        W76338  28.673  24.244  13.818
 4723W        W76339   4.402  33.799   1.370
 4724W        W76340  14.663  12.303   0.393
 4725W        W76341  12.791  11.688   0.223
 4726W        W76342  43.518   3.307   1.285
 4727W        W76343  44.850  31.403  13.859
 4728W        W76344  32.537   2.136   0.425
 4729W        W76345  44.318  27.647  10.901
 4730W        W76346  12.818   4.655   0.374
 4731W        W76347  36.104   0.930   2.814
 4732W        W76348  43.489   8.693   3.679
 4733W        W76349   8.867   1.008   4.936
 4734W        W76350   7.798  11.221   2.686
 4735W        W76351  25.396   4.059  10.739
 4736W        W76352  10.098  38.031   0.970
 4737W        W76353  30.270  34.155  12.609
 4738W        W76354  22.167  11.458   1.325
 4739W        W76355  39.102  22.302  12.067
 4740W        W76356  40.399  24.970   0.740
 4741W        W76357  20.763  30.022   3.646
 4742W        W76358   0.686  40.071  13.422
 4743W        W76359   8.426  14.333  12.487
 4744W        W76360  32.582   2.477   3.530
 4745W        W76361  20.490  14.777  14.068
 4746W        W76362  17.016  32.202  14.956
 4747W        W76363  44.265  35.932   4.566
 4748W        W76364  12.725  19.258  10.891
 4749W        W76365  30.911  36.558  13.893
 4750W        W76366  39.258   2.588  12.505
 4751W        W76367  34.541   8.166  10.913
 4752W        W76368  31.940  24.243   4.195
 4753W        W76369   0.172   4.349  11.981
 4754W        W76370  29.877  23.624  12.857
 4755W        W76371  29.734  19.175   3.803
 4756W        W76372  42.846  44.364   0.372
 4757W        W76373  25.743  37.578  12.556
 4758W        W76374   8.933   7.870   2.616
 4759W        W76375  36.992  36.432   2.659
 4760W        W76376  19.792  28.473   1.320
 4761W        W76377   8.195  35.664   0.337
 4762W        W76378  26.007  41.410  13.376
 4763W        W76379  24.524  16.851  10.726
 4764W        W76380   9.539  31.927   2.280
 4765W        W76381  38.790  32.385   2.699
 4766W        W76382  15.676   9.034   1.934
 4767W        W76383  40.787  11.947  14.451
 4768W        W76384  43.296  18.049  12.765
 4769W        W76385  32.177  31.901   4.568
 4770W        W76386  41.203  43.657   0.954
 4771W        W76387  40.779  39.608   4.025
 4772W        W76388  26.400   6.185   2.971
 4773W        W76389   0.182  27.083  12.765
 4774W        W76390   9.099   5.638   2.283
 4775W        W76391  42.446   9.394   1.234
 4776W        W76392   6.657   2.259  13.798
 4777W        W76393  27.019  14.911  13.821
 4778W        W76394  21.520  36.925  11.614
 4779W        W76395  40.535  42.844  12.629
 4780W        W76396   9.387   6.601  11.129
 4781W        W76397  16.555  23.009   0.649
 4782W        W76398  40.294   5.509   0.948
 4783W        W76399  35.438  20.235  12.843
 4784W        W76400  25.081  41.879   0.407
 4785W        W76401  15.615  43.778  13.389
 4786W        W76402  11.071   4.305   4.676
 4787W        W76403  39.310  33.106  14.902
 4788W        W76404  26.382  11.340  14.726
 4789W        W76405   7.948   2.063   3.617
 4790W        W76406  37.100   6.574   3.345
 4791W        W76407  39.180   6.388   1.545
 4792W        W76408  32.432  24.082  13.510
 4793W        W76409   1.720  39.638  13.663
 4794W        W76410  41.368  19.423   4.766
 4795W        W76411  36.001  15.201  13.503
 4796W        W76412   7.812  27.692   3.345
 4797W        W76413  26.580  31.129   1.866
 4798W        W76414  31.306  21.236  13.597
 4799W        W76415  22.067  20.460   4.698
 4800W        W76416  15.510  10.234   2.175
 4801W        W76417  21.044  14.922  10.465
 4802W        W76418  33.950  44.527  12.927
 4803W        W76419  23.820  24.978   2.890
 4804W        W76420  31.893  33.890  13.057
 4805W        W76421  37.766  10.759  14.906
 4806W        W76422  18.379  10.350   1.239
 4807W        W76423   3.225  42.342   4.168
 4808W        W76424  27.564   8.675   3.282
 4809W        W76425  32.066  35.928   3.780
 4810W        W76426  17.824  35.566   2.926
 4811W        W76427  41.461  20.326   0.763
 4812W        W76428  20.236  41.195   9.910
 4813W        W76429  34.386  21.705   1.035
 4814W        W76430  21.943  39.530   0.973
 4815W        W76431   1.031  16.713   0.922
 4816W        W76432   5.315  33.562  11.907
 4817W        W76433  30.899   3.102  10.951
 4818W        W76434  42.834  17.263  12.325
 4819W        W76435  17.854  38.508   2.795
 4820W        W76436  33.117  33.576  13.032
 4821W        W76437  43.498   2.530  13.942
 4822W        W76438   4.834  33.044   0.093
 4823W        W76439  16.264   7.462  11.386
 4824W        W76440  33.626   8.442  12.409
 4825W        W76441  43.971  10.977   1.778
 4826W        W76442   5.572  40.884  10.671
 4827W        W76443  31.980  40.792  10.659
 4828W        W76444  20.126   8.741   2.687
 4829W        W76445  13.800  19.749  11.672
 4830W        W76446  22.423  29.562   0.584
 4831W        W76447  16.614  39.925   2.899
 4832W        W76448  15.742   5.365   4.125
 4833W        W76449   3.980  21.550  12.465
 4834W        W76450  11.127  15.780  10.546
 4835W        W76451  42.496   5.000   0.314
 4836W        W76452  20.961  10.620  13.936
 4837W        W76453  15.694  35.889  13.963
 4838W        W76454  38.237  15.106   2.163
 4839W        W76455  29.981  39.052   2.261
 4840W        W76456   6.802   5.311   1.415
 4841W        W76457  30.676  16.692  12.560
 4842W        W76458  39.111  38.784  12.967
 4843W        W76459  16.765   2.060  11.543
 4844W        W76460  23.027  42.188   4.663
 4845W        W76461  22.737   3.587  12.946
 4846W        W76462  20.026  34.463  14.308
 4847W        W76463  31.545  13.602  10.727
 4848W        W76464  24.156  36.619  14.412
 4849W        W76465  32.100  25.541   3.951
 4850W        W76466  30.667   4.230  14.658
 4851W        W76467   3.234   1.776   4.062
 4852W        W76468  44.617  44.721  13.946
 4853W        W76469   7.915  39.609  13.097
 4854W        W76470  38.871   0.841  11.178
 4855W        W76471  14.779   1.353  13.358
 4856W        W76472   0.809  41.314   1.305
 4857W        W76473  15.862   4.374   4.087
 4858W        W76474  12.017  27.950  13.506
 4859W        W76475   8.227   2.432   4.760
 4860W        W76476  19.715  19.067  11.519
 4861W        W76477  30.008  40.031   2.518
 4862W        W76478  18.610  36.314  11.023
 4863W        W76479  43.453  36.013   1.332
 4864W        W76480  18.639  18.342   1.181
 4865W        W76481  15.193  22.111  11.590
 4866W        W76482  38.790  26.098  14.968
 4867W        W76483  35.735  17.839  14.511
 4868W        W76484  17.595  39.186   4.653
 4869W        W76485  11.662  22.189  11.214
 4870W        W76486   5.118   2.172  10.473
 4871W        W76487  17.102  17.844   2.555
 4872W        W76488   4.382  31.977  13.867
 4873W        W76489   9.533  44.282   1.728
 4874W        W76490   9.869  25.985   0.517
 4875W        W76491   3.941   0.641  11.514
 4876W        W76492   1.753  36.600   1.384
 4877W        W76493   4.863  15.987  14.950
 4878W        W76494  28.069  10.314  14.005
 4879W        W76495  27.408  11.557   3.668
 4880W        W76496  16.390  29.347   2.151
 4881W        W76497  12.250  34.047   3.548
 4882W        W76498  24.086  39.903  14.746
 4883W        W76499   1.924  38.204  13.386
 4884W        W76500   3.853  19.650   2.851
 4885W        W76501  18.665  14.380  13.793
 4886W        W76502   4.264  42.991  14.401
 4887W        W76503  35.035  10.974  12.951
 4888W        W76504  28.174  41.889   3.695
 4889W        W76505  18.007  14.843   1.880
 4890W        W76506  43.083  44.900   1.205
 4891W        W76507   2.443   2.797  13.030
 4892W        W76508  21.768  40.420   3.167
 4893W        W76509  34.533   3.645   3.196
 4894W        W76510  33.445  32.509  13.049
 4895W        W76511  33.632  36.312   4.631
 4896W        W76512  20.773  27.048  14.563
 4897W        W76513  37.144  32.417  10.511
 4898W        W76514   2.893  17.152   2.161
 4899W        W76515  16.255  17.776  11.009
 4900W        W76516   2.053   4.434   3.313
 4901W        W76517   0.446   6.919  10.364
 4902W        W76518  33.976   5.377  13.463
 4903W        W76519  19.766  38.967   3.327
 4904W        W76520  36.339  33.497  12.502
 4905W        W76521  30.976  35.815  11.118
 4906W        W76522  30.966  21.321   3.150
 4907W        W76523  34.945  16.214  10.757
 4908W        W76524  34.950   8.424   3.595
 4909W        W76525  14.459  42.382   1.345
 4910W        W76526  26.337  36.875   1.976
 4911W        W76527  17.415   7.618  12.925
 4912W        W76528  17.180  30.409   4.136
 4913W        W76529   5.794  27.157  10.686
 4914W        W76530  36.934  37.267  11.917
 4915W        W76531  17.087   1.736  13.492
 4916W        W76532  20.668  34.951   2.637
 4917W        W76533  26.641  33.915   1.396
 4918W        W76534   8.616  12.643  10.661
 4919W        W76535  38.988   8.134   0.346
 4920W        W76536  18.225  38.398  13.376
 4921W        W76537   1.243  30.030   3.306
 4922W        W76538  23.211  15.006  13.875
 4923W        W76539  21.679   9.967   1.461
 4924W        W76540  19.636  42.764   4.072
 4925W        W76541  18.542  18.318   3.637
 4926W        W76542   7.460  30.526  10.373
 4927W        W76543  30.370   7.290   1.425
 4928W        W76544  23.125  29.990   2.103
 4929W        W76545   7.602  44.884  11.560
 4930W        W76546  22.058  24.052  11.204
 4931W        W76547   9.428   1.843  10.870
 4932W        W76548  37.071  44.830   4.134
 4933W        W76549  37.161   6.210  14.222
 4934W        W76550  31.926  13.326   1.246
 4935W        W76551  15.220  41.030   2.842
 4936W        W76552  22.989  11.265  14.501
 4937W        W76553  14.932  42.921   3.310
 4938W        W76554  30.206  28.624  14.494
 4939W        W76555  39.406  41.945   3.654
 4940W        W76556  31.660  35.034   1.945
 4941W        W76557   8.736  21.259  12.333
 4942W        W76558  22.669  41.965  13.113
 4943W        W76559   2.024  24.491   1.393
 4944W        W76560   5.340  11.185   1.350
 4945W        W76561  10.922  22.080  13.060
 4946W        W76562  13.668   4.881   4.142
 4947W        W76563  11.778   5.235   4.713
 4948W        W76564  22.220  18.540  14.361
 4949W        W76565  37.045  20.183  14.305
 4950W        W76566   9.943  41.007   3.375
 4951W        W76567  30.408  21.591   1.981
 4952W        W76568   7.306  41.547   3.309
 4953W        W76569  15.263   1.544   3.274
 4954W        W76570  36.567  18.034   2.748
 4955W        W76571   1.976  16.717  14.941
 4956W        W76572  38.079  42.975   3.257
 4957W        W76573   0.705   2.445  14.331
 4958W        W76574  42.950  31.759  14.542
 4959W        W76575   8.789   3.065   0.929
 4960W        W76576  16.400  38.257   1.761
 4961W        W76577  17.593  30.007  13.330
 4962W        W76578   7.254   1.345  13.078
 4963W        W76579  32.790   0.370  11.709
 4964W        W76580  29.312  15.409  10.534
 4965W        W76581   1.079  28.144   4.200
 4966W        W76582  30.198  15.629  10.876
 4967W        W76583  40.355  22.831  11.096
 4968W        W76584  31.405  21.988   0.661
 4969W        W76585  41.392  31.902  12.942
 4970W        W76586  32.000   9.311  11.117
 4971W        W76587  16.563  21.743  14.561
 4972W        W76588  43.953  25.773   1.712
 4973W        W76589  11.321  12.809   1.164
 4974W        W76590  13.784  42.214   4.145
 4975W        W76591  32.836   4.778  14.223
 4976W        W76592   1.962   9.381  10.929
 4977W        W76593  40.545   3.162  10.675
 4978W        W76594   4.691  42.269  14.451
 4979W        W76595  21.141  16.209   0.484
 4980W        W76596  26.722  17.260   4.233
 4981W        W76597  29.609  26.227  11.559
 4982W        W76598  33.867  32.581  12.405
 4983W        W76599   6.769  34.945  11.528
 4984W        W76600  15.975  26.531   4.565
 4985W        W76601  12.830  37.329  12.962
 4986W        W76602  26.276   5.730  12.965
 4987W        W76603  23.243  31.756  13.074
 4988W        W76604  35.365  28.534   4.098
 4989W        W76605  29.458  10.514  12.035
 4990W        W76606   7.357  41.241  11.964
 4991W        W76607  18.551   8.252   0.155
 4992W        W76608  28.283  29.634   3.383
 4993W        W76609  43.495  41.812   0.975
 4994W        W76610  25.224   6.435   3.684
 4995W        W76611  10.084  28.974  12.086
 4996W        W76612  13.706  25.694  13.527
 4997W        W76613   4.663   7.251   4.236
 4998W        W76614  24.147  41.419  13.882
 4999W        W76615  23.966   8.433   0.977
 5000W        W76616  36.598  44.301   2.859
 5001W        W76617   5.337  35.392   4.541
 5002W        W76618  12.978   5.355  13.980
 5003W        W76619   2.881  42.166  10.718
 5004W        W76620  41.430  39.918   4.688
 5005W        W76621  30.753   8.770   3.700
 5006W        W76622  31.396  32.494   3.351
 5007W        W76623  15.720  32.502  14.062
 5008W        W76624  37.369   6.504   1.941
 5009W        W76625  25.782  18.562  11.378
 5010W        W76626   2.653  43.549  13.088
 5011W        W76627   8.736  33.055   1.314
 5012W        W76628   4.235  32.135   2.784
 5013W        W76629  42.937  19.548   2.294
 5014W        W76630  29.549   8.370   3.297
 5015W        W76631  20.229   9.885   4.231
 5016W        W76632  23.582   7.732  14.165
 5017W        W76633  29.429  12.647  10.748
 5018W        W76634  40.802   2.411  14.078
 5019W        W76635  40.431  41.908   4.986
 5020W        W76636  10.114  18.331   3.808
 5021W        W76637  35.176  35.772   2.637
 5022W        W76638  13.245  16.963  13.688
 5023W        W76639   3.383  37.276  13.058
 5024W        W76640   7.499   9.722   3.752
 5025W        W76641  41.865  21.949   2.575
 5026W        W76642   3.178   4.168   0.346
 5027W        W76643   5.370  12.235  14.258
 5028W        W76644  34.877  17.603  11.525
 5029W        W76645  33.119  28.615  12.966
 5030W        W76646  37.045   2.748  10.691
 5031W        W76647  31.501  24.068   2.306
 5032W        W76648  40.714   2.182   1.266
 5033W        W76649  22.288  32.993  12.886
 5034W        W76650  16.890  28.451   4.453
 5035W        W76651  43.829  27.211   1.150
 5036W        W76652   5.091   0.750   1.910
 5037W        W76653  17.615  27.974   3.694
 5038W        W76654  10.649  30.370   1.767
 5039W        W76655  35.313  29.711  14.296
 5040W        W76656  42.932  17.461   4.342
 5041W        W76657  35.891  22.900  11.467
 5042W        W76658  33.326  25.611  10.386
 5043W        W76659   9.763  12.114   3.808
 5044W        W76660  15.894  42.213  11.457
 5045W        W76661  44.292  37.653  14.848
 5046W        W76662  18.949  35.025   4.341
 5047W        W76663   3.035  41.904   4.864
 5048W        W76664  19.716   2.844  12.935
 5049W        W76665  39.880   1.353  13.432
 5050W        W76666  19.862  21.893  12.869
 5051W        W76667  19.190  17.023   4.986
 5052W        W76668   9.884  20.051  13.092
 5053W        W76669  25.684  33.620  13.703
 5054W        W76670   5.445  44.310  12.580
 5055W        W76671  27.101  31.860   2.002
 5056W        W76672   8.875  38.460  12.973
 5057W        W76673  18.656  19.297  13.018
 5058W        W76674  17.299  13.750  12.143
 5059W        W76675  44.592  32.715   1.854
 5060W        W76676  15.528  39.811   4.605
 5061W        W76677  27.609  16.851   5.427
 5062W        W76678  32.652  16.235   0.632
 5063W        W76679  30.965   0.298  11.139
 5064W        W76680  14.059   4.453  10.203
 5065W        W76681   1.922  34.648  14.976
 5066W        W76682  37.365  23.610   2.791
 5067W        W76683  25.529  12.232   3.665
 5068W        W76684  37.807  30.036  13.733
 5069W        W76685  39.904  32.220   3.692
 5070W        W76686  28.625  44.776   1.268
 5071W        W76687   9.195   5.996   0.656
 5072W        W76688  35.683   1.210  13.376
 5073W        W76689  17.248   1.467   4.536
 5074W        W76690  43.206  16.515  11.846
 5075W        W76691  36.236  34.587  11.224
 5076W        W76692   6.973  19.214   0.056
 5077W        W76693  24.428  13.348   4.338
 5078W        W76694  30.352   2.808  10.808
 5079W        W76695   5.805  30.204   4.082
 5080W        W76696  10.548  31.864   3.444
 5081W        W76697  20.695   6.719  10.937
 5082W        W76698  19.224  24.128   3.031
 5083W        W76699  38.463  35.027   4.526
 5084W        W76700  38.994   6.392  13.477
 5085W        W76701  36.476  26.759  13.305
 5086W        W76702   7.364  16.842   2.877
 5087W        W76703  40.377  32.248  11.438
 5088W        W76704  38.987  31.428  13.521
 5089W        W76705   1.729  20.216  10.770
 5090W        W76706  13.863  40.025  14.156
 5091W        W76707  23.676  18.156   3.249
 5092W        W76708  12.185   0.190  14.002
 5093W        W76709   9.491   4.451   4.810
 5094W        W76710  41.475  10.894  13.968
 5095W        W76711  35.974  28.075  11.432
 5096W        W76712  10.903  35.991  13.602
 5097W        W76713  21.047   4.956  13.837
 5098W        W76714  36.544  41.305   2.367
 5099W        W76715  38.412  16.055   1.007
 5100W        W76716   0.481  28.241   2.936
 5101W        W76717  10.244  21.600   2.299
 5102W        W76718  31.493  44.836   5.521
 5103W        W76719   3.791  37.961  12.047
 5104W        W76720  33.338  25.498  11.391
 5105W        W76721  43.462  28.949  13.530
 5106W        W76722  29.166  16.793  11.437
 5107W        W76723  21.170  24.053   1.875
 5108W        W76724  29.125  25.842   0.319
 5109W        W76725  22.056  11.580  14.954
 5110W        W76726   2.238  44.748  13.395
 5111W        W76727  33.216  39.477   2.668
 5112W        W76728  19.736  15.691  12.477
 5113W        W76729  23.207  13.865  10.960
 5114W        W76730  23.466  15.230   0.332
 5115W        W76731  32.183  42.783  14.271
 5116W        W76732  20.692  29.922   2.226
 5117W        W76733  26.965  22.604   1.669
 5118W        W76734  38.954  35.165   4.177
 5119W        W76735  36.917  24.163  13.024
 5120W        W76736  35.549  35.056   0.025
 5121W        W76737  17.813  30.402  12.525
 5122W        W76738  32.035  40.030  13.732
 5123W        W76739   0.281  10.198  12.653
 5124W        W76740  23.078  22.951  11.147
 5125W        W76741  17.626  32.447  11.994
 5126W        W76742  12.298  40.118  13.548
 5127W        W76743  23.536  33.880  13.892
 5128W        W76744  35.895  20.779   0.974
 5129W        W76745  21.553  14.414   5.129
 5130W        W76746  23.592  37.328   3.203
 5131W        W76747  40.967  26.723  12.173
 5132W        W76748  11.362  13.947  11.583
 5133W        W76749  43.854   6.150  13.287
 5134W        W76750  34.493  15.554  13.521
 5135W        W76751  23.522  15.614   4.126
 5136W        W76752  29.967  14.286   3.380
 5137W        W76753  35.927  40.396  14.683
 5138W        W76754  37.845  40.483   3.249
 5139W        W76755   1.921   8.758  12.048
 5140W        W76756  15.176  19.535   4.191
 5141W        W76757  13.650   2.394   3.807
 5142W        W76758  39.244   2.780  14.773
 5143W        W76759  43.678  42.255  13.010
 5144W        W76760  10.372  19.655  10.657
 5145W        W76761  31.011  19.771  14.243
 5146W        W76762   9.168  34.975   1.856
 5147W        W76763   7.354  10.184  14.209
 5148W        W76764  21.653  10.853   1.063
 5149W        W76765  23.501  40.441  10.696
 5150W        W76766  21.302  41.002  11.066
 5151W        W76767  12.238  22.566   1.768
 5152W        W76768  37.373   4.891   2.647
 5153W        W76769  43.408   1.157   4.243
 5154W        W76770  11.745  11.216  14.340
 5155W        W76771  13.444  29.988  11.906
 5156W        W76772  21.701  40.235  13.492
 5157W        W76773  41.092   5.291   3.653
 5158W        W76774   1.658  25.539   2.862
 5159W        W76775  26.690  37.982   4.941
 5160W        W76776   5.842  10.268  13.931
 5161W        W76777  26.452  27.398  14.270
 5162W        W76778   1.393  11.339   4.262
 5163W        W76779  35.427  11.721  12.482
 5164W        W76780  34.456  20.546  11.447
 5165W        W76781  14.647  37.355   3.734
 5166W        W76782   3.771  27.424  14.441
 5167W        W76783  39.157  26.773  13.495
 5168W        W76784  30.052   5.211  11.225
 5169W        W76785  16.578   1.750   2.086
 5170W        W76786  13.500  15.365  12.890
 5171W        W76787  21.717  40.760  13.520
 5172W        W76788  16.354  28.991   1.584
 5173W        W76789  24.183   5.622   1.170
 5174W        W76790  14.239  29.644   2.122
 5175W        W76791  44.328   9.147  14.492
 5176W        W76792  19.574  33.720   2.743
 5177W        W76793  28.409  25.277   0.294
 5178W        W76794  22.044  12.012  12.477
 5179W        W76795  27.545  14.268  13.455
 5180W        W76796   9.417  13.066   2.626
 5181W        W76797  43.344  17.223  14.914
 5182W        W76798  22.263  42.527  11.053
 5183W        W76799  26.154   7.651   3.077
 5184W        W76800  29.659  30.196  14.027
 5185W        W76801  21.644  18.010  13.049
 5186W        W76802  40.294   2.469   1.451
 5187W        W76803  33.725  42.997   2.143
 5188W        W76804  30.903  10.867  13.783
 5189W        W76805  26.581  19.820   2.755
 5190W        W76806  13.924  28.359   0.411
 5191W        W76807   0.239  38.380   3.566
 5192W        W76808  20.160  34.854   3.855
 5193W        W76809  12.164  13.510   1.813
 5194W        W76810  44.849  29.559  13.639
 5195W        W76811  19.115  32.131  11.338
 5196W        W76812  19.326   5.808  12.745
 5197W        W76813  19.979  40.461  11.543
 5198W        W76814  37.158  15.028   4.117
 5199W        W76815  40.972  41.830  12.947
 5200W        W76816  38.283  32.900   4.115
 5201W        W76817  15.721  42.863  13.473
 5202W        W76818  11.153   7.641   2.229
 5203W        W76819  20.626  13.386   1.273
 5204W        W76820  29.201  44.582  14.344
 5205W        W76821  10.769  42.415  13.015
 5206W        W76822  22.532   7.634   3.243
 5207W        W76823  13.620  27.567   3.177
 5208W        W76824  30.779  13.876   4.315
 5209W        W76825  38.806  14.196  12.080
 5210W        W76826  20.102  17.910   0.846
 5211W        W76827  30.507  31.832   3.691
 5212W        W76828  26.759   4.777   0.833
 5213W        W76829   2.817   9.944  12.394
 5214W        W76830  11.646  21.214  11.176
 5215W        W76831  15.589   8.288  10.772
 5216W        W76832  34.653   0.443   2.429
 5217W        W76833  40.834  16.205  13.129
 5218W        W76834  13.378  11.136  13.273
 5219W        W76835   1.693  19.085   4.083
 5220W        W76836  43.859  24.901   2.763
 5221W        W76837  23.463  33.977   0.696
 5222W        W76838  43.921  32.065  13.393
 5223W        W76839   9.198  26.328   3.089
 5224W        W76840  37.320  41.395   3.537
 5225W        W76841  32.231  21.713   4.845
 5226W        W76842   8.228  10.400   1.902
 5227W        W76843   5.273  28.135  11.154
 5228W        W76844  38.166  37.052   2.695
 5229W        W76845  21.568  13.432   1.203
 5230W        W76846  42.516  39.817  14.669
 5231W        W76847  17.615  42.887  10.621
 5232W        W76848   3.562  10.874   1.963
 5233W        W76849  32.429  41.897   0.836
 5234W        W76850  19.696  37.469   3.361
 5235W        W76851  18.569  20.924  10.359
 5236W        W76852   8.221  43.007  12.485
 5237W        W76853   2.851  13.276   1.260
 5238W        W76854   9.479  19.826   1.821
 5239W        W76855  40.548  17.377   1.340
 5240W        W76856  31.214  38.376   0.216
 5241W        W76857  12.120  18.215  13.046
 5242W        W76858  13.408  27.180   2.260
 5243W        W76859  15.357  29.619  13.325
 5244W        W76860  40.385   1.651   0.890
 5245W        W76861  27.986  22.985  12.796
 5246W        W76862  13.137  15.040   0.257
 5247W        W76863  25.893  12.467  12.602
 5248W        W76864   6.122  14.267  11.672
 5249W        W76865   6.618   9.961  13.979
 5250W        W76866   3.781  44.931  11.066
 5251W        W76867  40.881   5.170  12.092
 5252W        W76868  19.892  20.229   4.627
 5253W        W76869  23.772   2.993   1.046
 5254W        W76870  44.430   4.675   2.833
 5255W        W76871   2.693   1.919   0.426
 5256W        W76872   5.366  14.688   1.632
 5257W        W76873  33.560  35.652   1.947
 5258W        W76874  13.813  12.845   1.322
 5259W        W76875   0.337  30.940   3.649
 5260W        W76876  41.514  17.688   4.414
 5261W        W76877  41.563  32.494  14.355
 5262W        W76878  40.887  38.920   0.497
 5263W        W76879   7.537   1.047  10.987
 5264W        W76880  22.554  30.197  10.759
 5265W        W76881   5.206  15.296   1.436
 5266W        W76882  28.197  26.463   5.208
 5267W        W76883  22.574  37.566   0.283
 5268W        W76884  35.794  19.762   2.297
 5269W        W76885  15.540  35.702  13.425
 5270W        W76886  11.163  23.452  14.352
 5271W        W76887   5.270  41.779  13.796
 5272W        W76888  27.914  34.380  14.038
 5273W        W76889   7.374   7.832  11.939
 5274W        W76890  16.808   9.474  12.433
 5275W        W76891  10.716  37.773  11.315
 5276W        W76892  42.922   5.276   0.527
 5277W        W76893  33.623  20.482   4.342
 5278W        W76894  29.336  40.018  12.103
 5279W        W76895   4.704   8.152  13.949
 5280W        W76896  23.434   8.223   1.868
 5281W        W76897  14.422  27.960   3.251
 5282W        W76898  34.546  29.570   4.389
 5283W        W76899   1.172   8.531  13.898
 5284W        W76900   4.434  10.797  13.049
 5285W        W76901  13.775  31.894   0.121
 5286W        W76902   5.190  18.171  12.188
 5287W        W76903  24.790  27.338   3.345
 5288W        W76904  28.793   6.777  11.123
 5289W        W76905   8.110  17.762  13.829
 5290W        W76906   1.019   8.647   1.719
 5291W        W76907   9.439  12.572   2.303
 5292W        W76908   9.789  21.746  11.072
 5293W        W76909  36.186  29.434   3.658
 5294W        W76910  10.501  42.973   4.092
 5295W        W76911  44.750  36.232  14.261
 5296W        W76912  27.518  36.905   3.850
 5297W        W76913  22.679  24.196  12.899
 5298W        W76914  19.131  26.722   2.223
 5299W        W76915  11.275   6.788   2.799
 5300W        W76916   2.500  10.848  13.450
 5301W        W76917  10.683  37.206   2.275
 5302W        W76918  42.825  37.059   4.079
 5303W        W76919  19.257  42.027  14.209
 5304W        W76920  17.911  44.430  12.847
 5305W        W76921  14.183  33.731   1.828
 5306W        W76922  40.796  11.442   0.318
 5307W        W76923   9.313  11.356   4.025
 5308W        W76924  40.572  27.951  14.339
 5309W        W76925  19.187   3.784   0.326
 5310W        W76926  24.160  20.066  13.138
 5311W        W76927  21.201  25.875   2.832
 5312W        W76928  25.739  13.554   1.856
 5313W        W76929  31.825  36.069   0.422
 5314W        W76930  18.282   3.026   1.820
 5315W        W76931  28.115  14.603   3.629
 5316W        W76932  11.824  44.377  10.278
 5317W        W76933  11.197   7.394   4.621
 5318W        W76934  24.087  41.966  11.599
 5319W        W76935   2.210  37.423  10.872
 5320W        W76936   2.243   0.920  11.097
 5321W        W76937   2.157  12.305  14.521
 5322W        W76938  13.628  41.287   2.632
 5323W        W76939   0.715  34.351  13.418
 5324W        W76940   5.484   4.906  12.451
 5325W        W76941  15.377  18.175   3.248
 5326W        W76942  25.684  14.244  13.324
 5327W        W76943  37.957  39.289   2.718
 5328W        W76944  44.947  21.771  12.394
 5329W        W76945  41.538  33.454  11.070
 5330W        W76946  18.330  41.118  14.158
 5331W        W76947  31.949   4.703   2.791
 5332W        W76948   6.732  15.401  14.059
 5333W        W76949  33.789   6.278  11.250
 5334W        W76950  31.071  11.757   3.399
 5335W        W76951  25.117   5.949   3.634
 5336W        W76952  44.560   8.443  11.662
 5337W        W76953  10.323   6.780  12.905
 5338W        W76954  39.140  33.455   1.482
 5339W        W76955  13.715  18.305   4.191
 5340W        W76956  24.614  26.261  12.597
 5341W        W76957  22.632  20.283  14.311
 5342W        W76958  37.818  42.802  11.506
 5343W        W76959  11.643  44.340   4.403
 5344W        W76960  12.594  42.503  12.187
 5345W        W76961  15.206   6.423   3.653
 5346W        W76962  35.551  18.841  11.980
 5347W        W76963  35.452  15.374  14.262
 5348W        W76964  30.491  31.208  11.070
 5349W        W76965   1.934  12.585   3.548
 5350W        W76966   1.432  28.240   0.251
 5351W        W76967  14.674   8.278  13.849
 5352W        W76968  28.931  42.422   0.235
 5353W        W76969  34.666  22.565  14.354
 5354W        W76970  21.480  31.557  10.743
 5355W        W76971   5.022  14.480  14.455
 5356W        W76972  16.364  10.500   0.375
 5357W        W76973  25.878  15.321  11.538
 5358W        W76974   3.285  20.193  11.536
 5359W        W76975  28.030  41.505  14.297
 5360W        W76976  37.094  13.377   9.890
 5361W        W76977  38.113  19.471   2.946
 5362W        W76978  20.568  34.972  12.984
 5363W        W76979  19.251   6.822  13.627
 5364W        W76980  40.957  35.546  14.981
 5365W        W76981   7.608  19.451   0.378
 5366W        W76982   9.680   3.964   4.809
 5367W        W76983  14.417  13.699  14.814
 5368W        W76984  34.625  23.879  11.565
 5369W        W76985  39.843  29.883   0.997
 5370W        W76986  31.204  31.345   1.308
 5371W        W76987  23.723  30.170  12.558
 5372W        W76988  11.240   3.029  11.554
 5373W        W76989  19.184  18.159   4.210
 5374W        W76990  31.541   6.408   1.441
 5375W        W76991  25.210  23.089   2.603
 5376W        W76992  18.058   0.458  14.913
 5377W        W76993  25.157  11.345  12.021
 5378W        W76994  42.933   6.894  11.346
 5379W        W76995  24.998  29.697   5.009
 5380W        W76996  22.981   8.453   4.176
 5381W        W76997  32.865  39.998   3.874
 5382W        W76998  35.305  39.824  13.441
 5383W        W76999  31.153  17.967  12.818
 5384W        W77000   5.459   6.859  13.971
 5385W        W77001  41.171  20.746  10.694
 5386W        W77002  10.086  38.792   3.842
 5387W        W77003  30.308  35.857  12.869
 5388W        W77004  42.353  29.545   3.705
 5389W        W77005   2.459  12.901  12.044
 5390W        W77006   7.937   4.408  14.645
 5391W        W77007  11.510  40.294   1.303
 5392W        W77008  12.242  32.949  10.650
 5393W        W77009  32.329  29.990   2.782
 5394W        W77010  10.823  28.207  12.107
 5395W        W77011  41.524  17.693  12.266
 5396W        W77012  27.285  39.022   0.681
 5397W        W77013  20.744   3.305  10.707
 5398W        W77014  28.366  18.531   4.967
 5399W        W77015  29.751  21.858   4.139
 5400W        W77016  42.826  34.847  13.470
 5401W        W77017  24.207  16.349  11.666
 5402W        W77018   4.400   6.680   2.712
 5403W        W77019  28.214  40.606   3.329
 5404W        W77020  15.694   9.940  11.080
 5405W        W77021   7.304  32.437   3.836
 5406W        W77022  41.965  13.835  13.949
 5407W        W77023   7.319  25.023   4.610
 5408W        W77024  23.386  27.414   1.754
 5409W        W77025  10.193  42.016  12.086
 5410W        W77026  42.512  37.393   2.945
 5411W        W77027  36.408   4.740   3.196
 5412W        W77028   8.155   6.364   0.744
 5413W        W77029  26.571  44.642   0.276
 5414W        W77030  20.018  12.970  12.052
 5415W        W77031  14.163  24.430  10.982
 5416W        W77032  11.292  13.392  12.327
 5417W        W77033  23.193  16.044  10.838
 5418W        W77034  43.274   2.878   0.516
 5419W        W77035   4.906  43.468   3.332
 5420W        W77036  37.411   8.895   3.355
 5421W        W77037  36.858   8.893   0.820
 5422W        W77038  10.417  36.761   1.420
 5423W        W77039  44.426  11.260  11.038
 5424W        W77040  31.000  12.830  10.693
 5425W        W77041  19.033  36.444  13.460
 5426W        W77042  13.416  38.810  10.675
 5427W        W77043  42.678   4.938   1.982
 5428W        W77044   0.899  20.305  13.153
 5429W        W77045   7.533  14.273  12.985
 5430W        W77046  22.014  14.496   0.160
 5431W        W77047  21.548  17.093  10.828
 5432W        W77048  23.958  34.179  13.828
 5433W        W77049   2.909  14.611   3.878
 5434W        W77050  30.956  14.554  11.668
 5435W        W77051  40.522   0.515  11.577
 5436W        W77052  23.711   8.327   2.324
 5437W        W77053   0.044  17.783  12.706
 5438W        W77054  30.931   2.205   2.892
 5439W        W77055  43.070  18.301   1.537
 5440W        W77056  39.466  22.179   3.618
 5441W        W77057  21.758  24.147  12.933
 5442W        W77058  14.279   6.943   4.585
 5443W        W77059  40.437  17.819   1.042
 5444W        W77060  23.532   2.509  12.655
 5445W        W77061  26.652  36.811  14.008
 5446W        W77062   4.729   6.617  12.151
 5447W        W77063  19.773  10.388  12.364
 5448W        W77064  27.977  12.837   0.399
 5449W        W77065   1.932  26.049   3.557
 5450W        W77066  34.021  27.914  11.564
 5451W        W77067  19.450  12.272  13.951
 5452W        W77068  28.437  13.034   4.887
 5453W        W77069  30.000  19.495  12.977
 5454W        W77070  11.785  31.822  10.286
 5455W        W77071  41.955  31.081   4.177
 5456W        W77072   0.470   2.975  13.715
 5457W        W77073  31.507  30.401   9.627
 5458W        W77074   7.672   9.891  13.048
 5459W        W77075  43.956  41.963   1.196
 5460W        W77076  28.073  44.776   3.695
 5461W        W77077   8.205  40.594  10.883
 5462W        W77078  10.369  36.004   1.362
 5463W        W77079  44.769  43.570  14.455
 5464W        W77080  11.644  26.176  13.940
 5465W        W77081  26.067  34.200  11.144
 5466W        W77082  21.357  43.597  12.650
 5467W        W77083  15.500  20.422   4.937
 5468W        W77084  10.231  14.554   1.757
 5469W        W77085   0.523  34.736  12.080
 5470W        W77086   7.869  36.433  11.546
 5471W        W77087   0.968  41.044   3.612
 5472W        W77088   7.434  20.195  10.688
 5473W        W77089  26.163  14.460  10.431
 5474W        W77090  24.900   4.129  14.966
 5475W        W77091  31.663   4.172  12.515
 5476W        W77092  42.136  25.761   1.171
 5477W        W77093  23.548  41.474   3.792
 5478W        W77094  15.104  34.938  13.101
 5479W        W77095  11.777  35.863  13.483
 5480W        W77096  34.851  38.803  13.967
 5481W        W77097  16.154  11.621  11.667
 5482W        W77098  29.063  30.630  10.910
 5483W        W77099   4.235  16.743   2.278
 5484W        W77100  42.107  12.205  14.847
 5485W        W77101  16.638  30.096  13.379
 5486W        W77102  26.599  27.487   0.860
 5487W        W77103  20.219  42.992  13.375
 5488W        W77104   6.314  16.173  14.999
 5489W        W77105  24.241  26.841  11.567
 5490W        W77106  34.140  22.524  11.279
 5491W        W77107  35.997  35.580  12.958
 5492W        W77108   8.201  30.415   2.044
 5493W        W77109  20.783  27.258  12.896
 5494W        W77110  31.954  44.068   3.701
 5495W        W77111  34.103  38.930  12.565
 5496W        W77112  41.356  24.654   2.666
 5497W        W77113  27.687  11.715  11.113
 5498W        W77114  12.188  20.226   3.678
 5499W        W77115  43.469  13.258   1.565
 5500W        W77116  27.690  44.176  10.458
 5501W        W77117  23.685  33.563  14.931
 5502W        W77118  21.158  37.907   2.807
 5503W        W77119  20.543   0.650  11.566
 5504W        W77120  35.135  30.173  10.781
 5505W        W77121  19.207   0.412   2.693
 5506W        W77122  14.887  18.268  12.909
 5507W        W77123   2.306  30.567   1.404
 5508W        W77124  36.955  12.195  11.604
 5509W        W77125  37.389  26.073  14.043
 5510W        W77126  32.867   1.540   3.759
 5511W        W77127  15.231  42.258   0.884
 5512W        W77128   0.304  39.875  11.129
 5513W        W77129  12.612  44.334   1.458
 5514W        W77130  25.268  43.080   0.706
 5515W        W77131  30.911  19.287  11.896
 5516W        W77132  37.602   1.965  14.610
 5517W        W77133  42.998  42.491  11.923
 5518W        W77134  38.318  21.930  14.077
 5519W        W77135  21.637  28.671  14.736
 5520W        W77136  16.219  20.771  11.881
 5521W        W77137  36.000  19.366   3.695
 5522W        W77138  38.524  10.246  11.233
 5523W        W77139  33.017  35.861  14.840
 5524W        W77140   2.284   8.272  14.545
 5525W        W77141  20.526  22.128  12.916
 5526W        W77142  10.377  44.331   0.718
 5527W        W77143  18.740  37.582   1.068
 5528W        W77144   1.953  17.128  12.459
 5529W        W77145  37.634  26.401   2.055
 5530W        W77146  43.569  31.733  11.815
 5531W        W77147  31.094   0.900   0.471
 5532W        W77148  13.465  30.673   2.227
 5533W        W77149  26.875  28.135   4.219
 5534W        W77150   7.874   5.823   3.071
 5535W        W77151  42.554  13.132   3.257
 5536W        W77152  29.681  28.520  12.103
 5537W        W77153   6.942  36.585   4.121
 5538W        W77154  24.566   8.632  11.054
 5539W        W77155  10.123  25.677   4.503
 5540W        W77156  39.974  34.722  14.213
 5541W        W77157  15.537  28.134  11.210
 5542W        W77158  13.890   1.400   2.339
 5543W        W77159  29.646  17.690   1.482
 5544W        W77160  18.734  35.660  11.897
 5545W        W77161   4.173  20.595   1.859
 5546W        W77162  13.568   6.927  12.126
 5547W        W77163  15.492  11.710   2.133
 5548W        W77164  24.184  34.777  14.446
 5549W        W77165  20.252   7.490   0.495
 5550W        W77166   6.264  42.779  11.622
 5551W        W77167  25.776  23.513  13.820
 5552W        W77168  18.295   5.501  11.093
 5553W        W77169  34.635  42.748   3.601
 5554W        W77170  11.514  41.681   1.412
 5555W        W77171  36.149  19.827   2.676
 5556W        W77172  11.129  23.092   2.607
 5557W        W77173  35.443  22.487  13.315
 5558W        W77174  16.780   3.876  13.492
 5559W        W77175   4.415  36.266  13.917
 5560W        W77176  44.976  18.852  10.873
 5561W        W77177  38.076  31.216  13.155
 5562W        W77178   1.943  15.190  10.762
 5563W        W77179  27.241   8.617  14.051
 5564W        W77180  33.806  35.625   5.108
 5565W        W77181   6.661  28.946   2.833
 5566W        W77182  34.426  26.186  14.924
 5567W        W77183  23.452  16.565  12.901
 5568W        W77184  42.117  19.750  10.385
 5569W        W77185  31.711   9.809   3.814
 5570W        W77186  34.335  12.385   1.822
 5571W        W77187   4.721  36.874   1.806
 5572W        W77188  28.107  35.959   3.229
 5573W        W77189  22.850   0.951  13.883
 5574W        W77190  26.585  43.992  13.783
 5575W        W77191   4.200  43.722   1.288
 5576W        W77192   1.600   1.716  12.073
 5577W        W77193  22.637   0.379   1.400
 5578W        W77194  22.517  22.178   2.397
 5579W        W77195  37.791   2.703   1.817
 5580W        W77196   2.509  37.920  10.785
 5581W        W77197  22.520  27.034  12.530
 5582W        W77198  39.580  33.985   4.160
 5583W        W77199  36.386   4.679  10.253
 5584W        W77200  21.907  21.765  11.791
 5585W        W77201  21.244  18.513   3.367
 5586W        W77202   6.574  31.031  11.898
 5587W        W77203  17.021  40.756  12.977
 5588W        W77204  20.520  28.313  12.649
 5589W        W77205  43.072  23.529  12.910
 5590W        W77206   4.797  34.105  14.330
 5591W        W77207  12.883  42.471  10.771
 5592W        W77208   1.317   3.196   3.816
 5593W        W77209  26.877  27.526  12.027
 5594W        W77210  36.869  35.847  11.544
 5595W        W77211  17.986   9.710   4.349
 5596W        W77212  14.259  17.993  11.484
 5597W        W77213  10.710  19.159   3.806
 5598W        W77214  14.655  15.299  10.546
 5599W        W77215  11.933  34.587  12.472
 5600W        W77216   2.311  44.358   4.262
 5601W        W77217  41.214  18.789  13.303
 5602W        W77218  36.297   8.281  13.588
 5603W        W77219  22.040  38.576   4.589
 5604W        W77220   0.696  20.245   0.952
 5605W        W77221  14.062   3.154   1.661
 5606W        W77222  17.952  12.323   4.839
 5607W        W77223  13.090  38.506  12.433
 5608W        W77224  12.184  25.162  10.679
 5609W        W77225  18.523  24.696  14.823
 5610W        W77226  37.451   9.932   3.326
 5611W        W77227  14.166  12.165   2.193
 5612W        W77228   7.332  44.780   3.278
 5613W        W77229  13.646  10.581   3.953
 5614W        W77230  43.137   8.223   0.902
 5615W        W77231   3.154   6.427  14.768
 5616W        W77232  39.571  24.314   0.249
 5617W        W77233  41.101  12.169  14.948
 5618W        W77234  26.946  22.966  14.929
 5619W        W77235  43.480  35.088  14.971
 5620W        W77236  11.027  11.945  11.605
 5621W        W77237  29.636  19.580   1.463
 5622W        W77238  43.441  32.232   2.239
 5623W        W77239  31.635   5.197  13.452
 5624W        W77240  20.589   9.176  10.718
 5625W        W77241  30.372  34.365  14.367
 5626W        W77242  19.287   3.758   2.177
 5627W        W77243  40.000  15.611   2.199
 5628W        W77244   2.976   1.798  10.538
 5629W        W77245  19.715  12.933   1.348
 5630W        W77246  27.862  23.752  14.907
 5631W        W77247  12.707   9.438   0.516
 5632W        W77248  38.244   1.712  14.039
 5633W        W77249  13.873   8.865   2.578
 5634W        W77250  41.029  23.506   2.956
 5635W        W77251  13.500  26.696   0.682
 5636W        W77252  24.966  37.083   1.860
 5637W        W77253  39.876   4.693   2.122
 5638W        W77254  26.582  17.270  10.939
 5639W        W77255  44.281   8.659   4.112
 5640W        W77256  26.904  14.318   0.091
 5641W        W77257   0.899  12.878   0.735
 5642W        W77258  24.690  30.703  11.776
 5643W        W77259  40.355   8.360   3.882
 5644W        W77260  43.431  14.385  12.630
 5645W        W77261  28.219  40.973   2.672
 5646W        W77262  40.792  15.762  10.671
 5647W        W77263  25.011   0.353   4.534
 5648W        W77264   9.896   8.849  10.716
 5649W        W77265  40.245  22.257   2.280
 5650W        W77266  12.057  25.586   2.397
 5651W        W77267  28.693  42.831   3.048
 5652W        W77268  22.668  27.182  13.595
 5653W        W77269  26.678  31.648  11.133
 5654W        W77270  10.916   4.689   1.767
 5655W        W77271  12.346  33.869   1.285
 5656W        W77272  41.479   6.136  14.803
 5657W        W77273  15.545   5.494   0.834
 5658W        W77274  30.069  14.977   4.106
 5659W        W77275  43.372   7.470   2.252
 5660W        W77276  43.719  25.241  11.923
 5661W        W77277  20.047  44.902   2.132
 5662W        W77278  25.623  17.730  14.741
 5663W        W77279  34.854  35.361   2.593
 5664W        W77280   2.550  20.765  12.361
 5665W        W77281  38.038   8.605   2.614
 5666W        W77282  16.610  23.044   1.662
 5667W        W77283  16.173  25.204   3.620
 5668W        W77284  23.281  28.591  13.770
 5669W        W77285   6.233  44.859  10.616
 5670W        W77286  16.082  17.332   2.148
 5671W        W77287  24.503   8.663  14.415
 5672W        W77288   3.504   9.472  14.058
 5673W        W77289  26.074  30.714  12.911
 5674W        W77290  12.181  25.487   2.882
 5675W        W77291  11.752   6.710  12.948
 5676W        W77292  44.013   8.117   2.820
 5677W        W77293  15.057  36.106  14.812
 5678W        W77294   8.591  33.388  11.076
 5679W        W77295  28.521  24.013   3.406
 5680W        W77296   3.989  10.107   2.218
 5681W        W77297  22.147  23.551   4.773
 5682W        W77298  18.644  40.856   4.850
 5683W        W77299  28.398  40.531  14.475
 5684W        W77300   8.131  35.382  11.135
 5685W        W77301   5.575   5.948  14.442
 5686W        W77302  32.922  18.805   4.729
 5687W        W77303   8.367  33.508   4.032
 5688W        W77304  41.318  17.557  13.283
 5689W        W77305  39.557  28.542  10.872
 5690W        W77306  10.291  43.726   0.088
 5691W        W77307   3.508   2.719  10.810
 5692W        W77308  19.357  23.532   2.784
 5693W        W77309  15.675  18.572  14.900
 5694W        W77310  22.220  30.679   2.314
 5695W        W77311   3.890  34.015   0.787
 5696W        W77312  17.052  22.496  12.435
 5697W        W77313  44.762   4.170  12.319
 5698W        W77314   9.733   2.448   3.732
 5699W        W77315  40.145  11.970   2.269
 5700W        W77316  14.323  41.748  10.806
 5701W        W77317  25.552  15.354   2.399
 5702W        W77318  15.523  42.739   0.773
 5703W        W77319   6.386  39.843  11.659
 5704W        W77320  15.193  29.010   4.206
 5705W        W77321   3.271  22.585   5.020
 5706W        W77322  20.707  24.809  14.293
 5707W        W77323  19.449  41.093   0.308
 5708W        W77324  38.727   1.499   1.221
 5709W        W77325  38.929  44.350  13.030
 5710W        W77326  25.687  17.193  11.146
 5711W        W77327   9.973  10.099   0.930
 5712W        W77328  33.623   2.391  11.178
 5713W        W77329   5.657   7.731   3.198
 5714W        W77330  33.991  28.469   1.117
 5715W        W77331  31.911  10.725   0.321
 5716W        W77332  16.110  39.086   3.625
 5717W        W77333  36.060   2.501   3.821
 5718W        W77334  25.762  15.142   4.574
 5719W        W77335  12.818   4.976  11.565
 5720W        W77336   6.802  42.047   2.688
 5721W        W77337   9.206  16.355  11.091
 5722W        W77338  44.767  11.406   4.492
 5723W        W77339  20.647   9.362  13.379
 5724W        W77340   7.318  15.718   1.161
 5725W        W77341  11.177  10.741   3.138
 5726W        W77342  38.406  35.335  10.683
 5727W        W77343   9.794  13.148  10.771
 5728W        W77344  29.957  30.519   4.724
 5729W        W77345  44.648  10.745   0.938
 5730W        W77346   7.216  31.418   2.585
 5731W        W77347  17.806  21.760   0.268
 5732W        W77348  38.831  31.903   0.856
 5733W        W77349  13.659  25.409   0.316
 5734W        W77350  40.518  36.766   1.367
 5735W        W77351   0.456  33.485  12.960
 5736W        W77352  43.527  42.787  14.896
 5737W        W77353  27.250  32.096  13.582
 5738W        W77354  15.360   8.905   0.969
 5739W        W77355  34.969  19.620   1.963
 5740W        W77356  24.204  40.996  12.449
 5741W        W77357  42.370  21.421  11.474
 5742W        W77358   1.512  34.952  14.887
 5743W        W77359   1.138  22.747   4.102
 5744W        W77360   1.457   5.498   2.391
 5745W        W77361  21.101  36.520   4.259
 5746W        W77362  35.137  22.133  10.802
 5747W        W77363  18.130   7.380  11.507
 5748W        W77364   0.576  41.499  14.820
 5749W        W77365  17.184  38.980  14.769
 5750W        W77366  34.724  39.127  14.387
 5751W        W77367  43.861  29.697   3.077
 5752W        W77368  34.552  17.116  14.862
 5753W        W77369  16.887   1.874   0.751
 5754W        W77370  20.481  23.680   0.312
 5755W        W77371   3.028  42.033  13.460
 5756W        W77372   7.749  21.846  11.802
 5757W        W77373  33.085  42.834  14.512
 5758W        W77374  17.680  25.405   1.072
 5759W        W77375   5.708   2.202   4.533
 5760W        W77376  36.393  42.794   0.415
 5761W        W77377  42.618   1.968   2.884
 5762W        W77378   0.302   8.386   1.725
 5763W        W77379  35.819   3.231  12.406
 5764W        W77380  17.058   8.718  14.931
 5765W        W77381  28.519  10.353   1.912
 5766W        W77382  27.909   9.556  14.971
 5767W        W77383  34.501  42.047   1.762
 5768W        W77384  41.295   0.777   0.572
 5769W        W77385  31.959  14.113  11.591
 5770W        W77386  38.515  19.452   1.634
 5771W        W77387  20.055  39.145  12.657
 5772W        W77388  34.082   2.012   1.421
 5773W        W77389  10.435  21.607   3.685
 5774W        W77390  41.044   5.642   0.479
 5775W        W77391  42.947  38.373   2.632
 5776W        W77392   8.423  14.866  11.093
 5777W        W77393   7.123  25.371   3.190
 5778W        W77394  39.348  22.045  10.631
 5779W        W77395  42.397  40.846  11.726
 5780W        W77396   9.348  38.331   1.309
 5781W        W77397  16.730   3.871   1.728
 5782W        W77398  35.522  28.663  10.529
 5783W        W77399  22.111  42.474   1.306
 5784W        W77400   8.338  40.310  12.444
 5785W        W77401  13.236  12.811   1.202
 5786W        W77402  13.401   6.141   3.120
 5787W        W77403  42.015  13.666   4.365
 5788W        W77404  22.455  10.088   1.376
 5789W        W77405  33.941  31.007   1.799
 5790W        W77406  13.082  19.345  14.330
 5791W        W77407  34.883  26.455   4.997
 5792W        W77408  17.019  16.318   2.318
 5793W        W77409  36.541   0.671   2.660
 5794W        W77410  43.905  40.854   2.347
 5795W        W77411  36.235  10.399  10.285
 5796W        W77412  12.688  12.990   2.360
 5797W        W77413   9.338   7.430   2.118
 5798W        W77414  11.714  18.781  11.516
 5799W        W77415   7.733  43.281   3.269
 5800W        W77416  23.831  14.361   1.930
 5801W        W77417  21.058  30.055   4.088
 5802W        W77418  33.906  12.848  12.955
 5803W        W77419  17.510  43.297   1.266
 5804W        W77420  29.442   6.902  12.063
 5805W        W77421   6.396  35.061  10.698
 5806W        W77422  10.121  14.738  13.726
 5807W        W77423  42.144  28.100  11.065
 5808W        W77424  41.830  36.642   5.004
 5809W        W77425  29.094  12.186   1.767
 5810W        W77426  20.480  15.436   2.359
 5811W        W77427  24.116  13.053  12.544
 5812W        W77428  43.050  26.427  13.348
 5813W        W77429  20.159  25.008  12.906
 5814W        W77430  14.566  24.761   1.105
 5815W        W77431  32.698   0.207   2.481
 5816W        W77432   4.408   8.327   3.184
 5817W        W77433  27.678  20.599  13.773
 5818W        W77434   8.304  22.009   0.715
 5819W        W77435  38.905  13.789   2.799
 5820W        W77436  19.030  42.836  12.782
 5821W        W77437  20.028  41.457   1.055
 5822W        W77438  39.069  34.908   3.741
 5823W        W77439  19.243  31.925  11.797
 5824W        W77440  44.296  42.962   1.744
 5825W        W77441  28.053  25.024   1.558
 5826W        W77442  29.108  32.991   3.128
 5827W        W77443  22.682  36.803  13.024
 5828W        W77444   1.234  17.749   4.403
 5829W        W77445   9.298  32.818   1.879
 5830W        W77446  20.591  18.219  12.927
 5831W        W77447  15.725  29.366  12.069
 5832W        W77448  15.595   2.760  11.201
 5833W        W77449  42.530  26.081   4.542
 5834W        W77450  22.185  35.161  14.981
 5835W        W77451  42.326  42.965   4.367
 5836W        W77452  43.465  22.657   4.640
 5837W        W77453  42.009  25.042   3.748
 5838W        W77454  16.219  19.500  14.118
 5839W        W77455  26.396   3.310   2.408
 5840W        W77456   7.352  35.107   3.397
 5841W        W77457  16.236  12.110  10.998
 5842W        W77458  27.298  12.744  11.260
 5843W        W77459  13.328  23.989  12.513
 5844W        W77460  42.279  33.872   2.284
 5845W        W77461  41.970  22.576   3.890
 5846W        W77462  22.771  24.887  13.911
 5847W        W77463  15.808  15.669   4.632
 5848W        W77464  41.109  31.928   0.815
 5849W        W77465  33.854  31.940  14.351
 5850W        W77466  19.501   2.918   4.614
 5851W        W77467   5.443  28.934   4.435
 5852W        W77468  18.793  17.571   4.107
 5853W        W77469  12.651  36.076   0.973
 5854W        W77470  11.161  10.786  10.704
 5855W        W77471  14.647  33.474   1.836
 5856W        W77472  40.768  37.621  10.702
 5857W        W77473  27.018   3.256   1.190
 5858W        W77474  32.239  19.499  12.060
 5859W        W77475  40.479  10.701  13.778
 5860W        W77476  33.583  41.310   0.792
 5861W        W77477   6.163   5.484  12.503
 5862W        W77478  13.168   8.133   3.214
 5863W        W77479   2.319   0.464  14.570
 5864W        W77480  24.172  37.284   0.856
 5865W        W77481  40.552  14.231  13.851
 5866W        W77482  26.096  40.126   1.914
 5867W        W77483  41.515   0.681  12.932
 5868W        W77484  18.643  13.186  12.004
 5869W        W77485  18.573   5.767   4.478
 5870W        W77486  17.902  13.184   2.458
 5871W        W77487  30.925   9.340  11.183
 5872W        W77488  39.325   7.197   0.025
 5873W        W77489  30.316  28.450  10.211
 5874W        W77490  37.092   8.851  14.283
 5875W        W77491  27.596  26.036   2.602
 5876W        W77492  34.828  27.665  11.063
 5877W        W77493   9.356   0.913   1.250
 5878W        W77494  27.840  36.399  11.585
 5879W        W77495  37.633  36.887   0.555
 5880W        W77496   4.154   2.214  13.487
 5881W        W77497  29.036   2.445   2.410
 5882W        W77498  12.911  20.702   3.591
 5883W        W77499  37.452  31.146   2.035
 5884W        W77500  34.403  40.496  12.880
 5885W        W77501  29.420   8.945  11.292
 5886W        W77502  41.124  34.343  13.707
 5887W        W77503  37.977  41.230   2.735
 5888W        W77504  43.240  25.169  12.162
 5889W        W77505   7.230  21.773   4.157
 5890W        W77506  26.676  10.756  12.642
 5891W        W77507  18.632  29.160   4.599
 5892W        W77508   9.597  40.366   3.326
 5893W        W77509  41.676   6.913  13.861
 5894W        W77510  42.151  35.056  13.024
 5895W        W77511  20.332  25.794   0.941
 5896W        W77512  33.069  40.551  11.094
 5897W        W77513   0.086   7.579  14.952
 5898W        W77514  19.082  34.479   2.264
 5899W        W77515  19.545  32.283  11.594
 5900W        W77516  38.402   6.762   2.549
 5901W        W77517  39.925  13.787   0.978
 5902W        W77518   1.338   2.693  12.565
 5903W        W77519  38.623  35.944   2.397
 5904W        W77520   4.259  42.568  10.650
 5905W        W77521  32.006  12.771   4.395
 5906W        W77522  41.412  24.623  12.599
 5907W        W77523  24.721  17.560   2.477
 5908W        W77524   6.613  32.504  12.240
 5909W        W77525   1.343  11.860   4.260
 5910W        W77526  11.357  40.870   3.339
 5911W        W77527  19.036   1.170  12.823
 5912W        W77528   6.094  15.280  12.167
 5913W        W77529  11.335  43.259   4.831
 5914W        W77530   4.903  42.560  14.825
 5915W        W77531  35.980  21.181  11.062
 5916W        W77532  33.058  34.661  10.912
 5917W        W77533  40.637   6.161  11.150
 5918W        W77534  18.634  35.477   0.869
 5919W        W77535   0.387  10.348   9.931
 5920W        W77536   5.753  35.531   4.279
 5921W        W77537  31.668  36.370  14.967
 5922W        W77538  25.748  20.545   1.295
 5923W        W77539  37.772   1.942  11.788
 5924W        W77540  20.248  16.036   1.162
 5925W        W77541   7.381  28.148   2.918
 5926W        W77542   6.270   9.976   4.072
 5927W        W77543  19.182  33.190   2.788
 5928W        W77544  13.683  15.261   0.470
 5929W        W77545  15.231  33.351  12.236
 5930W        W77546  11.275   3.521  14.131
 5931W        W77547  42.344  19.822  14.350
 5932W        W77548  12.153  24.089   4.554
 5933W        W77549  34.321  40.342   1.394
 5934W        W77550  39.434  17.055   4.225
 5935W        W77551  17.207  29.153  14.442
 5936W        W77552  32.298   1.422   4.884
 5937W        W77553  38.781   2.312  14.425
 5938W        W77554  34.823  35.694  12.043
 5939W        W77555  43.317   9.022   0.026
 5940W        W77556   7.405  34.286   2.822
 5941W        W77557  33.628   1.462  10.702
 5942W        W77558  30.466  13.731  12.766
 5943W        W77559   0.940   1.552   4.081
 5944W        W77560  18.019  19.490   0.799
 5945W        W77561   8.256  40.798   0.767
 5946W        W77562  31.093  32.635  11.547
 5947W        W77563   5.697  29.880   0.840
 5948W        W77564  37.837   0.206   3.718
 5949W        W77565   0.440  37.516  13.382
 5950W        W77566   1.764  34.979   2.555
 5951W        W77567  26.409   5.727  14.885
 5952W        W77568  13.199  24.475   1.136
 5953W        W77569   4.417   9.925  13.063
 5954W        W77570  30.570  11.648  12.533
 5955W        W77571  12.432  39.498   1.388
 5956W        W77572  23.548  39.461   3.744
 5957W        W77573  24.175  40.410  13.075
 5958W        W77574   4.300   9.708   4.270
 5959W        W77575  36.275   5.249   0.844
 5960W        W77576  36.483  43.914  13.542
 5961W        W77577  16.799  13.622  12.327
 5962W        W77578  43.653   7.525  13.550
 5963W        W77579  33.975  32.190  10.979
 5964W        W77580  23.543   1.388   4.163
 5965W        W77581  24.646   0.995  12.906
 5966W        W77582   7.115  24.653  13.315
 5967W        W77583  12.688  11.445  10.728
 5968W        W77584   1.919  24.136  11.236
 5969W        W77585   7.356  30.286   0.578
 5970W        W77586  36.325   6.895  11.225
 5971W        W77587  17.259  27.040  14.457
 5972W        W77588  19.347  14.580   1.284
 5973W        W77589  32.647  28.458  12.010
 5974W        W77590  31.580  14.702   2.847
 5975W        W77591   7.938  40.925  14.522
 5976W        W77592  43.813   2.897  13.771
 5977W        W77593  32.191  25.530   2.576
 5978W        W77594  25.727   4.313   4.949
 5979W        W77595  17.987  17.707   0.901
 5980W        W77596  16.250  29.151  13.095
 5981W        W77597  29.106  35.553  14.503
 5982W        W77598  28.373  34.907  11.496
 5983W        W77599  14.319   3.759   9.686
 5984W        W77600  31.732  37.034   2.248
 5985W        W77601   2.592  24.004  10.689
 5986W        W77602   6.152  44.243  14.397
 5987W        W77603  42.434  38.543   9.709
 5988W        W77604  20.203   3.648   0.324
 5989W        W77605   8.808  43.078   4.485
 5990W        W77606  32.007  38.527  14.063
 5991W        W77607   8.260  43.857   0.362
 5992W        W77608  20.058  38.302   1.216
 5993W        W77609  28.079  34.048   1.482
 5994W        W77610  43.066  28.925  12.547
 5995W        W77611  23.661   3.728   2.593
 5996W        W77612  18.741  38.049   1.850
 5997W        W77613  16.582  39.533  12.021
 5998W        W77614   7.945  32.760   3.284
 5999W        W77615  39.713  36.797  11.095
 6000W        W77616  40.043  29.729   1.447
 6001W        W77617  43.031  37.588   1.488
 6002W        W77618  25.094   5.910  14.355
 6003W        W77619  43.352   3.267   0.181
 6004W        W77620  14.712  34.098  12.031
 6005W        W77621  13.685  13.607  14.477
 6006W        W77622   1.909   9.974   4.795
 6007W        W77623  25.550   6.167   1.796
 6008W        W77624  44.427  10.091  14.319
 6009W        W77625   4.173   0.131   2.404
 6010W        W77626  35.204  33.329   2.803
 6011W        W77627   3.858   6.501  13.581
 6012W        W77628   7.670  35.418  14.684
 6013W        W77629  15.245  29.956  10.662
 6014W        W77630  36.642  43.938  11.290
 6015W        W77631   4.282   3.325   3.247
 6016W        W77632  33.443  21.553   2.216
 6017W        W77633  20.787  17.277   2.918
 6018W        W77634  16.876  13.199   2.425
 6019W        W77635  11.879  19.847   3.521
 6020W        W77636  16.265  36.753  14.036
 6021W        W77637  27.866  30.995  13.018
 6022W        W77638  36.524   4.954   0.457
 6023W        W77639   6.133  43.956   3.590
 6024W        W77640   8.875  14.574   4.091
 6025W        W77641  23.984  15.869   4.113
 6026W        W77642  34.498  38.376   3.402
 6027W        W77643  39.646  42.514   4.497
 6028W        W77644   3.452  17.135   4.531
 6029W        W77645  11.605   8.628  11.302
 6030W        W77646  38.566  36.727  13.359
 6031W        W77647  35.945  34.025   4.928
 6032W        W77648  41.991  26.866   3.389
 6033W        W77649  29.937   9.440  11.115
 6034W        W77650  27.683  17.201   3.058
 6035W        W77651  23.596  40.899  11.573
 6036W        W77652  42.338  38.884  11.461
 6037W        W77653   5.693  27.194   1.327
 6038W        W77654  22.078  42.754  13.900
 6039W        W77655  39.052  23.085  13.002
 6040W        W77656  11.137  22.060   3.389
 6041W        W77657  39.525  33.560  12.306
 6042W        W77658  13.183   2.958   3.696
 6043W        W77659  25.311   0.955   1.429
 6044W        W77660  28.001  12.355   2.289
 6045W        W77661  39.372  25.218  10.785
 6046W        W77662  39.505  16.091   1.858
 6047W        W77663  32.224  17.444  14.991
 6048W        W77664  20.581  36.584   3.915
 6049W        W77665   4.693  12.728  12.119
 6050W        W77666  24.126   2.981   3.783
 6051W        W77667   2.924  18.149   3.208
 6052W        W77668   5.186  10.856  11.546
 6053W        W77669  23.219   8.237  14.770
 6054W        W77670   7.683  16.637  12.926
 6055W        W77671   1.000   2.194   3.191
 6056W        W77672   5.296  44.522   1.438
 6057W        W77673  10.191   3.339   2.211
 6058W        W77674  15.134  18.226  14.310
 6059W        W77675  29.292   6.779  10.969
 6060W        W77676  33.673  39.043   4.147
 6061W        W77677  14.746   0.265  13.213
 6062W        W77678  28.385  40.568  13.241
 6063W        W77679   5.793  10.315  14.499
 6064W        W77680  23.253  20.172  11.854
 6065W        W77681  40.531  42.024  10.790
 6066W        W77682   8.619  39.410  10.965
 6067W        W77683  10.806  18.548   1.158
 6068W        W77684  36.373  12.605   4.348
 6069W        W77685   2.420  10.236  13.382
 6070W        W77686   0.112  34.887  14.258
 6071W        W77687  13.799  19.789  13.986
 6072W        W77688   1.629   0.767   0.723
 6073W        W77689  41.912   3.857  10.601
 6074W        W77690  10.402  18.475  12.076
 6075W        W77691  12.527  44.508  14.619
 6076W        W77692  36.375  43.590   1.829
 6077W        W77693  38.265  11.868   2.220
 6078W        W77694   2.821   2.973   2.287
 6079W        W77695  20.284  31.703   4.186
 6080W        W77696   1.512  17.369  11.503
 6081W        W77697  43.922  14.379   4.560
 6082W        W77698  35.941   7.839  11.291
 6083W        W77699  11.732  16.351  13.407
 6084W        W77700  23.339  36.152  10.648
 6085W        W77701   4.833  34.574   2.385
 6086W        W77702  28.043  22.972  11.676
 6087W        W77703  19.144  25.587   0.049
 6088W        W77704  25.100  32.939   1.238
 6089W        W77705  30.454  25.558  13.987
 6090W        W77706  37.460  27.287   0.372
 6091W        W77707   4.695   2.462  10.644
 6092W        W77708  33.583  17.281   2.209
 6093W        W77709  39.018  34.601  12.931
 6094W        W77710  39.242  27.697  12.931
 6095W        W77711  44.901  16.602   1.437
 6096W        W77712  40.998  19.144  12.987
 6097W        W77713  44.981  35.953   1.367
 6098W        W77714  21.589  21.539   0.940
 6099W        W77715   1.975  27.832  13.670
 6100W        W77716   2.308  41.211   0.215
 6101W        W77717   3.695  36.931  12.487
 6102W        W77718  35.144  24.945  11.582
 6103W        W77719  11.173  28.125   4.761
 6104W        W77720  15.835  16.602  11.110
 6105W        W77721   2.951   9.320  14.844
 6106W        W77722  18.645  20.443  14.066
 6107W        W77723  30.120  26.921   1.368
 6108W        W77724   0.006  44.348   2.627
 6109W        W77725  40.081  26.034  14.461
 6110W        W77726  37.906  32.756   0.451
 6111W        W77727  41.711   5.261  13.672
 6112W        W77728  41.118  27.185  14.387
 6113W        W77729  26.067   7.262   0.442
 6114W        W77730  44.796   0.198   2.612
 6115W        W77731  16.752  33.486  13.321
 6116W        W77732  32.084  22.608   0.361
 6117W        W77733   1.107   4.886  13.482
 6118W        W77734  33.829   6.923  14.489
 6119W        W77735   3.342  30.983   0.627
 6120W        W77736   8.864   4.813   4.647
 6121W        W77737  40.998  11.716  10.936
 6122W        W77738  16.803  44.454   4.700
 6123W        W77739   5.384  11.486  12.810
 6124W        W77740  12.796   3.675  13.261
 6125W        W77741  29.909  26.460  11.009
 6126W        W77742  15.735  42.284  14.002
 6127W        W77743  19.520   3.089   0.839
 6128W        W77744  40.440  11.397   4.708
 6129W        W77745  28.704   2.715  12.071
 6130W        W77746  31.371  17.664  10.584
 6131W        W77747  32.149  11.391  12.067
 6132W        W77748   8.774  37.361  10.727
 6133W        W77749   6.440  33.943   1.908
 6134W        W77750  38.078  25.933  11.270
 6135W        W77751  11.251   5.702   1.400
 6136W        W77752  44.572  15.723  13.838
 6137W        W77753  44.020  21.636   3.749
 6138W        W77754   6.321  16.674  13.568
 6139W        W77755  18.354  41.893   1.692
 6140W        W77756  39.998   8.112  14.446
 6141W        W77757  30.782  15.726   3.250
 6142W        W77758  16.498  43.311   1.190
 6143W        W77759  19.634  17.733  13.024
 6144W        W77760  11.806  25.190   2.659
 6145W        W77761  24.535  44.261  10.645
 6146W        W77762   6.243  37.385  11.123
 6147W        W77763  34.187  21.209  10.751
 6148W        W77764  20.832  22.861  14.036
 6149W        W77765  21.922   9.628  11.673
 6150W        W77766   5.343  36.796  14.044
 6151W        W77767  31.275  36.546   0.276
 6152W        W77768  31.493  13.686   2.697
 6153W        W77769  37.566  24.643  14.503
 6154W        W77770  28.363  23.834  13.745
 6155W        W77771  11.287   2.182  14.572
 6156W        W77772   4.902   0.833   2.708
 6157W        W77773  43.535   0.304  13.231
 6158W        W77774  40.403  21.697   0.202
 6159W        W77775  38.887  36.662  10.736
 6160W        W77776  24.265  36.763   2.800
 6161W        W77777  17.918  17.830   1.489
 6162W        W77778  43.857   1.955  10.647
 6163W        W77779   1.323   2.034   4.811
 6164W        W77780  33.789  23.087  12.064
 6165W        W77781  31.950  24.210   0.505
 6166W        W77782   0.925  29.643   3.531
 6167W        W77783  44.307   4.283   3.713
 6168W        W77784  24.560  27.219   0.515
 6169W        W77785  19.312  15.164  11.486
 6170W        W77786  10.376   9.002  10.809
 6171W        W77787  31.522   6.700  11.590
 6172W        W77788   9.256  22.604   4.480
 6173W        W77789  35.504  11.080  11.758
 6174W        W77790  23.947   0.750   1.764
 6175W        W77791  43.703  37.050   3.400
 6176W        W77792  37.780  39.758   2.694
 6177W        W77793   8.017  17.046   4.586
 6178W        W77794  25.986  28.930   3.727
 6179W        W77795   5.457   8.516   4.937
 6180W        W77796   9.744  44.762  14.398
 6181W        W77797  42.526   0.432   1.475
 6182W        W77798  27.965  25.091  14.994
 6183W        W77799  22.413   6.236   5.047
 6184W        W77800   5.910  37.454   1.470
 6185W        W77801  26.253  18.666   1.173
 6186W        W77802  12.737  18.573  12.582
 6187W        W77803  24.759   4.097  11.247
 6188W        W77804  39.438  12.178  13.173
 6189W        W77805  23.162  20.764   1.912
 6190W        W77806  24.026   2.331  11.032
 6191W        W77807  33.035  23.050   0.848
 6192W        W77808  20.536  12.663   1.781
 6193W        W77809  37.988  31.118   2.374
 6194W        W77810  14.589   5.316  13.853
 6195W        W77811   4.273  12.599  11.689
 6196W        W77812  34.545  31.940  13.761
 6197W        W77813  40.400  16.705   0.797
 6198W        W77814  15.072  22.055   4.103
 6199W        W77815   4.887  36.373  11.051
 6200W        W77816   2.919  21.053  11.165
 6201W        W77817  44.441  11.798  10.936
 6202W        W77818  23.694  40.810   4.303
 6203W        W77819  44.952   0.728  13.308
 6204W        W77820  36.885  12.587  13.899
 6205W        W77821  41.480  12.473   3.276
 6206W        W77822  18.137   1.902   2.340
 6207W        W77823   9.435   9.371   2.495
 6208W        W77824   9.218  35.536   0.145
 6209W        W77825  44.410  14.656  11.333
 6210W        W77826  26.193  35.814   0.323
 6211W        W77827  23.126  27.015  12.848
 6212W        W77828   8.750  41.764   3.181
 6213W        W77829  11.130   7.457  12.963
 6214W        W77830   0.012  42.198  14.389
 6215W        W77831  38.529  41.387  12.480
 6216W        W77832  39.300   6.687  10.886
 6217W        W77833  42.965  28.887   3.789
 6218W        W77834  23.800   4.720   4.234
 6219W        W77835  20.877  24.979   4.593
 6220W        W77836  12.621   2.010  13.839
 6221W        W77837  43.422   7.013  13.550
 6222W        W77838   0.693  24.329   4.064
 6223W        W77839   1.487  37.003   4.219
 6224W        W77840  39.426  35.116  14.927
 6225W        W77841  44.666  28.105   3.559
 6226W        W77842  15.357   5.887   4.542
 6227W        W77843  10.695   3.921   2.321
 6228W        W77844  30.322  38.937   2.669
 6229W        W77845  33.212  40.411   4.948
 6230W        W77846  26.066  41.992   3.639
 6231W        W77847   8.970  31.699   2.191
 6232W        W77848  40.857  29.159   2.160
 6233W        W77849  36.012  34.681  14.919
 6234W        W77850   6.712   6.223  12.021
 6235W        W77851   2.718   8.041   2.650
 6236W        W77852   3.613   7.857   1.341
 6237W        W77853  18.575  18.706   2.596
 6238W        W77854   6.977   4.806   2.586
 6239W        W77855  31.059  24.719   2.367
 6240W        W77856   2.849  43.158   3.687
 6241W        W77857  16.581   0.711  11.549
 6242W        W77858   2.861  39.296   3.699
 6243W        W77859  44.406  39.995   3.638
 6244W        W77860   0.978   5.392  11.067
 6245W        W77861  37.001  29.939   0.825
 6246W        W77862   8.840   5.244  13.479
 6247W        W77863   3.697  39.959   1.777
 6248W        W77864   4.331  28.064  11.919
 6249W        W77865  28.081   5.512   4.785
 6250W        W77866  10.878  26.117  11.186
 6251W        W77867  15.177  29.606   3.673
 6252W        W77868  35.906  32.025   2.721
 6253W        W77869   2.744  34.047  14.762
 6254W        W77870   5.916  19.114  14.876
 6255W        W77871  36.129  34.000  12.493
 6256W        W77872  12.746  12.500   2.333
 6257W        W77873  22.151  41.903  14.963
 6258W        W77874   2.864  34.691  13.354
 6259W        W77875   6.730  40.313   2.150
 6260W        W77876  34.510  28.585   2.725
 6261W        W77877  21.254   5.432  13.918
 6262W        W77878  43.958   5.609   1.426
 6263W        W77879  18.176  17.408   1.260
 6264W        W77880   8.790   1.479  11.317
 6265W        W77881   7.157   4.083  10.681
 6266W        W77882  27.655  18.454  11.066
 6267W        W77883  17.084  32.515  10.843
 6268W        W77884  14.132  27.852   0.508
 6269W        W77885  34.857   9.428  14.877
 6270W        W77886  24.951  21.223   2.297
 6271W        W77887  11.669  11.868  10.670
 6272W        W77888  23.707  39.955   4.620
 6273W        W77889  37.484  28.147   5.072
 6274W        W77890  42.319  43.917  14.099
 6275W        W77891  23.290  32.591   1.900
 6276W        W77892  38.997  23.760   2.629
 6277W        W77893  17.021  36.723  10.983
 6278W        W77894   0.429  29.695  14.051
 6279W        W77895  34.585   5.326   0.507
 6280W        W77896  21.873   5.416  11.176
 6281W        W77897   2.658  40.573   1.166
 6282W        W77898  43.599  10.146   1.827
 6283W        W77899  25.657  14.358  10.559
 6284W        W77900  21.443   5.545   1.018
 6285W        W77901   2.135  35.396   2.847
 6286W        W77902  40.608  39.877   3.254
 6287W        W77903  17.804  38.240   0.158
 6288W        W77904  27.594  12.067   3.188
 6289W        W77905  38.906  23.882  13.071
 6290W        W77906   9.881   9.615  12.601
 6291W        W77907  23.579  32.455  10.603
 6292W        W77908   6.464  11.111   2.202
 6293W        W77909  38.756  22.160   2.112
 6294W        W77910  36.991  35.772   3.879
 6295W        W77911  20.688  19.104   2.826
 6296W        W77912  36.472  31.916   5.162
 6297W        W77913  17.033   1.660  10.096
 6298W        W77914  23.013  19.041   2.652
 6299W        W77915  44.376  10.223  12.410
 6300W        W77916  36.334  16.231  13.886
 6301W        W77917   6.553  33.301  11.312
 6302W        W77918  31.513  14.236   0.574
 6303W        W77919  31.669  12.685   1.298
 6304W        W77920   1.664  35.362  13.427
 6305W        W77921  28.866  43.529  14.427
 6306W        W77922   0.740  36.049  14.777
 6307W        W77923  20.531  36.442  11.074
 6308W        W77924  40.877   3.817  13.840
 6309W        W77925  16.106   8.669   1.234
 6310W        W77926  34.820  40.005  12.118
 6311W        W77927  23.146  19.636   1.378
 6312W        W77928  25.689  25.887   1.838
 6313W        W77929   0.416  39.953   2.107
 6314W        W77930  21.131   0.984   0.767
 6315W        W77931  44.401  36.132   3.250
 6316W        W77932   9.315  10.346   3.992
 6317W        W77933  37.982  41.567  14.317
 6318W        W77934   3.693  15.365   1.374
 6319W        W77935  43.306  18.112  11.435
 6320W        W77936  39.173  33.255   4.140
 6321W        W77937   9.154  42.961  12.508
 6322W        W77938  35.797  38.583  12.802
 6323W        W77939  13.600   0.229   1.462
 6324W        W77940  42.918  39.958  14.989
 6325W        W77941   6.796  17.748   3.741
 6326W        W77942  25.020  22.454  14.357
 6327W        W77943  20.565  32.504   0.425
 6328W        W77944  25.595  24.659   2.727
 6329W        W77945  37.056  29.811  10.736
 6330W        W77946   8.724  21.979  10.663
 6331W        W77947  26.475  31.101   2.749
 6332W        W77948  32.705   4.230   3.522
 6333W        W77949  12.447   5.351   2.314
 6334W        W77950   8.146  19.281   3.682
 6335W        W77951   7.347  13.929   4.176
 6336W        W77952  15.513  24.894  13.318
 6337W        W77953  29.541  22.397  14.053
 6338W        W77954  19.933  22.778   1.729
 6339W        W77955  19.678  27.274   0.246
 6340W        W77956  11.870  30.915  14.439
 6341W        W77957  38.569  10.934   0.434
 6342W        W77958  30.198  39.975   0.300
 6343W        W77959   4.317  17.194  14.796
 6344W        W77960   1.873   9.303   0.501
 6345W        W77961  39.340  38.964   1.815
 6346W        W77962  25.402  29.128  13.555
 6347W        W77963   7.927  35.343   1.598
 6348W        W77964  39.751   1.758   2.150
 6349W        W77965  37.089   1.472   2.216
 6350W        W77966  21.710  22.185  11.527
 6351W        W77967   1.248  36.027  12.975
 6352W        W77968  26.326  40.236   1.446
 6353W        W77969  23.843   7.883   5.152
 6354W        W77970  21.466  27.206  10.635
 6355W        W77971  37.545  35.388  13.907
 6356W        W77972  16.044  15.683   1.393
 6357W        W77973   6.605  13.655  14.558
 6358W        W77974  41.700  37.538  11.549
 6359W        W77975  39.757   7.652  14.347
 6360W        W77976  41.841  38.441   3.265
 6361W        W77977  16.517   5.730  10.001
 6362W        W77978  13.519  44.255  12.671
 6363W        W77979   6.495   7.057   4.963
 6364W        W77980   7.361  34.791   2.745
 6365W        W77981  16.052   8.603   0.212
 6366W        W77982  20.039  40.902  12.519
 6367W        W77983  24.810  17.353   4.189
 6368W        W77984   7.581  25.934   4.308
 6369W        W77985  31.923  40.304  14.367
 6370W        W77986   3.320  13.569  14.911
 6371W        W77987  21.686   8.380  11.111
 6372W        W77988  42.372   2.493   0.069
 6373W        W77989  22.747   5.008   5.131
 6374W        W77990  21.094  11.637  14.237
 6375W        W77991   7.628   9.196   3.790
 6376W        W77992  27.923  16.328   4.122
 6377W        W77993   0.978   6.622   0.505
 6378W        W77994  33.454  41.850  12.851
 6379W        W77995  35.806   9.239   0.871
 6380W        W77996  35.003  37.581  12.496
 6381W        W77997  39.729  36.357   4.071
 6382W        W77998  42.339  29.461  14.456
 6383W        W77999  23.584  25.223   4.548
 6384W        W78000  18.648   8.862   2.861
 6385W        W78001  42.784  26.896   0.205
 6386W        W78002  14.517  22.038   1.906
 6387W        W78003  36.160  30.514  12.852
 6388W        W78004  36.679   3.286  10.371
 6389W        W78005   6.892  43.421   3.675
 6390W        W78006  23.884   3.242   3.399
 6391W        W78007   9.219   7.404  13.800
 6392W        W78008  21.252  35.975   1.347
 6393W        W78009   2.300   8.632  12.881
 6394W        W78010  20.139  39.593   3.693
 6395W        W78011  25.223  34.330   4.136
 6396W        W78012  14.548   2.354   2.178
 6397W        W78013  20.740   0.704  12.858
 6398W        W78014  23.003   1.871  12.079
 6399W        W78015  42.866  38.609  14.496
 6400W        W78016  23.578  14.385  12.521
 6401W        W78017  24.268  18.564   0.481
 6402W        W78018   5.335  27.938   2.240
 6403W        W78019  32.828  28.260  11.140
 6404W        W78020  10.388  10.720  13.985
 6405W        W78021   6.315   2.136   2.426
 6406W        W78022  30.162  12.769  12.529
 6407W        W78023  27.929  17.485   1.885
 6408W        W78024  29.840  43.426  14.611
 6409W        W78025  14.644   3.204   2.209
 6410W        W78026  31.617  36.231   4.306
 6411W        W78027  18.773  27.926  10.564
 6412W        W78028  13.482   2.772  11.629
 6413W        W78029  27.120  12.839  10.232
 6414W        W78030  12.267  36.494   0.391
 6415W        W78031  38.565  42.111  14.360
 6416W        W78032   2.299  42.001   3.267
 6417W        W78033  34.767  14.213  10.606
 6418W        W78034   3.186   2.333  10.925
 6419W        W78035  35.423  24.935   0.241
 6420W        W78036  27.356   2.488   3.156
 6421W        W78037   6.202  14.995  13.453
 6422W        W78038   3.878  18.627   0.736
 6423W        W78039   9.566   4.247  14.419
 6424W        W78040  16.744  11.630   2.622
 6425W        W78041  21.691  24.885   3.719
 6426W        W78042  11.677  14.319   0.890
 6427W        W78043  29.475  36.113   4.566
 6428W        W78044   0.369  41.803  12.074
 6429W        W78045  26.661  19.143   4.316
 6430W        W78046  37.881  32.844  12.008
 6431W        W78047   8.379  15.051  10.600
 6432W        W78048  36.575  31.519  12.610
 6433W        W78049  19.054  14.665  12.935
 6434W        W78050  10.118  23.720   4.799
 6435W        W78051  36.982  12.090   4.844
 6436W        W78052  21.743   6.420   4.812
 6437W        W78053  44.359  39.473   3.266
 6438W        W78054   8.012   2.675   1.254
 6439W        W78055  42.407   1.827   4.729
 6440W        W78056  25.804   7.193  13.791
 6441W        W78057  37.880  15.307  13.293
 6442W        W78058  29.285   0.038  12.997
 6443W        W78059   7.716  20.303  13.442
 6444W        W78060  43.345   7.120  11.106
 6445W        W78061   0.552  29.051   3.666
 6446W        W78062  26.711   8.296  13.020
 6447W        W78063  14.501  36.199  10.681
 6448W        W78064  15.388   4.960  14.994
 6449W        W78065  13.530   2.213  12.834
 6450W        W78066  43.406  42.286   0.815
 6451W        W78067  18.916   3.699   4.670
 6452W        W78068  38.155  40.986   3.340
 6453W        W78069   5.749  24.516   1.421
 6454W        W78070  20.489  38.024  13.880
 6455W        W78071  12.938  10.847  14.860
 6456W        W78072  40.405   6.514  11.959
 6457W        W78073   8.361  39.362  13.180
 6458W        W78074  33.656   3.972  11.693
 6459W        W78075  25.533  44.945  12.330
 6460W        W78076   1.821  21.024   2.082
 6461W        W78077  29.171  36.673  13.241
 6462W        W78078  16.137  25.217   3.107
 6463W        W78079  25.841   3.664   1.244
 6464W        W78080  33.103  29.329  13.808
 6465W        W78081  13.186   7.945  11.035
 6466W        W78082  13.848  44.865   0.747
 6467W        W78083  41.537  13.560  13.909
 6468W        W78084  34.135   2.266   2.774
 6469W        W78085  20.312  42.372  10.619
 6470W        W78086   5.339  25.076   4.588
 6471W        W78087   2.874  11.862  10.451
 6472W        W78088  19.309  26.101  11.970
 6473W        W78089  26.266   5.328   4.536
 6474W        W78090  37.450  42.232  12.819
 6475W        W78091  36.963  12.249   3.381
 6476W        W78092  40.567  17.371   4.989
 6477W        W78093   4.394  27.135   0.524
 6478W        W78094  19.625  14.029  10.723
 6479W        W78095  35.918  16.710  13.393
 6480W        W78096  12.879  44.793  11.024
 6481W        W78097  12.016  23.300  12.240
 6482W        W78098  25.794  18.096  12.977
 6483W        W78099   1.457  22.487   2.169
 6484W        W78100   4.484  42.918   2.700
 6485W        W78101  31.613  31.042   0.319
 6486W        W78102   9.217  25.060  14.462
 6487W        W78103  15.035  26.892   2.897
 6488W        W78104  35.921   7.663  10.800
 6489W        W78105  36.579  18.189   1.856
 6490W        W78106  27.754  44.943  13.122
 6491W        W78107  21.807  30.406   2.506
 6492W        W78108   7.791   1.436  11.264
 6493W        W78109  37.159  26.200  12.719
 6494W        W78110  32.202  29.605   9.661
 6495W        W78111   6.216   3.979  11.065
 6496W        W78112  28.474  34.356   1.351
 6497W        W78113  22.220  10.729   2.828
 6498W        W78114   3.700  21.064   1.318
 6499W        W78115  19.119   7.158  14.388
 6500W        W78116  14.647  31.332  13.423
 6501W        W78117  13.338  26.308  12.028
 6502W        W78118  17.336  42.016   1.652
 6503W        W78119  31.072  33.610  13.997
 6504W        W78120  35.882  33.602   1.440
 6505W        W78121   4.944   2.882  13.984
 6506W        W78122  35.677  42.274  14.494
 6507W        W78123  41.491  16.564   3.307
 6508W        W78124  44.939   6.634   4.363
 6509W        W78125  26.057   4.907   1.861
 6510W        W78126  40.626  44.742  11.954
 6511W        W78127  39.496  32.104  14.822
 6512W        W78128   0.746   3.135   1.269
 6513W        W78129   0.816  38.280   4.318
 6514W        W78130  19.289  18.349  11.643
 6515W        W78131  42.265  26.567   3.713
 6516W        W78132  36.007  10.158  14.601
 6517W        W78133  43.255   1.628   4.353
 6518W        W78134  43.268  17.183  13.334
 6519W        W78135  32.559  39.021  14.475
 6520W        W78136  11.422  19.675   0.833
 6521W        W78137  39.089   2.098  12.584
 6522W        W78138  33.052  40.070  13.967
 6523W        W78139  26.763  35.555   1.600
 6524W        W78140   5.327  42.244  14.886
 6525W        W78141  33.816  28.683   0.670
 6526W        W78142  19.131  31.086   1.917
 6527W        W78143  37.106  13.099  14.766
 6528W        W78144  12.736  23.958  11.987
 6529W        W78145   6.909  42.810   4.157
 6530W        W78146  24.048   0.096   0.915
 6531W        W78147  26.952  13.734   5.449
 6532W        W78148   2.198  27.743   2.285
 6533W        W78149  27.546  29.994  13.491
 6534W        W78150  32.587  34.985  13.279
 6535W        W78151  36.628   5.143  14.007
 6536W        W78152  38.902   5.906   3.622
 6537W        W78153   3.599  15.426  11.768
 6538W        W78154   8.789  42.595   2.221
 6539W        W78155  37.316  33.878  14.923
 6540W        W78156  29.985   2.316   2.235
 6541W        W78157  30.567  20.221  10.683
 6542W        W78158  36.815  34.909   2.326
 6543W        W78159  40.747  26.228   0.784
 6544W        W78160  26.120  23.060  13.580
 6545W        W78161  10.045  33.154   2.346
 6546W        W78162  31.519  14.616   1.403
 6547W        W78163  20.436  34.487  12.092
 6548W        W78164  42.101  26.561   2.498
 6549W        W78165   3.208  18.994  11.978
 6550W        W78166  40.724  41.427  13.865
 6551W        W78167   0.076  36.110   3.682
 6552W        W78168  10.912  34.366   2.323
 6553W        W78169   2.891  27.121  11.455
 6554W        W78170  34.869  10.356  14.864
 6555W        W78171  35.506  40.553   1.362
 6556W        W78172  28.948  29.931  11.605
 6557W        W78173  32.359  29.032   0.855
 6558W        W78174  10.805  42.297   0.132
 6559W        W78175   8.305  19.080  13.352
 6560W        W78176  21.635   1.744  13.540
 6561W        W78177  15.158  15.635   1.347
 6562W        W78178  22.213  44.687   0.851
 6563W        W78179  44.661  39.696   2.250
 6564W        W78180   1.054  41.493   3.332
 6565W        W78181   3.112  16.782   1.408
 6566W        W78182  12.412  33.330   2.413
 6567W        W78183   1.169  22.483   3.056
 6568W        W78184   3.875  39.651   0.507
 6569W        W78185  39.878  28.441  11.671
 6570W        W78186  39.021   1.801   1.842
 6571W        W78187  15.484  33.526  10.369
 6572W        W78188  44.874  39.801   0.935
 6573W        W78189  38.403  15.009  12.426
 6574W        W78190  14.667  30.497   0.648
 6575W        W78191   9.278  44.941  10.975
 6576W        W78192   1.900   3.461   2.215
 6577W        W78193   1.205  30.644   2.770
 6578W        W78194   5.835  33.523  14.421
 6579W        W78195  28.160  28.180   0.376
 6580W        W78196  10.098  26.547   2.673
 6581W        W78197   2.615  11.276  12.097
 6582W        W78198   3.775   8.370   0.778
 6583W        W78199   8.226   0.183   0.374
 6584W        W78200  20.574  39.221   4.743
 6585W        W78201  13.321  35.363   0.005
 6586W        W78202  21.214   7.587  12.068
 6587W        W78203   4.002  38.174   0.489
 6588W        W78204  17.784  13.769   1.713
 6589W        W78205  24.267  17.686  12.536
 6590W        W78206  34.452  38.296  10.726
 6591W        W78207  10.663  16.434   3.830
 6592W        W78208  18.811   8.660  10.736
 6593W        W78209  36.022   6.364  10.898
 6594W        W78210  17.289  21.748   4.241
 6595W        W78211  33.374  11.042  14.869
 6596W        W78212  28.666  41.189   2.855
 6597W        W78213  33.361   9.266  10.945
 6598W        W78214  34.013  39.346  11.263
 6599W        W78215  24.923  31.831  11.523
 6600W        W78216   6.294   3.896   0.688
 6601W        W78217  32.338   5.205   2.300
 6602W        W78218  21.879  44.782  10.772
 6603W        W78219  19.165  38.551   1.493
 6604W        W78220  30.663  42.858  14.236
 6605W        W78221  22.570  41.762  11.130
 6606W        W78222  40.993  18.569  14.985
 6607W        W78223  16.843  18.728  14.055
 6608W        W78224  42.869  39.985   3.740
 6609W        W78225  25.064   5.625   0.390
 6610W        W78226  21.983  20.247   3.319
 6611W        W78227  14.272  11.742   0.342
 6612W        W78228  30.557  33.568  13.994
 6613W        W78229  27.962  28.089   4.817
 6614W        W78230  29.027  31.028   4.902
 6615W        W78231  41.574  39.725   0.782
 6616W        W78232   9.953   7.311   4.523
 6617W        W78233   9.438  43.299  13.407
 6618W        W78234  10.188  14.267  13.987
 6619W        W78235  17.094  33.125   2.804
 6620W        W78236   8.721  10.843  11.640
 6621W        W78237  43.825  42.676  14.493
 6622W        W78238  43.011  28.441  11.806
 6623W        W78239  17.192  34.807   2.373
 6624W        W78240  25.836  28.682   1.039
 6625W        W78241  21.257  43.464   4.703
 6626W        W78242  41.551  30.401  14.946
 6627W        W78243   6.895  29.473  14.534
 6628W        W78244  19.123  21.234  13.478
 6629W        W78245  27.258   2.650  12.017
 6630W        W78246  20.325  12.616  10.292
 6631W        W78247  28.070  27.998   3.441
 6632W        W78248  44.593  24.059  14.279
 6633W        W78249  12.347   0.726  12.151
 6634W        W78250   0.562   2.557   2.205
 6635W        W78251  21.577  32.013  13.419
 6636W        W78252   5.490  24.233   2.665
 6637W        W78253  29.132  21.102   3.227
 6638W        W78254  38.146  16.474   1.326
 6639W        W78255  16.142   3.116   4.860
 6640W        W78256  31.569  28.923   3.818
 6641W        W78257  22.150   6.008  14.439
 6642W        W78258  18.289  13.754   1.848
 6643W        W78259   1.194  44.285   1.382
 6644W        W78260  15.191   2.400  13.131
 6645W        W78261  31.149  27.615   4.217
 6646W        W78262  10.064   0.473   1.257
 6647W        W78263   0.008   6.923  10.624
 6648W        W78264  37.879  41.072   2.242
 6649W        W78265   2.307  13.250  13.019
 6650W        W78266  19.242  13.128  11.000
 6651W        W78267   7.206  36.595  14.223
 6652W        W78268  14.830  32.915   0.085
 6653W        W78269  10.058  10.195  13.789
 6654W        W78270  35.007  17.475   2.286
 6655W        W78271  31.670  41.817   4.215
 6656W        W78272  39.137   0.841   3.673
 6657W        W78273   3.799  18.370  12.920
 6658W        W78274  43.769  20.592   1.887
 6659W        W78275  19.771  39.346  10.926
 6660W        W78276   4.799  22.117  14.701
 6661W        W78277  39.385  13.344  11.393
 6662W        W78278  18.552  40.747   2.257
 6663W        W78279  21.478  28.963  14.226
 6664W        W78280   2.793  27.041  14.377
 6665W        W78281  19.824  35.147   1.560
 6666W        W78282  38.329  44.021   1.712
 6667W        W78283  23.464  36.959   0.936
 6668W        W78284  24.247  25.644   4.213
 6669W        W78285   0.111  15.394   4.603
 6670W        W78286  40.310  16.303  13.356
 6671W        W78287  19.170  29.675   1.137
 6672W        W78288  43.700  33.633  11.211
 6673W        W78289  25.793  18.622   3.881
 6674W        W78290   3.856  33.542  11.342
 6675W        W78291  22.810   5.415   2.743
 6676W        W78292   0.912  29.474   0.754
 6677W        W78293  17.640   1.982  12.005
 6678W        W78294  12.130  37.528  14.248
 6679W        W78295  32.724  23.950   3.253
 6680W        W78296  22.175  43.530  13.005
 6681W        W78297   9.117  19.799  10.766
 6682W        W78298  39.799   8.301   1.271
 6683W        W78299  11.984  11.815  12.021
 6684W        W78300   7.245  27.572   0.485
 6685W        W78301  33.151  31.539  13.971
 6686W        W78302  23.014  44.197  14.370
 6687W        W78303  39.930  10.762   3.356
 6688W        W78304  26.523   4.224  12.937
 6689W        W78305  35.478  41.083  14.907
 6690W        W78306  13.109  27.066  14.774
 6691W        W78307   5.185  15.695   0.783
 6692W        W78308  14.481  11.823   2.465
 6693W        W78309  37.070  18.270  12.689
 6694W        W78310  42.733  37.262   9.936
 6695W        W78311   7.182   8.762  10.690
 6696W        W78312  20.464  40.810   3.206
 6697W        W78313  30.401  12.716  11.970
 6698W        W78314  26.523  11.224   4.051
 6699W        W78315   6.929  44.772  12.960
 6700W        W78316  27.043  24.606  14.947
 6701W        W78317   0.329  28.914  14.533
 6702W        W78318  11.400  11.364  13.413
 6703W        W78319  19.745  30.167   2.355
 6704W        W78320  25.202  35.858  11.569
 6705W        W78321  41.274  13.908  12.123
 6706W        W78322  36.885   0.940   0.131
 6707W        W78323  35.003  34.914   2.806
 6708W        W78324  29.528  44.295   4.552
 6709W        W78325  30.641   4.274   0.182
 6710W        W78326  20.003  22.172  10.901
 6711W        W78327  40.745  34.617   0.041
 6712W        W78328   4.164  14.165   1.351
 6713W        W78329   0.304  11.210   2.671
 6714W        W78330  12.917   4.415  12.529
 6715W        W78331   4.829  40.601  11.156
 6716W        W78332  34.919  31.145  14.985
 6717W        W78333  22.912  27.564   1.583
 6718W        W78334  13.630   1.115   1.790
 6719W        W78335  21.468   1.315  12.431
 6720W        W78336   7.232  21.276  13.911
 6721W        W78337  16.295  38.334   2.646
 6722W        W78338  29.451  21.144  10.182
 6723W        W78339  22.183  20.602  13.493
 6724W        W78340  25.904  33.473   0.525
 6725W        W78341  15.077  22.234   2.223
 6726W        W78342  15.758  10.444   1.743
 6727W        W78343  20.535  32.955  13.422
 6728W        W78344  33.149   0.453  10.777
 6729W        W78345   9.571  40.973   3.779
 6730W        W78346  18.248   6.786  14.918
 6731W        W78347   1.568  27.488  14.817
 6732W        W78348   9.422  10.633  14.789
 6733W        W78349   9.356  20.043  13.083
 6734W        W78350  24.207  38.292  12.791
 6735W        W78351  29.203   9.705  12.537
 6736W        W78352  33.028  18.845   2.733
 6737W        W78353  21.135   8.182  12.918
 6738W        W78354   2.864   5.984   1.801
 6739W        W78355  44.530  43.302  10.720
 6740W        W78356   2.166   1.761   3.330
 6741W        W78357  34.460   9.810   2.070
 6742W        W78358  23.246   1.273  13.870
 6743W        W78359  15.229  34.346  14.938
 6744W        W78360  17.665  44.751  14.490
 6745W        W78361  32.600  37.096  13.550
 6746W        W78362   0.910   3.406   4.035
 6747W        W78363  30.138  43.981  12.363
 6748W        W78364  20.259  13.870   4.645
 6749W        W78365  18.493   9.559  13.498
 6750W        W78366  24.608  26.917   0.941
 6751W        W78367   6.297  13.311  10.652
 6752W        W78368  30.628  40.916   4.087
 6753W        W78369  14.575  20.660  12.446
 6754W        W78370   6.739  27.603   3.276
 6755W        W78371   4.681   2.442  13.945
 6756W        W78372  38.397   0.988  12.527
 6757W        W78373  35.850   0.438  14.532
 6758W        W78374  44.721  32.306   4.666
 6759W        W78375  27.951   4.766  12.932
 6760W        W78376  31.866  29.492  14.935
 6761W        W78377  10.071  31.575   4.017
 6762W        W78378  14.332   1.794   4.610
 6763W        W78379  33.842   6.947  11.844
 6764W        W78380  24.676   1.171   0.147
 6765W        W78381  12.885  25.129  13.306
 6766W        W78382  30.699   9.132  13.322
 6767W        W78383  34.627  14.226   3.593
 6768W        W78384  29.601   7.262   4.439
 6769W        W78385   7.604  14.024   2.220
 6770W        W78386  22.201  33.240   2.431
 6771W        W78387  37.043  30.812  11.851
 6772W        W78388   9.271  19.533  13.932
 6773W        W78389  44.880  32.373   1.375
 6774W        W78390   0.051  38.098   1.732
 6775W        W78391  11.562  34.665   4.129
 6776W        W78392  23.635  23.495  10.721
 6777W        W78393  19.535  20.514  11.618
 6778W        W78394  26.665  25.066  11.040
 6779W        W78395  11.079   8.392  12.119
 6780W        W78396  11.347  30.579  13.021
 6781W        W78397  39.478  27.440   1.418
 6782W        W78398   0.673  34.307   5.126
 6783W        W78399   9.286  25.148   1.491
 6784W        W78400  39.974  16.626  10.765
 6785W        W78401  38.971  34.224  13.315
 6786W        W78402   6.182  20.785  11.578
 6787W        W78403  22.112  42.553  12.740
 6788W        W78404  29.684  13.730   1.213
 6789W        W78405  13.352  34.597  12.502
 6790W        W78406  25.060  25.583  14.066
 6791W        W78407  39.404  18.174  12.347
 6792W        W78408  37.145  25.908   0.415
 6793W        W78409  13.793  33.518  14.697
 6794W        W78410  29.263  19.636   4.540
 6795W        W78411  35.318  43.776  13.834
 6796W        W78412  11.327   7.160  12.554
 6797W        W78413  19.303  28.416  13.464
 6798W        W78414   3.234  44.394  14.320
 6799W        W78415  34.795  44.355  12.116
 6800W        W78416   0.559  30.696  13.793
 6801W        W78417   7.221  29.776  13.844
 6802W        W78418  14.187   6.788  14.553
 6803W        W78419  42.885   6.526  14.978
 6804W        W78420  43.878  31.147  14.060
 6805W        W78421  38.573  11.074   2.672
 6806W        W78422  21.162  30.985  12.364
 6807W        W78423   7.752  16.368  10.611
 6808W        W78424   2.191  29.242  11.586
 6809W        W78425  19.553   2.266   4.159
 6810W        W78426  19.492   5.470   4.201
 6811W        W78427  10.588  15.774  12.411
 6812W        W78428   7.871  42.579  14.597
 6813W        W78429  32.583  26.547   4.787
 6814W        W78430  23.630  27.188   3.591
 6815W        W78431  15.193  31.482   1.240
 6816W        W78432  28.235  33.441   2.914
 6817W        W78433  11.344  28.165  14.754
 6818W        W78434   1.948   0.736  11.468
 6819W        W78435  44.339  21.390  13.413
 6820W        W78436   1.300  23.840  11.128
 6821W        W78437   3.237  43.045  14.852
 6822W        W78438   3.835  20.026   1.273
 6823W        W78439  17.599  25.734  12.114
 6824W        W78440  33.437  24.909   1.336
 6825W        W78441   2.154  21.590   2.685
 6826W        W78442  31.922  37.845   2.603
 6827W        W78443  12.441   6.240  10.204
 6828W        W78444   3.547  35.864  10.530
 6829W        W78445  32.403   3.725  13.155
 6830W        W78446  41.813   7.809   1.092
 6831W        W78447  36.965   8.173   4.124
 6832W        W78448  24.109   0.927  12.256
 6833W        W78449  36.878   6.555  12.436
 6834W        W78450   1.646  22.843  14.708
 6835W        W78451  34.110  29.577  12.412
 6836W        W78452   4.276   8.150   2.126
 6837W        W78453  20.161  17.120   1.245
 6838W        W78454  17.204  35.268  13.853
 6839W        W78455  15.684   7.353   3.713
 6840W        W78456  38.923  15.255   3.585
 6841W        W78457  38.242   8.844  12.269
 6842W        W78458   1.798  21.969   9.920
 6843W        W78459  10.148  16.757   3.065
 6844W        W78460   0.906  12.059   3.557
 6845W        W78461   3.953   0.471  14.597
 6846W        W78462   3.957  11.126   2.210
 6847W        W78463   3.006  18.826  10.679
 6848W        W78464  22.254  41.013   0.511
 6849W        W78465  42.308   1.435  13.533
 6850W        W78466  38.670  26.616  13.275
 6851W        W78467  16.919  29.637   4.311
 6852W        W78468   1.413   0.479  10.139
 6853W        W78469  21.086  41.796  14.270
 6854W        W78470  23.957  43.311  12.957
 6855W        W78471  18.722  13.855   0.924
 6856W        W78472  24.161  37.337  13.547
 6857W        W78473  15.596  40.688   0.031
 6858W        W78474  21.581  22.250   4.317
 6859W        W78475   4.409  39.479   0.464
 6860W        W78476  20.689  40.049  10.435
 6861W        W78477   1.765  23.695   3.199
 6862W        W78478  27.878  16.245   2.958
 6863W        W78479  14.982   6.981   4.167
 6864W        W78480  20.649   8.713  12.418
 6865W        W78481  35.051   6.044  14.771
 6866W        W78482   5.782   7.810   0.284
 6867W        W78483   4.253  43.444   3.680
 6868W        W78484  16.685  26.507  14.811
 6869W        W78485  33.374   5.221   2.405
 6870W        W78486   5.183  38.121  12.013
 6871W        W78487  25.982  32.553   2.131
 6872W        W78488  28.104  13.035   4.506
 6873W        W78489   2.926  35.237  14.000
 6874W        W78490  32.434  26.138  12.081
 6875W        W78491  12.081  22.838  13.483
 6876W        W78492  22.566   2.385   4.972
 6877W        W78493  18.931  22.633   0.987
 6878W        W78494  36.543  23.553   0.190
 6879W        W78495   3.889  18.082  14.959
 6880W        W78496   3.372  42.250   0.337
 6881W        W78497  35.280   2.483  10.707
 6882W        W78498  10.777  37.899   0.309
 6883W        W78499  29.897  11.968  12.830
 6884W        W78500  27.418  29.487   2.686
 6885W        W78501  13.359  17.255   5.147
 6886W        W78502  38.091   0.063   4.176
 6887W        W78503  38.043  19.786  14.050
 6888W        W78504  41.835  14.658  12.991
 6889W        W78505  43.364  11.715   1.964
 6890W        W78506   1.521  19.097   1.865
 6891W        W78507  28.428   1.767  12.152
 6892W        W78508  24.909  37.449  12.898
 6893W        W78509   1.856  29.820  13.007
 6894W        W78510   0.855  34.303   3.138
 6895W        W78511  13.238  16.863   0.173
 6896W        W78512  19.508  37.088  13.779
 6897W        W78513  29.629  36.146  12.455
 6898W        W78514  18.426   0.026   1.488
 6899W        W78515  11.663  37.975  11.874
 6900W        W78516  39.849  39.577   4.234
 6901W        W78517  32.456  17.087  14.640
 6902W        W78518  21.569  10.917  14.725
 6903W        W78519  20.329  12.697  14.065
 6904W        W78520  37.029  15.721  13.942
 6905W        W78521  44.000   4.109  11.628
 6906W        W78522   6.070   1.548  14.777
 6907W        W78523  42.469   9.178  13.876
 6908W        W78524  17.724  28.176   2.337
 6909W        W78525  35.892  15.555   0.903
 6910W        W78526  15.106   7.015  14.451
 6911W        W78527  17.050  12.932  10.158
 6912W        W78528   3.749   5.378  12.057
 6913W        W78529  13.347  23.474  12.481
 6914W        W78530  23.832  18.623  13.065
 6915W        W78531  32.016  11.851   4.830
 6916W        W78532  10.707  30.409   3.771
 6917W        W78533  24.721  36.440   3.729
 6918W        W78534   1.330  35.323   1.167
 6919W        W78535  16.399  30.636   5.121
 6920W        W78536   4.912  13.076   2.332
 6921W        W78537   6.800  17.411  13.359
 6922W        W78538  43.098  32.463   4.471
 6923W        W78539  40.018  10.159   0.874
 6924W        W78540   6.813   3.532   1.840
 6925W        W78541  43.016   3.250  12.582
 6926W        W78542  39.473  13.233  14.550
 6927W        W78543  24.697  30.750   0.713
 6928W        W78544  22.241  12.558   3.334
 6929W        W78545  34.048  19.465  14.472
 6930W        W78546   0.098   2.368   2.137
 6931W        W78547  12.274  36.061   3.380
 6932W        W78548   4.382   6.914   1.722
 6933W        W78549   8.818  36.847  10.730
 6934W        W78550   8.044   9.566   1.929
 6935W        W78551  10.822  25.461   2.062
 6936W        W78552   1.286  34.341   9.773
 6937W        W78553  32.098   8.727   2.254
 6938W        W78554  32.127  13.262  14.319
 6939W        W78555   0.882  33.079  11.979
 6940W        W78556  21.086  35.480  11.585
 6941W        W78557  22.987  43.658  13.102
 6942W        W78558  22.712   9.811   4.693
 6943W        W78559   0.794  30.171   0.329
 6944W        W78560  10.805   4.706   4.457
 6945W        W78561  40.175  30.114   0.417
 6946W        W78562  14.368  27.696  14.470
 6947W        W78563   2.323  17.071  10.360
 6948W        W78564   3.783  20.768   3.570
 6949W        W78565  25.659  13.088   0.418
 6950W        W78566   7.660  24.439  12.013
 6951W        W78567   0.934  22.172   0.798
 6952W        W78568   1.369  31.661  12.987
 6953W        W78569  12.620  33.949  12.402
 6954W        W78570   5.807  23.374   2.307
 6955W        W78571   7.744  30.535  11.700
 6956W        W78572  31.031  10.367  13.928
 6957W        W78573   2.891  42.240  11.218
 6958W        W78574  42.047   1.974  14.332
 6959W        W78575  32.448   2.585   3.007
 6960W        W78576  14.792  43.980  14.808
 6961W        W78577  32.691  38.325   2.680
 6962W        W78578  23.051  44.371  11.234
 6963W        W78579   1.233  32.339  11.183
 6964W        W78580  13.846  30.341  11.450
 6965W        W78581  19.491   4.514   3.810
 6966W        W78582  42.979   4.021  13.876
 6967W        W78583  18.190  25.543   1.786
 6968W        W78584  33.596   9.351   2.345
 6969W        W78585  11.797  41.233   4.135
 6970W        W78586  20.103   3.835  12.544
 6971W        W78587  24.769  25.669   1.953
 6972W        W78588  37.884  12.441  11.774
 6973W        W78589  29.481  13.610  12.990
 6974W        W78590  36.695  23.948  10.148
 6975W        W78591  12.096  15.807  14.432
 6976W        W78592   8.137  31.476   4.234
 6977W        W78593  29.234  28.322   1.817
 6978W        W78594  42.760  23.949  11.178
 6979W        W78595  27.579   9.103   4.638
 6980W        W78596  25.427  22.572  11.948
 6981W        W78597  41.634  39.302   5.015
 6982W        W78598  20.077  16.319  12.371
 6983W        W78599  27.476   3.887  12.365
 6984W        W78600  35.400  30.380  13.016
 6985W        W78601  35.135  42.584   2.398
 6986W        W78602   5.303   6.322   2.421
 6987W        W78603   7.185  44.186  14.272
 6988W        W78604  39.014   5.083   4.678
 6989W        W78605   1.698   1.782   4.116
 6990W        W78606  36.854  18.109  13.725
 6991W        W78607  30.407  42.890   4.102
 6992W        W78608  21.161  36.619   1.889
 6993W        W78609   9.129   9.310  11.557
 6994W        W78610  26.188  18.845   4.317
 6995W        W78611  22.263  29.681   1.082
 6996W        W78612  26.618  18.233  11.294
 6997W        W78613  37.681   9.535  11.187
 6998W        W78614  19.070   8.214   0.270
 6999W        W78615  11.335  39.529   4.504
 7000W        W78616  10.889  37.357  14.885
 7001W        W78617  38.453  29.296  12.791
 7002W        W78618  21.646   7.841  11.984
 7003W        W78619  31.424  40.126  14.337
 7004W        W78620  28.041   0.457  10.603
 7005W        W78621  18.957  19.024   2.167
 7006W        W78622  12.614  42.119   2.812
 7007W        W78623   5.283  39.331  10.952
 7008W        W78624   3.699  25.083   4.575
 7009W        W78625  11.912  21.642  14.484
 7010W        W78626  37.819  42.201  11.592
 7011W        W78627   6.194  36.033   4.200
 7012W        W78628  35.557  21.535  12.473
 7013W        W78629   4.873   2.754  11.206
 7014W        W78630  20.813  25.001  11.114
 7015W        W78631   7.695  24.180  10.715
 7016W        W78632  32.936   1.335   1.970
 7017W        W78633  42.820  44.275  13.476
 7018W        W78634  22.271   9.862   4.432
 7019W        W78635  20.894  17.088   0.002
 7020W        W78636  41.242  23.220  12.437
 7021W        W78637   2.946   3.293  12.415
 7022W        W78638   5.876  24.949  13.130
 7023W        W78639  36.500   3.326  13.927
 7024W        W78640  29.458  22.556  11.237
 7025W        W78641  31.163  19.503   4.126
 7026W        W78642   6.218  32.668  11.968
 7027W        W78643  14.778  23.647  13.187
 7028W        W78644  29.219  13.302   3.148
 7029W        W78645  38.915  13.355  10.120
 7030W        W78646  19.331  28.761  13.076
 7031W        W78647  31.553  26.310   3.533
 7032W        W78648  13.128   8.947   3.663
 7033W        W78649  30.239  16.356   3.640
 7034W        W78650  12.281  10.769   1.966
 7035W        W78651   6.305  38.096   4.071
 7036W        W78652  24.425  38.329   0.338
 7037W        W78653  44.785  44.019   0.277
 7038W        W78654  35.726  16.802  12.137
 7039W        W78655  42.241  43.008   0.340
 7040W        W78656  36.564  34.330  13.827
 7041W        W78657  42.101  38.728  11.898
 7042W        W78658  33.441  41.274   0.244
 7043W        W78659  14.379  10.605  12.898
 7044W        W78660  12.078  23.521   1.361
 7045W        W78661  32.168  12.618   2.222
 7046W        W78662  38.491   9.879   1.292
 7047W        W78663  27.438  24.038  13.508
 7048W        W78664  28.924  22.525   3.379
 7049W        W78665  36.876  15.722   0.513
 7050W        W78666  24.464   7.604  11.133
 7051W        W78667  26.437  13.705   1.411
 7052W        W78668  31.185   4.995   0.540
 7053W        W78669  27.750  17.683   3.199
 7054W        W78670  14.554   7.147  14.581
 7055W        W78671  43.991  17.029  11.966
 7056W        W78672  18.169   3.529   1.193
 7057W        W78673  18.651  41.087   9.573
 7058W        W78674   3.869   5.811   4.779
 7059W        W78675  20.615  11.203   4.050
 7060W        W78676  33.448  11.307  12.526
 7061W        W78677  26.940  10.164   3.578
 7062W        W78678  40.363   7.108  11.151
 7063W        W78679  31.861  21.709   0.673
 7064W        W78680  20.318  11.747   1.861
 7065W        W78681   2.375   1.296   3.544
 7066W        W78682  20.279  32.181  14.535
 7067W        W78683   4.034  20.050  11.988
 7068W        W78684  16.552  30.719  12.516
 7069W        W78685   7.205  17.035   1.171
 7070W        W78686  32.597  11.179   0.279
 7071W        W78687  17.109  34.370  10.860
 7072W        W78688  20.996  30.583  11.472
 7073W        W78689  19.359  21.773  12.888
 7074W        W78690  39.744   9.171   3.814
 7075W        W78691   7.772  42.784  11.623
 7076W        W78692  10.358  21.543  12.677
 7077W        W78693  33.303   5.384   4.560
 7078W        W78694  29.057  26.598   9.894
 7079W        W78695  13.927   9.313   4.828
 7080W        W78696  27.848   1.908   1.227
 7081W        W78697  35.117  10.002  12.633
 7082W        W78698   4.214  28.130  13.286
 7083W        W78699  17.269  14.603  11.106
 7084W        W78700  39.982  42.033  10.796
 7085W        W78701   4.646  21.225   2.340
 7086W        W78702  31.072   0.505   4.034
 7087W        W78703   6.781  21.478  11.523
 7088W        W78704  29.413  18.634   0.360
 7089W        W78705   5.647  21.060  13.362
 7090W        W78706  33.975   0.945  11.369
 7091W        W78707   8.636   0.309   1.738
 7092W        W78708  17.698  24.555   0.882
 7093W        W78709  40.572  29.405  11.027
 7094W        W78710  10.796  27.977   0.900
 7095W        W78711  35.439   8.632  10.567
 7096W        W78712  34.046   5.992  14.993
 7097W        W78713  30.650  27.376   4.212
 7098W        W78714   0.893  32.475   0.220
 7099W        W78715   4.377  19.563  11.306
 7100W        W78716  27.061  20.939  12.943
 7101W        W78717  32.870  32.790  14.784
 7102W        W78718  27.460   3.905   0.307
 7103W        W78719  24.539  31.039  12.549
 7104W        W78720   2.973   7.545   0.978
 7105W        W78721   8.338  18.342   2.704
 7106W        W78722   3.459  18.092   4.887
 7107W        W78723  12.207  27.544   1.920
 7108W        W78724  26.258  35.889  14.820
 7109W        W78725   0.922  11.905   4.556
 7110W        W78726  23.939  41.521  14.760
 7111W        W78727  43.055   7.370  11.559
 7112W        W78728  39.466  20.597  13.600
 7113W        W78729  23.701   2.470   3.152
 7114W        W78730  28.955  16.643  12.094
 7115W        W78731  17.716  38.384  11.645
 7116W        W78732  27.894  41.743  11.521
 7117W        W78733  19.146  40.671  10.858
 7118W        W78734  32.371  12.748  14.059
 7119W        W78735  15.140  32.526  10.623
 7120W        W78736  16.215  29.518  12.138
 7121W        W78737  18.710   0.013   4.823
 7122W        W78738  39.778  33.588   2.874
 7123W        W78739  10.320  25.240  10.459
 7124W        W78740  11.432  37.147   0.734
 7125W        W78741  31.802  11.956  14.833
 7126W        W78742  18.065   6.688  11.609
 7127W        W78743  38.933  39.260   0.907
 7128W        W78744   1.491  33.999  12.408
 7129W        W78745  11.737  12.359  13.399
 7130W        W78746  32.008  25.651  11.183
 7131W        W78747  32.174  17.196  13.049
 7132W        W78748   4.941  32.504   3.644
 7133W        W78749  43.878   9.049   3.776
 7134W        W78750  43.986  24.451  10.692
 7135W        W78751   6.382  43.466   3.661
 7136W        W78752  20.546   1.261   1.649
 7137W        W78753  12.760  44.046  13.861
 7138W        W78754  19.746  31.892  12.526
 7139W        W78755  11.293  40.834  14.497
 7140W        W78756  20.159  44.016   0.778
 7141W        W78757  28.411  12.153  14.994
 7142W        W78758  24.688   8.207   3.663
 7143W        W78759  43.931  34.503   1.254
 7144W        W78760  17.525  33.815   0.306
 7145W        W78761  34.991  16.125  12.108
 7146W        W78762  17.762  43.726   2.869
 7147W        W78763  25.109  17.365   1.738
 7148W        W78764  12.121  38.894  11.906
 7149W        W78765  40.035  43.285   2.183
 7150W        W78766  10.140  33.564  12.806
 7151W        W78767  16.769  30.921  12.072
 7152W        W78768  31.990  32.585   4.084
 7153W        W78769  34.565  10.680   4.901
 7154W        W78770  28.687  41.000  13.295
 7155W        W78771  36.805  20.251   3.365
 7156W        W78772   4.661  44.853  14.958
 7157W        W78773  38.746  37.843  14.644
 7158W        W78774  41.332  38.440   2.213
 7159W        W78775  41.468  29.629   4.155
 7160W        W78776  12.690  31.935   3.531
 7161W        W78777   5.634  44.919   4.655
 7162W        W78778  36.766  27.684   4.122
 7163W        W78779   2.489   2.919   2.695
 7164W        W78780  42.965  28.484  14.702
 7165W        W78781  19.683  12.699  12.313
 7166W        W78782  28.147  20.367  14.482
 7167W        W78783   5.775   7.769   1.276
 7168W        W78784  42.017  19.481   4.064
 7169W        W78785   9.041  21.989  11.625
 7170W        W78786   7.112  31.266   0.913
 7171W        W78787  28.540  27.183  11.053
 7172W        W78788  14.689  26.188  10.685
 7173W        W78789  36.396  23.676  12.567
 7174W        W78790  20.778  31.473   0.720
 7175W        W78791   9.431  33.859  12.037
 7176W        W78792   7.713  42.738   0.999
 7177W        W78793  12.295   0.222  12.230
 7178W        W78794  14.906   8.625   2.739
 7179W        W78795  20.989  26.131   2.217
 7180W        W78796  32.850  26.026   1.783
 7181W        W78797  23.996  40.359  11.035
 7182W        W78798  30.445  32.553   4.644
 7183W        W78799  37.089  39.505  11.115
 7184W        W78800  16.708   2.992  11.156
 7185W        W78801  36.861   5.096   1.428
 7186W        W78802  25.228  21.956  12.071
 7187W        W78803  35.545  34.322   4.227
 7188W        W78804  27.572  43.056   0.787
 7189W        W78805  37.324  41.518   1.758
 7190W        W78806  13.634  38.003  12.554
 7191W        W78807   3.313  41.264  13.422
 7192W        W78808   7.915  37.129   3.112
 7193W        W78809  11.466   8.206   0.021
 7194W        W78810  16.303   1.912  14.878
 7195W        W78811   8.984  41.605  10.989
 7196W        W78812  28.481   4.232   2.769
 7197W        W78813  28.536  21.830   0.436
 7198W        W78814  17.974  11.359  14.841
 7199W        W78815  44.347   4.216  13.201
 7200W        W78816   3.733  44.184  10.597
 7201W        W78817  24.225  43.817  11.992
 7202W        W78818  30.128  14.183   1.708
 7203W        W78819   0.848   5.051   4.041
 7204W        W78820   7.864   1.873   4.076
 7205W        W78821  32.939  11.397   2.664
 7206W        W78822   6.465  15.606   0.234
 7207W        W78823  40.739  31.025  10.670
 7208W        W78824  34.326  18.053   2.259
 7209W        W78825  12.801  13.431  13.260
 7210W        W78826  27.683   9.820   1.710
 7211W        W78827  11.872  31.578   4.644
 7212W        W78828   6.100   5.992   4.598
 7213W        W78829  34.311   2.837   4.200
 7214W        W78830  21.918  32.593  11.100
 7215W        W78831   4.165  30.915   0.499
 7216W        W78832  37.759  44.830  11.054
 7217W        W78833  29.891   7.359  14.541
 7218W        W78834  24.591  15.549  13.794
 7219W        W78835  15.602   2.919  11.692
 7220W        W78836   2.516  27.937  11.151
 7221W        W78837  44.708  44.281   1.233
 7222W        W78838  15.674  34.991  14.516
 7223W        W78839  23.748   0.419   0.563
 7224W        W78840  18.206  36.235  10.694
 7225W        W78841  30.075  36.359   0.920
 7226W        W78842  27.151  22.500   3.159
 7227W        W78843  44.384   5.340   1.327
 7228W        W78844  36.127  14.733  13.318
 7229W        W78845  24.782  19.137   3.258
 7230W        W78846  34.640  26.273  14.400
 7231W        W78847  37.296   0.857   4.163
 7232W        W78848   7.060  36.508  11.143
 7233W        W78849  27.467  10.637  11.894
 7234W        W78850   2.020  23.556  14.384
 7235W        W78851  20.135  39.516  13.056
 7236W        W78852   6.134  34.795   0.127
 7237W        W78853  37.304  25.733   0.875
 7238W        W78854   3.914   3.972  11.198
 7239W        W78855  14.562  24.603   4.130
 7240W        W78856  36.119  32.487  13.566
 7241W        W78857  36.542  33.986   3.647
 7242W        W78858  40.244   5.349  14.179
 7243W        W78859  18.074  21.054  10.239
 7244W        W78860  17.219  19.462  12.527
 7245W        W78861  31.153   6.404   4.471
 7246W        W78862  38.334   3.223   3.131
 7247W        W78863  25.516   3.964  14.874
 7248W        W78864  34.535  18.313  11.108
 7249W        W78865  36.469  43.288  12.549
 7250W        W78866  36.057  31.051   4.816
 7251W        W78867  25.111  21.587   2.625
 7252W        W78868  16.473  22.582   1.479
 7253W        W78869  30.101  32.676  14.973
 7254W        W78870  14.251  29.357   0.235
 7255W        W78871  27.075  12.312  12.892
 7256W        W78872  21.454  25.650   3.233
 7257W        W78873  12.857  22.710   2.457
 7258W        W78874   4.283   0.911  10.982
 7259W        W78875  16.694   3.646   3.833
 7260W        W78876  23.536  11.362   3.527
 7261W        W78877   1.995  10.124   1.269
 7262W        W78878  14.653  15.869  12.808
 7263W        W78879  28.919  27.997   2.099
 7264W        W78880  32.250  10.038   1.279
 7265W        W78881  25.033  14.713  12.051
 7266W        W78882  37.548  18.053   2.887
 7267W        W78883   7.226  26.730   0.258
 7268W        W78884  34.375  21.354  12.984
 7269W        W78885  27.243   3.317   0.727
 7270W        W78886  23.306  33.059  12.737
 7271W        W78887   0.511  21.536   0.397
 7272W        W78888  14.515  22.497   0.274
 7273W        W78889  39.053   6.854   0.305
 7274W        W78890  34.903  14.427   4.800
 7275W        W78891  24.541  12.442   0.150
 7276W        W78892  34.454  16.133  10.608
 7277W        W78893  36.446  14.986   4.646
 7278W        W78894  41.048  30.144   2.445
 7279W        W78895  13.626  29.884   2.293
 7280W        W78896  16.236   0.994  12.841
 7281W        W78897   9.680  35.354   0.400
 7282W        W78898  12.111  27.012  11.342
 7283W        W78899  14.390  16.594   4.173
 7284W        W78900  11.686   2.006  12.023
 7285W        W78901   9.824   5.826  12.113
 7286W        W78902  28.291  30.941  14.734
 7287W        W78903  30.378  19.265  12.329
 7288W        W78904  33.393   9.192   5.056
 7289W        W78905  43.805  24.083  12.459
 7290W        W78906   7.182  17.172   1.676
 7291W        W78907  22.930  33.243   4.682
 7292W        W78908   3.925  30.349   2.745
 7293W        W78909  25.415  14.550   0.924
 7294W        W78910  32.168   7.793   4.082
 7295W        W78911   4.326  26.341  12.322
 7296W        W78912  16.739  41.051  12.113
 7297W        W78913  36.556  25.178   0.545
 7298W        W78914  28.719  39.712  11.566
 7299W        W78915  22.714   0.354  14.840
 7300W        W78916   4.901  41.011  13.038
 7301W        W78917  36.126  15.225   1.787
 7302W        W78918  24.994  43.922   0.682
 7303W        W78919  35.945  41.880  13.574
 7304W        W78920  26.720   2.043  13.466
 7305W        W78921  20.484   8.330   0.848
 7306W        W78922   3.618   8.265  11.153
 7307W        W78923  18.731  23.508  13.939
 7308W        W78924   8.261  18.712  10.658
 7309W        W78925  17.794  36.388   3.847
 7310W        W78926  35.325  33.455  11.713
 7311W        W78927  16.005  19.715   2.711
 7312W        W78928  22.271   6.792  10.835
 7313W        W78929   1.051  31.602   0.331
 7314W        W78930  43.135   8.775  12.850
 7315W        W78931  41.578   1.793   2.216
 7316W        W78932   1.245  42.564   4.152
 7317W        W78933   4.897  23.125  10.990
 7318W        W78934  25.967  14.346  11.207
 7319W        W78935  12.892   7.371  13.975
 7320W        W78936  43.665  44.202   3.238
 7321W        W78937  21.255  26.878   2.772
 7322W        W78938  22.543  14.124  13.014
 7323W        W78939  12.738  34.878   3.229
 7324W        W78940  26.960  41.559  13.375
 7325W        W78941  23.958  11.035  14.930
 7326W        W78942   9.811  37.015  12.082
 7327W        W78943  33.860  43.809   4.167
 7328W        W78944  39.391  38.673  13.854
 7329W        W78945  16.680  26.992  10.775
 7330W        W78946  43.088  11.813   3.405
 7331W        W78947  18.601   8.772  11.641
 7332W        W78948   4.805  14.938  14.621
 7333W        W78949  31.802  20.388  13.392
 7334W        W78950   5.899  17.797  12.843
 7335W        W78951   2.128  43.990   4.607
 7336W        W78952  30.446   9.787  10.666
 7337W        W78953  20.517  44.360  14.453
 7338W        W78954  28.218  42.322   1.796
 7339W        W78955  17.582  31.477   0.792
 7340W        W78956  23.492  29.805   1.700
 7341W        W78957   0.339  34.853   1.028
 7342W        W78958  37.063   1.043  12.633
 7343W        W78959  31.668  15.652   4.618
 7344W        W78960  10.833  19.562  13.400
 7345W        W78961  36.971   2.619   4.271
 7346W        W78962  27.144  34.328   4.195
 7347W        W78963  36.001  24.706  12.901
 7348W        W78964  27.751   4.777   2.819
 7349W        W78965  24.506  17.106  13.946
 7350W        W78966  13.542  24.631  13.119
 7351W        W78967  31.879   2.442  11.618
 7352W        W78968   1.887  30.652   4.221
 7353W        W78969  11.967   3.731  11.634
 7354W        W78970  13.805  24.107  11.860
 7355W        W78971  29.047  33.462   4.545
 7356W        W78972  31.817   0.233   2.831
 7357W        W78973  23.078  31.153   4.732
 7358W        W78974  21.219  12.144   1.452
 7359W        W78975  32.674  10.788   3.726
 7360W        W78976  25.233   8.649  11.829
 7361W        W78977   4.646  21.486  11.626
 7362W        W78978  26.816  24.274  12.002
 7363W        W78979   2.769  31.081   3.136
 7364W        W78980   3.468  23.146   3.748
 7365W        W78981   3.404   6.321   1.050
 7366W        W78982   2.903  37.944   3.898
 7367W        W78983  26.909  34.625  11.188
 7368W        W78984  40.881  21.157  10.757
 7369W        W78985  15.334  24.440   0.799
 7370W        W78986  20.100   6.917  12.705
 7371W        W78987  25.559  18.609  12.318
 7372W        W78988  22.676  23.569  14.763
 7373W        W78989  39.823  11.629  11.505
 7374W        W78990  28.430  26.941   0.768
 7375W        W78991   7.747  11.332   2.155
 7376W        W78992  34.503  19.449  10.401
 7377W        W78993  38.032  38.998   2.286
 7378W        W78994  28.381  23.292  11.920
 7379W        W78995  15.454  33.646   4.077
 7380W        W78996  10.615   5.454   0.433
 7381W        W78997  36.754   6.226   0.750
 7382W        W78998  15.782  22.066   3.615
 7383W        W78999  32.167  33.746   1.881
 7384W        W79000  18.179  30.919  10.748
 7385W        W79001  44.495  12.482   3.688
 7386W        W79002  21.722   2.174   1.864
 7387W        W79003  37.891  21.187  11.001
 7388W        W79004  42.785  41.408  10.435
 7389W        W79005  39.551  43.464  14.351
 7390W        W79006  16.230   7.343  14.844
 7391W        W79007  26.667   9.794  10.781
 7392W        W79008  27.193  41.526   2.776
 7393W        W79009   5.876  22.306  12.943
 7394W        W79010   2.164  26.116  12.125
 7395W        W79011  43.092  13.673   1.504
 7396W        W79012  31.049  10.584   5.197
 7397W        W79013  22.716  26.898  14.051
 7398W        W79014  43.745  24.403   3.940
 7399W        W79015  14.853  27.459   1.371
 7400W        W79016  23.564  16.036   2.337
 7401W        W79017   1.553  27.669  11.999
 7402W        W79018  24.564  27.468   0.062
 7403W        W79019   4.647  25.293  10.206
 7404W        W79020  23.573  22.580  13.970
 7405W        W79021  24.216  42.520  11.111
 7406W        W79022  23.014  43.127   2.649
 7407W        W79023  23.545   0.835  14.803
 7408W        W79024  44.027  20.524   2.358
 7409W        W79025   3.054   7.233  14.450
 7410W        W79026  39.798  32.960   2.262
 7411W        W79027  17.308  41.101   1.726
 7412W        W79028   4.687  39.077  13.064
 7413W        W79029  34.589  12.549   2.970
 7414W        W79030  23.040   3.181  12.940
 7415W        W79031  25.027  14.518   5.351
 7416W        W79032  39.367   5.748   0.524
 7417W        W79033  35.143  36.325  12.880
 7418W        W79034  11.512  39.039   1.853
 7419W        W79035  35.865   4.834  14.099
 7420W        W79036   1.328  13.097  14.091
 7421W        W79037   9.892   6.121   1.261
 7422W        W79038  32.347  24.427   1.139
 7423W        W79039  28.557   0.790  10.757
 7424W        W79040  34.469  21.869   4.120
 7425W        W79041  18.317  24.590   2.338
 7426W        W79042   0.529  27.620  14.939
 7427W        W79043   0.952  11.819  14.903
 7428W        W79044  38.627  27.071  12.973
 7429W        W79045  26.597  41.065   0.456
 7430W        W79046  24.511  23.882   4.092
 7431W        W79047  33.882  17.566  14.409
 7432W        W79048  37.994  16.081   2.843
 7433W        W79049  26.582  28.128  13.421
 7434W        W79050   8.252  32.137  11.208
 7435W        W79051  34.976   6.888   4.910
 7436W        W79052  39.914  44.442   1.627
 7437W        W79053  40.610  14.181   1.728
 7438W        W79054  39.377  29.126   0.785
 7439W        W79055  13.939  42.913  12.563
 7440W        W79056   0.754  35.805   0.433
 7441W        W79057  18.849   7.302   0.741
 7442W        W79058   7.410  12.973  12.053
 7443W        W79059   3.709  19.526  14.371
 7444W        W79060  23.501  22.631  11.093
 7445W        W79061  40.300  13.081   1.600
 7446W        W79062  33.462  28.047  11.991
 7447W        W79063  29.168  12.810  11.152
 7448W        W79064  12.293  30.649  11.550
 7449W        W79065  12.676  10.218  13.964
 7450W        W79066  28.636   7.658  11.601
 7451W        W79067  20.302  22.106   3.009
 7452W        W79068  31.913  30.118  11.815
 7453W        W79069  16.382  17.413   3.608
 7454W        W79070  13.606  35.441  13.521
 7455W        W79071   6.737   9.003   0.882
 7456W        W79072   9.314   3.830   1.924
 7457W        W79073  25.367   7.750  14.439
 7458W        W79074  26.736  10.115   3.091
 7459W        W79075  17.015   5.582  10.808
 7460W        W79076  35.310  44.110   0.932
 7461W        W79077  18.790   8.658   3.347
 7462W        W79078  18.131  20.520   1.839
 7463W        W79079  30.025  33.601  14.773
 7464W        W79080  21.130  23.987   1.351
 7465W        W79081  39.077  16.296   1.416
 7466W        W79082  36.325  41.834  11.048
 7467W        W79083   0.574  17.015  14.767
 7468W        W79084  20.768   7.794   2.678
 7469W        W79085  37.360  10.681  10.195
 7470W        W79086  38.503  36.600  12.015
 7471W        W79087  43.513  11.157  12.973
 7472W        W79088  36.096  31.492  12.468
 7473W        W79089   1.890   8.882   3.375
 7474W        W79090  27.102  38.527   2.289
 7475W        W79091  10.590  22.400  14.405
 7476W        W79092  10.782  22.198  11.672
 7477W        W79093  12.594  30.379  11.992
 7478W        W79094  18.749  44.482   3.231
 7479W        W79095   2.109   0.676   0.945
 7480W        W79096  33.869  40.807   1.896
 7481W        W79097  43.320   6.123  14.300
 7482W        W79098  32.575  14.287  13.862
 7483W        W79099  41.169   7.444  11.825
 7484W        W79100  19.971  12.321  13.919
 7485W        W79101   6.099  16.864   0.818
 7486W        W79102  16.065  40.115   0.341
 7487W        W79103  37.547  25.737  10.675
 7488W        W79104  24.251   4.259  13.828
 7489W        W79105  28.062   0.952  10.880
 7490W        W79106  37.365  30.149   0.046
 7491W        W79107  32.704  35.476  14.507
 7492W        W79108  29.062   0.915   3.362
 7493W        W79109  10.164  22.282   4.106
 7494W        W79110  38.300  44.076  11.997
 7495W        W79111  24.094  41.888  12.101
 7496W        W79112  22.477  41.910   0.385
 7497W        W79113  43.987   0.942   3.857
 7498W        W79114  38.553   6.284  14.309
 7499W        W79115  29.860  39.859   3.000
 7500W        W79116   5.050  28.097   4.947
 7501W        W79117   8.229  19.640  10.825
 7502W        W79118  25.277  41.017   1.915
 7503W        W79119  41.541  23.993   2.189
 7504W        W79120  19.186  41.071  11.680
 7505W        W79121  35.825  44.408   0.923
 7506W        W79122  42.794  38.539   3.408
 7507W        W79123  42.871  19.068   3.683
 7508W        W79124  16.595   2.983  12.607
 7509W        W79125  41.005  23.281   4.087
 7510W        W79126   2.368   7.779  12.794
 7511W        W79127  28.620  34.307  10.408
 7512W        W79128  43.587  33.433   2.162
 7513W        W79129  37.255  38.129  14.798
 7514W        W79130  33.108  14.089  14.758
 7515W        W79131  18.074  31.719   4.439
 7516W        W79132   3.295  11.840  14.320
 7517W        W79133   8.273  15.870  11.135
 7518W        W79134  29.875  25.953  11.201
 7519W        W79135  29.510  34.091  13.058
 7520W        W79136   9.288  33.541   0.472
 7521W        W79137  25.945  40.797   3.055
 7522W        W79138  22.930  11.857   1.745
 7523W        W79139  27.380   3.560   4.269
 7524W        W79140  41.718   9.742   4.066
 7525W        W79141  26.645  12.135  14.542
 7526W        W79142  15.879  13.416   2.329
 7527W        W79143  22.122  30.905  11.999
 7528W        W79144  15.018  11.174  10.632
 7529W        W79145  43.226   0.395   0.128
 7530W        W79146  37.326   1.892   0.047
 7531W        W79147  37.742   2.186   1.778
 7532W        W79148  16.127  36.036  12.151
 7533W        W79149  42.756  14.920   4.117
 7534W        W79150  41.268  14.688  14.841
 7535W        W79151  12.186  21.454   4.555
 7536W        W79152   8.344  10.918   4.762
 7537W        W79153   0.404   3.181  14.220
 7538W        W79154  21.673  39.837  14.761
 7539W        W79155   0.876  42.847  11.577
 7540W        W79156  30.382  22.251  11.419
 7541W        W79157  23.213   5.772   4.620
 7542W        W79158  11.336   9.271  13.319
 7543W        W79159  34.457  19.606  12.627
 7544W        W79160  36.551  22.522   3.204
 7545W        W79161  12.430  29.888  12.033
 7546W        W79162  44.986   3.811   4.148
 7547W        W79163   6.709  17.412   1.818
 7548W        W79164   9.706  22.188   0.672
 7549W        W79165   3.813  14.645  13.968
 7550W        W79166  11.620  43.768  14.301
 7551W        W79167   2.026   9.082  12.957
 7552W        W79168  41.785  30.446   1.334
 7553W        W79169  28.619  44.074  11.647
 7554W        W79170  34.927  30.692  13.111
 7555W        W79171  31.665  29.917   3.585
 7556W        W79172   5.856  43.806   1.876
 7557W        W79173   9.746  32.489   1.928
 7558W        W79174  32.550  36.784  13.990
 7559W        W79175  29.590   2.402  11.999
 7560W        W79176  32.129   7.736   0.316
 7561W        W79177   7.474   5.802   4.884
 7562W        W79178  24.137  32.186   4.052
 7563W        W79179  27.465  32.889  12.184
 7564W        W79180  32.617  21.763  13.916
 7565W        W79181   5.308  25.223   0.226
 7566W        W79182  12.260  17.047   1.034
 7567W        W79183  20.063   5.492  11.720
 7568W        W79184   9.670   5.277   4.912
 7569W        W79185  16.364  16.180  12.521
 7570W        W79186  39.364  30.462   0.576
 7571W        W79187  12.732   6.985  14.757
 7572W        W79188  27.250  23.155  12.160
 7573W        W79189  13.809   9.145  11.240
 7574W        W79190   8.873  25.858  13.909
 7575W        W79191  41.400  37.574  10.110
 7576W        W79192  15.067  40.562  13.748
 7577W        W79193  10.679  41.364  11.121
 7578W        W79194  17.364  24.168  12.001
 7579W        W79195  26.507  37.664   4.572
 7580W        W79196  30.564  24.210   1.494
 7581W        W79197   8.279   5.343  11.251
 7582W        W79198  27.425   4.677   4.133
 7583W        W79199  16.402   8.468  14.393
 7584W        W79200  34.471  43.787   1.389
 7585W        W79201  17.553  23.047  11.471
 7586W        W79202  35.540  19.138   3.566
 7587W        W79203  43.225  36.164  13.169
 7588W        W79204  19.335   7.291  14.865
 7589W        W79205   2.311  12.587  13.991
 7590W        W79206  38.014  23.274   4.665
 7591W        W79207  31.643  32.059  14.928
 7592W        W79208  21.002   5.262  11.571
 7593W        W79209   7.923  25.485  12.009
 7594W        W79210  39.464  43.507  11.526
 7595W        W79211  43.022  21.737  12.572
 7596W        W79212  20.062  18.729  10.711
 7597W        W79213  14.404  11.929   2.978
 7598W        W79214  33.625  25.110  11.140
 7599W        W79215  10.601  33.386   4.640
 7600W        W79216   4.902  20.713   3.693
 7601W        W79217   8.803  25.464   0.390
 7602W        W79218   6.478  34.668  13.934
 7603W        W79219   4.929  24.395   5.017
 7604W        W79220   9.991   5.865  10.173
 7605W        W79221  41.290  32.088  12.451
 7606W        W79222  17.141   8.200  12.072
 7607W        W79223  29.923  26.601  13.041
 7608W        W79224  33.097  14.834  11.721
 7609W        W79225  18.402  35.508   0.415
 7610W        W79226   5.739   0.569  12.669
 7611W        W79227  40.543  24.326   3.959
 7612W        W79228  16.119  29.587  14.833
 7613W        W79229  36.061  21.657  14.190
 7614W        W79230   5.317  35.552  14.838
 7615W        W79231  24.984   3.216  12.960
 7616W        W79232  26.720  34.549  14.759
 7617W        W79233  28.252   4.557  11.238
 7618W        W79234  30.150  24.201  10.995
 7619W        W79235  22.328  42.341  14.662
 7620W        W79236  25.680  31.904   2.530
 7621W        W79237  29.754  21.387  14.191
 7622W        W79238   4.718  28.006  10.244
 7623W        W79239  27.464  30.524  12.609
 7624W        W79240   8.029  28.426   2.622
 7625W        W79241   3.018  32.943   3.105
 7626W        W79242  12.873   0.758  11.974
 7627W        W79243  11.629  23.260   1.355
 7628W        W79244  19.790   8.718   1.277
 7629W        W79245  32.558   8.706  14.353
 7630W        W79246  30.763  12.164  14.445
 7631W        W79247  41.541   1.051  11.218
 7632W        W79248  17.622   2.912  14.980
 7633W        W79249  22.499  29.137  10.745
 7634W        W79250  21.013  11.893  10.726
 7635W        W79251  23.887  23.221  11.818
 7636W        W79252  22.111   2.951   3.774
 7637W        W79253  20.073  30.959   0.948
 7638W        W79254   2.870  27.209  10.503
 7639W        W79255  24.044  34.658  13.955
 7640W        W79256   3.101  20.286  12.017
 7641W        W79257  44.253   0.773  14.971
 7642W        W79258  34.524  30.423  12.058
 7643W        W79259  27.086  10.237  11.610
 7644W        W79260  36.051  39.854  11.647
 7645W        W79261  30.896  12.175   4.110
 7646W        W79262  42.726  41.052   0.461
 7647W        W79263  26.726   6.355  12.359
 7648W        W79264  19.684  41.315  12.067
 7649W        W79265  18.488  37.016   4.764
 7650W        W79266  20.843  19.505  10.999
 7651W        W79267  20.206   5.845   2.688
 7652W        W79268   8.251   5.750  12.861
 7653W        W79269  15.653   5.746  10.102
 7654W        W79270   2.787  29.304  12.134
 7655W        W79271  25.412   5.862  14.755
 7656W        W79272   7.548  34.092  13.450
 7657W        W79273  23.608  13.374  14.946
 7658W        W79274  39.171  37.503   4.274
 7659W        W79275  41.930  20.810   1.359
 7660W        W79276  13.692  43.934   0.859
 7661W        W79277  30.551   8.664   4.630
 7662W        W79278  30.552  30.258  11.478
 7663W        W79279  29.445  33.206  12.007
 7664W        W79280   9.140  16.712  13.288
 7665W        W79281  30.231  39.008  10.684
 7666W        W79282  27.597  23.539  13.549
 7667W        W79283  20.870  42.270  12.020
 7668W        W79284  37.426   1.022   3.697
 7669W        W79285  22.542  37.313   3.731
 7670W        W79286   1.874  44.547   4.028
 7671W        W79287   9.833   9.302  14.829
 7672W        W79288  35.761   3.733   2.846
 7673W        W79289   4.606  17.324  12.667
 7674W        W79290  19.535   6.790   3.235
 7675W        W79291  26.309  29.058   2.241
 7676W        W79292  33.944  37.524  11.652
 7677W        W79293   1.484   4.746   1.229
 7678W        W79294  23.804  26.078   1.019
 7679W        W79295  33.024  43.230  12.530
 7680W        W79296  17.640   6.171   1.762
 7681W        W79297  42.452  38.931   4.846
 7682W        W79298  28.960  17.695   2.904
 7683W        W79299   8.706  14.231   0.694
 7684W        W79300  19.796   1.566   2.833
 7685W        W79301  43.579  32.383  11.385
 7686W        W79302   3.247  18.806   4.248
 7687W        W79303  39.702  11.677   5.407
 7688W        W79304   2.695   3.956  13.625
 7689W        W79305  23.043  42.839  10.697
 7690W        W79306  11.793  21.798  14.966
 7691W        W79307  38.264  40.432   3.591
 7692W        W79308  20.109  41.544   3.031
 7693W        W79309   1.954   3.017   2.664
 7694W        W79310  33.015  23.471   4.254
 7695W        W79311   9.751  20.740  13.576
 7696W        W79312  38.093   2.338   2.803
 7697W        W79313  32.443  27.216   1.834
 7698W        W79314   6.417  20.574  13.903
 7699W        W79315   9.415  36.567  12.948
 7700W        W79316  17.299  43.483   1.703
 7701W        W79317  32.531   4.218  13.265
 7702W        W79318   8.124  24.607  12.024
 7703W        W79319  29.380  33.972   2.085
 7704W        W79320  13.389  35.487  10.578
 7705W        W79321   3.386  41.216   3.646
 7706W        W79322  42.938  22.248  12.559
 7707W        W79323  35.570  34.436  12.733
 7708W        W79324  28.677   0.286   1.367
 7709W        W79325   4.854  44.344   2.308
 7710W        W79326  41.084  18.111  10.707
 7711W        W79327  42.430  39.763   3.162
 7712W        W79328  42.289  34.008   4.661
 7713W        W79329  23.249   4.235  11.224
 7714W        W79330   5.996   5.689   0.914
 7715W        W79331   4.884  43.909   5.029
 7716W        W79332  44.814  37.368  14.135
 7717W        W79333  30.759  43.937  10.674
 7718W        W79334  28.545  23.624   3.028
 7719W        W79335  43.408   3.346   0.760
 7720W        W79336  25.936   6.969   2.172
 7721W        W79337   4.696   4.910  10.506
 7722W        W79338  44.076  21.545   2.295
 7723W        W79339  37.528  10.180   2.865
 7724W        W79340   2.335  27.741   0.319
 7725W        W79341  21.469  38.914   4.289
 7726W        W79342  21.762  26.562  10.526
 7727W        W79343   7.300   8.781   3.914
 7728W        W79344  43.904  20.663  11.659
 7729W        W79345  37.756  42.540   3.271
 7730W        W79346  37.869  16.255   4.825
 7731W        W79347   7.685  33.092   0.858
 7732W        W79348  17.692  19.133  12.590
 7733W        W79349  38.365  16.733   4.550
 7734W        W79350   2.760  37.564   1.312
 7735W        W79351  25.642   6.914  11.518
 7736W        W79352   6.317  24.579  14.809
 7737W        W79353  41.174  22.483   3.687
 7738W        W79354  27.641  23.881   0.781
 7739W        W79355  41.394   7.362  13.973
 7740W        W79356  27.067   0.338   1.935
 7741W        W79357  27.231  19.050   3.089
 7742W        W79358  31.266  23.582  10.178
 7743W        W79359  16.375  30.963  10.864
 7744W        W79360  42.809   1.667  12.377
 7745W        W79361  28.154   5.116  13.419
 7746W        W79362  30.174  42.536  13.540
 7747W        W79363  16.354   6.994   3.642
 7748W        W79364  37.615  13.292  12.556
 7749W        W79365   7.411   4.744  12.486
 7750W        W79366  43.385  27.073   0.868
 7751W        W79367   2.878  14.706  11.940
 7752W        W79368  17.113  39.816   3.118
 7753W        W79369  20.053   9.844  12.161
 7754W        W79370  22.141  28.791   0.895
 7755W        W79371  18.877  30.674   2.128
 7756W        W79372  21.070  32.635   3.482
 7757W        W79373  44.360  21.264   1.292
 7758W        W79374  26.492  12.598   0.258
 7759W        W79375  37.612  13.384   0.737
 7760W        W79376  37.286   7.782  14.999
 7761W        W79377  39.554  32.088   2.158
 7762W        W79378  43.940   8.039   0.784
 7763W        W79379  36.998  39.640   2.081
 7764W        W79380  42.229  17.279   0.860
 7765W        W79381  42.731  25.467  13.205
 7766W        W79382  29.378  35.833  10.673
 7767W        W79383   0.685  32.554   4.908
 7768W        W79384  36.422   4.309  11.464
 7769W        W79385   4.135  32.803  14.323
 7770W        W79386  29.937   3.864   0.648
 7771W        W79387   3.773  41.794  10.794
 7772W        W79388  28.486  15.583  12.428
 7773W        W79389  27.674  20.701  10.648
 7774W        W79390   5.947  36.570  11.798
 7775W        W79391  35.990  26.693   0.381
 7776W        W79392   9.935  42.080   0.828
 7777W        W79393  15.500  20.138   0.252
 7778W        W79394  31.040  19.256  11.392
 7779W        W79395   4.374  14.113  13.932
 7780W        W79396  41.921   3.716  12.405
 7781W        W79397  43.336  28.969   4.554
 7782W        W79398  10.767  20.029  13.606
 7783W        W79399  19.004  14.222  13.377
 7784W        W79400  39.761  41.549   0.253
 7785W        W79401  34.711  13.194   0.736
 7786W        W79402  13.067  10.871   0.544
 7787W        W79403  22.028  17.583  14.294
 7788W        W79404   0.875  37.494   1.511
 7789W        W79405  29.746  30.030   0.945
 7790W        W79406  43.706   9.831   2.238
 7791W        W79407   3.397  32.814  11.929
 7792W        W79408  31.391  10.770  13.950
 7793W        W79409  33.163  41.002   4.186
 7794W        W79410  37.042  33.719  14.359
 7795W        W79411  14.537  23.643   1.126
 7796W        W79412   4.383  14.373  11.037
 7797W        W79413  18.278   4.249   0.673
 7798W        W79414  40.686  30.251  13.403
 7799W        W79415  43.346  24.630   0.959
 7800W        W79416  11.994  12.642   4.048
 7801W        W79417  44.268  28.893   4.667
 7802W        W79418  33.616  30.578   3.637
 7803W        W79419  25.989  26.444   2.281
 7804W        W79420  17.745   4.155  12.337
 7805W        W79421  15.109  41.331  14.026
 7806W        W79422   0.258  38.037   1.267
 7807W        W79423  36.153  23.216  12.585
 7808W        W79424   9.505  17.032  11.552
 7809W        W79425  31.396  42.246  12.612
 7810W        W79426   0.491   3.742  14.726
 7811W        W79427  44.178  30.905  10.900
 7812W        W79428  33.663  42.680   0.233
 7813W        W79429   8.841   6.808  11.980
 7814W        W79430  33.302   1.385  12.771
 7815W        W79431  15.646  25.431  14.567
 7816W        W79432  17.257  17.819   4.998
 7817W        W79433   1.745  41.058   4.680
 7818W        W79434  14.045   4.675  11.139
 7819W        W79435   8.262  24.575   3.890
 7820W        W79436  42.404  14.706   1.306
 7821W        W79437  31.292   5.793  12.966
 7822W        W79438  41.280  42.031   4.141
 7823W        W79439  21.440  42.410   1.019
 7824W        W79440   7.805  15.052   1.388
 7825W        W79441  35.106  14.102   3.387
 7826W        W79442  25.113  13.902   3.503
 7827W        W79443  43.761  13.471   2.320
 7828W        W79444  36.392  19.744   1.298
 7829W        W79445  34.340  37.406   4.435
 7830W        W79446   9.338   1.269  10.721
 7831W        W79447  40.779   9.743  12.094
 7832W        W79448  32.000  33.809  13.556
 7833W        W79449  44.227  20.289   0.442
 7834W        W79450  19.105   2.396  10.441
 7835W        W79451  14.686   9.197  12.928
 7836W        W79452  14.560  24.031   0.278
 7837W        W79453  32.513   1.006  12.553
 7838W        W79454  31.720   1.991  11.432
 7839W        W79455   9.249   9.674   4.576
 7840W        W79456  40.462  38.086  14.472
 7841W        W79457   5.784  15.477   2.253
 7842W        W79458  37.786   3.408   0.262
 7843W        W79459  21.982  28.483   2.205
 7844W        W79460  28.700  28.753  12.023
 7845W        W79461  43.008   2.244  11.568
 7846W        W79462  29.528  35.511   1.869
 7847W        W79463  24.273  16.654  11.261
 7848W        W79464  39.027  17.359   2.965
 7849W        W79465  10.366   1.096   3.275
 7850W        W79466  20.751  43.835   2.682
 7851W        W79467   9.279  31.349   0.529
 7852W        W79468  34.819  39.572  13.429
 7853W        W79469  37.506  13.680   9.780
 7854W        W79470  35.000  13.141  13.530
 7855W        W79471   8.308  21.514  11.197
 7856W        W79472   8.291  29.773   4.559
 7857W        W79473  21.204  33.491  14.524
 7858W        W79474  19.038  15.317   2.436
 7859W        W79475  39.458   0.856  12.345
 7860W        W79476  19.777  37.145   0.540
 7861W        W79477  36.556  20.144   0.642
 7862W        W79478  37.829   1.029   0.303
 7863W        W79479   3.772   5.497  13.902
 7864W        W79480   6.955   0.987   1.610
 7865W        W79481  44.681  25.156   3.162
 7866W        W79482   2.510  18.621   0.757
 7867W        W79483  21.591  18.179   3.906
 7868W        W79484  22.263   3.856   4.617
 7869W        W79485  23.237  25.443   0.512
 7870W        W79486  33.394  18.072   0.033
 7871W        W79487  11.353  31.954  12.485
 7872W        W79488  28.354  36.997   1.898
 7873W        W79489  32.148  14.549  13.739
 7874W        W79490  20.542  44.273   3.574
 7875W        W79491  19.333  23.239  14.112
 7876W        W79492  13.193   6.865  14.523
 7877W        W79493   1.052  43.124  10.888
 7878W        W79494  34.124  21.289   1.300
 7879W        W79495   7.970  19.129  12.269
 7880W        W79496  38.920  25.096  12.000
 7881W        W79497  28.105  14.516  12.341
 7882W        W79498  14.209  31.107  11.760
 7883W        W79499  18.933  41.393   9.953
 7884W        W79500  42.327  31.966  12.610
 7885W        W79501  33.326  38.073   3.287
 7886W        W79502   8.727   5.270   4.866
 7887W        W79503  13.709   0.385  10.900
 7888W        W79504  26.237  38.792  13.845
 7889W        W79505  18.169  11.900   0.883
 7890W        W79506  20.590   7.158  11.668
 7891W        W79507  25.482  35.673  12.665
 7892W        W79508  35.870  17.948  12.202
 7893W        W79509  29.069  30.959   3.865
 7894W        W79510   7.478  27.916  13.552
 7895W        W79511  31.282  14.811  14.815
 7896W        W79512  30.521  25.457   2.326
 7897W        W79513  19.547  33.986   4.332
 7898W        W79514  31.541  29.210   0.238
 7899W        W79515  23.208  38.740   2.295
 7900W        W79516  14.625  26.533  11.913
 7901W        W79517  28.861  39.900   4.091
 7902W        W79518  37.404  23.172  14.359
 7903W        W79519  43.118  38.817   2.450
 7904W        W79520   3.739  26.353   1.991
 7905W        W79521  41.337  14.759   1.727
 7906W        W79522   0.833  39.818   2.367
 7907W        W79523   1.724  38.600  12.025
 7908W        W79524  27.588  25.297   3.787
 7909W        W79525  25.416  13.050   3.307
 7910W        W79526  34.638  21.297  11.009
 7911W        W79527  20.647  34.771   4.035
 7912W        W79528  27.432  37.708   4.214
 7913W        W79529  44.434  32.209  10.258
 7914W        W79530   7.889  28.697  10.565
 7915W        W79531  19.155  33.632  13.326
 7916W        W79532  25.623  20.996  10.206
 7917W        W79533  25.699   7.915  11.525
 7918W        W79534  28.439  29.864  13.384
 7919W        W79535   6.401   7.984  13.087
 7920W        W79536   1.503  36.886   3.626
 7921W        W79537  42.632  26.649  13.125
 7922W        W79538  39.333  24.979  11.663
 7923W        W79539  43.720   7.110  10.728
 7924W        W79540  18.302   1.786  14.877
 7925W        W79541  44.731  14.049  12.512
 7926W        W79542  39.368  40.545   0.761
 7927W        W79543  26.016  39.820   2.362
 7928W        W79544  41.377  42.362  12.580
 7929W        W79545  36.874  35.916   3.404
 7930W        W79546  24.284  42.046   0.715
 7931W        W79547  13.945  36.079   3.746
 7932W        W79548   1.957  25.554  12.789
 7933W        W79549  14.734   2.917   3.788
 7934W        W79550  23.695  21.464   4.072
 7935W        W79551  26.469  26.575   2.433
 7936W        W79552  12.383  23.592   2.815
 7937W        W79553  31.037  14.672   0.489
 7938W        W79554  25.549  11.132  11.134
 7939W        W79555  34.638  12.320   0.418
 7940W        W79556  30.843  27.585  14.726
 7941W        W79557   1.782  28.543   1.332
 7942W        W79558   0.369  18.612  10.646
 7943W        W79559  12.413  42.434  14.934
 7944W        W79560  25.026  36.627   2.752
 7945W        W79561   4.834  27.573   1.048
 7946W        W79562   1.814  19.127  13.400
 7947W        W79563   0.223  25.544  13.578
 7948W        W79564  26.037  18.988  12.877
 7949W        W79565  35.254   9.106  12.148
 7950W        W79566  16.791  13.054  12.397
 7951W        W79567  34.901  23.943   0.061
 7952W        W79568  23.569  30.343   3.179
 7953W        W79569   7.586  29.590  11.471
 7954W        W79570   5.254  12.379   1.841
 7955W        W79571  39.098  36.495  14.307
 7956W        W79572  28.191   6.070   4.916
 7957W        W79573  21.854   1.260  14.257
 7958W        W79574   8.857   8.816  11.556
 7959W        W79575  26.737   0.418  14.820
 7960W        W79576  10.710  42.838   0.971
 7961W        W79577  12.104  13.742   0.325
 7962W        W79578  43.431   6.810   3.394
 7963W        W79579  17.174  20.299  11.978
 7964W        W79580   9.169  18.692   0.752
 7965W        W79581  36.898  42.437   0.796
 7966W        W79582  16.822  16.271   2.799
 7967W        W79583   9.728  21.549   2.414
 7968W        W79584  10.877   0.931   2.249
 7969W        W79585  37.314  37.873  13.491
 7970W        W79586  29.259  39.487   0.303
 7971W        W79587   3.805   0.516   1.515
 7972W        W79588  36.047   4.738   0.529
 7973W        W79589   4.907  36.444   5.027
 7974W        W79590  40.053  26.466  13.734
 7975W        W79591  23.689   5.314  14.533
 7976W        W79592  18.129  38.059   2.818
 7977W        W79593  44.687   2.664   2.126
 7978W        W79594  30.525   1.699   3.553
 7979W        W79595  31.587  42.560   1.791
 7980W        W79596   6.788  29.112   2.343
 7981W        W79597  29.717  25.900   3.383
 7982W        W79598  32.252  24.615   0.326
 7983W        W79599  33.569  37.994  12.890
 7984W        W79600  28.938  26.142  12.686
 7985W        W79601  29.870  19.719   1.905
 7986W        W79602  38.995  17.305   4.335
 7987W        W79603  27.247  13.307  13.892
 7988W        W79604  16.774  35.808  10.422
 7989W        W79605  26.767  33.592   0.968
 7990W        W79606   5.280  41.604   4.745
 7991W        W79607  21.054  12.819   0.247
 7992W        W79608  24.575  44.810   2.717
 7993W        W79609  34.638  21.193   1.375
 7994W        W79610  24.802  44.722  10.698
 7995W        W79611  33.316  30.029  12.421
 7996W        W79612  38.821  21.728   1.839
 7997W        W79613  18.134  19.521  12.510
 7998W        W79614  41.300  19.805  10.734
 7999W        W79615  11.649   9.741  13.044
 8000W        W79616  26.143  37.354  14.434
 8001W        W79617  18.737   3.321  14.750
 8002W        W79618  10.867  42.648   3.716
 8003W        W79619  28.801   0.649   0.041
 8004W        W79620  40.772  13.879   3.311
 8005W        W79621  36.518  18.092  10.616
 8006W        W79622  35.808   0.912   2.382
 8007W        W79623   1.843  16.357   0.439
 8008W        W79624  16.694   4.894  11.423
 8009W        W79625  38.275   6.314   1.763
 8010W        W79626  25.931  38.560   0.795
 8011W        W79627  30.142  27.660   0.884
 8012W        W79628  42.977  29.616   0.895
 8013W        W79629   3.457   4.961  10.295
 8014W        W79630  25.751   8.662  11.879
 8015W        W79631  29.006  25.188   1.632
 8016W        W79632   8.206  31.382  10.824
 8017W        W79633  33.547   1.701  13.118
 8018W        W79634  16.988   3.329   0.797
 8019W        W79635   7.764   9.434   4.224
 8020W        W79636  42.225  30.724   1.286
 8021W        W79637  39.051  24.108  13.947
 8022W        W79638   9.331  20.548   3.715
 8023W        W79639  28.555  37.408   0.804
 8024W        W79640  40.160   2.829  12.995
 8025W        W79641  24.739  10.239   4.356
 8026W        W79642  21.105  13.244   0.948
 8027W        W79643  21.142  31.071   0.777
 8028W        W79644   5.024  26.689  11.490
 8029W        W79645   9.130  19.021  14.819
 8030W        W79646   5.145  43.337  14.343
 8031W        W79647  16.983  41.947  13.471
 8032W        W79648  33.658  25.230  11.666
 8033W        W79649  12.531  39.285  10.937
 8034W        W79650  44.835  39.060  11.533
 8035W        W79651  26.243  38.465   4.050
 8036W        W79652  16.799   7.236   3.726
 8037W        W79653  30.562  10.772   4.402
 8038W        W79654   6.579  21.193   3.755
 8039W        W79655  22.965  36.746  12.596
 8040W        W79656  21.791   6.393   2.401
 8041W        W79657  40.260  20.520  11.534
 8042W        W79658  12.278  33.634   0.821
 8043W        W79659  35.537  24.626   1.273
 8044W        W79660  29.740  22.792   1.213
 8045W        W79661  15.494  41.205   3.565
 8046W        W79662  21.618  13.595  13.004
 8047W        W79663  42.361  40.435  10.921
 8048W        W79664   0.902  42.487   1.194
 8049W        W79665  10.989  35.058   0.021
 8050W        W79666   4.940   9.306   2.481
 8051W        W79667  31.505  42.609   2.688
 8052W        W79668  15.672  44.309  14.196
 8053W        W79669  34.157   5.944   3.752
 8054W        W79670  30.612   4.070   1.935
 8055W        W79671   9.849   4.142  13.937
 8056W        W79672  29.351  31.059  11.045
 8057W        W79673  21.484  33.325  13.796
 8058W        W79674  30.006   4.433  10.741
 8059W        W79675   4.723  42.164   2.833
 8060W        W79676  39.078  14.638  10.184
 8061W        W79677  24.282  43.452  12.534
 8062W        W79678  26.643  17.561  13.596
 8063W        W79679  25.210  44.872   1.221
 8064W        W79680  14.651  33.950   3.554
 8065W        W79681   9.605  17.262   4.271
 8066W        W79682  29.942   7.448   4.079
 8067W        W79683  43.560   9.223  10.768
 8068W        W79684  10.150  31.104  12.865
 8069W        W79685  12.987  34.527  11.580
 8070W        W79686  19.795  23.581  12.401
 8071W        W79687  15.030   4.691  10.283
 8072W        W79688  25.522  27.069   0.406
 8073W        W79689   6.275  26.963  10.848
 8074W        W79690  21.339  24.473   1.631
 8075W        W79691  27.940  16.615  11.125
 8076W        W79692  34.790  18.003  10.232
 8077W        W79693  24.175  21.617  10.442
 8078W        W79694  19.210  34.264   2.733
 8079W        W79695  37.663  19.569  11.112
 8080W        W79696  27.197  44.022  11.105
 8081W        W79697  42.250   9.785   0.315
 8082W        W79698  22.570  26.381  14.011
 8083W        W79699  32.580  14.457   1.744
 8084W        W79700   4.254   3.114  14.511
 8085W        W79701  22.722  42.821  12.736
 8086W        W79702  29.953   8.384  14.883
 8087W        W79703  29.838  26.169  12.765
 8088W        W79704  39.523  12.706   1.850
 8089W        W79705  40.896  25.395   1.815
 8090W        W79706  40.189  34.960  13.767
 8091W        W79707  23.993   4.667   0.182
 8092W        W79708  13.888  40.948   2.929
 8093W        W79709  15.839  39.070   2.136
 8094W        W79710  15.297  29.390  12.381
 8095W        W79711  40.455  40.098  14.296
 8096W        W79712   1.153  41.565   4.228
 8097W        W79713  30.130  36.564   4.683
 8098W        W79714  11.196  12.373   0.802
 8099W        W79715  27.868  41.102  14.583
 8100W        W79716   3.323  34.545   0.949
 8101W        W79717  23.544  37.876   2.261
 8102W        W79718  30.156  14.495   3.915
 8103W        W79719  43.302  27.496  13.768
 8104W        W79720  34.870  19.002  10.679
 8105W        W79721   4.280  29.445  14.799
 8106W        W79722  24.281  44.478  13.196
 8107W        W79723   6.315   0.503  13.322
 8108W        W79724  25.094  10.170   2.194
 8109W        W79725  20.722  22.259  11.463
 8110W        W79726   2.960   5.121  10.955
 8111W        W79727  17.411  38.750   5.097
 8112W        W79728  12.239  26.710  12.656
 8113W        W79729  33.693  22.123  11.595
 8114W        W79730  17.470  26.514  13.383
 8115W        W79731  24.026  24.767  10.584
 8116W        W79732   2.265  13.737  11.475
 8117W        W79733   9.373  36.898   0.471
 8118W        W79734  25.351   3.857  13.472
 8119W        W79735  12.943  23.454   3.394
 8120W        W79736  32.746  18.580  14.144
 8121W        W79737  38.848  22.750  10.515
 8122W        W79738  14.852  25.718   2.609
 8123W        W79739  23.074  16.399   4.091
 8124W        W79740  37.984  16.774   4.166
 8125W        W79741   4.379  32.354   1.805
 8126W        W79742  28.216  27.342  10.657
 8127W        W79743   8.696  12.306  11.037
 8128W        W79744  27.154  13.226   1.459
 8129W        W79745  22.590   0.745  11.961
 8130W        W79746  24.040  39.574   3.110
 8131W        W79747   3.518   3.298  14.966
 8132W        W79748  39.854  16.865   3.940
 8133W        W79749  26.472  24.307   3.977
 8134W        W79750   4.008  37.506   0.254
 8135W        W79751  21.795  33.179  12.864
 8136W        W79752  26.837  27.662  11.162
 8137W        W79753   9.143  36.858   1.477
 8138W        W79754  43.113  13.280   1.163
 8139W        W79755  13.023   3.480   3.646
 8140W        W79756  16.134  41.388  13.630
 8141W        W79757  33.092   8.278   2.775
 8142W        W79758  11.905  24.105  14.748
 8143W        W79759  41.014   1.354   2.901
 8144W        W79760  38.076   0.573   4.273
 8145W        W79761  25.028  32.802  11.654
 8146W        W79762  25.236  34.880   0.113
 8147W        W79763  25.746   4.441   4.416
 8148W        W79764  35.638  26.154   1.281
 8149W        W79765  18.541  14.621   0.446
 8150W        W79766   1.462   7.713   1.637
 8151W        W79767  25.183  17.678   0.999
 8152W        W79768  16.221  44.811   2.424
 8153W        W79769  14.256  44.956  10.498
 8154W        W79770   3.511  37.338  11.071
 8155W        W79771  18.091  26.404   2.414
 8156W        W79772  13.058  12.965  11.204
 8157W        W79773  13.208  25.884   0.692
 8158W        W79774  23.038  16.113   1.645
 8159W        W79775   8.573  18.251  13.804
 8160W        W79776  22.320  13.186   0.251
 8161W        W79777  31.561  42.468  11.146
 8162W        W79778  10.701  19.288   2.295
 8163W        W79779  18.153  34.024   4.590
 8164W        W79780  17.297  15.090   0.044
 8165W        W79781   0.207  14.665   4.143
 8166W        W79782  38.943  18.520   0.664
 8167W        W79783  20.077   2.332  12.013
 8168W        W79784   6.249   4.796   0.519
 8169W        W79785  28.597  44.802  12.625
 8170W        W79786  43.044  24.127  11.588
 8171W        W79787   4.984   5.809   2.743
 8172W        W79788   4.869   5.065  11.385
 8173W        W79789  37.282   5.702  13.290
 8174W        W79790  38.820  13.347   1.708
 8175W        W79791  32.121  40.385   2.312
 8176W        W79792  27.933  37.976  13.579
 8177W        W79793  43.810   2.810  12.749
 8178W        W79794  12.755   4.758  11.117
 8179W        W79795  11.667  23.593   2.238
 8180W        W79796  18.304   7.961  12.898
 8181W        W79797  44.868  23.503  14.730
 8182W        W79798   5.978   9.649  14.488
 8183W        W79799  37.621  43.185   3.402
 8184W        W79800   4.015  18.368   1.808
 8185W        W79801  33.270  23.120   2.639
 8186W        W79802  17.285  39.522   3.743
 8187W        W79803  37.329  16.132  14.065
 8188W        W79804   4.192  29.113   2.133
 8189W        W79805   1.668  28.117  11.478
 8190W        W79806  43.803   2.213  14.250
 8191W        W79807  16.207  35.587   1.254
 8192W        W79808  17.548  11.662  13.870
 8193W        W79809  37.516  24.127  13.309
 8194W        W79810  12.825   7.879  14.746
 8195W        W79811  41.701  24.199  13.820
 8196W        W79812  15.221  39.845   3.263
 8197W        W79813  30.506  27.059   4.665
 8198W        W79814   9.995   4.324   2.881
 8199W        W79815  39.576  13.714   1.381
 8200W        W79816  42.045   1.963   5.070
 8201W        W79817  26.309  34.422  13.812
 8202W        W79818  27.678  26.547  12.952
 8203W        W79819  19.125  17.705  13.132
 8204W        W79820  44.503  13.746   0.777
 8205W        W79821  17.282  18.024  11.128
 8206W        W79822  35.015  26.250  11.074
 8207W        W79823  17.530  35.403  14.524
 8208W        W79824   5.165  37.920  14.123
 8209W        W79825   5.729  42.495  10.509
 8210W        W79826  37.029  31.231  10.939
 8211W        W79827  19.643  32.123   1.774
 8212W        W79828  42.494  32.134  11.114
 8213W        W79829   7.094   0.019  11.670
 8214W        W79830  10.333  28.499  13.911
 8215W        W79831  29.946  26.023   0.658
 8216W        W79832   1.433  44.508  10.193
 8217W        W79833   5.719  34.348  11.690
 8218W        W79834  25.023  18.103   0.291
 8219W        W79835  21.016  36.596  13.871
 8220W        W79836   2.946  27.563  14.074
 8221W        W79837  17.343  28.704   4.494
 8222W        W79838  39.511  36.505   3.593
 8223W        W79839  26.471  43.470   2.278
 8224W        W79840  36.878  12.306   2.335
 8225W        W79841  32.453  21.279   2.808
 8226W        W79842   0.280  18.166  12.444
 8227W        W79843  42.780  33.889   2.390
 8228W        W79844   4.549  41.523  14.910
 8229W        W79845  30.112  39.545  14.034
 8230W        W79846   4.080  34.023   1.769
 8231W        W79847   8.784  25.237   1.359
 8232W        W79848   4.342  20.279   2.402
 8233W        W79849   3.413   1.964   1.021
 8234W        W79850  31.534   3.851   3.609
 8235W        W79851  34.466  10.316   2.731
 8236W        W79852  15.840  22.227  14.404
 8237W        W79853  12.875  32.326  10.445
 8238W        W79854  28.488  30.133   3.259
 8239W        W79855   4.148  12.996   2.846
 8240W        W79856  39.078  26.739  12.971
 8241W        W79857  29.663   6.482  12.989
 8242W        W79858  28.361  12.680  10.779
 8243W        W79859  15.078  10.836  11.862
 8244W        W79860   9.931  33.749  12.012
 8245W        W79861   4.776  24.609   1.751
 8246W        W79862  15.508  30.441   3.254
 8247W        W79863  39.811  28.959   4.221
 8248W        W79864  12.286  17.534   0.725
 8249W        W79865  33.809  25.578  11.144
 8250W        W79866  31.418  28.355  11.585
 8251W        W79867  11.149  27.536  13.149
 8252W        W79868  34.827  43.441  10.746
 8253W        W79869  15.920  17.096   1.703
 8254W        W79870  28.393  42.779  11.568
 8255W        W79871  39.554  30.426   2.031
 8256W        W79872  28.418   7.143  11.144
 8257W        W79873  36.927  31.706  11.865
 8258W        W79874  17.275  25.421  11.802
 8259W        W79875   0.086  38.346  14.345
 8260W        W79876  19.952  21.137   2.285
 8261W        W79877  21.860  29.878  13.519
 8262W        W79878   4.933  39.877  10.870
 8263W        W79879  34.786   0.837   2.121
 8264W        W79880  44.177  44.269  12.498
 8265W        W79881   8.884   5.129  14.441
 8266W        W79882  34.384  42.443  12.975
 8267W        W79883  38.242  27.410  13.133
 8268W        W79884  33.460   3.695  10.900
 8269W        W79885  43.648  19.427  12.998
 8270W        W79886  25.140  11.294  14.345
 8271W        W79887  27.592  41.012   4.637
 8272W        W79888   8.611  31.148   1.491
 8273W        W79889  17.900  41.838  14.356
 8274W        W79890  20.999  13.271   0.010
 8275W        W79891  20.461  21.453   4.868
 8276W        W79892  19.419  19.295   2.221
 8277W        W79893   6.679  16.202   1.310
 8278W        W79894   9.393   5.813   3.344
 8279W        W79895   8.720   9.434   3.336
 8280W        W79896  23.638   2.096  11.537
 8281W        W79897  26.412  27.685   1.334
 8282W        W79898   0.934  43.807   2.872
 8283W        W79899  31.107  38.327  10.733
 8284W        W79900  38.784  39.508  14.260
 8285W        W79901   8.105  28.085  11.957
 8286W        W79902   0.092  42.979   5.034
 8287W        W79903  44.007  27.590   3.506
 8288W        W79904   2.176  41.383  11.960
 8289W        W79905  16.599  36.424  11.089
 8290W        W79906  41.414  35.825  10.209
 8291W        W79907   9.629   5.331  12.433
 8292W        W79908  42.029   4.732  10.791
 8293W        W79909  37.624  12.860   0.611
 8294W        W79910  12.727  36.609   3.506
 8295W        W79911   8.397  28.482   3.043
 8296W        W79912  19.867  34.946  14.158
 8297W        W79913  14.736  24.463   4.602
 8298W        W79914  13.500   6.530   5.628
 8299W        W79915  10.131  14.119  10.745
 8300W        W79916  34.122   9.088   2.254
 8301W        W79917  41.500   7.810  13.029
 8302W        W79918  14.894  32.937   1.282
 8303W        W79919  34.467   1.299   2.193
 8304W        W79920   1.450   8.602  13.447
 8305W        W79921  10.812  19.074   1.772
 8306W        W79922   8.289  11.299   0.539
 8307W        W79923   1.799  23.981   0.684
 8308W        W79924  32.067  36.404   3.227
 8309W        W79925  31.056  12.065  13.319
 8310W        W79926  37.083  23.435   0.809
 8311W        W79927  20.613   2.356  12.078
 8312W        W79928  33.968  29.806   2.074
 8313W        W79929   7.328  17.533   3.944
 8314W        W79930   4.269  31.123   2.708
 8315W        W79931   4.240   7.838  14.065
 8316W        W79932  39.282  17.311   1.239
 8317W        W79933  35.533  13.845  12.150
 8318W        W79934  25.072  18.317   3.931
 8319W        W79935  44.872  44.526   0.240
 8320W        W79936  24.192   0.725  11.163
 8321W        W79937  21.038   1.254   4.184
 8322W        W79938   8.423   0.528   1.296
 8323W        W79939  11.293  10.377   4.282
 8324W        W79940   3.284  19.271   2.365
 8325W        W79941   2.279  28.171   3.744
 8326W        W79942  37.859  18.058   3.718
 8327W        W79943  37.895  29.938   0.749
 8328W        W79944  44.320  44.786   2.782
 8329W        W79945   7.178  43.472  14.822
 8330W        W79946  30.317  20.662  10.710
 8331W        W79947  21.704  26.934  14.772
 8332W        W79948  36.355   5.639  13.106
 8333W        W79949  24.693  18.656   2.687
 8334W        W79950  38.067  24.125   2.705
 8335W        W79951   5.390  21.773   3.939
 8336W        W79952  41.266  27.530  12.008
 8337W        W79953  36.512  21.096   2.954
 8338W        W79954   4.746  35.968   4.737
 8339W        W79955  17.741  27.698  14.475
 8340W        W79956  39.416  20.052  13.929
 8341W        W79957  15.091  30.676  11.205
 8342W        W79958   2.189   4.051   4.549
 8343W        W79959  14.092  42.410   3.657
 8344W        W79960  32.958  18.742  11.513
 8345W        W79961  30.386   7.814   2.640
 8346W        W79962  28.905  16.017  11.026
 8347W        W79963  10.601   2.180   3.889
 8348W        W79964  38.811  22.616   2.822
 8349W        W79965  34.589  32.570   0.264
 8350W        W79966  11.389   4.183   1.352
 8351W        W79967  33.142  17.189  13.387
 8352W        W79968  30.226  35.780  11.615
 8353W        W79969  21.276   8.793  13.367
 8354W        W79970   8.445  12.293  14.943
 8355W        W79971   7.356  36.845   2.725
 8356W        W79972  38.829   3.282   0.974
 8357W        W79973  10.562  38.135  12.600
 8358W        W79974  11.313  20.272  14.375
 8359W        W79975  20.814  22.037  10.626
 8360W        W79976  41.855  10.948   0.885
 8361W        W79977  42.098  19.626  13.904
 8362W        W79978  13.659  30.407   4.149
 8363W        W79979  27.299  31.656  13.303
 8364W        W79980   7.838  12.760   0.900
 8365W        W79981   3.813  12.561   2.090
 8366W        W79982  24.100  22.243   4.625
 8367W        W79983  21.953  28.892   1.368
 8368W        W79984  13.312  16.320   3.293
 8369W        W79985  16.112  18.888  11.179
 8370W        W79986  31.141  22.171   2.099
 8371W        W79987  10.956  31.329  10.965
 8372W        W79988  36.039   8.464  13.178
 8373W        W79989  20.514   7.579   1.582
 8374W        W79990  41.944  38.566  12.364
 8375W        W79991  15.553   1.392   2.888
 8376W        W79992   8.621  24.789   2.286
 8377W        W79993  10.621  31.581   0.480
 8378W        W79994  40.333  23.078   2.086
 8379W        W79995  15.147  31.381   0.586
 8380W        W79996  27.612  33.300   1.242
 8381W        W79997   9.169  32.018  13.474
 8382W        W79998  18.428   8.428  12.460
 8383W        W79999  10.290  26.132  13.477
 8384W        W80000  30.682  26.450   0.371
 8385W        W80001  31.596  13.709  13.431
 8386W        W80002  18.265  15.660  13.484
 8387W        W80003  17.108   2.467   1.071
 8388W        W80004  44.264  35.582   3.267
 8389W        W80005  21.794  29.983   4.828
 8390W        W80006   4.784  35.327  11.103
 8391W        W80007   6.993  35.561   3.196
 8392W        W80008  36.972  35.303   4.802
 8393W        W80009  23.149  30.075  14.000
 8394W        W80010  34.490  16.727  10.679
 8395W        W80011   3.787  18.311  11.482
 8396W        W80012  42.652  24.425  13.868
 8397W        W80013  36.373  15.077   2.439
 8398W        W80014  23.223   1.038  14.334
 8399W        W80015   3.419  37.391  13.567
 8400W        W80016   3.822  12.757   1.601
 8401W        W80017  23.121   9.655  14.772
 8402W        W80018  43.384  33.114   2.515
 8403W        W80019  40.091  21.631  13.900
 8404W        W80020  35.043   9.696   1.865
 8405W        W80021  43.412  19.628   1.124
 8406W        W80022   8.147  24.508   2.413
 8407W        W80023  14.063  18.250  11.077
 8408W        W80024  23.450  44.011  14.575
 8409W        W80025  28.982  21.924  12.784
 8410W        W80026   8.370  21.451  13.588
 8411W        W80027  36.857   7.859   2.827
 8412W        W80028  23.017   9.278  14.433
 8413W        W80029   9.467  24.145  12.940
 8414W        W80030   1.878   9.621  12.144
 8415W        W80031  36.501  14.790  12.167
 8416W        W80032  10.844  18.352  12.963
 8417W        W80033  30.344  36.710   3.530
 8418W        W80034   3.812  18.030  12.417
 8419W        W80035  41.392   4.468   1.829
 8420W        W80036   9.477  16.739   2.153
 8421W        W80037  27.033  11.237  14.356
 8422W        W80038  41.097  10.235   3.559
 8423W        W80039  17.553   6.838  11.621
 8424W        W80040  28.590  18.741   1.315
 8425W        W80041  20.837  35.405  12.959
 8426W        W80042  24.494   4.247   3.997
 8427W        W80043  15.171  26.589  14.062
 8428W        W80044   3.595  35.182  13.780
 8429W        W80045  19.576  14.339   3.305
 8430W        W80046  19.527  12.670   0.958
 8431W        W80047  25.921  38.065   1.484
 8432W        W80048  41.628  22.851   3.035
 8433W        W80049  38.024  25.841   2.462
 8434W        W80050   4.154  43.308  14.007
 8435W        W80051  27.622  40.141   1.014
 8436W        W80052  29.394  19.004  13.536
 8437W        W80053  40.900  21.662  10.650
 8438W        W80054   1.967   7.946   4.440
 8439W        W80055  20.679  18.005   1.212
 8440W        W80056   3.963  35.349   2.250
 8441W        W80057  14.222  18.501   4.242
 8442W        W80058  21.560  17.986   1.750
 8443W        W80059  24.218  33.101  13.901
 8444W        W80060  22.927  33.554   2.842
 8445W        W80061  37.529   6.804  14.912
 8446W        W80062  18.352  36.078   1.753
 8447W        W80063  23.476  37.393   0.237
 8448W        W80064  20.149  43.581  11.140
 8449W        W80065  17.249  39.334   0.569
 8450W        W80066  14.521   6.238   1.269
 8451W        W80067  41.556  32.482   0.868
 8452W        W80068  19.845  44.378   4.335
 8453W        W80069   8.870   7.335  11.196
 8454W        W80070  35.564  36.206   4.022
 8455W        W80071  36.864  35.977   2.889
 8456W        W80072   4.559  14.580   2.255
 8457W        W80073  43.608  27.905   3.689
 8458W        W80074  43.445  35.807   4.224
 8459W        W80075   2.267  16.062  13.314
 8460W        W80076  23.591  10.182  10.610
 8461W        W80077  34.574  40.533  14.246
 8462W        W80078  20.311  39.768   0.019
 8463W        W80079  39.087   6.752  11.538
 8464W        W80080  24.102  12.292  14.257
 8465W        W80081  10.934  17.705   4.203
 8466W        W80082   2.276  38.370   1.799
 8467W        W80083  35.583  42.025  11.832
 8468W        W80084  16.659   7.347   4.555
 8469W        W80085   7.085   7.812  14.227
 8470W        W80086  39.939  38.778   3.530
 8471W        W80087  37.238  12.739   3.875
 8472W        W80088  14.623   0.473  10.428
 8473W        W80089  37.327  43.239   0.523
 8474W        W80090  32.667   8.771   2.306
 8475W        W80091  36.530  29.467  14.810
 8476W        W80092  24.711  16.817  14.773
 8477W        W80093  24.900   1.071   4.471
 8478W        W80094  27.580  20.704  11.549
 8479W        W80095  26.947   1.863  12.499
 8480W        W80096  26.329  38.905  10.072
 8481W        W80097   7.417  31.543  12.065
 8482W        W80098  15.653  18.036  10.234
 8483W        W80099  38.338  21.272  13.390
 8484W        W80100  36.021   2.229  14.976
 8485W        W80101  16.671   9.783   2.388
 8486W        W80102   3.263  17.748   3.281
 8487W        W80103  17.112  29.185   2.818
 8488W        W80104  25.616  13.552   4.604
 8489W        W80105  31.972  27.625   3.736
 8490W        W80106  42.003  30.203   2.989
 8491W        W80107  10.884  37.818  12.343
 8492W        W80108  40.355  14.861  12.180
 8493W        W80109  26.902  24.339   0.382
 8494W        W80110   0.335  20.944  11.010
 8495W        W80111  16.743  36.557  14.818
 8496W        W80112  39.594  39.986  14.208
 8497W        W80113  17.107  44.467   5.105
 8498W        W80114   6.020  28.081   4.613
 8499W        W80115  33.324  44.268  11.189
 8500W        W80116  13.057  18.605  11.891
 8501W        W80117  15.209  22.789   0.433
 8502W        W80118   5.346  24.570  14.360
 8503W        W80119  13.454  33.847   0.223
 8504W        W80120  31.399  10.759   3.155
 8505W        W80121  32.657  15.788   2.333
 8506W        W80122  17.633  41.312   2.352
 8507W        W80123  39.080  15.805  13.193
 8508W        W80124  30.410   7.184   1.947
 8509W        W80125  37.322  30.725  12.260
 8510W        W80126  24.760  39.726   1.653
 8511W        W80127  20.047   0.914   3.534
 8512W        W80128   5.282  43.313   4.349
 8513W        W80129  14.235  35.491   3.619
 8514W        W80130  12.364  21.666   0.846
 8515W        W80131  10.873  25.673  13.921
 8516W        W80132  14.863  18.171   1.823
 8517W        W80133  31.434  32.966  10.761
 8518W        W80134  34.954  25.233   1.863
 8519W        W80135  15.304   4.021  14.956
 8520W        W80136  29.855  20.811   4.286
 8521W        W80137  40.358   5.284  10.754
 8522W        W80138  24.162  14.093   3.654
 8523W        W80139  16.009   9.168   1.343
 8524W        W80140  25.588   2.032  10.932
 8525W        W80141   9.303  27.776  12.311
 8526W        W80142  15.043  23.194  13.023
 8527W        W80143  17.908  43.489   4.113
 8528W        W80144  43.777  38.572   0.542
 8529W        W80145  43.230   1.838  12.644
 8530W        W80146  19.199  19.642   0.740
 8531W        W80147  18.150  34.676  12.735
 8532W        W80148   8.736   5.692   0.476
 8533W        W80149  29.570  40.529   0.930
 8534W        W80150  37.025  19.214  14.970
 8535W        W80151   9.209  42.304   3.322
 8536W        W80152  44.815  23.633  13.717
 8537W        W80153  13.293  31.700   4.136
 8538W        W80154  20.031   6.705  13.776
 8539W        W80155   1.414  22.513   1.443
 8540W        W80156  15.567  24.747  11.989
 8541W        W80157  12.672  28.742  11.660
 8542W        W80158   5.051  10.711   0.244
 8543W        W80159   0.598  31.573   1.726
 8544W        W80160   1.329  44.458  13.880
 8545W        W80161  43.479  22.686  12.845
 8546W        W80162   9.502  17.550  11.651
 8547W        W80163  36.887  44.508  14.402
 8548W        W80164   3.095  21.507  14.467
 8549W        W80165   5.441   4.179   1.641
 8550W        W80166  15.306  28.249   0.910
 8551W        W80167  37.849  43.933  13.922
 8552W        W80168  15.996  39.802   0.950
 8553W        W80169  44.801  11.072  13.528
 8554W        W80170  19.673  17.996  11.527
 8555W        W80171   2.282   5.287   3.351
 8556W        W80172   2.767   3.805   0.146
 8557W        W80173  13.868  24.194  13.874
 8558W        W80174  17.704   8.339  14.451
 8559W        W80175  36.983  31.978  13.359
 8560W        W80176  25.591  39.979   3.381
 8561W        W80177  22.475   7.852  13.345
 8562W        W80178  13.986  39.012  12.558
 8563W        W80179  32.344   3.784  12.633
 8564W        W80180  41.006  39.551  10.571
 8565W        W80181  36.271  37.491   4.674
 8566W        W80182  11.355  26.181  14.383
 8567W        W80183   4.388  25.183   1.133
 8568W        W80184  19.571  24.902   0.731
 8569W        W80185  42.729  29.134  11.630
 8570W        W80186  38.004  15.044  14.277
 8571W        W80187  32.307  32.649   3.252
 8572W        W80188  44.689  31.592  13.377
 8573W        W80189  29.611   6.634   0.879
 8574W        W80190  19.122  32.002  10.848
 8575W        W80191  19.644  42.208  10.243
 8576W        W80192  36.496   0.196   2.452
 8577W        W80193  13.542   2.358   2.583
 8578W        W80194  44.706  24.633  13.498
 8579W        W80195  28.202  20.067  11.920
 8580W        W80196   2.374  31.644   2.742
 8581W        W80197  27.131   8.484   4.520
 8582W        W80198  21.928  27.592  11.630
 8583W        W80199  30.126  15.661  14.910
 8584W        W80200   6.955  15.144  10.428
 8585W        W80201   4.423  24.457   0.390
 8586W        W80202   4.648  25.434   4.956
 8587W        W80203  12.223  39.006   1.264
 8588W        W80204  30.566  39.502  13.794
 8589W        W80205   7.461  17.265  13.928
 8590W        W80206  10.696  41.258  12.650
 8591W        W80207  44.244   1.736   2.171
 8592W        W80208  22.621  31.700   0.923
 8593W        W80209   8.403  21.574  10.698
 8594W        W80210  32.756  34.648   3.267
 8595W        W80211  42.070  38.963  10.173
 8596W        W80212  11.249  29.068  14.951
 8597W        W80213  22.768  31.375   1.403
 8598W        W80214  44.692  44.485  10.549
 8599W        W80215   5.042  44.565  13.957
 8600W        W80216  39.777  27.965  11.738
 8601W        W80217  12.056  28.314  10.446
 8602W        W80218   0.709  34.028   3.643
 8603W        W80219  41.694  27.262   3.622
 8604W        W80220  11.403  41.602   2.745
 8605W        W80221  17.031  33.850  13.784
 8606W        W80222   7.909  10.822  14.209
 8607W        W80223  42.163   6.511   2.287
 8608W        W80224   2.856  16.074  14.921
 8609W        W80225  19.836  20.665   0.124
 8610W        W80226  34.453  28.663  14.318
 8611W        W80227   5.435  31.074  14.732
 8612W        W80228  39.766  19.762  10.924
 8613W        W80229  22.787  36.537   2.290
 8614W        W80230  26.729   2.204   3.770
 8615W        W80231  10.251  10.788  13.056
 8616W        W80232  42.520   1.562   1.459
 8617W        W80233  19.482  26.517   0.240
 8618W        W80234   5.010  33.378   2.807
 8619W        W80235   3.427   7.348  10.674
 8620W        W80236   8.088  31.893  12.528
 8621W        W80237  11.431  43.500  13.107
 8622W        W80238  25.035  20.553   2.795
 8623W        W80239   0.959  23.888   1.243
 8624W        W80240  44.085   3.042   2.656
 8625W        W80241   7.491  41.521  10.796
 8626W        W80242  31.125   8.248   3.202
 8627W        W80243   2.802  26.514   3.985
 8628W        W80244  32.867  30.517  13.566
 8629W        W80245  19.607  11.727   4.624
 8630W        W80246  36.496  30.663  13.518
 8631W        W80247  34.651  16.712   4.301
 8632W        W80248  15.817  23.579  13.044
 8633W        W80249  26.168  39.779   0.506
 8634W        W80250  12.684  13.371  10.418
 8635W        W80251  15.531  12.179   1.428
 8636W        W80252  25.450  30.561  13.830
 8637W        W80253  38.981   1.964   0.974
 8638W        W80254  30.958   7.717  13.382
 8639W        W80255  21.443  26.107  13.475
 8640W        W80256   6.696  11.062  14.954
 8641W        W80257  44.727  30.705  12.111
 8642W        W80258  24.177  39.771  11.390
 8643W        W80259  28.232  22.564   0.190
 8644W        W80260  11.809   0.460  12.023
 8645W        W80261  13.699  13.914   3.920
 8646W        W80262  39.161  35.925  14.675
 8647W        W80263   6.395   6.312   1.465
 8648W        W80264  33.506  19.537  11.555
 8649W        W80265  43.405   1.433   0.366
 8650W        W80266  16.635  16.637  11.640
 8651W        W80267  24.249   8.412  13.528
 8652W        W80268  26.129  34.461   1.733
 8653W        W80269   7.226  42.432   3.613
 8654W        W80270  37.829   9.650   3.128
 8655W        W80271  18.318   5.191   1.719
 8656W        W80272  22.220  44.814   3.302
 8657W        W80273  20.064  30.948   2.878
 8658W        W80274  24.620  32.535  11.459
 8659W        W80275   6.984  15.452   1.449
 8660W        W80276  41.872  18.719  12.103
 8661W        W80277   8.194  19.909  12.537
 8662W        W80278  35.641   6.889   3.733
 8663W        W80279  37.572   6.251   0.021
 8664W        W80280  43.076  14.189  13.473
 8665W        W80281   7.311   1.445   1.190
 8666W        W80282  11.514  13.210   1.433
 8667W        W80283  12.355   3.401  12.129
 8668W        W80284  24.996   2.462  13.556
 8669W        W80285   6.297  41.538   2.939
 8670W        W80286  12.269  38.139  11.478
 8671W        W80287   3.484  29.605   2.687
 8672W        W80288  32.883  16.853  10.613
 8673W        W80289  17.180  29.211  13.090
 8674W        W80290  13.849   8.750   4.633
 8675W        W80291   0.912  17.313   3.720
 8676W        W80292   4.231  13.086  12.972
 8677W        W80293  32.210  32.502  10.788
 8678W        W80294  22.590  38.037   0.010
 8679W        W80295  37.837  37.831  12.592
 8680W        W80296  36.512   2.287  13.906
 8681W        W80297  39.780  29.403  12.916
 8682W        W80298  43.581   2.398  11.502
 8683W        W80299  13.918   3.186   4.496
 8684W        W80300  15.505  30.744  13.495
 8685W        W80301  31.517  24.720   2.104
 8686W        W80302  42.956   9.517   1.201
 8687W        W80303  10.253   8.283   3.653
 8688W        W80304  41.892  28.714   2.831
 8689W        W80305  37.011   2.416   4.758
 8690W        W80306  15.205  41.012   3.971
 8691W        W80307  14.128  33.173   1.837
 8692W        W80308  22.649  15.808   2.426
 8693W        W80309  29.929   0.804  13.191
 8694W        W80310  17.211  26.033   1.572
 8695W        W80311  31.428   2.691   4.738
 8696W        W80312  19.001  17.672   2.507
 8697W        W80313   9.770  33.425   3.937
 8698W        W80314   2.912  28.879   4.008
 8699W        W80315  24.643  34.076  10.702
 8700W        W80316  43.321  10.865  13.374
 8701W        W80317  37.811  31.447  12.126
 8702W        W80318  41.902  34.765   1.377
 8703W        W80319  21.563   7.409   4.639
 8704W        W80320  28.473   4.373  13.911
 8705W        W80321  20.727  27.586   0.803
 8706W        W80322  24.197  31.867  13.842
 8707W        W80323  36.994   2.458  13.853
 8708W        W80324  27.928  18.543   2.131
 8709W        W80325  19.025  31.496  10.845
 8710W        W80326  43.771  10.269  11.639
 8711W        W80327  12.658  39.986   1.343
 8712W        W80328  38.619  12.664  13.075
 8713W        W80329  33.439  34.094   2.968
 8714W        W80330   1.022  42.182  12.347
 8715W        W80331   7.159   8.166   2.299
 8716W        W80332  16.382  18.138  12.332
 8717W        W80333  27.025  43.983   3.109
 8718W        W80334  22.097  29.427   2.653
 8719W        W80335   9.810   9.425   1.681
 8720W        W80336  38.394   2.142  14.955
 8721W        W80337  36.957  13.382   0.242
 8722W        W80338   8.770  13.853  13.946
 8723W        W80339  22.872  41.837   2.950
 8724W        W80340  35.914  39.252   2.908
 8725W        W80341  34.512  42.240  13.910
 8726W        W80342  16.576  12.910  11.058
 8727W        W80343  37.574  11.030   1.260
 8728W        W80344  14.128  17.651   1.802
 8729W        W80345   9.123  23.462   1.054
 8730W        W80346  38.063  33.006  14.447
 8731W        W80347  42.769   2.761  13.495
 8732W        W80348  19.372   4.815  10.983
 8733W        W80349   3.807  17.571   2.297
 8734W        W80350  13.241  31.374   0.372
 8735W        W80351  28.641  12.259  10.728
 8736W        W80352  14.193   2.521   5.121
 8737W        W80353   0.887  37.044   1.737
 8738W        W80354  17.807  44.844  11.573
 8739W        W80355  32.166  21.203   2.368
 8740W        W80356   2.124  15.544  12.504
 8741W        W80357   0.041  41.315   2.295
 8742W        W80358  25.347  37.293   4.049
 8743W        W80359  25.127  33.656   1.900
 8744W        W80360  20.967  21.558  11.294
 8745W        W80361   0.685   0.820  11.057
 8746W        W80362  12.110  40.864  11.619
 8747W        W80363  21.510  28.152  13.789
 8748W        W80364  21.433   6.767   2.180
 8749W        W80365  23.969  11.903  10.820
 8750W        W80366   1.250   3.281  14.939
 8751W        W80367  44.478  25.415   0.918
 8752W        W80368  21.758  17.369   3.862
 8753W        W80369  33.050   7.538   3.227
 8754W        W80370   1.223   3.490  11.926
 8755W        W80371  38.047   8.022  12.266
 8756W        W80372   0.908  28.561  13.302
 8757W        W80373  16.140  18.755  10.250
 8758W        W80374  14.971   8.678   3.712
 8759W        W80375  16.258  37.045  14.472
 8760W        W80376   8.642   2.827   3.134
 8761W        W80377  41.291  20.730  12.511
 8762W        W80378  39.974  37.002  12.789
 8763W        W80379  44.418  42.460   1.245
 8764W        W80380  11.385  41.859  11.120
 8765W        W80381  41.839   3.766   1.687
 8766W        W80382  17.258  38.096  11.678
 8767W        W80383  16.577  19.278  14.419
 8768W        W80384  35.512  23.826  11.292
 8769W        W80385   4.395  39.341  10.476
 8770W        W80386   9.750  36.664   0.864
 8771W        W80387  23.718   5.838  14.455
 8772W        W80388  27.283  35.866  11.112
 8773W        W80389  42.914  25.725  12.803
 8774W        W80390  31.617  35.320   0.010
 8775W        W80391  23.041  11.237   0.032
 8776W        W80392  11.195  15.628  13.515
 8777W        W80393  19.322  33.448   2.371
 8778W        W80394  42.272  28.006   0.270
 8779W        W80395  18.855  10.254  12.779
 8780W        W80396  34.007  28.553   2.157
 8781W        W80397  16.785  43.416   0.758
 8782W        W80398   4.798  20.258  11.553
 8783W        W80399  11.530  39.007  13.796
 8784W        W80400  37.174  31.690   1.256
 8785W        W80401  32.161  28.581   0.007
 8786W        W80402  28.555  13.116   0.822
 8787W        W80403  36.226  33.991   0.445
 8788W        W80404  13.880  29.442   2.440
 8789W        W80405  32.062  33.179  11.879
 8790W        W80406  19.604  18.503  14.880
 8791W        W80407   7.303  39.535  10.637
 8792W        W80408  28.515  22.685  14.011
 8793W        W80409  20.633  15.609  12.450
 8794W        W80410   4.729   8.838   2.374
 8795W        W80411   7.241  43.791   1.380
 8796W        W80412   2.080   3.330  12.138
 8797W        W80413  20.173  40.088   3.728
 8798W        W80414  43.029   5.372   3.864
 8799W        W80415  10.159  20.533   2.355
 8800W        W80416  35.990  36.547   3.235
 8801W        W80417  25.531   5.927  11.031
 8802W        W80418  29.503  44.298  10.551
 8803W        W80419  25.622  36.092  13.584
 8804W        W80420   0.480  18.689  14.361
 8805W        W80421  17.598  41.772   4.702
 8806W        W80422   9.338   5.409   4.218
 8807W        W80423  10.267   1.387  10.159
 8808W        W80424   5.719  30.625  10.615
 8809W        W80425  43.248   3.851   0.787
 8810W        W80426  12.366  17.830  10.690
 8811W        W80427  17.285  43.494  13.976
 8812W        W80428  38.920  39.612  11.659
 8813W        W80429  11.838  39.396   4.674
 8814W        W80430  13.896   7.326   1.885
 8815W        W80431  32.858  18.791   3.842
 8816W        W80432  35.893  36.061   3.333
 8817W        W80433  14.847  16.859   0.998
 8818W        W80434  40.915  12.223   1.878
 8819W        W80435  10.942  21.585   3.794
 8820W        W80436  18.631  42.860   0.820
 8821W        W80437  22.806  13.274   3.798
 8822W        W80438   7.934  20.050   1.404
 8823W        W80439  29.396  40.312   1.384
 8824W        W80440  10.601  20.784   2.321
 8825W        W80441  14.888   0.336   3.704
 8826W        W80442   6.203  24.531  13.302
 8827W        W80443  31.226  30.087   4.997
 8828W        W80444  21.617  37.810   0.894
 8829W        W80445  43.608  38.070   1.964
 8830W        W80446   7.326  39.427  14.092
 8831W        W80447  19.680  18.985   1.906
 8832W        W80448  26.262  20.668  14.518
 8833W        W80449   2.855  21.775   3.780
 8834W        W80450  44.060  34.610   2.169
 8835W        W80451  21.419  40.037  13.875
 8836W        W80452  29.441  41.394  14.559
 8837W        W80453  14.747  22.286  14.811
 8838W        W80454  34.248  16.473  13.471
 8839W        W80455  36.060  37.401  14.054
 8840W        W80456  42.181  44.003   2.196
 8841W        W80457  21.117  26.230  13.849
 8842W        W80458  44.260   4.175   2.839
 8843W        W80459  37.530   5.741  10.617
 8844W        W80460   2.281  40.465   0.787
 8845W        W80461   2.608  43.357   1.349
 8846W        W80462  19.906  32.011   2.851
 8847W        W80463  10.819  29.023  11.660
 8848W        W80464   9.554  24.783   3.630
 8849W        W80465  21.953  29.924  12.971
 8850W        W80466  18.859  27.894   3.320
 8851W        W80467  40.059  31.517  11.889
 8852W        W80468  19.256  22.098   0.104
 8853W        W80469  28.163  19.766   2.342
 8854W        W80470   8.683  29.448   4.578
 8855W        W80471  37.151  41.281  11.092
 8856W        W80472  30.466  19.847  11.117
 8857W        W80473  30.380  25.981  12.615
 8858W        W80474  42.747  22.914  10.917
 8859W        W80475   4.426  21.181  14.597
 8860W        W80476  10.415  17.110   5.161
 8861W        W80477   6.313  30.622  12.829
 8862W        W80478  39.043  15.311  13.434
 8863W        W80479  27.264  18.666   1.380
 8864W        W80480  43.859  28.013   3.233
 8865W        W80481  14.582  19.209   4.607
 8866W        W80482   8.060   9.093   3.521
 8867W        W80483  18.771   7.705  10.685
 8868W        W80484  31.071  21.317  14.444
 8869W        W80485  25.969  10.256   3.828
 8870W        W80486  13.476  12.012  13.542
 8871W        W80487   5.704   6.753   3.578
 8872W        W80488  30.124   4.363   1.701
 8873W        W80489  13.635  10.297   2.601
 8874W        W80490   0.531   4.453  13.830
 8875W        W80491  42.361   3.947  11.142
 8876W        W80492  32.753  42.024  14.683
 8877W        W80493  19.643   2.994   1.900
 8878W        W80494  16.702  22.742  11.871
 8879W        W80495  37.975   5.878   1.718
 8880W        W80496   0.130  30.796   4.521
 8881W        W80497  21.040   2.705   2.307
 8882W        W80498  20.247   3.922  13.052
 8883W        W80499  12.326  38.974  11.422
 8884W        W80500  39.854  23.660   0.789
 8885W        W80501  36.117  43.071  14.795
 8886W        W80502  20.629  19.006  12.422
 8887W        W80503  25.769  23.247   0.457
 8888W        W80504  43.935   0.264  14.370
 8889W        W80505  10.368  32.333   3.282
 8890W        W80506   4.954  32.953   0.596
 8891W        W80507  30.350  33.817  14.413
 8892W        W80508  33.610  37.858   4.557
 8893W        W80509   3.244   2.822   0.836
 8894W        W80510  13.560  41.380  11.092
 8895W        W80511   4.007  16.314  13.566
 8896W        W80512  24.590  29.702  13.351
 8897W        W80513  16.642  31.502   4.856
 8898W        W80514  31.873  32.923   0.007
 8899W        W80515  25.018  17.560  11.236
 8900W        W80516  25.773  22.214  14.407
 8901W        W80517   2.779  35.890   2.413
 8902W        W80518  18.822  27.489   1.981
 8903W        W80519  33.536  31.090   3.527
 8904W        W80520  27.787  24.868  11.083
 8905W        W80521   4.214  30.862   4.146
 8906W        W80522  43.018   3.127   1.177
 8907W        W80523   8.095  27.900   4.649
 8908W        W80524  13.791  30.132  13.790
 8909W        W80525  19.978  16.790  13.051
 8910W        W80526  31.712  41.980   0.033
 8911W        W80527   1.842  28.149   4.693
 8912W        W80528  20.761  35.891   3.666
 8913W        W80529  15.238  17.822  11.391
 8914W        W80530  21.033  30.463   3.760
 8915W        W80531  15.550  39.108  13.323
 8916W        W80532  40.584  13.697  13.889
 8917W        W80533  36.738  12.732   2.076
 8918W        W80534  31.386  31.295   3.684
 8919W        W80535  10.108  42.252   4.166
 8920W        W80536  13.461  15.196  11.133
 8921W        W80537  39.872  35.295   2.344
 8922W        W80538   1.027  24.037  13.867
 8923W        W80539   4.407  10.248  14.277
 8924W        W80540  40.653   3.749  14.610
 8925W        W80541  22.249  34.479   4.307
 8926W        W80542  27.744  19.253  11.563
 8927W        W80543   5.996  10.765  11.110
 8928W        W80544   0.371   7.421   1.432
 8929W        W80545  16.343  39.353  12.439
 8930W        W80546   5.840  19.762   0.402
 8931W        W80547   4.646  21.235  14.126
 8932W        W80548  41.289  44.465   3.286
 8933W        W80549  40.707  16.082  11.928
 8934W        W80550  11.444   9.816  10.560
 8935W        W80551   2.405  42.308   1.379
 8936W        W80552  25.603  36.162   1.323
 8937W        W80553  16.359  25.913   2.138
 8938W        W80554  26.559   9.333  14.019
 8939W        W80555  35.104  21.118  11.106
 8940W        W80556  30.166  33.867   1.226
 8941W        W80557  29.096  26.607  13.596
 8942W        W80558  12.364  39.295  12.209
 8943W        W80559  13.609  20.579   1.297
 8944W        W80560  18.847  25.583  13.465
 8945W        W80561  28.975  44.037  12.093
 8946W        W80562  39.774  22.216   4.933
 8947W        W80563  26.895  44.786   0.987
 8948W        W80564  37.073  12.566  11.214
 8949W        W80565  37.174  36.612  13.041
 8950W        W80566  27.180   7.610  13.907
 8951W        W80567  37.500  30.166   3.780
 8952W        W80568   9.318  11.106   0.829
 8953W        W80569  16.804  38.899   3.324
 8954W        W80570  20.014  44.468   2.642
 8955W        W80571  26.499  41.842   0.283
 8956W        W80572  24.670  30.614  12.272
 8957W        W80573  21.189  26.376   2.861
 8958W        W80574  38.806   1.082  11.636
 8959W        W80575   0.902  12.501   1.687
 8960W        W80576  34.955  44.874   1.263
 8961W        W80577   5.625  13.286   1.772
 8962W        W80578  13.008  15.223  12.814
 8963W        W80579  36.548   7.875   1.495
 8964W        W80580  14.770  44.719  13.161
 8965W        W80581   6.779  43.405   2.666
 8966W        W80582  40.350  23.687  14.906
 8967W        W80583  21.768  38.331   0.906
 8968W        W80584  29.003  32.419  12.190
 8969W        W80585  42.977   0.390  10.683
 8970W        W80586  11.855  24.733  14.130
 8971W        W80587  16.006  27.150  11.275
 8972W        W80588  21.181  43.555   2.704
 8973W        W80589  28.473   8.822  12.749
 8974W        W80590  37.441  10.714   3.739
 8975W        W80591  23.551   9.694   4.152
 8976W        W80592  40.501   7.974  12.090
 8977W        W80593  33.050  44.683  12.748
 8978W        W80594  34.227  32.029  13.346
 8979W        W80595   9.298  14.253   4.079
 8980W        W80596  39.818  20.059   2.182
 8981W        W80597  34.343  32.053   5.095
 8982W        W80598  24.241  23.528  11.603
 8983W        W80599  42.430  10.167   4.163
 8984W        W80600  43.858   9.388  14.511
 8985W        W80601   0.019  17.299  13.965
 8986W        W80602  29.641  13.258  13.799
 8987W        W80603  17.176  27.725   0.696
 8988W        W80604   3.979  11.864   3.637
 8989W        W80605  18.512  39.072   0.758
 8990W        W80606  12.098  41.267   4.582
 8991W        W80607  22.332  10.946   0.868
 8992W        W80608   1.330  41.444  13.794
 8993W        W80609  23.479  20.543  14.941
 8994W        W80610  32.722  35.840  13.320
 8995W        W80611  43.327  29.708  11.947
 8996W        W80612  38.833  37.499   2.945
 8997W        W80613  26.991   5.879  12.430
 8998W        W80614  11.938  14.531  10.741
 8999W        W80615   7.552  27.639  10.429
 9000W        W80616  24.552   4.783  12.014
 9001W        W80617  12.386  18.237  14.491
 9002W        W80618  43.900  36.558  14.355
 9003W        W80619  29.729  20.271   2.711
 9004W        W80620  25.948  28.354  12.600
 9005W        W80621   1.839   6.491  12.058
 9006W        W80622  22.157  11.194   3.602
 9007W        W80623   5.191  19.172  12.042
 9008W        W80624  20.609   3.424  12.555
 9009W        W80625  13.084  10.634   2.247
 9010W        W80626  20.728   4.145   1.433
 9011W        W80627   7.269  17.604   4.663
 9012W        W80628  16.751  28.427  14.072
 9013W        W80629  23.184  11.272   0.538
 9014W        W80630  44.912  14.553  12.499
 9015W        W80631  37.088  24.839   4.713
 9016W        W80632  10.978  24.787  12.010
 9017W        W80633  30.832  33.467  14.456
 9018W        W80634  41.882  19.561  13.424
 9019W        W80635  13.881  11.292   1.036
 9020W        W80636   2.410  34.717  11.777
 9021W        W80637  17.203  25.607   4.846
 9022W        W80638  15.170   2.063   3.078
 9023W        W80639  40.834  29.455  13.792
 9024W        W80640  23.677  23.967  10.437
 9025W        W80641  16.524   3.837   4.571
 9026W        W80642  20.495  21.724   1.898
 9027W        W80643  15.303  26.367   3.044
 9028W        W80644  28.473   5.398   4.424
 9029W        W80645  44.210  43.706  13.132
 9030W        W80646  12.853  14.953   4.167
 9031W        W80647   0.822   3.857   1.800
 9032W        W80648  24.525   3.459  13.411
 9033W        W80649  37.392  40.489   4.633
 9034W        W80650  13.242  31.906   3.290
 9035W        W80651  14.047  11.856  14.878
 9036W        W80652  20.163  18.058   0.026
 9037W        W80653  20.334   1.054  12.959
 9038W        W80654  18.237  10.325   1.743
 9039W        W80655  10.068  21.253   3.632
 9040W        W80656  39.474  22.421  12.391
 9041W        W80657  22.530  19.540  11.659
 9042W        W80658  28.490  24.545  10.686
 9043W        W80659  38.563  41.278  11.054
 9044W        W80660  37.565  23.672   0.464
 9045W        W80661  16.412  13.923   1.707
 9046W        W80662  25.830  10.161   1.725
 9047W        W80663  44.780   2.872   3.881
 9048W        W80664  30.367  23.329   3.825
 9049W        W80665  18.359  35.197  14.730
 9050W        W80666  20.960  15.710   0.707
 9051W        W80667  11.342   1.707  11.008
 9052W        W80668  42.264   4.186   3.442
 9053W        W80669   2.672   5.486   1.874
 9054W        W80670  32.712  19.250  14.862
 9055W        W80671  26.281  43.987  11.113
 9056W        W80672   1.409  40.916  12.084
 9057W        W80673  40.574  18.215   1.673
 9058W        W80674   8.906  11.602  12.026
 9059W        W80675  21.473  20.128   3.268
 9060W        W80676  18.552  32.506  12.010
 9061W        W80677  42.018  32.635  12.975
 9062W        W80678   2.189  15.661  11.596
 9063W        W80679  15.470  42.567   4.019
 9064W        W80680  20.591  29.911   0.389
 9065W        W80681  33.053   1.981   1.330
 9066W        W80682  23.761  16.550  14.630
 9067W        W80683  32.520  32.461  11.655
 9068W        W80684  12.334  14.715  11.037
 9069W        W80685  16.121  17.040  11.099
 9070W        W80686  27.082  34.522  10.719
 9071W        W80687  35.493  18.282   3.115
 9072W        W80688   5.751  28.074  10.977
 9073W        W80689  21.668  24.066   1.723
 9074W        W80690  25.230   2.176  11.791
 9075W        W80691  32.990  41.931   1.689
 9076W        W80692   0.406  44.267   4.934
 9077W        W80693  28.419  40.507   0.506
 9078W        W80694  38.146  12.206  13.727
 9079W        W80695  23.611   7.189  14.097
 9080W        W80696   9.093  29.935  13.995
 9081W        W80697  44.555  34.235  14.751
 9082W        W80698  35.352  13.051  13.914
 9083W        W80699  39.331  10.353  13.802
 9084W        W80700   9.417  23.943  13.734
 9085W        W80701  34.791  37.073   1.342
 9086W        W80702  28.856  30.506   0.311
 9087W        W80703  24.213  24.297   4.046
 9088W        W80704  24.037   6.637  11.908
 9089W        W80705  43.847  24.516  11.619
 9090W        W80706  13.735  29.845  11.507
 9091W        W80707   5.462  22.995   2.293
 9092W        W80708  44.247  30.368  12.224
 9093W        W80709  41.065  10.762  13.029
 9094W        W80710  27.058  36.339   1.847
 9095W        W80711  36.008   4.910   4.324
 9096W        W80712  24.639  17.636  11.913
 9097W        W80713  44.915  10.147   4.728
 9098W        W80714   3.906  36.911   2.445
 9099W        W80715   9.770  35.877   2.872
 9100W        W80716  16.563  10.998   0.308
 9101W        W80717   7.656  31.607   4.408
 9102W        W80718  29.614  11.920   2.731
 9103W        W80719   0.894   9.315  12.941
 9104W        W80720  36.047  44.060  12.445
 9105W        W80721  20.487  27.561  12.018
 9106W        W80722  16.479  11.681  13.848
 9107W        W80723  15.388   6.314  11.829
 9108W        W80724  29.491  15.618  11.404
 9109W        W80725  26.071  42.081  11.188
 9110W        W80726  35.340  44.294   4.103
 9111W        W80727  17.552  43.145  14.228
 9112W        W80728  30.498  12.029   1.834
 9113W        W80729  20.672  11.907  14.519
 9114W        W80730  16.602  11.572  10.360
 9115W        W80731  12.742  33.383  12.060
 9116W        W80732  35.572   0.250   0.895
 9117W        W80733  24.061   8.902   0.400
 9118W        W80734  38.351  41.781  14.709
 9119W        W80735  42.372  37.819  12.421
 9120W        W80736  21.116  21.206  10.774
 9121W        W80737   1.275  33.973   4.861
 9122W        W80738  44.788  34.521   2.813
 9123W        W80739  11.199  29.947  14.107
 9124W        W80740  40.306  33.350  10.653
 9125W        W80741  11.798  19.817  11.707
 9126W        W80742   7.769  18.706  13.120
 9127W        W80743   6.722  29.750   1.219
 9128W        W80744   4.928   2.391  13.481
 9129W        W80745   3.025  21.324   4.705
 9130W        W80746   2.435  42.301   2.324
 9131W        W80747  44.066   5.953   3.121
 9132W        W80748   4.861  38.094   0.303
 9133W        W80749   9.437   4.812  12.459
 9134W        W80750  19.826  41.875   2.732
 9135W        W80751  38.718  28.669  11.088
 9136W        W80752   7.103  29.595  10.794
 9137W        W80753  16.752  13.123  13.794
 9138W        W80754  40.334  38.576  12.881
 9139W        W80755   1.273  15.854   1.944
 9140W        W80756   7.867   4.024  12.337
 9141W        W80757  36.586   5.657  14.912
 9142W        W80758  17.645  16.557  12.879
 9143W        W80759  11.088  36.660   1.806
 9144W        W80760  16.782  21.117  10.645
 9145W        W80761  36.418   1.577  13.426
 9146W        W80762  44.176   5.419   3.156
 9147W        W80763  28.847   2.558  11.087
 9148W        W80764  24.607  12.660  10.760
 9149W        W80765  28.145  16.558   3.322
 9150W        W80766   9.424  32.168  11.539
 9151W        W80767  30.597  26.301   0.862
 9152W        W80768  21.441   8.613  12.887
 9153W        W80769  40.788  24.636  14.895
 9154W        W80770  22.214  22.605   4.640
 9155W        W80771  23.677  44.742   2.767
 9156W        W80772  42.800  44.694  11.361
 9157W        W80773   1.324  19.586  14.818
 9158W        W80774   5.825  34.954   0.517
 9159W        W80775   0.077  41.112   4.644
 9160W        W80776  10.784   4.600  12.779
 9161W        W80777  31.997  32.432  14.185
 9162W        W80778   7.264   6.014   2.350
 9163W        W80779  31.489  13.205  13.702
 9164W        W80780  35.038  35.374   0.427
 9165W        W80781  19.009  10.633  14.430
 9166W        W80782  32.941  18.183  14.824
 9167W        W80783  12.110  19.989   4.490
 9168W        W80784  22.446  17.515  13.414
 9169W        W80785  36.447  38.252  11.989
 9170W        W80786  14.682  25.438  14.217
 9171W        W80787   5.885  13.160   1.296
 9172W        W80788   5.306  43.390  11.830
 9173W        W80789  30.846   5.365   4.189
 9174W        W80790   7.824  39.416  12.624
 9175W        W80791  26.936  26.177  14.768
 9176W        W80792  10.749   5.437   4.855
 9177W        W80793  17.241  12.728  11.660
 9178W        W80794   7.787   0.794   1.796
 9179W        W80795   2.319  21.834  12.021
 9180W        W80796  22.293  21.148   3.751
 9181W        W80797  36.807  40.443  12.075
 9182W        W80798  17.126  43.285   4.410
 9183W        W80799  13.087  13.496  11.333
 9184W        W80800  20.144  26.021   4.449
 9185W        W80801  17.467  12.633  14.271
 9186W        W80802  31.566  44.724   2.380
 9187W        W80803  42.370   7.997   0.472
 9188W        W80804  17.341   7.994  14.299
 9189W        W80805  41.816  36.129   5.020
 9190W        W80806  40.326  26.240   4.070
 9191W        W80807   2.990  42.442   3.553
 9192W        W80808   3.743  11.728  10.152
 9193W        W80809  33.926  28.102   2.427
 9194W        W80810  27.163  16.586  11.606
 9195W        W80811  24.934  27.440   2.827
 9196W        W80812   6.282  22.163   4.830
 9197W        W80813  23.756  11.241  13.753
 9198W        W80814   1.250  11.370  12.062
 9199W        W80815   3.264  29.655  13.085
 9200W        W80816  43.192  24.704   3.336
 9201W        W80817  35.407  28.974  14.768
 9202W        W80818   6.810  11.228  11.614
 9203W        W80819  28.669  36.989  11.518
 9204W        W80820   9.180  27.673  10.657
 9205W        W80821   7.685  14.264   1.767
 9206W        W80822  17.529  30.240   1.378
 9207W        W80823  31.331   1.224  12.911
 9208W        W80824  39.688  15.174  11.145
 9209W        W80825  41.413  26.959   0.769
 9210W        W80826   6.797   8.276  12.925
 9211W        W80827  13.369  28.082   2.407
 9212W        W80828   1.474  32.662   4.203
 9213W        W80829  33.027  10.119   0.796
 9214W        W80830   6.566   7.807  12.226
 9215W        W80831   4.328  24.050   3.257
 9216W        W80832  17.638  38.929  12.818
 9217W        W80833  44.919  42.530  11.852
 9218W        W80834  37.809   7.417  14.517
 9219W        W80835  42.750  15.632  10.740
 9220W        W80836  23.054  38.917   1.816
 9221W        W80837   8.666  26.431   4.198
 9222W        W80838  13.990  22.634   4.480
 9223W        W80839  14.196   1.942   2.216
 9224W        W80840   1.755   9.000   2.006
 9225W        W80841  25.124  33.939   0.298
 9226W        W80842   6.857  32.860  10.522
 9227W        W80843  33.132   1.932  10.148
 9228W        W80844   4.743   1.069  14.887
 9229W        W80845   6.710  30.377  12.632
 9230W        W80846  20.096  14.309  10.613
 9231W        W80847   8.604  44.204  13.334
 9232W        W80848  40.365  26.443   4.521
 9233W        W80849  27.982   3.298  13.950
 9234W        W80850   2.873   7.562   4.654
 9235W        W80851   2.367  41.002   3.641
 9236W        W80852   0.553   0.624   2.265
 9237W        W80853  41.323  38.524  10.631
 9238W        W80854  11.743  38.274   0.928
 9239W        W80855  11.643  13.277   0.035
 9240W        W80856  23.065  26.213   3.217
 9241W        W80857   6.433  13.475   4.155
 9242W        W80858  12.676  41.783  10.617
 9243W        W80859   9.897  31.982  13.872
 9244W        W80860  16.350   6.279   4.962
 9245W        W80861  17.622  27.567  11.876
 9246W        W80862  31.312  30.898  14.304
 9247W        W80863  38.582  39.897   1.389
 9248W        W80864  16.700  29.724   2.317
 9249W        W80865  40.609   4.645   4.637
 9250W        W80866  13.829  21.016   4.951
 9251W        W80867  39.944  41.300  12.182
 9252W        W80868  38.329   3.711  12.500
 9253W        W80869   9.560  35.185  10.865
 9254W        W80870  20.166  36.445   5.032
 9255W        W80871  18.695  30.459  12.258
 9256W        W80872  16.264  30.131   4.387
 9257W        W80873  42.979   3.658   1.272
 9258W        W80874  30.365  14.138   4.227
 9259W        W80875  37.013  30.121   1.312
 9260W        W80876  15.157  11.933   1.772
 9261W        W80877  21.037  27.143  10.975
 9262W        W80878  28.459  38.686  13.535
 9263W        W80879  42.830  27.200   0.776
 9264W        W80880  33.111  16.460   3.113
 9265W        W80881  21.894  44.093  12.044
 9266W        W80882  11.826  29.487   0.702
 9267W        W80883  14.132  37.461  12.084
 9268W        W80884  39.509  38.108   2.769
 9269W        W80885  22.891   8.883  10.583
 9270W        W80886  43.885  34.059  13.601
 9271W        W80887  12.904  20.093   4.267
 9272W        W80888   8.328  19.186   4.555
 9273W        W80889  11.902   7.458  13.981
 9274W        W80890  31.508  10.054  14.154
 9275W        W80891  32.232  40.709   1.023
 9276W        W80892  10.760  33.963   0.382
 9277W        W80893   5.813   7.339  11.316
 9278W        W80894  43.134  35.347  14.628
 9279W        W80895  20.600   3.949   3.182
 9280W        W80896  23.654  10.597   4.683
 9281W        W80897   1.577  38.092   4.336
 9282W        W80898   9.002  13.294  12.132
 9283W        W80899  20.769  13.697  13.320
 9284W        W80900  44.232  15.854  13.024
 9285W        W80901  44.377  13.114  14.396
 9286W        W80902   8.687  41.047   2.703
 9287W        W80903  20.665  25.470   2.179
 9288W        W80904  40.206  12.831   4.553
 9289W        W80905   5.565   0.859  13.531
 9290W        W80906  36.383  10.436   0.868
 9291W        W80907  27.043  39.827  14.430
 9292W        W80908  44.572  41.470  13.128
 9293W        W80909  21.217  31.059  12.868
 9294W        W80910  15.766  38.538  14.438
 9295W        W80911  38.895  31.262  11.414
 9296W        W80912  22.115  22.788  14.290
 9297W        W80913  23.788   1.866  10.351
 9298W        W80914  30.932  30.601  11.492
 9299W        W80915  32.858   4.224   1.404
 9300W        W80916  23.429  38.219  13.973
 9301W        W80917  11.084  33.971   3.585
 9302W        W80918  10.702  19.784   1.457
 9303W        W80919  10.676  18.320  11.646
 9304W        W80920   4.054   6.441  14.568
 9305W        W80921  23.070  29.024   4.410
 9306W        W80922  11.311  32.135   1.310
 9307W        W80923  20.467  10.493  14.461
 9308W        W80924  22.838  21.692  10.727
 9309W        W80925   5.574  43.599   2.240
 9310W        W80926  36.447   7.198   1.857
 9311W        W80927   3.763  24.498   4.162
 9312W        W80928  22.217  17.049   0.428
 9313W        W80929  14.385  12.539  10.818
 9314W        W80930  22.844  36.304  10.629
 9315W        W80931   4.745  37.396   1.972
 9316W        W80932  18.048   6.181  13.295
 9317W        W80933  40.616   8.358   0.942
 9318W        W80934  14.088   7.613  11.334
 9319W        W80935  19.530  41.014  12.457
 9320W        W80936  31.935  43.951  13.716
 9321W        W80937   8.791  42.545  11.512
 9322W        W80938  35.974  22.125   0.203
 9323W        W80939  21.697  18.589   3.581
 9324W        W80940  35.958   4.281   0.744
 9325W        W80941   4.821  35.794   2.717
 9326W        W80942  19.589  27.162   2.896
 9327W        W80943  43.494  29.430   2.742
 9328W        W80944   2.722   2.827   4.749
 9329W        W80945  20.741  31.108  12.625
 9330W        W80946  21.263  35.010   1.332
 9331W        W80947  28.189  19.155   1.314
 9332W        W80948   7.712  29.611  13.916
 9333W        W80949  21.352   9.877   1.061
 9334W        W80950  29.652   1.695  14.820
 9335W        W80951  43.817  12.909   2.326
 9336W        W80952  16.768  36.493   2.162
 9337W        W80953  12.317   0.032   4.242
 9338W        W80954  41.245   3.516  13.633
 9339W        W80955  30.873  35.064   5.114
 9340W        W80956   5.225  13.366   3.920
 9341W        W80957   7.860  26.114   1.330
 9342W        W80958  14.822  15.744  14.910
 9343W        W80959   6.788   7.506   2.947
 9344W        W80960  19.256  42.462   9.964
 9345W        W80961  27.004  23.318   4.584
 9346W        W80962  13.571  29.902   4.140
 9347W        W80963  14.256  29.965  11.494
 9348W        W80964  38.540  26.225   4.158
 9349W        W80965  30.838  29.392  14.349
 9350W        W80966  32.435  21.760   3.628
 9351W        W80967  34.311   6.971   3.188
 9352W        W80968   0.478  38.498   1.425
 9353W        W80969  31.579  42.307   3.567
 9354W        W80970  26.552  15.270   3.399
 9355W        W80971  18.810  26.718   2.925
 9356W        W80972  41.619  24.137  11.455
 9357W        W80973  37.261   8.095   3.690
 9358W        W80974   1.359  30.190   0.987
 9359W        W80975  32.744  37.353   2.917
 9360W        W80976  26.635  44.694  13.400
 9361W        W80977  13.195   7.338   3.640
 9362W        W80978  27.920  42.923   2.862
 9363W        W80979  41.422  20.301  10.683
 9364W        W80980  35.138   6.998   0.738
 9365W        W80981  43.863   7.124   2.735
 9366W        W80982  40.502  32.295   4.993
 9367W        W80983  20.064  10.323  12.850
 9368W        W80984   4.967   0.190   5.448
 9369W        W80985  28.422  37.866  13.464
 9370W        W80986   1.965  34.937   3.030
 9371W        W80987   6.849  33.310  14.392
 9372W        W80988  12.293  12.739   3.636
 9373W        W80989   3.260  16.669   1.929
 9374W        W80990  41.383  38.780   0.177
 9375W        W80991   4.782   8.411  14.483
 9376W        W80992  44.460  33.398   2.431
 9377W        W80993  26.126   9.882  12.437
 9378W        W80994  30.489  17.991  14.145
 9379W        W80995   6.731  36.792   3.696
 9380W        W80996  12.679  30.057  12.959
 9381W        W80997  28.610  37.066   4.668
 9382W        W80998  19.808  38.988   5.193
 9383W        W80999  25.476   7.601   0.331
 9384W        W81000  43.276   4.221   1.514
 9385W        W81001  14.262  18.272   0.377
 9386W        W81002  31.868  41.924  13.317
 9387W        W81003  17.723   4.848   0.265
 9388W        W81004  41.227  36.072   0.335
 9389W        W81005   9.255   0.872   2.159
 9390W        W81006  24.077  18.025  10.866
 9391W        W81007  13.340  22.290   0.891
 9392W        W81008  39.214   4.166   2.748
 9393W        W81009   5.018   2.963   1.315
 9394W        W81010  12.400  10.706  13.791
 9395W        W81011  16.966  35.866  12.990
 9396W        W81012   1.448  18.303  13.516
 9397W        W81013  29.959  42.763   1.860
 9398W        W81014  42.125  34.066   3.377
 9399W        W81015   0.992  13.749   1.186
 9400W        W81016  41.971  12.479   2.218
 9401W        W81017  39.458  25.061  13.797
 9402W        W81018  39.940  22.521  11.066
 9403W        W81019  38.075  36.995  12.731
 9404W        W81020  11.221  41.417  11.896
 9405W        W81021   6.590  18.029  12.089
 9406W        W81022  18.160  24.698   0.219
 9407W        W81023  29.559  10.556   2.381
 9408W        W81024  25.408  28.722   0.764
 9409W        W81025  27.743   2.556   1.966
 9410W        W81026  26.575  30.654   0.233
 9411W        W81027  43.064  10.654  13.814
 9412W        W81028  14.097  22.257   2.219
 9413W        W81029  27.069  42.582   4.170
 9414W        W81030  44.333  17.946  11.643
 9415W        W81031  15.711   3.255  14.268
 9416W        W81032  39.074  25.150  11.249
 9417W        W81033  28.737  23.246  12.457
 9418W        W81034  12.803  40.959   3.686
 9419W        W81035   6.624   6.852   3.172
 9420W        W81036  44.303  21.061   2.579
 9421W        W81037  27.041  37.568   1.945
 9422W        W81038  36.466  25.227  11.377
 9423W        W81039  22.150  28.655   3.128
 9424W        W81040  35.125  39.591   1.828
 9425W        W81041  31.569  16.786  11.037
 9426W        W81042   6.795  17.080   2.646
 9427W        W81043  17.339  33.729  13.402
 9428W        W81044  44.806  19.787  13.006
 9429W        W81045   4.971  29.734  13.553
 9430W        W81046  31.965  19.511   2.215
 9431W        W81047  30.644  34.616  10.814
 9432W        W81048  14.100  28.628   2.213
 9433W        W81049  22.717  14.915   0.679
 9434W        W81050  11.633  25.223   0.909
 9435W        W81051  40.608  36.112  11.519
 9436W        W81052  19.140  41.305   3.748
 9437W        W81053  23.484   0.270   2.022
 9438W        W81054  35.897  40.481  14.184
 9439W        W81055  44.850  14.580   3.764
 9440W        W81056  33.863  35.035  12.394
 9441W        W81057  35.313  34.455   0.995
 9442W        W81058  31.829  36.328  11.678
 9443W        W81059  21.715   6.607   3.279
 9444W        W81060  40.286  40.369  12.486
 9445W        W81061  10.747  16.562  14.857
 9446W        W81062  43.783  40.355   0.504
 9447W        W81063  17.910  33.600  14.095
 9448W        W81064  39.985  41.843   4.447
 9449W        W81065  19.257  10.096   0.296
 9450W        W81066   3.638  29.946  11.151
 9451W        W81067  27.680  18.677  10.613
 9452W        W81068  19.957  12.963   0.828
 9453W        W81069   8.799  43.576  12.875
 9454W        W81070  11.656  12.127   3.206
 9455W        W81071  29.646   3.459   1.237
 9456W        W81072  25.582  10.629   4.539
 9457W        W81073  10.318   1.356  12.276
 9458W        W81074   7.720   8.675   3.663
 9459W        W81075   9.809   4.400   1.379
 9460W        W81076  43.841  35.902  10.161
 9461W        W81077  24.849  13.628  12.804
 9462W        W81078   9.947  32.143   3.591
 9463W        W81079  15.054  35.475   3.276
 9464W        W81080  33.699  10.080  12.093
 9465W        W81081   8.771   8.805  13.098
 9466W        W81082  20.390   4.540   4.879
 9467W        W81083  38.083   6.958   4.267
 9468W        W81084   7.452  15.257   3.855
 9469W        W81085  33.464  16.805   3.170
 9470W        W81086   0.076  34.994  10.733
 9471W        W81087  31.720   4.875  12.028
 9472W        W81088  27.061   7.333  12.403
 9473W        W81089   0.558  24.687  13.027
 9474W        W81090   2.432  25.508   4.149
 9475W        W81091   4.707  29.336  10.182
 9476W        W81092  44.777   8.908  11.560
 9477W        W81093  18.335  13.617  13.489
 9478W        W81094  20.207  12.212  11.227
 9479W        W81095   4.584  41.368   0.929
 9480W        W81096  37.991  12.131  14.217
 9481W        W81097  36.556   2.880  10.708
 9482W        W81098   4.694  29.980  12.381
 9483W        W81099  29.150  30.196   2.656
 9484W        W81100  29.563  36.016  11.104
 9485W        W81101  10.528   6.799  11.545
 9486W        W81102  12.562  31.618  14.918
 9487W        W81103  40.002  13.401  14.726
 9488W        W81104  24.745  40.949   4.362
 9489W        W81105   2.440   2.863   0.420
 9490W        W81106   1.885  23.102   4.032
 9491W        W81107  37.671  16.656  10.197
 9492W        W81108  42.029  28.208   2.765
 9493W        W81109  25.212  44.902   4.411
 9494W        W81110  43.140  31.650  11.125
 9495W        W81111  19.603  32.649   3.576
 9496W        W81112  41.583  35.850   4.098
 9497W        W81113  39.937  27.382  10.782
 9498W        W81114  32.487  41.882  11.199
 9499W        W81115   9.101  41.802  14.083
 9500W        W81116   8.914  29.698  14.807
 9501W        W81117  39.500  28.252   3.985
 9502W        W81118  13.628  13.706  13.140
 9503W        W81119   4.865  19.308   3.642
 9504W        W81120  36.100  38.970   0.880
 9505W        W81121  40.524  27.510   4.896
 9506W        W81122   1.498  33.422   2.176
 9507W        W81123   1.121  28.596  12.071
 9508W        W81124  10.207  39.061  12.498
 9509W        W81125  23.975  12.599  14.940
 9510W        W81126  37.989  30.884   4.244
 9511W        W81127  42.048  29.632   4.145
 9512W        W81128  42.781   9.890   2.661
 9513W        W81129  28.247  11.707   0.851
 9514W        W81130  22.221  19.160  11.034
 9515W        W81131  41.933   2.890   3.485
 9516W        W81132  24.086  10.068  12.937
 9517W        W81133  18.748  10.180  10.652
 9518W        W81134  27.334  42.777  12.745
 9519W        W81135  15.326  43.790   2.826
 9520W        W81136  29.449  19.997  13.458
 9521W        W81137  23.748  33.878   3.159
 9522W        W81138   2.996  43.029   1.352
 9523W        W81139   1.433   1.312   3.046
 9524W        W81140   1.773   0.142  14.228
 9525W        W81141  29.192   3.223  11.596
 9526W        W81142   7.958  40.345   0.676
 9527W        W81143  32.447  32.237  11.194
 9528W        W81144  43.537   3.256  10.288
 9529W        W81145  23.556  38.467   0.434
 9530W        W81146  12.940   5.288   3.081
 9531W        W81147   6.712  35.542   4.050
 9532W        W81148  11.298  16.265  10.623
 9533W        W81149   4.749  17.202  12.172
 9534W        W81150  13.066  35.842   0.024
 9535W        W81151  21.702  26.161   1.500
 9536W        W81152  36.832  37.797  14.838
 9537W        W81153   3.033  10.624   3.252
 9538W        W81154   6.918  30.688   3.688
 9539W        W81155  27.274  42.397   2.946
 9540W        W81156  29.995  27.943   4.475
 9541W        W81157  27.868  26.138  13.750
 9542W        W81158  24.995  34.623  12.961
 9543W        W81159  29.646  12.824  12.544
 9544W        W81160  37.872  13.173  11.965
 9545W        W81161   6.300  12.392  13.982
 9546W        W81162  19.711  20.988  11.612
 9547W        W81163  25.566  33.888   4.262
 9548W        W81164  33.094  15.870  11.485
 9549W        W81165  26.078  19.345  12.455
 9550W        W81166  14.057  17.262  11.094
 9551W        W81167  11.342  40.865  13.401
 9552W        W81168  23.217  10.621  12.766
 9553W        W81169  33.057   9.425  13.326
 9554W        W81170   8.844   0.760  13.399
 9555W        W81171  19.517  43.331   5.247
 9556W        W81172   7.181  30.501  12.424
 9557W        W81173  32.064   4.467  13.927
 9558W        W81174  22.232  18.354   1.138
 9559W        W81175  39.263  40.664  12.887
 9560W        W81176  41.985  23.964  13.462
 9561W        W81177  24.345  33.462  13.516
 9562W        W81178  23.527  29.964   0.809
 9563W        W81179  34.350  18.947  10.545
 9564W        W81180   9.900  20.117   1.702
 9565W        W81181  44.120   4.155   0.657
 9566W        W81182  30.982  30.109  10.283
 9567W        W81183  33.049  20.473  10.495
 9568W        W81184   4.262   0.073  10.197
 9569W        W81185  21.117  35.693  14.004
 9570W        W81186  43.827  14.274  14.717
 9571W        W81187  28.584  20.228  10.597
 9572W        W81188   2.700  37.027  11.612
 9573W        W81189  33.432  32.682   1.376
 9574W        W81190  32.683   6.347   0.447
 9575W        W81191  23.649  19.576   1.617
 9576W        W81192  34.546   1.964  13.936
 9577W        W81193  42.859  24.562   3.740
 9578W        W81194  28.052  43.025   1.313
 9579W        W81195   1.425  37.902   2.092
 9580W        W81196  17.850  34.705   3.813
 9581W        W81197  14.120  33.960   4.232
 9582W        W81198  44.957  44.320   4.166
 9583W        W81199   2.949  12.287   1.098
 9584W        W81200  10.363  37.376   3.706
 9585W        W81201  39.286   5.755   1.029
 9586W        W81202  26.335  16.316  13.910
 9587W        W81203  44.286  30.020   0.949
 9588W        W81204  37.397  30.368  11.118
 9589W        W81205   3.593  38.025  11.568
 9590W        W81206  27.688  21.210  11.529
 9591W        W81207  41.563  20.983  11.879
 9592W        W81208  32.578  17.401  12.795
 9593W        W81209  42.828   5.874  14.966
 9594W        W81210  31.147  42.783   2.327
 9595W        W81211  22.567  42.016   4.655
 9596W        W81212   0.877   5.683  10.650
 9597W        W81213  26.912  23.508  12.366
 9598W        W81214   0.431  13.261   4.375
 9599W        W81215   5.224  28.905  13.868
 9600W        W81216  12.246  28.453   4.265
 9601W        W81217  27.429   5.162  12.899
 9602W        W81218   8.211  40.336   3.676
 9603W        W81219  14.862  35.065   1.229
 9604W        W81220  34.481   1.649  14.339
 9605W        W81221  27.069  25.563  11.670
 9606W        W81222  43.437   9.448  13.472
 9607W        W81223  42.075  34.347   0.823
 9608W        W81224  14.283  32.339   0.933
 9609W        W81225  31.721   7.481  14.886
 9610W        W81226  27.196  17.678   2.384
 9611W        W81227  18.689  37.512   5.114
 9612W        W81228  27.857   0.901   2.808
 9613W        W81229  10.983  31.796   3.710
 9614W        W81230  33.909  17.204   1.155
 9615W        W81231  10.831  21.308   4.260
 9616W        W81232  44.174   3.030  11.462
 9617W        W81233  32.168  10.188   2.229
 9618W        W81234  33.934   6.243   2.789
 9619W        W81235  21.143  41.812  14.792
 9620W        W81236  27.611   4.479  13.532
 9621W        W81237  12.888  39.713  14.055
 9622W        W81238  23.982  39.922   0.276
 9623W        W81239   6.270  31.978   1.165
 9624W        W81240   7.382  21.173  13.409
 9625W        W81241  13.677   5.388  12.655
 9626W        W81242  21.671  23.645  12.836
 9627W        W81243   3.787  36.838   1.939
 9628W        W81244  28.570  21.252   2.238
 9629W        W81245  33.310  27.154  14.772
 9630W        W81246  28.171  15.259   1.405
 9631W        W81247  34.951  42.499  12.437
 9632W        W81248   5.255  38.131  12.817
 9633W        W81249  12.441   0.989  10.835
 9634W        W81250  23.155  14.095   3.711
 9635W        W81251  17.866  22.756  11.195
 9636W        W81252  40.237  17.924   3.663
 9637W        W81253  22.125  35.792   3.577
 9638W        W81254  38.799  36.126   1.956
 9639W        W81255   4.504  18.571  11.583
 9640W        W81256  13.056  34.211   2.816
 9641W        W81257   5.021  23.930  13.602
 9642W        W81258  27.108  31.663  13.819
 9643W        W81259  21.692  23.293   1.380
 9644W        W81260   3.492  20.849  12.270
 9645W        W81261  40.533  10.229   2.646
 9646W        W81262   4.703  10.127   4.226
 9647W        W81263  12.541   8.310  14.841
 9648W        W81264  11.846  15.601  14.011
 9649W        W81265  44.810  22.199   0.852
 9650W        W81266  31.906  25.975   1.747
 9651W        W81267  18.685   1.466   4.860
 9652W        W81268  17.023  41.797   4.056
 9653W        W81269  18.124  42.376   1.689
 9654W        W81270  30.289  24.083   0.706
 9655W        W81271  40.530   8.306   4.861
 9656W        W81272  41.935   5.396   0.921
 9657W        W81273  36.818  22.764  11.544
 9658W        W81274   5.046  28.714   4.167
 9659W        W81275  10.306   6.627   1.931
 9660W        W81276   2.232  36.289   0.872
 9661W        W81277  29.495  10.408   1.482
 9662W        W81278  41.529  31.772  13.939
 9663W        W81279  15.929   0.477   0.341
 9664W        W81280  28.845   8.408   1.792
 9665W        W81281   7.244  44.268   0.206
 9666W        W81282   3.491  26.313   3.743
 9667W        W81283  36.826   2.719   0.933
 9668W        W81284  27.178  44.458  14.283
 9669W        W81285  16.241  38.213  11.182
 9670W        W81286   1.890  10.729  12.680
 9671W        W81287  18.716  36.471  11.529
 9672W        W81288  43.704   9.443   3.418
 9673W        W81289  22.562  43.993  13.727
 9674W        W81290  25.699  29.643   1.127
 9675W        W81291  35.556  43.285  12.581
 9676W        W81292  24.182   3.372   1.977
 9677W        W81293  22.780  33.109  10.851
 9678W        W81294   4.420  41.033   3.795
 9679W        W81295  10.681  28.491   1.717
 9680W        W81296  20.975  23.094  10.660
 9681W        W81297   9.863  41.183  13.955
 9682W        W81298  19.514   1.092   4.609
 9683W        W81299  31.698   5.902  11.278
 9684W        W81300  17.283  31.048   1.980
 9685W        W81301  31.636  29.875   2.239
 9686W        W81302  43.507  17.293   3.651
 9687W        W81303  23.356   4.130   1.725
 9688W        W81304  26.502  34.436  14.295
 9689W        W81305  38.922   6.361   0.142
 9690W        W81306  42.852   3.211   3.742
 9691W        W81307  16.518  22.120  12.883
 9692W        W81308   9.060  33.655   4.549
 9693W        W81309  30.886  44.761  12.019
 9694W        W81310  11.382  18.218  14.406
 9695W        W81311  14.585  42.927   0.527
 9696W        W81312  37.881   7.787   2.753
 9697W        W81313   1.652  39.869   2.860
 9698W        W81314  40.952  30.665   2.263
 9699W        W81315   6.520  21.994  11.522
 9700W        W81316   9.278   7.189   5.111
 9701W        W81317  14.278  42.969   3.283
 9702W        W81318  37.302  42.297   2.326
 9703W        W81319   4.339  36.599   1.285
 9704W        W81320  12.295  28.480   0.622
 9705W        W81321  15.284  36.955   3.396
 9706W        W81322  26.464  40.263  12.108
 9707W        W81323  23.457  41.973   0.357
 9708W        W81324  39.259  35.900  11.804
 9709W        W81325  17.558   9.424  13.094
 9710W        W81326  43.931   3.453  10.574
 9711W        W81327  16.086  44.168   3.090
 9712W        W81328  10.146   8.905   2.651
 9713W        W81329  37.578  13.846  10.651
 9714W        W81330   5.153  29.213   4.089
 9715W        W81331  30.373  29.626   3.264
 9716W        W81332  29.407  15.983   0.637
 9717W        W81333  10.672  36.858   4.266
 9718W        W81334   5.232   0.481  14.848
 9719W        W81335  33.308  37.341  10.683
 9720W        W81336  36.382   8.463  14.414
 9721W        W81337  31.166  40.117  13.798
 9722W        W81338  38.426  31.085   1.277
 9723W        W81339  11.178  21.149   0.998
 9724W        W81340   9.542  43.006  11.224
 9725W        W81341  31.896  37.961  14.819
 9726W        W81342  23.401   7.508   0.352
 9727W        W81343  40.807  39.243  12.133
 9728W        W81344  19.459  23.716   1.875
 9729W        W81345   9.726  21.110   2.164
 9730W        W81346  37.880  36.034   1.405
 9731W        W81347  42.625  35.278  10.769
 9732W        W81348  25.595   8.869  13.931
 9733W        W81349  32.620   0.294  14.438
 9734W        W81350  14.753  15.095  12.406
 9735W        W81351  22.526   6.510   1.876
 9736W        W81352   3.867  21.084  13.436
 9737W        W81353  35.048  13.047   0.349
 9738W        W81354  39.338   6.647  14.942
 9739W        W81355  11.064  24.167   4.355
 9740W        W81356   5.474  38.068  13.713
 9741W        W81357   5.868  14.786   1.764
 9742W        W81358  28.481  20.157   2.148
 9743W        W81359  30.791  30.198  12.985
 9744W        W81360  23.651  40.248   4.181
 9745W        W81361  42.074   1.457  14.338
 9746W        W81362  11.541  27.573  12.328
 9747W        W81363  18.527  13.260   1.851
 9748W        W81364  42.710  44.340  14.438
 9749W        W81365  35.012  30.250   4.213
 9750W        W81366  31.237  43.735  10.657
 9751W        W81367  28.655  29.084   3.816
 9752W        W81368   2.402  23.495  14.937
 9753W        W81369  24.943  22.755   1.805
 9754W        W81370  15.196  12.112  10.718
 9755W        W81371  43.046  22.338  14.956
 9756W        W81372  15.939   7.097  13.398
 9757W        W81373  33.812  33.094   3.074
 9758W        W81374  21.775   1.117  11.107
 9759W        W81375   9.974  35.845  13.360
 9760W        W81376   1.697  19.721  14.455
 9761W        W81377  40.984  17.585   2.744
 9762W        W81378   9.398  37.092  12.932
 9763W        W81379  32.808  41.470  12.479
 9764W        W81380   5.886  21.343  11.448
 9765W        W81381  42.462   1.325   4.610
 9766W        W81382  40.284   2.758   2.842
 9767W        W81383  38.875   8.393  13.672
 9768W        W81384  33.214  15.221  12.061
 9769W        W81385   2.487  25.552   0.369
 9770W        W81386  15.856  33.761  12.866
 9771W        W81387  34.434  44.012  10.137
 9772W        W81388  26.695  42.090   4.698
 9773W        W81389  10.357  18.796   0.928
 9774W        W81390  35.269   7.255  10.330
 9775W        W81391  36.405  26.565   4.646
 9776W        W81392  12.391  15.695   4.072
 9777W        W81393  11.012  44.458  11.444
 9778W        W81394  13.632  19.240   4.592
 9779W        W81395  18.055  29.216  13.834
 9780W        W81396  39.558  12.281  10.295
 9781W        W81397   6.888  40.269  11.902
 9782W        W81398   9.585   5.346   0.648
 9783W        W81399  20.176   2.336   2.645
 9784W        W81400  38.559  36.398   0.555
 9785W        W81401  41.835  37.059   0.697
 9786W        W81402  22.926  23.531  13.372
 9787W        W81403  39.898  28.675   2.265
 9788W        W81404  36.377  20.017  13.759
 9789W        W81405  30.831  14.908  13.552
 9790W        W81406  37.350  34.942  14.761
 9791W        W81407  10.941  31.727   1.318
 9792W        W81408   0.280  31.069  11.632
 9793W        W81409  35.112  36.099  12.084
 9794W        W81410  13.887   6.216   2.426
 9795W        W81411  21.166   3.815  10.825
 9796W        W81412  25.728  16.905   4.247
 9797W        W81413   9.769   3.910   1.654
 9798W        W81414  41.860  17.024  13.869
 9799W        W81415  24.602   5.439   4.183
 9800W        W81416   8.913  15.800  13.772
 9801W        W81417  27.558  10.359  14.999
 9802W        W81418  28.984   4.640   2.225
 9803W        W81419  27.005  24.572  11.553
 9804W        W81420  32.618   6.465   2.862
 9805W        W81421   5.898  41.107   0.367
 9806W        W81422  34.967  26.225   1.827
 9807W        W81423  38.612  14.966   3.041
 9808W        W81424  27.248   6.623   3.931
 9809W        W81425   4.364  43.795  12.040
 9810W        W81426  18.676   8.683  14.897
 9811W        W81427  12.802   0.134   4.531
 9812W        W81428  29.928  28.448   4.460
 9813W        W81429  30.338  30.598   3.248
 9814W        W81430  44.472  34.932   1.684
 9815W        W81431  33.514  37.849   3.717
 9816W        W81432   7.355  26.021   3.785
 9817W        W81433  26.992  27.981  13.099
 9818W        W81434   9.168  34.383  12.853
 9819W        W81435   3.416  12.822  13.473
 9820W        W81436  19.880   7.413   4.976
 9821W        W81437  19.808  28.558   2.899
 9822W        W81438  37.624  20.321  12.558
 9823W        W81439  32.150  44.609   0.917
 9824W        W81440  14.862  40.162   0.005
 9825W        W81441   7.321  17.520  14.517
 9826W        W81442  20.627  17.933  11.585
 9827W        W81443  15.488  19.131   5.486
 9828W        W81444  35.455   5.703   3.303
 9829W        W81445   8.203  12.604  13.318
 9830W        W81446  38.528  35.236  12.874
 9831W        W81447  42.040   3.756   2.366
 9832W        W81448  35.536  41.345  10.666
 9833W        W81449  34.847   2.720   2.376
 9834W        W81450   7.328  12.827   2.260
 9835W        W81451  44.875   1.345   0.537
 9836W        W81452   0.231  38.788  12.555
 9837W        W81453  39.800  44.048  11.109
 9838W        W81454  44.266   5.906  13.497
 9839W        W81455   6.317  18.958   5.126
 9840W        W81456  20.724  19.495  12.574
 9841W        W81457  36.631  43.967   3.266
 9842W        W81458  17.426  14.189   1.675
 9843W        W81459  11.126  37.821  14.920
 9844W        W81460   9.883  30.887   2.712
 9845W        W81461  25.204   6.113  10.690
 9846W        W81462  37.353   1.393   0.828
 9847W        W81463  16.530  31.452   0.976
 9848W        W81464  24.686   1.698  13.907
 9849W        W81465   4.485  27.687   3.611
 9850W        W81466  43.997  10.107  10.779
 9851W        W81467  12.755   9.230   2.723
 9852W        W81468  38.294  43.833   2.190
 9853W        W81469   7.405  28.397  11.093
 9854W        W81470  27.055  27.881  10.760
 9855W        W81471  25.193   9.290   4.165
 9856W        W81472  22.214  30.187   3.829
 9857W        W81473  21.409  15.619   4.664
 9858W        W81474  23.567  39.991  14.406
 9859W        W81475   0.808  40.943   1.727
 9860W        W81476  23.607   3.501  13.614
 9861W        W81477  41.212  34.020   4.625
 9862W        W81478   2.789   1.237   1.509
 9863W        W81479  40.477  34.996   5.136
 9864W        W81480   1.542  25.094  14.391
 9865W        W81481  39.958  30.865   0.765
 9866W        W81482  14.668   5.916   3.191
 9867W        W81483  38.695   4.936  12.054
 9868W        W81484   3.172  40.543  12.116
 9869W        W81485   4.471  22.846  14.878
 9870W        W81486  13.118  27.421   0.873
 9871W        W81487  18.609   9.460   3.769
 9872W        W81488   9.137  30.505  14.346
 9873W        W81489   8.119   9.052   1.929
 9874W        W81490  23.336  19.201   3.063
 9875W        W81491  19.614   3.761  13.452
 9876W        W81492  25.059  30.905  12.445
 9877W        W81493  38.159  38.530   4.236
 9878W        W81494  28.453  29.458   1.649
 9879W        W81495  29.909   9.793   0.055
 9880W        W81496  25.322  31.890   2.160
 9881W        W81497  30.066  38.534   4.882
 9882W        W81498  35.375  10.071  11.485
 9883W        W81499  37.291  24.858  11.435
 9884W        W81500  10.763   0.010   3.248
 9885W        W81501  40.922  11.576   4.824
 9886W        W81502  26.958  10.855   3.246
 9887W        W81503  28.782  43.883   4.178
 9888W        W81504  25.032  39.473   3.669
 9889W        W81505  31.100  30.675   3.664
 9890W        W81506  23.485   4.778  13.781
 9891W        W81507  14.701   8.699   0.414
 9892W        W81508  18.495   2.878  14.514
 9893W        W81509   4.105  11.589  11.640
 9894W        W81510  28.469   1.967   0.323
 9895W        W81511  12.807   6.281   5.422
 9896W        W81512  36.836   3.189  13.182
 9897W        W81513  13.109  39.848   0.431
 9898W        W81514  39.121  32.632   3.303
 9899W        W81515  42.283   8.334  11.022
 9900W        W81516   7.855  24.605   4.807
 9901W        W81517  43.836  17.343  10.681
 9902W        W81518   7.158  23.492  11.119
 9903W        W81519  30.011  18.317   1.821
 9904W        W81520   3.791   2.797   0.544
 9905W        W81521  30.586  24.455  10.826
 9906W        W81522  23.492   2.136  14.799
 9907W        W81523  10.911  27.811  13.509
 9908W        W81524  32.896  13.985   3.934
 9909W        W81525   1.721  15.399  11.682
 9910W        W81526  21.016  18.199  11.357
 9911W        W81527  15.928  19.623   1.866
 9912W        W81528  21.559  15.869  11.552
 9913W        W81529  23.941   2.242   4.617
 9914W        W81530  19.532  26.434   1.296
 9915W        W81531  30.733  12.721  13.927
 9916W        W81532   6.871  44.097  14.824
 9917W        W81533  10.312  37.429  14.198
 9918W        W81534  12.330  25.592  11.607
 9919W        W81535  43.689  13.055  12.473
 9920W        W81536   6.389  35.080   4.214
 9921W        W81537  35.987   5.931   2.121
 9922W        W81538  19.721  35.678   0.410
 9923W        W81539   5.653   2.855  13.073
 9924W        W81540  41.027  19.107   0.217
 9925W        W81541   1.860  26.202  13.886
 9926W        W81542   8.389  18.530   4.953
 9927W        W81543  28.544  43.241  14.763
 9928W        W81544  27.509  14.131   0.883
 9929W        W81545  22.098  38.043  11.909
 9930W        W81546   2.952  34.423   4.371
 9931W        W81547  11.373  30.141   2.835
 9932W        W81548  32.271  27.730  12.529
 9933W        W81549   1.260  44.474   4.657
 9934W        W81550  43.306  23.730  13.852
 9935W        W81551   5.632  31.902   2.835
 9936W        W81552  41.771   0.469  12.010
 9937W        W81553  20.539  19.650   1.302
 9938W        W81554  23.456  36.585   1.724
 9939W        W81555   8.440  43.433   4.547
 9940W        W81556   0.352   9.457   2.614
 9941W        W81557   8.180  39.500   2.070
 9942W        W81558  42.810  13.347   0.722
 9943W        W81559  27.431  32.328   1.198
 9944W        W81560  28.122  13.655  11.774
 9945W        W81561  32.959  20.092  11.133
 9946W        W81562  18.406   3.043  12.170
 9947W        W81563  13.003  31.548  12.936
 9948W        W81564   1.369  18.602   1.794
 9949W        W81565   8.317  27.788   0.537
 9950W        W81566  33.445  25.539   4.683
 9951W        W81567  37.085  24.486   0.880
 9952W        W81568  41.949  22.120   4.164
 9953W        W81569  32.550   9.689   3.098
 9954W        W81570  20.028   0.267   4.869
 9955W        W81571  29.564  28.509   3.163
 9956W        W81572  16.622  31.390  11.034
 9957W        W81573  36.821  35.011  12.882
 9958W        W81574  22.824  29.880   3.202
 9959W        W81575   7.194  27.640   4.619
 9960W        W81576  38.594   7.165   1.015
 9961W        W81577  24.265  28.569  13.983
 9962W        W81578   8.849  30.953  14.366
 9963W        W81579  44.722  23.918   4.172
 9964W        W81580  41.234  13.108  14.916
 9965W        W81581  16.646   7.316   1.448
 9966W        W81582  28.096  24.245   4.160
 9967W        W81583  29.811   2.398   4.366
 9968W        W81584   6.373  19.657  12.958
 9969W        W81585  27.549  12.919  11.679
 9970W        W81586   4.411  13.231   2.237
 9971W        W81587  41.181  21.529   2.790
 9972W        W81588  42.551  28.082  10.729
 9973W        W81589  42.874  43.466  12.959
 9974W        W81590  35.100  15.597  14.576
 9975W        W81591  42.914  43.985  13.052
 9976W        W81592  18.588  41.735  11.908
 9977W        W81593  40.424  31.441  14.729
 9978W        W81594  27.181   3.955   1.296
 9979W        W81595  14.653   8.571   9.981
 9980W        W81596  38.634  34.243  11.472
 9981W        W81597   2.968   7.108  10.678
 9982W        W81598  43.378   5.611   4.253
 9983W        W81599  20.603  43.557   0.188
 9984W        W81600   4.493  42.073   4.791
 9985W        W81601  16.232  41.030   2.251
 9986W        W81602   4.541  10.859   0.355
 9987W        W81603  26.065   4.468  13.073
 9988W        W81604  29.273  33.526   0.309
 9989W        W81605   2.453   4.712  13.006
 9990W        W81606  43.993  14.289   3.924
 9991W        W81607   1.804  38.608  14.755
 9992W        W81608  13.649  43.798   0.365
 9993W        W81609  34.870  21.274   3.383
 9994W        W81610   7.231  29.147  13.957
 9995W        W81611  11.387  16.611  13.092
 9996W        W81612  44.345  40.922   1.487
 9997W        W81613   9.172   3.538   3.315
 9998W        W81614  44.384  38.170   4.995
 9999W        W81615  23.488  18.935   3.768
10000W        W81616  21.172   2.858   3.859
10001W        W81617  18.710  44.678   5.192
10002W        W81618  18.061  40.558   1.458
10003W        W81619  23.549  44.467   1.383
10004W        W81620  22.067  29.591  11.447
10005W        W81621   2.300  37.434  10.355
10006W        W81622   5.687   6.519   0.308
10007W        W81623  17.649  32.505  14.502
10008W        W81624  38.555   6.076  12.603
10009W        W81625  21.153  11.331   2.651
10010W        W81626  35.480  32.717   0.449
10011W        W81627  14.154   6.638   9.767
10012W        W81628  42.504  11.573   2.178
10013W        W81629  18.605  25.997  11.489
10014W        W81630  39.919   9.129   0.927
10015W        W81631   5.606  17.260   4.220
10016W        W81632   2.998  26.154   3.657
10017W        W81633  14.089  24.917   1.029
10018W        W81634  12.764  43.318   4.108
10019W        W81635  30.094  13.375  14.007
10020W        W81636  40.241  29.605  13.040
10021W        W81637   3.795  41.431  11.664
10022W        W81638  31.105  16.420   1.295
10023W        W81639   6.935   1.779  12.004
10024W        W81640   1.255   0.759   5.160
10025W        W81641  20.549   9.774  12.417
10026W        W81642  23.166  38.479   2.755
10027W        W81643  17.167  28.759  14.032
10028W        W81644  17.776  13.027  14.420
10029W        W81645  36.480  44.615  14.086
10030W        W81646  36.410  43.475   3.800
10031W        W81647   5.949  12.805  12.721
10032W        W81648   1.749  19.602   2.729
10033W        W81649  24.062  34.182   1.291
10034W        W81650  31.884  30.095  11.312
10035W        W81651  37.625  26.535   2.917
10036W        W81652  27.461   8.148  11.896
10037W        W81653  35.254  24.362   3.210
10038W        W81654  12.878  20.307  12.798
10039W        W81655  26.208  31.711  14.489
10040W        W81656  38.226   9.796   1.732
10041W        W81657  23.137  17.509  11.939
10042W        W81658  29.580   8.276   4.802
10043W        W81659  10.444  11.759   1.395
10044W        W81660  31.633  17.622  11.040
10045W        W81661   7.150  11.136   0.274
10046W        W81662  38.106   0.762   0.750
10047W        W81663   5.737  15.674   1.762
10048W        W81664  41.747  26.109  11.968
10049W        W81665  13.739  40.376   4.959
10050W        W81666   4.133   1.409  10.051
10051W        W81667   0.367   5.417  13.798
10052W        W81668  29.648  14.181   5.057
10053W        W81669  39.399  17.049   1.785
10054W        W81670  23.207  25.168  14.673
10055W        W81671  33.654   1.223   2.701
10056W        W81672   6.364  26.996  11.955
10057W        W81673  44.909  26.991  10.924
10058W        W81674   3.388  20.645   0.706
10059W        W81675  11.798  30.864   1.015
10060W        W81676  28.580   3.224   4.927
10061W        W81677  23.565  30.871  11.562
10062W        W81678  43.698  38.508   5.145
10063W        W81679  13.721   9.740  14.624
10064W        W81680  19.928   4.689  12.090
10065W        W81681  21.535  30.432   4.821
10066W        W81682  31.236  16.264  12.901
10067W        W81683  40.475   1.788  13.515
10068W        W81684   8.844  34.356  14.815
10069W        W81685  16.892  35.926   0.528
10070W        W81686   8.371  19.311   0.321
10071W        W81687  11.765  17.181   2.404
10072W        W81688   9.735  32.928   1.173
10073W        W81689   6.113   8.817  13.027
10074W        W81690  36.657  29.854  14.474
10075W        W81691  40.457  19.901   4.198
10076W        W81692  34.670  21.127  12.582
10077W        W81693  29.624   7.436  11.604
10078W        W81694  13.208  37.785   3.755
10079W        W81695   2.276  35.585  11.557
10080W        W81696  40.342  39.791   2.814
10081W        W81697  31.360  37.250  13.865
10082W        W81698  18.614  10.118   0.840
10083W        W81699  18.700  43.488   1.939
10084W        W81700  29.175  44.736   3.718
10085W        W81701  22.991   9.358  11.455
10086W        W81702  44.495   9.771   4.639
10087W        W81703   1.026  40.789   0.727
10088W        W81704  20.660   3.011  13.504
10089W        W81705  41.348  38.413  11.679
10090W        W81706   8.368   6.434  12.588
10091W        W81707  25.112   5.721  12.342
10092W        W81708  20.059   5.934   3.806
10093W        W81709  22.679  33.627  13.306
10094W        W81710  10.690  17.717  13.391
10095W        W81711  16.197  35.648   0.696
10096W        W81712  17.844  39.286   2.646
10097W        W81713   1.191  41.270  11.762
10098W        W81714  39.385  29.774   4.062
10099W        W81715  37.553  16.162   2.573
10100W        W81716  44.840  26.466  14.770
10101W        W81717  22.242  35.552   0.800
10102W        W81718  36.525   7.211  14.875
10103W        W81719   4.970  32.631  11.509
10104W        W81720  19.443  37.489  14.995
10105W        W81721  15.824   7.226  11.157
10106W        W81722  21.727  43.242  12.836
10107W        W81723  26.223  37.857   3.413
10108W        W81724  36.906  40.918  12.339
10109W        W81725  21.346  19.156   0.225
10110W        W81726  41.994   9.396   4.663
10111W        W81727  21.792  13.204   0.308
10112W        W81728   5.390  36.472  13.499
10113W        W81729   6.444  13.968   4.243
10114W        W81730  22.432  25.712   4.740
10115W        W81731   3.269  19.344   4.310
10116W        W81732  39.907   1.343  10.729
10117W        W81733   0.294  23.226  10.229
10118W        W81734  15.652  28.185  14.142
10119W        W81735  19.051   0.196   2.246
10120W        W81736  12.130  36.884   4.648
10121W        W81737  40.009  35.753   3.317
10122W        W81738  12.679  21.624   4.623
10123W        W81739  17.124  42.558   3.246
10124W        W81740  30.536  21.045  11.654
10125W        W81741   8.292   6.641  10.605
10126W        W81742   3.228  11.207  13.200
10127W        W81743  24.678   7.793  11.970
10128W        W81744   9.183  34.163  11.654
10129W        W81745   8.795  12.831  13.878
10130W        W81746  27.291  29.471   2.147
10131W        W81747  38.854  34.351  11.931
10132W        W81748  41.865  34.421   4.323
10133W        W81749  23.743  13.180  13.639
10134W        W81750  15.333  41.844   4.243
10135W        W81751  12.672   9.212  13.834
10136W        W81752  22.933  30.426  12.974
10137W        W81753   2.970   7.888  11.914
10138W        W81754  39.550  37.848   1.272
10139W        W81755  21.311   8.183   0.237
10140W        W81756  13.102  23.119  11.187
10141W        W81757  31.513  10.336  12.244
10142W        W81758  17.823  44.938   3.997
10143W        W81759  25.636   1.181  14.221
10144W        W81760   8.665  25.322   2.318
10145W        W81761  13.877  15.731   4.117
10146W        W81762  18.221  24.904  13.974
10147W        W81763  17.300   0.804  11.628
10148W        W81764  18.726  37.452  11.662
10149W        W81765  41.964  11.638   4.135
10150W        W81766  44.590  13.132   4.953
10151W        W81767  21.565  11.391  10.694
10152W        W81768   8.591  14.040   4.547
10153W        W81769  29.497   6.820  10.493
10154W        W81770  31.199  23.401   2.797
10155W        W81771  20.253   0.516  12.920
10156W        W81772  30.931  28.400  10.261
10157W        W81773   5.870  20.166   3.314
10158W        W81774  34.392   1.708  12.570
10159W        W81775  32.629  43.556  12.609
10160W        W81776  11.017  39.613   3.306
10161W        W81777   3.301   2.538   1.721
10162W        W81778  10.715  43.558   1.370
10163W        W81779   3.291  34.632   1.828
10164W        W81780  28.561  34.125   1.830
10165W        W81781  43.277  20.552   0.939
10166W        W81782  17.534  23.676  12.134
10167W        W81783   0.349  43.142   3.425
10168W        W81784  28.104  26.106   1.776
10169W        W81785   4.634  25.669   3.664
10170W        W81786  22.970   3.558   5.262
10171W        W81787  34.910  22.132  14.005
10172W        W81788  43.584  24.767   4.288
10173W        W81789  34.554  28.663  10.616
10174W        W81790  15.289  19.559  13.942
10175W        W81791  23.636  13.271  12.613
10176W        W81792  22.070  35.733  14.251
10177W        W81793  19.179  43.759  13.243
10178W        W81794  17.592  43.724  10.009
10179W        W81795  29.726   0.372   2.208
10180W        W81796  22.136   4.320   1.416
10181W        W81797   4.712  28.180   2.828
10182W        W81798  43.901  34.725   0.776
10183W        W81799  21.738  13.356  11.150
10184W        W81800  36.344  37.219  11.081
10185W        W81801  14.516  37.309  14.441
10186W        W81802  18.333  29.643  13.798
10187W        W81803   6.884  39.857  11.579
10188W        W81804  37.377  43.857   3.610
10189W        W81805  25.804  35.637   3.746
10190W        W81806  28.403  43.554   5.031
10191W        W81807  22.126  20.981   4.768
10192W        W81808  16.613  38.436   1.306
10193W        W81809  37.317  29.019   0.867
10194W        W81810  26.239   4.376  11.140
10195W        W81811  40.897  17.028   0.175
10196W        W81812  22.545  22.378   0.488
10197W        W81813  20.700  15.987  11.437
10198W        W81814  27.210   2.347   3.699
10199W        W81815  16.905   7.728  14.272
10200W        W81816  17.470  26.481   5.005
10201W        W81817  34.983  12.678   4.629
10202W        W81818  27.443  42.334   2.307
10203W        W81819   3.390  30.002   1.888
10204W        W81820  16.575  30.140   1.340
10205W        W81821  26.093  37.483   0.733
10206W        W81822  17.922  26.529  10.220
10207W        W81823  23.187  11.760   2.787
10208W        W81824  14.457   7.955  11.238
10209W        W81825  12.350  32.935  13.417
10210W        W81826  33.858  38.561   4.080
10211W        W81827  15.836  29.318   4.976
10212W        W81828  35.664  11.153  13.495
10213W        W81829  37.122  29.771   1.673
10214W        W81830   9.948  30.678   1.333
10215W        W81831   3.562  27.601  10.512
10216W        W81832  38.965   0.487  10.806
10217W        W81833  24.106  40.816   0.214
10218W        W81834  20.920   6.746  13.910
10219W        W81835  33.429   3.728   1.508
10220W        W81836   0.286  11.190  14.309
10221W        W81837  29.873   8.221   1.762
10222W        W81838  19.709   5.952   4.174
10223W        W81839   6.254   3.987   1.232
10224W        W81840  16.075  40.480   2.247
10225W        W81841  28.994   0.977  13.061
10226W        W81842  26.171   5.658   4.146
10227W        W81843  19.548  17.207   0.429
10228W        W81844  11.238  18.741  14.389
10229W        W81845  43.060  12.859   0.876
10230W        W81846  12.025  10.862   0.988
10231W        W81847  14.201  42.844  13.024
10232W        W81848  15.479  43.309   2.691
10233W        W81849  14.258  16.647  11.104
10234W        W81850   6.273  26.994   3.892
10235W        W81851  27.588  42.542  14.083
10236W        W81852   0.657   9.054   4.227
10237W        W81853  29.546  33.048  13.845
10238W        W81854   4.059  14.064   4.965
10239W        W81855  31.969   9.302   2.691
10240W        W81856  44.189  21.927   2.660
10241W        W81857   0.063   2.836  13.299
10242W        W81858  19.136  14.623  11.229
10243W        W81859  23.846  35.443  14.986
10244W        W81860  32.125  37.007  12.400
10245W        W81861  40.079  28.976   1.658
10246W        W81862  26.649  12.686   0.772
10247W        W81863  28.916  39.193   3.782
10248W        W81864  42.928   6.375  11.285
10249W        W81865  35.365  43.872   2.422
10250W        W81866  12.347  32.592  14.767
10251W        W81867  11.207  20.021  12.862
10252W        W81868   9.089   9.133  14.495
10253W        W81869   1.404  13.796   3.646
10254W        W81870  22.534  13.645   2.230
10255W        W81871  27.035  41.633   1.635
10256W        W81872  32.913  43.274   4.150
10257W        W81873   9.867   1.981  14.083
10258W        W81874  24.092  34.713  11.774
10259W        W81875  43.735  37.243   4.070
10260W        W81876  15.136  44.350   0.700
10261W        W81877  16.568  39.343  13.362
10262W        W81878  34.976   3.334   4.116
10263W        W81879  11.233  27.970  12.375
10264W        W81880  42.359  43.237   1.847
10265W        W81881  23.215  33.102  13.773
10266W        W81882  20.312   2.306  14.850
10267W        W81883  39.905   0.820   0.321
10268W        W81884  17.089  33.115   0.482
10269W        W81885   5.853  15.229   2.712
10270W        W81886   6.409  24.114  11.170
10271W        W81887  18.208   2.158  14.503
10272W        W81888   7.858   8.261  14.469
10273W        W81889   7.301  10.156   4.566
10274W        W81890  17.469  25.913  14.991
10275W        W81891   3.456  40.249   3.124
10276W        W81892  41.233  26.167  11.819
10277W        W81893  42.488  24.554   2.801
10278W        W81894  33.953  21.655  14.970
10279W        W81895  29.895   3.424   3.229
10280W        W81896   9.888  26.235  11.739
10281W        W81897  40.961  32.949   1.825
10282W        W81898  26.949  16.355   0.662
10283W        W81899  38.921  20.257   3.151
10284W        W81900  24.734  35.827   2.849
10285W        W81901   6.945  14.570   4.018
10286W        W81902  31.817  19.215  11.768
10287W        W81903   0.474  23.897   1.072
10288W        W81904  38.100  13.452   5.159
10289W        W81905   6.355   6.065   2.370
10290W        W81906  43.229  41.095   3.080
10291W        W81907  21.152  28.212   0.329
10292W        W81908  44.222   2.451  12.981
10293W        W81909  37.412   5.701   2.315
10294W        W81910  19.445  34.042  14.373
10295W        W81911   6.472  17.586   1.361
10296W        W81912  33.108   5.801  11.511
10297W        W81913  40.272  23.220   0.544
10298W        W81914   2.195  13.790  10.981
10299W        W81915   1.238  30.287  11.025
10300W        W81916  36.710   4.298   0.215
10301W        W81917  43.881   4.893   0.178
10302W        W81918  28.684   9.781  12.554
10303W        W81919  17.074  14.083   0.351
10304W        W81920  26.275  34.393  12.332
10305W        W81921  22.289   9.816  14.633
10306W        W81922  44.751  15.838   0.210
10307W        W81923  21.527  24.593   0.847
10308W        W81924  30.967  23.196   3.493
10309W        W81925  12.575  35.020  11.513
10310W        W81926  18.345   5.905  12.025
10311W        W81927   2.377   0.996   2.742
10312W        W81928  42.189  22.126   3.695
10313W        W81929  28.513  30.025  13.963
10314W        W81930  20.324  29.186  12.899
10315W        W81931  42.797  19.040   2.222
10316W        W81932  17.208  26.509   1.899
10317W        W81933  31.372  43.021   1.892
10318W        W81934  39.759  38.943   4.837
10319W        W81935  37.169  13.932  14.380
10320W        W81936  31.204  21.548  14.008
10321W        W81937  15.828  14.353   4.529
10322W        W81938  15.480  30.712   0.202
10323W        W81939  22.544  38.953  14.949
10324W        W81940  27.860  29.974  12.019
10325W        W81941  34.259  27.492   0.859
10326W        W81942  37.444   2.284   3.193
10327W        W81943  26.780  26.578  12.126
10328W        W81944  31.373   7.865  14.889
10329W        W81945  42.850  25.925   0.549
10330W        W81946   8.633  13.192   2.300
10331W        W81947  42.968  29.625   3.412
10332W        W81948  22.695  34.550  12.419
10333W        W81949   2.755  42.263   4.013
10334W        W81950   9.745  13.417  14.802
10335W        W81951  36.100  17.359   4.536
10336W        W81952   7.157  28.897  13.471
10337W        W81953  38.460  44.695  12.845
10338W        W81954  38.921  26.963  14.435
10339W        W81955  18.694  36.277   3.926
10340W        W81956  40.306  41.282  12.570
10341W        W81957  44.315  37.356   0.424
10342W        W81958  29.572   7.723   1.797
10343W        W81959  36.527   9.600   1.374
10344W        W81960  35.381  21.719  12.938
10345W        W81961  35.258  17.592   4.115
10346W        W81962  17.775  21.140   2.747
10347W        W81963   6.477  22.629  12.585
10348W        W81964  29.544  28.204   9.856
10349W        W81965  34.199  40.938   3.212
10350W        W81966  42.841  23.011   4.092
10351W        W81967  39.452  37.021  11.994
10352W        W81968  29.563  15.694   2.073
10353W        W81969  21.216  43.933   4.104
10354W        W81970  37.858  31.487   0.693
10355W        W81971  20.473   7.126  10.716
10356W        W81972  19.139  44.583   5.500
10357W        W81973  32.039  38.804  10.269
10358W        W81974  22.149  29.370  14.820
10359W        W81975  38.321  35.976   4.265
10360W        W81976  21.921  35.568  14.781
10361W        W81977   5.352   8.185   2.737
10362W        W81978  23.552  42.995  14.474
10363W        W81979  30.583  26.199  10.712
10364W        W81980  27.027  14.645  14.271
10365W        W81981   4.396  35.308  14.193
10366W        W81982  34.666  33.140  12.492
10367W        W81983  26.212  36.532  12.120
10368W        W81984   7.800  43.833   0.647
10369W        W81985  28.539   2.972   1.822
10370W        W81986  10.842  18.988   0.824
10371W        W81987   5.261   2.502  11.428
10372W        W81988  39.641  31.646  10.734
10373W        W81989  34.130  38.490   0.377
10374W        W81990  39.664  30.542   3.887
10375W        W81991  28.707  23.125   1.798
10376W        W81992  23.226  21.940   0.138
10377W        W81993  26.652  25.174   0.856
10378W        W81994  28.848  12.844  12.933
10379W        W81995   7.376  26.486  13.612
10380W        W81996   9.635  10.495  13.605
10381W        W81997   6.177  43.565  13.426
10382W        W81998  30.084  41.325  10.440
10383W        W81999  18.208  10.889  13.934
10384W        W82000  31.420  26.192   0.365
10385W        W82001   3.508  26.074  13.344
10386W        W82002  20.165  12.300   1.682
10387W        W82003  36.862  35.178  14.998
10388W        W82004  15.307  24.207   2.120
10389W        W82005  18.680  18.175  14.027
10390W        W82006  21.995  42.845  10.706
10391W        W82007  20.955  41.949  13.787
10392W        W82008  38.681  14.737   1.233
10393W        W82009  10.937   0.707   3.601
10394W        W82010  23.958  24.473  12.368
10395W        W82011   3.930  44.497  12.447
10396W        W82012   0.833  35.597  13.899
10397W        W82013  33.123  26.521  12.317
10398W        W82014   3.869  13.730  10.710
10399W        W82015  15.833  19.720   1.383
10400W        W82016  24.766  32.836  14.930
10401W        W82017  23.499  40.349   1.152
10402W        W82018   0.114  22.753  10.418
10403W        W82019  36.875  31.998  10.610
10404W        W82020   7.287  24.415   3.028
10405W        W82021  16.707  15.724  11.497
10406W        W82022   0.390  15.563   0.987
10407W        W82023  38.035  12.375   1.458
10408W        W82024  21.002  33.033  14.636
10409W        W82025  33.268  11.522  14.756
10410W        W82026  20.250  43.716   4.742
10411W        W82027  10.507  12.740   4.162
10412W        W82028  27.476  24.565  11.342
10413W        W82029   8.402  41.422  10.555
10414W        W82030  20.232  40.198  10.677
10415W        W82031  30.503  19.693  14.321
10416W        W82032  33.870  28.036  12.909
10417W        W82033   9.538   7.266   4.145
10418W        W82034  21.691  39.242  11.074
10419W        W82035  40.335  12.212   1.823
10420W        W82036   9.249  22.947   1.255
10421W        W82037  12.566  26.867  14.479
10422W        W82038   1.518  26.726  12.138
10423W        W82039   5.456   8.682   0.423
10424W        W82040  30.356  34.930  14.452
10425W        W82041  36.539  31.475   0.352
10426W        W82042   4.693  24.672   0.000
10427W        W82043  12.060  43.249  11.131
10428W        W82044  18.579  28.186   0.844
10429W        W82045  36.016  35.837  13.423
10430W        W82046  43.290  15.775   2.277
10431W        W82047   2.438  24.467   9.842
10432W        W82048  27.469  23.223  11.682
10433W        W82049  19.169  30.203   0.245
10434W        W82050  40.293  16.675  12.535
10435W        W82051  31.342  15.790  11.594
10436W        W82052  29.845  15.417   1.752
10437W        W82053  38.354  10.667   3.799
10438W        W82054  35.034  10.164  12.151
10439W        W82055   9.855  30.181  14.897
10440W        W82056  19.648  24.366   4.144
10441W        W82057  36.501   3.444   3.430
10442W        W82058  42.933  20.561   0.294
10443W        W82059  30.689  40.143   0.351
10444W        W82060  42.216  39.387   4.956
10445W        W82061  26.575  32.566  11.237
10446W        W82062  11.917  39.694  12.462
10447W        W82063   5.361   0.245   5.091
10448W        W82064  27.907  20.731   2.361
10449W        W82065  39.010  34.029  12.323
10450W        W82066  27.951   6.321   2.364
10451W        W82067  13.537  12.301  13.985
10452W        W82068  16.566  16.328  10.796
10453W        W82069  18.701  18.761  11.736
10454W        W82070   5.413  12.309   4.556
10455W        W82071   0.791  32.570  12.088
10456W        W82072  41.012  13.142  13.384
10457W        W82073   5.214  44.956  14.898
10458W        W82074  16.264   0.525   4.224
10459W        W82075  41.379  26.099  12.309
10460W        W82076  14.720  16.777   3.820
10461W        W82077  40.040  34.927  11.154
10462W        W82078  12.286  42.386  11.632
10463W        W82079  27.452   3.705  10.722
10464W        W82080  27.058  22.765   2.717
10465W        W82081  42.277  19.010  11.454
10466W        W82082  24.269  10.821  14.567
10467W        W82083   4.480   9.987   4.667
10468W        W82084  42.226  28.974   3.184
10469W        W82085   0.009   3.714  14.896
10470W        W82086  32.138  36.417   4.667
10471W        W82087  24.427  30.577  13.837
10472W        W82088   6.952  35.856   4.449
10473W        W82089  39.918  21.478  11.582
10474W        W82090  10.699  14.517  12.000
10475W        W82091  11.102  37.752   9.910
10476W        W82092  29.454   6.112  12.613
10477W        W82093  25.138   3.459   2.179
10478W        W82094  23.571  33.504   1.001
10479W        W82095  27.556  34.835  13.866
10480W        W82096  22.253  11.099  12.031
10481W        W82097  10.143  14.055   1.749
10482W        W82098  24.428   7.722   4.676
10483W        W82099  20.017  44.173   5.517
10484W        W82100   4.243  33.108   2.630
10485W        W82101  23.707  13.084   3.134
10486W        W82102  11.972  22.789  12.414
10487W        W82103  34.928   6.154  13.906
10488W        W82104  33.931  31.061   0.846
10489W        W82105  38.510  39.479   1.084
10490W        W82106  40.423   8.994   0.931
10491W        W82107  23.187  25.649  13.954
10492W        W82108   9.201  42.302   2.396
10493W        W82109   6.294  31.308  11.514
10494W        W82110  16.680  34.174   1.658
10495W        W82111  24.841  42.956  12.150
10496W        W82112   8.261  34.780  14.278
10497W        W82113  26.929  23.132   1.456
10498W        W82114  13.625  23.384   4.145
10499W        W82115  43.530  44.154   3.928
10500W        W82116  28.458  44.356  12.379
10501W        W82117  42.011   1.382   4.312
10502W        W82118  14.689   8.180   1.464
10503W        W82119  21.569  26.086  12.469
10504W        W82120  42.884  26.202   3.156
10505W        W82121  22.658   4.778  14.763
10506W        W82122   9.421  40.113   0.463
10507W        W82123  13.128  42.011   4.118
10508W        W82124  15.958   1.640  10.228
10509W        W82125  32.645  19.182  13.462
10510W        W82126  18.869   5.701   3.093
10511W        W82127  22.148   4.634  14.717
10512W        W82128  11.319  20.801  14.949
10513W        W82129  15.414  22.947   1.717
10514W        W82130  13.646  23.130  11.402
10515W        W82131  34.163  23.995   9.911
10516W        W82132   1.671  15.175   1.246
10517W        W82133   0.411  20.583  13.894
10518W        W82134  14.051  24.026   0.321
10519W        W82135   3.324  43.825   0.251
10520W        W82136  31.565  16.721   3.626
10521W        W82137  29.754   7.312   4.931
10522W        W82138  19.629  14.110   2.350
10523W        W82139   9.611  24.719  11.929
10524W        W82140  43.053  43.250  13.843
10525W        W82141  36.055   2.094   0.867
10526W        W82142  34.833  32.240   0.909
10527W        W82143  32.628  20.556  11.423
10528W        W82144  43.477   5.368   4.701
10529W        W82145   3.542  29.966  11.892
10530W        W82146  24.466  32.585   4.115
10531W        W82147  37.383  40.018   1.737
10532W        W82148  11.528   7.625  10.213
10533W        W82149  15.686  20.437   4.266
10534W        W82150  34.353  19.187  12.358
10535W        W82151  34.163  42.021  14.420
10536W        W82152  10.163  31.052   4.773
10537W        W82153  40.215  38.269  14.890
10538W        W82154  28.539  17.708  11.662
10539W        W82155  38.043  41.563  12.436
10540W        W82156  40.471  33.484   4.389
10541W        W82157  42.909   6.932  13.096
10542W        W82158  40.021  31.173   1.722
10543W        W82159  13.360  43.782  12.515
10544W        W82160  41.056  35.944  14.667
10545W        W82161  12.733  25.987   1.389
10546W        W82162   0.359  19.953  12.426
10547W        W82163  40.615  12.737  12.889
10548W        W82164  24.105  25.365  14.976
10549W        W82165  16.565   4.620  14.234
10550W        W82166   5.384   9.853   1.253
10551W        W82167  44.685   1.015   0.178
10552W        W82168   8.833  15.046   4.417
10553W        W82169   6.320   8.218  10.205
10554W        W82170  39.026  20.256  11.870
10555W        W82171   1.196  11.463  12.566
10556W        W82172   7.652  26.429   0.866
10557W        W82173  40.996  41.047  12.449
10558W        W82174  26.998   6.638  12.026
10559W        W82175  29.458  20.602   0.307
10560W        W82176  42.108  20.234   2.844
10561W        W82177  39.048  43.246  13.662
10562W        W82178  14.249  43.735  13.519
10563W        W82179  30.401  22.736   0.626
10564W        W82180  19.182  11.566   2.338
10565W        W82181  38.821  28.865  12.007
10566W        W82182   7.218  25.238   0.374
10567W        W82183  19.635   4.657   2.189
10568W        W82184  19.720  43.492   2.158
10569W        W82185  25.708  29.425  14.231
10570W        W82186  41.112   9.349   5.200
10571W        W82187  14.149  23.747  11.999
10572W        W82188  16.707   5.381   0.412
10573W        W82189   5.161  23.127  11.480
10574W        W82190   7.273   7.642   3.182
10575W        W82191  24.542   1.801  12.459
10576W        W82192   2.039   6.374  14.415
10577W        W82193  12.731  36.787  13.824
10578W        W82194   3.997  12.248  10.879
10579W        W82195  22.537  16.780   2.181
10580W        W82196  11.792   9.412   2.356
10581W        W82197   8.699  15.512   4.633
10582W        W82198  21.001  32.574   2.434
10583W        W82199  28.643  43.429   3.880
10584W        W82200   6.421  12.447   1.330
10585W        W82201  40.922  40.879   2.788
10586W        W82202   9.390  38.848   1.387
10587W        W82203  30.064  17.201   1.496
10588W        W82204   3.372  13.930   0.489
10589W        W82205  26.646   4.462  12.470
10590W        W82206  13.676   7.417  14.609
10591W        W82207   5.943  17.021  14.888
10592W        W82208  34.358   1.320   4.629
10593W        W82209  24.114  23.744  10.594
10594W        W82210  11.837  30.167   1.804
10595W        W82211   0.162  42.673   3.591
10596W        W82212  23.782  29.610  14.571
10597W        W82213  40.353   0.407  14.563
10598W        W82214  41.527   3.473  12.662
10599W        W82215  39.371   3.280  14.868
10600W        W82216  17.499  19.260  14.061
10601W        W82217  44.778  17.228  12.485
10602W        W82218   1.633  33.925  13.385
10603W        W82219  20.440  33.924   4.143
10604W        W82220   5.276  35.168   1.681
10605W        W82221  42.225  36.827   1.296
10606W        W82222  17.193  14.989   3.882
10607W        W82223  39.450  35.972  10.748
10608W        W82224  14.803  13.805   4.465
10609W        W82225  18.032  26.172  11.503
10610W        W82226  30.660  32.151  12.481
10611W        W82227  22.631  32.442  14.597
10612W        W82228   9.672  33.409   1.431
10613W        W82229  18.247   2.086   1.760
10614W        W82230  38.819  37.666   0.122
10615W        W82231  20.280  35.437  12.852
10616W        W82232  25.743   9.155  12.952
10617W        W82233  13.314  37.281   3.895
10618W        W82234   0.705  31.603   3.778
10619W        W82235  17.013   5.305  14.440
10620W        W82236  32.194  18.578  13.990
10621W        W82237  16.926  31.566   3.530
10622W        W82238  33.659  12.723  14.501
10623W        W82239  17.213  33.022   1.410
10624W        W82240  10.641   9.076  12.047
10625W        W82241  44.326  26.394   1.200
10626W        W82242  14.739   5.259   2.499
10627W        W82243  18.569   2.687   0.514
10628W        W82244  12.177  13.246   0.177
10629W        W82245   4.834  25.167  14.958
10630W        W82246  23.118  21.235  14.962
10631W        W82247   3.756   0.816   5.392
10632W        W82248   2.943   8.109  10.661
10633W        W82249   9.796  44.767   2.744
10634W        W82250  12.364  37.335   4.555
10635W        W82251   7.042  28.513  10.751
10636W        W82252  39.337  44.504  10.698
10637W        W82253  42.607   6.626  11.619
10638W        W82254  33.601   8.389  10.429
10639W        W82255   3.944  21.571   4.522
10640W        W82256  13.065  44.243  14.329
10641W        W82257  17.234  25.876   2.576
10642W        W82258  31.242  34.068  13.860
10643W        W82259  44.652  33.548  10.211
10644W        W82260  21.216   3.911  14.842
10645W        W82261  44.275  40.437  12.007
10646W        W82262  28.215  19.065  11.521
10647W        W82263   6.724  19.241   4.606
10648W        W82264  13.443   2.855   0.578
10649W        W82265  30.092  10.411   4.134
10650W        W82266  25.443   9.580  11.945
10651W        W82267  17.650  24.821   1.784
10652W        W82268   5.396  32.428  14.356
10653W        W82269  30.396  28.635  10.691
10654W        W82270  29.589  42.898  10.636
10655W        W82271  20.716   0.193   0.924
10656W        W82272  44.253  12.095   1.071
10657W        W82273  15.235  27.262  11.641
10658W        W82274  42.314   1.796  13.896
10659W        W82275  12.446   4.015   2.783
10660W        W82276  12.225  22.070   0.097
10661W        W82277  31.402  43.747   1.340
10662W        W82278  35.505   8.479   0.945
10663W        W82279  24.924  37.125  10.914
10664W        W82280  34.032   5.969  10.409
10665W        W82281   6.613  11.135  13.468
10666W        W82282  20.697   2.475   4.538
10667W        W82283  10.587  40.928  11.339
10668W        W82284   0.426   5.196  14.255
10669W        W82285   5.136  15.752  14.300
10670W        W82286  22.641  15.176  12.600
10671W        W82287  14.833  17.270  14.524
10672W        W82288   7.885   1.189  12.374
10673W        W82289  17.244  27.911   5.006
10674W        W82290   0.539  10.871  11.143
10675W        W82291  23.479  10.745   1.414
10676W        W82292  28.036  27.860   0.813
10677W        W82293  17.084  32.662   3.684
10678W        W82294  29.008  14.056  12.430
10679W        W82295  20.933  31.199   0.306
10680W        W82296  20.666  16.162   0.790
10681W        W82297   3.875   8.144  10.717
10682W        W82298   3.722   8.715  12.967
10683W        W82299  28.067  10.530  10.555
10684W        W82300  32.624  36.533   2.046
10685W        W82301  43.948   6.136   1.390
10686W        W82302   2.903   3.325   4.630
10687W        W82303  20.288   4.913  11.131
10688W        W82304   2.865  25.074   3.244
10689W        W82305  32.150   5.848  10.111
10690W        W82306  23.099  16.154  13.607
10691W        W82307  29.112  36.205  12.592
10692W        W82308  35.875  29.302  12.090
10693W        W82309  27.714  27.581   1.834
10694W        W82310  10.273  37.809  13.874
10695W        W82311  25.340  19.741  14.340
10696W        W82312  34.123   5.869   4.515
10697W        W82313  22.683  17.522  12.918
10698W        W82314  36.329   2.527   3.110
10699W        W82315  36.842  23.535   2.730
10700W        W82316  28.204  40.828  12.468
10701W        W82317  40.588  41.052  12.998
10702W        W82318  38.494  39.651  13.484
10703W        W82319  17.566  12.170   4.513
10704W        W82320  29.863  42.932   0.982
10705W        W82321  44.830  39.824   4.419
10706W        W82322   2.542  34.083   1.935
10707W        W82323  39.148  14.027  14.605
10708W        W82324  35.964  37.767   1.674
10709W        W82325  15.724  18.575   3.419
10710W        W82326  15.364  16.187  11.561
10711W        W82327  36.724  29.312  14.363
10712W        W82328  16.795  30.620  11.629
10713W        W82329  42.792  44.388   1.897
10714W        W82330  37.343  21.959   3.732
10715W        W82331  21.785  28.516   1.730
10716W        W82332  24.677  35.526  14.743
10717W        W82333  17.892   5.488  14.807
10718W        W82334   1.981  23.212  14.848
10719W        W82335  23.495   1.770   0.179
10720W        W82336  11.288  10.388   1.814
10721W        W82337  24.879  13.627  13.828
10722W        W82338  12.406   6.338   1.410
10723W        W82339  21.462  41.509  11.021
10724W        W82340   2.835   2.188  13.514
10725W        W82341  32.434  36.767   1.634
10726W        W82342   4.133  29.037   2.644
10727W        W82343  21.682  29.071   4.339
10728W        W82344  36.080  20.088  11.154
10729W        W82345  31.768  34.164  13.863
10730W        W82346  17.463  17.044  11.345
10731W        W82347  44.757  38.177  13.051
10732W        W82348  10.643  33.792  14.434
10733W        W82349  11.726  44.420   1.672
10734W        W82350  22.189  41.483   1.617
10735W        W82351  43.236  31.839  13.073
10736W        W82352   3.411   5.869  14.065
10737W        W82353  33.644  34.526  13.922
10738W        W82354  11.587  26.070  10.593
10739W        W82355  38.415  33.635   3.173
10740W        W82356  15.199   3.971   1.259
10741W        W82357   4.599  23.829   4.599
10742W        W82358  40.956  20.515   1.951
10743W        W82359  29.035  31.914   3.163
10744W        W82360  29.646  33.627  13.272
10745W        W82361  10.050  21.582  13.078
10746W        W82362   2.412  16.019   0.168
10747W        W82363  43.508  13.781   2.939
10748W        W82364  29.022  44.430   2.326
10749W        W82365  25.860  10.564  12.937
10750W        W82366   0.252  16.275   3.269
10751W        W82367   2.882  39.562   4.181
10752W        W82368   8.610  24.403  14.139
10753W        W82369   7.278  23.508   3.566
10754W        W82370  42.025  11.073  13.043
10755W        W82371   3.331   9.658   4.097
10756W        W82372  39.462  44.996   1.518
10757W        W82373  16.089  36.482  13.024
10758W        W82374  12.545  38.258  14.100
10759W        W82375   7.811  41.543  11.714
10760W        W82376  39.863   7.181  13.881
10761W        W82377  44.041  32.469  11.594
10762W        W82378  10.042  42.916  11.466
10763W        W82379  23.659  20.806  13.400
10764W        W82380  15.097   5.922   0.877
10765W        W82381  15.868   9.848   0.790
10766W        W82382  35.522   3.918  13.016
10767W        W82383  36.845  10.567  12.294
10768W        W82384  25.263  27.214   3.152
10769W        W82385  40.208  26.009   3.649
10770W        W82386  16.516  37.488  14.460
10771W        W82387   8.760  10.577   0.368
10772W        W82388   1.748  20.237  14.564
10773W        W82389  44.731   4.433  11.094
10774W        W82390   5.089  25.014  14.220
10775W        W82391  30.116   8.704  14.466
10776W        W82392  31.531  18.666  10.780
10777W        W82393  20.454  13.847  13.773
10778W        W82394  11.761  10.802  11.909
10779W        W82395  19.196  24.587   0.835
10780W        W82396  24.521  12.238  11.491
10781W        W82397   4.159  42.927   4.861
10782W        W82398  32.567  37.795  12.540
10783W        W82399  31.939  23.505  10.731
10784W        W82400  33.092   1.895  12.976
10785W        W82401  34.691  38.436   1.287
10786W        W82402  40.881  20.037   0.391
10787W        W82403   7.568  19.184   0.841
10788W        W82404  24.525  15.006  11.076
10789W        W82405  13.340   8.872   4.558
10790W        W82406   8.224   2.062  11.631
10791W        W82407  38.038  26.465   1.652
10792W        W82408   5.372  19.936   5.041
10793W        W82409  31.771  32.004   1.741
10794W        W82410  19.778  32.459   2.624
10795W        W82411  31.405   2.441  10.662
10796W        W82412  37.584  10.772   5.474
10797W        W82413  36.942   4.754   0.228
10798W        W82414   2.362  24.973   4.699
10799W        W82415  23.624   6.237   4.165
10800W        W82416  21.622  26.174  11.604
10801W        W82417   9.424  18.074  14.770
10802W        W82418   6.610   8.528   2.341
10803W        W82419  34.395  31.669   3.662
10804W        W82420   7.393  17.998   1.633
10805W        W82421   3.286  14.769   2.559
10806W        W82422   1.796   7.885  11.967
10807W        W82423  24.063  10.456  14.233
10808W        W82424  25.683  19.286   1.960
10809W        W82425  24.946   7.379  10.284
10810W        W82426  33.921  44.961  13.225
10811W        W82427  32.449  25.413  11.931
10812W        W82428  39.237   8.078  14.889
10813W        W82429  27.261  37.962  14.888
10814W        W82430   7.374  39.990   1.368
10815W        W82431  30.952  32.415   4.287
10816W        W82432  38.308   2.196   3.659
10817W        W82433  43.706  28.207  14.021
10818W        W82434  21.652  14.568  13.057
10819W        W82435   0.281  16.564   0.364
10820W        W82436  14.044   4.187  11.973
10821W        W82437  20.457   2.002  11.178
10822W        W82438  43.290  44.506   1.820
10823W        W82439  27.147  18.248   0.552
10824W        W82440  29.402  14.775  11.582
10825W        W82441  21.016   0.257  13.921
10826W        W82442  20.313  26.735   1.761
10827W        W82443  29.724   9.242  13.349
10828W        W82444   5.959  21.672  10.475
10829W        W82445  28.132  12.645  14.900
10830W        W82446  44.490  42.842  11.880
10831W        W82447   5.253   8.005  11.493
10832W        W82448   9.202  39.118   3.437
10833W        W82449   2.515  19.536   0.530
10834W        W82450  15.190  14.819   1.907
10835W        W82451   4.858   9.892   1.266
10836W        W82452   4.424  10.064  10.551
10837W        W82453   8.780   3.431  11.518
10838W        W82454  36.865   7.619  10.986
10839W        W82455  43.432   1.030  14.260
10840W        W82456  16.805  12.206   2.961
10841W        W82457   2.860  24.423  11.079
10842W        W82458  43.822  16.487   3.245
10843W        W82459  19.279  28.991  14.703
10844W        W82460   6.615  33.448  12.181
10845W        W82461  35.280  17.603  14.591
10846W        W82462  11.092  10.373  13.921
10847W        W82463   6.899  19.458   2.826
10848W        W82464  21.421  41.784  13.635
10849W        W82465   8.850  31.545  12.134
10850W        W82466  22.404  27.464   1.509
10851W        W82467  29.861  36.956   2.795
10852W        W82468  11.218   3.043   4.629
10853W        W82469  19.241  35.450  11.195
10854W        W82470  16.144  17.307   4.069
10855W        W82471   5.446  17.160   4.693
10856W        W82472  10.425  22.654   1.664
10857W        W82473  29.639  41.298  13.113
10858W        W82474   3.371  43.998   3.804
10859W        W82475  16.895  44.871  10.677
10860W        W82476  32.549  35.991   3.983
10861W        W82477  30.052  39.338  14.493
10862W        W82478  39.756  18.878   2.741
10863W        W82479   0.941  43.198  12.566
10864W        W82480  24.174  12.361  10.674
10865W        W82481  19.726  15.568  11.554
10866W        W82482  29.367   1.982  13.359
10867W        W82483  44.134  39.312   2.827
10868W        W82484   4.270  32.291  14.309
10869W        W82485  24.169  18.613  14.414
10870W        W82486   4.329  39.534  12.379
10871W        W82487   0.004  20.470   4.180
10872W        W82488  35.443  19.994   1.859
10873W        W82489  42.802  21.119  13.932
10874W        W82490   1.241   6.324  14.039
10875W        W82491  43.250  15.917  14.353
10876W        W82492  44.676  33.051   0.864
10877W        W82493   5.175  34.919  12.126
10878W        W82494  14.501  16.174  11.009
10879W        W82495  36.961  42.173   1.233
10880W        W82496   2.476  11.876   3.676
10881W        W82497  43.339  29.462   4.665
10882W        W82498   5.773  33.124   1.894
10883W        W82499  24.517  32.323   3.678
10884W        W82500   2.848  44.019   2.670
10885W        W82501  32.379  39.614   1.275
10886W        W82502   5.213  13.454   2.562
10887W        W82503  28.271  10.105  13.018
10888W        W82504  11.664  39.867  10.194
10889W        W82505  41.445  36.569  14.377
10890W        W82506   0.757  24.532  14.493
10891W        W82507  34.951  34.247  11.153
10892W        W82508  30.713  21.243  13.006
10893W        W82509  37.946  25.513  13.592
10894W        W82510  23.879  27.436   1.888
10895W        W82511  29.942  14.259   1.077
10896W        W82512  16.223  10.319  10.971
10897W        W82513   4.163  39.749   4.503
10898W        W82514   1.349  13.959   5.201
10899W        W82515  26.161  44.742   2.205
10900W        W82516   1.883  26.216  14.428
10901W        W82517   8.260  43.831  13.047
10902W        W82518   8.706   2.273   3.658
10903W        W82519  34.000  39.749   1.787
10904W        W82520   0.409  22.676   4.629
10905W        W82521  13.626  32.629  14.033
10906W        W82522  18.404  36.399  12.265
10907W        W82523  22.842  32.450  12.618
10908W        W82524  18.588  15.168   1.187
10909W        W82525  42.000   6.199  11.192
10910W        W82526  21.495  41.434  10.440
10911W        W82527   7.258  40.290  13.002
10912W        W82528  43.794  22.353  13.093
10913W        W82529  18.299  23.547  12.917
10914W        W82530  27.906   8.273  14.805
10915W        W82531  31.578   9.863   2.860
10916W        W82532  33.139  26.805  13.497
10917W        W82533   7.170  15.699   3.736
10918W        W82534  20.967  41.495   4.961
10919W        W82535  11.993  17.842   3.843
10920W        W82536   5.495  44.734   5.115
10921W        W82537  30.827   6.302   1.852
10922W        W82538  16.938  16.179  11.659
10923W        W82539  29.888  28.994   0.386
10924W        W82540  13.778   6.437   2.881
10925W        W82541  12.823   6.778  11.087
10926W        W82542  42.913  15.379   0.913
10927W        W82543  43.176  36.081   1.778
10928W        W82544  44.544  35.179  11.256
10929W        W82545  34.414  24.045  10.377
10930W        W82546   4.818  40.939  13.958
10931W        W82547  33.407  31.950  13.734
10932W        W82548  40.020  28.068   0.227
10933W        W82549  42.009   7.901  12.852
10934W        W82550  23.200  42.662  12.557
10935W        W82551  29.696   5.902   1.393
10936W        W82552  16.276  11.943   2.466
10937W        W82553  33.848  42.138   3.964
10938W        W82554  41.347  40.602  12.011
10939W        W82555  33.041  35.286  12.557
10940W        W82556  34.821   2.867   4.281
10941W        W82557  33.430  15.592  12.403
10942W        W82558  27.570   7.855   3.661
10943W        W82559  32.980  28.918  11.916
10944W        W82560  28.200   9.912   1.039
10945W        W82561   5.242   1.242   4.578
10946W        W82562  26.793  39.770  12.973
10947W        W82563  20.180  19.146   4.967
10948W        W82564   8.621   5.058   0.001
10949W        W82565  42.477   1.274   1.889
10950W        W82566  34.162   7.486   3.239
10951W        W82567  40.455  25.829   2.480
10952W        W82568   3.249  16.768   4.853
10953W        W82569  40.607  44.718  11.091
10954W        W82570  20.296   0.474   3.410
10955W        W82571  44.497   4.916  11.957
10956W        W82572  24.175  43.222   2.415
10957W        W82573  32.891   0.001  10.791
10958W        W82574   4.239  13.660   4.613
10959W        W82575  35.074  23.203   1.635
10960W        W82576  31.765  22.240  13.264
10961W        W82577   6.958  22.987   3.706
10962W        W82578  16.172   7.830   2.715
10963W        W82579   6.626   0.287   0.918
10964W        W82580   8.303  17.818   2.858
10965W        W82581  30.611  35.511   0.938
10966W        W82582  22.574  35.528   3.975
10967W        W82583  33.985  15.576  11.097
10968W        W82584   1.979  11.307   4.266
10969W        W82585   7.172  44.747  11.231
10970W        W82586  31.919   4.391  14.953
10971W        W82587  12.742  17.705  14.481
10972W        W82588  42.899  14.409  13.009
10973W        W82589  10.072  36.784   2.690
10974W        W82590   6.196  41.101   3.827
10975W        W82591  36.794  26.279   1.890
10976W        W82592  19.771  43.365  14.989
10977W        W82593  10.599  35.641  12.315
10978W        W82594   7.155  42.341   4.132
10979W        W82595  12.229  10.632  12.475
10980W        W82596  13.099   8.868  10.780
10981W        W82597  33.813  37.922   3.272
10982W        W82598  12.631  23.199   2.351
10983W        W82599  18.229  17.316   2.451
10984W        W82600  32.774   7.687   4.088
10985W        W82601  12.716   4.405   3.482
10986W        W82602  38.375  26.032  13.999
10987W        W82603  16.388   8.176  11.154
10988W        W82604  42.255  29.947  14.650
10989W        W82605  41.520   4.776  12.568
10990W        W82606  38.090  23.865  13.587
10991W        W82607  41.281   8.863  11.587
10992W        W82608  19.572  13.666  12.511
10993W        W82609  19.058  22.491   2.782
10994W        W82610  20.753  23.488  14.807
10995W        W82611   4.845  29.549   3.833
10996W        W82612  33.641  34.169   1.008
10997W        W82613  17.019   5.156   2.936
10998W        W82614  23.301  29.359  11.544
10999W        W82615  39.796  33.650   4.810
11000W        W82616  42.981  12.760  13.948
11001W        W82617  28.549   2.984  13.309
11002W        W82618  37.416  21.800   4.375
11003W        W82619  24.493  42.953   4.954
11004W        W82620  14.257  25.062  13.769
11005W        W82621  11.678  34.397   0.359
11006W        W82622  27.700  29.675   0.445
11007W        W82623  37.318  32.623   4.246
11008W        W82624  12.918  24.306   2.401
11009W        W82625   1.996  44.955  12.892
11010W        W82626  35.973  31.280   4.341
11011W        W82627  11.363  15.550   2.363
11012W        W82628   2.394  22.669   3.600
11013W        W82629  23.343   5.699   4.119
11014W        W82630   5.637   4.400   3.019
11015W        W82631  28.040   5.815   2.323
11016W        W82632  24.971  44.647  12.888
11017W        W82633  37.377  19.751   4.684
11018W        W82634   6.145  18.219  14.368
11019W        W82635  36.416  29.438  11.153
11020W        W82636  34.860  44.271   3.861
11021W        W82637  39.287  28.653  12.411
11022W        W82638  24.486  28.141   1.803
11023W        W82639  16.228  26.315  13.811
11024W        W82640  35.089  41.472  13.424
11025W        W82641  19.543  20.170   1.951
11026W        W82642  13.872   0.932   4.111
11027W        W82643   1.903  39.719  13.185
11028W        W82644   6.471  40.561   0.488
11029W        W82645  20.275   0.826  13.850
11030W        W82646   6.242  23.504   4.512
11031W        W82647  35.783  37.479  13.037
11032W        W82648  31.827  27.225  13.797
11033W        W82649  33.011  32.597   3.543
11034W        W82650  20.436  22.405  10.721
11035W        W82651  28.489  25.559  13.549
11036W        W82652   9.907  21.125  13.268
11037W        W82653  17.521  13.208   4.132
11038W        W82654   4.751  39.913   3.316
11039W        W82655   3.524  41.513  14.808
11040W        W82656  43.381  15.715   3.343
11041W        W82657  39.033   6.844   4.806
11042W        W82658   3.924  23.709  13.359
11043W        W82659  30.091   5.817   1.740
11044W        W82660  23.052   9.860  13.812
11045W        W82661  18.690  43.284  11.098
11046W        W82662  12.659  43.427  12.505
11047W        W82663   7.318  16.602  10.826
11048W        W82664  18.723  31.346  13.405
11049W        W82665   0.952  34.797   3.194
11050W        W82666  33.032  36.178   2.355
11051W        W82667   8.238   9.162  14.186
11052W        W82668  13.614  32.064  13.837
11053W        W82669  39.856  43.006  11.020
11054W        W82670   4.777  35.973   2.215
11055W        W82671  39.274  26.051   2.627
11056W        W82672  27.581   1.067   1.858
11057W        W82673  28.956  36.123   0.042
11058W        W82674  19.713  31.924   4.164
11059W        W82675  15.591  22.261  10.222
11060W        W82676  42.962  14.638   1.445
11061W        W82677   5.820  31.085  11.612
11062W        W82678  34.945  11.676  13.942
11063W        W82679  21.203  43.938   0.874
11064W        W82680  30.188   7.377  14.990
11065W        W82681   4.006   3.693   4.047
11066W        W82682  42.441  26.451  13.996
11067W        W82683  38.471   5.935   0.463
11068W        W82684  24.232  44.537   4.569
11069W        W82685  17.339  23.580   4.711
11070W        W82686  13.201   5.358  13.504
11071W        W82687  15.031  31.398  14.650
11072W        W82688  19.205  22.997   2.825
11073W        W82689   9.042  32.526  14.103
11074W        W82690  14.066  16.717  13.565
11075W        W82691  37.971  36.532  10.764
11076W        W82692  32.562  25.378   2.240
11077W        W82693   9.147  31.809   3.322
11078W        W82694  13.327  10.874  12.844
11079W        W82695  29.514   8.640  10.903
11080W        W82696  36.952  39.829  13.666
11081W        W82697  25.411  23.709   4.661
11082W        W82698   9.183  44.499  10.177
11083W        W82699  22.599  14.088  10.732
11084W        W82700   1.116  35.020   3.621
11085W        W82701  37.796   3.310   4.332
11086W        W82702  20.055  23.795  10.528
11087W        W82703  14.078  33.449  10.633
11088W        W82704  41.220  42.639   3.255
11089W        W82705  36.120  19.130  13.459
11090W        W82706  32.059  23.779  14.543
11091W        W82707  23.444  30.684   2.798
11092W        W82708  37.948  32.143  14.247
11093W        W82709   9.215  16.883  12.467
11094W        W82710  41.001  11.801   2.471
11095W        W82711  22.672  44.683   0.600
11096W        W82712  44.345  37.605  11.150
11097W        W82713  16.117  25.295   2.599
11098W        W82714  13.545  26.175  13.653
11099W        W82715  26.216  21.966  14.275
11100W        W82716  13.708  11.094   3.888
11101W        W82717  24.135   0.794  14.945
11102W        W82718  43.999  30.174   0.539
11103W        W82719  35.462   4.317  13.706
11104W        W82720   3.849   7.817  11.135
11105W        W82721   6.465  44.360   3.622
11106W        W82722  10.441  26.195   3.307
11107W        W82723  15.930   3.172   1.396
11108W        W82724  42.010  39.370   0.834
11109W        W82725  21.006  32.364   1.341
11110W        W82726  13.242  38.817  12.043
11111W        W82727  12.795   3.930   1.762
11112W        W82728  36.734  41.374   0.409
11113W        W82729   8.272  41.995  10.798
11114W        W82730  37.446  43.772  11.232
11115W        W82731   9.683  38.693  14.220
11116W        W82732  35.670  12.228  13.754
11117W        W82733  27.602  33.725  11.552
11118W        W82734  44.009  20.305  12.995
11119W        W82735  28.101  42.203  10.629
11120W        W82736   1.437  26.471  13.084
11121W        W82737  15.275  14.290  14.920
11122W        W82738   7.150  10.259   0.175
11123W        W82739  35.860  31.350  14.885
11124W        W82740   3.806  29.079   4.163
11125W        W82741   1.922  11.497  12.810
11126W        W82742   4.015  30.599  14.219
11127W        W82743  20.215  34.601   1.296
11128W        W82744  21.524  21.625   1.803
11129W        W82745  23.461  25.707   4.701
11130W        W82746   4.019  21.625  10.640
11131W        W82747  30.429  23.108  10.388
11132W        W82748  34.143  13.225   1.854
11133W        W82749  15.505  12.821   1.208
11134W        W82750  25.929  19.007  11.149
11135W        W82751  38.619   8.330  11.490
11136W        W82752  40.397  11.265  14.434
11137W        W82753   9.094  29.098  14.546
11138W        W82754  38.579  19.695  14.941
11139W        W82755  44.467  31.073  12.717
11140W        W82756  30.937   1.753  12.145
11141W        W82757  13.904  15.170  14.395
11142W        W82758  16.704  40.455   2.779
11143W        W82759  12.076  14.877   1.610
11144W        W82760  25.689  14.242   1.335
11145W        W82761  37.920  12.396   3.397
11146W        W82762  16.000  42.578   4.161
11147W        W82763  38.560  31.364  12.991
11148W        W82764  38.620  38.911  12.901
11149W        W82765  30.974  30.082  10.791
11150W        W82766   4.498   0.676   4.241
11151W        W82767  31.703  17.084   2.264
11152W        W82768  18.647  16.807   1.730
11153W        W82769  38.057  38.882  14.909
11154W        W82770  20.147  18.275  11.180
11155W        W82771  23.107   5.292   4.398
11156W        W82772  39.306  25.986  11.481
11157W        W82773  23.594  44.955   0.698
11158W        W82774  13.607   8.334   4.388
11159W        W82775  35.670  22.729   4.193
11160W        W82776  28.606  25.689   0.528
11161W        W82777  18.455  23.912  13.749
11162W        W82778  37.064  22.708   2.371
11163W        W82779   2.202  33.176   0.504
11164W        W82780   3.283  16.342   2.337
11165W        W82781   8.906  23.424  13.364
11166W        W82782   8.511  20.555  13.915
11167W        W82783  43.441  25.707   4.282
11168W        W82784  30.691   8.814  11.577
11169W        W82785  20.473  20.555  14.305
11170W        W82786  36.164  32.420  10.759
11171W        W82787  28.362  19.105   2.626
11172W        W82788  26.198  17.734  10.670
11173W        W82789   7.134  17.230  12.548
11174W        W82790   4.915  37.617  10.318
11175W        W82791  14.667  43.401  13.451
11176W        W82792  13.940  32.384  14.985
11177W        W82793  40.455  30.170   3.680
11178W        W82794  19.638  11.072  11.125
11179W        W82795   1.420  33.426   1.648
11180W        W82796  16.196   3.041   0.853
11181W        W82797  10.610  21.772   0.394
11182W        W82798  18.040  15.265   4.068
11183W        W82799  41.285   3.411  11.673
11184W        W82800   0.774  41.998   1.482
11185W        W82801  23.423  21.802   0.731
11186W        W82802  24.660  23.457   2.037
11187W        W82803  20.937  28.950  14.012
11188W        W82804  25.621   1.790   2.664
11189W        W82805   7.264  35.578   0.409
11190W        W82806  18.646  41.561  14.506
11191W        W82807  31.173  36.991   3.960
11192W        W82808   3.860  13.079   4.126
11193W        W82809  40.027  10.641  14.021
11194W        W82810   3.686  12.759   2.920
11195W        W82811  21.138  10.707   1.360
11196W        W82812  24.614   5.514   1.753
11197W        W82813  29.552  34.258  11.913
11198W        W82814  27.683  15.070   1.605
11199W        W82815  28.634   3.047  14.093
11200W        W82816  11.786  28.494   0.310
11201W        W82817  35.859   8.346   3.556
11202W        W82818  29.640  36.210  13.918
11203W        W82819   2.934  43.948  13.908
11204W        W82820  41.335   8.150   1.331
11205W        W82821  44.259  20.489   4.959
11206W        W82822  34.006  11.352   3.180
11207W        W82823  31.021   6.003   2.257
11208W        W82824  14.281   4.189  13.362
11209W        W82825   0.513  37.611   5.060
11210W        W82826   2.001  44.548   1.604
11211W        W82827   8.710   6.429  10.820
11212W        W82828  35.498  38.643  13.545
11213W        W82829  16.421   1.743   1.584
11214W        W82830  18.487  10.300  12.441
11215W        W82831   8.700  41.592   0.911
11216W        W82832  10.929  22.555   2.512
11217W        W82833  19.841  29.313  13.818
11218W        W82834  26.981  16.079  11.662
11219W        W82835  14.535   3.266  11.006
11220W        W82836  43.886  13.002  14.358
11221W        W82837  22.011  36.345   1.016
11222W        W82838  15.743  42.882  12.347
11223W        W82839  13.242  22.789  10.262
11224W        W82840   0.293  20.165   1.866
11225W        W82841  38.699  20.304   2.687
11226W        W82842  21.165  37.429  12.274
11227W        W82843  14.684   1.142   3.109
11228W        W82844  12.355   5.160  12.340
11229W        W82845  16.571  31.687   4.350
11230W        W82846  29.000  30.527   4.634
11231W        W82847  16.042  28.028  14.475
11232W        W82848  30.641   8.952  12.069
11233W        W82849  19.523  38.934  11.688
11234W        W82850  39.253  41.492  14.930
11235W        W82851  34.641   2.332   3.780
11236W        W82852  37.026  17.413   4.830
11237W        W82853  43.702   9.531   1.803
11238W        W82854  23.155  16.515  13.966
11239W        W82855  35.747  31.162  11.534
11240W        W82856  18.899  42.869  14.262
11241W        W82857   8.243  15.124   1.689
11242W        W82858  25.073  26.967  11.081
11243W        W82859  24.421  33.409  12.075
11244W        W82860  22.927  20.599  12.938
11245W        W82861  35.208  21.007  12.574
11246W        W82862   1.906  34.833  13.395
11247W        W82863  28.580   0.243   3.834
11248W        W82864  30.802   8.638  11.102
11249W        W82865  36.949  44.679  12.565
11250W        W82866  22.810  24.173   3.799
11251W        W82867  17.097  41.451  11.913
11252W        W82868  43.808  38.353  13.445
11253W        W82869  36.423  21.033  13.898
11254W        W82870   0.159   0.918   3.139
11255W        W82871  38.119   7.141   2.900
11256W        W82872  15.237  43.915  12.140
11257W        W82873   0.275  19.745   0.017
11258W        W82874  26.637   3.214   0.846
11259W        W82875  18.680  28.688  14.714
11260W        W82876  22.257  10.907  13.225
11261W        W82877   2.198  26.929  12.635
11262W        W82878  16.692  28.398  14.816
11263W        W82879   7.166  30.486  13.219
11264W        W82880   7.786   5.960   0.043
11265W        W82881  26.916   8.805   4.083
11266W        W82882   2.559  43.891   1.374
11267W        W82883   9.910  14.282  14.461
11268W        W82884  40.840  41.549  13.374
11269W        W82885  41.347  14.827   4.399
11270W        W82886  10.110  22.274   3.183
11271W        W82887   6.653   3.346  12.487
11272W        W82888  10.900  10.811   2.338
11273W        W82889  32.915  21.715   2.199
11274W        W82890   2.722  27.011   3.884
11275W        W82891  24.125   5.665  12.118
11276W        W82892  44.021   4.955  14.280
11277W        W82893  31.071  10.286   1.384
11278W        W82894  39.801  16.462   3.592
11279W        W82895   7.649  32.663  13.007
11280W        W82896   2.842  15.161   0.852
11281W        W82897  24.763   5.814   2.864
11282W        W82898  11.555  42.369  11.021
11283W        W82899  43.984  33.743   1.044
11284W        W82900  21.483  29.037  10.632
11285W        W82901   8.876  19.657   3.817
11286W        W82902   4.195  25.291  11.791
11287W        W82903  14.372  43.862  12.665
11288W        W82904  44.089  11.354   2.109
11289W        W82905   4.186  34.907   4.152
11290W        W82906   5.945   1.755   4.449
11291W        W82907   4.202  43.021  10.941
11292W        W82908  22.575  18.230   1.985
11293W        W82909  32.820  27.226   4.631
11294W        W82910  37.332  25.060   3.829
11295W        W82911  19.184  24.061  10.684
11296W        W82912   5.473   0.821   1.533
11297W        W82913   2.088   0.861   4.342
11298W        W82914  38.603  23.234   3.771
11299W        W82915   2.819  26.144  13.836
11300W        W82916  42.419   1.377  12.625
11301W        W82917  37.506   5.181  13.381
11302W        W82918   9.432  23.642   2.049
11303W        W82919   9.099  15.085   1.729
11304W        W82920  26.810  32.127  10.516
11305W        W82921  15.273  10.757   0.543
11306W        W82922   7.851  38.555   0.744
11307W        W82923  25.251   1.848   3.029
11308W        W82924  30.690  21.537  12.558
11309W        W82925  30.572   9.362  12.871
11310W        W82926  14.357  35.214   2.298
11311W        W82927  42.302   7.402  13.438
11312W        W82928  19.309  28.602  11.076
11313W        W82929  37.935  31.079  14.513
11314W        W82930  27.367  10.862   2.894
11315W        W82931  38.038  35.179   3.677
11316W        W82932  22.032  19.141  13.889
11317W        W82933   8.385   6.547  14.355
11318W        W82934   7.818  34.089   1.455
11319W        W82935  37.519  15.538  10.212
11320W        W82936  18.354  34.345   1.366
11321W        W82937  34.407   9.578   4.040
11322W        W82938  14.830  40.868   0.508
11323W        W82939  26.491  44.197   3.489
11324W        W82940   1.880  14.347   0.392
11325W        W82941  41.527  27.955  14.191
11326W        W82942  39.432   8.438  14.003
11327W        W82943  44.400  33.650   1.982
11328W        W82944  24.068  15.810  12.962
11329W        W82945   9.851  23.171   4.201
11330W        W82946  32.424  36.014   1.664
11331W        W82947  18.201   9.281  12.888
11332W        W82948  32.021   3.531   1.258
11333W        W82949  37.195   5.983  13.729
11334W        W82950   0.869   6.853  12.896
11335W        W82951  43.933   0.027   3.698
11336W        W82952  20.202   3.576   3.242
11337W        W82953  35.574  20.287   2.267
11338W        W82954   4.814  21.677   5.024
11339W        W82955  24.795  29.413  14.790
11340W        W82956  10.873  30.119  11.419
11341W        W82957  37.185  43.738   0.914
11342W        W82958  30.496  37.977   0.641
11343W        W82959  16.625  34.413  12.911
11344W        W82960  23.739  21.801  14.424
11345W        W82961  27.967   3.570  12.952
11346W        W82962  22.358  26.725  11.577
11347W        W82963  17.096  13.357   2.881
11348W        W82964  18.049  41.354  14.505
11349W        W82965  31.527  42.864   4.983
11350W        W82966  17.239  21.029  14.337
11351W        W82967  29.255   3.057   9.883
11352W        W82968  34.526  17.659   4.604
11353W        W82969  15.183   2.428  12.590
11354W        W82970  37.993   5.044  13.428
11355W        W82971   0.892  42.514  13.680
11356W        W82972  30.928  21.797   1.238
11357W        W82973  31.642   8.610  14.501
11358W        W82974  34.707  36.608  12.871
11359W        W82975  38.619  11.973  14.759
11360W        W82976  14.716  37.822  14.562
11361W        W82977  38.858  18.277   1.975
11362W        W82978  41.981  40.057   3.247
11363W        W82979  25.672  27.607  14.868
11364W        W82980   8.396  34.403  13.335
11365W        W82981  38.310   5.180   4.098
11366W        W82982  19.126   9.769   2.943
11367W        W82983  27.996  34.135  12.114
11368W        W82984  28.669  18.665   2.594
11369W        W82985  25.965   2.729  12.433
11370W        W82986  26.393   7.153   2.343
11371W        W82987  37.967   2.476   0.438
11372W        W82988   1.275   6.731   4.565
11373W        W82989  28.535  31.843  10.524
11374W        W82990  15.824  19.665   4.920
11375W        W82991  41.910  35.788  14.300
11376W        W82992  26.403   8.301  14.866
11377W        W82993   3.368   9.490   2.235
11378W        W82994   7.575  24.490  13.529
11379W        W82995  13.312  40.423  12.001
11380W        W82996  44.087  26.545  12.035
11381W        W82997  11.803  12.952   0.406
11382W        W82998  29.936   0.316  13.509
11383W        W82999  29.391   6.618  14.260
11384W        W83000  38.945  32.979  10.494
11385W        W83001   3.543  28.998  10.473
11386W        W83002  43.235   6.899  14.019
11387W        W83003  33.561  44.025  11.608
11388W        W83004  34.017  44.440   4.960
11389W        W83005  16.061   6.174   0.461
11390W        W83006  40.883   3.276  13.306
11391W        W83007  28.762  40.331  12.942
11392W        W83008  40.360   8.624  12.796
11393W        W83009  19.181  28.234  10.719
11394W        W83010  25.339  36.090  12.395
11395W        W83011  42.048  19.676  14.795
11396W        W83012  33.323  11.445  13.977
11397W        W83013  39.518  22.669  13.704
11398W        W83014  15.107  16.861   1.691
11399W        W83015   9.815  33.026  10.748
11400W        W83016  37.847  25.464   4.117
11401W        W83017   3.514  44.711  13.982
11402W        W83018  19.203   4.303  12.013
11403W        W83019  28.603  27.391   3.399
11404W        W83020  12.165   8.262   0.882
11405W        W83021  16.576  25.179  11.121
11406W        W83022  34.510  31.608   2.719
11407W        W83023  31.167  11.201   1.870
11408W        W83024   6.744  27.419  14.473
11409W        W83025   7.311  27.178   2.722
11410W        W83026   2.485  31.858   3.594
11411W        W83027   5.577  20.459   4.168
11412W        W83028  22.577  28.136  14.794
11413W        W83029  26.403  29.539  12.561
11414W        W83030  44.416  40.932  10.247
11415W        W83031   0.376  28.445  11.423
11416W        W83032  25.099  23.234   4.181
11417W        W83033  11.854  32.601  10.722
11418W        W83034  21.219  40.767  14.281
11419W        W83035   7.804  31.056   2.603
11420W        W83036  23.747   8.681   1.844
11421W        W83037  10.326  20.568  14.952
11422W        W83038  34.485   6.458   3.261
11423W        W83039  13.548   0.728  13.453
11424W        W83040   9.784  36.533   2.330
11425W        W83041  22.166  17.133   4.113
11426W        W83042  40.439  36.355  14.752
11427W        W83043  42.348  39.463   2.133
11428W        W83044  21.097  44.267  14.979
11429W        W83045  34.784  12.803  11.488
11430W        W83046  29.113  31.547  14.777
11431W        W83047  19.154   5.153  10.643
11432W        W83048  11.699  18.521   3.436
11433W        W83049  39.926   6.327   4.408
11434W        W83050  36.873   9.104  13.912
11435W        W83051  23.474  36.424   3.099
11436W        W83052  17.172  25.522   1.802
11437W        W83053  37.341  21.020   1.840
11438W        W83054   6.266  34.580  13.455
11439W        W83055  20.812  44.835  12.612
11440W        W83056   0.118  42.758   2.282
11441W        W83057  26.914  43.283  12.325
11442W        W83058  32.428  36.791  12.906
11443W        W83059  36.289   3.804  13.801
11444W        W83060  23.918  16.793  11.616
11445W        W83061   1.258  33.089  11.526
11446W        W83062  14.564  41.399  14.070
11447W        W83063  11.378  13.551   3.195
11448W        W83064  14.536  17.317   0.903
11449W        W83065  18.527   7.620  13.462
11450W        W83066  34.639  26.194   0.456
11451W        W83067   1.879  35.262   3.859
11452W        W83068   7.869  31.519  11.317
11453W        W83069  29.208  24.181   1.441
11454W        W83070  22.083   4.283  10.759
11455W        W83071   9.215  26.999   2.289
11456W        W83072  22.344   3.903   2.893
11457W        W83073  16.747  18.695   3.446
11458W        W83074  22.475   9.385  11.548
11459W        W83075  10.594  38.074   2.915
11460W        W83076  39.262  24.737  12.108
11461W        W83077  37.027   6.967  10.644
11462W        W83078  38.640  12.091  13.830
11463W        W83079   7.245  29.768   0.371
11464W        W83080  33.126  13.256  10.625
11465W        W83081  44.883  34.991  14.730
11466W        W83082  10.246   5.896   3.368
11467W        W83083  30.447  33.939  13.097
11468W        W83084  22.148  26.643   0.876
11469W        W83085  23.287  27.411   1.233
11470W        W83086   3.478  30.920   3.173
11471W        W83087  30.093   8.260   1.273
11472W        W83088  41.781  16.717   0.330
11473W        W83089  23.304  14.527   4.581
11474W        W83090  19.450  32.773   4.552
11475W        W83091   3.227  35.833   0.354
11476W        W83092  22.818  25.642   0.258
11477W        W83093  41.490   4.700  10.791
11478W        W83094   5.268  16.798  11.162
11479W        W83095  12.371  42.483  10.733
11480W        W83096  34.191  37.022   0.282
11481W        W83097   1.500   9.390   2.287
11482W        W83098  36.641   4.903  13.522
11483W        W83099  28.019  12.085  11.536
11484W        W83100  16.103   2.287   4.899
11485W        W83101  14.780   8.677  12.943
11486W        W83102  35.928  11.803  10.690
11487W        W83103  14.612  28.186  12.518
11488W        W83104  18.023  18.328   3.689
11489W        W83105  31.655   8.098  13.400
11490W        W83106  22.301   1.066  13.051
11491W        W83107  29.691  38.499   2.239
11492W        W83108  25.616  35.609  14.844
11493W        W83109  15.746  24.033   4.469
11494W        W83110  24.064  15.791  10.348
11495W        W83111   3.779  14.431   3.700
11496W        W83112  30.624  22.669   4.553
11497W        W83113  37.614  15.179  11.389
11498W        W83114  32.365  43.819  14.980
11499W        W83115  44.952  23.273   3.560
11500W        W83116   7.991  18.234  14.826
11501W        W83117  13.274  40.304  13.533
11502W        W83118   7.286   9.508  12.941
11503W        W83119  29.495   8.620  14.859
11504W        W83120  13.858  32.859   0.282
11505W        W83121  19.653  19.245   4.213
11506W        W83122  38.922   8.739  11.630
11507W        W83123   6.262  38.508  13.212
11508W        W83124  41.510  35.574  12.456
11509W        W83125   6.454  39.058   1.326
11510W        W83126   4.652  31.461  13.641
11511W        W83127  37.162  19.640  12.561
11512W        W83128   1.803  19.088   1.415
11513W        W83129  15.612   3.667   5.491
11514W        W83130  40.929  18.235   2.907
11515W        W83131  42.425  43.946  13.582
11516W        W83132  11.025  20.973  12.536
11517W        W83133  12.748  27.680  11.771
11518W        W83134   0.875   3.498   3.051
11519W        W83135  12.076   0.926  11.209
11520W        W83136  25.811  34.902   4.125
11521W        W83137  40.885  16.529  11.060
11522W        W83138  43.331  41.109  11.993
11523W        W83139   0.508   6.352   0.895
11524W        W83140  36.361  36.975  10.614
11525W        W83141   4.169  16.874  11.147
11526W        W83142  14.079  11.301  12.536
11527W        W83143  43.888  25.580   4.080
11528W        W83144  41.726  16.271  12.042
11529W        W83145  27.513  24.361   0.676
11530W        W83146  36.267  37.475  12.847
11531W        W83147  12.112  19.800  12.770
11532W        W83148  37.578   6.454  13.120
11533W        W83149  17.409  35.944   2.223
11534W        W83150   4.805  19.469  13.884
11535W        W83151  20.356  19.772   4.054
11536W        W83152  41.070  37.287   2.109
11537W        W83153  33.544  17.611  11.473
11538W        W83154  12.445  13.636   2.971
11539W        W83155  17.112  16.722  10.545
11540W        W83156  13.680  31.507   1.666
11541W        W83157  43.515  11.376  13.444
11542W        W83158   8.720  31.907  14.912
11543W        W83159  20.565   1.941  13.451
11544W        W83160  16.210  12.890  14.271
11545W        W83161   7.606  27.614   2.787
11546W        W83162  43.266  44.331  11.896
11547W        W83163  23.763  15.918  12.447
11548W        W83164  16.310  36.675   2.316
11549W        W83165  35.992   3.978  12.590
11550W        W83166  37.409  20.456  12.040
11551W        W83167   0.062  40.610  13.100
11552W        W83168  34.574  14.186   0.924
11553W        W83169  15.664  34.611   1.305
11554W        W83170  42.867  26.990  11.043
11555W        W83171  34.079  33.947  11.393
11556W        W83172   7.971  29.862  11.239
11557W        W83173  21.485   8.582   0.825
11558W        W83174  40.499  20.011  12.367
11559W        W83175  35.868  15.196  11.865
11560W        W83176  30.792   1.302   4.604
11561W        W83177  36.486  42.398   4.879
11562W        W83178  32.149   8.378  11.567
11563W        W83179   0.448  19.090  12.384
11564W        W83180   5.804  31.914   3.335
11565W        W83181   1.785  18.557   1.478
11566W        W83182  34.165  18.252  11.465
11567W        W83183  38.940  22.576   1.408
11568W        W83184  17.304  21.243   1.185
11569W        W83185  30.450  44.811   3.410
11570W        W83186  38.996  13.998   2.337
11571W        W83187  29.565  25.239  11.653
11572W        W83188  14.326  37.062   2.268
11573W        W83189  34.872  17.442  10.031
11574W        W83190   2.664  37.477   4.692
11575W        W83191  39.552  18.724   2.264
11576W        W83192  10.078  32.387  12.468
11577W        W83193  28.198  39.875   1.676
11578W        W83194   0.029   3.561  11.700
11579W        W83195   0.200   5.899   3.676
11580W        W83196  22.411  11.786  14.620
11581W        W83197  32.917   3.260  10.709
11582W        W83198  36.423  25.646   0.767
11583W        W83199  22.007  32.066   0.202
11584W        W83200   9.481   5.969  13.919
11585W        W83201  32.866  38.328   4.174
11586W        W83202  34.527  43.186  13.508
11587W        W83203  38.577  35.452   2.625
11588W        W83204  38.327  28.450   3.870
11589W        W83205  23.404   7.781   4.523
11590W        W83206   2.909  10.967   0.416
11591W        W83207  11.580   9.651  11.118
11592W        W83208  39.575  42.914   0.802
11593W        W83209   4.327  30.357  12.366
11594W        W83210  22.491  25.197   0.215
11595W        W83211  26.861  36.002  13.073
11596W        W83212   2.271  42.859  12.253
11597W        W83213   2.711  13.556  14.581
11598W        W83214  43.131  35.384   0.171
11599W        W83215  42.234  31.816   3.059
11600W        W83216  23.708  11.577   1.513
11601W        W83217   6.819  29.725   3.271
11602W        W83218  18.725  31.877  13.424
11603W        W83219   0.321  30.459   3.373
11604W        W83220   3.484  32.589   4.710
11605W        W83221   7.180  39.677  14.529
11606W        W83222  24.510  28.553   4.792
11607W        W83223   7.011  22.684   4.144
11608W        W83224   1.015  27.093   1.012
11609W        W83225  15.271  37.255   0.790
11610W        W83226   8.628  21.842  13.893
11611W        W83227  29.011   7.249  11.170
11612W        W83228  11.825  24.761  10.784
11613W        W83229   4.506  31.945  11.412
11614W        W83230  22.047   4.212   0.030
11615W        W83231  43.408  42.964  14.400
11616W        W83232  36.863  36.011  11.044
11617W        W83233  39.762  43.056   4.429
11618W        W83234  23.085   5.519  12.120
11619W        W83235   8.898  21.115   4.629
11620W        W83236  36.898  39.297   4.891
11621W        W83237  35.166  44.010  12.400
11622W        W83238  38.124  37.415  13.590
11623W        W83239  20.906  40.023  13.983
11624W        W83240  13.210  40.379   3.421
11625W        W83241   5.972  31.932  11.021
11626W        W83242  15.775  21.770   0.969
11627W        W83243  34.374  32.102   2.705
11628W        W83244  43.195  44.186   2.230
11629W        W83245  40.091   2.715  14.509
11630W        W83246  11.619  37.008   3.881
11631W        W83247  39.492  39.142  13.036
11632W        W83248   6.736  18.811   3.878
11633W        W83249  10.011  15.214   1.465
11634W        W83250  41.667  21.713  11.106
11635W        W83251  33.888   3.029  12.546
11636W        W83252   1.937  19.979   1.827
11637W        W83253  16.823   8.240   0.820
11638W        W83254  34.574  33.490   1.869
11639W        W83255   5.955  21.506   0.022
11640W        W83256   2.698  12.750   0.742
11641W        W83257   6.197   9.298  11.101
11642W        W83258  28.134  37.957  10.013
11643W        W83259  34.426  13.562   2.819
11644W        W83260   7.848  30.603   1.702
11645W        W83261  25.989  12.299  13.103
11646W        W83262  40.934  37.908  14.504
11647W        W83263  26.959  10.486  14.370
11648W        W83264  32.404  22.581   2.425
11649W        W83265  21.412  44.775   2.894
11650W        W83266   5.124  37.292   0.874
11651W        W83267   0.747  17.721   1.476
11652W        W83268  31.465  20.127   1.257
11653W        W83269  29.100   5.930   4.005
11654W        W83270  23.652   6.673  12.240
11655W        W83271  10.482  42.009  13.920
11656W        W83272  10.707  30.684  14.197
11657W        W83273  17.051  37.055   4.286
11658W        W83274   5.238  31.506  12.963
11659W        W83275  31.369  29.390   0.706
11660W        W83276  38.843   2.977   2.625
11661W        W83277  24.741  40.055  13.141
11662W        W83278  39.284   9.836   0.939
11663W        W83279  33.871  11.938  12.024
11664W        W83280  41.945   6.659  10.479
11665W        W83281  29.926  14.623  14.436
11666W        W83282  22.743  14.184  11.265
11667W        W83283   3.877  35.027  13.368
11668W        W83284  15.342  31.991   1.323
11669W        W83285   5.284  11.846  12.443
11670W        W83286  15.699   4.174   2.709
11671W        W83287  17.541  44.234  10.132
11672W        W83288  24.915  16.828   4.123
11673W        W83289  13.123  12.752  12.546
11674W        W83290  32.379  31.072   4.126
11675W        W83291  26.172  32.215   3.641
11676W        W83292  21.113  42.772  14.803
11677W        W83293  15.109   8.936  11.693
11678W        W83294   9.335  30.356  13.798
11679W        W83295  42.541   5.852   2.693
11680W        W83296  26.057   2.031  13.854
11681W        W83297  19.076  30.043   2.896
11682W        W83298  34.394  35.957   1.742
11683W        W83299  37.471   0.376  12.205
11684W        W83300  44.200  24.963   3.255
11685W        W83301  21.345  23.605   2.590
11686W        W83302  37.183   1.077  11.137
11687W        W83303  13.710  16.079  14.264
11688W        W83304  42.922  12.108  12.959
11689W        W83305  44.758  35.391   0.400
11690W        W83306  37.927   7.423   3.311
11691W        W83307  23.356  40.788  12.011
11692W        W83308  37.390   8.355  12.530
11693W        W83309  35.068   4.613   0.916
11694W        W83310  10.292  25.947  12.980
11695W        W83311   6.086  36.955   4.275
11696W        W83312  27.007  15.313  12.614
11697W        W83313  25.727  43.032  12.562
11698W        W83314  30.647  25.252  11.538
11699W        W83315  22.584  37.126  14.955
11700W        W83316  13.813   0.215   3.168
11701W        W83317  18.295  37.587  12.507
11702W        W83318   0.683   5.617   1.319
11703W        W83319   3.888  37.144   2.924
11704W        W83320  32.550  13.382  11.415
11705W        W83321   5.250  29.633   1.691
11706W        W83322  18.169  26.068   0.471
11707W        W83323   2.405  39.854  13.067
11708W        W83324   1.491  44.818   3.726
11709W        W83325  32.006   5.176   3.680
11710W        W83326  11.622   1.019   4.671
11711W        W83327  26.934  10.641  11.864
11712W        W83328  19.320   5.671  12.239
11713W        W83329  42.190  21.750  11.878
11714W        W83330  42.020   9.335  11.757
11715W        W83331  33.129  38.090  11.099
11716W        W83332  14.026  35.796   0.877
11717W        W83333   8.712  12.361  11.876
11718W        W83334  23.164  30.170   2.925
11719W        W83335   4.528  42.963  13.082
11720W        W83336  43.581  34.953   3.969
11721W        W83337   5.106  10.825  10.689
11722W        W83338  19.139   3.985  13.516
11723W        W83339  34.390   0.410  11.503
11724W        W83340  22.696  15.627   4.451
11725W        W83341  31.118  36.436  10.427
11726W        W83342  44.676   2.372  12.144
11727W        W83343  16.588  25.089   3.323
11728W        W83344  26.045  43.474   0.173
11729W        W83345  11.318  40.854   2.460
11730W        W83346  16.090  36.871   2.765
11731W        W83347  29.095  41.006   0.266
11732W        W83348   9.862  41.822  10.880
11733W        W83349  39.379  26.273   4.174
11734W        W83350  33.416  23.561   1.324
11735W        W83351  34.502  34.004   1.994
11736W        W83352  42.634  34.109   3.207
11737W        W83353  35.057  32.212  12.848
11738W        W83354   0.438  35.478   5.121
11739W        W83355  31.115  10.859   3.627
11740W        W83356  26.428  42.405  13.734
11741W        W83357  41.325  20.079  13.837
11742W        W83358  18.089  30.919  13.409
11743W        W83359  21.151  26.053   4.495
11744W        W83360   2.483  14.592   0.437
11745W        W83361  32.940  31.573  14.465
11746W        W83362  10.252  37.934  14.420
11747W        W83363   6.243  41.515   0.336
11748W        W83364  35.941  26.724   2.661
11749W        W83365  35.156  23.625   4.236
11750W        W83366   7.311   5.779  14.855
11751W        W83367  23.644  34.098  13.436
11752W        W83368  25.542  34.489   0.285
11753W        W83369   7.939  32.819  11.651
11754W        W83370   3.374  13.913   4.277
11755W        W83371  11.068  43.770   2.273
11756W        W83372   8.186  40.302   2.612
11757W        W83373  20.360   7.377   4.841
11758W        W83374  34.365  32.374   0.690
11759W        W83375  16.078  15.199   5.511
11760W        W83376  25.212  18.583  12.692
11761W        W83377  11.698   5.772   2.568
11762W        W83378  29.871   2.084  13.870
11763W        W83379  24.146  29.255  11.219
11764W        W83380   8.972  26.477  12.112
11765W        W83381   0.796  39.509  14.494
11766W        W83382  24.453  42.296  11.521
11767W        W83383  40.091  35.516  11.944
11768W        W83384  31.374  34.883  11.562
11769W        W83385  20.975  41.630  12.861
11770W        W83386  28.175   0.937   2.203
11771W        W83387  34.831  25.113   4.755
11772W        W83388  34.105  12.029   0.501
11773W        W83389  35.421  38.868  12.521
11774W        W83390  41.421  32.209  11.003
11775W        W83391  42.895  13.243   4.318
11776W        W83392   5.600   6.033  10.932
11777W        W83393  25.573  35.752   2.552
11778W        W83394   0.758  39.443   1.997
11779W        W83395  31.492   8.428  12.041
11780W        W83396  38.278  20.946   1.893
11781W        W83397  11.738  40.047  12.815
11782W        W83398  27.849  15.742   0.024
11783W        W83399   6.280  30.701  10.674
11784W        W83400  22.453   3.414   4.352
11785W        W83401  16.734  22.656  13.701
11786W        W83402  41.814  25.222   1.348
11787W        W83403  11.470  15.165  11.188
11788W        W83404  41.041  11.228  14.769
11789W        W83405  35.621  10.831   0.974
11790W        W83406  35.613  39.057   4.391
11791W        W83407   2.890  42.835   1.820
11792W        W83408   5.238  11.578   4.324
11793W        W83409   3.343   4.843   4.075
11794W        W83410  27.049  18.867   4.086
11795W        W83411  25.142  20.674   4.312
11796W        W83412   5.546  22.857   0.834
11797W        W83413  32.562  16.260  14.990
11798W        W83414   6.327  14.235  14.192
11799W        W83415  10.395  18.514   2.306
11800W        W83416  39.423  16.102  10.345
11801W        W83417  43.282  28.198   4.140
11802W        W83418  38.482  25.492   1.815
11803W        W83419   0.488  39.316   3.986
11804W        W83420  42.333   3.273  12.101
11805W        W83421   1.438   1.012   0.303
11806W        W83422  33.930  39.451  12.621
11807W        W83423  10.849   0.378   2.289
11808W        W83424  29.440   3.974   0.406
11809W        W83425  10.228   0.352  10.060
11810W        W83426  11.803  26.696   3.290
11811W        W83427  14.069  27.019  11.548
11812W        W83428  39.340   6.276  10.070
11813W        W83429  24.213  28.197   0.348
11814W        W83430   3.977  11.748   2.733
11815W        W83431  14.559  23.466  14.335
11816W        W83432   1.745  30.580   3.719
11817W        W83433  11.808  19.512   2.552
11818W        W83434  26.966  32.480   1.409
11819W        W83435  38.864  16.858   4.536
11820W        W83436  41.468  40.410  13.916
11821W        W83437   5.366  14.280  14.989
11822W        W83438  43.435  22.174   0.258
11823W        W83439  12.623  29.625  14.819
11824W        W83440   9.908  11.818   0.317
11825W        W83441  26.100   6.892   1.692
11826W        W83442   2.451   6.551  11.293
11827W        W83443  15.302   2.447   3.390
11828W        W83444   7.323  26.020   0.811
11829W        W83445   4.872  10.944  14.303
11830W        W83446  18.856  38.031   1.328
11831W        W83447  44.309   7.014   2.407
11832W        W83448  43.036   4.264   4.191
11833W        W83449  20.040  27.160  14.843
11834W        W83450  36.978  43.275  12.015
11835W        W83451  43.018  10.102   3.592
11836W        W83452  30.860  17.137   4.121
11837W        W83453  34.668   7.634   1.285
11838W        W83454  15.737  44.835  14.252
11839W        W83455   3.701  41.086   4.486
11840W        W83456   6.430  40.782   2.288
11841W        W83457  28.881  43.264  13.973
11842W        W83458  26.738  41.536   0.590
11843W        W83459  32.579  29.148   4.628
11844W        W83460  32.565  33.604  14.169
11845W        W83461  22.300   5.719   3.227
11846W        W83462   6.675  43.620  14.821
11847W        W83463   5.384  32.489   1.714
11848W        W83464  26.925   9.930   4.174
11849W        W83465   4.257  24.260   2.188
11850W        W83466  41.477  40.061   3.376
11851W        W83467  35.044   6.235  12.946
11852W        W83468  20.141  42.910   4.146
11853W        W83469  20.019  37.334   2.436
11854W        W83470  33.446  37.362  12.243
11855W        W83471  28.111  43.857   4.698
11856W        W83472  33.450  21.223  12.485
11857W        W83473  36.640  28.126   2.375
11858W        W83474   6.965  27.149   3.133
11859W        W83475   3.395   2.984   3.672
11860W        W83476  23.380  16.194   0.318
11861W        W83477   1.259  36.635  12.618
11862W        W83478  25.498  30.969  11.645
11863W        W83479  21.605  29.949  11.605
11864W        W83480  34.774   9.609   1.059
11865W        W83481  23.546  18.581  12.635
11866W        W83482  30.640  29.111   0.683
11867W        W83483   5.233  37.304   4.601
11868W        W83484   8.592  44.971   0.863
11869W        W83485   9.746  35.077   2.241
11870W        W83486  35.286  27.580   0.795
11871W        W83487  27.797  12.725  11.245
11872W        W83488  44.410  20.717  11.612
11873W        W83489   7.911  14.523  11.072
11874W        W83490   6.664   6.696  11.286
11875W        W83491  25.455  10.923   2.175
11876W        W83492   4.432   8.815   1.884
11877W        W83493  40.002  20.796   1.242
11878W        W83494  43.773  40.348  11.963
11879W        W83495  19.349   2.759  11.809
11880W        W83496  42.582  16.759   2.702
11881W        W83497  11.547  22.644  14.223
11882W        W83498  18.481  17.766   2.604
11883W        W83499  10.077  22.531   5.019
11884W        W83500  43.021   6.829   2.713
11885W        W83501  43.578  25.085  12.685
11886W        W83502  15.408  33.543   2.975
11887W        W83503  14.081   9.338   0.716
11888W        W83504  39.026  25.303   2.928
11889W        W83505  21.575   8.669   4.099
11890W        W83506  11.737  26.766   0.733
11891W        W83507  44.817  39.140  14.022
11892W        W83508  33.423   3.227   1.645
11893W        W83509  39.021  30.657   0.251
11894W        W83510   0.346   9.722   0.497
11895W        W83511   1.547  29.477   2.696
11896W        W83512  42.270  36.464  11.124
11897W        W83513  33.911   4.687   2.812
11898W        W83514  37.810  28.571   4.062
11899W        W83515  25.946  38.382  13.912
11900W        W83516  32.609   1.262   4.502
11901W        W83517  11.877  27.020   1.197
11902W        W83518  19.676  42.881  12.574
11903W        W83519  11.886  27.241   3.940
11904W        W83520  35.103   1.526   0.743
11905W        W83521   4.426  15.813   2.189
11906W        W83522  25.556  30.151  13.508
11907W        W83523  24.798  19.348   4.613
11908W        W83524  27.805  26.475  12.262
11909W        W83525  16.671  29.200   4.176
11910W        W83526  42.463  21.318  14.367
11911W        W83527  29.923  22.450  12.033
11912W        W83528  33.702  44.450   2.232
11913W        W83529  23.537  42.551  10.693
11914W        W83530  17.917  43.312   5.108
11915W        W83531  18.873  23.681   2.731
11916W        W83532  42.671  35.341  14.856
11917W        W83533  12.422  41.815   2.433
11918W        W83534  25.118  20.123  11.193
11919W        W83535   7.755  44.622   5.088
11920W        W83536  30.517   4.817   2.322
11921W        W83537  18.560  19.403  10.437
11922W        W83538  18.252  26.957  13.521
11923W        W83539   1.794  13.749  14.786
11924W        W83540   2.741  42.042  12.159
11925W        W83541  10.854   9.380  13.452
11926W        W83542  24.556   6.108  11.188
11927W        W83543  22.649   7.206  13.810
11928W        W83544  17.718  26.249  12.982
11929W        W83545  22.369  21.674   3.646
11930W        W83546   9.518  12.651   4.008
11931W        W83547  21.058  17.558   0.081
11932W        W83548   4.043  18.747  11.541
11933W        W83549   1.779  36.160  14.667
11934W        W83550  33.821  36.587  13.111
11935W        W83551  32.205   6.734  13.016
11936W        W83552  17.597   7.202   2.660
11937W        W83553  26.685  44.353   4.951
11938W        W83554  35.784  17.793  13.031
11939W        W83555  17.023   8.367   2.466
11940W        W83556  35.124  30.554  12.637
11941W        W83557  23.328   0.775  13.882
11942W        W83558  32.601  24.741   4.619
11943W        W83559  19.080  38.729  12.351
11944W        W83560  25.671  28.044   4.535
11945W        W83561  26.677  44.019   2.137
11946W        W83562  38.006  28.226  12.133
11947W        W83563   7.325  30.950   2.386
11948W        W83564  42.463  21.579   0.860
11949W        W83565  10.279  33.185   3.671
11950W        W83566  22.376  29.178  14.147
11951W        W83567  17.545  15.358   4.080
11952W        W83568  14.800  41.024   2.499
11953W        W83569   3.937  23.070   3.535
11954W        W83570  10.177  34.679   1.180
11955W        W83571  35.628   7.607  12.043
11956W        W83572  32.494  37.950   3.408
11957W        W83573  30.440  31.243  11.595
11958W        W83574   7.694   0.804   0.854
11959W        W83575  16.502  43.298   2.726
11960W        W83576  18.217  38.636   4.181
11961W        W83577  18.462  44.774  10.251
11962W        W83578  42.743  43.928   4.686
11963W        W83579  44.962  38.220   9.587
11964W        W83580   2.269  40.689   2.681
11965W        W83581  21.050  29.948   2.629
11966W        W83582   4.867  41.095   4.960
11967W        W83583  18.676  31.968  14.830
11968W        W83584  13.179  27.219   1.803
11969W        W83585  28.864  39.805  12.190
11970W        W83586  44.452   4.520   0.069
11971W        W83587   8.586   2.827  10.963
11972W        W83588  40.013  18.088  12.941
11973W        W83589  17.512  24.555  14.854
11974W        W83590  42.667  34.003  12.870
11975W        W83591   8.286  38.020  10.934
11976W        W83592  11.457  33.377   4.259
11977W        W83593  13.308  12.833  12.031
11978W        W83594  32.459  44.418   5.444
11979W        W83595  17.084   2.366   1.690
11980W        W83596  31.506   6.056   0.046
11981W        W83597   0.738  28.602   3.296
11982W        W83598  42.514  34.524  10.552
11983W        W83599   0.752  29.607  10.712
11984W        W83600   5.612   1.340  14.852
11985W        W83601   5.432  25.126  12.898
11986W        W83602  42.354  36.813   2.335
11987W        W83603  19.548   5.477  13.806
11988W        W83604  40.833   3.286  13.833
11989W        W83605  31.389  27.125  11.087
11990W        W83606  32.238  17.162   2.235
11991W        W83607  30.723   6.960   3.931
11992W        W83608  23.388  11.663  14.950
11993W        W83609   2.203  10.301   4.246
11994W        W83610   2.904  39.619  14.867
11995W        W83611  16.572  15.287   3.174
11996W        W83612  33.832   3.531  10.588
11997W        W83613   6.556  28.584   4.103
11998W        W83614  27.445  18.078   2.868
11999W        W83615  12.924  29.100  13.310
12000W        W83616  10.586  16.881   2.829
12001W        W83617   2.848  11.702  12.885
12002W        W83618  20.703   5.949  12.579
12003W        W83619   3.477   5.319   0.362
12004W        W83620   9.701  17.594  14.806
12005W        W83621  16.314   6.784  12.618
12006W        W83622  12.493   5.446  14.012
12007W        W83623  13.127  32.983  14.927
12008W        W83624  43.223  44.880  11.115
12009W        W83625  17.069   3.753   0.447
12010W        W83626  19.390  43.974   3.707
12011W        W83627  44.661  29.491   5.112
12012W        W83628   7.906   6.184  12.593
12013W        W83629   3.982  16.188  10.639
12014W        W83630   3.027   0.875  10.675
12015W        W83631  32.860  17.988   2.256
12016W        W83632  40.523  18.309   1.182
12017W        W83633  42.835  30.537  13.045
12018W        W83634  33.369  43.863  14.891
12019W        W83635  30.812  23.005  11.372
12020W        W83636   0.311  24.909   2.702
12021W        W83637  37.434   4.817  13.025
12022W        W83638  37.929  31.583  13.530
12023W        W83639  40.465   8.266   0.408
12024W        W83640  20.272  20.614  12.870
12025W        W83641   5.611   9.234   3.286
12026W        W83642  27.011   1.099  14.284
12027W        W83643  26.216  25.298  11.056
12028W        W83644  44.035  11.726  11.237
12029W        W83645  28.421   0.051   0.335
12030W        W83646  39.652  21.269   2.094
12031W        W83647  27.018  29.180  13.694
12032W        W83648  17.203  28.721  10.453
12033W        W83649  28.277  15.214  12.677
12034W        W83650  37.898  38.619   1.411
12035W        W83651  42.989  30.967   1.309
12036W        W83652   6.317  44.366  10.711
12037W        W83653  23.775  20.715   3.185
12038W        W83654   0.612   8.209  10.762
12039W        W83655  11.827  17.619  12.519
12040W        W83656  33.458   3.729   4.439
12041W        W83657   1.997  36.252   1.929
12042W        W83658  14.957  23.791   1.382
12043W        W83659  34.208  16.815  14.015
12044W        W83660  43.313  19.496  11.504
12045W        W83661  40.955  20.168   4.926
12046W        W83662  16.252  28.432  10.769
12047W        W83663   8.365   1.369  14.450
12048W        W83664  35.117  25.891   1.272
12049W        W83665  27.915  32.362   1.396
12050W        W83666   9.452  41.707  11.152
12051W        W83667  40.414   3.636   4.534
12052W        W83668   0.914  11.774  11.072
12053W        W83669  11.320   7.625  14.396
12054W        W83670   5.378  15.945  12.345
12055W        W83671   9.322  18.286  13.434
12056W        W83672  27.646  11.648   1.293
12057W        W83673  10.097  32.642   2.301
12058W        W83674  31.547   4.459  14.158
12059W        W83675   7.840   4.973   2.671
12060W        W83676  38.087  12.381  12.442
12061W        W83677   3.411  11.634  12.910
12062W        W83678   5.366  26.678  13.782
12063W        W83679  19.394  10.451   1.199
12064W        W83680  17.452   0.012   3.210
12065W        W83681  31.862  34.961  11.504
12066W        W83682  18.575  18.292  13.081
12067W        W83683   7.392   0.503   0.499
12068W        W83684  29.563  19.256   1.886
12069W        W83685  36.128  31.347   1.316
12070W        W83686  37.865  33.894  14.459
12071W        W83687  11.336  16.848  10.385
12072W        W83688   9.138  25.528  11.101
12073W        W83689  26.206   0.752   2.367
12074W        W83690  20.968  40.815   3.313
12075W        W83691  42.992  33.420   3.847
12076W        W83692   4.814  34.170  13.451
12077W        W83693  12.780  15.338  10.644
12078W        W83694   9.751  13.382   2.376
12079W        W83695  25.640  37.802   0.727
12080W        W83696  37.002  27.134   4.281
12081W        W83697  17.473  21.750  13.894
12082W        W83698  15.192   9.741  12.232
12083W        W83699  39.029  43.372  11.761
12084W        W83700  38.528  33.075   4.528
12085W        W83701  26.197  41.011   1.706
12086W        W83702  43.297   7.872   4.389
12087W        W83703  36.504  14.442  11.779
12088W        W83704  39.566  17.310  14.022
12089W        W83705  21.618  27.093   1.900
12090W        W83706  21.534  28.193   4.139
12091W        W83707  37.470  39.526   4.722
12092W        W83708  24.523   3.244   1.003
12093W        W83709  33.539  39.808   0.994
12094W        W83710  17.716  28.686   2.367
12095W        W83711   4.441  30.503   0.880
12096W        W83712   6.963   0.233  14.050
12097W        W83713   8.078  28.663   0.441
12098W        W83714  19.893  43.729   5.109
12099W        W83715   6.368   8.457  12.670
12100W        W83716  34.561  41.569   3.989
12101W        W83717  35.500  37.628   3.827
12102W        W83718  41.774  36.555   1.439
12103W        W83719  35.012  14.547  10.965
12104W        W83720  25.767  14.226  12.031
12105W        W83721  36.196  23.274  11.205
12106W        W83722   7.348  33.072  11.961
12107W        W83723  19.403  13.643   2.451
12108W        W83724   8.327  31.330   1.120
12109W        W83725   9.679  40.837   0.308
12110W        W83726  41.425   5.365   2.143
12111W        W83727  21.652  31.372   2.215
12112W        W83728  35.513  36.988   1.840
12113W        W83729  36.400   7.077   3.744
12114W        W83730   6.821  10.721   2.162
12115W        W83731   6.768  18.627  13.941
12116W        W83732   3.696  29.806   0.944
12117W        W83733  35.069  12.164   3.694
12118W        W83734  40.067  20.184  12.673
12119W        W83735  41.482  22.149  10.856
12120W        W83736  22.010  31.686   2.454
12121W        W83737  37.914  26.572   2.470
12122W        W83738  15.528  25.906   3.128
12123W        W83739   0.371  26.210   2.706
12124W        W83740  19.886  39.936   9.870
12125W        W83741  35.500  44.974   3.229
12126W        W83742  10.860  37.528   3.693
12127W        W83743  17.761   9.238  13.551
12128W        W83744  33.979   1.990  12.397
12129W        W83745  28.496  22.157  14.983
12130W        W83746  35.837  43.297  11.954
12131W        W83747   3.158  27.145   1.218
12132W        W83748   0.216  24.318   3.340
12133W        W83749  13.571  32.829  12.648
12134W        W83750  44.075   0.838   0.849
12135W        W83751  29.433  13.434   3.645
12136W        W83752   1.211  33.497   3.204
12137W        W83753  44.232  28.107   1.916
12138W        W83754  27.324  37.669   1.224
12139W        W83755  11.129  21.189  14.098
12140W        W83756   2.069  18.778  14.243
12141W        W83757  38.876  18.331   1.462
12142W        W83758  44.634  19.634   3.640
12143W        W83759   1.959   5.870   4.590
12144W        W83760   6.049  34.084  12.433
12145W        W83761  23.995   9.294  12.455
12146W        W83762  24.752  24.106   3.682
12147W        W83763  30.748  34.832  13.517
12148W        W83764  27.085  10.603  10.658
12149W        W83765  12.128  11.393  12.934
12150W        W83766  42.331  44.497  13.473
12151W        W83767   4.612  14.946   3.140
12152W        W83768  35.061   7.903   4.725
12153W        W83769  38.847  40.304  12.172
12154W        W83770   8.804   3.718  12.827
12155W        W83771  15.175  35.346  13.558
12156W        W83772  28.452   2.214  11.408
12157W        W83773  34.523  42.246  11.218
12158W        W83774   9.238  13.148   3.146
12159W        W83775  22.010  41.502  10.517
12160W        W83776  10.594   5.530  12.719
12161W        W83777  17.289  11.157  11.093
12162W        W83778   5.785  35.526  14.415
12163W        W83779  18.645  24.515   0.324
12164W        W83780  22.885  44.842  13.233
12165W        W83781   4.352  18.517   2.752
12166W        W83782  44.550  15.488  11.121
12167W        W83783  12.914  40.783   3.204
12168W        W83784  13.443   1.365  12.094
12169W        W83785  36.553   6.768   3.193
12170W        W83786  17.170   7.810  12.404
12171W        W83787   8.687  35.064  14.390
12172W        W83788  10.125  11.196  11.137
12173W        W83789  13.285  22.122   2.890
12174W        W83790   3.219  15.714   1.981
12175W        W83791  25.603  27.933  12.489
12176W        W83792   5.975  12.618  12.222
12177W        W83793   3.263  17.138  13.033
12178W        W83794  25.967  30.675  11.556
12179W        W83795  36.449  41.065  10.639
12180W        W83796   1.391   8.285  12.680
12181W        W83797  32.410  19.058   2.840
12182W        W83798   2.812  24.908   3.751
12183W        W83799  18.329   7.304  14.745
12184W        W83800  21.980  26.466   3.209
12185W        W83801  11.140  11.675   4.351
12186W        W83802  14.587   6.285  10.620
12187W        W83803  15.216  17.695  11.897
12188W        W83804   2.556  40.493   2.303
12189W        W83805  14.578  23.517  11.134
12190W        W83806  19.653  22.320  14.254
12191W        W83807   7.338   6.261   4.681
12192W        W83808  42.074  32.451  12.484
12193W        W83809   0.862  12.175  14.078
12194W        W83810  23.498  31.933   4.560
12195W        W83811  40.406   2.908   2.354
12196W        W83812  14.441  23.178  13.930
12197W        W83813  19.638  16.133  10.627
12198W        W83814  43.421  44.710  14.020
12199W        W83815  39.784  35.979  12.025
12200W        W83816  34.739  18.215  11.566
12201W        W83817  35.460  40.471   3.634
12202W        W83818   1.225  40.537   1.766
12203W        W83819  35.702  19.603   2.812
12204W        W83820   6.921  23.154   0.977
12205W        W83821  11.918   6.293   0.479
12206W        W83822  17.555  18.796   3.157
12207W        W83823  33.586  22.630   4.366
12208W        W83824  23.148   8.428  10.725
12209W        W83825   9.357   5.767   2.785
12210W        W83826   2.356  22.101   0.944
12211W        W83827  15.709  17.882  12.622
12212W        W83828  32.895   3.924  11.456
12213W        W83829  30.677  43.875   3.196
12214W        W83830  29.999  28.356  14.893
12215W        W83831  37.465  10.853   4.666
12216W        W83832   9.942  30.303  11.526
12217W        W83833  37.514  33.378   4.712
12218W        W83834  26.050  19.162   1.158
12219W        W83835  16.263  42.006  11.779
12220W        W83836  33.153  31.114   0.332
12221W        W83837   8.551  26.251  14.043
12222W        W83838  31.180  44.126   5.080
12223W        W83839  28.098  18.991  10.584
12224W        W83840  21.950  39.671  11.172
12225W        W83841  30.696   3.433   0.301
12226W        W83842  25.792  37.125   0.451
12227W        W83843   2.265   4.816   2.571
12228W        W83844  36.552  28.971   2.174
12229W        W83845   9.202  43.988   2.684
12230W        W83846  37.047  23.567  10.606
12231W        W83847  43.590  39.401   3.722
12232W        W83848  32.563  42.392  14.366
12233W        W83849  43.319   8.824  12.353
12234W        W83850   1.204  11.280  13.049
12235W        W83851  21.223  28.939   4.552
12236W        W83852   9.370  44.994  14.822
12237W        W83853  29.384   6.320   2.637
12238W        W83854  43.458   0.699  12.906
12239W        W83855  22.072   8.339  11.905
12240W        W83856  18.198  37.314   2.141
12241W        W83857  30.869  30.158   1.747
12242W        W83858  26.251   2.182  11.600
12243W        W83859  32.848  24.232   2.823
12244W        W83860   0.315  28.435   2.410
12245W        W83861  14.244   4.365   4.611
12246W        W83862  43.312  14.077   1.251
12247W        W83863   5.708  14.206   3.419
12248W        W83864  26.598  22.311  11.596
12249W        W83865   5.369   5.887  12.453
12250W        W83866   6.956   1.782   3.801
12251W        W83867  29.551   3.522   5.072
12252W        W83868  20.602  44.905   4.677
12253W        W83869  43.320  17.881   4.216
12254W        W83870  27.658  40.336   2.345
12255W        W83871   8.636  42.922   3.641
12256W        W83872   5.378  24.691   2.439
12257W        W83873  39.956  33.397  11.600
12258W        W83874  39.863   0.332   1.623
12259W        W83875  26.928  13.855   3.600
12260W        W83876  12.146   1.836  11.767
12261W        W83877  35.437  23.939  10.789
12262W        W83878  16.138  28.175   2.827
12263W        W83879   5.602  19.272   0.395
12264W        W83880  19.065  11.892  14.876
12265W        W83881  24.041  17.811   1.823
12266W        W83882   1.421  43.011   4.352
12267W        W83883  31.062   6.162   1.374
12268W        W83884  21.065  43.243  11.607
12269W        W83885  16.038  23.687   0.989
12270W        W83886  37.472  17.461  12.194
12271W        W83887  17.191  38.062   1.271
12272W        W83888  23.774  42.880   2.359
12273W        W83889  35.667   1.772  12.660
12274W        W83890   2.458  12.993  11.171
12275W        W83891  34.640   6.907   3.613
12276W        W83892  28.893   5.186   2.953
12277W        W83893   1.017   8.407  11.025
12278W        W83894  16.829  16.420  11.209
12279W        W83895   9.219  22.944   0.349
12280W        W83896  35.579  28.347  12.359
12281W        W83897  44.973  30.723   2.365
12282W        W83898   5.938  11.579  14.096
12283W        W83899   7.696  11.372  12.391
12284W        W83900   3.467   0.262   3.253
12285W        W83901  16.345  39.302  14.038
12286W        W83902  17.627  10.277  13.400
12287W        W83903   9.937  33.540  11.538
12288W        W83904   4.118  35.905   4.805
12289W        W83905  15.617  20.927   5.048
12290W        W83906  29.373   9.214   4.270
12291W        W83907  30.482   4.589  13.860
12292W        W83908  41.785  18.642   2.910
12293W        W83909  26.201  28.549  11.237
12294W        W83910  38.826  35.381   3.708
12295W        W83911  10.135   0.412  12.312
12296W        W83912  33.941   2.721  13.546
12297W        W83913  41.460   3.791  11.361
12298W        W83914   8.926  41.987  12.347
12299W        W83915  22.171   6.898  11.331
12300W        W83916  41.843  11.352  11.175
12301W        W83917  15.673   5.257   2.733
12302W        W83918  13.595   8.747   3.578
12303W        W83919  26.004  43.438  11.001
12304W        W83920  17.591   1.415   2.811
12305W        W83921  24.157  33.509  12.564
12306W        W83922  15.596  11.211  10.610
12307W        W83923  38.601   6.322   3.298
12308W        W83924   1.931  31.220   2.051
12309W        W83925  20.252   0.888   1.125
12310W        W83926  43.543  13.161  12.990
12311W        W83927  16.308  18.532  13.085
12312W        W83928  43.033  12.430  11.139
12313W        W83929   4.163  43.165   2.252
12314W        W83930  39.055  30.003  11.598
12315W        W83931  19.337  16.332   0.861
12316W        W83932  35.203  43.896   3.799
12317W        W83933  16.740  36.023   0.034
12318W        W83934   2.353  30.729   0.512
12319W        W83935  30.152  38.388   0.427
12320W        W83936  40.258  31.618   0.982
12321W        W83937  44.813  31.160  11.799
12322W        W83938  20.258  17.327   2.925
12323W        W83939  35.400   7.515   3.623
12324W        W83940  18.515  27.633   4.578
12325W        W83941  16.429  44.488   4.336
12326W        W83942  28.809  38.474   3.671
12327W        W83943   2.857  43.385  15.000
12328W        W83944  19.233  33.719  10.640
12329W        W83945   8.411  40.458  11.953
12330W        W83946  37.619  32.172  12.307
12331W        W83947   0.967  30.533   5.022
12332W        W83948  19.683  16.982  11.655
12333W        W83949  36.910  16.369  13.322
12334W        W83950  13.247   4.199  14.642
12335W        W83951   9.678  40.437  14.346
12336W        W83952  41.491   9.243  14.540
12337W        W83953   0.171   0.668  11.007
12338W        W83954  43.303  39.154   4.673
12339W        W83955  31.251  18.391   0.232
12340W        W83956  24.594  10.303  14.119
12341W        W83957  33.243  34.953  11.564
12342W        W83958  21.692  33.560  11.337
12343W        W83959   9.803  24.845  13.951
12344W        W83960  36.883  16.595   3.241
12345W        W83961  41.224  13.755  13.366
12346W        W83962  25.468  38.095  14.494
12347W        W83963  43.367  15.274  11.303
12348W        W83964  10.353  31.976  13.551
12349W        W83965   4.821   1.080   2.257
12350W        W83966  23.109  26.353  10.274
12351W        W83967   3.142  10.834  13.546
12352W        W83968  10.183  22.021  12.377
12353W        W83969  33.876  18.640  11.592
12354W        W83970  23.829  36.012  10.696
12355W        W83971  10.665  25.022   2.328
12356W        W83972  10.145   7.933   1.803
12357W        W83973  38.830  30.283   1.841
12358W        W83974   5.280  36.524  10.624
12359W        W83975  36.695  21.827  11.322
12360W        W83976  20.886  34.288   2.105
12361W        W83977  29.092  16.430  12.903
12362W        W83978  21.927  32.903  10.657
12363W        W83979  36.067   3.235   0.385
12364W        W83980   0.239  11.231  11.433
12365W        W83981  21.192   8.012  14.770
12366W        W83982  11.014   0.362  11.350
12367W        W83983  40.295  29.899   4.125
12368W        W83984  37.985  15.464   1.278
12369W        W83985   0.532  41.904   3.665
12370W        W83986  24.784   3.438   3.624
12371W        W83987  44.561  13.356   3.598
12372W        W83988  12.889   4.729   4.752
12373W        W83989  35.413   7.380  14.708
12374W        W83990  39.063  30.992   5.079
12375W        W83991   7.844  15.230   2.317
12376W        W83992  14.289  12.674   2.184
12377W        W83993  10.860  22.641  12.405
12378W        W83994  18.237  34.489   2.734
12379W        W83995  15.238  25.954  13.374
12380W        W83996  28.150   9.646   1.897
12381W        W83997  32.368  19.038   0.435
12382W        W83998   9.629  31.061   1.394
12383W        W83999  30.767   2.474  13.946
12384W        W84000  29.701  24.262   1.321
12385W        W84001  37.531  15.162   0.492
12386W        W84002  22.670  17.323  11.880
12387W        W84003   4.411  19.330  10.849
12388W        W84004  31.013   6.229  14.954
12389W        W84005  19.420  39.765  13.960
12390W        W84006   9.703  14.036  13.996
12391W        W84007   4.048  42.674   5.305
12392W        W84008  10.250   7.340  12.121
12393W        W84009  37.591  15.506  12.244
12394W        W84010  16.605  32.708  14.484
12395W        W84011  10.404  39.561   4.136
12396W        W84012  29.146  42.726  11.155
12397W        W84013   7.691  22.268  10.520
12398W        W84014   5.716  14.339   0.798
12399W        W84015  12.379  19.994  13.475
12400W        W84016   3.761   9.036  12.028
12401W        W84017   2.429  32.984  13.447
12402W        W84018  31.056   4.417   0.475
12403W        W84019  12.701  30.849  11.136
12404W        W84020   9.871  20.609   1.928
12405W        W84021  23.457   1.487   1.396
12406W        W84022  25.713  13.327  10.621
12407W        W84023  29.069   8.771   3.017
12408W        W84024  28.141  11.883   1.322
12409W        W84025  34.546   3.889  12.605
12410W        W84026  27.931  22.109  11.192
12411W        W84027  31.874   7.444   0.682
12412W        W84028  36.822  42.841   5.386
12413W        W84029  23.497  35.027  11.637
12414W        W84030  38.638  10.827  14.003
12415W        W84031  26.118  33.964  12.053
12416W        W84032  29.208  42.817   2.205
12417W        W84033  40.021  42.213  12.909
12418W        W84034  20.997  25.413  11.410
12419W        W84035   6.207  34.166   3.754
12420W        W84036  22.590  19.413   4.087
12421W        W84037  41.404  14.013   2.327
12422W        W84038   8.458  38.012  11.424
12423W        W84039  43.469  33.540  12.859
12424W        W84040  13.404  15.085  14.255
12425W        W84041  21.429  23.661  11.123
12426W        W84042  20.750  12.060  13.503
12427W        W84043  17.764  18.599   2.747
12428W        W84044   5.017  12.420  11.888
12429W        W84045  30.049  38.072   2.326
12430W        W84046  10.061   7.950   0.938
12431W        W84047  43.473  16.299   2.674
12432W        W84048  20.743  16.698  14.055
12433W        W84049  26.280  21.989   2.237
12434W        W84050  34.693  38.782   3.687
12435W        W84051  16.922  14.035   1.614
12436W        W84052  18.723   9.090  13.577
12437W        W84053  39.385  27.673  13.932
12438W        W84054  43.279   3.971  11.277
12439W        W84055  37.612  28.539  11.429
12440W        W84056  34.347   0.950   0.803
12441W        W84057  36.420  43.230   2.230
12442W        W84058  11.255  34.106   0.518
12443W        W84059   9.264   9.159  13.615
12444W        W84060   7.353  17.027  14.400
12445W        W84061  17.166  12.310  11.380
12446W        W84062  42.569  12.843   1.754
12447W        W84063  31.136  33.950   0.414
12448W        W84064  21.134  29.041  12.596
12449W        W84065  42.429  34.996   3.205
12450W        W84066  20.549   8.714  14.874
12451W        W84067  18.466  34.650  10.276
12452W        W84068  23.633  14.591   4.149
12453W        W84069   4.122  33.147   4.347
12454W        W84070  30.504  43.306  12.871
12455W        W84071  39.057  18.665  13.924
12456W        W84072  11.140  15.161   4.599
12457W        W84073  14.859   3.263   1.201
12458W        W84074  36.237  22.695   3.580
12459W        W84075  21.676  26.092   2.901
12460W        W84076  29.987  20.563   0.271
12461W        W84077  24.687  14.278   0.462
12462W        W84078  34.219  43.532  11.383
12463W        W84079  32.669   4.833   0.259
12464W        W84080   3.175   8.298   1.639
12465W        W84081  43.302   1.345  12.554
12466W        W84082  32.623  28.771  12.832
12467W        W84083  11.461  37.304  12.604
12468W        W84084   4.081  30.120   0.846
12469W        W84085  30.874   2.877  12.608
12470W        W84086   4.734  39.564  11.227
12471W        W84087  34.557  23.117  12.682
12472W        W84088  40.919  39.526  12.560
12473W        W84089  39.878  24.045   1.459
12474W        W84090  15.868  28.529  13.775
12475W        W84091  44.032  16.245   0.735
12476W        W84092  12.560  34.584  11.249
12477W        W84093  19.001  23.556  12.102
12478W        W84094   0.293  41.346  11.286
12479W        W84095   6.334  34.307   0.246
12480W        W84096   8.674  32.026  13.304
12481W        W84097   3.304  32.472   0.368
12482W        W84098  25.612  44.960  11.836
12483W        W84099   1.001  13.815  11.934
12484W        W84100  28.100  10.028  10.660
12485W        W84101   7.739  10.240   0.792
12486W        W84102  10.353  21.097  11.952
12487W        W84103  19.088   7.803  14.961
12488W        W84104   4.875   2.010  14.904
12489W        W84105  34.605  14.304  12.068
12490W        W84106  15.826  37.322   1.827
12491W        W84107  16.626  11.751   1.192
12492W        W84108  20.130   3.529  14.361
12493W        W84109   0.783  38.800  12.528
12494W        W84110   3.909   2.371   4.151
12495W        W84111  12.152  27.052   2.633
12496W        W84112  25.688  14.610  14.012
12497W        W84113   0.325  43.707  11.202
12498W        W84114  24.544  20.421   1.775
12499W        W84115   7.060  23.429  13.326
12500W        W84116  11.935  19.744   1.705
12501W        W84117  21.296  16.785  14.899
12502W        W84118  25.581  44.491  12.058
12503W        W84119  13.966   8.884   5.134
12504W        W84120   3.543  17.315   3.173
12505W        W84121  11.320   6.392  14.989
12506W        W84122  11.310  29.738   0.593
12507W        W84123  24.997  25.443   4.662
12508W        W84124  10.555  32.431   2.299
12509W        W84125  19.299  25.668  13.111
12510W        W84126  22.516   3.141   3.220
12511W        W84127  34.955  20.515   2.343
12512W        W84128  43.867  42.883  13.560
12513W        W84129  32.798  38.038  13.772
12514W        W84130   7.819  22.048  10.967
12515W        W84131  12.828  16.281   4.776
12516W        W84132  15.030  15.267   3.694
12517W        W84133  25.150  41.810  10.846
12518W        W84134  44.864  25.511   0.125
12519W        W84135  23.731  43.903   2.064
12520W        W84136  26.012  10.778  12.084
12521W        W84137   2.903  22.180   0.196
12522W        W84138  28.151   1.668  14.393
12523W        W84139  10.111   0.774  14.810
12524W        W84140  14.388  20.569  11.996
12525W        W84141  37.399  25.631   4.372
12526W        W84142   2.261  12.807  14.467
12527W        W84143  33.302  35.178   1.882
12528W        W84144  29.063  14.591   4.625
12529W        W84145   6.006  21.039   0.278
12530W        W84146  42.514  15.157  10.723
12531W        W84147  28.054  37.854  13.077
12532W        W84148   6.676  35.599  12.402
12533W        W84149   1.837  31.055   4.581
12534W        W84150  28.210  11.306  11.103
12535W        W84151  11.168  35.519  14.839
12536W        W84152  27.076  11.121  10.679
12537W        W84153  35.406  13.714   2.719
12538W        W84154  13.741  32.809  13.127
12539W        W84155  16.120  36.442   3.762
12540W        W84156  27.167  34.907   0.124
12541W        W84157  43.468  39.948  10.618
12542W        W84158  40.351  34.896   0.763
12543W        W84159  27.269  32.983   2.352
12544W        W84160  28.907  27.863   4.648
12545W        W84161   1.304  12.644   0.934
12546W        W84162  15.364   3.913   3.825
12547W        W84163  32.178   3.253   4.528
12548W        W84164  15.206  42.778   4.412
12549W        W84165   5.825  37.084  11.749
12550W        W84166   6.336  28.147   1.253
12551W        W84167  30.944  21.061   0.823
12552W        W84168  17.122  12.379  10.514
12553W        W84169  37.270  44.999  13.532
12554W        W84170  29.135  12.560   3.615
12555W        W84171  22.473  44.466  10.218
12556W        W84172  24.973  21.172   5.050
12557W        W84173   7.611  43.108   3.749
12558W        W84174  18.182  43.826   5.225
12559W        W84175   4.235  24.132  14.396
12560W        W84176  42.131   8.178   0.911
12561W        W84177  40.374  14.058   2.179
12562W        W84178  10.557  10.457   0.221
12563W        W84179  44.860  40.018  11.434
12564W        W84180   4.384  12.697  13.348
12565W        W84181  11.405   4.544  10.661
12566W        W84182  36.552  12.225  12.596
12567W        W84183  23.485  13.973  14.186
12568W        W84184  37.981  20.192   1.267
12569W        W84185   0.111   5.605  11.079
12570W        W84186  22.080  14.181   4.852
12571W        W84187  19.445   1.446  12.045
12572W        W84188  14.339   5.403   1.682
12573W        W84189  36.563  44.109   1.900
12574W        W84190  25.582  39.992   1.955
12575W        W84191  43.967  35.536  12.359
12576W        W84192  41.928  41.038  13.793
12577W        W84193  41.034  20.418  11.073
12578W        W84194  14.372  11.080  14.642
12579W        W84195  43.384  17.786  11.822
12580W        W84196  34.431   1.391  12.143
12581W        W84197  31.186  30.156   3.607
12582W        W84198  15.403  27.568   1.248
12583W        W84199  17.996  26.997   1.853
12584W        W84200   6.872  27.543  11.192
12585W        W84201   1.611   6.908   2.628
12586W        W84202  41.714  19.025   4.804
12587W        W84203   5.405  21.030  12.000
12588W        W84204   8.737  32.640   3.300
12589W        W84205  27.165  16.840  12.070
12590W        W84206   4.884  18.840   0.408
12591W        W84207  22.616   0.612   3.786
12592W        W84208  14.238  44.060   4.068
12593W        W84209  23.232  16.153   3.663
12594W        W84210   5.172  40.571   4.551
12595W        W84211  22.663   8.662   4.994
12596W        W84212   9.188  18.720   0.235
12597W        W84213  25.415   4.438  11.971
12598W        W84214  28.296   3.409  11.642
12599W        W84215   9.317  20.632  13.279
12600W        W84216  30.605  43.984  11.146
12601W        W84217  30.616  27.985   1.841
12602W        W84218  19.665  15.610  10.655
12603W        W84219  32.898  11.191   1.253
12604W        W84220  33.762   1.241  12.006
12605W        W84221  20.043  22.643  14.495
12606W        W84222  42.344  36.045  14.408
12607W        W84223   9.022   6.946   3.739
12608W        W84224  32.815   6.383   0.955
12609W        W84225  38.903  39.780   0.867
12610W        W84226  37.941   3.533  10.872
12611W        W84227  15.333  36.495   2.639
12612W        W84228  33.549  29.635  12.169
12613W        W84229  27.593  43.888  13.768
12614W        W84230  25.047  20.159   4.130
12615W        W84231  12.705  20.855   2.107
12616W        W84232  30.650  19.001   1.377
12617W        W84233  32.051  44.079  14.647
12618W        W84234   6.279  19.197  11.684
12619W        W84235   6.555  34.416   2.611
12620W        W84236  10.717  12.150   0.401
12621W        W84237  41.389  26.676   1.700
12622W        W84238  40.933  14.442  12.940
12623W        W84239  19.093  40.876   4.549
12624W        W84240  36.617   4.295   3.007
12625W        W84241  14.682  29.875  13.333
12626W        W84242  44.948   0.571  12.821
12627W        W84243   1.398  25.955   4.521
12628W        W84244  29.675  18.341   0.024
12629W        W84245  13.096  26.062  12.793
12630W        W84246  25.136  28.023   3.684
12631W        W84247  23.961  23.748   0.430
12632W        W84248   9.169   6.992   0.209
12633W        W84249   0.462   0.025   0.805
12634W        W84250  15.136  44.900  11.589
12635W        W84251   6.970  20.125   4.205
12636W        W84252  39.265   1.246  12.622
12637W        W84253  18.112  19.994  14.369
12638W        W84254   5.239  26.290  10.625
12639W        W84255  19.724  17.856   4.191
12640W        W84256   4.427  15.764   1.268
12641W        W84257   7.460  16.236   1.785
12642W        W84258  23.662  33.145   2.718
12643W        W84259  26.453  22.680   5.043
12644W        W84260  34.469  22.833  13.535
12645W        W84261  37.653  21.769  13.468
12646W        W84262  17.043  28.677   2.849
12647W        W84263  24.297  26.980   2.172
12648W        W84264   0.233  11.586   0.323
12649W        W84265   9.623  24.923  12.416
12650W        W84266  15.749   0.578   3.559
12651W        W84267  34.063  43.717   1.746
12652W        W84268  36.172  38.906  12.988
12653W        W84269  12.497  27.656  14.123
12654W        W84270  25.290  25.003   3.812
12655W        W84271  32.612  20.738  10.578
12656W        W84272  34.539   4.173   3.213
12657W        W84273  39.644   3.702   4.700
12658W        W84274   6.003  32.437   1.219
12659W        W84275  34.058   2.094  11.015
12660W        W84276  14.580   4.975   0.775
12661W        W84277  20.791  13.668  14.725
12662W        W84278  17.865  21.288   3.717
12663W        W84279  37.905  41.980   1.260
12664W        W84280  38.912  19.848   1.407
12665W        W84281   2.045  26.671  13.718
12666W        W84282  17.065  29.149   4.514
12667W        W84283  32.812  20.422   1.870
12668W        W84284   7.666  34.728  11.029
12669W        W84285  38.520  24.086  10.640
12670W        W84286  28.161  15.735  12.063
12671W        W84287   8.479  27.009   0.273
12672W        W84288  43.243  41.550  11.703
12673W        W84289  34.945  26.986   3.658
12674W        W84290  21.563  26.581   0.946
12675W        W84291   6.855  44.262   3.979
12676W        W84292  11.746  44.137   3.923
12677W        W84293  21.111  14.160  11.134
12678W        W84294  41.418  12.299   3.769
12679W        W84295   0.987   5.405   0.895
12680W        W84296  23.250  42.931   0.914
12681W        W84297  38.839  10.178   5.219
12682W        W84298  15.812  38.658   5.008
12683W        W84299  30.868  16.075   0.982
12684W        W84300   9.436  44.597   2.394
12685W        W84301  28.103   7.899  13.950
12686W        W84302   1.383   8.643  11.337
12687W        W84303  13.188  21.673   4.447
12688W        W84304  14.763  25.785   4.807
12689W        W84305   8.146  41.889  11.303
12690W        W84306  38.538  28.795  12.820
12691W        W84307  12.230  43.500   0.419
12692W        W84308  27.193  35.321   1.928
12693W        W84309   1.456  15.126   1.696
12694W        W84310  20.353  29.366  11.592
12695W        W84311   6.458  40.581  11.098
12696W        W84312   8.500  30.063   0.707
12697W        W84313  40.457  22.524  12.367
12698W        W84314  19.544  32.212  10.603
12699W        W84315  21.487  11.562   0.824
12700W        W84316  44.694  14.680   4.233
12701W        W84317  34.390  44.084   0.921
12702W        W84318  20.774  38.572  14.887
12703W        W84319  18.306  20.622   0.458
12704W        W84320  23.395   9.192  14.883
12705W        W84321  40.755  17.608  14.289
12706W        W84322  24.164  26.167   0.657
12707W        W84323  35.637   9.848  14.828
12708W        W84324  12.431   2.517  13.041
12709W        W84325   1.361  22.295   2.634
12710W        W84326  44.987   9.605   4.697
12711W        W84327   1.233  24.478   0.703
12712W        W84328  16.038   7.569   0.312
12713W        W84329   0.744  30.701   4.598
12714W        W84330  43.044  22.477  13.046
12715W        W84331  40.104   7.249   2.120
12716W        W84332  32.492  22.723  12.967
12717W        W84333  17.067  31.929   3.168
12718W        W84334  32.456  19.532  11.384
12719W        W84335  40.308  23.066  11.547
12720W        W84336  21.732  15.678   1.994
12721W        W84337  14.171  34.121  12.509
12722W        W84338  27.697  38.387  13.357
12723W        W84339  22.339  32.917   0.465
12724W        W84340  13.074  28.115  13.410
12725W        W84341  13.361  23.113   0.995
12726W        W84342  15.600   2.730  12.554
12727W        W84343   4.328   6.796  11.881
12728W        W84344  20.433   1.871  12.025
12729W        W84345   5.280   5.765   3.179
12730W        W84346  43.688  21.051  12.490
12731W        W84347  28.047  35.364   0.828
12732W        W84348   5.041  24.668   4.592
12733W        W84349  34.033  20.102   1.786
12734W        W84350   4.330  13.840   3.092
12735W        W84351  23.817  25.642   2.308
12736W        W84352  27.457  25.639   0.472
12737W        W84353   7.417  40.526   4.164
12738W        W84354  43.965  43.901  11.385
12739W        W84355  28.346   8.337   1.820
12740W        W84356  28.670  24.001   0.824
12741W        W84357   4.511   4.199   0.881
12742W        W84358  10.804  18.077  12.071
12743W        W84359   6.530   4.438   3.601
12744W        W84360   1.958  22.972  13.784
12745W        W84361   1.786  21.411  10.247
12746W        W84362  42.153  24.976   5.316
12747W        W84363   0.411  36.033   4.988
12748W        W84364  43.701  22.597  12.065
12749W        W84365  44.906  17.723   2.168
12750W        W84366   8.272  22.798   0.317
12751W        W84367   1.233   6.327   4.236
12752W        W84368  18.271  31.873  14.474
12753W        W84369  39.266  42.194   3.240
12754W        W84370  31.444  27.527   3.762
12755W        W84371  27.978   8.617   3.934
12756W        W84372   4.263  17.016   2.781
12757W        W84373  20.321  40.296   1.938
12758W        W84374  31.082  12.230   3.619
12759W        W84375  29.052   7.390  14.753
12760W        W84376  28.137  22.291   3.804
12761W        W84377   7.828  29.900  14.407
12762W        W84378   0.641  24.053  14.302
12763W        W84379  13.767   5.751   2.255
12764W        W84380  11.908  25.165  13.381
12765W        W84381   1.713  30.027   1.324
12766W        W84382   7.839  16.674  13.959
12767W        W84383  20.689  15.540  13.415
12768W        W84384  43.402  18.230   3.340
12769W        W84385  39.394  35.879   4.177
12770W        W84386   9.176  41.136   0.345
12771W        W84387   8.231  28.648  13.154
12772W        W84388  32.651  12.054   0.379
12773W        W84389  37.438   9.592   1.403
12774W        W84390  36.818  20.278  14.785
12775W        W84391  42.446   7.650   2.834
12776W        W84392  44.745  32.894  13.036
12777W        W84393   0.452  29.656   0.887
12778W        W84394   3.938   2.816  14.245
12779W        W84395  42.390  43.837  11.002
12780W        W84396   7.337   2.169   4.256
12781W        W84397  42.874  19.469   9.946
12782W        W84398   2.474  44.921   1.226
12783W        W84399  30.498  11.756  10.951
12784W        W84400  41.886  41.735   1.201
12785W        W84401  29.016  12.406  11.525
12786W        W84402   5.382  41.274  13.830
12787W        W84403  22.555  36.605   1.829
12788W        W84404   8.840  25.560  12.710
12789W        W84405  39.942  35.536  13.801
12790W        W84406   4.013  25.094   2.613
12791W        W84407   9.147  29.369   2.886
12792W        W84408  43.041  17.140   2.248
12793W        W84409  30.940  19.661   0.756
12794W        W84410  14.668  22.967  14.358
12795W        W84411  35.015   1.856  13.759
12796W        W84412  39.220  15.597   3.296
12797W        W84413  38.834  21.394   0.446
12798W        W84414  25.175  13.296   4.531
12799W        W84415  24.659   3.294  13.910
12800W        W84416  33.013  17.763   3.649
12801W        W84417  14.619  35.033  11.315
12802W        W84418  31.884  19.367  13.280
12803W        W84419  21.243   9.963  14.979
12804W        W84420   7.238  11.552   4.347
12805W        W84421   1.878  18.599  10.716
12806W        W84422  35.323  16.613   3.551
12807W        W84423  16.658  24.895   4.784
12808W        W84424  30.540  43.978   1.721
12809W        W84425  44.380   6.830   3.806
12810W        W84426  36.852  30.581   2.227
12811W        W84427  30.743  25.586  13.517
12812W        W84428  39.891  35.279   4.215
12813W        W84429  24.944   7.234  14.730
12814W        W84430  44.724  36.169  12.382
12815W        W84431  13.798  23.421   2.893
12816W        W84432  33.210  31.241   3.887
12817W        W84433  32.989   5.146   2.781
12818W        W84434  23.533  44.934   4.779
12819W        W84435  12.850  25.674  14.834
12820W        W84436   6.836  13.341   0.896
12821W        W84437  17.939  23.684  11.209
12822W        W84438  29.894  36.544   0.246
12823W        W84439   9.291  22.668  14.436
12824W        W84440   0.480   0.078   2.266
12825W        W84441  36.545  20.241  11.440
12826W        W84442  21.759  25.927  12.008
12827W        W84443  27.196  35.561  13.927
12828W        W84444  23.410  29.728  11.150
12829W        W84445   5.677  14.380   4.214
12830W        W84446   7.760  30.231  10.966
12831W        W84447  17.803   8.880   1.338
12832W        W84448   9.324  16.099  14.362
12833W        W84449  16.364  14.298   4.512
12834W        W84450  34.917  26.587   4.510
12835W        W84451  34.925  11.712   2.146
12836W        W84452   5.904  44.750  14.274
12837W        W84453  21.594  18.227   4.443
12838W        W84454  24.572  36.594  12.929
12839W        W84455  19.799  22.716   1.222
12840W        W84456   8.712  40.208   3.751
12841W        W84457  26.664  43.492   4.662
12842W        W84458  27.477  32.585   2.619
12843W        W84459  15.412   8.207  13.314
12844W        W84460  19.532   1.290   4.135
12845W        W84461  12.189   7.936   2.791
12846W        W84462   0.148  10.804   0.930
12847W        W84463   7.848  25.236   1.847
12848W        W84464  44.915  21.344   0.725
12849W        W84465  23.540   4.664  12.057
12850W        W84466  26.547  35.098  13.474
12851W        W84467  35.887   1.783   3.233
12852W        W84468  33.800  35.563   4.072
12853W        W84469   3.999  27.662  13.356
12854W        W84470   1.926   3.727  14.493
12855W        W84471  34.527  38.539  12.169
12856W        W84472  28.132  37.856   1.650
12857W        W84473  26.973  13.650  13.080
12858W        W84474   0.268   5.913   1.276
12859W        W84475  37.821   0.639   1.167
12860W        W84476  12.106  20.198  12.458
12861W        W84477  30.492  27.944  12.487
12862W        W84478  40.382  29.298   4.971
12863W        W84479   9.049  35.227   2.876
12864W        W84480   2.758  32.516   0.421
12865W        W84481  23.573   0.445  13.365
12866W        W84482   2.924  38.500   1.171
12867W        W84483  12.249  28.163   3.765
12868W        W84484   5.847   6.391  13.454
12869W        W84485  26.728  21.820  13.017
12870W        W84486  39.546   7.860  13.919
12871W        W84487  43.979   1.989  11.529
12872W        W84488  11.138  22.543  12.819
12873W        W84489   2.469   7.192  12.981
12874W        W84490  39.002   8.486   3.806
12875W        W84491  22.214  17.265   3.608
12876W        W84492  35.689  19.578   3.321
12877W        W84493  41.976  39.985  14.098
12878W        W84494  19.215  16.136  12.981
12879W        W84495   9.229   4.403  13.456
12880W        W84496  39.950  44.577   4.636
12881W        W84497  44.825  12.590  11.355
12882W        W84498  23.035  28.217   0.246
12883W        W84499  42.348  10.696  10.747
12884W        W84500  19.264   7.235   4.078
12885W        W84501   4.923   2.061   4.043
12886W        W84502  21.522  41.028  13.137
12887W        W84503  16.606  26.945  12.556
12888W        W84504   7.705  29.144  13.000
12889W        W84505  23.482  43.994   0.595
12890W        W84506  37.085   2.357   2.841
12891W        W84507   3.406  13.036   1.160
12892W        W84508  13.572  19.794   4.134
12893W        W84509  28.992   0.714  13.504
12894W        W84510  12.253  39.293   1.840
12895W        W84511  12.960  10.367   4.835
12896W        W84512  11.131  28.445  12.526
12897W        W84513  20.184  19.203   2.874
12898W        W84514  24.004  10.325  13.369
12899W        W84515  12.811   2.019  10.582
12900W        W84516  21.717  25.462  11.121
12901W        W84517  28.228   1.485  11.479
12902W        W84518  14.650   2.708   4.953
12903W        W84519  41.475  19.536  11.134
12904W        W84520  36.733  14.857  14.410
12905W        W84521  25.957  36.786  12.492
12906W        W84522   1.191   2.190  12.877
12907W        W84523  44.836  10.155  14.006
12908W        W84524  20.006  27.973   4.154
12909W        W84525   4.795   2.242   2.650
12910W        W84526  14.558  37.864   0.046
12911W        W84527  34.189  41.966  12.423
12912W        W84528  28.871  20.111  11.436
12913W        W84529  19.192  14.610   3.021
12914W        W84530   0.443  17.004  14.075
12915W        W84531  43.395  35.570   4.659
12916W        W84532  25.672  23.236   2.383
12917W        W84533  28.705  16.822  13.003
12918W        W84534   4.333  25.111   5.177
12919W        W84535  23.362  28.957   0.639
12920W        W84536   6.651  19.571  13.777
12921W        W84537  12.187  11.640  10.683
12922W        W84538  15.849  14.140  14.924
12923W        W84539  13.787   6.827   0.503
12924W        W84540  33.988   4.471   2.314
12925W        W84541  41.109  29.496  11.095
12926W        W84542   2.513  29.776  12.385
12927W        W84543  32.595   1.873  12.864
12928W        W84544  19.641  22.777   4.554
12929W        W84545  23.849   6.938   1.224
12930W        W84546  43.484   1.960  14.557
12931W        W84547  15.536  18.324   4.764
12932W        W84548  15.481  28.580  11.451
12933W        W84549  13.909  37.632   3.189
12934W        W84550   9.144  11.855   3.736
12935W        W84551   4.280  41.272  12.053
12936W        W84552  24.708  27.127   2.465
12937W        W84553   1.454  32.601  12.405
12938W        W84554  42.365  39.638  12.009
12939W        W84555  29.826  35.913   0.962
12940W        W84556   0.825   2.223   0.309
12941W        W84557  38.684  33.822  13.464
12942W        W84558  15.841  31.940  10.832
12943W        W84559  34.093   9.684  14.789
12944W        W84560  15.003   9.353   3.221
12945W        W84561  26.609   0.446   1.689
12946W        W84562   7.958   3.060  13.277
12947W        W84563  10.249  36.413  10.340
12948W        W84564  43.192  42.538   1.206
12949W        W84565  15.650  31.214  12.015
12950W        W84566   9.741  43.456   4.121
12951W        W84567   5.524  25.795   3.761
12952W        W84568  14.519  10.809   2.250
12953W        W84569  30.588  27.223  10.619
12954W        W84570  22.084  22.055   3.914
12955W        W84571  31.656  33.735   3.702
12956W        W84572  30.662   6.640  12.904
12957W        W84573  43.673  36.496   1.297
12958W        W84574  22.338  23.401  11.611
12959W        W84575  28.633  22.753   4.652
12960W        W84576  39.033  20.786   1.866
12961W        W84577  26.538  16.076  13.508
12962W        W84578  15.056  13.700   0.748
12963W        W84579  42.480   4.027   3.908
12964W        W84580  20.996  10.535   2.295
12965W        W84581  14.043   2.889   3.140
12966W        W84582  19.053  28.878  13.527
12967W        W84583   0.869   0.308   1.423
12968W        W84584   5.403  34.017  12.557
12969W        W84585  28.382  27.657  11.076
12970W        W84586   8.681  13.845  10.534
12971W        W84587  26.249  35.362   2.809
12972W        W84588   3.361  22.038   3.318
12973W        W84589  10.375  34.672   0.703
12974W        W84590  38.394   7.374   1.449
12975W        W84591   9.183  38.005   4.827
12976W        W84592  11.666   7.644   1.585
12977W        W84593  15.788  40.011   1.388
12978W        W84594   1.831  27.482   0.279
12979W        W84595  41.222  39.364   2.861
12980W        W84596  11.039  18.993   1.300
12981W        W84597  35.685  30.497   4.716
12982W        W84598  33.865  17.776  13.400
12983W        W84599  36.394   0.579   4.764
12984W        W84600  28.466   2.052  14.241
12985W        W84601  40.958  17.185   2.278
12986W        W84602   1.383  11.196   2.943
12987W        W84603   7.998   2.245   0.489
12988W        W84604  38.052  32.148   4.833
12989W        W84605   8.754  10.290  14.023
12990W        W84606  13.858  11.542   4.817
12991W        W84607  30.533  35.420  13.642
12992W        W84608  11.181  19.096  10.708
12993W        W84609   9.324  41.816  14.589
12994W        W84610  40.442  35.423   4.849
12995W        W84611  37.838  21.232   1.896
12996W        W84612  43.279  16.687   2.131
12997W        W84613  36.359  16.985   2.113
12998W        W84614  27.629  28.943   2.306
12999W        W84615  17.832  37.970  14.289
13000W        W84616   1.746  30.998  13.962
13001W        W84617   6.043  42.145   2.148
13002W        W84618  36.660  33.440   4.842
13003W        W84619  21.575   3.432   2.809
13004W        W84620  42.509  14.051   2.306
13005W        W84621  21.548  18.989  13.210
13006W        W84622  10.752  23.094   1.740
13007W        W84623  34.539  21.675   1.555
13008W        W84624   3.290  32.310   3.364
13009W        W84625  41.894  32.407   0.429
13010W        W84626  30.869   1.218  13.920
13011W        W84627  32.492  25.711  10.406
13012W        W84628  43.511  37.709   4.127
13013W        W84629   4.424  21.758   4.546
13014W        W84630  28.193   0.102   1.140
13015W        W84631  23.989   5.230   1.884
13016W        W84632  26.192  43.544   3.748
13017W        W84633  42.755  39.117  14.510
13018W        W84634  33.198  18.693  10.460
13019W        W84635  15.040  23.637  14.393
13020W        W84636  28.717  28.045  11.184
13021W        W84637  10.612  13.782   3.293
13022W        W84638  28.440  40.432  10.668
13023W        W84639  28.746  31.668   4.204
13024W        W84640  13.675  33.702   3.711
13025W        W84641   1.970  22.827  11.990
13026W        W84642  32.534  13.230  11.900
13027W        W84643   2.883  16.919  13.944
13028W        W84644  24.110  29.693   4.188
13029W        W84645   1.978  15.797   3.810
13030W        W84646   2.334  12.732   1.724
13031W        W84647  22.645  35.965  13.056
13032W        W84648  17.636  11.623   2.762
13033W        W84649  13.398  21.540  13.426
13034W        W84650  14.421   5.914  10.285
13035W        W84651  38.261   9.237   3.722
13036W        W84652  24.601  40.275   3.152
13037W        W84653   4.873   4.085  11.485
13038W        W84654  21.365  11.820   0.281
13039W        W84655   4.736   1.342   2.704
13040W        W84656  41.746  27.628   1.423
13041W        W84657   2.392  42.598   4.672
13042W        W84658  17.987  35.555  14.832
13043W        W84659  25.225  32.638  14.399
13044W        W84660  37.896  21.139  14.962
13045W        W84661  39.588  34.298   1.347
13046W        W84662  32.849  14.320  10.530
13047W        W84663  42.761  42.955  10.582
13048W        W84664   2.301  17.820  11.651
13049W        W84665  12.269  40.066  12.544
13050W        W84666  14.870  11.078   1.958
13051W        W84667  14.496  15.089   4.844
13052W        W84668  32.967  19.686  11.460
13053W        W84669  30.656   4.671  10.118
13054W        W84670   3.442  18.607   4.749
13055W        W84671   7.725   0.808  14.429
13056W        W84672  20.524  38.654  13.948
13057W        W84673  42.196   6.944   4.672
13058W        W84674  18.740   6.154   2.625
13059W        W84675  28.671  12.634   2.918
13060W        W84676  26.032  14.127   3.789
13061W        W84677  22.606   6.351  13.345
13062W        W84678  24.592   2.428  14.576
13063W        W84679   6.135  16.181   4.201
13064W        W84680  27.512  17.547  13.330
13065W        W84681   4.999   5.769  13.157
13066W        W84682   6.825  28.416  14.317
13067W        W84683   6.491  26.545  10.583
13068W        W84684   4.262  14.150   0.449
13069W        W84685  18.511  14.826  14.103
13070W        W84686  12.855  42.089   2.361
13071W        W84687   8.107  18.011   1.322
13072W        W84688  41.528  27.456  12.436
13073W        W84689  10.549  19.734  14.393
13074W        W84690   7.812  26.215   0.401
13075W        W84691  16.130  26.401  14.682
13076W        W84692   1.873   5.699  10.798
13077W        W84693  14.959  17.296   1.905
13078W        W84694  23.248  19.272   1.780
13079W        W84695  28.168  37.748   2.141
13080W        W84696  38.062  13.681  10.570
13081W        W84697  29.732  19.335  11.100
13082W        W84698   6.774  31.543   0.321
13083W        W84699  23.452   0.156  11.900
13084W        W84700  30.182  32.427   3.639
13085W        W84701  35.433   8.530   2.787
13086W        W84702   8.484  35.772   4.260
13087W        W84703  27.802  40.370  12.572
13088W        W84704  23.176  26.447   0.753
13089W        W84705  24.208   4.813   0.644
13090W        W84706  31.650  24.517  13.366
13091W        W84707  20.749  23.978  14.990
13092W        W84708  16.614  22.672   4.723
13093W        W84709   4.344  20.798   1.429
13094W        W84710  11.913  39.376   1.462
13095W        W84711  37.491  25.114   4.316
13096W        W84712   5.848  35.791  13.308
13097W        W84713   6.215  24.235  14.431
13098W        W84714   2.017   5.331   4.536
13099W        W84715  41.953  42.773   3.244
13100W        W84716  25.911   5.907  13.967
13101W        W84717  20.312  14.974  13.598
13102W        W84718   5.311  34.580   0.411
13103W        W84719  14.258  22.783   3.188
13104W        W84720  39.003   8.795   2.870
13105W        W84721  38.108   9.327  12.041
13106W        W84722   4.202  44.723   3.302
13107W        W84723  26.133   4.902  11.853
13108W        W84724  27.248   4.940   3.711
13109W        W84725  28.252  37.600   3.582
13110W        W84726  17.811  35.265  12.889
13111W        W84727  37.452  35.148   5.068
13112W        W84728  21.610   3.350   3.317
13113W        W84729   6.429  30.659   4.566
13114W        W84730  43.511  21.022   1.027
13115W        W84731   7.272  37.931  14.309
13116W        W84732  12.701   5.249   0.779
13117W        W84733  24.843   6.959  12.905
13118W        W84734  33.227  10.305   3.165
13119W        W84735   8.001  43.473  14.521
13120W        W84736  42.354  38.639   0.210
13121W        W84737   4.231  11.231   3.754
13122W        W84738   3.195   1.580   4.522
13123W        W84739  43.661  12.156   2.868
13124W        W84740   6.672  25.589  14.804
13125W        W84741  42.525  20.751   3.673
13126W        W84742   9.673  40.486   1.936
13127W        W84743  36.896  26.645  14.944
13128W        W84744  36.477  19.244  10.927
13129W        W84745  28.509  10.944   0.066
13130W        W84746  32.641  36.039   1.182
13131W        W84747  12.286   0.970   2.329
13132W        W84748  40.388  44.183  10.666
13133W        W84749  25.038  40.599   3.148
13134W        W84750  40.554   0.749   5.009
13135W        W84751  39.306   6.691  14.430
13136W        W84752  23.480  27.557  14.461
13137W        W84753   1.173  28.890  11.389
13138W        W84754   7.704  23.501  11.161
13139W        W84755   1.167  14.630   0.908
13140W        W84756  26.215   0.419  10.681
13141W        W84757  32.457  16.149   1.513
13142W        W84758  43.659   8.277  11.145
13143W        W84759  29.943  20.192  12.546
13144W        W84760   4.244  14.968  13.465
13145W        W84761  27.037   1.811   3.643
13146W        W84762   6.391  37.237   1.384
13147W        W84763  34.537   8.233  10.408
13148W        W84764  39.921  37.511  12.694
13149W        W84765  25.976   1.655   2.324
13150W        W84766  39.342  19.634  13.589
13151W        W84767   7.750  25.693   3.130
13152W        W84768  36.987  17.839  10.650
13153W        W84769  41.950   4.889   3.839
13154W        W84770  17.645  18.625   0.287
13155W        W84771  11.563  12.385  12.902
13156W        W84772  30.973  31.370   0.833
13157W        W84773  30.174  14.094  13.506
13158W        W84774  36.598  10.187  11.147
13159W        W84775  39.424  32.072   3.749
13160W        W84776  37.596  21.606   3.451
13161W        W84777  29.071  42.299   2.178
13162W        W84778   2.478  20.682  13.920
13163W        W84779   7.279  26.229   0.331
13164W        W84780  18.579  13.047   4.432
13165W        W84781  10.171   7.671   3.114
13166W        W84782  21.526   8.685  10.713
13167W        W84783  30.941  41.877  10.656
13168W        W84784  40.933  18.566   0.925
13169W        W84785   2.079  44.802   4.438
13170W        W84786   8.935   9.202  12.425
13171W        W84787  13.352  17.314   3.367
13172W        W84788  28.068  27.553   0.211
13173W        W84789  34.708  33.466   5.012
13174W        W84790  13.785  14.808  14.039
13175W        W84791   7.952  11.883   4.272
13176W        W84792  24.256  16.128   2.891
13177W        W84793   9.165  41.370   4.524
13178W        W84794  33.320  35.409  10.595
13179W        W84795  29.338  42.976  13.343
13180W        W84796  12.251  40.386   0.377
13181W        W84797  33.980  35.816  12.060
13182W        W84798   5.409  28.291   1.851
13183W        W84799   2.715  16.212  13.062
13184W        W84800   3.355  20.717  11.814
13185W        W84801  38.999   2.981   2.135
13186W        W84802   2.978   6.181   0.766
13187W        W84803  44.553   9.831  11.973
13188W        W84804  33.487  42.428  12.140
13189W        W84805  35.911  25.294   0.350
13190W        W84806  40.317  10.755  10.652
13191W        W84807  15.844  19.098  12.900
13192W        W84808  40.804   5.978   1.781
13193W        W84809  39.962  32.453  10.928
13194W        W84810   1.147   7.624  13.358
13195W        W84811  30.068  35.509   1.710
13196W        W84812   6.640   2.272  11.163
13197W        W84813   2.952  41.102   2.905
13198W        W84814   1.024   5.806  13.732
13199W        W84815  39.899  17.579  13.732
13200W        W84816  41.271  38.447   3.922
13201W        W84817  10.656  17.892   3.813
13202W        W84818  25.444  39.934  10.613
13203W        W84819  18.422  37.194  11.179
13204W        W84820   0.743  15.363   2.903
13205W        W84821   9.155  41.005   4.131
13206W        W84822   0.442  43.751   1.271
13207W        W84823  37.898  15.739  10.558
13208W        W84824  33.078  36.401   2.821
13209W        W84825  38.595  32.552  10.680
13210W        W84826   3.942  16.612  14.817
13211W        W84827   3.736   6.132  11.649
13212W        W84828   0.236  44.819   4.090
13213W        W84829   8.300  11.186  14.042
13214W        W84830  33.541  40.048  13.553
13215W        W84831  20.174  26.920  11.668
13216W        W84832  17.544  10.654  10.968
13217W        W84833  10.178   0.072  14.394
13218W        W84834   7.856   3.682  11.954
13219W        W84835  40.068  42.546  11.150
13220W        W84836  13.079  36.360  11.111
13221W        W84837  11.675  25.202  10.558
13222W        W84838  23.378   3.931   1.205
13223W        W84839  41.386  11.646   2.876
13224W        W84840  11.839  28.527   0.837
13225W        W84841  15.502  43.855   1.484
13226W        W84842   3.276  34.164   2.768
13227W        W84843  26.387  21.588   3.619
13228W        W84844   0.478   8.731   4.596
13229W        W84845  29.989  17.445  10.569
13230W        W84846  20.493  13.035   0.870
13231W        W84847  43.483  40.826  10.633
13232W        W84848  13.582   8.651  10.732
13233W        W84849  44.191  34.088  12.873
13234W        W84850   0.944  33.111  14.509
13235W        W84851  30.488  39.886  10.697
13236W        W84852  16.338   9.889   0.540
13237W        W84853  41.399  37.134  12.464
13238W        W84854  26.902   4.383   1.751
13239W        W84855   0.566  23.064  12.113
13240W        W84856  11.112  41.103  12.961
13241W        W84857   0.368  44.516   0.841
13242W        W84858   6.773   1.794  14.342
13243W        W84859  14.154  13.545  10.732
13244W        W84860  44.186  10.382   2.870
13245W        W84861  30.589  25.999   3.366
13246W        W84862  20.079   5.746  10.855
13247W        W84863  20.805  12.857   2.184
13248W        W84864  20.689   2.884   1.967
13249W        W84865   0.712  22.237  11.182
13250W        W84866  29.521  16.361   4.678
13251W        W84867  42.090   0.476   1.182
13252W        W84868   3.674  24.224  10.730
13253W        W84869   5.415  44.828  11.851
13254W        W84870   6.151  29.691   0.675
13255W        W84871   5.855  12.313   3.185
13256W        W84872  17.828   1.722  10.704
13257W        W84873  34.019  19.594   1.820
13258W        W84874   9.396  10.568  11.050
13259W        W84875  37.085   4.766  11.001
13260W        W84876   2.414  39.547   3.707
13261W        W84877  31.079  27.251   3.317
13262W        W84878  14.521  24.952  12.484
13263W        W84879  27.208   2.836  13.776
13264W        W84880   7.608  18.080  13.907
13265W        W84881   8.972   9.558   3.770
13266W        W84882   2.018  15.078   4.163
13267W        W84883  29.728  21.426  12.956
13268W        W84884  38.860   3.136  14.647
13269W        W84885   4.302  32.537  13.864
13270W        W84886  37.073  41.764   3.862
13271W        W84887  16.745  26.962   0.062
13272W        W84888  13.295  34.344  14.995
13273W        W84889  25.877  34.952  12.898
13274W        W84890   5.762  36.399  10.752
13275W        W84891  39.262  33.320  13.088
13276W        W84892  28.416  44.762   0.791
13277W        W84893  29.094  20.549  14.568
13278W        W84894   8.931   8.725  12.620
13279W        W84895   7.335   5.690  12.401
13280W        W84896  26.106  28.670  12.174
13281W        W84897  10.557  42.232   3.859
13282W        W84898  10.923  24.965   1.887
13283W        W84899   0.270   5.122   1.746
13284W        W84900  40.733  35.929  13.849
13285W        W84901  36.294  21.193  14.872
13286W        W84902  19.107   6.414  13.942
13287W        W84903   8.065   7.839  12.479
13288W        W84904  19.247   6.332   2.773
13289W        W84905  39.507   9.115  13.680
13290W        W84906  40.577  27.946   2.651
13291W        W84907   4.450   3.896   2.291
13292W        W84908   2.988   0.875  13.798
13293W        W84909  25.155  44.505  11.522
13294W        W84910   3.463   1.024  14.770
13295W        W84911   2.271   3.460   1.291
13296W        W84912  26.462  22.745   4.528
13297W        W84913  26.162  43.627  11.450
13298W        W84914  21.078  35.398   0.072
13299W        W84915  36.641  28.426   0.854
13300W        W84916  28.053  23.756   3.626
13301W        W84917  44.305  25.018  11.247
13302W        W84918  23.695   0.391   4.531
13303W        W84919  20.682  32.117  12.783
13304W        W84920  15.176  14.179   0.876
13305W        W84921  36.826  15.395   3.751
13306W        W84922   9.848  42.644  11.047
13307W        W84923  25.059  27.771  13.896
13308W        W84924  37.690  22.002   1.242
13309W        W84925  36.098  29.115  12.913
13310W        W84926  44.069  27.308  11.214
13311W        W84927  42.889  43.536  14.672
13312W        W84928  21.951  26.516  14.970
13313W        W84929   0.303  41.314  11.797
13314W        W84930  29.883  16.284  12.525
13315W        W84931  16.568   1.776  13.485
13316W        W84932  40.145  13.817   0.515
13317W        W84933  41.338   4.762   0.465
13318W        W84934  32.172  15.959  13.927
13319W        W84935  17.798   0.169   1.911
13320W        W84936  30.937  31.859  12.792
13321W        W84937  28.729   4.151  12.767
13322W        W84938   9.179  35.397  13.373
13323W        W84939  26.399   5.719   2.369
13324W        W84940  14.214   3.732   3.323
13325W        W84941  33.674  33.993  12.297
13326W        W84942  43.779  30.083   4.280
13327W        W84943  23.318  39.888  13.494
13328W        W84944  16.053  10.545   3.280
13329W        W84945  11.036  33.053   2.237
13330W        W84946   6.632   5.186  13.443
13331W        W84947  30.572  22.628  10.575
13332W        W84948  21.766   8.716  14.295
13333W        W84949  12.721   0.606  10.629
13334W        W84950   6.216  39.454  10.831
13335W        W84951  12.288  41.541  14.710
13336W        W84952  11.554  43.260  11.177
13337W        W84953  12.135   8.631   2.504
13338W        W84954  35.356  43.570   0.879
13339W        W84955   7.407  21.535  10.500
13340W        W84956  33.842  16.251  14.077
13341W        W84957  36.865  31.861   4.228
13342W        W84958   5.192  10.207   0.260
13343W        W84959  19.192  20.724  13.328
13344W        W84960  40.607  41.938   2.817
13345W        W84961   9.776  16.563   1.175
13346W        W84962  43.129   5.420   3.299
13347W        W84963   3.762  12.576   4.232
13348W        W84964  16.306  31.616  11.581
13349W        W84965  42.081   2.878  14.296
13350W        W84966  35.436  29.968   3.002
13351W        W84967  41.827  31.389   0.085
13352W        W84968  24.409   8.406   3.277
13353W        W84969  27.228  40.152  10.178
13354W        W84970  19.273  26.600  12.107
13355W        W84971  22.171  40.363  12.350
13356W        W84972  12.378  25.273  12.031
13357W        W84973  22.040  43.718   4.092
13358W        W84974   1.223  33.104  12.910
13359W        W84975   2.998  21.127  13.110
13360W        W84976  29.945  15.114  13.188
13361W        W84977   4.327  21.058  11.430
13362W        W84978   8.917  31.514  12.647
13363W        W84979   1.463  24.827  11.523
13364W        W84980  19.546  35.117   1.133
13365W        W84981  26.006  11.829   4.418
13366W        W84982  10.767  10.214  13.021
13367W        W84983   0.905  27.130   3.254
13368W        W84984  11.122  22.080  13.543
13369W        W84985   0.603   0.786  11.992
13370W        W84986  42.522  28.364   0.561
13371W        W84987  43.860  12.760  12.971
13372W        W84988  39.903   0.498   3.573
13373W        W84989   2.309   4.054  13.303
13374W        W84990   9.863  25.548  12.957
13375W        W84991   0.494  44.401  12.053
13376W        W84992  43.499  16.360  14.402
13377W        W84993  32.867   1.204  13.468
13378W        W84994  10.186  41.301   1.817
13379W        W84995  10.641  33.899  10.707
13380W        W84996  36.935  19.966   4.857
13381W        W84997  29.418   7.126   3.943
13382W        W84998   9.391  27.482   0.930
13383W        W84999  29.212   5.879   1.214
13384W        W85000  28.535  19.689  12.119
13385W        W85001   0.879   6.668   1.367
13386W        W85002  19.651   8.695  10.449
13387W        W85003   1.837  16.607  13.129
13388W        W85004  42.408  16.281   4.661
13389W        W85005   5.169  12.996   0.900
13390W        W85006  43.981  25.405   3.609
13391W        W85007  32.519  39.510  14.285
13392W        W85008  39.038  24.316  12.286
13393W        W85009  18.190  15.320   1.479
13394W        W85010  27.735  19.204  14.950
13395W        W85011  39.904  42.530   1.904
13396W        W85012  10.064  28.031  13.900
13397W        W85013  38.396  20.058   0.497
13398W        W85014   8.098  26.024   4.394
13399W        W85015  18.859   2.628  13.876
13400W        W85016   1.349   8.245   1.648
13401W        W85017  12.179  17.498   2.397
13402W        W85018  36.022  36.927  13.851
13403W        W85019  23.373  33.165   1.855
13404W        W85020  12.815  19.840   0.387
13405W        W85021   4.352  27.709   0.106
13406W        W85022  35.415   6.755  10.399
13407W        W85023  21.278  34.162  13.939
13408W        W85024  12.712   1.048  14.915
13409W        W85025  24.230  18.408   2.627
13410W        W85026  32.480  11.464  13.954
13411W        W85027  43.055  30.068   0.194
13412W        W85028  24.202  14.791  12.929
13413W        W85029  20.953   1.928  13.013
13414W        W85030  43.550  34.106   2.786
13415W        W85031  31.120  36.154   4.170
13416W        W85032  28.938  41.809  14.816
13417W        W85033  40.850   9.755   0.471
13418W        W85034  24.176  16.044  10.790
13419W        W85035   9.602  33.514  11.096
13420W        W85036  40.257   6.217  13.594
13421W        W85037   2.933   2.800  12.911
13422W        W85038  43.353   7.417  14.990
13423W        W85039  21.006  44.046  13.530
13424W        W85040   0.882  30.577  11.691
13425W        W85041  33.987  40.713  12.658
13426W        W85042  14.351  15.844  11.976
13427W        W85043  13.808  30.383  14.595
13428W        W85044  43.245  28.326  12.485
13429W        W85045  37.310   6.421   1.412
13430W        W85046  26.482   1.691   3.772
13431W        W85047  13.630  12.810   2.825
13432W        W85048   8.470  21.045  13.262
13433W        W85049  11.615   6.888   2.034
13434W        W85050  34.462  29.447   0.830
13435W        W85051  37.464  11.684   1.259
13436W        W85052  33.555  14.585  12.516
13437W        W85053  16.063   6.744  14.001
13438W        W85054  26.263  41.105  14.069
13439W        W85055  40.945  43.758   2.837
13440W        W85056  30.200  12.291  13.086
13441W        W85057  13.223  14.771   4.491
13442W        W85058  13.621  30.453  12.052
13443W        W85059   1.272   9.897  13.934
13444W        W85060   1.807   9.819  11.678
13445W        W85061   0.615  13.115   0.372
13446W        W85062  39.996  12.466   3.141
13447W        W85063  39.451  20.021   3.153
13448W        W85064  13.880   5.134  14.779
13449W        W85065   6.747  31.669  13.421
13450W        W85066  29.824  38.767   2.670
13451W        W85067   3.440  42.497  13.994
13452W        W85068   2.749   8.558  13.303
13453W        W85069  20.227   3.555   4.479
13454W        W85070  23.473  23.201   0.742
13455W        W85071  44.371   0.697  12.825
13456W        W85072  11.622   5.041  13.793
13457W        W85073  23.586  27.392   0.514
13458W        W85074  22.054  43.238   3.198
13459W        W85075  44.883   5.308  10.705
13460W        W85076  29.536  33.521   0.775
13461W        W85077  24.396  32.550   3.211
13462W        W85078   0.020  27.175   3.708
13463W        W85079  42.531   2.978  11.731
13464W        W85080  12.607  42.315   1.956
13465W        W85081  17.135   7.255   3.312
13466W        W85082   8.282  10.651   1.444
13467W        W85083  40.457   6.280   1.396
13468W        W85084  39.489  28.150   1.763
13469W        W85085  20.274   3.991   4.197
13470W        W85086  27.598  23.448   1.480
13471W        W85087  43.828  33.783   3.678
13472W        W85088  16.504  10.401   2.400
13473W        W85089  10.398  18.264   0.944
13474W        W85090  15.980  18.518  14.445
13475W        W85091  12.067  23.668  14.984
13476W        W85092  16.252  31.241  12.989
13477W        W85093   7.126  18.212  12.812
13478W        W85094  40.429  14.708   1.816
13479W        W85095  43.032  20.676  13.998
13480W        W85096  34.883  29.552  12.074
13481W        W85097   4.410  11.370  14.816
13482W        W85098  25.021  36.931   2.344
13483W        W85099  28.733  31.887  14.697
13484W        W85100   1.820  30.701   2.130
13485W        W85101  42.508  19.042  13.303
13486W        W85102   5.612  15.555  11.601
13487W        W85103  44.746  40.371  11.079
13488W        W85104  39.779  10.347  10.123
13489W        W85105   8.192   4.387  12.836
13490W        W85106  42.265  41.081   3.829
13491W        W85107   6.821  31.432   1.722
13492W        W85108  33.972  15.521   3.298
13493W        W85109   1.911  40.824  10.586
13494W        W85110   2.849   9.931   0.283
13495W        W85111  34.539   7.691   4.544
13496W        W85112  42.355  28.024   3.431
13497W        W85113  28.471  36.039  12.800
13498W        W85114  22.725  41.481  13.334
13499W        W85115  26.506  30.669  12.332
13500W        W85116  29.176   9.210  13.497
13501W        W85117  31.695  11.772  12.564
13502W        W85118   2.379  32.854  10.537
13503W        W85119  41.540   5.705   1.303
13504W        W85120  32.397  18.817   1.938
13505W        W85121  26.973  23.887  10.999
13506W        W85122   0.802  21.164  11.127
13507W        W85123  35.529   9.452  14.001
13508W        W85124  14.780  39.090   3.217
13509W        W85125  33.208  15.805  11.974
13510W        W85126  32.889  15.557  12.652
13511W        W85127  35.448  30.355   3.362
13512W        W85128  32.725  40.499  12.463
13513W        W85129  16.590  40.287  13.464
13514W        W85130   6.963  42.226   0.265
13515W        W85131  12.894   4.061  10.754
13516W        W85132  16.242  23.457   0.018
13517W        W85133  31.411  42.044  13.097
13518W        W85134  17.153  15.761   2.388
13519W        W85135   4.725  27.229   3.654
13520W        W85136   3.057   2.498  11.731
13521W        W85137  39.527  27.583  11.541
13522W        W85138   3.429   6.780  11.628
13523W        W85139  11.492  32.177   2.599
13524W        W85140   9.207  25.433   4.603
13525W        W85141   2.764  34.773  10.698
13526W        W85142  16.672  32.360   3.828
13527W        W85143  19.386   1.994  11.939
13528W        W85144  28.997  43.499   1.353
13529W        W85145  40.853  12.439   0.367
13530W        W85146  15.174  38.904  14.561
13531W        W85147  24.038  15.013  10.648
13532W        W85148  16.381  28.855  14.903
13533W        W85149  12.913  11.292   3.176
13534W        W85150  41.032  19.267  13.489
13535W        W85151  20.734  20.803  12.956
13536W        W85152  35.703  24.825  13.298
13537W        W85153   7.150  44.718   1.287
13538W        W85154  41.307  28.002   3.293
13539W        W85155  25.160  16.313   0.827
13540W        W85156   0.450   4.624  12.878
13541W        W85157   9.813  43.957  12.092
13542W        W85158  21.611  13.141  13.348
13543W        W85159  35.426  21.359  13.874
13544W        W85160   0.400  11.899  11.712
13545W        W85161  37.940  13.998   9.732
13546W        W85162  16.539   8.585   1.832
13547W        W85163  16.146  36.520  14.483
13548W        W85164  34.937  27.132   3.090
13549W        W85165   5.937  20.579   3.613
13550W        W85166  14.399  14.135  11.214
13551W        W85167   4.405  35.949   2.958
13552W        W85168  16.465  34.955   3.398
13553W        W85169  17.951  31.392  10.779
13554W        W85170  15.665   0.922  11.085
13555W        W85171  33.683  14.673  13.281
13556W        W85172  16.791  44.451   5.516
13557W        W85173  12.545  18.132  12.769
13558W        W85174  31.959  34.649   2.198
13559W        W85175  33.340  10.405  12.999
13560W        W85176  12.176   1.201  14.963
13561W        W85177  12.160  38.500  10.682
13562W        W85178  35.335  32.166  14.093
13563W        W85179  14.991  39.987   0.851
13564W        W85180   2.740   3.570   1.055
13565W        W85181  39.349  40.926  14.381
13566W        W85182  24.557  39.939  14.424
13567W        W85183  15.658  20.187   3.750
13568W        W85184  36.309   6.717   2.742
13569W        W85185   4.315   2.941   3.594
13570W        W85186  17.835  11.732   3.232
13571W        W85187  41.114  23.489  12.019
13572W        W85188  34.629  44.226  13.420
13573W        W85189  19.096  22.593  14.899
13574W        W85190  22.552   7.833  12.825
13575W        W85191  43.950  32.381   1.054
13576W        W85192   7.125  42.949   3.729
13577W        W85193  27.664  14.268   2.807
13578W        W85194  21.655  43.006  13.759
13579W        W85195  14.063  22.532   1.318
13580W        W85196  32.496   5.803  11.083
13581W        W85197  32.475  22.271  12.081
13582W        W85198  33.198  41.299   2.464
13583W        W85199  37.407  25.178  12.401
13584W        W85200   2.280  25.001  14.840
13585W        W85201  29.128  11.800   1.386
13586W        W85202  29.050  31.457  11.327
13587W        W85203  10.949   5.938  10.679
13588W        W85204   1.633  44.001   0.301
13589W        W85205  44.835  44.332   0.719
13590W        W85206  30.597  28.691  14.133
13591W        W85207  41.441   6.230   3.360
13592W        W85208  19.742  33.949  12.586
13593W        W85209  17.521  35.508  12.507
13594W        W85210  10.804  32.308   3.609
13595W        W85211  16.229   4.380   3.715
13596W        W85212  23.795  19.068   2.877
13597W        W85213  33.669  24.675  10.646
13598W        W85214  39.477  44.337  12.933
13599W        W85215  25.130  19.110  11.488
13600W        W85216  27.480  43.013   3.590
13601W        W85217  24.625  31.246   0.849
13602W        W85218   0.756  10.658  13.863
13603W        W85219  16.809  10.070   4.201
13604W        W85220  14.554   3.968   4.740
13605W        W85221  42.563  34.274   3.698
13606W        W85222  39.473  10.484   4.111
13607W        W85223   4.780  12.254   2.429
13608W        W85224  44.305  14.373   2.151
13609W        W85225  23.917  23.187   3.643
13610W        W85226  31.645  41.602   4.706
13611W        W85227  14.781  19.595  14.064
13612W        W85228  10.366  20.290   4.984
13613W        W85229  11.388  13.759  12.979
13614W        W85230  20.659  38.873   2.190
13615W        W85231   6.259  40.231   9.729
13616W        W85232   5.958  42.152   4.693
13617W        W85233  24.901  19.739   5.123
13618W        W85234   9.729   3.461   1.380
13619W        W85235   7.173  38.027   1.302
13620W        W85236  37.010  21.264   2.266
13621W        W85237  22.117  39.584   3.767
13622W        W85238   1.500   5.447   0.740
13623W        W85239  26.086  28.968  13.482
13624W        W85240  32.401   0.667  12.112
13625W        W85241   4.148  35.494  13.332
13626W        W85242   1.437  31.152   4.198
13627W        W85243  35.075  36.358   3.846
13628W        W85244  25.496  15.936  14.988
13629W        W85245  42.955  27.079   3.660
13630W        W85246  10.413  14.255  14.455
13631W        W85247  24.160  15.117   4.650
13632W        W85248   4.362  40.285   3.296
13633W        W85249  21.641  33.151   1.702
13634W        W85250  20.590  17.702   3.673
13635W        W85251  40.344  12.948   3.306
13636W        W85252   4.775  27.553  11.479
13637W        W85253  35.663  30.672  11.382
13638W        W85254  21.541  37.869  11.125
13639W        W85255  28.859  32.529  13.926
13640W        W85256  30.545  19.258  12.852
13641W        W85257   7.074  15.567  13.357
13642W        W85258   8.691  31.389  14.916
13643W        W85259  19.035  41.886   3.143
13644W        W85260  37.776   9.129  11.489
13645W        W85261  41.805  33.498  14.253
13646W        W85262   6.282  30.759  13.336
13647W        W85263   0.700  19.544  12.485
13648W        W85264  20.215  35.047   2.380
13649W        W85265  20.255  28.673  12.929
13650W        W85266  26.305  28.667   3.305
13651W        W85267  18.812  27.386   1.473
13652W        W85268  21.973   7.745  13.462
13653W        W85269  33.822   9.198   0.841
13654W        W85270   3.626  44.072   4.600
13655W        W85271  42.428  19.593   2.400
13656W        W85272  30.495  39.319  11.851
13657W        W85273  38.055  19.732  14.968
13658W        W85274  18.089  36.968   0.441
13659W        W85275  42.500  42.290   2.119
13660W        W85276  18.028  29.624   4.594
13661W        W85277  12.764  14.824  10.740
13662W        W85278  18.516  11.150   4.025
13663W        W85279  26.938  25.105  12.402
13664W        W85280  14.634  40.622   0.102
13665W        W85281  36.097   1.933  12.990
13666W        W85282   2.258   3.413   2.765
13667W        W85283  40.872  23.125  10.761
13668W        W85284  21.681   2.056   4.088
13669W        W85285   0.427  20.149   3.601
13670W        W85286  39.332   0.420   4.805
13671W        W85287  42.362  18.494  11.577
13672W        W85288  32.876   1.358  14.417
13673W        W85289  13.610  44.552  11.844
13674W        W85290  34.850  10.873   2.726
13675W        W85291  42.437   3.945   0.035
13676W        W85292  43.838  43.519   4.191
13677W        W85293  23.599  22.385  10.651
13678W        W85294  29.505  41.109   2.868
13679W        W85295   1.971  23.587   1.483
13680W        W85296   6.413  18.442  12.369
13681W        W85297  33.134  13.337   4.512
13682W        W85298   6.245   9.275   0.423
13683W        W85299  12.261  35.366  11.305
13684W        W85300  31.975  13.886   2.628
13685W        W85301  36.097  32.113  11.197
13686W        W85302  44.421   5.995  12.462
13687W        W85303  10.254   9.153  11.564
13688W        W85304  20.720  13.096  11.113
13689W        W85305   9.758  25.569   0.805
13690W        W85306  16.823  38.394   2.667
13691W        W85307  23.350   1.951   0.656
13692W        W85308  36.022  15.347  10.589
13693W        W85309  12.294   6.270   4.571
13694W        W85310  32.372  42.459   0.511
13695W        W85311  16.172   4.425  14.640
13696W        W85312  39.426  42.951   3.591
13697W        W85313  26.073  19.599  14.853
13698W        W85314  35.414  18.816  11.091
13699W        W85315   1.352   0.800  13.319
13700W        W85316  32.995  36.372  10.549
13701W        W85317  34.404  39.575   4.031
13702W        W85318  21.694  31.968   1.664
13703W        W85319  43.387  19.207   3.004
13704W        W85320  39.934  28.120  10.825
13705W        W85321  17.636  36.215   0.436
13706W        W85322   4.666  25.234  14.012
13707W        W85323  38.611   2.979  11.975
13708W        W85324  24.776  30.257   0.500
13709W        W85325  11.262  19.047  11.609
13710W        W85326  14.862  41.801  14.116
13711W        W85327  28.932  26.073  14.896
13712W        W85328  42.626  32.578  14.438
13713W        W85329   8.669  16.664   2.546
13714W        W85330  11.863  37.064  11.855
13715W        W85331   6.772   5.301   3.430
13716W        W85332  25.255  40.957  10.983
13717W        W85333  28.114   8.166   4.562
13718W        W85334  28.893  37.656  13.407
13719W        W85335  23.515  35.184   4.660
13720W        W85336  11.386  44.843   1.575
13721W        W85337  44.073  40.840  12.847
13722W        W85338  19.830  17.010   2.862
13723W        W85339  32.868   2.883  11.464
13724W        W85340  25.243  42.762  14.071
13725W        W85341  23.493  32.811   4.816
13726W        W85342   5.908  39.464  14.102
13727W        W85343  27.399  33.093   0.807
13728W        W85344  16.783   8.244  14.958
13729W        W85345   7.057  27.085   3.673
13730W        W85346  12.204  41.867  11.565
13731W        W85347   6.298  25.950  12.420
13732W        W85348  13.360  16.822   3.197
13733W        W85349  38.273   7.231  14.329
13734W        W85350  23.016  15.988   1.126
13735W        W85351  30.124  39.209   5.037
13736W        W85352   9.252  14.140  14.960
13737W        W85353  16.597  41.553  12.103
13738W        W85354  28.061   2.953  11.555
13739W        W85355  33.000  22.786   3.045
13740W        W85356   1.453  21.968  14.489
13741W        W85357   3.098  20.990   2.474
13742W        W85358  30.168  25.618   0.909
13743W        W85359  23.840  29.531   3.353
13744W        W85360  38.753  21.307   4.547
13745W        W85361  24.496  26.637   1.751
13746W        W85362  27.507  17.006   4.497
13747W        W85363   3.294  38.322  11.274
13748W        W85364  16.195  16.083  11.050
13749W        W85365  19.742  34.304  11.607
13750W        W85366  12.409   6.631   4.214
13751W        W85367   3.234  10.778  12.712
13752W        W85368   9.294   5.128  12.057
13753W        W85369   1.778  27.957  14.465
13754W        W85370  32.984  22.419   1.711
13755W        W85371   4.433   8.680   0.806
13756W        W85372  19.134  10.591  12.138
13757W        W85373  17.768  39.990  13.347
13758W        W85374  26.243  23.757  11.535
13759W        W85375  34.753  13.316   3.234
13760W        W85376   4.218   0.494   3.821
13761W        W85377  35.603  12.399  12.321
13762W        W85378  38.028  29.010  14.013
13763W        W85379   9.116  31.440   4.115
13764W        W85380  25.965  41.484  10.488
13765W        W85381   3.414  21.492   3.269
13766W        W85382  43.331  35.334   2.096
13767W        W85383  36.005  12.652  10.663
13768W        W85384   2.445  18.110   3.434
13769W        W85385  23.052  33.462  10.601
13770W        W85386  31.056  15.558  10.779
13771W        W85387  33.576   4.944   0.677
13772W        W85388  40.968  37.635   3.676
13773W        W85389  16.080  32.404  10.650
13774W        W85390  35.000   5.945  11.074
13775W        W85391  39.015  20.781   3.879
13776W        W85392   9.351   0.747  10.724
13777W        W85393  12.394  24.564   1.829
13778W        W85394  36.629  44.595  13.115
13779W        W85395  17.088  38.943   0.269
13780W        W85396  13.363  11.427  12.074
13781W        W85397   6.961   9.851  14.381
13782W        W85398  42.234  36.426   4.135
13783W        W85399  26.211  16.212   9.770
13784W        W85400  35.054  44.960  10.081
13785W        W85401  32.041  24.398   1.771
13786W        W85402  20.852  40.962  13.909
13787W        W85403  35.020  20.368   3.246
13788W        W85404  29.574  22.707   3.611
13789W        W85405  30.426  28.066   1.244
13790W        W85406  32.951  27.820  13.645
13791W        W85407  34.593  30.116   2.720
13792W        W85408  32.894  39.284  11.693
13793W        W85409   9.904  43.010   1.321
13794W        W85410  19.183  12.737   3.935
13795W        W85411  11.383  19.602  10.762
13796W        W85412  11.348  31.568  10.665
13797W        W85413  16.660  12.876   3.747
13798W        W85414   4.281  10.128  11.577
13799W        W85415   0.111  33.502  11.577
13800W        W85416  21.569  31.348  12.579
13801W        W85417  44.762   3.710  12.111
13802W        W85418   8.913  40.337  11.075
13803W        W85419  23.643   4.232   2.637
13804W        W85420  14.809  35.300  12.852
13805W        W85421  42.831  39.603   2.305
13806W        W85422  26.055  39.278   0.432
13807W        W85423  35.888   2.291   3.234
13808W        W85424  15.051  42.412  12.907
13809W        W85425  36.192  44.083   0.726
13810W        W85426  27.627   0.821  12.131
13811W        W85427  12.750  28.999   2.652
13812W        W85428  26.057  25.637   4.863
13813W        W85429  41.924  21.697   4.903
13814W        W85430  34.459  31.990  11.172
13815W        W85431  35.526  41.761  12.829
13816W        W85432   0.269   0.421  11.822
13817W        W85433  25.262   8.011   1.841
13818W        W85434  17.169  16.669  12.497
13819W        W85435   7.238  26.732  12.212
13820W        W85436  20.714  14.763  14.518
13821W        W85437   7.449  18.774  11.515
13822W        W85438  27.058  40.599   0.784
13823W        W85439   7.822   9.213  13.842
13824W        W85440   3.305  16.261  14.720
13825W        W85441  22.229  37.299  14.522
13826W        W85442  20.951  39.826   0.220
13827W        W85443  12.069  44.388  14.417
13828W        W85444  18.284  31.117   0.040
13829W        W85445  31.329  24.651   3.689
13830W        W85446  33.221  14.672  10.408
13831W        W85447  20.314   2.982  12.646
13832W        W85448  32.744  26.150   0.827
13833W        W85449   3.417  17.769  12.614
13834W        W85450  30.814  38.435   4.835
13835W        W85451  36.071   1.493   3.613
13836W        W85452  23.331  39.322  14.267
13837W        W85453  14.560  33.374  10.421
13838W        W85454  41.063   9.175   4.688
13839W        W85455  44.030  23.348   2.402
13840W        W85456  17.188  22.262  13.886
13841W        W85457   6.202   5.498   3.332
13842W        W85458  11.154  27.133   2.294
13843W        W85459   0.267  19.354   4.014
13844W        W85460  20.176  20.677   2.385
13845W        W85461  35.333  24.493   2.724
13846W        W85462  32.010  29.228   3.869
13847W        W85463  28.183   2.789   2.168
13848W        W85464   9.646  43.917  13.010
13849W        W85465  17.129   5.897   3.661
13850W        W85466  15.670  41.978  14.419
13851W        W85467  22.800  18.188  13.351
13852W        W85468  28.793  10.319  12.963
13853W        W85469  33.001   1.666  13.997
13854W        W85470  22.083  10.395   0.407
13855W        W85471  14.236  40.393  14.853
13856W        W85472  34.533   0.136  11.052
13857W        W85473  22.199  39.047   1.740
13858W        W85474  18.060   9.164   4.981
13859W        W85475   5.012  20.792  14.860
13860W        W85476  26.035  42.121  14.098
13861W        W85477  40.173  40.641   2.758
13862W        W85478  42.321  17.877  13.912
13863W        W85479  19.815  37.475  12.315
13864W        W85480  18.800  32.535   1.726
13865W        W85481  36.061  28.954   3.724
13866W        W85482  35.373  24.846  11.139
13867W        W85483  41.942   6.326   3.566
13868W        W85484   6.907  11.061   3.771
13869W        W85485  11.767  39.924  13.348
13870W        W85486  29.986  11.325   4.285
13871W        W85487  28.833   7.293   1.064
13872W        W85488  25.081  44.730   2.630
13873W        W85489  17.038  14.544   1.641
13874W        W85490  28.329  36.614   1.484
13875W        W85491   4.786  31.342  14.947
13876W        W85492  40.512  25.594   0.022
13877W        W85493  30.015  30.458  14.323
13878W        W85494  30.704  17.574  12.518
13879W        W85495  41.035   0.501  10.709
13880W        W85496  38.487  28.089  10.418
13881W        W85497  20.193  18.036  14.367
13882W        W85498  23.660  21.044   0.820
13883W        W85499  11.822  13.162  11.061
13884W        W85500  12.040  20.373  13.543
13885W        W85501  35.683   6.466   0.679
13886W        W85502  22.736  20.238  13.293
13887W        W85503  17.864  14.645   4.644
13888W        W85504  13.749  39.202  10.782
13889W        W85505  36.635  17.516  14.931
13890W        W85506  26.505  43.049  12.529
13891W        W85507   3.373  15.787   0.474
13892W        W85508  12.611  28.257  12.405
13893W        W85509   6.640  35.966   3.403
13894W        W85510  11.430  21.721  14.320
13895W        W85511   3.368   1.709  12.740
13896W        W85512  32.888   9.393  12.422
13897W        W85513  28.483  31.558   3.735
13898W        W85514  16.095  16.629  12.524
13899W        W85515  19.454   3.321   0.356
13900W        W85516  31.636  15.653   2.338
13901W        W85517  24.250  15.741   1.217
13902W        W85518   4.210   9.181   3.241
13903W        W85519  19.704  30.061   4.789
13904W        W85520  39.229   4.079  14.405
13905W        W85521  40.695  12.078  11.147
13906W        W85522  27.068   1.441   1.227
13907W        W85523  40.137  43.464  12.601
13908W        W85524  18.952  14.771  12.161
13909W        W85525   9.841  27.960   4.357
13910W        W85526   0.652  15.183   1.237
13911W        W85527  18.808  32.019   1.004
13912W        W85528  36.656  22.176   0.224
13913W        W85529  36.634  12.550  10.648
13914W        W85530  41.169  41.841  14.304
13915W        W85531  22.954  11.405  11.579
13916W        W85532  16.090   2.223  11.159
13917W        W85533  31.952   2.441   3.026
13918W        W85534  38.809  10.709  14.999
13919W        W85535   8.139  10.210  11.558
13920W        W85536  10.168  32.138  10.732
13921W        W85537   1.242  14.810  11.152
13922W        W85538   3.239   0.745   3.164
13923W        W85539  16.848   4.719  13.809
13924W        W85540  32.669   3.912   0.109
13925W        W85541  43.052   9.677   0.710
13926W        W85542  18.022  28.986   0.239
13927W        W85543  35.785  11.387  12.710
13928W        W85544  23.701  37.568  13.370
13929W        W85545  26.200  18.832  11.573
13930W        W85546  14.799  38.930  12.084
13931W        W85547  21.685  23.575  13.756
13932W        W85548  15.323  22.145  14.312
13933W        W85549  35.950   0.388   0.170
13934W        W85550  28.411   7.195   1.375
13935W        W85551  22.137   9.880   0.582
13936W        W85552   6.430  18.719  11.563
13937W        W85553  36.582  23.412  10.857
13938W        W85554  32.652  41.517  13.902
13939W        W85555  33.178  17.260  11.970
13940W        W85556   2.368  36.273  14.948
13941W        W85557   5.255  28.469  12.094
13942W        W85558  30.374  42.934   0.212
13943W        W85559   6.245  23.030  12.835
13944W        W85560  24.966  24.734  12.515
13945W        W85561  18.543  39.978   3.870
13946W        W85562  14.801  18.324  11.463
13947W        W85563   9.304   4.770  10.727
13948W        W85564  24.546   9.711   0.218
13949W        W85565  19.604  14.420   4.465
13950W        W85566  40.805   9.326  13.089
13951W        W85567  34.705  26.836  12.895
13952W        W85568  40.102  26.917   0.453
13953W        W85569  17.202  37.290   0.951
13954W        W85570   6.255  36.880  11.006
13955W        W85571  42.881  33.980  14.555
13956W        W85572  30.039  35.187   0.419
13957W        W85573  15.768  30.192  11.561
13958W        W85574   4.482  14.077  13.077
13959W        W85575   7.719  17.059   1.240
13960W        W85576  29.783  44.961  12.894
13961W        W85577   0.236  31.070  13.999
13962W        W85578  20.654  27.956  12.295
13963W        W85579  13.637   4.785  13.871
13964W        W85580  13.690   0.325  13.954
13965W        W85581  40.399   3.452   9.895
13966W        W85582  30.669  31.524  13.845
13967W        W85583  13.741  23.531   1.002
13968W        W85584  14.844  26.603  10.395
13969W        W85585  17.774  13.123   4.587
13970W        W85586   3.766   1.442   0.539
13971W        W85587  15.131  34.395  11.969
13972W        W85588  31.974  10.431  10.867
13973W        W85589  14.078   4.151  11.070
13974W        W85590   4.890  11.284  11.593
13975W        W85591  40.857  35.448   3.764
13976W        W85592  39.365   5.804   2.798
13977W        W85593  34.468  17.114  12.774
13978W        W85594  39.482  32.416  11.096
13979W        W85595  30.685   8.073  12.592
13980W        W85596  20.652  31.027  14.511
13981W        W85597  44.805  19.722   2.259
13982W        W85598   4.936  24.627  13.463
13983W        W85599   7.422  35.857  14.782
13984W        W85600  24.810  24.134   0.060
13985W        W85601  21.336   0.803   4.845
13986W        W85602  29.156  13.605   4.266
13987W        W85603  39.001  24.992   1.972
13988W        W85604  20.066   0.508  10.513
13989W        W85605  33.620   5.922   3.720
13990W        W85606   4.929  25.328   3.283
13991W        W85607   4.238   3.655  14.458
13992W        W85608  28.615  13.219  12.624
13993W        W85609   1.305  15.644  14.576
13994W        W85610   5.187   1.416   2.078
13995W        W85611  30.307  41.656   2.460
13996W        W85612  44.968  44.993  10.394
13997W        W85613  41.435  11.506   4.272
13998W        W85614   1.862  41.467   0.244
13999W        W85615  39.103  18.671  11.573
14000W        W85616  22.191   6.060   2.568
14001W        W85617  32.050  41.945   4.736
14002W        W85618  43.922   5.087   4.795
14003W        W85619  32.373  37.868  11.532
14004W        W85620  31.423  25.448   3.316
14005W        W85621  42.970  27.639   2.347
14006W        W85622   1.043  14.980   2.712
14007W        W85623  34.567  12.224   1.347
14008W        W85624   8.408  34.071   2.745
14009W        W85625  19.104  31.014   3.436
14010W        W85626  10.400  28.546   3.910
14011W        W85627  33.552  36.720   1.410
14012W        W85628  24.459  32.887   4.535
14013W        W85629   4.902  23.607  14.979
14014W        W85630  38.163  42.924  13.831
14015W        W85631  30.416   6.415  10.545
14016W        W85632   0.465  15.305   1.914
14017W        W85633  40.987  37.121   0.163
14018W        W85634  42.063   5.439  14.531
14019W        W85635  43.530  18.903  12.491
14020W        W85636  19.864  21.699  12.023
14021W        W85637  34.880  33.048   3.159
14022W        W85638  35.548   5.688  10.466
14023W        W85639  35.154  37.610   4.214
14024W        W85640  22.297  22.535  12.374
14025W        W85641  20.554  32.083  11.514
14026W        W85642  32.454  27.067  12.929
14027W        W85643  41.712  33.675  14.974
14028W        W85644  22.885   9.129  14.915
14029W        W85645   2.478  39.382   2.719
14030W        W85646  10.866  32.287  14.687
14031W        W85647   9.339  24.613   3.122
14032W        W85648  31.580  31.573  13.819
14033W        W85649  22.617   8.384   4.557
14034W        W85650  38.800  15.742   1.848
14035W        W85651  33.690  37.962   1.509
14036W        W85652  18.500  37.265   0.260
14037W        W85653  26.741   3.704   1.066
14038W        W85654   4.275  37.770  13.805
14039W        W85655  16.135  38.996  14.832
14040W        W85656   8.240  27.527  10.629
14041W        W85657  32.623  28.134  11.583
14042W        W85658  20.979  17.390   2.113
14043W        W85659  35.054  37.294   3.813
14044W        W85660   2.000  15.595   3.351
14045W        W85661  23.983  19.746   0.778
14046W        W85662  28.202  39.325   0.797
14047W        W85663  35.815  37.905   3.475
14048W        W85664   9.321   6.619  12.028
14049W        W85665  19.511   8.330  14.965
14050W        W85666  16.831   1.680   3.661
14051W        W85667  21.732   7.916   0.418
14052W        W85668   9.188   4.912  14.792
14053W        W85669   5.213  31.170   0.170
14054W        W85670   7.813  27.639  14.958
14055W        W85671  39.981  11.657   4.613
14056W        W85672  29.999  33.317   3.115
14057W        W85673  10.777   6.847   2.078
14058W        W85674  40.073   5.907   0.522
14059W        W85675  33.844  35.459   1.409
14060W        W85676   8.214  32.991  10.383
14061W        W85677   2.472  32.967  14.851
14062W        W85678  31.577  18.774   1.010
14063W        W85679  30.750  36.139  10.179
14064W        W85680  38.015   1.286   1.859
14065W        W85681  26.268   4.165  13.465
14066W        W85682   3.189  35.344  11.998
14067W        W85683  39.442  29.505   2.119
14068W        W85684  43.267  14.057  11.617
14069W        W85685  42.415  15.708   3.856
14070W        W85686  18.636  43.454   2.894
14071W        W85687  39.059   3.789  12.815
14072W        W85688  38.498  10.387  12.624
14073W        W85689  31.673   1.712  10.034
14074W        W85690  37.353  38.331  14.306
14075W        W85691  21.268   8.411  11.603
14076W        W85692  33.774  40.397   4.070
14077W        W85693  39.503   5.272   4.630
14078W        W85694  18.156  13.873   1.346
14079W        W85695  42.185  33.798  12.911
14080W        W85696  16.414  12.584   1.353
14081W        W85697  31.457   1.976  10.427
14082W        W85698  23.633   1.248   1.815
14083W        W85699  39.794  32.388  12.438
14084W        W85700  24.223   7.860  13.488
14085W        W85701  42.462  25.259   4.869
14086W        W85702  13.756  15.038   3.103
14087W        W85703   3.421  36.042  12.483
14088W        W85704   0.576   0.708   5.050
14089W        W85705  20.427   6.575   2.070
14090W        W85706  35.823  32.028  11.671
14091W        W85707  33.362  22.842   5.241
14092W        W85708  21.816   1.268  12.063
14093W        W85709   2.221  22.137  10.702
14094W        W85710  14.500   7.303   2.740
14095W        W85711  36.414  40.726  14.879
14096W        W85712  14.830   5.583   4.002
14097W        W85713  25.546  43.454   1.274
14098W        W85714   5.790  38.449  13.010
14099W        W85715   1.684  40.448  12.068
14100W        W85716   4.748   1.342   1.823
14101W        W85717  44.004  14.767  11.647
14102W        W85718  42.751  22.538  14.368
14103W        W85719  35.825  21.575   2.686
14104W        W85720  34.578  31.927   3.173
14105W        W85721  18.541  44.509  12.015
14106W        W85722  34.126   8.439  10.696
14107W        W85723   0.361  11.469   2.195
14108W        W85724  14.145  40.347  13.883
14109W        W85725  22.761   0.401  13.855
14110W        W85726  37.479   2.608   4.974
14111W        W85727  18.574  34.518   3.208
14112W        W85728  36.762   2.886  11.204
14113W        W85729  15.706  29.610   4.564
14114W        W85730  24.146  29.900  14.335
14115W        W85731  22.940   8.954   4.138
14116W        W85732   4.745   4.810   3.700
14117W        W85733   0.470   1.511   0.959
14118W        W85734  26.522  26.438  10.646
14119W        W85735   9.390  18.094  12.952
14120W        W85736  35.063  12.679  11.904
14121W        W85737  44.450  15.277   1.803
14122W        W85738  39.375  32.322  14.341
14123W        W85739  27.618  35.164   1.676
14124W        W85740   2.476  37.534  12.083
14125W        W85741  29.027  14.717   2.742
14126W        W85742  16.192  16.039  14.620
14127W        W85743   7.450  39.028   4.411
14128W        W85744  10.996  25.513   3.743
14129W        W85745   1.605  24.283  10.412
14130W        W85746  20.864  14.979   2.706
14131W        W85747  12.299  40.647   3.802
14132W        W85748  34.581  35.937   4.386
14133W        W85749  18.525   9.857   1.820
14134W        W85750   0.391   9.693  13.551
14135W        W85751  44.304  11.721   0.258
14136W        W85752  14.027  14.248   1.140
14137W        W85753  18.127  37.632   4.036
14138W        W85754  17.010   1.664  14.405
14139W        W85755  31.948  14.195   0.894
14140W        W85756  35.369  16.457  11.971
14141W        W85757   5.216  21.215  10.712
14142W        W85758  29.717  32.938   1.345
14143W        W85759   6.479   0.210  14.293
14144W        W85760   2.168  39.916   3.968
14145W        W85761  44.421  20.763   1.244
14146W        W85762  23.493  37.075   1.889
14147W        W85763  27.932   6.966   1.388
14148W        W85764  14.030   8.751   1.171
14149W        W85765  34.995   1.239   2.407
14150W        W85766   6.014  25.711   3.930
14151W        W85767  32.440  34.243  14.767
14152W        W85768  44.217  44.453   3.247
14153W        W85769  14.161  17.803   9.975
14154W        W85770   7.256  31.985   4.317
14155W        W85771  18.617  39.409   3.936
14156W        W85772  44.338  27.072   1.281
14157W        W85773  29.210  36.501   1.911
14158W        W85774  27.727  35.266   0.232
14159W        W85775   6.166  12.777   0.996
14160W        W85776  27.441  43.764  12.317
14161W        W85777  43.242  38.090  11.953
14162W        W85778  29.152  42.561  14.385
14163W        W85779  29.520  31.361  11.489
14164W        W85780  43.017   1.500   3.120
14165W        W85781  24.742   3.799   4.119
14166W        W85782  30.777  18.449  13.491
14167W        W85783   1.514   8.722   4.399
14168W        W85784   8.558  41.322  14.927
14169W        W85785  36.090  42.975   2.581
14170W        W85786   7.437   4.712   0.485
14171W        W85787   6.444  17.282   4.607
14172W        W85788  31.090  44.289  14.113
14173W        W85789  15.674  39.388   0.665
14174W        W85790  16.929  34.819  12.047
14175W        W85791   3.650  17.004  11.178
14176W        W85792  22.781  43.959   3.185
14177W        W85793   8.871  40.050   4.214
14178W        W85794   6.894  31.028   2.699
14179W        W85795   1.801  33.440  13.520
14180W        W85796  34.228  41.813   3.635
14181W        W85797   5.107  20.080   4.623
14182W        W85798  19.301  32.844  13.914
14183W        W85799  12.839  42.783   3.242
14184W        W85800   7.424   9.268   4.678
14185W        W85801  32.146   6.422   1.974
14186W        W85802  21.704   3.698  11.087
14187W        W85803  22.240  40.013   0.732
14188W        W85804   9.451  26.898  12.913
14189W        W85805  33.480  30.511  13.346
14190W        W85806   6.079  21.751  11.727
14191W        W85807  33.111  23.005  13.534
14192W        W85808  17.229  33.578   1.436
14193W        W85809   8.876  10.049   3.922
14194W        W85810   7.690  13.917  14.533
14195W        W85811  16.097  43.731   0.402
14196W        W85812  29.760   3.771  14.988
14197W        W85813  18.569  10.909  14.475
14198W        W85814   0.239  28.926  11.601
14199W        W85815  33.590  11.208   1.780
14200W        W85816  14.663   2.155   3.509
14201W        W85817   6.254  35.434   1.722
14202W        W85818   4.605  36.050   4.245
14203W        W85819   2.213  11.687  12.447
14204W        W85820   6.609   6.246  11.029
14205W        W85821  40.894   0.380   0.448
14206W        W85822  25.162  14.954   1.147
14207W        W85823  40.861  41.093   4.113
14208W        W85824  32.775  36.395   1.542
14209W        W85825  33.465  43.196  11.935
14210W        W85826  16.327   6.807  14.851
14211W        W85827  25.264  14.296  11.888
14212W        W85828  26.781  31.460  14.279
14213W        W85829   5.303   2.774  13.535
14214W        W85830   7.915  42.051  12.646
14215W        W85831  25.717  10.095   4.594
14216W        W85832  34.431  33.877  14.812
14217W        W85833   6.717  41.545  14.052
14218W        W85834  21.728  26.570  12.343
14219W        W85835   0.344  28.077  14.716
14220W        W85836  28.572  18.040   1.758
14221W        W85837  13.275  24.928   4.663
14222W        W85838  13.869  18.758  12.120
14223W        W85839  35.778  31.001   2.816
14224W        W85840  15.759  33.078  14.905
14225W        W85841  21.503  33.033  13.363
14226W        W85842   4.299  23.813   1.921
14227W        W85843  13.851  29.435  10.631
14228W        W85844  38.292  25.586   4.954
14229W        W85845  33.334  16.198   3.511
14230W        W85846  34.136  38.710   3.654
14231W        W85847  23.554  21.092   4.433
14232W        W85848  42.602   9.650   3.096
14233W        W85849  33.700  20.879   0.277
14234W        W85850  10.624   9.339   1.837
14235W        W85851  10.298   9.797  14.075
14236W        W85852  44.789  33.539   3.297
14237W        W85853  29.569   6.353   4.650
14238W        W85854  27.380  19.741  13.993
14239W        W85855  33.373  41.345  14.658
14240W        W85856  36.258  29.585   1.455
14241W        W85857  31.338  43.903  11.646
14242W        W85858  44.767  18.046  13.497
14243W        W85859  12.836  19.870  14.069
14244W        W85860  44.986  16.482   4.198
14245W        W85861  32.542  25.743  14.498
14246W        W85862  31.515  26.114   4.031
14247W        W85863  28.703  24.600  11.140
14248W        W85864   1.019  28.128   3.331
14249W        W85865   4.196  33.073   1.740
14250W        W85866  34.945   3.883   0.440
14251W        W85867  41.943  21.213   3.135
14252W        W85868  31.252  13.223   2.678
14253W        W85869  25.660  12.571   0.278
14254W        W85870  23.525  38.426  14.442
14255W        W85871  19.560   0.063   4.789
14256W        W85872   5.337  33.496   2.258
14257W        W85873  37.665  23.240  14.816
14258W        W85874  12.237  19.070  12.116
14259W        W85875  34.273  18.541   2.347
14260W        W85876  28.025  38.837  10.266
14261W        W85877   4.845  40.470   3.257
14262W        W85878  23.659  13.663  10.715
14263W        W85879  38.879   1.195   5.109
14264W        W85880  11.186  35.858   0.709
14265W        W85881  40.194  31.438  14.264
14266W        W85882  23.063  10.293   3.560
14267W        W85883  24.268  40.579   2.458
14268W        W85884  15.764  25.938  14.612
14269W        W85885  32.984  23.599   1.039
14270W        W85886  43.949  36.067   0.336
14271W        W85887  16.142   5.984   3.746
14272W        W85888  44.150   0.988  11.880
14273W        W85889   0.267  33.873  11.935
14274W        W85890   8.384  38.870  13.480
14275W        W85891   3.793  18.681  11.099
14276W        W85892  10.212  11.108   0.805
14277W        W85893  24.063  10.648  13.760
14278W        W85894   5.503  44.502   5.586
14279W        W85895  29.443  28.687  10.126
14280W        W85896  41.553  27.006   3.166
14281W        W85897  20.486  34.380   4.757
14282W        W85898  37.819   6.004  13.130
14283W        W85899  27.962  20.718   1.856
14284W        W85900  44.066  43.933  14.245
14285W        W85901  15.043  29.085   3.714
14286W        W85902  30.452  25.973   2.379
14287W        W85903  16.739  44.925   9.750
14288W        W85904  33.571  23.483   3.543
14289W        W85905  42.363  36.778  11.589
14290W        W85906  42.849   5.281  11.030
14291W        W85907  30.032  17.950  10.711
14292W        W85908  20.579  43.298  12.940
14293W        W85909  39.325  19.087  10.635
14294W        W85910   2.431   3.010  12.544
14295W        W85911  30.316  24.889   4.532
14296W        W85912  43.702  22.667  10.765
14297W        W85913  21.794   2.003   1.360
14298W        W85914  13.326  14.303   4.698
14299W        W85915  44.894  21.083  14.932
14300W        W85916  40.954  30.735  14.341
14301W        W85917  17.081  24.159   1.943
14302W        W85918  18.869  15.199  11.236
14303W        W85919   7.649  42.973   9.796
14304W        W85920  38.144  33.495  14.273
14305W        W85921   9.607   6.172   4.316
14306W        W85922  31.873  17.210   0.275
14307W        W85923  12.873   5.263  11.119
14308W        W85924  42.812  43.020  11.086
14309W        W85925  21.698  41.970  14.029
14310W        W85926  34.923  34.130   3.642
14311W        W85927  20.933  41.447  11.201
14312W        W85928   3.040   8.733   4.118
14313W        W85929   7.470  14.345  12.066
14314W        W85930  13.393  42.541  10.826
14315W        W85931  39.335  23.689  14.019
14316W        W85932   0.671  39.440  11.965
14317W        W85933  44.605  31.494   1.857
14318W        W85934   4.285  32.339  11.126
14319W        W85935  38.924  16.846   0.945
14320W        W85936  17.319  12.370   1.253
14321W        W85937   3.449   4.220  10.744
14322W        W85938   5.805   0.770   2.450
14323W        W85939  35.534  28.091  13.393
14324W        W85940  40.620  26.146  14.525
14325W        W85941  37.987  20.727   3.186
14326W        W85942  30.515  20.854   2.529
14327W        W85943  14.583  17.733   5.409
14328W        W85944  44.961  41.928  10.549
14329W        W85945  35.317  28.892  10.943
14330W        W85946  36.494  37.264  10.191
14331W        W85947  30.883  42.001  11.896
14332W        W85948  33.749   0.488  11.474
14333W        W85949   4.310  38.061  13.399
14334W        W85950  39.965  40.777  13.389
14335W        W85951  43.399   2.748   3.318
14336W        W85952   0.933  30.432  13.532
14337W        W85953  18.108  14.747   2.774
14338W        W85954  40.838  26.770  12.768
14339W        W85955  12.244  14.374   1.543
14340W        W85956  40.411  10.473   4.073
14341W        W85957  40.758  36.282   2.976
14342W        W85958   6.666  11.667   4.990
14343W        W85959  28.488  29.948  11.330
14344W        W85960  44.745   1.784   5.118
14345W        W85961   2.394  18.628   4.813
14346W        W85962  16.651  13.929  12.770
14347W        W85963  10.960  33.077  12.154
14348W        W85964  19.487  13.201  13.720
14349W        W85965  12.293  39.920   3.638
14350W        W85966  33.659   0.293  11.982
14351W        W85967   4.710  44.892  12.534
14352W        W85968  37.048  11.888   4.240
14353W        W85969  43.553  26.123   3.941
14354W        W85970   9.293  33.099  13.402
14355W        W85971  10.733  32.125   1.925
14356W        W85972   5.153  29.899   0.873
14357W        W85973  13.871  33.213  13.402
14358W        W85974  27.202  36.052  10.651
14359W        W85975   5.782  44.711   1.484
14360W        W85976  14.390  35.163  10.840
14361W        W85977  11.540   7.236   0.343
14362W        W85978  38.097  28.491  11.224
14363W        W85979  31.485   3.326   2.869
14364W        W85980   8.442  29.775  12.982
14365W        W85981  36.947  35.875   4.777
14366W        W85982   6.195  14.228   0.177
14367W        W85983  38.349  37.406  12.921
14368W        W85984   0.777  17.520   4.180
14369W        W85985  43.397  16.006   4.303
14370W        W85986  36.443  36.292   4.145
14371W        W85987  31.166  38.898   4.158
14372W        W85988  14.429  19.556  11.166
14373W        W85989  10.799  18.038   0.506
14374W        W85990  43.665  37.451  12.457
14375W        W85991   7.604  18.032   3.300
14376W        W85992  14.510  24.698  13.012
14377W        W85993  19.177  30.119   1.450
14378W        W85994  44.553  11.650  12.681
14379W        W85995  29.622  28.828   3.599
14380W        W85996  26.090  22.446   3.210
14381W        W85997  42.952  35.591   3.375
14382W        W85998  23.220  20.048  13.148
14383W        W85999  23.993  39.813  10.039
14384W        W86000  12.070  27.896   3.347
14385W        W86001  40.030  30.155   4.525
14386W        W86002  13.202   9.351  13.035
14387W        W86003  42.396  35.009   0.905
14388W        W86004  40.064  13.725  13.907
14389W        W86005  10.650  33.541  13.007
14390W        W86006  44.946   7.151   2.868
14391W        W86007  36.147  21.559   4.287
14392W        W86008  41.896   5.294  12.681
14393W        W86009  25.448  26.445  13.168
14394W        W86010  10.703  44.488   4.116
14395W        W86011  38.540  19.750  11.567
14396W        W86012  15.240  11.560  13.253
14397W        W86013  26.702  10.827   0.809
14398W        W86014  25.327  24.934  14.899
14399W        W86015  15.285  41.913   1.316
14400W        W86016  22.728   3.508  12.102
14401W        W86017   3.506  17.712  10.998
14402W        W86018   4.254  16.093  11.519
14403W        W86019  13.649   1.224   0.688
14404W        W86020  28.132   8.224   1.316
14405W        W86021   2.437  44.021   1.885
14406W        W86022  20.824  41.045   1.166
14407W        W86023  44.071  11.845   2.700
14408W        W86024  12.139   2.188  13.999
14409W        W86025  30.987  37.068  11.630
14410W        W86026  21.317  38.401   2.277
14411W        W86027  28.989  28.975  12.608
14412W        W86028   2.305  19.724  13.552
14413W        W86029  37.378  42.449  11.494
14414W        W86030  26.634  23.445   0.379
14415W        W86031  18.775  18.045   2.206
14416W        W86032  42.793  12.736  11.522
14417W        W86033  36.505  16.218   3.219
14418W        W86034  16.108   5.716   4.218
14419W        W86035  16.644  13.782   0.703
14420W        W86036  28.467  15.585  10.695
14421W        W86037   6.563   0.164  12.974
14422W        W86038  13.408  16.532   1.275
14423W        W86039   7.884   9.719   0.695
14424W        W86040  28.937  28.501  12.427
14425W        W86041   0.751   3.689  11.988
14426W        W86042   6.810  10.905   2.650
14427W        W86043  13.701  26.226  10.541
14428W        W86044  16.316  11.398   0.069
14429W        W86045  26.365  29.768  13.037
14430W        W86046  39.389  30.690  10.433
14431W        W86047  35.622  25.023  13.759
14432W        W86048  15.129  19.257   4.651
14433W        W86049   9.327   1.066  12.519
14434W        W86050  40.823  23.698  11.162
14435W        W86051  26.651  14.011  13.602
14436W        W86052  35.584  29.558   2.726
14437W        W86053   6.399  14.881   1.907
14438W        W86054  33.585  12.293   1.376
14439W        W86055   1.706  20.680  14.293
14440W        W86056  41.977  44.907   1.916
14441W        W86057   6.923  41.061   1.435
14442W        W86058   1.252  25.704   3.805
14443W        W86059  40.340   2.422  11.863
14444W        W86060  12.833  33.444  14.784
14445W        W86061  13.753  20.144   2.169
14446W        W86062  41.907  20.430   0.991
14447W        W86063   6.929  35.129   2.749
14448W        W86064  26.682   2.882   3.345
14449W        W86065  15.271   3.658   0.849
14450W        W86066   4.930  13.528  13.575
14451W        W86067  40.385  34.563   3.919
14452W        W86068   1.376  29.607  12.528
14453W        W86069  42.241  34.900  12.528
14454W        W86070   0.991  28.315  12.860
14455W        W86071  30.956  26.883  13.080
14456W        W86072  38.478   5.526   4.784
14457W        W86073  23.533  24.967  10.735
14458W        W86074   5.261   7.478  10.683
14459W        W86075  41.120  22.133  10.502
14460W        W86076  42.756   8.728  10.455
14461W        W86077  35.997   1.930  11.669
14462W        W86078  40.932   7.179   4.365
14463W        W86079   4.872  33.468   0.391
14464W        W86080  16.148  42.440   5.467
14465W        W86081   7.381  41.252   1.232
14466W        W86082  36.427  30.642  11.950
14467W        W86083  18.177   6.460   3.801
14468W        W86084  38.474   4.884   0.375
14469W        W86085  19.604  34.969  13.315
14470W        W86086  44.259  16.579  11.959
14471W        W86087   3.951   2.983  10.816
14472W        W86088  26.373   3.733  14.326
14473W        W86089  17.566   7.891   1.356
14474W        W86090  16.797  41.880   1.274
14475W        W86091  39.915  40.723  11.014
14476W        W86092  22.576  10.605  13.495
14477W        W86093  21.171  19.972  12.019
14478W        W86094  24.676  15.071   0.957
14479W        W86095   5.776  39.925   4.895
14480W        W86096   2.315  12.692   3.190
14481W        W86097  13.520  30.535   5.177
14482W        W86098  43.571  43.289  13.912
14483W        W86099  23.033  30.870  13.323
14484W        W86100   5.212   3.698  11.445
14485W        W86101  39.865   6.112   2.147
14486W        W86102  21.126  10.475   0.261
14487W        W86103  29.768  13.189  12.905
14488W        W86104   1.930  36.576  14.932
14489W        W86105  44.891   9.905   4.269
14490W        W86106  22.502  15.824   1.049
14491W        W86107   1.464  30.059   2.704
14492W        W86108  16.818  22.587   1.861
14493W        W86109  21.529   0.999   0.020
14494W        W86110  12.250  37.350  10.956
14495W        W86111   6.211  22.736  13.556
14496W        W86112  19.869  17.482  11.048
14497W        W86113  41.599  23.109  14.023
14498W        W86114  39.372  14.338   2.222
14499W        W86115  28.235  34.595  10.194
14500W        W86116  19.623  38.470  11.482
14501W        W86117   4.763  18.798   0.901
14502W        W86118  14.781  23.526   0.264
14503W        W86119  28.098  36.422   1.021
14504W        W86120  29.131  37.940  13.770
14505W        W86121  17.046  17.522   0.727
14506W        W86122  44.336  44.919  14.513
14507W        W86123  32.068  28.216  13.295
14508W        W86124  15.841   7.669   4.825
14509W        W86125  15.633  19.299   4.623
14510W        W86126  25.348  20.896  11.971
14511W        W86127  28.030  12.620  13.820
14512W        W86128   0.276   8.713  12.524
14513W        W86129  31.879  17.831  10.639
14514W        W86130  25.913  17.050  12.100
14515W        W86131  29.182  34.043   1.269
14516W        W86132   6.286  29.495   1.154
14517W        W86133  32.469  14.280   4.043
14518W        W86134  25.069   9.882  14.878
14519W        W86135  35.332  28.316  13.836
14520W        W86136   8.572  38.034  12.356
14521W        W86137   3.268   3.725  12.477
14522W        W86138   0.418   4.191   1.683
14523W        W86139  12.143  10.575  11.613
14524W        W86140   9.032  44.847  13.829
14525W        W86141  12.217   4.432  13.313
14526W        W86142   0.655  10.622   3.401
14527W        W86143  35.416  38.567  12.070
14528W        W86144  25.194  39.000  11.423
14529W        W86145  21.357  24.110   0.836
14530W        W86146  13.612  41.007  10.751
14531W        W86147  13.387   5.376   1.271
14532W        W86148  17.066  36.156   4.559
14533W        W86149  33.473  22.259  14.799
14534W        W86150  32.527  32.127   2.310
14535W        W86151  28.854  33.089  11.445
14536W        W86152  30.090  23.871  10.611
14537W        W86153  16.203  17.022   3.184
14538W        W86154  36.202  43.984  11.006
14539W        W86155  43.924   8.736   4.574
14540W        W86156   9.772   7.240   0.483
14541W        W86157   6.810  27.936   1.217
14542W        W86158  32.009  39.900   0.379
14543W        W86159  14.153   7.345   3.644
14544W        W86160  40.158  20.590  10.982
14545W        W86161  42.044  30.006   1.987
14546W        W86162  38.409  31.911  14.419
14547W        W86163   4.287  22.084  12.152
14548W        W86164  41.953  29.031  13.242
14549W        W86165   4.492  23.969  11.009
14550W        W86166   1.889  28.092  11.942
14551W        W86167  25.448   2.797  14.499
14552W        W86168  31.054  15.458   2.895
14553W        W86169  33.072  11.464  13.511
14554W        W86170  11.608  31.599   2.632
14555W        W86171  35.574  14.214   3.643
14556W        W86172  37.587  11.815  10.608
14557W        W86173   1.793  37.176   1.613
14558W        W86174  22.736  28.663   1.875
14559W        W86175   2.983   4.739  14.711
14560W        W86176  13.840  34.517  13.386
14561W        W86177  22.141  25.962   1.683
14562W        W86178   4.905  44.959   4.221
14563W        W86179  17.072  11.349  14.602
14564W        W86180  16.153  28.924  10.904
14565W        W86181  18.705  28.562   4.456
14566W        W86182  35.453  19.092   4.618
14567W        W86183  26.909  39.893  12.005
14568W        W86184  29.153   6.373   3.145
14569W        W86185  29.695  12.929   4.645
14570W        W86186   3.542  36.278   5.076
14571W        W86187  29.234   7.361   4.795
14572W        W86188   0.888   7.897  11.095
14573W        W86189   0.210  22.463   4.191
14574W        W86190  21.249  43.072  12.629
14575W        W86191   2.277  18.181  14.841
14576W        W86192  10.164  34.835   1.938
14577W        W86193   1.429  15.281  10.884
14578W        W86194  38.604  34.761   4.121
14579W        W86195   2.113  18.492   1.081
14580W        W86196   3.317  36.905  12.108
14581W        W86197  33.129  17.131   2.857
14582W        W86198  42.042  21.322   1.318
14583W        W86199  20.256   4.653   0.381
14584W        W86200  40.527  10.308  14.393
14585W        W86201  31.174   2.745  11.811
14586W        W86202  40.359  26.173  12.423
14587W        W86203  44.718  15.635   2.789
14588W        W86204  27.736  21.192  14.995
14589W        W86205  39.304  23.198   3.349
14590W        W86206  29.315  40.644   2.612
14591W        W86207  30.495  43.874   3.684
14592W        W86208  15.916  12.061   2.938
14593W        W86209  42.401  44.766   1.650
14594W        W86210   8.771  14.670  12.950
14595W        W86211   4.449   0.445  13.896
14596W        W86212  31.826  41.634   2.961
14597W        W86213  12.179   0.306   1.845
14598W        W86214  32.536   8.217  14.533
14599W        W86215   1.223  24.852   2.604
14600W        W86216  28.106  11.847  13.190
14601W        W86217   2.476   0.949   1.189
14602W        W86218   6.248  30.806  11.568
14603W        W86219  10.183   4.028  12.495
14604W        W86220  44.471  24.598  12.068
14605W        W86221   6.773  12.602   0.018
14606W        W86222  33.421  13.871   2.836
14607W        W86223   7.618  38.121   0.477
14608W        W86224  31.218  28.627   1.764
14609W        W86225   6.305  40.817   3.384
14610W        W86226  12.231  18.139   3.230
14611W        W86227   2.077  22.327  10.197
14612W        W86228   0.254  10.258  14.854
14613W        W86229  29.260  21.260  14.361
14614W        W86230  35.915  38.486  10.892
14615W        W86231  13.151  12.991  13.389
14616W        W86232  40.920  21.120   4.130
14617W        W86233  17.755  24.667   2.284
14618W        W86234  23.555  11.963  11.800
14619W        W86235  42.019  33.027  11.017
14620W        W86236  38.258   4.238   4.611
14621W        W86237  14.784   6.958  11.447
14622W        W86238   3.851  10.598   3.269
14623W        W86239   8.427   6.338   1.704
14624W        W86240  16.887   8.204  12.589
14625W        W86241  16.636  19.721  12.935
14626W        W86242  33.940   9.907   1.935
14627W        W86243  24.147   0.977  10.717
14628W        W86244   1.567  33.871  11.507
14629W        W86245  39.106  43.567   0.260
14630W        W86246   2.614   7.126   4.929
14631W        W86247  23.424   9.742  10.382
14632W        W86248   0.279  17.483   1.382
14633W        W86249  14.136  11.515  14.499
14634W        W86250   3.376  40.194   3.643
14635W        W86251  44.051  13.226  12.817
14636W        W86252  38.489  32.358   3.755
14637W        W86253  26.932  14.755   1.461
14638W        W86254  12.595  14.120  14.835
14639W        W86255  27.706  16.249  12.848
14640W        W86256  39.296  10.272   0.646
14641W        W86257  40.292  23.073   4.541
14642W        W86258  42.136  44.245  11.163
14643W        W86259   1.469  14.743   4.579
14644W        W86260   5.363  33.619   0.271
14645W        W86261  36.338   7.685  14.914
14646W        W86262  34.683  43.456  11.588
14647W        W86263   2.919  32.054  14.891
14648W        W86264  40.218   7.422  10.076
14649W        W86265  14.210  19.938   3.324
14650W        W86266  12.698  22.161   4.773
14651W        W86267  29.260  15.684  11.882
14652W        W86268  22.795  19.779  12.041
14653W        W86269  25.055  32.506  10.741
14654W        W86270  38.287  22.606   2.819
14655W        W86271  31.492  25.932   3.193
14656W        W86272  36.625  39.291  11.138
14657W        W86273   1.960  40.292   2.916
14658W        W86274  28.007  29.707  11.122
14659W        W86275  15.893  28.121  12.541
14660W        W86276  17.232  36.151   1.769
14661W        W86277  41.689   3.501   0.569
14662W        W86278  14.218   1.737   1.694
14663W        W86279  11.617   9.582   4.143
14664W        W86280  27.062   8.830  11.537
14665W        W86281  36.500  15.992   2.226
14666W        W86282  37.589  25.911   2.157
14667W        W86283  24.130  26.841  11.073
14668W        W86284  15.786  16.579  13.005
14669W        W86285   5.212  22.212   1.869
14670W        W86286   9.749  16.525   3.350
14671W        W86287  13.602  36.278  14.002
14672W        W86288  34.383   4.219   1.163
14673W        W86289  19.996  32.388   3.778
14674W        W86290  14.300  31.506   4.129
14675W        W86291  23.244  33.576  13.550
14676W        W86292  17.255  12.138   3.227
14677W        W86293  10.755  16.063   2.292
14678W        W86294  13.116   4.881  13.800
14679W        W86295  15.338   3.904   2.364
14680W        W86296   1.576  17.822  13.350
14681W        W86297  43.011  36.085   4.159
14682W        W86298   7.750  23.521   1.217
14683W        W86299  40.680  21.843   4.048
14684W        W86300   9.953  21.330   4.509
14685W        W86301  42.915   9.354  13.486
14686W        W86302  19.259  26.270   5.013
14687W        W86303  32.134   3.276   1.702
14688W        W86304  23.946  10.817   0.417
14689W        W86305  42.550  22.822   1.438
14690W        W86306  23.452   9.656   0.563
14691W        W86307   7.467  30.739   0.304
14692W        W86308   0.997  35.698  10.759
14693W        W86309  40.282   0.027   3.731
14694W        W86310   0.409  13.837   1.786
14695W        W86311  31.509  35.357   4.071
14696W        W86312  11.741   2.164   2.682
14697W        W86313  30.973  34.607   4.256
14698W        W86314  24.160   0.495   4.746
14699W        W86315  30.337  33.299  14.411
14700W        W86316  18.317  30.055  14.110
14701W        W86317   6.227  27.434  10.644
14702W        W86318  20.162  37.467   1.473
14703W        W86319  36.092  34.622  10.644
14704W        W86320  13.137  41.611   1.857
14705W        W86321  26.636  16.874  10.188
14706W        W86322  28.452  34.580   0.818
14707W        W86323  10.049   1.941  12.769
14708W        W86324  20.473  23.646  11.872
14709W        W86325   2.754  22.107  14.714
14710W        W86326  35.362  10.313  13.894
14711W        W86327  41.580   4.819  13.953
14712W        W86328   9.783  29.586  10.775
14713W        W86329  14.815  42.529  12.456
14714W        W86330  35.000  29.321   4.649
14715W        W86331  25.445  19.156  11.103
14716W        W86332  35.857  28.081   0.014
14717W        W86333   9.836   2.403   2.748
14718W        W86334   9.795   7.810  14.295
14719W        W86335   9.595  40.569   2.855
14720W        W86336  31.935  10.720  13.890
14721W        W86337  22.550   6.791  12.679
14722W        W86338  21.585  34.622   1.687
14723W        W86339  15.242  10.764  10.412
14724W        W86340  11.848  22.211   1.903
14725W        W86341  22.276   0.761   4.141
14726W        W86342  11.041  22.066  14.470
14727W        W86343  43.943  29.096   2.218
14728W        W86344  18.241   9.298   0.911
14729W        W86345  29.388  35.267   4.164
14730W        W86346  21.508  31.930   3.512
14731W        W86347  18.166  26.917  12.081
14732W        W86348  20.476  43.860   1.166
14733W        W86349  24.037  15.680   1.690
14734W        W86350  17.189  23.154   3.882
14735W        W86351   3.302  10.927  10.527
14736W        W86352  32.606  35.968  10.879
14737W        W86353  28.107   6.598   1.699
14738W        W86354   3.845   6.169  10.736
14739W        W86355   9.770   2.175  12.363
14740W        W86356  11.088  13.981   3.216
14741W        W86357  32.375  25.026  12.401
14742W        W86358  16.347   8.059  13.596
14743W        W86359  16.741  42.580   1.689
14744W        W86360  28.442  13.060   2.748
14745W        W86361  40.070  11.505   5.086
14746W        W86362  43.876   7.317  14.868
14747W        W86363  18.815  31.362   3.157
14748W        W86364   4.392  19.675   0.595
14749W        W86365  29.837   1.214   1.056
14750W        W86366  28.479   6.869  10.704
14751W        W86367  29.828  21.053  12.617
14752W        W86368   8.789   9.097   0.347
14753W        W86369  30.561  19.670  11.972
14754W        W86370  30.350  13.723   4.597
14755W        W86371  31.522   5.141  11.636
14756W        W86372   3.747  29.903   2.247
14757W        W86373  23.664  37.260  13.796
14758W        W86374  26.657  13.227   1.297
14759W        W86375  33.106  21.575   4.272
14760W        W86376  20.332  39.574  12.576
14761W        W86377  43.218   0.409  11.144
14762W        W86378   1.951   5.415  14.367
14763W        W86379   5.848   3.513   0.053
14764W        W86380   1.051   9.885  12.071
14765W        W86381  35.638  16.655   4.597
14766W        W86382  23.300  16.530  14.899
14767W        W86383  34.386  32.350  12.823
14768W        W86384  16.045  37.507   0.301
14769W        W86385   1.309  14.362  14.402
14770W        W86386  24.308  19.996   0.115
14771W        W86387  12.176  43.842   3.719
14772W        W86388  13.666  36.543   1.864
14773W        W86389  28.683  41.907  11.196
14774W        W86390   9.271  11.600   0.756
14775W        W86391  30.603  24.735  13.411
14776W        W86392  31.610  19.772   4.202
14777W        W86393  43.823  15.262  11.593
14778W        W86394  14.557  42.482   2.313
14779W        W86395  15.624  38.000  11.407
14780W        W86396   7.229  22.130  13.745
14781W        W86397  28.007  23.562   1.166
14782W        W86398   6.419  37.767  13.973
14783W        W86399  35.771  21.204   2.257
14784W        W86400  12.137   2.559  10.538
14785W        W86401  42.481  10.608  14.291
14786W        W86402  23.994   8.412  14.424
14787W        W86403  13.799   8.099  14.781
14788W        W86404  41.027  34.791  13.381
14789W        W86405   9.414  43.272  14.337
14790W        W86406  42.965  36.350  14.927
14791W        W86407  24.085  29.885   3.725
14792W        W86408  26.771  34.224  13.119
14793W        W86409  18.306  20.784  13.873
14794W        W86410  25.129  27.754   0.831
14795W        W86411  44.781  16.028   4.014
14796W        W86412  39.930  20.024  13.885
14797W        W86413  43.559  40.799  12.833
14798W        W86414  28.158  32.191  13.414
14799W        W86415  40.672  23.309   1.301
14800W        W86416  29.462  37.055   3.621
14801W        W86417  33.122   7.934   2.344
14802W        W86418  18.486  44.322   2.792
14803W        W86419   0.117  16.680  10.787
14804W        W86420  22.567  38.865  13.046
14805W        W86421  21.235   1.348   3.225
14806W        W86422  43.964  38.517   3.246
14807W        W86423  13.973   5.874  14.398
14808W        W86424  36.845   6.286   4.010
14809W        W86425  36.130   4.374  12.931
14810W        W86426  22.995  12.818   1.874
14811W        W86427   3.778  15.598   0.708
14812W        W86428  26.572   5.630  11.503
14813W        W86429  12.875  20.108   1.552
14814W        W86430   3.266   9.468  10.730
14815W        W86431  44.515  30.367   0.018
14816W        W86432  26.963  19.483  11.683
14817W        W86433  25.696  35.772  12.196
14818W        W86434   8.616   4.161   1.662
14819W        W86435   1.537  22.157   5.120
14820W        W86436   6.946   1.834  13.853
14821W        W86437  14.315   3.040   5.182
14822W        W86438  43.621  18.735   4.087
14823W        W86439  29.382  30.774   1.285
14824W        W86440   3.718  11.369  11.386
14825W        W86441  36.880  37.160   1.887
14826W        W86442  25.299  35.562   3.665
14827W        W86443  28.714  18.523   0.839
14828W        W86444   5.209  22.650   4.191
14829W        W86445  18.351  44.801  11.607
14830W        W86446   0.385  31.127   1.610
14831W        W86447  30.633   9.763   0.825
14832W        W86448  26.623  26.710   1.955
14833W        W86449  30.622  40.292  11.605
14834W        W86450  24.545  16.042  14.002
14835W        W86451  37.263  19.089   0.431
14836W        W86452  35.905  30.085   3.173
14837W        W86453   6.256   2.778   1.863
14838W        W86454  25.752  32.836  12.584
14839W        W86455  18.661  42.274   0.441
14840W        W86456   9.191  25.483  11.992
14841W        W86457  35.878   7.415  13.893
14842W        W86458   7.412  44.277   1.209
14843W        W86459  39.943  26.134  13.300
14844W        W86460  15.206  10.269   1.756
14845W        W86461  41.907   1.875  12.139
14846W        W86462  13.893   1.120   0.257
14847W        W86463   1.759  26.879  13.318
14848W        W86464  44.945   0.378   1.596
14849W        W86465  11.132  42.565  13.329
14850W        W86466   8.406  10.654   3.240
14851W        W86467  24.557  38.477  14.329
14852W        W86468  37.412  30.004   0.536
14853W        W86469  36.348  13.690   3.325
14854W        W86470  31.136   9.979  10.584
14855W        W86471   7.630   9.742   1.650
14856W        W86472   5.372   3.655  13.037
14857W        W86473  17.130  29.210  10.695
14858W        W86474  11.865  41.446   2.876
14859W        W86475  39.098  20.556   4.354
14860W        W86476  32.400  25.951  12.663
14861W        W86477  11.769   6.935  10.351
14862W        W86478  11.314   9.608   3.702
14863W        W86479  24.654  33.847  13.302
14864W        W86480  21.367  20.263  11.627
14865W        W86481  30.823  21.545  10.776
14866W        W86482   6.197   1.471   1.357
14867W        W86483  36.589  25.709   1.268
14868W        W86484  35.968   9.809  10.840
14869W        W86485  33.595  31.475   2.162
14870W        W86486   1.745  27.078  13.831
14871W        W86487  26.096  40.623  13.993
14872W        W86488  35.333  17.289   1.296
14873W        W86489  40.912   7.503  14.581
14874W        W86490  17.980  20.679   1.393
14875W        W86491  19.315  29.050  12.624
14876W        W86492  24.533   0.365  11.140
14877W        W86493   5.697  43.372   3.061
14878W        W86494   9.264  20.543   4.631
14879W        W86495  22.504  19.408  12.234
14880W        W86496  16.069  31.891  14.822
14881W        W86497  28.995  33.531  11.146
14882W        W86498  36.119  40.877   3.120
14883W        W86499  29.663   2.943   4.204
14884W        W86500  32.177   3.965  14.222
14885W        W86501  20.766  16.508  11.325
14886W        W86502  15.643   8.695   0.517
14887W        W86503  11.392  36.138   0.327
14888W        W86504  17.957  19.750  11.473
14889W        W86505   4.541  29.287  14.365
14890W        W86506  21.603   3.078  14.009
14891W        W86507   2.065   9.871   3.027
14892W        W86508  25.861  29.367  12.623
14893W        W86509  37.935  23.531  12.214
14894W        W86510   0.241  25.480   2.002
14895W        W86511  37.472  15.834   4.248
14896W        W86512  20.201  13.178   0.340
14897W        W86513   3.133   9.126   1.290
14898W        W86514  35.543   2.037   1.471
14899W        W86515  18.596   9.831  14.470
14900W        W86516  39.565  12.961  13.415
14901W        W86517  38.068  21.355   3.032
14902W        W86518  14.713   3.979  12.849
14903W        W86519  36.707  17.420   4.415
14904W        W86520   4.621  34.018   4.520
14905W        W86521  36.577  30.883  14.016
14906W        W86522  20.676  21.349  13.831
14907W        W86523  12.546  21.118   1.655
14908W        W86524  12.264  29.418  11.991
14909W        W86525  24.527  43.386  12.084
14910W        W86526   5.643  37.827   0.492
14911W        W86527   0.100  26.609  12.173
14912W        W86528  41.412   0.340   4.406
14913W        W86529   0.358  43.246   2.178
14914W        W86530  38.913  12.669  14.164
14915W        W86531  25.047  11.279   3.595
14916W        W86532   5.411  22.519  13.270
14917W        W86533   2.662  22.472  11.174
14918W        W86534   8.105  16.315  14.734
14919W        W86535  34.842  21.478   2.458
14920W        W86536   4.902   5.427   2.351
14921W        W86537  36.086  42.826  13.701
14922W        W86538  20.084  18.789   3.151
14923W        W86539  21.582   8.069  12.593
14924W        W86540  26.059   6.013   1.963
14925W        W86541  15.893   6.391  14.928
14926W        W86542   6.806  28.584   4.574
14927W        W86543  11.018  16.817  14.457
14928W        W86544  32.256  35.957  13.549
14929W        W86545  35.989   0.958  11.945
14930W        W86546  23.448  40.716  13.937
14931W        W86547  20.146  44.919  13.844
14932W        W86548  22.382  13.000   4.114
14933W        W86549  41.415  21.016  12.931
14934W        W86550  12.907   3.723   0.160
14935W        W86551  19.775   5.704  12.520
14936W        W86552  13.846  27.100   3.312
14937W        W86553  18.509  25.578  14.414
14938W        W86554  34.366  33.423  13.366
14939W        W86555  14.078  42.908   3.794
14940W        W86556  38.821  12.929   1.257
14941W        W86557   5.778  11.860  13.596
14942W        W86558  34.453  43.737  13.397
14943W        W86559  32.469  24.638   3.063
14944W        W86560  41.092  21.661   4.289
14945W        W86561  15.272  11.606  12.410
14946W        W86562  26.766  23.006  12.327
14947W        W86563  31.101   1.749   4.611
14948W        W86564   0.081   7.395  13.931
14949W        W86565  12.273  27.514   2.436
14950W        W86566  28.374  17.687   0.245
14951W        W86567  33.135  24.675   3.687
14952W        W86568  30.047   7.219  13.520
14953W        W86569   8.215  38.119   4.452
14954W        W86570  40.998   8.380   2.585
14955W        W86571  31.594   9.574  13.918
14956W        W86572  22.608   8.312  11.231
14957W        W86573  24.805  13.705  11.446
14958W        W86574  36.910  15.515  12.528
14959W        W86575  33.004  20.450  13.530
14960W        W86576  34.073   9.828  11.333
14961W        W86577  29.454  35.445  13.540
14962W        W86578   4.741  39.949   0.544
14963W        W86579  17.523  10.375   3.701
14964W        W86580  43.340   9.207   3.156
14965W        W86581   9.586  26.061   0.098
14966W        W86582  11.745  17.612   3.023
14967W        W86583  33.824  18.315   2.294
14968W        W86584  32.621  38.322   1.771
14969W        W86585  42.050  17.815  12.163
14970W        W86586  41.477  15.979  14.476
14971W        W86587  37.323  10.192   3.751
14972W        W86588  25.069  13.199  12.520
14973W        W86589  11.768   6.182  11.400
14974W        W86590  25.583  25.497   2.143
14975W        W86591  12.135  25.373   0.959
14976W        W86592   8.238  30.739  14.398
14977W        W86593  39.063  14.294   0.896
14978W        W86594  41.897  43.607  13.264
14979W        W86595   6.499  23.644  10.449
14980W        W86596   8.917  38.992  11.039
14981W        W86597  26.224  28.991  14.869
14982W        W86598  12.556  16.679  14.370
14983W        W86599   5.678   1.441  10.664
14984W        W86600  15.909  35.963   0.124
14985W        W86601  17.581  14.194  12.038
14986W        W86602  36.533   3.514   1.046
14987W        W86603  42.021  12.948  14.419
14988W        W86604   9.106  11.925  10.681
14989W        W86605  34.898  26.900  10.765
14990W        W86606   9.152  13.764   4.528
14991W        W86607  11.121  20.925  13.624
14992W        W86608  25.970  12.285   3.161
14993W        W86609  26.894  11.878   1.313
14994W        W86610   6.634  36.622  14.221
14995W        W86611  24.985  30.387   3.325
14996W        W86612  43.776  16.067  13.073
14997W        W86613   8.715  23.817   3.738
14998W        W86614  24.671  43.044  14.918
14999W        W86615  31.284  39.423  12.091
15000W        W86616   3.068  30.365   4.226
15001W        W86617  15.150   8.291   1.728
15002W        W86618  27.695  25.773   1.664
15003W        W86619  31.465  40.593   3.216
15004W        W86620  31.059  27.870  12.895
15005W        W86621  31.545  30.181   4.480
15006W        W86622  14.598  36.593   2.205
15007W        W86623   2.375  39.495  13.444
15008W        W86624  32.865  16.120   3.710
15009W        W86625  33.451  42.921  12.556
15010W        W86626  38.182  16.100  13.435
15011W        W86627  34.724  32.335   4.771
15012W        W86628  36.625  16.956   1.677
15013W        W86629  14.586  26.870   2.659
15014W        W86630   2.290  24.536  11.833
15015W        W86631  27.994  35.871   0.398
15016W        W86632  34.938  43.550  12.446
15017W        W86633  15.650   8.787   2.397
15018W        W86634   5.360  20.583  13.106
15019W        W86635  21.078  29.664  14.518
15020W        W86636   2.995  21.756  11.542
15021W        W86637  30.088  34.348   1.724
15022W        W86638  34.801  40.327   4.120
15023W        W86639  22.546  30.134  13.791
15024W        W86640  12.298  23.782   4.136
15025W        W86641  29.663  31.866  12.504
15026W        W86642   2.200  34.037   4.614
15027W        W86643  17.048  11.974  13.134
15028W        W86644   8.822  35.869  11.027
15029W        W86645  31.569   7.441  11.148
15030W        W86646  31.192  17.380  14.583
15031W        W86647  17.814  23.185  12.418
15032W        W86648  33.817  24.544  14.084
15033W        W86649  32.645  21.135  14.845
15034W        W86650  25.882  16.496  13.886
15035W        W86651   0.905  28.485   1.659
15036W        W86652  27.515   6.157   1.665
15037W        W86653   2.699  23.275   3.217
15038W        W86654  22.013  28.500  11.598
15039W        W86655  37.919  41.633  13.395
15040W        W86656  27.792  21.711  11.509
15041W        W86657   5.938  16.930  13.057
15042W        W86658  13.857   1.591   4.815
15043W        W86659  12.931  24.667  14.972
15044W        W86660  11.480   4.336   2.704
15045W        W86661  40.891  44.183  14.604
15046W        W86662  10.912   6.072   1.277
15047W        W86663  13.588  39.211   2.863
15048W        W86664  24.257   8.772  11.651
15049W        W86665  12.896   9.412   0.045
15050W        W86666  39.476   7.130  10.693
15051W        W86667   1.362   0.443  12.942
15052W        W86668  28.469  11.839  14.523
15053W        W86669  41.458  43.965  12.150
15054W        W86670  25.212  26.498  10.907
15055W        W86671   4.018  32.031  14.953
15056W        W86672  30.384  12.247  10.794
15057W        W86673   9.735  38.771   1.753
15058W        W86674   3.475  43.561   1.620
15059W        W86675  36.552  31.053   1.399
15060W        W86676  40.032  24.660  14.377
15061W        W86677   4.468  12.776   2.485
15062W        W86678  27.669  30.342  14.085
15063W        W86679  31.761  25.693   4.319
15064W        W86680  38.098  35.129  11.148
15065W        W86681  22.178  22.491  12.861
15066W        W86682  35.349  31.410  14.876
15067W        W86683   6.416  14.663   4.645
15068W        W86684  28.874  15.019  13.789
15069W        W86685  29.016  17.369  11.442
15070W        W86686  34.632  27.358   3.433
15071W        W86687  38.026  26.105  14.377
15072W        W86688  44.764  30.966   4.164
15073W        W86689  24.252  30.824   0.981
15074W        W86690  27.605   6.685   0.133
15075W        W86691   3.710  29.934  13.103
15076W        W86692  38.770  20.305   1.895
15077W        W86693   3.909   9.622  14.336
15078W        W86694  26.982   7.279   1.215
15079W        W86695  11.597  23.787   1.268
15080W        W86696  35.375  23.913   3.609
15081W        W86697  12.757   1.321  11.121
15082W        W86698  33.068  15.991  12.442
15083W        W86699   5.621  21.261  13.835
15084W        W86700  10.632  38.957  12.233
15085W        W86701   3.080  44.480   0.631
15086W        W86702  30.163   0.824   0.955
15087W        W86703  18.113  40.843  13.657
15088W        W86704  36.885  35.176   0.816
15089W        W86705  28.745   6.977  12.987
15090W        W86706   6.947  29.923  13.424
15091W        W86707  13.816  44.406   0.971
15092W        W86708   8.338   9.199   2.590
15093W        W86709  13.356   6.322   5.168
15094W        W86710  10.506  25.054   3.218
15095W        W86711  25.638  16.761   0.735
15096W        W86712  44.029  24.702  13.942
15097W        W86713  10.083  20.420  11.049
15098W        W86714   5.258  35.020  11.613
15099W        W86715  20.530  32.363  11.077
15100W        W86716  26.595   1.214  14.570
15101W        W86717  13.558  11.098  12.452
15102W        W86718  14.103  13.260   4.917
15103W        W86719  39.334  42.324   1.028
15104W        W86720   2.284  21.595  13.962
15105W        W86721  33.979  22.053   3.773
15106W        W86722  31.612  32.377  11.589
15107W        W86723  29.503  38.950   0.840
15108W        W86724  17.354  27.985  12.576
15109W        W86725  36.099  34.954  12.251
15110W        W86726  32.254   7.013   0.953
15111W        W86727  24.637  31.002  13.051
15112W        W86728   9.254  37.256   3.011
15113W        W86729  23.171  31.135   3.036
15114W        W86730  39.661   0.390   4.408
15115W        W86731  34.957   6.984  14.047
15116W        W86732  27.516  41.833   0.227
15117W        W86733  42.427  24.653   0.666
15118W        W86734  35.206  14.514  13.387
15119W        W86735  24.143  14.543  10.433
15120W        W86736  10.606  40.768  12.846
15121W        W86737  15.930  38.484   1.872
15122W        W86738   7.814  33.517   0.003
15123W        W86739   2.385   5.883   4.271
15124W        W86740  41.909  26.501  10.243
15125W        W86741   6.613  16.910   0.957
15126W        W86742  43.682  33.495   2.681
15127W        W86743  31.550   8.232  10.679
15128W        W86744  31.153   5.946  13.438
15129W        W86745  10.384  31.157  11.940
15130W        W86746  27.964  13.933  10.913
15131W        W86747  23.545   9.683   0.055
15132W        W86748  39.349  21.427  12.430
15133W        W86749  16.707  38.284   4.515
15134W        W86750   2.054  34.462  12.172
15135W        W86751  38.736  15.022   2.268
15136W        W86752  14.317  19.689  13.523
15137W        W86753  33.122  19.992   1.868
15138W        W86754   7.811  19.570  12.470
15139W        W86755   9.091  13.790  13.559
15140W        W86756  33.848   5.634   1.889
15141W        W86757  19.566   4.484  14.366
15142W        W86758   2.025  30.517   3.283
15143W        W86759  24.180  17.801   3.758
15144W        W86760  22.455   2.704  14.571
15145W        W86761  11.293  25.893  10.971
15146W        W86762  10.888  14.748   0.840
15147W        W86763   2.915  27.099   3.383
15148W        W86764  30.844  40.478   1.675
15149W        W86765   0.521  32.119   4.639
15150W        W86766  42.437  18.367  14.045
15151W        W86767  16.637  16.121  13.889
15152W        W86768  44.936  36.599  10.238
15153W        W86769   3.170  12.055  13.059
15154W        W86770  39.740   8.789   0.350
15155W        W86771  31.154  14.695  12.574
15156W        W86772  39.853   1.931  13.985
15157W        W86773  12.822  20.368   2.394
15158W        W86774  40.445  35.346  14.951
15159W        W86775  15.600  13.640   0.809
15160W        W86776  28.393  32.501   2.566
15161W        W86777  19.691   5.866  13.490
15162W        W86778  42.881  31.202   1.782
15163W        W86779  13.171  27.645   2.682
15164W        W86780  31.388  17.520   2.282
15165W        W86781  40.006  43.806  10.691
15166W        W86782  29.727  28.025  11.960
15167W        W86783  34.160  37.824   1.325
15168W        W86784  35.200   9.857  14.044
15169W        W86785  38.548  14.365   4.807
15170W        W86786  25.923  21.198   2.779
15171W        W86787  35.690  37.851  11.897
15172W        W86788  40.354  12.221  12.900
15173W        W86789  34.881  37.695   0.749
15174W        W86790  22.241   1.384   0.991
15175W        W86791   1.007  21.096   3.123
15176W        W86792  32.312  12.304  14.408
15177W        W86793  15.767  40.169  10.309
15178W        W86794  16.240  16.277   1.948
15179W        W86795  32.575   1.508  12.492
15180W        W86796   7.161  27.106  14.343
15181W        W86797  24.240  27.692  14.749
15182W        W86798  34.565  44.821   5.026
15183W        W86799  17.145  42.364  13.756
15184W        W86800  30.244  10.853   1.437
15185W        W86801  11.307  34.356  13.386
15186W        W86802  24.173  34.123  11.992
15187W        W86803  35.415  31.417  12.848
15188W        W86804  19.485  29.151   4.349
15189W        W86805  18.643  31.075  11.676
15190W        W86806  18.364  25.112   2.857
15191W        W86807  33.349  44.365   1.862
15192W        W86808  29.095  31.851   2.185
15193W        W86809  34.039  21.166  14.837
15194W        W86810   0.900   9.586  12.467
15195W        W86811  11.153   2.439   1.596
15196W        W86812  20.434  20.196   2.303
15197W        W86813   3.879  19.972  14.797
15198W        W86814  17.118   2.412  13.926
15199W        W86815  10.348  43.886   3.650
15200W        W86816  39.441   0.189  12.904
15201W        W86817  29.158   9.952  12.990
15202W        W86818   1.464   3.076   2.871
15203W        W86819  32.405   4.371  10.661
15204W        W86820  31.036  10.436  12.099
15205W        W86821  25.573  35.888  11.190
15206W        W86822  18.434  10.641  10.631
15207W        W86823   6.845  19.655   1.902
15208W        W86824  19.192  28.372   1.761
15209W        W86825  25.620   5.572   2.855
15210W        W86826  37.154  40.388  11.149
15211W        W86827  10.544  40.826   0.702
15212W        W86828  16.235  33.898  13.483
15213W        W86829  37.685  13.824   2.121
15214W        W86830  44.992  17.353  10.585
15215W        W86831  22.713  36.133  12.536
15216W        W86832  21.005  24.410   3.738
15217W        W86833   8.777  35.391   2.479
15218W        W86834  31.878  24.127   3.150
15219W        W86835  26.017  37.418  13.949
15220W        W86836  18.160  42.654  13.004
15221W        W86837   3.341  43.318   3.690
15222W        W86838  39.514   9.963   4.057
15223W        W86839   9.023   6.228   0.100
15224W        W86840   4.260  29.660   2.150
15225W        W86841  13.042  31.057  13.101
15226W        W86842   9.864   1.661  14.486
15227W        W86843  39.735   3.470   0.398
15228W        W86844  20.594  43.788  10.231
15229W        W86845  40.389  44.519   3.609
15230W        W86846   7.728  29.649   3.199
15231W        W86847  23.675  24.098  12.806
15232W        W86848   1.947  15.241   2.606
15233W        W86849  40.007   4.168  12.502
15234W        W86850   6.733  22.643   2.418
15235W        W86851  10.729   6.033  12.790
15236W        W86852  28.994  10.283   1.682
15237W        W86853  19.088  44.225  13.402
15238W        W86854  27.213  18.187  14.887
15239W        W86855  13.168  38.844   4.704
15240W        W86856  14.603  40.311  13.579
15241W        W86857  14.168  22.916  14.445
15242W        W86858  44.338   4.464  13.669
15243W        W86859  14.828   2.736   2.428
15244W        W86860  24.444   4.277  12.076
15245W        W86861  34.587  19.793   3.654
15246W        W86862  32.508  39.888  14.656
15247W        W86863  35.816  16.761   3.661
15248W        W86864  21.483  43.510  11.362
15249W        W86865  28.087  35.762  10.454
15250W        W86866  29.672   1.185  14.825
15251W        W86867  31.821  22.145   0.358
15252W        W86868  41.451  21.964   2.904
15253W        W86869  34.844  10.251  13.912
15254W        W86870   8.092  11.754   0.848
15255W        W86871   7.836  31.034  11.540
15256W        W86872  23.168   1.856  11.594
15257W        W86873  22.577  38.685   1.785
15258W        W86874  30.385  37.013   0.755
15259W        W86875  11.195  28.212  11.477
15260W        W86876  31.212  16.852  14.621
15261W        W86877  26.459  26.936   3.212
15262W        W86878  23.565  40.388   3.681
15263W        W86879  18.561   0.398  14.825
15264W        W86880  44.566  34.944   2.501
15265W        W86881  35.585  15.729   4.609
15266W        W86882  20.264   5.085   3.267
15267W        W86883  22.288  11.775   4.757
15268W        W86884  38.931  31.727   3.327
15269W        W86885  26.032  15.852   3.898
15270W        W86886   3.030   9.832   4.535
15271W        W86887  15.650  17.345   4.984
15272W        W86888  12.816  12.043   1.384
15273W        W86889   0.017  28.052  14.306
15274W        W86890   2.985  20.958  14.392
15275W        W86891  40.412  11.703  14.175
15276W        W86892  17.316  13.925   3.688
15277W        W86893  37.065   0.296  13.911
15278W        W86894  23.225  22.928  14.901
15279W        W86895  27.635   0.849   0.130
15280W        W86896  42.698   9.578  11.194
15281W        W86897  19.783  40.921   1.147
15282W        W86898  33.524   8.423  14.303
15283W        W86899  25.562  28.733   2.327
15284W        W86900  41.998  15.570   1.282
15285W        W86901   6.307   0.994  13.064
15286W        W86902  37.526  19.074   1.957
15287W        W86903  27.002   5.234   2.883
15288W        W86904  12.362  37.146  13.620
15289W        W86905  16.751  37.345  11.506
15290W        W86906   2.453  18.464   0.266
15291W        W86907  28.405  26.376   1.378
15292W        W86908  12.083  31.019   2.831
15293W        W86909  31.038  21.575   3.735
15294W        W86910  13.962  39.388  14.758
15295W        W86911  33.509   0.851  12.998
15296W        W86912  44.741  38.040   1.240
15297W        W86913  15.037  41.978  11.390
15298W        W86914  30.921  34.675  14.996
15299W        W86915  40.636  41.601   3.772
15300W        W86916  14.538  14.051  13.419
15301W        W86917   4.886  30.337   0.174
15302W        W86918   4.792  23.975  11.454
15303W        W86919  17.122  20.686  14.753
15304W        W86920  22.109  14.680  10.630
15305W        W86921  19.976  20.837   3.734
15306W        W86922   4.927  25.062  13.146
15307W        W86923  13.673  19.289   4.064
15308W        W86924  13.797  19.717  13.486
15309W        W86925   6.025  36.469   0.406
15310W        W86926   4.833  29.167   3.113
15311W        W86927  10.415   3.458  13.892
15312W        W86928  32.904  10.688   2.342
15313W        W86929  40.341  39.133   2.203
15314W        W86930  41.860   7.462   0.150
15315W        W86931   3.172  36.018   4.782
15316W        W86932  41.503  29.949  11.879
15317W        W86933  38.064  40.053   1.372
15318W        W86934  17.683  25.190   2.154
15319W        W86935  12.627  32.361  11.899
15320W        W86936  38.829  15.318   2.699
15321W        W86937  37.713   9.863   1.734
15322W        W86938  35.119  44.977   5.102
15323W        W86939  42.927  14.787  10.769
15324W        W86940  37.590  29.108   0.398
15325W        W86941   1.559   9.396  13.012
15326W        W86942  39.851   8.949   4.812
15327W        W86943  34.981  36.739  11.601
15328W        W86944  10.200   9.858  11.164
15329W        W86945  27.643   8.008   0.263
15330W        W86946  23.027  14.845   4.217
15331W        W86947  13.102  10.390   2.701
15332W        W86948  39.784  40.833   1.924
15333W        W86949  31.398  13.696  14.892
15334W        W86950  35.331  27.583  12.947
15335W        W86951  36.091  42.233  10.763
15336W        W86952  43.418  16.062  13.462
15337W        W86953  18.346   0.288  10.976
15338W        W86954   2.508  36.527  13.996
15339W        W86955  28.132  26.338  10.988
15340W        W86956  20.213  40.541  11.057
15341W        W86957  22.955   4.785   3.819
15342W        W86958  10.768  26.976   4.125
15343W        W86959  25.614   4.328   2.209
15344W        W86960  41.478  39.855  10.685
15345W        W86961   2.218  15.160  11.608
15346W        W86962  26.281  17.685   2.464
15347W        W86963  13.142  25.688   3.704
15348W        W86964   5.311  43.021  13.516
15349W        W86965  43.841  36.022  12.513
15350W        W86966   2.219  42.936  12.763
15351W        W86967  44.532  41.194   0.880
15352W        W86968   2.681   3.810   4.492
15353W        W86969  32.146  35.085  13.729
15354W        W86970   0.788   5.136  10.660
15355W        W86971  11.198  25.981   3.691
15356W        W86972  42.542  24.966  14.894
15357W        W86973  35.390  37.399   0.893
15358W        W86974  35.642  37.992   2.202
15359W        W86975   8.414   2.363   3.216
15360W        W86976  34.576  18.027  12.794
15361W        W86977  25.511  21.054  12.926
15362W        W86978  10.230  15.257   4.553
15363W        W86979  20.790  17.214  14.269
15364W        W86980  38.438   9.228   3.250
15365W        W86981  19.538   5.011  14.358
15366W        W86982   8.798  20.649   3.625
15367W        W86983  21.965  34.052  11.612
15368W        W86984  34.147  42.586  11.355
15369W        W86985  31.071   6.969  11.576
15370W        W86986  38.813  44.808  14.218
15371W        W86987  35.634  39.838  14.408
15372W        W86988  24.190   3.336  10.932
15373W        W86989  23.274  27.512  14.973
15374W        W86990  38.008  23.066  12.988
15375W        W86991  43.982   7.033  11.613
15376W        W86992  14.437  32.470   2.293
15377W        W86993  32.673  27.534  12.772
15378W        W86994  38.191  14.090   0.781
15379W        W86995  39.790  14.650  11.381
15380W        W86996  39.917  11.967   3.189
15381W        W86997  29.173  41.812   4.564
15382W        W86998  36.071   5.247  14.417
15383W        W86999  43.265   2.330   3.599
15384W        W87000  32.558   5.452  12.628
15385W        W87001  11.362  10.449  13.500
15386W        W87002  10.488  43.769  14.061
15387W        W87003  39.811  14.216   2.888
15388W        W87004  26.005   5.400   1.642
15389W        W87005  24.371  13.045   1.810
15390W        W87006  22.137  32.983   1.772
15391W        W87007  22.772  33.008   1.166
15392W        W87008  26.837  33.825  12.820
15393W        W87009  22.691  27.623   2.802
15394W        W87010  44.031  31.955   0.233
15395W        W87011  43.226  25.555  13.325
15396W        W87012  30.722  14.090  14.471
15397W        W87013  36.018  41.798  13.051
15398W        W87014  44.817  24.599   3.633
15399W        W87015  10.535  29.588   2.820
15400W        W87016  20.685   0.191   3.233
15401W        W87017  16.120   8.098  14.101
15402W        W87018  23.272  20.488   2.353
15403W        W87019  34.107  19.558   0.890
15404W        W87020  44.396  11.260   1.703
15405W        W87021  35.105  26.138   2.361
15406W        W87022  17.359  44.941  14.892
15407W        W87023  32.115  38.775  14.522
15408W        W87024  24.112  24.762   4.189
15409W        W87025   2.203  21.979   3.798
15410W        W87026  12.405   5.414  10.985
15411W        W87027  35.258  26.623   4.118
15412W        W87028   3.814  33.055  10.629
15413W        W87029  30.383  32.681  12.030
15414W        W87030  41.987  13.456   2.047
15415W        W87031  14.571  20.854   1.117
15416W        W87032   7.774  24.080  12.366
15417W        W87033  15.247  17.365   2.343
15418W        W87034  22.185  12.848  12.919
15419W        W87035  38.896  14.318  13.600
15420W        W87036   4.217  17.020   1.818
15421W        W87037  24.279   8.735   1.845
15422W        W87038  25.545  19.770   0.716
15423W        W87039  18.061  29.035  11.151
15424W        W87040  39.101  11.191   4.880
15425W        W87041  27.324  23.241  10.537
15426W        W87042  21.689  22.583  13.514
15427W        W87043  40.497  21.400   4.177
15428W        W87044  39.947   3.491  14.088
15429W        W87045   0.451   1.589   4.707
15430W        W87046  34.017  35.160   4.291
15431W        W87047  40.324  28.091  13.877
15432W        W87048  20.995  13.438  10.829
15433W        W87049  35.509  21.167   2.711
15434W        W87050  37.914  36.515   3.356
15435W        W87051  38.133  18.377   0.300
15436W        W87052  24.647  37.764   1.232
15437W        W87053   9.413  44.675   4.054
15438W        W87054  15.520   5.767  11.579
15439W        W87055  35.354  17.060   4.415
15440W        W87056  18.103   3.662  14.325
15441W        W87057  11.011  33.207  11.223
15442W        W87058   1.493   3.432  13.583
15443W        W87059  20.786  32.655   4.943
15444W        W87060  25.852  36.263  12.421
15445W        W87061  10.267  20.173  10.623
15446W        W87062  20.323  43.429  12.528
15447W        W87063  42.093  24.914   1.013
15448W        W87064  10.156  14.885  12.460
15449W        W87065   5.284  42.518  13.396
15450W        W87066   3.939  37.482  10.833
15451W        W87067  40.342  31.199  11.572
15452W        W87068   1.413  44.981   1.148
15453W        W87069  23.359   3.916   2.969
15454W        W87070   8.304  42.593   3.910
15455W        W87071  25.302   0.497  10.220
15456W        W87072  21.479  25.274  12.385
15457W        W87073   2.366  30.279  12.534
15458W        W87074  11.908   9.518   2.860
15459W        W87075  23.784  35.933   0.714
15460W        W87076   1.633  35.939   3.852
15461W        W87077  32.441  21.156   4.288
15462W        W87078  10.893  41.553   2.839
15463W        W87079  24.560  27.493  10.559
15464W        W87080  35.689  19.025   1.698
15465W        W87081   2.662  24.621  13.947
15466W        W87082  15.849   8.357   3.791
15467W        W87083  41.330  39.822   2.664
15468W        W87084  39.802  38.588   0.069
15469W        W87085  18.258  32.578  11.523
15470W        W87086   3.493   3.247  12.436
15471W        W87087  37.583  28.466  11.953
15472W        W87088  11.081  23.410   3.681
15473W        W87089   4.444  38.411   0.286
15474W        W87090  28.062  21.309   1.357
15475W        W87091  42.356  30.049   1.390
15476W        W87092  31.184  42.755   1.473
15477W        W87093  23.156  38.238   2.260
15478W        W87094  44.504  18.803   2.696
15479W        W87095  43.340  26.827  14.100
15480W        W87096  20.721  34.119  13.878
15481W        W87097   2.743  35.883  14.632
15482W        W87098  43.632  21.521  13.852
15483W        W87099  29.067  18.239  13.121
15484W        W87100   2.498  40.450  12.980
15485W        W87101   6.907  44.305   1.094
15486W        W87102  21.732  32.890  11.970
15487W        W87103   2.494  44.849  11.516
15488W        W87104  29.705  26.209   4.378
15489W        W87105  31.350   2.334  11.540
15490W        W87106  39.832  39.440  12.502
15491W        W87107   6.134   3.340  14.183
15492W        W87108  14.835  22.269   0.843
15493W        W87109  32.064  37.902  12.517
15494W        W87110   7.128   1.350  14.805
15495W        W87111  38.582  12.777   0.404
15496W        W87112  29.886  27.966   4.981
15497W        W87113  24.959  21.585   0.754
15498W        W87114   6.116  44.006   2.739
15499W        W87115  33.778  38.096   4.999
15500W        W87116  29.541  38.258  13.039
15501W        W87117  34.886  22.580   3.826
15502W        W87118   0.103  11.409   4.098
15503W        W87119  31.232  42.471   0.820
15504W        W87120   8.759  15.685   2.285
15505W        W87121  19.223  34.886   0.315
15506W        W87122   0.762   4.836   4.999
15507W        W87123  26.608  30.995   4.235
15508W        W87124  44.401  13.945  12.946
15509W        W87125  20.208   7.607   3.353
15510W        W87126  14.756  23.821   0.691
15511W        W87127   2.932  14.304  12.380
15512W        W87128  35.784  14.632   4.830
15513W        W87129  21.566  19.402  14.494
15514W        W87130  32.458  44.891   4.320
15515W        W87131  34.439   5.527   0.048
15516W        W87132  43.435  18.961   0.462
15517W        W87133  30.938  16.611   2.338
15518W        W87134   9.804   6.383   2.166
15519W        W87135   9.590  36.978   1.754
15520W        W87136  14.385  25.164   9.897
15521W        W87137   6.393   9.926   1.219
15522W        W87138  39.107  36.125   2.382
15523W        W87139  33.370  32.519  12.532
15524W        W87140   2.678  33.043   0.353
15525W        W87141  16.360  44.947  12.501
15526W        W87142  36.082  40.809   2.593
15527W        W87143  21.572  41.806   4.122
15528W        W87144  42.491  31.544  14.388
15529W        W87145  18.658  12.825  14.805
15530W        W87146  11.864  38.437   4.636
15531W        W87147   8.825  26.702   2.440
15532W        W87148  32.142   8.719  11.146
15533W        W87149  31.361  35.988   1.795
15534W        W87150  44.798   3.421  12.555
15535W        W87151  25.965  32.432   1.630
15536W        W87152  34.966   1.185   0.340
15537W        W87153  32.400  27.942  11.161
15538W        W87154  32.868  19.303   2.945
15539W        W87155  44.846  35.380   3.089
15540W        W87156  43.317  17.602   4.660
15541W        W87157  17.689  14.251   3.490
15542W        W87158  39.873  43.518  11.168
15543W        W87159  43.795  29.519  12.109
15544W        W87160  24.871  34.947   2.438
15545W        W87161  26.231  31.341   3.457
15546W        W87162   4.219  44.022  11.024
15547W        W87163  17.684  11.118   2.657
15548W        W87164  39.519  34.435  10.557
15549W        W87165  38.371  44.309   1.297
15550W        W87166  21.259  34.942   3.229
15551W        W87167  39.075  16.413   3.230
15552W        W87168  40.950  11.631  12.620
15553W        W87169  14.220   4.902   1.370
15554W        W87170   4.788  42.668   3.737
15555W        W87171  25.722  35.306   2.747
15556W        W87172  20.061   4.373  14.339
15557W        W87173  43.515   9.175   1.325
15558W        W87174  24.532  37.375  12.501
15559W        W87175  12.879  38.345   1.549
15560W        W87176  20.251  26.085   0.509
15561W        W87177  28.127  29.456  11.562
15562W        W87178  26.017  44.319  14.794
15563W        W87179  27.178   0.994  11.980
15564W        W87180  41.906  38.395   0.812
15565W        W87181  32.277   8.303   3.981
15566W        W87182  38.976  24.976   4.537
15567W        W87183  38.785  18.769   4.161
15568W        W87184  31.255  12.834  14.023
15569W        W87185  40.094  28.001  13.108
15570W        W87186  34.394  28.434   3.216
15571W        W87187   4.485  36.613  11.273
15572W        W87188  13.328  40.014   0.893
15573W        W87189  44.410  19.276  14.702
15574W        W87190  19.375  39.316   1.886
15575W        W87191  39.808  36.797   3.223
15576W        W87192   9.341  41.804   0.149
15577W        W87193  10.117   4.996  11.081
15578W        W87194  24.212  31.149   4.057
15579W        W87195  11.926  35.449   0.786
15580W        W87196   5.240   6.705   4.777
15581W        W87197  10.177  28.444  11.579
15582W        W87198   0.920  17.103   5.125
15583W        W87199  37.951  41.761   0.327
15584W        W87200  43.646  22.163   4.671
15585W        W87201  26.666  30.114  14.955
15586W        W87202  25.662  43.788  11.530
15587W        W87203   0.833   9.671  10.601
15588W        W87204   9.312  32.066   2.734
15589W        W87205   3.770  36.015  11.622
15590W        W87206  20.943   2.403  11.236
15591W        W87207  16.151  14.741   4.642
15592W        W87208   3.794  42.554   4.629
15593W        W87209   3.778  30.432  11.862
15594W        W87210   3.025  15.282   1.727
15595W        W87211  28.560  33.846   1.375
15596W        W87212   0.192   8.771   1.384
15597W        W87213  31.917  17.258  14.020
15598W        W87214   6.265  38.966   1.797
15599W        W87215  18.113  31.593  13.049
15600W        W87216  15.306  25.101  12.887
15601W        W87217   9.761  17.334  14.342
15602W        W87218  11.693   4.006   0.503
15603W        W87219  34.943   0.254   2.832
15604W        W87220  29.036   5.734  13.787
15605W        W87221  13.769   6.165   4.892
15606W        W87222  16.609  39.866  10.773
15607W        W87223  40.623  31.104   4.614
15608W        W87224  25.135   0.573  10.704
15609W        W87225  38.529  30.222   1.365
15610W        W87226  14.990  10.819   2.440
15611W        W87227   3.229  26.751  14.567
15612W        W87228   6.922  44.734  12.056
15613W        W87229  32.245  11.706  11.253
15614W        W87230  22.814   5.653   3.237
15615W        W87231  10.571  23.968  14.989
15616W        W87232  17.863   2.231  13.411
15617W        W87233  41.728  43.965  14.754
15618W        W87234  22.312  25.498  12.454
15619W        W87235  21.791  32.429  14.034
15620W        W87236  15.216  40.766  13.050
15621W        W87237   0.970  29.398  12.797
15622W        W87238  27.337   7.104  13.877
15623W        W87239  16.832   0.374  13.434
15624W        W87240  31.958   3.826   0.822
15625W        W87241  29.384   3.212  12.504
15626W        W87242  31.685   2.906  10.616
15627W        W87243  23.156  20.982  13.548
15628W        W87244  13.092  28.133  12.552
15629W        W87245   5.979  32.593  11.516
15630W        W87246   5.888  28.862   0.858
15631W        W87247  31.623  11.327   0.822
15632W        W87248  33.972  22.761   4.039
15633W        W87249   7.129  33.525  13.065
15634W        W87250  10.242  31.120   1.244
15635W        W87251  10.367  22.440  13.926
15636W        W87252  43.788  20.202   0.719
15637W        W87253  42.740   7.381  12.531
15638W        W87254  25.660   4.259  13.307
15639W        W87255  19.357   0.530  11.026
15640W        W87256  20.966  27.131   0.936
15641W        W87257   8.898   6.311   1.347
15642W        W87258   9.510  36.502   1.294
15643W        W87259   5.605  12.273   2.207
15644W        W87260  38.569  39.401   1.581
15645W        W87261  15.566   3.232  12.504
15646W        W87262  31.974  37.142  10.584
15647W        W87263  21.312  43.110   1.152
15648W        W87264  34.463  23.319   3.750
15649W        W87265  41.550   4.020  10.924
15650W        W87266   7.880  24.070  14.807
15651W        W87267  40.672   6.741   2.276
15652W        W87268  20.097   5.712  13.758
15653W        W87269  32.846   5.374   2.323
15654W        W87270  22.475  44.348   2.258
15655W        W87271  34.881  29.184   1.035
15656W        W87272   4.963  17.774   2.642
15657W        W87273  42.786  42.438  12.795
15658W        W87274  29.516  18.132   0.485
15659W        W87275  11.802   1.785   2.337
15660W        W87276  28.001   9.580   1.387
15661W        W87277   8.853  20.303  14.871
15662W        W87278  24.785   3.363  10.732
15663W        W87279   2.800  28.916   2.222
15664W        W87280  29.277   1.810  10.747
15665W        W87281  32.962  43.889   4.448
15666W        W87282  15.708  32.521   4.491
15667W        W87283  11.547  26.989  13.333
15668W        W87284  23.868  10.131  14.717
15669W        W87285  30.931   0.161  11.659
15670W        W87286  22.160  42.792   0.466
15671W        W87287  38.619  22.639  11.431
15672W        W87288   1.534  36.977   2.103
15673W        W87289  28.243   4.443   0.229
15674W        W87290  26.806  33.513  12.403
15675W        W87291  18.603  35.317   2.267
15676W        W87292   3.388  37.558   0.906
15677W        W87293  37.417   2.376  10.667
15678W        W87294  30.706  33.256  10.203
15679W        W87295  22.427  13.715   1.254
15680W        W87296  15.613   1.483  14.242
15681W        W87297  34.367  38.527  13.084
15682W        W87298   9.647  36.029   2.394
15683W        W87299   1.806  25.235  14.840
15684W        W87300   1.292  41.891   2.628
15685W        W87301  23.000   7.720   1.507
15686W        W87302  19.739  11.865  14.152
15687W        W87303  35.170  41.787   2.816
15688W        W87304  24.864  25.174   1.750
15689W        W87305  31.551  24.505   0.662
15690W        W87306   4.303  26.488   0.900
15691W        W87307  21.923  14.195   1.862
15692W        W87308  40.863  35.047  10.746
15693W        W87309  36.212  10.471   1.462
15694W        W87310  22.022  24.010  10.187
15695W        W87311  15.083  14.333   3.734
15696W        W87312  23.993   4.050  10.819
15697W        W87313  38.107  22.219   3.190
15698W        W87314   9.245  41.502   5.108
15699W        W87315   8.823  41.658   4.799
15700W        W87316  25.541  32.695   1.851
15701W        W87317  14.382  10.491   1.407
15702W        W87318  35.915  33.906   3.865
15703W        W87319  18.237  17.037   3.555
15704W        W87320  20.769  35.063   0.393
15705W        W87321  21.062   1.560   2.805
15706W        W87322  37.273  37.611  11.782
15707W        W87323  13.778  21.115  11.513
15708W        W87324   2.814  17.691   4.628
15709W        W87325  27.170  44.587  13.415
15710W        W87326  16.017  31.964  10.344
15711W        W87327   4.945  18.068  14.946
15712W        W87328  30.860  33.518   3.298
15713W        W87329  15.364  26.994  13.808
15714W        W87330   7.109  13.785   1.331
15715W        W87331  36.594  38.321   3.394
15716W        W87332   3.691  11.862   3.186
15717W        W87333  18.220  20.799   3.655
15718W        W87334  19.521  33.555   4.045
15719W        W87335   3.339  39.094   0.957
15720W        W87336  44.401  41.520  11.192
15721W        W87337   4.390  36.810   3.668
15722W        W87338   9.327  38.537   2.161
15723W        W87339  12.329  36.034   4.916
15724W        W87340   2.448  15.170  12.467
15725W        W87341  34.513  30.140   0.273
15726W        W87342   8.890  14.688   3.133
15727W        W87343   0.035  38.624  13.003
15728W        W87344  13.771  20.093   1.274
15729W        W87345  26.131  37.278  13.454
15730W        W87346  29.982  26.549  10.492
15731W        W87347  22.959  43.279  11.003
15732W        W87348  25.805  14.810   4.179
15733W        W87349  12.708   7.906   2.987
15734W        W87350  39.841  42.315  12.450
15735W        W87351   7.260  39.526   4.288
15736W        W87352   7.901  29.658   2.729
15737W        W87353  36.483   5.126  11.009
15738W        W87354  30.338  27.554   4.578
15739W        W87355  38.418  44.448  11.607
15740W        W87356   3.763  40.608  13.012
15741W        W87357  24.809  28.151  14.313
15742W        W87358   3.066  38.347   4.607
15743W        W87359  12.800  17.709  13.503
15744W        W87360   8.399  35.553  11.528
15745W        W87361  11.727  21.817  10.424
15746W        W87362  36.550  17.290  10.234
15747W        W87363  41.382  21.137   2.493
15748W        W87364  18.809  35.439  10.876
15749W        W87365  27.988  26.506  10.524
15750W        W87366  29.017  38.237   0.888
15751W        W87367  27.397  32.825  10.570
15752W        W87368   5.738  44.057  14.795
15753W        W87369   7.240  14.824  12.148
15754W        W87370  36.393  20.778   1.250
15755W        W87371  20.346  35.404  12.086
15756W        W87372  23.821  14.343  13.991
15757W        W87373  22.186  26.984  13.414
15758W        W87374  25.839  22.817   3.691
15759W        W87375   7.644  38.782   2.604
15760W        W87376  12.292  15.145   2.886
15761W        W87377   3.813  42.853   1.012
15762W        W87378  44.892  26.213   3.632
15763W        W87379   4.884  27.384  11.004
15764W        W87380   8.581   8.460   0.775
15765W        W87381  35.967  33.194  14.252
15766W        W87382  41.524  15.032   3.101
15767W        W87383  18.335  24.502  10.925
15768W        W87384  22.613  38.567   3.162
15769W        W87385  38.964  13.107   3.919
15770W        W87386  36.976  28.297  14.332
15771W        W87387  31.736  20.999   2.590
15772W        W87388  20.575   4.517   0.889
15773W        W87389  12.658  25.244  12.499
15774W        W87390  42.085  16.262   0.273
15775W        W87391  12.769  41.424   4.642
15776W        W87392  28.149  22.808  14.762
15777W        W87393  16.588   1.853   3.070
15778W        W87394  21.175  29.887  14.036
15779W        W87395   9.648  34.803   1.803
15780W        W87396   6.127  43.733   2.300
15781W        W87397  10.766  17.201  13.391
15782W        W87398  14.229   8.914   1.644
15783W        W87399  27.843   8.244   1.767
15784W        W87400  28.235  29.507  13.016
15785W        W87401  10.490   5.464  13.730
15786W        W87402  37.975   6.410  11.160
15787W        W87403  24.340   5.370  11.475
15788W        W87404  19.741  17.263  12.061
15789W        W87405  36.170  23.624   4.395
15790W        W87406  12.232  24.968  12.482
15791W        W87407   4.893  44.014   3.258
15792W        W87408  42.819  40.928  14.955
15793W        W87409  31.161  37.819  14.357
15794W        W87410  32.960  17.745  11.971
15795W        W87411  44.070   6.669   0.205
15796W        W87412   6.819   3.872   3.320
15797W        W87413  20.532   7.078   1.938
15798W        W87414  42.966   4.200   2.053
15799W        W87415  35.316  32.612   3.419
15800W        W87416   9.659  14.652   0.564
15801W        W87417   2.752  31.561  13.681
15802W        W87418   3.208  21.056   2.962
15803W        W87419  12.397  11.492  12.079
15804W        W87420   5.943  27.250  12.199
15805W        W87421  37.004  17.903   1.831
15806W        W87422  44.660  30.364  13.872
15807W        W87423   9.803  44.198  12.564
15808W        W87424   1.932  32.823  12.562
15809W        W87425   4.498  26.098   4.613
15810W        W87426  29.452  26.672  11.173
15811W        W87427  35.581  16.284  12.868
15812W        W87428  29.092  41.319   1.588
15813W        W87429   1.021   1.312  11.551
15814W        W87430  17.545   0.891   3.274
15815W        W87431   8.441  29.714   3.623
15816W        W87432  38.653  30.429  12.065
15817W        W87433  43.758  41.835   2.211
15818W        W87434  10.599  12.080  13.842
15819W        W87435  28.508  41.457  14.008
15820W        W87436  19.761  21.015  13.873
15821W        W87437  39.219  13.710   1.755
15822W        W87438  43.501  32.703  10.455
15823W        W87439   5.420  21.711   1.905
15824W        W87440  17.483   0.989   4.653
15825W        W87441   7.525  41.792  12.870
15826W        W87442  11.537  17.170   2.884
15827W        W87443  34.850  17.901   4.260
15828W        W87444  37.843  44.838  11.589
15829W        W87445  30.092  22.022   3.750
15830W        W87446  15.141  40.555   0.263
15831W        W87447  12.905  11.666  12.081
15832W        W87448  35.566  30.648  12.187
15833W        W87449  42.432  20.394  11.568
15834W        W87450   8.226  12.399  12.858
15835W        W87451  37.051  39.464  12.049
15836W        W87452  21.417   6.888  14.028
15837W        W87453  38.245  42.407   3.135
15838W        W87454  22.156   2.298  10.656
15839W        W87455  32.874   0.706   2.528
15840W        W87456  29.985  38.996  14.107
15841W        W87457  24.701   6.200  14.562
15842W        W87458   8.079  11.628  13.841
15843W        W87459  15.575  12.184   1.962
15844W        W87460  35.918  30.146   0.661
15845W        W87461  44.785  31.566  14.976
15846W        W87462  19.282  42.593  10.997
15847W        W87463  39.925  13.577   3.690
15848W        W87464  23.189  26.484   3.666
15849W        W87465  27.873  19.748  13.761
15850W        W87466  35.752   8.326  12.016
15851W        W87467  40.053  32.391  11.933
15852W        W87468  35.034  28.629  12.615
15853W        W87469  10.659  29.926  11.881
15854W        W87470  16.708   4.532   1.524
15855W        W87471  28.252  12.655   3.645
15856W        W87472   5.375  14.406   5.073
15857W        W87473  39.381  43.871   4.836
15858W        W87474   2.883  29.938  10.745
15859W        W87475  19.654  23.262  13.244
15860W        W87476   5.289  18.684  14.196
15861W        W87477  39.650  23.785  11.959
15862W        W87478  39.935  18.780   3.683
15863W        W87479  25.815   5.260  12.076
15864W        W87480   6.448   7.328   3.321
15865W        W87481   7.131  44.921   3.727
15866W        W87482   5.689  20.636   3.148
15867W        W87483  29.019  11.681  13.391
15868W        W87484  23.085  12.588   4.387
15869W        W87485   7.695   5.171  12.459
15870W        W87486  17.188  27.882  12.078
15871W        W87487  38.863  37.054  14.012
15872W        W87488  32.125  11.421   0.940
15873W        W87489  14.279  21.986  14.468
15874W        W87490  29.577  41.977   0.741
15875W        W87491  23.614  25.507   1.293
15876W        W87492  39.056  42.908  11.520
15877W        W87493  41.727   8.627   4.945
15878W        W87494  44.335  36.616   0.008
15879W        W87495   5.501  15.354   4.014
15880W        W87496  12.813  13.247   2.799
15881W        W87497   9.841  41.444  10.542
15882W        W87498  42.950   1.332   1.666
15883W        W87499  38.560  40.494   4.526
15884W        W87500   5.933  38.834   1.426
15885W        W87501  14.637   7.724   4.521
15886W        W87502  36.559  17.525   2.839
15887W        W87503   5.631  23.880   2.318
15888W        W87504   9.239  29.129   4.530
15889W        W87505  23.322  26.768  12.418
15890W        W87506  23.136  31.420  10.459
15891W        W87507   4.181  44.683   0.083
15892W        W87508  27.574  13.946  14.452
15893W        W87509  23.052  44.532   1.170
15894W        W87510   4.164  15.176  12.412
15895W        W87511  26.117   6.371  14.016
15896W        W87512  11.681  23.529  11.088
15897W        W87513  19.459  25.372  12.368
15898W        W87514   1.019  42.429   0.155
15899W        W87515  13.355  23.651   0.686
15900W        W87516  16.856  44.800  13.878
15901W        W87517  28.386  38.879  11.221
15902W        W87518  40.357  19.629   1.048
15903W        W87519   4.713  18.907  12.911
15904W        W87520   3.835  24.536   3.647
15905W        W87521  36.561  12.736  11.147
15906W        W87522  28.478  15.859  13.364
15907W        W87523  42.790  10.725  11.807
15908W        W87524  24.511  14.722  13.501
15909W        W87525  16.578  12.915   5.017
15910W        W87526  42.461   3.475   2.263
15911W        W87527  13.296  19.557   2.866
15912W        W87528   9.085   1.370   1.284
15913W        W87529  31.555  39.855  11.994
15914W        W87530  16.111  36.962  10.639
15915W        W87531  40.530   0.194   4.186
15916W        W87532  34.526   9.647  11.584
15917W        W87533  20.509  28.923  10.769
15918W        W87534  26.284  40.288  11.157
15919W        W87535   5.866  39.435   4.108
15920W        W87536   1.680  22.783   1.805
15921W        W87537  28.639  19.223   0.481
15922W        W87538  11.064  42.276  10.910
15923W        W87539  41.974  12.149   1.806
15924W        W87540  12.441  33.818  13.834
15925W        W87541  29.430  21.023   1.745
15926W        W87542  26.216  37.010  11.935
15927W        W87543   8.387  35.946   3.767
15928W        W87544  17.928  24.779  11.208
15929W        W87545  17.592  43.852   1.958
15930W        W87546  24.020  21.124  10.297
15931W        W87547  23.235  17.344   1.774
15932W        W87548  32.889  37.586  12.946
15933W        W87549   0.388  34.111   3.248
15934W        W87550  43.866  25.736  11.244
15935W        W87551  10.966  43.470  13.486
15936W        W87552  14.153  30.055  13.430
15937W        W87553  35.190  26.736  11.160
15938W        W87554  20.331  28.625   3.008
15939W        W87555  18.874  16.908  12.053
15940W        W87556  38.066  10.736   0.426
15941W        W87557   0.926  40.747  10.715
15942W        W87558  19.771  25.721  13.353
15943W        W87559  37.756  11.951   2.792
15944W        W87560  34.591   4.890  12.276
15945W        W87561  21.299  18.331  10.408
15946W        W87562  15.279  19.125  11.922
15947W        W87563  41.259  17.298   1.800
15948W        W87564  34.537   5.211   3.241
15949W        W87565  36.507   5.770   0.908
15950W        W87566  42.239  43.204  11.926
15951W        W87567  10.817  17.965   1.010
15952W        W87568  36.885  42.058  14.850
15953W        W87569   5.121  26.760   0.276
15954W        W87570   6.970  11.407  12.105
15955W        W87571  18.702   6.167   1.254
15956W        W87572  19.614  26.131   3.234
15957W        W87573  21.757  12.611  13.056
15958W        W87574   9.307  36.082   4.143
15959W        W87575  36.642  15.179   2.879
15960W        W87576   2.459  16.877  14.900
15961W        W87577  31.226   4.819   3.226
15962W        W87578  13.253  44.746  10.491
15963W        W87579  32.299  11.849   2.223
15964W        W87580  39.443  10.087  12.822
15965W        W87581   1.794  37.902  13.005
15966W        W87582   1.057   2.211  11.600
15967W        W87583  23.295  13.787   2.836
15968W        W87584  32.372   1.399  11.631
15969W        W87585   3.388  34.693  14.762
15970W        W87586   9.757   3.439  10.709
15971W        W87587  12.936  12.863   4.275
15972W        W87588  16.324  30.143   4.928
15973W        W87589  17.087  38.345   2.211
15974W        W87590   3.172  28.001  13.319
15975W        W87591  21.027  40.820   1.996
15976W        W87592   4.844  38.360  14.312
15977W        W87593   5.298  42.911  11.636
15978W        W87594  28.168  34.193  13.601
15979W        W87595  19.012  18.712  10.758
15980W        W87596  30.390  13.571   0.910
15981W        W87597  30.860  13.745   4.859
15982W        W87598  41.312   4.319  12.568
15983W        W87599  24.367   1.665   3.371
15984W        W87600  40.545  23.923   0.757
15985W        W87601  21.660   9.390   3.739
15986W        W87602  15.552  37.864   0.272
15987W        W87603  32.069  26.654   2.205
15988W        W87604  41.289  36.883   2.467
15989W        W87605   7.191  29.491  11.819
15990W        W87606  36.577   3.541  13.457
15991W        W87607  40.019  31.672   3.717
15992W        W87608   3.501  24.180   5.082
15993W        W87609  40.035  37.628   3.497
15994W        W87610  20.996  31.716   0.298
15995W        W87611  42.835  18.282  11.531
15996W        W87612  16.669   7.195  11.214
15997W        W87613  31.917  11.830  13.177
15998W        W87614  10.591  34.879  11.716
15999W        W87615   7.155  12.659   1.235
16000W        W87616  36.488  26.146  12.031
16001W        W87617   9.601  42.715  12.451
16002W        W87618  24.627   2.217   3.293
16003W        W87619  11.035  29.154  13.545
16004W        W87620  21.408  21.271  11.185
16005W        W87621  36.708   4.792   4.986
16006W        W87622  30.388  41.825  14.580
16007W        W87623  26.247  15.327   4.552
16008W        W87624   4.044  43.572  11.482
16009W        W87625  34.557  27.782   1.253
16010W        W87626  29.568  16.091  11.597
16011W        W87627  14.155   1.019  11.724
16012W        W87628  13.835  43.410  10.497
16013W        W87629   5.896  13.848   0.923
16014W        W87630  15.818  25.543   0.769
16015W        W87631   3.598  27.686   3.929
16016W        W87632   7.009  12.212  11.157
16017W        W87633  21.129   1.877  13.506
16018W        W87634  17.469  43.356  11.633
16019W        W87635  27.902  30.696  11.207
16020W        W87636   7.828  12.200   2.715
16021W        W87637  44.366  33.125   4.785
16022W        W87638  40.435  24.240   3.462
16023W        W87639  17.053   7.780   0.688
16024W        W87640  32.986  17.765  10.645
16025W        W87641   3.798  21.542  11.112
16026W        W87642   0.254  14.342  10.488
16027W        W87643   6.245  29.638  14.827
16028W        W87644   9.354  18.085  12.021
16029W        W87645  24.045   1.299   3.154
16030W        W87646  18.506  27.121   1.852
16031W        W87647  16.819   2.898  13.906
16032W        W87648  36.581   5.169   4.673
16033W        W87649   3.433  18.515  10.641
16034W        W87650  33.327   1.604   5.037
16035W        W87651  20.181   5.140  12.102
16036W        W87652  15.000  22.270  12.992
16037W        W87653   1.985  29.566   1.444
16038W        W87654  20.041  13.438  10.732
16039W        W87655  16.173  42.614  14.055
16040W        W87656  34.596   7.310   0.808
16041W        W87657  37.484  19.230   4.842
16042W        W87658  39.915  43.828  14.572
16043W        W87659   5.774  44.215   4.174
16044W        W87660  27.525  29.794  14.981
16045W        W87661  28.389  22.553  13.525
16046W        W87662  40.873  23.013  14.745
16047W        W87663  31.596  31.619  12.426
16048W        W87664   4.244  25.489  13.917
16049W        W87665  29.170  17.260  13.803
16050W        W87666   5.973   6.212   3.617
16051W        W87667  35.981  20.529   3.275
16052W        W87668  30.895  30.016   4.046
16053W        W87669  39.466  25.986   4.645
16054W        W87670  35.460  12.763   2.840
16055W        W87671  31.618  44.064  14.925
16056W        W87672  44.048  31.371  10.706
16057W        W87673  17.537   3.362  13.055
16058W        W87674  14.805  29.969   3.709
16059W        W87675   3.080  36.423  10.773
16060W        W87676   5.875   6.923   2.648
16061W        W87677  19.763  11.721  10.367
16062W        W87678  27.207   2.295   4.645
16063W        W87679  15.742   7.778   1.428
16064W        W87680  20.103   2.251   0.716
16065W        W87681   1.968  33.823   0.369
16066W        W87682  41.825  20.778  13.200
16067W        W87683  37.561  23.444   2.253
16068W        W87684   7.903  41.032  14.014
16069W        W87685  25.108  14.575  11.453
16070W        W87686  31.688  33.403  13.395
16071W        W87687  21.748  41.936  11.655
16072W        W87688   5.104  23.061   2.702
16073W        W87689  16.895  14.151   3.387
16074W        W87690  17.206  41.064  11.529
16075W        W87691  26.522  38.950   1.284
16076W        W87692  23.054  41.395   3.113
16077W        W87693  26.606  15.443   0.960
16078W        W87694  42.845  39.242   4.126
16079W        W87695   1.982  25.553   2.250
16080W        W87696  25.674  16.429  10.419
16081W        W87697  26.773  33.977  13.566
16082W        W87698  41.223   7.724  12.595
16083W        W87699  15.652  29.400  14.972
16084W        W87700  38.531  18.180  12.599
16085W        W87701   9.274  15.877  14.987
16086W        W87702  37.787  38.056  10.629
16087W        W87703  23.446  23.584   1.924
16088W        W87704  23.510  40.534  11.197
16089W        W87705   7.287  16.720   1.927
16090W        W87706  24.674   3.551   1.952
16091W        W87707  40.643   1.645   1.352
16092W        W87708  39.910   8.833  12.917
16093W        W87709  18.805  16.110  13.889
16094W        W87710   9.854  15.401   0.906
16095W        W87711   8.941  36.412  14.753
16096W        W87712  44.279  22.976   1.000
16097W        W87713  10.865  10.819  13.885
16098W        W87714  23.696  35.594   1.969
16099W        W87715  27.184   0.332   3.379
16100W        W87716  39.693  37.484   4.133
16101W        W87717   3.205  32.996   2.621
16102W        W87718   3.795  29.946   4.146
16103W        W87719  41.343   6.978   4.075
16104W        W87720  39.340  22.296   1.264
16105W        W87721  12.212  37.378   2.683
16106W        W87722  34.087  36.607  14.471
16107W        W87723  13.179   9.708  14.534
16108W        W87724   9.609  17.201  12.826
16109W        W87725  18.570  19.248  14.001
16110W        W87726   1.669   5.408  13.891
16111W        W87727  30.750  42.379  10.816
16112W        W87728  24.705  11.657  12.198
16113W        W87729   9.368   9.835   2.270
16114W        W87730  28.257  12.178  13.578
16115W        W87731  13.136  35.027  12.687
16116W        W87732  34.480  42.513   0.903
16117W        W87733   8.918   3.086   4.192
16118W        W87734   3.706  35.431  13.087
16119W        W87735  25.254  40.547   2.244
16120W        W87736  23.941   8.727   4.013
16121W        W87737  28.401   7.495   0.803
16122W        W87738  16.185  35.378   3.612
16123W        W87739  22.530  43.794   4.271
16124W        W87740  11.893  10.790   3.773
16125W        W87741  10.714  33.832  11.582
16126W        W87742  25.965  14.857   0.359
16127W        W87743  36.539  20.629  10.660
16128W        W87744  28.096  37.230   2.290
16129W        W87745   8.583  40.436   4.475
16130W        W87746  11.618  35.224   1.757
16131W        W87747   4.370  38.004   1.898
16132W        W87748  28.618   2.797   0.883
16133W        W87749   7.897  36.366   3.623
16134W        W87750  44.940  42.974  11.602
16135W        W87751  23.755   1.326   3.673
16136W        W87752  17.086  14.843  10.611
16137W        W87753   4.790   6.455   1.429
16138W        W87754   2.080  30.357  14.370
16139W        W87755   1.965  40.321  12.498
16140W        W87756   2.686   4.646   2.321
16141W        W87757  18.362  14.177   2.709
16142W        W87758  37.534  24.007  12.114
16143W        W87759   0.807  32.150   5.201
16144W        W87760  15.377   6.295  10.155
16145W        W87761  26.008  35.584  11.595
16146W        W87762   8.880   5.890  13.930
16147W        W87763  15.574   1.110   3.691
16148W        W87764  27.958  42.885   3.754
16149W        W87765   6.234  38.949   3.109
16150W        W87766  22.819  30.688  12.542
16151W        W87767  35.796  15.432  11.422
16152W        W87768   2.034  13.140   3.659
16153W        W87769  14.754  23.573   3.603
16154W        W87770   5.036  10.165   9.895
16155W        W87771  34.479   7.916  12.492
16156W        W87772  33.725  33.850  11.027
16157W        W87773   1.174  21.193  14.884
16158W        W87774   4.419  35.885  12.410
16159W        W87775   1.874  24.094   1.711
16160W        W87776  36.487   2.282   4.594
16161W        W87777  34.074  31.572   0.910
16162W        W87778  12.754  34.358  13.150
16163W        W87779   4.795  34.684  13.467
16164W        W87780  11.274  43.968   4.629
16165W        W87781  31.617  42.915  12.905
16166W        W87782  28.208   5.994   2.778
16167W        W87783  29.120  30.662  14.285
16168W        W87784  26.372  36.092   4.434
16169W        W87785  13.155  13.651  14.465
16170W        W87786  31.852   7.439  12.437
16171W        W87787  39.800  25.044  12.492
16172W        W87788  11.177   6.925  13.006
16173W        W87789  28.677  22.326   2.661
16174W        W87790  18.335   9.800   2.307
16175W        W87791  40.457  14.244   4.543
16176W        W87792   5.248  31.587  11.964
16177W        W87793  33.466  43.763  11.158
16178W        W87794  27.614   8.365   3.684
16179W        W87795  21.818  24.022   3.559
16180W        W87796  23.542   8.106  11.164
16181W        W87797   3.456  28.360   2.509
16182W        W87798   3.638  44.853  12.197
16183W        W87799   6.705  39.832  14.377
16184W        W87800  41.543  20.301   3.782
16185W        W87801  41.832  10.780   3.629
16186W        W87802   3.559  26.191   1.525
16187W        W87803  44.413  44.085   4.540
16188W        W87804   5.901  31.600  11.682
16189W        W87805   8.340  17.798   1.966
16190W        W87806   0.398  38.957  10.862
16191W        W87807  19.245   7.303  13.888
16192W        W87808  19.802  44.772  14.241
16193W        W87809  39.586   5.287  11.943
16194W        W87810  23.637  39.500  11.144
16195W        W87811  41.034  32.114   2.270
16196W        W87812   5.189  17.673  11.738
16197W        W87813  15.099  34.881  12.132
16198W        W87814  27.078  43.278   3.406
16199W        W87815  43.943  28.709  14.863
16200W        W87816  25.246  30.496   4.635
16201W        W87817  13.379  12.135   4.145
16202W        W87818  32.928   0.016   3.689
16203W        W87819  19.214   4.973   9.881
16204W        W87820   0.862  26.248  13.741
16205W        W87821  15.755  15.152  12.539
16206W        W87822   5.209  15.741  10.692
16207W        W87823  34.120   3.115  11.638
16208W        W87824  24.206  43.769  12.934
16209W        W87825  19.857  23.152  14.035
16210W        W87826  30.579  11.730  13.994
16211W        W87827   9.124   1.264  12.060
16212W        W87828   7.406  40.963  13.828
16213W        W87829  36.543  20.079  14.299
16214W        W87830  25.058  32.084   3.196
16215W        W87831   5.373  30.562   4.623
16216W        W87832  17.341   2.868  12.046
16217W        W87833  21.371   0.249  11.786
16218W        W87834  25.787  40.333  10.672
16219W        W87835  20.002  10.535   1.259
16220W        W87836  30.885  40.462   2.586
16221W        W87837  15.815  17.527  11.136
16222W        W87838  24.511  31.430   3.689
16223W        W87839   7.658  26.672   4.154
16224W        W87840  43.961   4.366   0.193
16225W        W87841  20.241  33.066   1.836
16226W        W87842   4.883  44.051  14.722
16227W        W87843  41.761  14.355  14.740
16228W        W87844  25.448  11.126   3.290
16229W        W87845  17.272  36.298  13.768
16230W        W87846  21.617  11.158  14.267
16231W        W87847  20.987  34.923   3.666
16232W        W87848  38.521  25.203   4.626
16233W        W87849  41.761  28.275   3.550
16234W        W87850  39.823  11.166   5.389
16235W        W87851  21.605   1.211   1.027
16236W        W87852  23.037   1.544   0.273
16237W        W87853  38.246  40.088  13.835
16238W        W87854  27.624  42.473   4.464
16239W        W87855  30.891  43.490   3.664
16240W        W87856  39.498  40.878  12.482
16241W        W87857   7.150   2.437   0.267
16242W        W87858   7.296  13.230  14.969
16243W        W87859   2.549  43.880   3.393
16244W        W87860  19.137  44.965  12.455
16245W        W87861  15.646  20.724  13.101
16246W        W87862  26.742  34.814   2.788
16247W        W87863  39.095  24.550   2.287
16248W        W87864  33.345  22.023  14.336
16249W        W87865  43.531  19.601   0.631
16250W        W87866  42.944   3.001   3.278
16251W        W87867   2.212   8.734   3.771
16252W        W87868  26.026  30.163  11.645
16253W        W87869  15.820  38.036  14.331
16254W        W87870  34.989   2.303  13.987
16255W        W87871  18.727   9.282   4.797
16256W        W87872  11.870   4.312   4.049
16257W        W87873   0.896   5.848   4.537
16258W        W87874  12.924   8.173   1.412
16259W        W87875  36.881   7.540  14.673
16260W        W87876  12.119  20.882  13.432
16261W        W87877   5.893  17.579  13.786
16262W        W87878  11.181  37.588  13.891
16263W        W87879  32.257  28.216   3.703
16264W        W87880  26.207  21.044   4.284
16265W        W87881   3.020  20.639  11.451
16266W        W87882  29.113  37.553  11.597
16267W        W87883  44.729   5.281   4.155
16268W        W87884  33.911  30.612  10.618
16269W        W87885  33.212  29.426   4.131
16270W        W87886  42.715   8.571   3.132
16271W        W87887  36.058  11.556  12.008
16272W        W87888  40.939  22.750  12.374
16273W        W87889  42.540  29.423   3.216
16274W        W87890  22.425  22.310  14.395
16275W        W87891  15.396  22.993   2.897
16276W        W87892  34.101  22.516   3.595
16277W        W87893  25.165   0.380   2.893
16278W        W87894  19.734  35.921   1.303
16279W        W87895   5.817   9.157  14.648
16280W        W87896  27.010  10.627  13.503
16281W        W87897  36.627   0.006  12.807
16282W        W87898  12.845  37.922  14.427
16283W        W87899  44.412  40.003   0.828
16284W        W87900  16.347   3.964   2.342
16285W        W87901   6.830  37.144   4.602
16286W        W87902   6.215  15.755   1.961
16287W        W87903  32.431  41.105  12.462
16288W        W87904  27.411  13.351  12.901
16289W        W87905   1.259  32.182  12.960
16290W        W87906  30.432   0.413   2.768
16291W        W87907  31.559  33.601  12.510
16292W        W87908  21.437  39.784   3.330
16293W        W87909  39.126  41.057  13.593
16294W        W87910   8.342  13.152   3.703
16295W        W87911  33.249  38.415   3.676
16296W        W87912  15.180   5.427   2.702
16297W        W87913   6.514  11.648  10.210
16298W        W87914   9.265  14.794  11.976
16299W        W87915   1.393  42.358   3.697
16300W        W87916  26.656  42.533  11.574
16301W        W87917   5.743  20.524  12.526
16302W        W87918   6.898  28.524   3.725
16303W        W87919  11.642  33.912  11.552
16304W        W87920  33.130  38.839  13.574
16305W        W87921  16.779  36.027  11.946
16306W        W87922   8.895  15.352  14.522
16307W        W87923  34.204   6.404   2.345
16308W        W87924   3.437   5.409  14.281
16309W        W87925   5.816  29.325  13.966
16310W        W87926   8.818  42.635   0.828
16311W        W87927  15.070  29.227  13.006
16312W        W87928  17.733  40.046   0.719
16313W        W87929  10.956  25.147  11.661
16314W        W87930  17.723  22.091   1.456
16315W        W87931   1.423  20.146   4.129
16316W        W87932  42.406  28.601   2.820
16317W        W87933  14.531  24.728  14.038
16318W        W87934   5.824  41.920  11.388
16319W        W87935   4.243  22.748  13.381
16320W        W87936   1.430  28.460   3.359
16321W        W87937  40.446   3.096   4.534
16322W        W87938   0.852  11.378   1.883
16323W        W87939  40.340  20.428  13.480
16324W        W87940   1.654   7.733  13.414
16325W        W87941  38.143  44.751   1.426
16326W        W87942  32.074  15.572   1.011
16327W        W87943  35.868  25.963   0.001
16328W        W87944   1.935   6.372   0.979
16329W        W87945  12.512  30.130  13.467
16330W        W87946  14.918   8.448  13.395
16331W        W87947  30.604  37.576  13.442
16332W        W87948  17.760   5.997  14.766
16333W        W87949  17.361   2.854  12.970
16334W        W87950  19.040  44.009  10.215
16335W        W87951   5.863  18.103   4.557
16336W        W87952  35.905  30.353  14.306
16337W        W87953  39.201  12.289  11.729
16338W        W87954  35.896  28.596   1.387
16339W        W87955  35.320  14.792   2.479
16340W        W87956  39.609   8.143  11.601
16341W        W87957  23.007  29.558  14.852
16342W        W87958   8.701  28.856  14.276
16343W        W87959  21.137   7.507  14.920
16344W        W87960  34.554  14.796  11.181
16345W        W87961  42.741  31.279  12.620
16346W        W87962   5.568   5.181  10.772
16347W        W87963   0.959  22.207  14.416
16348W        W87964   3.238  28.924  13.720
16349W        W87965  18.311  37.040  14.522
16350W        W87966  31.981  26.478   3.263
16351W        W87967  28.409  14.313  11.071
16352W        W87968  14.604   0.441   4.199
16353W        W87969  23.279   5.555  14.328
16354W        W87970  31.861  22.696   0.807
16355W        W87971  16.951  44.510   1.805
16356W        W87972   9.633  42.809  14.441
16357W        W87973  35.377   0.372  13.301
16358W        W87974  37.588  29.764  12.525
16359W        W87975   9.624   2.348  11.814
16360W        W87976  31.893  39.559  14.951
16361W        W87977  14.534  31.644  13.023
16362W        W87978  31.994  26.113   2.270
16363W        W87979  35.605   6.411   1.226
16364W        W87980  10.604  32.874   4.480
16365W        W87981  39.480  41.509  13.148
16366W        W87982  14.606  26.166  11.549
16367W        W87983  38.822  29.380  12.214
16368W        W87984  30.959  41.863  13.334
16369W        W87985  17.143   6.215   1.910
16370W        W87986  27.913  32.400   2.410
16371W        W87987  37.472  13.054  13.441
16372W        W87988  23.137   8.622   3.711
16373W        W87989  10.270  41.518  12.831
16374W        W87990  18.356  30.990  11.222
16375W        W87991  26.440  36.305  11.714
16376W        W87992  24.027  31.123  12.578
16377W        W87993  26.567  20.203   0.275
16378W        W87994  44.505  29.593   1.883
16379W        W87995  35.677  29.454   3.720
16380W        W87996  28.316   0.012   1.633
16381W        W87997  16.833  25.669   2.217
16382W        W87998  13.802  35.420   4.410
16383W        W87999  41.197   4.726  10.355
16384W        W88000  44.013  25.950   2.633
16385W        W88001  27.214  15.105  10.258
16386W        W88002  39.296  15.587   4.658
16387W        W88003  11.300  10.332  14.972
16388W        W88004  15.017  16.736  10.607
16389W        W88005   1.535  23.035   5.197
16390W        W88006   0.341   2.699   3.901
16391W        W88007  36.256  19.066   4.846
16392W        W88008   9.398  20.833   4.230
16393W        W88009  26.213   6.383  12.391
16394W        W88010  21.707  11.238   1.432
16395W        W88011  23.708  41.859   4.153
16396W        W88012  41.903   2.198  12.539
16397W        W88013  42.467  12.088   2.259
16398W        W88014  26.636  16.214   2.377
16399W        W88015  27.944  10.632   4.409
16400W        W88016   4.469  44.702   2.358
16401W        W88017   0.495  28.988  12.597
16402W        W88018  31.478   0.012  10.938
16403W        W88019  13.290  36.344  11.579
16404W        W88020  20.701   3.456   4.348
16405W        W88021  42.370  29.535  13.176
16406W        W88022  33.658   6.093   1.270
16407W        W88023  30.821  36.551   4.040
16408W        W88024   5.613  30.550   2.255
16409W        W88025  33.641  34.886   4.531
16410W        W88026  25.909  34.615   1.282
16411W        W88027  36.179   0.971  12.439
16412W        W88028  10.930  18.620  11.989
16413W        W88029  41.392  44.964  13.489
16414W        W88030  11.358   7.996   1.299
16415W        W88031  39.416  22.240   0.746
16416W        W88032   9.311  12.366   3.624
16417W        W88033   1.483  35.673  14.331
16418W        W88034   2.187  40.454  12.027
16419W        W88035  44.434   0.287   1.463
16420W        W88036  33.647  33.376  12.991
16421W        W88037  12.350   7.142  13.405
16422W        W88038  43.571   4.662  11.649
16423W        W88039  14.668   4.706  11.613
16424W        W88040  28.745   3.415  11.374
16425W        W88041  37.934  35.541   1.297
16426W        W88042  43.069  36.267  10.213
16427W        W88043  28.508  34.398  11.408
16428W        W88044  21.205   5.344  12.743
16429W        W88045  29.987  16.544  13.121
16430W        W88046  21.019  18.920  13.108
16431W        W88047   9.341  31.473   1.434
16432W        W88048  20.512  23.667  13.292
16433W        W88049  18.243  32.381  12.408
16434W        W88050  15.082  43.263   1.517
16435W        W88051  38.144  21.812  11.203
16436W        W88052  27.041   8.535  14.521
16437W        W88053   6.145  11.833   4.476
16438W        W88054  30.755  21.088   9.909
16439W        W88055  23.686  25.552  13.821
16440W        W88056  17.284   5.475   1.183
16441W        W88057  22.270  23.210   3.248
16442W        W88058  43.905  22.110  13.536
16443W        W88059  31.280  27.391  10.221
16444W        W88060  25.553   7.424  11.428
16445W        W88061  23.763  15.283   1.936
16446W        W88062   2.478  23.087  13.174
16447W        W88063  19.355  25.056   3.702
16448W        W88064  36.115  41.430   1.110
16449W        W88065  28.612  42.771  11.085
16450W        W88066  11.261   6.196  12.574
16451W        W88067  19.803  42.420   3.273
16452W        W88068  24.951  13.138  14.681
16453W        W88069  31.709  16.134  11.709
16454W        W88070   2.292  13.626   4.160
16455W        W88071  11.391  25.206   3.641
16456W        W88072  31.938  19.920  10.711
16457W        W88073   3.354  17.352   3.640
16458W        W88074   4.327  31.076   2.199
16459W        W88075  24.525  40.818   1.532
16460W        W88076  41.062  28.224  14.421
16461W        W88077  22.005  18.048  12.150
16462W        W88078  13.996  15.400   4.762
16463W        W88079  37.860  27.631  10.960
16464W        W88080   4.477  23.570   1.457
16465W        W88081  20.759  37.955   1.843
16466W        W88082  36.215  40.036   1.147
16467W        W88083  24.135  14.891  11.977
16468W        W88084  35.120  22.561   3.369
16469W        W88085  32.613  22.279  14.750
16470W        W88086  26.352  29.919   1.363
16471W        W88087  18.086  43.005   4.157
16472W        W88088   1.151  30.666  14.477
16473W        W88089  14.663  29.775  13.855
16474W        W88090   8.814  15.231   0.895
16475W        W88091   1.675   6.781   3.587
16476W        W88092  20.079  41.610  11.435
16477W        W88093  12.248  15.627   3.081
16478W        W88094   0.544  30.670   0.816
16479W        W88095  16.118  13.342  14.002
16480W        W88096   4.752  40.755  14.461
16481W        W88097  12.706  22.208   0.225
16482W        W88098  22.578  19.566   2.363
16483W        W88099  30.868  34.870  14.493
16484W        W88100  21.691  28.649   2.838
16485W        W88101  11.797  15.790   2.238
16486W        W88102  10.873  40.528   3.527
16487W        W88103  24.037  27.622   2.355
16488W        W88104  14.818   1.821  15.000
16489W        W88105  18.348   3.773  14.770
16490W        W88106  20.765  12.580  13.321
16491W        W88107  15.725  27.512  10.136
16492W        W88108  22.631  13.408   0.895
16493W        W88109  25.061   2.976  14.028
16494W        W88110   3.437  38.762  11.034
16495W        W88111  36.530  11.328  11.105
16496W        W88112   6.572  31.448  12.489
16497W        W88113  27.524  15.372   3.246
16498W        W88114  14.548  35.344  13.885
16499W        W88115  21.271  44.515   1.582
16500W        W88116  26.705  17.610   2.163
16501W        W88117  36.997  44.396   1.778
16502W        W88118  31.943  39.331  10.424
16503W        W88119  44.999  13.604   1.520
16504W        W88120  43.982  18.076  14.857
16505W        W88121  30.074  14.401  13.935
16506W        W88122  31.362  16.718  11.966
16507W        W88123   3.359  30.243  13.567
16508W        W88124  16.641   0.753  14.760
16509W        W88125  15.979  41.268   4.021
16510W        W88126  42.080  11.195   1.393
16511W        W88127  16.633  38.460   3.553
16512W        W88128  31.501  23.749  10.617
16513W        W88129  42.791  22.232   0.383
16514W        W88130  26.633  37.097  13.379
16515W        W88131  10.099  21.960  13.448
16516W        W88132  44.794  40.262  14.342
16517W        W88133  10.683  16.034  12.848
16518W        W88134   3.342   4.991   4.568
16519W        W88135  24.487  44.514   1.839
16520W        W88136  11.824   4.856  14.235
16521W        W88137  43.413  15.199  10.805
16522W        W88138   4.195  20.068  13.321
16523W        W88139   9.460  42.073  12.484
16524W        W88140  24.526   4.850   1.170
16525W        W88141  31.665  34.081   3.294
16526W        W88142  20.260  42.015   4.406
16527W        W88143  19.568  16.181   2.855
16528W        W88144   0.169  28.126  11.768
16529W        W88145  43.278   3.529  13.422
16530W        W88146  30.814  30.345  13.511
16531W        W88147  32.393  18.714  13.191
16532W        W88148   2.667  44.768   0.247
16533W        W88149  27.863  36.574   4.653
16534W        W88150  26.434  24.692   0.925
16535W        W88151   7.852   8.801  11.574
16536W        W88152  12.191  18.445   0.413
16537W        W88153  34.663  18.515  10.598
16538W        W88154  25.131   3.293   2.702
16539W        W88155  25.742   5.061   2.873
16540W        W88156  16.652   7.673  10.938
16541W        W88157  30.173  44.981   2.251
16542W        W88158  10.434  18.637  10.643
16543W        W88159  12.860  14.055  12.516
16544W        W88160  15.787   1.805   4.205
16545W        W88161   0.385  42.710  12.003
16546W        W88162  15.130   3.825  12.593
16547W        W88163  41.720  22.023   2.100
16548W        W88164  33.193  27.667   3.803
16549W        W88165  10.171  35.186  12.566
16550W        W88166  19.171  28.764  10.612
16551W        W88167  26.607  28.715  14.354
16552W        W88168  11.820   3.282   4.966
16553W        W88169  34.818   0.635   4.038
16554W        W88170  17.777   6.354  13.681
16555W        W88171  12.124  20.337  14.458
16556W        W88172  18.556  39.539   4.428
16557W        W88173  12.757   2.782   4.032
16558W        W88174  36.263  27.441   0.965
16559W        W88175   8.414  41.560   3.973
16560W        W88176  10.618  36.513  12.158
16561W        W88177  22.575   9.551  13.469
16562W        W88178  21.790  31.033   4.128
16563W        W88179  44.934  18.251   4.673
16564W        W88180  36.353  30.752   3.615
16565W        W88181  44.933  42.961  12.155
16566W        W88182  26.401  13.179   3.068
16567W        W88183  32.938   9.085  10.708
16568W        W88184  33.483  24.744  12.550
16569W        W88185  19.513  31.121   0.833
16570W        W88186  42.898   7.311   3.634
16571W        W88187  18.256   2.227   3.259
16572W        W88188   1.318  10.955  10.701
16573W        W88189  16.667  38.593  12.931
16574W        W88190  19.081   1.830  11.156
16575W        W88191  38.179  10.833  13.089
16576W        W88192  22.364  42.243   4.183
16577W        W88193   7.268  41.010  10.659
16578W        W88194  19.978  43.913   1.265
16579W        W88195  32.739  26.147   2.698
16580W        W88196   6.191  12.413  10.709
16581W        W88197   9.393  32.685   0.042
16582W        W88198  27.624  40.440  10.377
16583W        W88199  17.225  37.171   3.061
16584W        W88200   4.821  21.076   4.334
16585W        W88201  22.762  43.582  12.382
16586W        W88202   9.938   7.719  10.769
16587W        W88203  27.764  29.390  13.765
16588W        W88204  35.392  26.085  12.356
16589W        W88205  32.070  23.472   4.884
16590W        W88206  24.667  21.283   2.926
16591W        W88207  22.236   3.940  12.967
16592W        W88208  17.237  43.508  14.964
16593W        W88209   4.775  28.997   4.538
16594W        W88210  27.979  41.250   0.895
16595W        W88211   5.217  11.504   2.361
16596W        W88212  25.680  18.226   0.679
16597W        W88213   3.277   0.909  11.121
16598W        W88214  22.712  27.871   4.468
16599W        W88215  40.825   6.806  14.495
16600W        W88216  22.668  19.114   0.963
16601W        W88217  19.773   8.660  10.947
16602W        W88218  21.272  26.935  14.490
16603W        W88219  19.185  25.543   2.158
16604W        W88220  16.055  37.405  13.500
16605W        W88221  44.772  16.223  13.784
16606W        W88222  16.208  23.920   2.602
16607W        W88223  21.467   9.640  10.452
16608W        W88224   5.874  12.087  14.052
16609W        W88225  25.474  32.800   0.908
16610W        W88226  31.718  44.841  12.582
16611W        W88227   5.718  27.077  13.820
16612W        W88228   7.258  37.262   1.805
16613W        W88229  31.080  19.402   3.501
16614W        W88230  20.112  38.372  13.796
16615W        W88231   8.380  12.803  12.011
16616W        W88232  42.538  17.154   3.640
16617W        W88233  36.364  34.037  13.006
16618W        W88234  25.679  21.683  14.483
16619W        W88235  23.662  17.673  11.025
16620W        W88236   5.323  38.928  12.414
16621W        W88237  14.411  19.022  10.508
16622W        W88238  17.465   2.198   1.369
16623W        W88239  13.766  44.831  14.703
16624W        W88240   7.793  37.494   0.242
16625W        W88241  24.942  23.247   3.633
16626W        W88242  42.646  31.463  11.759
16627W        W88243  21.095  43.926  11.046
16628W        W88244  10.826  12.633  12.126
16629W        W88245  38.477   2.358   3.203
16630W        W88246  32.971  18.260  11.843
16631W        W88247   3.834  33.465  13.490
16632W        W88248  41.748  18.591   1.545
16633W        W88249   1.857  36.021   2.389
16634W        W88250  32.563  20.211  12.378
16635W        W88251  42.721   2.521  12.137
16636W        W88252  35.172   8.852   1.888
16637W        W88253  27.946  34.028  14.461
16638W        W88254  24.621  30.505  10.899
16639W        W88255  23.798  23.257  12.358
16640W        W88256  44.412  19.565   1.648
16641W        W88257  25.177  30.096   2.325
16642W        W88258  21.060   2.043  14.237
16643W        W88259  36.475   9.692  12.622
16644W        W88260   2.892  36.198   3.830
16645W        W88261  34.021  14.064   3.296
16646W        W88262   2.296   1.470   0.245
16647W        W88263  29.782  18.666   3.231
16648W        W88264  36.802  27.634   2.186
16649W        W88265  21.057  25.878  11.687
16650W        W88266  30.679  32.587  10.655
16651W        W88267  22.623  42.064   3.340
16652W        W88268  39.799   6.648   4.879
16653W        W88269  38.182  20.504   4.472
16654W        W88270  34.963  27.906   3.629
16655W        W88271  18.259  27.619   2.822
16656W        W88272  33.449  25.902  13.617
16657W        W88273  37.664  22.804   1.034
16658W        W88274  11.806  20.967  14.776
16659W        W88275  20.547  36.117  10.692
16660W        W88276  14.197  24.612   2.808
16661W        W88277  27.955  13.464   1.247
16662W        W88278   7.933   0.279  11.537
16663W        W88279  28.353  32.735  13.879
16664W        W88280  26.130  14.338  13.995
16665W        W88281  10.274  16.697   1.164
16666W        W88282  27.125  41.363   0.275
16667W        W88283  29.018  31.369   2.375
16668W        W88284  28.018  25.035  11.541
16669W        W88285  25.976  31.057  13.297
16670W        W88286   1.888  11.760   1.874
16671W        W88287  25.951  15.753   1.931
16672W        W88288  25.635  27.486  12.204
16673W        W88289  42.029  21.056  14.251
16674W        W88290  20.209  19.262  10.724
16675W        W88291  20.157   4.502   4.085
16676W        W88292  43.306  38.037   0.974
16677W        W88293  21.876   4.215  11.224
16678W        W88294   1.874  15.751  12.094
16679W        W88295   1.243   5.900  13.248
16680W        W88296   6.310  16.963   5.029
16681W        W88297   1.733   0.031  11.029
16682W        W88298   7.940  29.141   0.291
16683W        W88299  12.282  44.360  10.536
16684W        W88300  24.471  36.827   1.726
16685W        W88301   3.217  38.353   3.765
16686W        W88302  21.753   0.372  11.468
16687W        W88303   4.663  29.932  11.035
16688W        W88304  30.527  11.195  12.267
16689W        W88305   9.643   6.859  14.301
16690W        W88306  27.529   8.300  14.408
16691W        W88307   1.432  24.053  14.849
16692W        W88308   2.236  20.324   4.222
16693W        W88309   4.770  40.076   0.052
16694W        W88310  44.798   9.493  12.450
16695W        W88311  34.180  14.588  11.459
16696W        W88312  17.707  16.066   2.791
16697W        W88313  27.444  25.900   2.110
16698W        W88314  44.364   9.225  12.607
16699W        W88315  10.854  28.420  13.936
16700W        W88316  43.809  43.293  14.934
16701W        W88317  16.376   4.154  14.258
16702W        W88318  17.751  41.902  13.206
16703W        W88319   5.726  11.862  12.715
16704W        W88320  18.992  19.500   1.184
16705W        W88321  34.425   9.557   4.552
16706W        W88322  30.057  27.113   2.727
16707W        W88323  24.712  36.986   5.085
16708W        W88324  10.929  34.567  14.806
16709W        W88325  11.391   3.870  13.013
16710W        W88326  32.500  14.868   0.338
16711W        W88327  35.012  39.410   4.408
16712W        W88328  33.859  39.923   0.225
16713W        W88329  14.089   9.207  11.669
16714W        W88330   2.778  39.025   0.044
16715W        W88331  10.698  24.043   4.700
16716W        W88332  19.216  43.374   2.063
16717W        W88333  18.132   3.891  12.555
16718W        W88334  32.178  22.123  11.496
16719W        W88335   8.319  22.304  12.922
16720W        W88336  30.268   2.303   4.118
16721W        W88337  17.151  15.785  12.452
16722W        W88338  36.388  44.920   3.645
16723W        W88339  31.563  44.223  10.050
16724W        W88340  23.089  35.696  14.758
16725W        W88341   2.639  23.544  13.310
16726W        W88342  39.402  25.640   2.294
16727W        W88343   9.159  14.210   3.179
16728W        W88344  13.050   7.128   5.610
16729W        W88345  19.074  11.466  13.110
16730W        W88346   8.262  27.010   1.126
16731W        W88347  14.464   0.028  12.852
16732W        W88348   2.068  22.205   4.822
16733W        W88349  34.760  31.523  11.993
16734W        W88350  39.534   2.460  12.093
16735W        W88351  39.862  21.914   2.184
16736W        W88352  18.088  39.941   1.674
16737W        W88353  22.072  19.702  13.845
16738W        W88354  33.133  13.645  12.510
16739W        W88355  42.540   1.824  11.958
16740W        W88356  37.033  12.791  13.446
16741W        W88357  30.854  10.739   2.156
16742W        W88358  19.488   7.091   2.795
16743W        W88359  29.534   1.683   3.768
16744W        W88360   3.947  44.867   4.132
16745W        W88361  33.895  11.126   3.626
16746W        W88362  12.445  43.311  14.977
16747W        W88363   7.620  23.180  11.988
16748W        W88364  40.553   3.464  12.421
16749W        W88365   6.186   1.654   2.237
16750W        W88366  33.503  17.670  10.592
16751W        W88367  19.535  29.023   2.925
16752W        W88368  12.694   3.926   2.311
16753W        W88369  39.494  15.044  13.368
16754W        W88370   2.880  35.214  13.297
16755W        W88371  11.443  44.049   1.336
16756W        W88372  11.425  27.585   0.417
16757W        W88373  32.615  28.821   1.257
16758W        W88374  39.857   7.758   3.840
16759W        W88375  20.004   8.871  11.515
16760W        W88376  18.246   0.987  12.505
16761W        W88377   7.803  35.089   4.717
16762W        W88378  28.474  29.485  11.079
16763W        W88379  41.443  13.135  12.552
16764W        W88380   3.822  39.307   0.897
16765W        W88381  21.822   0.871  12.941
16766W        W88382   8.807  17.691   2.248
16767W        W88383  21.406  29.051  13.714
16768W        W88384  30.435  13.056   0.859
16769W        W88385  23.915  14.820   3.237
16770W        W88386  44.207   1.940  12.985
16771W        W88387  19.193  33.138  14.323
16772W        W88388  38.905  37.537   1.447
16773W        W88389  41.301  41.990   3.188
16774W        W88390  38.810  36.540   2.298
16775W        W88391  28.800  14.315   5.396
16776W        W88392  34.084  44.013  11.514
16777W        W88393  38.921  34.023   3.542
16778W        W88394   4.747   9.067  13.110
16779W        W88395   4.874   1.540  14.719
16780W        W88396  32.308  37.635  14.892
16781W        W88397  32.923  44.120   9.581
16782W        W88398  27.445   0.763   1.177
16783W        W88399  40.547  36.857  11.125
16784W        W88400  39.532  24.268  12.172
16785W        W88401  25.764  30.707   3.765
16786W        W88402  23.147  33.723   2.383
16787W        W88403  26.605  16.934   5.411
16788W        W88404  18.879  38.604   2.843
16789W        W88405  20.254  42.490  13.510
16790W        W88406   8.903   2.806   1.394
16791W        W88407  39.400  33.975  11.988
16792W        W88408  30.171  32.568   0.476
16793W        W88409  16.078  17.974   4.715
16794W        W88410  43.005  12.336   4.625
16795W        W88411   7.640  12.826  11.590
16796W        W88412  32.980  15.134  13.907
16797W        W88413  16.994  32.605   2.883
16798W        W88414  20.186  19.668   3.095
16799W        W88415  36.910  43.765  11.962
16800W        W88416  41.905  16.493  13.821
16801W        W88417  31.699  32.425  10.788
16802W        W88418  42.034  43.588   0.496
16803W        W88419  25.957  23.520   4.095
16804W        W88420   1.488  43.238   3.536
16805W        W88421  17.275  44.487  12.405
16806W        W88422  10.371   2.469  13.564
16807W        W88423   8.868  16.833  10.675
16808W        W88424  41.315  25.102  13.120
16809W        W88425  21.831  32.849   1.332
16810W        W88426  27.643  10.081  10.384
16811W        W88427  17.435  16.742  10.119
16812W        W88428  21.167  37.181   0.072
16813W        W88429   7.121   5.833   4.336
16814W        W88430  23.937  44.764  11.143
16815W        W88431  40.331  11.125  11.974
16816W        W88432  38.064  42.996   2.197
16817W        W88433  13.730  36.797   2.873
16818W        W88434  11.331   7.763   2.699
16819W        W88435  18.472  17.217  12.827
16820W        W88436  37.470  15.833  11.211
16821W        W88437  44.576  38.529   9.755
16822W        W88438  22.481   5.741  14.030
16823W        W88439  33.112  41.039  11.218
16824W        W88440  14.113   4.615   4.140
16825W        W88441  42.070  16.597   4.107
16826W        W88442   5.920  23.220  14.282
16827W        W88443  17.878  17.285  11.140
16828W        W88444   9.040   9.563  12.795
16829W        W88445   2.265  28.128   2.629
16830W        W88446  20.130  15.397  10.710
16831W        W88447  44.358   5.260  10.761
16832W        W88448  32.015  32.674  13.192
16833W        W88449   1.467  24.336   3.614
16834W        W88450  16.811  26.572  12.047
16835W        W88451  39.263  19.047  12.829
16836W        W88452  43.964  35.296  14.912
16837W        W88453   1.047  41.300  14.836
16838W        W88454   4.237  29.395   1.721
16839W        W88455  32.972   1.198  12.360
16840W        W88456  39.904   6.853   0.712
16841W        W88457  10.824  28.088   3.719
16842W        W88458  39.715  39.765   0.493
16843W        W88459   8.223  43.016  10.723
16844W        W88460  18.313  18.794   3.636
16845W        W88461  20.636  25.122   3.105
16846W        W88462   4.008  33.565   2.763
16847W        W88463  19.360  44.083  11.038
16848W        W88464  12.194  39.797  12.029
16849W        W88465  11.441   0.223  11.095
16850W        W88466   2.310  34.435  12.616
16851W        W88467  36.367  31.932  13.954
16852W        W88468  33.595   6.896  14.022
16853W        W88469  29.998  21.675  13.830
16854W        W88470  29.345   1.902   3.327
16855W        W88471   9.693  11.892   0.780
16856W        W88472  37.495  39.970  10.437
16857W        W88473  14.795  11.662   0.277
16858W        W88474  39.226  20.281   2.757
16859W        W88475  33.385   9.673  12.089
16860W        W88476   6.171  16.587  11.883
16861W        W88477  12.298   2.853   2.216
16862W        W88478   0.663  17.182  11.165
16863W        W88479  42.795   3.499   1.863
16864W        W88480  16.263  35.881   5.085
16865W        W88481  36.305  27.273   3.196
16866W        W88482  11.360  16.555   0.977
16867W        W88483   8.333  32.703   2.932
16868W        W88484   5.067   0.143  11.067
16869W        W88485   0.318  40.905  14.592
16870W        W88486  26.549  22.804   4.040
16871W        W88487   1.064  14.811  14.425
16872W        W88488  40.841  40.089   1.261
16873W        W88489   2.998  32.996  10.992
16874W        W88490  27.116  11.707  13.517
16875W        W88491  12.526  26.636  11.867
16876W        W88492  27.456  27.914   1.081
16877W        W88493  16.640   7.614   2.721
16878W        W88494  26.209  36.945  11.077
16879W        W88495  11.530  11.850  11.562
16880W        W88496  15.288   9.426   4.706
16881W        W88497   5.801  44.289  10.726
16882W        W88498  44.719   2.527  12.889
16883W        W88499  41.719   0.768   2.323
16884W        W88500  39.837  23.233   3.293
16885W        W88501  31.132   2.247  11.079
16886W        W88502   1.722  35.901  10.695
16887W        W88503   7.997   6.164  14.334
16888W        W88504  29.568  43.777   3.786
16889W        W88505  21.172  39.343   0.327
16890W        W88506  28.665   3.837  11.070
16891W        W88507   2.745  41.836   2.295
16892W        W88508  18.075  14.343  11.975
16893W        W88509  23.768   3.108   1.873
16894W        W88510  15.788  18.620   4.129
16895W        W88511  11.353   1.268   0.970
16896W        W88512  17.293  36.854  13.607
16897W        W88513  29.155  29.939  10.118
16898W        W88514  32.406   8.859  12.256
16899W        W88515  44.880  11.369  12.966
16900W        W88516   3.747  35.028  11.611
16901W        W88517  28.925  13.588   2.812
16902W        W88518   9.724  25.203   1.231
16903W        W88519   5.628  12.237  12.335
16904W        W88520  17.686  13.662   0.716
16905W        W88521  25.954  13.332  14.465
16906W        W88522   2.548  22.536  10.046
16907W        W88523  19.500   3.638   0.785
16908W        W88524  29.548  33.261  11.086
16909W        W88525   0.852   6.987   4.373
16910W        W88526  17.645  41.886   2.268
16911W        W88527  23.816  28.385   4.034
16912W        W88528   1.208  44.835  13.319
16913W        W88529   1.727  12.372   2.526
16914W        W88530   2.951   7.922   4.204
16915W        W88531  17.294   3.698   0.936
16916W        W88532   4.728  28.388  13.126
16917W        W88533  27.787  16.487   0.857
16918W        W88534  29.253  21.269   0.837
16919W        W88535  43.649  30.668   5.070
16920W        W88536  16.112  12.758   0.907
16921W        W88537  29.936  21.247   2.792
16922W        W88538  12.056  15.915   2.695
16923W        W88539  30.044  21.149   4.623
16924W        W88540  13.244  39.317  13.243
16925W        W88541  15.562   9.798   0.280
16926W        W88542  32.590  18.264  13.345
16927W        W88543  37.002   3.840   4.646
16928W        W88544  15.575  42.368   4.514
16929W        W88545  28.827  36.996   2.854
16930W        W88546  33.547   6.784   3.586
16931W        W88547  39.008   8.752   1.424
16932W        W88548   4.772  35.180  11.590
16933W        W88549   9.775  29.906   1.897
16934W        W88550  22.269  34.987  13.550
16935W        W88551  24.315  36.043  14.003
16936W        W88552  18.741  10.332  13.281
16937W        W88553   2.470  25.856  11.535
16938W        W88554  39.573  42.245   2.829
16939W        W88555  23.653   2.670  14.816
16940W        W88556  12.302   1.359  11.974
16941W        W88557  16.990  24.027   2.497
16942W        W88558  38.109  21.724   3.401
16943W        W88559  39.080  17.228  13.271
16944W        W88560   6.263  19.683  10.775
16945W        W88561  16.860   9.870  14.297
16946W        W88562  42.924  35.516   2.874
16947W        W88563  29.626  42.751   3.699
16948W        W88564  30.235  17.058   4.949
16949W        W88565   8.221  14.045  14.493
16950W        W88566  30.460  40.965  14.002
16951W        W88567  22.577  38.906  11.465
16952W        W88568   4.809   6.283  13.873
16953W        W88569  27.593  10.848   0.201
16954W        W88570  14.698  37.022  13.361
16955W        W88571  25.894  23.161  14.974
16956W        W88572  18.641  12.595   4.662
16957W        W88573  31.371   2.821   3.593
16958W        W88574  27.998  21.973   4.307
16959W        W88575  14.767  17.823  11.584
16960W        W88576  20.244  20.291  13.449
16961W        W88577  15.136  27.934   4.151
16962W        W88578  22.219   7.859  14.301
16963W        W88579  11.360   3.714  12.177
16964W        W88580  22.758  37.821   3.743
16965W        W88581  11.201  42.949   0.679
16966W        W88582   5.751   2.353  12.959
16967W        W88583  15.186   4.267  12.853
16968W        W88584  19.345  23.595   1.029
16969W        W88585  18.136   3.344  13.826
16970W        W88586   9.901  30.432  12.184
16971W        W88587   1.934  22.301  11.628
16972W        W88588  35.577  14.801   2.928
16973W        W88589  40.100  15.293   0.920
16974W        W88590  19.275  21.228   1.448
16975W        W88591  12.236  13.089  13.805
16976W        W88592  16.329  40.239   1.819
16977W        W88593  22.689  26.760   1.618
16978W        W88594  19.137  14.263   5.127
16979W        W88595  28.461  32.224  13.829
16980W        W88596  10.070   4.319   1.840
16981W        W88597   7.586  24.179  12.829
16982W        W88598  42.532  21.207   1.237
16983W        W88599  16.341  33.925  14.018
16984W        W88600  37.168   9.658  11.230
16985W        W88601  13.254  39.348  14.279
16986W        W88602   2.475   5.454  13.507
16987W        W88603  15.134  21.518  13.856
16988W        W88604  36.402   8.143  10.597
16989W        W88605   7.347  30.557  10.889
16990W        W88606  40.454  24.803  11.654
16991W        W88607  21.068  32.008   4.706
16992W        W88608  35.593  40.295   2.303
16993W        W88609  29.705  38.888   5.040
16994W        W88610  37.320  18.058   3.688
16995W        W88611   3.810  41.915   2.283
16996W        W88612  20.699  34.851   4.550
16997W        W88613  30.240  28.510   1.434
16998W        W88614   3.989  10.660  14.017
16999W        W88615  25.075  25.723  14.939
17000W        W88616   7.882  16.088   0.164
17001W        W88617  30.035  13.715  10.654
17002W        W88618  12.605  38.894  14.816
17003W        W88619  40.042  20.650   0.198
17004W        W88620  13.364  17.695  14.836
17005W        W88621  44.955  23.428   2.260
17006W        W88622  35.820   7.470  13.354
17007W        W88623  38.866   0.921   0.309
17008W        W88624  19.036  44.909   0.954
17009W        W88625  28.903  27.458   3.817
17010W        W88626  28.484   4.444   3.290
17011W        W88627  11.747  23.692   0.411
17012W        W88628  15.859  36.082  14.460
17013W        W88629  41.894  25.044  14.280
17014W        W88630  25.570  30.571   1.276
17015W        W88631  34.942   8.846  13.451
17016W        W88632  31.629   3.825  10.617
17017W        W88633  26.207  16.231   4.636
17018W        W88634  35.911  14.483   3.974
17019W        W88635  24.433  20.960  14.470
17020W        W88636  28.408  25.247   0.879
17021W        W88637  30.439  43.743   1.264
17022W        W88638   3.031  15.086   3.688
17023W        W88639  18.006  14.803  11.486
17024W        W88640  32.839  31.530   0.246
17025W        W88641  20.723  26.432   4.610
17026W        W88642  25.765  21.135   4.542
17027W        W88643   6.719  42.351  14.413
17028W        W88644  24.497  35.842  13.550
17029W        W88645  34.407  42.471  12.477
17030W        W88646  22.485   0.218   4.628
17031W        W88647  39.232   9.806   2.683
17032W        W88648  33.591  30.888  11.160
17033W        W88649  26.051  31.938  10.954
17034W        W88650   1.635  26.827   4.955
17035W        W88651   7.344   4.887   3.724
17036W        W88652   0.007  24.758   3.179
17037W        W88653  28.259   1.769  10.772
17038W        W88654  44.815  12.154  12.365
17039W        W88655  19.126  35.960   4.273
17040W        W88656  34.887  12.357  13.198
17041W        W88657   5.491  36.482  12.053
17042W        W88658  11.068  19.759  14.286
17043W        W88659  27.259   2.574   2.659
17044W        W88660  23.261  32.309   0.484
17045W        W88661  31.399  13.341  11.146
17046W        W88662  43.210   7.255  12.841
17047W        W88663   4.240  28.172  10.392
17048W        W88664  28.979  11.319  13.800
17049W        W88665   7.339  13.895  11.394
17050W        W88666  16.310  10.373   2.886
17051W        W88667   7.424  25.530   4.043
17052W        W88668   8.027   4.350   3.836
17053W        W88669  39.269  29.462   2.622
17054W        W88670   1.431  13.160  11.644
17055W        W88671  18.460  26.164  14.984
17056W        W88672  17.733   9.213   2.651
17057W        W88673   5.108  39.803   4.143
17058W        W88674  16.307  16.758  12.973
17059W        W88675  44.414  19.322   0.221
17060W        W88676  17.207  20.979   1.619
17061W        W88677   8.613  10.622   2.713
17062W        W88678  19.342  39.314  13.749
17063W        W88679  39.890  26.899  14.424
17064W        W88680   5.676   1.499  13.849
17065W        W88681  22.285  30.553  11.228
17066W        W88682   8.734  25.800   3.637
17067W        W88683  41.105  10.194   0.823
17068W        W88684  27.587   7.741   0.696
17069W        W88685  38.011  18.027  12.540
17070W        W88686   8.910  30.593  13.078
17071W        W88687  37.452  25.706  14.410
17072W        W88688  35.001  22.994  14.384
17073W        W88689  30.617  11.830   3.801
17074W        W88690  16.808  17.160   1.495
17075W        W88691   3.976  17.962  11.034
17076W        W88692  35.566  25.226  11.479
17077W        W88693  10.618  37.998   3.906
17078W        W88694  41.576  31.246   1.787
17079W        W88695  23.110  11.251   1.300
17080W        W88696   0.684   1.706   0.385
17081W        W88697  27.891  33.542  12.844
17082W        W88698   1.988  32.006  13.432
17083W        W88699  22.907   4.300   0.864
17084W        W88700  15.724   5.174   3.656
17085W        W88701  29.098  15.915  12.958
17086W        W88702  23.244  10.844   1.885
17087W        W88703  12.496  23.226  10.600
17088W        W88704  28.557  11.378   4.038
17089W        W88705   9.312  34.098  14.723
17090W        W88706  17.632  22.286   2.335
17091W        W88707  42.960  31.692   0.873
17092W        W88708  37.093  34.874  13.380
17093W        W88709  19.002   7.235  10.551
17094W        W88710   5.118  39.882  13.783
17095W        W88711  12.134   3.730  12.472
17096W        W88712  15.969   0.070  11.016
17097W        W88713   5.982   6.593  11.709
17098W        W88714  20.283   4.795  14.136
17099W        W88715  18.170  33.842  14.465
17100W        W88716  25.628  40.605  11.086
17101W        W88717   5.944   6.101   4.117
17102W        W88718  40.275  21.694   3.765
17103W        W88719  23.960  11.588   0.860
17104W        W88720  38.384  41.298  14.528
17105W        W88721  38.918  29.638  13.189
17106W        W88722  35.835   9.836   4.587
17107W        W88723  10.646  11.138  12.965
17108W        W88724   3.943  15.817  11.832
17109W        W88725  31.651  10.193   2.267
17110W        W88726  20.159  16.874  10.778
17111W        W88727  43.926  17.349   3.024
17112W        W88728   3.191  25.903  12.394
17113W        W88729  12.382   0.395   2.952
17114W        W88730  37.051  12.286  12.558
17115W        W88731  39.895  26.719   1.465
17116W        W88732  41.845  35.094  10.141
17117W        W88733  15.148   8.942   2.345
17118W        W88734   9.278   8.646   3.188
17119W        W88735  20.065   0.389  12.101
17120W        W88736  17.251  15.155  14.308
17121W        W88737  25.175  15.139  12.324
17122W        W88738  22.112  24.145  12.112
17123W        W88739  30.531   7.722   0.797
17124W        W88740  41.441   1.719  13.943
17125W        W88741  33.075  41.998   0.678
17126W        W88742  26.364  43.908   2.527
17127W        W88743  30.162   3.911  13.420
17128W        W88744  20.770  41.050   2.874
17129W        W88745  31.445  32.086  11.991
17130W        W88746  36.979  10.201   4.863
17131W        W88747  16.402  30.127  13.842
17132W        W88748   5.187  24.003   0.199
17133W        W88749  43.760  27.625  12.610
17134W        W88750  28.993  13.314   1.329
17135W        W88751  36.954  21.350  12.249
17136W        W88752   3.174  29.994  11.541
17137W        W88753  17.263  20.528   2.958
17138W        W88754   1.317  22.266   4.123
17139W        W88755  42.859   9.324   4.610
17140W        W88756   7.829  21.724  13.367
17141W        W88757  34.572  12.855   0.292
17142W        W88758  30.281  31.609   0.467
17143W        W88759  19.956  23.690  11.916
17144W        W88760  44.363  22.409   1.823
17145W        W88761  15.266  16.243   0.514
17146W        W88762  12.612  13.207  11.930
17147W        W88763   8.089  19.934  13.406
17148W        W88764  35.523  12.890  11.978
17149W        W88765  25.680  26.518  11.967
17150W        W88766  24.747  30.502   3.765
17151W        W88767  24.093  23.616  12.115
17152W        W88768  43.730  18.702  11.216
17153W        W88769   2.307  23.714   0.916
17154W        W88770  11.042  16.227  11.064
17155W        W88771  18.360  27.637   1.816
17156W        W88772  15.099   0.545   2.395
17157W        W88773  42.041  33.389  10.183
17158W        W88774  39.246   0.799   2.739
17159W        W88775  11.722  20.749   1.808
17160W        W88776  24.157  40.448   1.889
17161W        W88777  17.090  19.012   3.222
17162W        W88778  13.783  24.426   4.114
17163W        W88779  35.653  22.626   3.353
17164W        W88780   1.238  16.862   4.470
17165W        W88781  33.086  17.625  14.876
17166W        W88782   3.482  41.786   4.118
17167W        W88783  16.029  15.159   1.288
17168W        W88784  33.493   9.857   2.205
17169W        W88785  10.687  34.520  13.017
17170W        W88786  36.521  34.074   1.757
17171W        W88787  24.754  31.669   4.087
17172W        W88788  38.382  41.440   0.446
17173W        W88789  14.272   7.817  12.974
17174W        W88790   3.426  26.346  11.567
17175W        W88791  36.971  17.305   0.943
17176W        W88792  18.333  35.861  13.560
17177W        W88793  27.030  17.078   3.746
17178W        W88794  41.004  42.567   4.300
17179W        W88795  27.888  32.425  12.938
17180W        W88796  24.798  24.781  12.019
17181W        W88797  10.674  30.014  12.406
17182W        W88798  26.464  16.116  14.380
17183W        W88799  42.887   2.444   5.097
17184W        W88800  27.105  42.788  13.961
17185W        W88801  12.227  16.214  10.692
17186W        W88802  28.168  30.428  12.106
17187W        W88803  13.257   3.460  14.210
17188W        W88804  36.204  35.393  11.075
17189W        W88805  11.201  22.080   1.261
17190W        W88806   6.171   6.727  14.408
17191W        W88807   1.751   9.496  13.473
17192W        W88808  24.492   0.813   2.583
17193W        W88809  30.616  34.994  11.182
17194W        W88810  23.502  36.100  13.430
17195W        W88811   3.824   9.865   0.783
17196W        W88812  44.836  28.952   3.038
17197W        W88813   7.252   2.645   1.903
17198W        W88814  32.990  37.531   0.448
17199W        W88815  23.921   6.269   3.128
17200W        W88816   1.870  35.652  13.804
17201W        W88817   2.301   5.196  12.158
17202W        W88818  36.902  33.452  11.579
17203W        W88819  19.794   0.223  14.467
17204W        W88820   1.851   2.925  11.399
17205W        W88821  34.636   6.830  13.634
17206W        W88822  44.435   5.428  14.586
17207W        W88823  43.369  42.895   3.342
17208W        W88824   8.227  37.479  12.930
17209W        W88825  29.198  19.039   0.119
17210W        W88826  29.682  15.829   3.806
17211W        W88827  42.492  33.664   0.369
17212W        W88828  17.290  31.934   1.457
17213W        W88829  42.931  43.731   1.267
17214W        W88830   1.915  43.529   0.331
17215W        W88831  25.124   9.980   2.690
17216W        W88832  33.998  25.679  13.488
17217W        W88833   8.153   3.476   1.057
17218W        W88834  12.572   3.949  14.813
17219W        W88835  28.156  15.008  13.131
17220W        W88836   0.011   8.923   1.848
17221W        W88837  31.765  27.197   3.528
17222W        W88838  37.645   8.337   0.833
17223W        W88839  39.899  10.898   2.428
17224W        W88840   8.865  26.243   2.708
17225W        W88841  10.656  27.043   1.000
17226W        W88842  12.546   7.197   1.331
17227W        W88843  37.033  33.463   2.083
17228W        W88844  25.970   0.316  14.401
17229W        W88845  33.617  34.918   2.264
17230W        W88846   2.563   7.266  13.488
17231W        W88847   6.948  30.748   3.141
17232W        W88848  29.496  14.341   4.601
17233W        W88849   4.650  17.338  13.183
17234W        W88850  30.413  41.453  11.152
17235W        W88851  44.269  36.605   3.038
17236W        W88852  35.114   7.757  14.442
17237W        W88853  35.337   4.895  14.329
17238W        W88854  35.481   6.344  12.650
17239W        W88855  41.456  24.514  11.124
17240W        W88856  43.047  12.106  12.070
17241W        W88857  30.940  33.956  13.440
17242W        W88858  16.322  28.893   2.362
17243W        W88859  11.346   8.723  13.935
17244W        W88860   3.815  38.533   1.474
17245W        W88861   1.479  12.106   3.803
17246W        W88862  40.601  25.272   4.961
17247W        W88863  28.927  14.365   3.158
17248W        W88864  36.879  43.039   3.240
17249W        W88865  40.585  22.631  11.509
17250W        W88866  29.544   5.192  13.894
17251W        W88867   9.148  21.617   4.650
17252W        W88868  16.201   7.998   4.668
17253W        W88869  34.949  25.516   0.150
17254W        W88870  28.173  19.503   0.013
17255W        W88871   5.144  33.988  14.963
17256W        W88872  13.540  36.666  11.145
17257W        W88873  26.628  15.858   0.644
17258W        W88874  30.103  42.976  12.026
17259W        W88875  43.782  12.790  14.822
17260W        W88876   3.663  13.219  13.664
17261W        W88877  35.377  16.822   0.284
17262W        W88878  25.442  38.163   0.402
17263W        W88879   4.857  28.176   3.583
17264W        W88880  20.264  23.243  12.600
17265W        W88881   8.318  35.852  11.109
17266W        W88882  39.345   6.220  11.112
17267W        W88883   8.330   4.296  12.363
17268W        W88884   4.156  28.906  13.961
17269W        W88885   0.275  19.523   1.328
17270W        W88886   6.990  31.919   0.014
17271W        W88887  22.655   2.197   2.885
17272W        W88888  31.003   1.386   2.800
17273W        W88889  34.101  30.186  11.833
17274W        W88890  44.788  10.252   0.144
17275W        W88891  31.744  42.404   3.084
17276W        W88892  22.552  16.085  14.435
17277W        W88893  21.576   8.120   3.203
17278W        W88894   1.133   7.939   0.294
17279W        W88895   0.774  15.257  14.302
17280W        W88896  21.728   4.287  12.428
17281W        W88897  39.135  43.113   4.011
17282W        W88898  15.198  40.054   1.396
17283W        W88899  37.614  34.686   4.590
17284W        W88900  37.433  28.885   3.840
17285W        W88901  19.105  15.816  14.863
17286W        W88902  21.620   9.428  13.098
17287W        W88903  25.205   1.476  14.088
17288W        W88904  41.399  27.035   2.664
17289W        W88905   8.851  18.978  11.711
17290W        W88906  35.047  36.243   0.895
17291W        W88907  40.033  30.011   2.814
17292W        W88908   3.614  39.715   3.709
17293W        W88909   1.933  26.700  14.206
17294W        W88910   5.165  42.505   1.398
17295W        W88911   0.473  37.348   5.580
17296W        W88912   3.514  16.146   1.922
17297W        W88913  25.726   4.799  10.390
17298W        W88914   4.376   5.081  14.631
17299W        W88915  38.050  17.856   0.292
17300W        W88916   2.241   5.917  13.532
17301W        W88917  19.945  15.622   2.182
17302W        W88918  20.155  14.856  10.640
17303W        W88919  42.387  23.637  13.414
17304W        W88920  37.863  13.315  11.460
17305W        W88921  22.945   9.278   0.986
17306W        W88922  37.520  22.131   3.270
17307W        W88923   6.423  38.294  14.040
17308W        W88924  34.079  31.500   1.924
17309W        W88925  12.877  38.503   0.025
17310W        W88926   2.152  35.094   2.247
17311W        W88927  29.955  25.776  13.088
17312W        W88928  28.688  35.380  13.054
17313W        W88929   9.490  30.532  11.859
17314W        W88930  32.180  35.938  11.685
17315W        W88931  17.093  21.521   1.658
17316W        W88932  21.132  39.866   1.551
17317W        W88933  17.336  31.139  13.992
17318W        W88934  24.903   1.806   3.402
17319W        W88935  14.860  34.803  12.668
17320W        W88936  17.091  43.875  13.693
17321W        W88937  35.452  33.280   4.069
17322W        W88938   0.425  14.277  14.850
17323W        W88939  34.434  41.898   2.244
17324W        W88940  30.841  27.581  13.315
17325W        W88941  18.574  22.730   2.848
17326W        W88942  17.672   3.313   4.073
17327W        W88943  31.122  19.678  10.603
17328W        W88944  13.701  36.762  14.127
17329W        W88945   8.432  15.265   3.759
17330W        W88946   4.981  28.626   1.865
17331W        W88947   3.272  44.324  10.426
17332W        W88948  31.824   5.319  13.932
17333W        W88949  11.103   9.748  10.950
17334W        W88950  26.949  24.487   3.836
17335W        W88951   4.662  40.644   4.715
17336W        W88952  42.066  34.954   4.153
17337W        W88953  20.988  32.272  14.022
17338W        W88954   5.840  14.600  12.418
17339W        W88955  17.117  14.332  10.704
17340W        W88956  11.732  25.058  14.985
17341W        W88957  27.109  26.202  11.072
17342W        W88958  40.574  23.563  10.728
17343W        W88959  14.375   7.343  13.395
17344W        W88960   5.894   9.673   0.348
17345W        W88961   1.770  23.134   1.333
17346W        W88962   3.055   3.385   0.151
17347W        W88963  44.787   4.671  12.355
17348W        W88964  17.864  41.411  12.516
17349W        W88965   9.224  29.085  12.995
17350W        W88966  37.833  39.139  12.573
17351W        W88967  14.908   0.759  14.468
17352W        W88968   0.799   8.235   1.485
17353W        W88969   4.420   1.199  11.387
17354W        W88970   9.825  29.271  11.622
17355W        W88971  12.519  29.080  10.721
17356W        W88972  23.777  44.499  13.837
17357W        W88973  24.694  29.238   1.006
17358W        W88974  39.322  27.849  11.131
17359W        W88975  13.371  35.572   4.125
17360W        W88976  18.394  11.771  10.970
17361W        W88977  37.742   4.779   1.379
17362W        W88978   8.646   8.626  13.985
17363W        W88979   6.200  40.818  11.468
17364W        W88980   9.361  44.009   0.017
17365W        W88981  30.991  37.047  13.001
17366W        W88982   0.295  43.024   2.689
17367W        W88983   1.627  19.736   4.748
17368W        W88984  16.594  37.479   0.353
17369W        W88985   0.979  38.062   3.901
17370W        W88986  27.962  42.927  12.043
17371W        W88987  40.015  43.491  13.800
17372W        W88988  43.433   6.911   2.345
17373W        W88989   7.926   9.026   0.176
17374W        W88990  37.529  42.490   5.087
17375W        W88991  17.085  42.434  11.342
17376W        W88992  10.904  17.148   0.615
17377W        W88993  11.648  13.438   0.540
17378W        W88994  43.909  42.725  12.545
17379W        W88995  38.559  35.938  13.752
17380W        W88996  32.137  39.051   2.760
17381W        W88997  13.023  22.705   1.078
17382W        W88998  15.437  40.674   5.314
17383W        W88999  17.052  30.925   4.123
17384W        W89000  30.194   9.193  10.744
17385W        W89001  34.168  19.655   4.569
17386W        W89002  44.478   8.359   3.707
17387W        W89003  28.502  23.152  14.963
17388W        W89004  16.669  21.747   0.460
17389W        W89005  14.616  27.516   0.892
17390W        W89006  43.728  42.718  11.704
17391W        W89007  14.264  31.062   0.980
17392W        W89008  24.798  33.930   2.382
17393W        W89009  44.902   4.915  11.036
17394W        W89010  17.795  43.443   0.741
17395W        W89011  24.001   0.313  13.638
17396W        W89012  23.812  27.581  12.283
17397W        W89013  41.201  37.555  11.475
17398W        W89014  37.460  15.059   1.003
17399W        W89015  30.283  18.517  12.174
17400W        W89016  11.640   7.206   2.569
17401W        W89017  16.399   3.716  13.991
17402W        W89018  15.740  32.589   3.454
17403W        W89019  38.314  24.590  12.927
17404W        W89020  14.883   9.133   2.770
17405W        W89021   1.755  13.285   1.925
17406W        W89022  28.053  12.237  12.852
17407W        W89023  38.255  10.150  11.677
17408W        W89024  40.502  22.759  13.871
17409W        W89025  43.967  18.057  12.001
17410W        W89026   2.298  42.210   3.790
17411W        W89027  44.275  38.997  13.883
17412W        W89028   0.978  19.544   1.834
17413W        W89029  29.576  32.942   4.094
17414W        W89030  35.516  42.686   1.933
17415W        W89031   7.765  23.519   0.688
17416W        W89032  33.480  34.813  14.379
17417W        W89033   5.452   9.375   2.426
17418W        W89034  21.809  28.707  12.439
17419W        W89035   6.937  33.796  14.239
17420W        W89036  35.281  36.592  12.021
17421W        W89037   2.313   9.216   0.759
17422W        W89038  34.632   5.929   4.620
17423W        W89039  18.831  17.928  14.466
17424W        W89040  41.756   6.645   1.400
17425W        W89041  24.250   0.456  10.701
17426W        W89042  41.458  23.702   3.151
17427W        W89043  31.999  31.646  10.718
17428W        W89044  25.716   8.304   4.987
17429W        W89045  22.866   8.117  13.129
17430W        W89046  23.037  32.673   2.557
17431W        W89047  21.283  43.096  14.436
17432W        W89048  18.249  16.117   2.338
17433W        W89049   2.821  13.414  14.063
17434W        W89050  25.379   9.207   3.117
17435W        W89051  38.329   3.758   4.884
17436W        W89052  32.359  40.120  12.464
17437W        W89053  20.609  24.951   4.159
17438W        W89054   3.351  20.741  14.703
17439W        W89055  26.893   7.131  11.126
17440W        W89056  31.546  14.639   3.835
17441W        W89057  30.646   3.361  13.975
17442W        W89058  22.591  25.921  12.387
17443W        W89059   0.398  44.689  11.150
17444W        W89060  22.180  44.622  14.442
17445W        W89061  26.470  40.575  13.317
17446W        W89062  39.041  20.701  13.895
17447W        W89063  20.886   8.141   0.558
17448W        W89064  20.667   8.453   1.330
17449W        W89065  38.425  24.550   3.430
17450W        W89066  42.046  39.920   1.973
17451W        W89067  31.625  20.607   1.479
17452W        W89068  26.739  30.642   2.835
17453W        W89069  11.304   0.665  11.926
17454W        W89070  16.087  15.367   9.802
17455W        W89071  33.045  23.101   2.179
17456W        W89072   0.862  31.476   2.659
17457W        W89073  40.397  35.803   2.871
17458W        W89074  30.708  15.576   0.883
17459W        W89075  33.464  36.508  13.546
17460W        W89076  12.743  20.742  12.039
17461W        W89077  21.077  22.946   3.969
17462W        W89078  33.341  37.568   1.452
17463W        W89079  27.875  28.685  12.414
17464W        W89080  31.155   5.212   2.893
17465W        W89081  38.455   8.638   0.049
17466W        W89082   8.811  40.520  12.412
17467W        W89083  12.106  13.249   3.674
17468W        W89084  16.476  16.627   5.095
17469W        W89085  11.322  32.040   4.116
17470W        W89086  36.783  41.451   3.582
17471W        W89087   5.994  30.625   1.281
17472W        W89088  21.460  31.906  10.370
17473W        W89089   2.224  13.322  14.548
17474W        W89090  15.050  14.758   2.816
17475W        W89091  17.288  19.143   4.968
17476W        W89092  25.927  30.226  12.976
17477W        W89093  18.295   6.412   4.577
17478W        W89094   0.982  25.701   4.272
17479W        W89095   1.820  32.021   0.785
17480W        W89096   6.226   3.195   3.397
17481W        W89097  32.090  30.469   2.812
17482W        W89098  15.305   1.928  14.050
17483W        W89099  36.488  20.508  13.935
17484W        W89100  16.609  38.525  12.048
17485W        W89101   9.464   3.748  11.986
17486W        W89102   4.338  20.201   0.568
17487W        W89103  20.453  22.182   4.029
17488W        W89104  41.491  25.726  13.623
17489W        W89105  24.929  13.514   3.849
17490W        W89106  10.832  38.588  12.544
17491W        W89107  44.089  14.270  11.426
17492W        W89108  24.514  44.747  12.690
17493W        W89109  10.776  32.150  13.822
17494W        W89110  27.417   7.693   2.634
17495W        W89111  27.901  28.144   2.963
17496W        W89112  34.499  14.187   3.098
17497W        W89113  12.134   1.774  14.993
17498W        W89114  44.358   6.201   1.752
17499W        W89115  32.949  28.933   9.891
17500W        W89116  22.438  30.508  12.920
17501W        W89117  41.806  14.327  14.060
17502W        W89118  21.751  31.502   3.326
17503W        W89119  28.473   8.651   3.160
17504W        W89120  29.889  23.852   1.005
17505W        W89121  30.524  13.143  11.106
17506W        W89122  26.164  41.133  10.821
17507W        W89123   8.905  18.973   4.079
17508W        W89124  44.813  42.828   3.162
17509W        W89125  44.496  40.409   3.333
17510W        W89126  36.817   5.054  14.832
17511W        W89127   0.109  42.986   0.852
17512W        W89128  28.054  13.157   3.568
17513W        W89129  14.028  42.779  13.537
17514W        W89130  18.717  36.503   4.382
17515W        W89131   9.388  19.151   3.063
17516W        W89132  14.458  30.101  11.030
17517W        W89133   1.040   0.087  13.738
17518W        W89134  17.342  26.067  12.555
17519W        W89135  34.112  39.257   3.728
17520W        W89136   4.840   7.358   3.305
17521W        W89137  42.342   8.076   1.408
17522W        W89138  29.939  32.234   1.888
17523W        W89139  10.618  29.042   0.780
17524W        W89140  29.664  33.233   2.726
17525W        W89141  42.499  11.618   4.170
17526W        W89142  20.054  12.950  14.860
17527W        W89143  15.578   8.401  11.553
17528W        W89144  26.191   1.540  13.852
17529W        W89145  19.737  13.319   0.544
17530W        W89146  24.886   6.207   3.255
17531W        W89147  13.459  22.675  14.251
17532W        W89148  34.199   3.273  11.157
17533W        W89149  28.509  33.867  12.816
17534W        W89150   1.317  42.977  11.804
17535W        W89151   6.818  29.436   2.850
17536W        W89152   3.377   8.744   5.174
17537W        W89153  14.336  25.558  14.585
17538W        W89154  39.839  28.130   4.852
17539W        W89155  34.236   3.016  12.175
17540W        W89156  10.440  11.269   3.608
17541W        W89157  33.964  11.249  12.621
17542W        W89158  23.771   4.996  11.146
17543W        W89159  15.619  26.718   1.471
17544W        W89160   0.336  33.619   1.911
17545W        W89161  19.993  20.536  11.384
17546W        W89162  10.206  36.101  12.952
17547W        W89163  36.092  44.351   2.786
17548W        W89164   3.679  37.851   1.720
17549W        W89165  30.656  34.894  12.064
17550W        W89166  15.050  12.601   4.064
17551W        W89167  36.642  24.534   4.496
17552W        W89168  26.173  35.912  13.848
17553W        W89169  18.728  12.488   5.185
17554W        W89170  17.041  31.602   4.502
17555W        W89171  33.805  10.091  13.870
17556W        W89172   1.312  16.108  14.328
17557W        W89173  40.576  20.953  12.015
17558W        W89174  13.869  43.819  12.545
17559W        W89175  25.991   3.831  12.474
17560W        W89176  14.309  29.574  13.501
17561W        W89177  21.607   5.843   2.377
17562W        W89178  21.506  35.934   0.424
17563W        W89179   3.878   4.984   1.439
17564W        W89180  20.182   8.812   3.825
17565W        W89181   7.598  16.225  13.826
17566W        W89182  18.730   1.217  10.709
17567W        W89183  21.663  22.017   4.847
17568W        W89184   3.833   1.385  14.535
17569W        W89185  21.792  13.315   1.700
17570W        W89186  19.933  20.510   1.488
17571W        W89187  13.192  25.022  11.543
17572W        W89188  42.906  35.102  11.953
17573W        W89189   5.743  34.103   1.213
17574W        W89190   6.244  29.468  12.008
17575W        W89191  16.398  32.029   2.120
17576W        W89192  43.487   1.835   2.936
17577W        W89193  10.990  25.190   3.329
17578W        W89194   2.816  22.185   1.226
17579W        W89195  32.504  19.330  10.654
17580W        W89196  23.841  18.623  13.993
17581W        W89197  17.639  37.817   4.851
17582W        W89198  33.717  35.891   0.284
17583W        W89199   2.804  25.901  11.111
17584W        W89200  30.873  33.317  11.035
17585W        W89201  12.785   9.276  10.803
17586W        W89202   9.357   5.831  10.656
17587W        W89203   1.516  22.786   2.707
17588W        W89204   6.379   5.446   1.168
17589W        W89205  40.017  29.638   0.288
17590W        W89206  35.372  22.367  13.818
17591W        W89207  27.557  36.889  13.733
17592W        W89208  23.693  34.037   0.238
17593W        W89209  34.090  35.566  13.095
17594W        W89210  44.408  40.323   1.679
17595W        W89211   4.666   4.294   3.262
17596W        W89212  40.124  26.227   2.392
17597W        W89213   7.879   8.755   1.168
17598W        W89214   7.758  38.140  10.894
17599W        W89215   9.232  37.944   2.242
17600W        W89216  43.263  36.902   4.805
17601W        W89217   6.612  44.847   3.709
17602W        W89218   6.878   8.980  13.926
17603W        W89219  35.893  18.452  12.037
17604W        W89220  11.836  10.241  13.035
17605W        W89221  23.177  19.195   1.141
17606W        W89222  32.140  29.550  12.560
17607W        W89223  40.733  39.481   2.921
17608W        W89224  43.336  24.360   2.239
17609W        W89225  18.985   9.627  11.035
17610W        W89226   3.357  38.664  13.102
17611W        W89227  44.350  37.060  13.999
17612W        W89228  15.615  38.495  13.902
17613W        W89229  38.985  30.497  12.474
17614W        W89230  29.547  40.568   1.791
17615W        W89231  43.951  26.720   1.309
17616W        W89232  33.468  22.567  10.683
17617W        W89233  40.414  10.992   3.194
17618W        W89234  40.604  37.246  14.805
17619W        W89235  40.457  28.752  13.025
17620W        W89236  27.216  13.728   1.672
17621W        W89237  36.927  44.961  11.666
17622W        W89238  40.982  19.131  13.995
17623W        W89239  12.834   6.505  14.474
17624W        W89240  23.225  30.357   2.450
17625W        W89241  11.897   7.196   1.694
17626W        W89242  44.680  30.564   2.758
17627W        W89243  12.895  30.533  12.431
17628W        W89244  41.851   9.511  10.877
17629W        W89245  20.659  14.128   5.045
17630W        W89246  21.768  38.076   3.710
17631W        W89247  23.703  17.758  14.000
17632W        W89248   2.981  34.206   0.692
17633W        W89249  23.475  41.000  14.386
17634W        W89250  24.996  11.866  13.524
17635W        W89251   2.957   9.882   1.194
17636W        W89252  27.326  36.276  12.477
17637W        W89253  19.008  35.281  13.932
17638W        W89254   7.819  40.695   1.019
17639W        W89255  40.546  28.920  13.520
17640W        W89256  38.551  38.503   4.592
17641W        W89257  13.903   3.356   0.044
17642W        W89258  40.411   4.641   3.778
17643W        W89259  22.653   1.235  11.746
17644W        W89260  28.125   5.781   3.234
17645W        W89261  27.105  31.766  12.807
17646W        W89262  18.593  23.210   0.750
17647W        W89263   9.739  37.951   3.938
17648W        W89264  35.919  39.491   3.371
17649W        W89265  35.108   1.646   2.706
17650W        W89266   7.299  37.944   3.268
17651W        W89267  19.822  37.965   3.255
17652W        W89268   2.352  40.696   0.270
17653W        W89269  23.703  10.273  13.848
17654W        W89270  16.055   4.764  13.374
17655W        W89271  22.644  32.395  12.123
17656W        W89272   4.390   5.735  12.441
17657W        W89273   4.897   1.108   5.034
17658W        W89274  15.134  24.120  12.654
17659W        W89275  16.288  19.861  10.727
17660W        W89276   8.213   7.066  14.413
17661W        W89277  25.529  35.410   3.232
17662W        W89278  37.025   0.921  13.126
17663W        W89279   2.740  39.245  12.594
17664W        W89280  20.113   6.197   2.318
17665W        W89281  24.645  11.154  14.459
17666W        W89282  14.033   3.819  10.539
17667W        W89283  21.299  10.660  11.834
17668W        W89284   0.676   3.458   2.089
17669W        W89285  39.922  24.918   4.564
17670W        W89286  44.232  14.808   1.843
17671W        W89287  26.492   1.395  11.482
17672W        W89288  27.331   1.276   3.139
17673W        W89289   1.026   2.042  13.540
17674W        W89290  41.790  42.437  12.904
17675W        W89291   9.422  40.000  14.197
17676W        W89292   5.048  30.223  13.362
17677W        W89293   1.727  18.221   3.740
17678W        W89294  30.170   7.716   3.122
17679W        W89295  24.168  38.597   4.854
17680W        W89296  37.568  41.978   1.820
17681W        W89297  39.854   6.112  12.385
17682W        W89298   9.433  43.202   1.275
17683W        W89299   0.126  37.908  12.442
17684W        W89300  38.999  29.077   4.730
17685W        W89301  33.652   2.209   3.624
17686W        W89302  33.105  25.296   0.605
17687W        W89303  24.016  25.215   1.443
17688W        W89304   6.403  11.779   0.255
17689W        W89305  43.006  37.878  11.502
17690W        W89306   8.832   2.077   1.191
17691W        W89307   2.804  26.000   0.391
17692W        W89308  42.169  26.167  14.332
17693W        W89309  31.239  23.606   2.300
17694W        W89310  40.813   9.966  11.649
17695W        W89311  44.683  28.157  13.906
17696W        W89312  30.106  32.986   3.888
17697W        W89313   3.510   9.393  12.615
17698W        W89314  43.368  13.311   3.082
17699W        W89315   6.187  36.021   2.013
17700W        W89316  43.355  21.795  14.263
17701W        W89317  19.277  43.233  10.551
17702W        W89318  10.537  29.129  11.239
17703W        W89319  38.519  36.429   4.058
17704W        W89320   5.410  30.958  14.249
17705W        W89321   6.131  14.242  10.682
17706W        W89322  20.083  23.523  13.023
17707W        W89323  10.694  34.777   5.058
17708W        W89324  14.816  11.240  11.558
17709W        W89325  41.454  44.318   2.416
17710W        W89326  37.223  43.217  12.477
17711W        W89327  30.020  31.059   0.002
17712W        W89328   9.253  35.193   2.352
17713W        W89329  33.886  38.801   1.449
17714W        W89330   9.407  33.906   4.280
17715W        W89331   1.921  21.754  12.772
17716W        W89332  34.517  23.131   0.976
17717W        W89333  36.297  21.085   4.409
17718W        W89334   0.952  26.719   4.190
17719W        W89335  14.602   4.411  14.094
17720W        W89336  39.689  16.735  13.163
17721W        W89337  39.603  41.996  13.337
17722W        W89338  41.195  43.914  13.166
17723W        W89339  17.770  30.395   0.387
17724W        W89340   6.099  39.943  14.034
17725W        W89341   7.161   5.834   1.435
17726W        W89342  20.824   9.552  12.012
17727W        W89343  40.338   5.307  12.648
17728W        W89344  18.690  12.924  11.554
17729W        W89345   7.288  36.068   0.229
17730W        W89346  39.942  10.980  14.399
17731W        W89347   9.832   0.014  12.109
17732W        W89348  34.328   2.995  14.042
17733W        W89349  27.904  44.415  14.811
17734W        W89350  19.655  24.029   0.160
17735W        W89351   3.683   7.483   1.821
17736W        W89352  38.428  18.528   1.735
17737W        W89353   9.216  34.474   3.208
17738W        W89354   6.828  35.898  11.996
17739W        W89355  31.915  35.582  11.951
17740W        W89356  21.043  17.103  13.380
17741W        W89357  32.591  18.553   2.808
17742W        W89358  28.461  36.807  11.056
17743W        W89359   4.053  24.795  11.785
17744W        W89360  33.160  28.035  12.423
17745W        W89361  30.448  11.701   2.233
17746W        W89362  10.646  38.134  13.224
17747W        W89363  10.819  17.196   2.080
17748W        W89364  36.859  19.533   3.669
17749W        W89365  31.123   1.853   2.560
17750W        W89366   4.213  20.924   3.846
17751W        W89367  11.843   6.878  10.871
17752W        W89368   9.146  30.961   3.200
17753W        W89369   6.771  13.722   2.940
17754W        W89370   8.667   0.823   1.810
17755W        W89371  27.072  28.771   1.433
17756W        W89372  35.173   2.638   0.684
17757W        W89373   0.545  34.474  14.309
17758W        W89374  37.961  30.237   1.178
17759W        W89375  26.040  35.535   2.349
17760W        W89376  14.833  19.490   4.995
17761W        W89377  10.696  19.837  11.598
17762W        W89378   4.029   2.889  11.733
17763W        W89379  41.038  14.806   2.945
17764W        W89380  16.533   8.647   0.916
17765W        W89381   8.940  23.978  11.964
17766W        W89382  42.856  38.112  14.378
17767W        W89383   7.437  38.750  13.895
17768W        W89384  10.764  34.203  13.442
17769W        W89385   6.422  31.994  10.087
17770W        W89386  20.292  31.536   4.770
17771W        W89387   3.633  13.221   1.750
17772W        W89388  32.584  14.832  13.752
17773W        W89389  32.946  28.499   4.150
17774W        W89390  42.719   0.303   0.194
17775W        W89391  23.252   0.860  11.177
17776W        W89392  43.677  12.414  10.642
17777W        W89393  19.079  34.104   4.541
17778W        W89394  40.477   8.776   3.597
17779W        W89395   2.293  18.161  12.425
17780W        W89396  35.778  21.538   3.932
17781W        W89397  32.553  34.137   3.184
17782W        W89398   1.262   9.078   1.903
17783W        W89399  44.978  17.004   4.107
17784W        W89400  21.696  15.092  13.728
17785W        W89401   8.047  24.260  13.827
17786W        W89402  23.232  33.136   0.898
17787W        W89403   7.322   3.005  12.845
17788W        W89404  20.024  35.587   4.143
17789W        W89405  40.234  19.707  10.709
17790W        W89406   7.671   9.607  12.607
17791W        W89407  34.597  43.035   1.824
17792W        W89408  37.809  23.702  13.198
17793W        W89409  24.213  20.747   2.871
17794W        W89410  17.753  29.190   3.197
17795W        W89411   6.473  30.996   4.149
17796W        W89412  36.374  10.626  13.543
17797W        W89413   2.735  30.432   0.236
17798W        W89414   1.965  21.532  10.729
17799W        W89415  16.254  35.819  12.577
17800W        W89416  20.388   7.100   3.237
17801W        W89417  44.542  28.519   1.813
17802W        W89418  44.444  31.162  13.572
17803W        W89419  40.674  39.859  14.679
17804W        W89420  27.905  44.786   0.799
17805W        W89421  11.367  38.140  14.590
17806W        W89422  10.488  38.971   0.559
17807W        W89423   8.271   0.405   4.700
17808W        W89424  19.163  40.279  13.447
17809W        W89425  39.909  20.679  12.451
17810W        W89426  14.498  41.854   1.856
17811W        W89427  40.484  43.317   1.934
17812W        W89428   6.445  11.684   2.249
17813W        W89429  13.395  17.162   4.634
17814W        W89430   9.320  11.228  11.973
17815W        W89431  11.282   1.493  14.019
17816W        W89432  14.860  33.005  12.169
17817W        W89433  32.346  31.512  11.844
17818W        W89434  24.051  24.201  11.912
17819W        W89435   9.800  35.037   1.370
17820W        W89436  44.164  23.447  14.045
17821W        W89437  28.223  10.118   3.140
17822W        W89438  40.886  21.410  11.200
17823W        W89439  17.812  44.455  13.793
17824W        W89440   7.628   3.378   0.985
17825W        W89441  36.932  41.279  10.571
17826W        W89442   4.535   4.653  11.157
17827W        W89443   9.353   7.913   1.294
17828W        W89444   0.858  40.423   0.364
17829W        W89445   6.136  41.460   4.259
17830W        W89446  21.552  41.305   4.875
17831W        W89447  18.767  16.202   2.312
17832W        W89448  37.272  11.512  13.343
17833W        W89449  21.494  28.650   3.682
17834W        W89450  13.202  14.565  14.474
17835W        W89451  15.730  26.401  12.878
17836W        W89452   9.781   6.709  10.492
17837W        W89453  33.332  40.063  11.686
17838W        W89454  30.585  29.121   2.435
17839W        W89455  11.092   1.040  12.170
17840W        W89456  15.613  41.828  12.354
17841W        W89457  19.803  14.338   1.388
17842W        W89458  19.447  37.999  11.557
17843W        W89459   9.171   1.302   0.413
17844W        W89460  18.551  30.380   2.403
17845W        W89461   6.724  38.105  11.093
17846W        W89462  23.537  23.038   1.908
17847W        W89463  31.096  34.431  13.523
17848W        W89464   8.831  23.468  11.971
17849W        W89465  27.440  44.305   4.127
17850W        W89466  21.628  26.091   0.018
17851W        W89467  20.205  30.597   1.732
17852W        W89468  16.543  23.100  12.876
17853W        W89469  30.934  26.749   3.299
17854W        W89470  28.084  37.110   3.754
17855W        W89471  29.980   8.307  13.898
17856W        W89472  30.548  29.847   1.975
17857W        W89473  18.337   6.990  11.247
17858W        W89474  15.661  36.950   4.295
17859W        W89475  26.604  26.018   4.995
17860W        W89476  43.229   2.771   1.497
17861W        W89477  29.850  42.374  10.645
17862W        W89478  10.940  34.581  10.651
17863W        W89479  17.921  16.454   5.022
17864W        W89480  44.460  32.770   2.364
17865W        W89481  29.195  31.652   1.551
17866W        W89482  35.566  29.501  11.716
17867W        W89483   4.300  41.030  14.788
17868W        W89484  22.983  18.080  13.898
17869W        W89485  28.311  33.578   5.164
17870W        W89486  39.267   9.837   1.814
17871W        W89487  13.187  18.626   2.461
17872W        W89488   1.407  36.085  11.442
17873W        W89489  42.349  19.456   3.251
17874W        W89490  21.018  18.627  10.726
17875W        W89491  26.123  38.789   0.302
17876W        W89492  36.526  37.259  14.306
17877W        W89493  23.019  39.112   1.308
17878W        W89494  42.353  15.040   2.418
17879W        W89495   9.157  26.198  10.327
17880W        W89496  33.830  35.104   3.215
17881W        W89497  31.478  16.678  13.074
17882W        W89498  25.327   3.281   0.371
17883W        W89499  18.792  11.869   3.234
17884W        W89500   9.114  40.283  13.123
17885W        W89501  14.050  18.532   1.856
17886W        W89502  40.015  23.941  13.588
17887W        W89503  22.919   8.656   2.450
17888W        W89504   0.167   6.484  11.386
17889W        W89505   6.474   3.508  13.783
17890W        W89506   9.136  43.933   3.644
17891W        W89507  13.178  18.616   0.720
17892W        W89508  44.574   4.801  11.453
17893W        W89509  30.150  38.114   4.242
17894W        W89510  16.054  24.001  12.522
17895W        W89511  32.478  23.642  12.296
17896W        W89512  32.534  20.708   1.533
17897W        W89513   6.208  18.826  12.065
17898W        W89514  39.523  10.852  11.668
17899W        W89515  17.180  35.664  12.105
17900W        W89516  34.652  37.530  13.856
17901W        W89517  33.398  33.871  10.637
17902W        W89518   1.005   0.496   4.773
17903W        W89519  21.473   3.461   4.915
17904W        W89520  42.226  14.735  13.487
17905W        W89521  44.678  17.662   0.703
17906W        W89522  44.344  39.023  11.053
17907W        W89523  44.854   7.841  10.610
17908W        W89524  33.899  24.648  14.886
17909W        W89525  22.969  16.098  14.777
17910W        W89526  24.569   5.252  12.346
17911W        W89527  10.365   6.803   3.408
17912W        W89528  18.530   4.205  11.943
17913W        W89529  19.082  13.725  12.934
17914W        W89530  44.255  11.337  12.364
17915W        W89531  16.141   4.166   3.240
17916W        W89532  40.274   8.357  10.981
17917W        W89533   2.205  40.896  10.099
17918W        W89534  17.790  19.854  10.968
17919W        W89535   2.253  27.250   4.800
17920W        W89536  12.624  39.350   0.904
17921W        W89537  43.696   8.787  13.844
17922W        W89538  19.789  11.025  14.340
17923W        W89539  22.181   9.333   3.726
17924W        W89540  33.098  21.964  12.681
17925W        W89541   1.832  21.639  14.224
17926W        W89542  29.637   4.706  11.567
17927W        W89543  18.019  37.480  14.479
17928W        W89544  23.197  26.925  11.014
17929W        W89545   7.635   8.086  11.057
17930W        W89546  34.394  23.446   2.295
17931W        W89547  35.845  15.927   4.207
17932W        W89548   4.973  19.354  12.884
17933W        W89549  23.491   3.257  13.168
17934W        W89550  39.219  30.286   4.019
17935W        W89551  35.797  43.792  10.681
17936W        W89552  35.911   3.373   3.560
17937W        W89553  43.826  42.189  14.313
17938W        W89554  40.190  37.497   4.001
17939W        W89555  10.896  28.753  11.228
17940W        W89556  37.500  44.829   0.723
17941W        W89557  29.477  20.719  10.861
17942W        W89558  36.102  10.276   2.372
17943W        W89559  19.515  27.439  12.115
17944W        W89560  25.418   6.835   0.813
17945W        W89561  36.320  33.527   3.824
17946W        W89562   6.499  21.262   0.736
17947W        W89563  26.044   0.622  11.541
17948W        W89564  22.761  21.879   3.329
17949W        W89565  29.924  32.416  12.071
17950W        W89566   7.734  41.384  14.442
17951W        W89567  16.873   7.759   3.152
17952W        W89568  18.525  20.335   0.876
17953W        W89569   7.458   2.176   1.749
17954W        W89570  21.652  13.791  14.406
17955W        W89571  37.877  12.037   1.873
17956W        W89572  21.061  40.859  12.427
17957W        W89573  31.983   0.862   4.472
17958W        W89574  32.618   8.310   0.945
17959W        W89575  26.209  17.266  11.293
17960W        W89576  33.425  39.491   4.097
17961W        W89577  16.646   6.240  11.441
17962W        W89578  20.973   1.926  12.043
17963W        W89579  31.668  14.772  13.866
17964W        W89580  43.551  21.136   3.233
17965W        W89581  43.293   6.064  11.088
17966W        W89582  26.019   7.658   3.595
17967W        W89583  37.290  44.884  10.356
17968W        W89584  14.548  13.645  12.158
17969W        W89585  23.249  12.604   2.275
17970W        W89586  33.888  31.842  11.327
17971W        W89587  39.056  30.292  13.335
17972W        W89588  22.774  11.993   2.602
17973W        W89589  32.595  30.452   2.803
17974W        W89590   8.946   1.452   3.318
17975W        W89591  31.262  12.854  10.244
17976W        W89592  32.954  23.387  11.582
17977W        W89593  13.060  30.959  10.412
17978W        W89594  43.008   4.584   4.594
17979W        W89595  36.963  18.316   0.894
17980W        W89596  18.709   0.236  12.569
17981W        W89597  40.659   4.988  10.454
17982W        W89598  43.741   2.185  11.081
17983W        W89599  40.930  18.624   3.830
17984W        W89600  12.769  20.307  13.772
17985W        W89601  42.772  33.524  14.331
17986W        W89602  38.854  40.477  10.644
17987W        W89603  33.542  38.319   0.729
17988W        W89604  16.361  44.309   0.359
17989W        W89605  14.383  11.451   3.281
17990W        W89606  18.208  29.466   3.201
17991W        W89607  42.970  16.234  11.147
17992W        W89608  12.053  16.806  11.574
17993W        W89609   5.837  16.489   2.246
17994W        W89610   3.321  13.240   3.086
17995W        W89611   2.274  23.061   2.288
17996W        W89612  15.229  26.476  13.550
17997W        W89613  22.363  23.623  10.162
17998W        W89614  24.831  39.013   3.773
17999W        W89615  40.969  42.943   0.261
18000W        W89616  44.364  18.503  11.625
18001W        W89617  10.180  33.103   1.354
18002W        W89618  14.089   0.957   1.411
18003W        W89619  10.743  35.157  12.202
18004W        W89620  39.696  26.921  11.449
18005W        W89621  20.109  27.941   2.437
18006W        W89622  13.280  15.204  10.655
18007W        W89623  17.600  30.502  12.070
18008W        W89624  13.781  29.612  12.000
18009W        W89625   0.020   2.386  12.515
18010W        W89626  10.826  22.795   2.964
18011W        W89627  15.309  37.997   2.845
18012W        W89628  37.908  17.855   1.416
18013W        W89629  22.633   4.390   0.362
18014W        W89630  44.936  39.421  13.390
18015W        W89631  28.593   4.700   3.746
18016W        W89632  41.698  22.482  13.328
18017W        W89633  11.858  29.071  14.643
18018W        W89634  27.086  10.230  14.837
18019W        W89635   7.936   6.668  10.969
18020W        W89636  11.228  22.678   1.263
18021W        W89637   6.673  43.918   2.762
18022W        W89638  28.593  34.322  10.923
18023W        W89639  41.514  18.211   1.296
18024W        W89640  11.068  32.419  14.235
18025W        W89641   7.249  27.742   1.419
18026W        W89642  41.200  27.724   4.579
18027W        W89643  13.153   4.627  10.251
18028W        W89644  24.901  33.190   1.903
18029W        W89645  35.339  14.550   4.576
18030W        W89646  28.041  34.619  12.668
18031W        W89647  20.709  36.571   0.636
18032W        W89648   5.542  18.703  13.199
18033W        W89649  17.785  15.258  11.670
18034W        W89650  43.478   2.038  12.256
18035W        W89651  43.255  37.210  12.107
18036W        W89652  15.352  26.549  11.224
18037W        W89653  33.765   1.049   2.220
18038W        W89654  28.450   8.628  11.355
18039W        W89655  36.986  41.885  12.170
18040W        W89656  34.105  17.811   4.347
18041W        W89657  16.624  33.135  14.981
18042W        W89658  44.530  13.304  14.853
18043W        W89659  10.607  37.900   3.401
18044W        W89660  15.070   8.146   3.305
18045W        W89661   9.721  25.793  14.688
18046W        W89662  19.277  29.341  14.339
18047W        W89663  36.774  40.828  10.321
18048W        W89664  17.041  44.483   0.880
18049W        W89665  11.628  42.691   0.383
18050W        W89666  10.918  12.443  11.419
18051W        W89667  15.359  22.504   4.123
18052W        W89668  18.259  41.958   4.989
18053W        W89669  11.194  29.536   2.000
18054W        W89670   7.179  29.924  11.537
18055W        W89671  23.661  13.721  11.221
18056W        W89672  43.005  36.490   4.622
18057W        W89673  37.102  43.093  11.035
18058W        W89674   7.482  35.863   4.460
18059W        W89675  39.473  25.925  13.316
18060W        W89676  22.556  21.739   1.773
18061W        W89677  39.907  10.950   9.937
18062W        W89678   9.209  34.051   0.240
18063W        W89679  42.554  10.150   4.875
18064W        W89680  35.724   5.568  13.661
18065W        W89681   0.686  14.640   1.809
18066W        W89682   2.446  43.787  13.892
18067W        W89683   2.218  38.470  13.037
18068W        W89684  28.230   2.343   2.865
18069W        W89685   1.238   1.913   4.275
18070W        W89686  26.543  10.285  14.077
18071W        W89687  14.080  26.926   4.166
18072W        W89688  20.774  18.383   0.124
18073W        W89689  19.987  37.994  13.100
18074W        W89690  21.059   8.549  14.818
18075W        W89691   9.306  20.025   2.295
18076W        W89692  42.932  44.045  14.845
18077W        W89693  23.751  28.948   4.635
18078W        W89694  35.993   8.470   2.023
18079W        W89695  31.857  21.323  14.391
18080W        W89696  34.917  41.264   3.758
18081W        W89697  11.343  22.712   4.241
18082W        W89698  21.787  10.721   4.134
18083W        W89699  33.855  18.852   2.403
18084W        W89700  10.384  11.642  11.092
18085W        W89701  43.469  19.695   1.620
18086W        W89702  29.193  43.741  12.533
18087W        W89703  27.978  44.936   3.181
18088W        W89704  30.686  36.229   4.899
18089W        W89705   9.709   2.982  10.493
18090W        W89706  22.353  31.119  14.114
18091W        W89707  14.830   1.398   0.380
18092W        W89708  18.293  27.058   4.636
18093W        W89709  21.201  16.111   0.974
18094W        W89710  34.472   4.049  11.111
18095W        W89711  21.784  30.008   1.312
18096W        W89712  29.985  17.261   3.479
18097W        W89713  14.214  42.654   4.648
18098W        W89714  12.597  40.064  11.703
18099W        W89715  14.690   3.461   5.485
18100W        W89716  21.784   0.658   1.372
18101W        W89717  36.042   3.814   0.511
18102W        W89718  35.840  16.886   0.511
18103W        W89719  11.351   2.340  13.359
18104W        W89720   3.695   3.917  12.730
18105W        W89721  33.152   9.480   2.114
18106W        W89722  13.391  11.263  13.782
18107W        W89723  31.450  37.999  11.588
18108W        W89724  39.370  12.330   0.438
18109W        W89725  36.040   3.438   1.854
18110W        W89726  29.923  17.083  10.916
18111W        W89727  11.885  24.296  13.309
18112W        W89728  21.199  24.323  11.572
18113W        W89729  34.875  29.440  14.276
18114W        W89730  30.648  38.822   4.208
18115W        W89731   1.585  43.076   1.520
18116W        W89732  22.336  41.244   5.107
18117W        W89733  37.508   5.783   0.939
18118W        W89734  32.650  31.711   3.142
18119W        W89735   4.159  17.572   2.700
18120W        W89736  39.079  27.670  13.446
18121W        W89737  26.040  22.122   1.233
18122W        W89738   6.374   8.751  14.405
18123W        W89739  31.598  33.525   4.549
18124W        W89740  37.018  44.034  13.445
18125W        W89741  33.913  41.201  11.539
18126W        W89742  18.539  38.661  11.066
18127W        W89743  31.839  31.866   2.807
18128W        W89744  26.706  31.292  11.941
18129W        W89745  42.218  24.134  12.112
18130W        W89746  34.433  35.924  14.492
18131W        W89747  25.052  30.691  10.647
18132W        W89748  29.565   2.229  10.719
18133W        W89749  10.807   8.578  12.997
18134W        W89750  11.390   3.350   1.060
18135W        W89751  39.983   1.934  13.488
18136W        W89752  32.502  28.119   2.363
18137W        W89753   4.900  11.089   2.281
18138W        W89754  42.313  22.605  13.533
18139W        W89755  15.180  42.148  14.365
18140W        W89756  26.903  43.496  10.458
18141W        W89757  32.153  38.518   2.704
18142W        W89758  22.319   7.945   2.691
18143W        W89759   5.390  20.053  14.831
18144W        W89760  12.209  39.820  11.489
18145W        W89761  37.355  11.284   4.014
18146W        W89762  37.944  18.898  10.670
18147W        W89763  23.431  44.846  13.154
18148W        W89764  29.678  19.164   0.540
18149W        W89765  14.380  19.302  13.887
18150W        W89766   4.299   3.819  14.958
18151W        W89767  31.886  30.194   1.707
18152W        W89768   2.888  40.422   4.994
18153W        W89769  12.142  42.239  14.049
18154W        W89770  40.040  28.050  14.323
18155W        W89771  30.315  21.036   4.170
18156W        W89772  10.581  32.345  12.567
18157W        W89773  33.561  26.838   4.894
18158W        W89774  11.693  15.128  12.939
18159W        W89775  21.120  26.239  10.794
18160W        W89776  36.285  36.891   4.681
18161W        W89777  23.936  20.508  12.933
18162W        W89778  18.816   1.326   3.414
18163W        W89779  16.170  28.667   4.435
18164W        W89780  35.362  44.749   2.726
18165W        W89781   6.415  41.901  12.663
18166W        W89782  25.122  27.482  13.470
18167W        W89783  11.741  39.587  11.546
18168W        W89784   3.497  16.731   1.012
18169W        W89785   6.445  12.807  11.972
18170W        W89786  29.545  14.999  10.152
18171W        W89787  31.720  39.919   1.823
18172W        W89788  14.512   5.408  10.341
18173W        W89789  27.064  28.146   2.854
18174W        W89790   5.333   1.328   1.597
18175W        W89791  24.887  26.698  10.563
18176W        W89792   0.481  43.901   3.160
18177W        W89793  26.067   9.598  10.671
18178W        W89794  23.576  29.160   3.633
18179W        W89795  14.014  28.562   1.293
18180W        W89796  23.971  44.649   0.008
18181W        W89797  19.590  10.261  10.498
18182W        W89798  20.204   2.780   0.565
18183W        W89799  39.691  16.662   0.473
18184W        W89800  40.330  33.957  11.161
18185W        W89801   6.900  10.654   4.164
18186W        W89802  28.729  32.458  14.652
18187W        W89803  24.945  17.056  11.986
18188W        W89804  14.138  29.869   0.240
18189W        W89805  31.341  24.721   4.569
18190W        W89806  24.572  35.653   4.157
18191W        W89807  20.021   5.350   0.290
18192W        W89808  30.063   7.734   4.536
18193W        W89809  14.381   0.345   1.943
18194W        W89810  24.995  26.692   9.995
18195W        W89811   2.505   2.390  14.748
18196W        W89812  16.115   6.236   4.193
18197W        W89813   3.753  22.508   4.774
18198W        W89814  44.325  13.847   3.618
18199W        W89815   5.679  40.396   1.108
18200W        W89816  11.785  43.102   4.630
18201W        W89817   3.573   2.858  14.630
18202W        W89818  12.803  16.760  11.952
18203W        W89819   7.145  14.522  14.855
18204W        W89820  31.902   4.009   0.305
18205W        W89821  30.392   6.870  10.801
18206W        W89822  26.463  27.845  12.101
18207W        W89823  39.293  14.296  12.160
18208W        W89824  15.784   2.843  13.967
18209W        W89825  14.220  31.587   1.724
18210W        W89826  20.139  11.172   3.148
18211W        W89827   3.499  27.909   4.631
18212W        W89828  34.189  12.754  13.497
18213W        W89829  24.217  21.562   3.251
18214W        W89830  37.399  32.058   3.087
18215W        W89831   5.268   6.589   4.266
18216W        W89832  26.130  13.589  10.050
18217W        W89833   7.028  13.332  11.159
18218W        W89834  13.749  19.819   1.735
18219W        W89835  17.736  40.809   3.324
18220W        W89836  39.287  27.021  14.798
18221W        W89837  24.595  16.126   4.880
18222W        W89838  30.685  32.807  13.151
18223W        W89839  40.418   8.448  10.500
18224W        W89840  26.858  17.786   4.121
18225W        W89841   3.873  28.559  10.343
18226W        W89842  42.932  42.129   3.076
18227W        W89843  22.268  14.741  11.429
18228W        W89844  11.585  43.033  11.661
18229W        W89845  32.601  15.298   1.662
18230W        W89846  33.878   1.528   1.366
18231W        W89847  12.187  42.917   2.907
18232W        W89848  34.962  13.564  11.009
18233W        W89849  13.369  36.995   1.672
18234W        W89850  16.736  31.491  12.942
18235W        W89851   7.140   3.840  11.667
18236W        W89852  41.262  28.486   2.638
18237W        W89853  26.053  22.223   0.189
18238W        W89854  11.309  12.918  11.553
18239W        W89855  27.331  30.335   1.266
18240W        W89856   6.955   3.806  12.588
18241W        W89857  41.295  13.620   3.312
18242W        W89858   1.219   7.492   3.133
18243W        W89859  32.019  36.105  14.008
18244W        W89860  34.977   6.382   3.068
18245W        W89861  29.548  19.147  11.558
18246W        W89862   4.679   7.617   2.822
18247W        W89863   9.602  25.087   0.730
18248W        W89864  28.993  39.396   4.253
18249W        W89865   2.999  41.975   2.728
18250W        W89866  18.141  12.345   2.703
18251W        W89867   0.263  20.510   3.161
18252W        W89868   1.297  25.782   1.373
18253W        W89869  44.396  14.304  13.952
18254W        W89870  22.535  30.921   1.434
18255W        W89871  33.444  23.660   0.329
18256W        W89872  39.100  42.728   0.827
18257W        W89873  37.995  13.834  13.349
18258W        W89874   2.481  40.008  12.123
18259W        W89875  23.640  12.524  14.277
18260W        W89876  26.674  37.741  11.131
18261W        W89877  28.242  43.400  12.995
18262W        W89878  13.054  32.548  12.145
18263W        W89879  12.591  14.356   3.385
18264W        W89880  36.627   7.173  10.931
18265W        W89881  18.499  26.406   1.342
18266W        W89882  26.521  16.683   2.598
18267W        W89883  31.326  41.377   2.923
18268W        W89884  32.069  31.406  13.082
18269W        W89885   4.700  22.655   3.164
18270W        W89886   3.656  19.671   4.456
18271W        W89887  26.818  15.640   0.204
18272W        W89888   7.266   4.493  13.974
18273W        W89889  44.514  42.455   1.760
18274W        W89890  43.509  28.993   0.943
18275W        W89891   5.168  31.107   2.869
18276W        W89892   7.624   3.844   4.045
18277W        W89893  33.162   9.835  12.511
18278W        W89894  11.618  14.103  10.637
18279W        W89895  17.803  23.770   3.745
18280W        W89896  33.837  41.340  14.922
18281W        W89897  33.018  41.128   1.774
18282W        W89898  38.244  43.396  10.731
18283W        W89899   0.973  31.992  13.356
18284W        W89900  31.907  25.184  13.855
18285W        W89901  38.919  26.552   4.168
18286W        W89902   2.433  14.245  14.577
18287W        W89903  11.788  26.500   1.182
18288W        W89904  10.929  36.378  14.864
18289W        W89905  16.127   3.503   1.048
18290W        W89906  10.854  32.816  14.502
18291W        W89907  26.498  33.937  14.497
18292W        W89908  13.890  10.909  13.976
18293W        W89909  25.085  15.731   4.288
18294W        W89910  23.668  30.450   3.674
18295W        W89911   3.789  44.170   3.540
18296W        W89912   8.729  35.523  10.656
18297W        W89913  10.311   0.955  13.975
18298W        W89914  44.515  33.144  12.061
18299W        W89915  10.347   8.492  13.250
18300W        W89916  21.488  17.745   3.656
18301W        W89917  37.827  37.026  13.693
18302W        W89918  33.354  34.973   4.108
18303W        W89919  20.896   6.636   2.280
18304W        W89920  12.726  17.154   1.262
18305W        W89921   6.700  29.036  13.774
18306W        W89922  25.990  35.805  14.399
18307W        W89923  20.977  17.595   4.939
18308W        W89924  31.525  14.283   4.897
18309W        W89925  13.548   7.793   3.315
18310W        W89926   5.777  23.464   3.717
18311W        W89927  20.369  14.781   0.849
18312W        W89928  28.399  20.603  13.041
18313W        W89929  20.549  12.392   3.138
18314W        W89930  35.022  18.859  14.897
18315W        W89931  40.097  41.163  13.071
18316W        W89932  11.951  43.932   4.367
18317W        W89933   1.982  15.178   1.679
18318W        W89934  44.629   1.019  12.096
18319W        W89935   5.394   3.378  11.801
18320W        W89936   1.870   9.197   1.013
18321W        W89937  39.193   9.013  11.246
18322W        W89938  31.884  16.764  13.369
18323W        W89939  26.029  11.352  11.221
18324W        W89940  35.889  12.846   3.646
18325W        W89941   2.857  12.621   1.690
18326W        W89942   8.831  31.104   0.363
18327W        W89943   8.217   8.243  14.101
18328W        W89944  35.425   2.692  11.596
18329W        W89945  20.044  27.579  14.516
18330W        W89946   5.825  37.127  11.234
18331W        W89947  42.497  25.868  12.485
18332W        W89948   6.352  29.452   3.235
18333W        W89949  13.415  38.877  14.496
18334W        W89950  28.496  16.229   1.762
18335W        W89951  10.200   3.383   1.707
18336W        W89952  42.254  10.366  12.990
18337W        W89953  16.798  44.168   9.697
18338W        W89954  25.092   5.460  14.901
18339W        W89955  16.967   0.756  13.867
18340W        W89956  23.537  14.739   2.835
18341W        W89957  33.497  16.628  11.638
18342W        W89958  27.638  28.449   4.595
18343W        W89959  30.887  43.857   0.891
18344W        W89960   8.293  10.686  13.363
18345W        W89961   8.802  16.532   0.413
18346W        W89962  29.603  31.453  13.766
18347W        W89963  27.268  30.827   2.586
18348W        W89964  12.795  33.496   2.752
18349W        W89965  25.663  31.763  11.233
18350W        W89966  42.989  42.206  12.344
18351W        W89967   2.363  35.552  14.502
18352W        W89968  28.529  25.988   2.089
18353W        W89969   3.979  33.131   0.742
18354W        W89970  17.556  15.183   0.915
18355W        W89971  42.432  35.470   2.124
18356W        W89972  39.704  15.684   0.337
18357W        W89973  23.048  14.339  10.900
18358W        W89974  37.422  37.223  10.333
18359W        W89975  17.175  22.759   2.984
18360W        W89976   6.055  13.807  10.966
18361W        W89977  12.124  36.956   3.658
18362W        W89978  35.044  20.749   1.913
18363W        W89979  28.078   4.535  12.096
18364W        W89980  11.238  25.572   0.802
18365W        W89981   9.164   6.820  11.542
18366W        W89982  40.541  29.427   3.317
18367W        W89983  27.549  39.920  10.557
18368W        W89984   2.401   0.493   4.576
18369W        W89985   9.494   6.742   3.945
18370W        W89986  15.656   1.745  12.566
18371W        W89987  17.562  22.143   4.029
18372W        W89988   4.338   5.766  13.969
18373W        W89989  16.104  31.700   0.718
18374W        W89990  36.512  37.616   2.379
18375W        W89991  28.411  12.591  12.890
18376W        W89992  41.267  27.671   1.207
18377W        W89993  36.535  36.824   2.670
18378W        W89994  22.263  13.103   3.232
18379W        W89995   9.650  35.861   0.228
18380W        W89996  15.694  41.661   3.850
18381W        W89997  22.068   5.183  12.476
18382W        W89998  22.724  12.659  11.317
18383W        W89999  22.971  40.495  13.992
18384W        W90000  10.155  16.109   0.469
18385W        W90001  35.507   4.926  12.829
18386W        W90002  31.121   8.501  10.715
18387W        W90003  39.804  42.532  11.585
18388W        W90004  39.914  40.799  11.965
18389W        W90005   2.993  15.880   3.242
18390W        W90006  40.030   3.720   4.160
18391W        W90007  10.424  44.474  12.996
18392W        W90008  29.726  11.230   0.349
18393W        W90009   2.015  22.726   0.080
18394W        W90010   4.325  18.263   0.170
18395W        W90011  10.764  14.343   3.023
18396W        W90012  16.028   2.885  14.441
18397W        W90013  28.587  29.444   2.985
18398W        W90014   5.851  14.133   2.704
18399W        W90015  23.402  32.163  11.403
18400W        W90016  37.777  22.611   1.896
18401W        W90017  13.360  37.986  10.254
18402W        W90018  37.396  36.841   2.578
18403W        W90019  30.820   8.984  14.798
18404W        W90020   9.928  24.474   2.776
18405W        W90021  28.127  30.343  13.820
18406W        W90022   9.971   3.199  13.731
18407W        W90023  30.409  26.084  12.108
18408W        W90024   1.629  44.991  10.148
18409W        W90025   4.649   2.982   3.109
18410W        W90026  26.589  32.997  14.053
18411W        W90027  29.774  44.071  12.710
18412W        W90028   9.172  24.975  12.035
18413W        W90029  29.050  13.020  12.452
18414W        W90030  40.253  14.136  10.595
18415W        W90031  10.449  40.835   3.412
18416W        W90032  33.988   0.713   3.690
18417W        W90033  20.740  13.401  13.737
18418W        W90034  43.881   5.279  13.889
18419W        W90035  20.960  33.401   0.005
18420W        W90036  20.158  29.000   0.269
18421W        W90037  21.493  22.198  12.526
18422W        W90038  13.212  27.570  11.581
18423W        W90039  40.461  32.407  10.944
18424W        W90040  38.202  32.395   3.308
18425W        W90041  28.134  14.031  12.639
18426W        W90042  18.447  37.503  14.793
18427W        W90043  22.604  24.194  11.975
18428W        W90044  44.476  44.261  12.964
18429W        W90045  22.725   8.123  10.757
18430W        W90046  16.507  32.525   1.902
18431W        W90047  20.295  33.201  11.198
18432W        W90048   1.936  24.256  13.505
18433W        W90049   5.179  23.652  10.403
18434W        W90050  23.205   2.492   0.049
18435W        W90051  17.284  17.157  14.311
18436W        W90052  34.920  23.981   3.908
18437W        W90053  36.668  14.129  12.945
18438W        W90054  27.510  37.596   1.720
18439W        W90055   4.736  24.179   2.060
18440W        W90056  21.358  18.158   3.021
18441W        W90057  32.972  26.556   1.928
18442W        W90058   3.729  12.672  11.103
18443W        W90059  28.626  32.064   0.500
18444W        W90060  27.842  23.296  14.002
18445W        W90061  14.848  31.039   4.567
18446W        W90062  20.236  26.743   4.983
18447W        W90063  19.012  26.409   1.198
18448W        W90064   6.279  20.983   4.143
18449W        W90065  10.212   0.420  12.810
18450W        W90066  32.054  20.590   1.773
18451W        W90067  19.811  33.096  12.035
18452W        W90068  34.557  24.325  14.922
18453W        W90069  14.981   4.732  13.522
18454W        W90070  43.008  25.269   1.726
18455W        W90071  14.346  40.981   0.647
18456W        W90072  12.182  36.798  12.146
18457W        W90073   7.794   7.786   0.036
18458W        W90074  36.972  25.016  14.126
18459W        W90075   8.732  15.839   1.676
18460W        W90076  13.795  41.746   1.228
18461W        W90077   9.751   3.280  13.264
18462W        W90078  29.712  33.982  14.937
18463W        W90079   0.294   1.452   0.008
18464W        W90080  17.213  22.698  12.922
18465W        W90081  38.587  32.535  12.065
18466W        W90082  44.366  31.431   1.335
18467W        W90083  27.992  13.198  10.371
18468W        W90084  37.647  26.666   4.232
18469W        W90085   3.370   5.860   2.312
18470W        W90086  18.058   9.718   2.757
18471W        W90087   9.887  21.766   3.757
18472W        W90088   0.965  21.794   2.306
18473W        W90089  35.001  23.681   4.743
18474W        W90090  24.193   8.633  13.998
18475W        W90091  43.885  14.674  11.161
18476W        W90092  23.179  14.764  10.680
18477W        W90093   7.906   9.000   5.117
18478W        W90094  31.440  30.523   5.216
18479W        W90095   7.333  32.385   2.980
18480W        W90096  38.596  38.451  12.537
18481W        W90097  12.356  41.730   4.567
18482W        W90098  42.016  37.227  13.772
18483W        W90099   5.501  35.308  12.018
18484W        W90100   1.941  20.625  11.550
18485W        W90101  10.144  11.258   2.174
18486W        W90102  22.238  41.903   0.907
18487W        W90103   2.010  16.213   2.614
18488W        W90104  44.430   8.772  13.379
18489W        W90105  17.795  15.150  14.006
18490W        W90106  31.830  20.135   1.636
18491W        W90107  29.379  15.400   3.711
18492W        W90108   8.642   6.442   3.312
18493W        W90109  20.046  10.134  10.273
18494W        W90110   9.296  37.952  11.763
18495W        W90111   7.164   9.332   3.127
18496W        W90112  32.909  26.091  11.101
18497W        W90113  21.802  28.002  12.844
18498W        W90114   1.204  36.307  13.769
18499W        W90115  24.982   3.743  12.491
18500W        W90116  22.301  28.073   2.295
18501W        W90117   2.825  23.566   1.808
18502W        W90118  37.041   8.123   2.395
18503W        W90119  13.857  36.138   2.217
18504W        W90120  11.193   7.780   1.737
18505W        W90121  20.494   4.741   1.841
18506W        W90122  28.122  30.963   2.205
18507W        W90123   7.214  26.563   3.748
18508W        W90124   8.272  13.496   4.532
18509W        W90125  38.117  22.576  13.129
18510W        W90126  32.438   1.156   2.173
18511W        W90127  24.646   5.737   0.907
18512W        W90128  22.455  27.954   1.295
18513W        W90129  12.537  22.593  13.462
18514W        W90130  29.578  16.593  12.812
18515W        W90131  24.836  14.132  12.987
18516W        W90132  32.638  22.101  10.387
18517W        W90133  36.349  43.761  12.764
18518W        W90134   3.153  11.938   3.181
18519W        W90135  27.731  35.865  11.392
18520W        W90136  11.419   3.728   1.902
18521W        W90137  24.042  19.672   1.959
18522W        W90138   3.240  30.649   0.240
18523W        W90139  36.098   9.643   0.724
18524W        W90140  37.036  40.537   4.204
18525W        W90141  44.546  33.992   3.407
18526W        W90142  27.478  43.743   4.078
18527W        W90143  23.422  20.541   0.925
18528W        W90144  14.485   4.312   3.987
18529W        W90145  25.754   1.228   2.936
18530W        W90146  18.582  33.203   3.739
18531W        W90147   0.735   1.971  12.747
18532W        W90148  19.748  42.763  13.990
18533W        W90149   3.740   3.685   0.807
18534W        W90150  12.408  38.786  14.280
18535W        W90151  25.121  36.390   4.635
18536W        W90152   5.219  25.496   2.890
18537W        W90153  13.585   9.300   2.382
18538W        W90154  10.593  42.279   1.842
18539W        W90155   7.208  33.318   2.931
18540W        W90156  17.124  25.163   4.585
18541W        W90157   2.390  17.029   1.891
18542W        W90158  13.891  24.652   2.400
18543W        W90159  22.389  27.562   2.365
18544W        W90160  43.012  13.699  12.258
18545W        W90161  12.568  32.456  13.321
18546W        W90162  30.064  30.325   2.907
18547W        W90163  20.759  18.709   2.479
18548W        W90164  14.500  24.702  14.678
18549W        W90165   4.741   7.899   3.293
18550W        W90166  37.308   4.910   4.161
18551W        W90167  43.352  14.746  11.067
18552W        W90168  24.477  21.069   2.172
18553W        W90169  15.012  36.440   0.377
18554W        W90170  20.935   2.411  12.677
18555W        W90171  15.236  16.823   4.690
18556W        W90172  12.256   3.004   4.964
18557W        W90173   1.222  22.593   0.635
18558W        W90174   2.925  25.460  10.171
18559W        W90175  34.240  20.037  13.376
18560W        W90176  24.049  21.578  11.438
18561W        W90177  32.968  14.386   4.806
18562W        W90178  17.516  35.444   0.028
18563W        W90179  33.810   3.031  13.966
18564W        W90180  38.260   7.168  13.820
18565W        W90181  21.270  11.724  12.839
18566W        W90182  44.405  13.335  11.241
18567W        W90183   8.497  26.094  10.475
18568W        W90184  22.583  33.586  10.764
18569W        W90185   8.125  25.952  12.172
18570W        W90186  19.781  28.228   3.298
18571W        W90187   0.355  43.814  13.945
18572W        W90188  24.646  23.941   0.531
18573W        W90189  41.298  12.645  12.488
18574W        W90190  25.540  10.227   0.791
18575W        W90191   1.574  41.488   3.300
18576W        W90192   9.800  11.508   4.159
18577W        W90193  38.467  18.164  14.427
18578W        W90194  37.363  19.141   3.002
18579W        W90195  25.746  39.831   0.988
18580W        W90196  37.968  17.745  12.063
18581W        W90197  29.704  20.718  14.831
18582W        W90198  38.700  30.125   3.096
18583W        W90199   8.390   6.823  12.934
18584W        W90200   6.202  29.930  13.965
18585W        W90201   9.795  39.869  12.644
18586W        W90202  40.330  17.898   0.319
18587W        W90203  26.074  36.054  11.992
18588W        W90204  17.018  10.120   0.923
18589W        W90205  42.690  15.729  12.350
18590W        W90206  39.097   1.352   4.229
18591W        W90207  43.354  15.562  13.485
18592W        W90208  39.639  28.225   3.504
18593W        W90209   7.048  32.310   3.410
18594W        W90210  16.207  18.373   5.070
18595W        W90211  23.609  12.293   0.962
18596W        W90212  31.551  32.554   1.808
18597W        W90213   6.793  24.197   3.092
18598W        W90214  36.957  42.812  12.645
18599W        W90215  37.559   2.494  13.133
18600W        W90216  20.609  26.540  10.049
18601W        W90217  15.180  36.518  12.123
18602W        W90218  44.376  34.559  12.930
18603W        W90219  30.073  14.702  12.903
18604W        W90220  15.642  16.376   5.389
18605W        W90221  36.470  42.000  13.447
18606W        W90222  12.542  36.888   4.326
18607W        W90223   3.348  31.768   3.314
18608W        W90224  36.550  16.013   4.554
18609W        W90225  15.159  32.830   0.856
18610W        W90226  39.914   1.782   0.707
18611W        W90227   8.819  16.034   0.233
18612W        W90228  16.859  31.763   1.229
18613W        W90229  11.622   6.806   1.512
18614W        W90230  24.013  23.229   1.859
18615W        W90231   7.698  32.213  10.501
18616W        W90232  41.153  28.745   4.752
18617W        W90233   3.671  33.447  10.333
18618W        W90234  36.433  28.507  14.491
18619W        W90235   5.228  44.332   1.938
18620W        W90236   3.917  40.032   2.780
18621W        W90237  38.304  39.897  13.057
18622W        W90238  43.564  20.097   3.969
18623W        W90239  16.334  44.373  14.472
18624W        W90240  17.251  21.002   2.701
18625W        W90241   2.284  12.795  10.729
18626W        W90242  36.844   1.034   2.386
18627W        W90243  25.120  34.115   4.601
18628W        W90244  40.307  28.599   0.916
18629W        W90245  26.409  10.320  12.510
18630W        W90246  21.182   5.754  12.435
18631W        W90247  29.309   1.292   4.714
18632W        W90248   3.402  33.520   0.193
18633W        W90249  27.867  36.688   3.552
18634W        W90250   3.474  18.033  11.839
18635W        W90251  32.661  26.719   3.827
18636W        W90252   9.883  13.363  13.325
18637W        W90253  11.840  43.405   3.267
18638W        W90254   4.858   9.450  12.550
18639W        W90255  37.508  23.642  12.464
18640W        W90256   5.745  33.349  12.097
18641W        W90257  30.883   1.063  14.441
18642W        W90258  36.326  18.144  13.112
18643W        W90259  27.031  36.493   5.043
18644W        W90260   7.167  44.998  10.752
18645W        W90261   5.275   2.256   1.834
18646W        W90262  39.048  13.342   4.997
18647W        W90263   2.759   1.014   3.752
18648W        W90264  41.283   7.164  14.479
18649W        W90265  18.041  41.903  14.871
18650W        W90266  25.075   1.986   0.268
18651W        W90267   8.667  27.414  12.862
18652W        W90268   6.302  24.425  10.765
18653W        W90269  40.766  25.063   0.329
18654W        W90270  20.760   0.432  11.146
18655W        W90271  44.187   1.925  13.785
18656W        W90272  36.403  41.199  14.094
18657W        W90273  19.078  39.826   0.289
18658W        W90274   6.222  24.317   1.248
18659W        W90275  40.734  28.935   4.270
18660W        W90276  44.983  32.677   2.352
18661W        W90277   9.486  25.114   4.260
18662W        W90278  19.088  25.199   4.128
18663W        W90279  24.007   4.974  14.280
18664W        W90280  21.326   1.080  11.985
18665W        W90281  23.651  41.022  11.051
18666W        W90282  38.505  41.886  12.596
18667W        W90283  13.243  15.655   4.601
18668W        W90284   3.569  18.689   3.237
18669W        W90285  19.201  15.664  11.573
18670W        W90286  24.001  15.223   1.444
18671W        W90287  44.318  42.360   4.115
18672W        W90288   6.992   2.731   1.413
18673W        W90289  44.798  15.078   3.620
18674W        W90290  25.148  29.632   1.040
18675W        W90291  36.470  33.852   2.653
18676W        W90292  41.271  28.853  14.489
18677W        W90293   7.965  18.622  12.117
18678W        W90294   0.775   4.951  14.813
18679W        W90295  24.505  13.082  14.419
18680W        W90296  16.931  24.154  12.295
18681W        W90297  30.820   8.101   2.723
18682W        W90298   6.885  18.644   3.425
18683W        W90299  38.763   0.664   2.546
18684W        W90300  26.800  13.669   4.469
18685W        W90301  38.736   5.279  10.526
18686W        W90302  23.914   7.837   4.608
18687W        W90303  30.534   9.119   1.443
18688W        W90304  40.455  22.283  14.097
18689W        W90305  20.106  36.012  11.607
18690W        W90306  16.785  20.020   1.905
18691W        W90307   9.401  29.617  11.427
18692W        W90308  29.955   1.392   4.946
18693W        W90309  34.548   5.620   1.272
18694W        W90310  21.448   8.766  11.954
18695W        W90311  25.089  31.994   1.204
18696W        W90312  39.895  16.137   2.205
18697W        W90313   6.827   9.421   2.749
18698W        W90314  34.411  24.826   4.825
18699W        W90315  29.912   0.220   1.750
18700W        W90316  44.118   7.277   3.215
18701W        W90317  12.483   6.131   4.086
18702W        W90318  31.073  28.358  12.003
18703W        W90319  43.914  43.206   3.230
18704W        W90320  23.287   9.781   2.810
18705W        W90321   6.317  14.722  10.713
18706W        W90322  16.756  23.053   3.608
18707W        W90323   0.637   3.913  11.178
18708W        W90324  22.660  30.492  13.420
18709W        W90325  35.036  20.567   1.408
18710W        W90326  12.100   5.908  11.694
18711W        W90327  35.498  24.643   2.249
18712W        W90328   5.769  42.189  12.102
18713W        W90329   2.434  36.138  13.356
18714W        W90330  44.682  16.012  14.252
18715W        W90331   0.731  29.660  11.865
18716W        W90332  37.898  41.348  13.826
18717W        W90333  21.541   1.721   1.703
18718W        W90334  36.036  13.171  10.715
18719W        W90335  43.324  41.598   4.919
18720W        W90336  26.852  43.979  10.712
18721W        W90337  27.016  14.528   3.463
18722W        W90338  30.495  13.502  10.743
18723W        W90339  19.025  17.705  12.333
18724W        W90340  33.098  18.425   0.272
18725W        W90341   1.314  14.434  10.763
18726W        W90342  40.711  35.857   0.333
18727W        W90343  15.591  17.235  11.984
18728W        W90344  30.499  12.955  10.628
18729W        W90345  16.727  22.830   2.699
18730W        W90346  19.805  41.920   0.079
18731W        W90347  29.960  44.690   4.638
18732W        W90348  33.556  21.744   4.471
18733W        W90349  20.326   1.190   0.695
18734W        W90350  30.517  10.835  14.538
18735W        W90351  30.481   4.398   4.276
18736W        W90352  22.713  38.643   4.550
18737W        W90353  22.988  15.267   1.344
18738W        W90354  10.826  37.158   0.786
18739W        W90355  13.010   0.271  14.349
18740W        W90356  13.603  34.935   0.894
18741W        W90357   0.964  29.120   0.363
18742W        W90358   6.796  19.226   0.965
18743W        W90359  32.028  20.182   4.063
18744W        W90360   3.927  17.063   0.866
18745W        W90361  14.848   4.804   0.362
18746W        W90362  33.406  10.662   0.212
18747W        W90363  19.862  15.234  12.248
18748W        W90364  12.754  11.737   1.805
18749W        W90365  11.736  15.985  10.704
18750W        W90366   9.822  26.973   0.723
18751W        W90367  25.969   4.921   2.420
18752W        W90368  11.176   3.717   1.448
18753W        W90369  30.372  38.355  14.780
18754W        W90370   7.438  31.540   1.661
18755W        W90371  18.798  11.948   2.373
18756W        W90372   2.766   2.380   3.570
18757W        W90373  27.985  34.406  13.146
18758W        W90374  39.135  35.526   3.305
18759W        W90375  40.432  27.185   1.117
18760W        W90376   7.668   9.400   3.335
18761W        W90377  24.165   4.609   3.829
18762W        W90378  18.083   1.382   1.168
18763W        W90379  33.649  43.246  12.987
18764W        W90380  38.508  39.435  13.004
18765W        W90381  23.802  18.743   4.120
18766W        W90382   9.778  33.299  13.502
18767W        W90383   1.295   2.899   5.037
18768W        W90384  13.883   1.520  12.398
18769W        W90385   4.011  13.574  14.923
18770W        W90386  16.984  35.769   4.879
18771W        W90387  22.688  36.105  14.899
18772W        W90388  28.791  24.671   0.374
18773W        W90389  13.204  29.808   4.536
18774W        W90390  10.669  12.726   4.650
18775W        W90391   9.998  20.739   3.650
18776W        W90392   8.111  40.844  12.125
18777W        W90393  22.006  43.869   2.607
18778W        W90394  33.729  33.489   4.693
18779W        W90395  37.340  21.684  12.002
18780W        W90396  24.199  32.405   4.527
18781W        W90397  37.017  27.895   1.739
18782W        W90398   7.813  14.321   0.920
18783W        W90399  10.730  20.476  10.449
18784W        W90400  22.019  36.856   4.184
18785W        W90401  26.948  30.993  14.460
18786W        W90402  37.067  39.055  14.725
18787W        W90403  42.888  18.323   1.070
18788W        W90404   8.083  40.537   4.609
18789W        W90405  24.037  29.988  14.872
18790W        W90406   7.829  34.387   0.350
18791W        W90407  26.923  19.868  14.309
18792W        W90408  15.331   0.875  10.703
18793W        W90409   7.389  25.006   0.787
18794W        W90410  42.823  44.350  10.409
18795W        W90411  38.795  19.608  11.106
18796W        W90412  19.732  18.791  11.962
18797W        W90413  31.950   9.482   0.865
18798W        W90414  31.412  10.823  12.093
18799W        W90415   3.003  17.366  10.728
18800W        W90416  28.690   5.850   4.316
18801W        W90417  16.297   3.637   4.155
18802W        W90418  43.486  20.473  13.866
18803W        W90419  42.421  32.957   2.459
18804W        W90420  43.253   7.640  11.173
18805W        W90421  13.738  44.014  14.900
18806W        W90422  36.518  42.926  13.385
18807W        W90423  35.578  35.180   2.512
18808W        W90424  12.283  14.718  12.100
18809W        W90425  27.483   7.483   0.270
18810W        W90426  19.853  29.548  11.604
18811W        W90427  10.640  10.219  10.203
18812W        W90428   3.241  42.604  12.624
18813W        W90429   4.833  39.070  11.153
18814W        W90430   4.385  11.850   2.395
18815W        W90431  13.895  41.753   0.104
18816W        W90432   4.522  24.675  11.582
18817W        W90433  38.836  28.557  13.337
18818W        W90434   2.946  39.975  13.024
18819W        W90435  14.588  14.173  14.715
18820W        W90436  36.407  42.837   4.616
18821W        W90437  30.273   9.418  13.302
18822W        W90438  18.730  20.668  13.598
18823W        W90439  25.536  19.826   4.534
18824W        W90440  15.650  31.577  11.168
18825W        W90441  32.651  25.151  12.848
18826W        W90442  37.339  11.193  12.938
18827W        W90443  18.709  25.705   1.997
18828W        W90444   3.849  34.033   2.882
18829W        W90445   3.999   3.415  14.850
18830W        W90446  27.225   4.310  12.508
18831W        W90447  32.221  33.961   1.386
18832W        W90448   4.833   6.480   9.849
18833W        W90449  31.374  13.237  12.427
18834W        W90450  18.003  25.455  11.934
18835W        W90451   7.582  20.313   1.904
18836W        W90452  41.016  37.181   2.772
18837W        W90453  42.563  33.312  10.259
18838W        W90454  22.305  12.729  11.613
18839W        W90455   7.844   4.540   0.179
18840W        W90456  10.876  18.321  14.336
18841W        W90457  15.266  11.081  12.398
18842W        W90458  22.298  16.682   2.665
18843W        W90459  42.598  21.076   0.721
18844W        W90460   2.642  43.924  14.347
18845W        W90461   9.302  28.535  10.511
18846W        W90462   8.165  19.585   1.264
18847W        W90463  12.682  23.018   4.212
18848W        W90464  25.490  30.979  14.357
18849W        W90465  17.290  21.998   2.999
18850W        W90466  22.956  32.576   1.435
18851W        W90467  31.941  41.070  13.000
18852W        W90468  30.006   4.112   1.267
18853W        W90469  42.885  11.323  10.629
18854W        W90470  26.185  15.669  14.381
18855W        W90471  34.156  15.007  11.870
18856W        W90472  23.617  42.374   2.424
18857W        W90473   9.431   4.441  11.544
18858W        W90474   1.207   1.774   1.418
18859W        W90475  29.753  36.801  10.667
18860W        W90476   0.351  39.040  13.007
18861W        W90477  29.513  39.363  12.644
18862W        W90478  23.789  29.366  13.034
18863W        W90479  29.855  30.524   3.391
18864W        W90480  35.783  36.540   2.738
18865W        W90481  16.865  10.347   1.389
18866W        W90482   6.211  19.618   2.382
18867W        W90483   8.011  17.486   1.262
18868W        W90484  33.746  30.586   0.652
18869W        W90485   5.962  13.266  13.664
18870W        W90486  22.561  34.996  10.598
18871W        W90487  29.678  14.190  14.249
18872W        W90488  16.185   9.416  10.629
18873W        W90489   1.324  26.576   2.851
18874W        W90490  14.028   5.356   0.234
18875W        W90491  11.827  21.840   3.216
18876W        W90492  41.279  40.460  14.430
18877W        W90493  23.287  41.105   2.743
18878W        W90494   2.677  15.251  12.917
18879W        W90495   4.443  38.476  11.572
18880W        W90496  23.671  18.299   1.839
18881W        W90497  25.763  42.828   1.876
18882W        W90498  25.630  11.099   4.766
18883W        W90499  20.178  20.099  12.977
18884W        W90500  35.135  26.457  14.409
18885W        W90501  38.548  21.650   4.203
18886W        W90502  16.727   5.266   2.098
18887W        W90503  37.203  16.643  12.956
18888W        W90504  37.794   1.903  14.125
18889W        W90505  42.514  11.221   0.568
18890W        W90506  38.632  11.253  13.257
18891W        W90507  34.878  25.026  14.283
18892W        W90508  26.578  20.723   2.430
18893W        W90509  22.093  40.408   4.649
18894W        W90510  25.713  28.541  14.565
18895W        W90511  35.095  30.310   2.794
18896W        W90512  32.695   1.233  13.948
18897W        W90513   9.429  36.102  12.573
18898W        W90514  39.360  28.500  10.363
18899W        W90515  44.739  35.949  10.727
18900W        W90516  12.330  32.871   2.644
18901W        W90517   6.280   6.742   0.831
18902W        W90518  10.345   6.224  12.068
18903W        W90519  35.097   0.834   1.690
18904W        W90520  22.713   4.357  12.464
18905W        W90521  37.973  42.325   1.898
18906W        W90522   4.149   8.143   0.211
18907W        W90523  38.267   9.530   2.864
18908W        W90524   2.722  13.144   0.382
18909W        W90525  25.736  39.616  14.202
18910W        W90526  35.563  38.271  14.003
18911W        W90527   5.407  36.274   3.814
18912W        W90528  31.309  12.145  14.481
18913W        W90529   4.860  31.056  13.379
18914W        W90530   6.722  26.005  14.009
18915W        W90531  29.017  12.171   0.800
18916W        W90532  10.837  33.344  11.683
18917W        W90533  26.554  33.462  14.295
18918W        W90534   4.280   5.701   1.902
18919W        W90535  20.869  43.406  12.468
18920W        W90536  38.830  25.346  13.405
18921W        W90537  27.445  32.131   2.320
18922W        W90538   6.192  44.952  11.119
18923W        W90539  28.684  19.279  14.953
18924W        W90540  22.387  42.419  14.131
18925W        W90541  26.184  34.574   2.239
18926W        W90542  37.490  28.353   3.709
18927W        W90543   9.253   2.222   0.823
18928W        W90544   2.791  21.709   1.502
18929W        W90545  41.935  16.810   3.242
18930W        W90546  26.685   6.817  10.720
18931W        W90547  42.297  21.258   2.759
18932W        W90548  18.591  13.556   2.786
18933W        W90549  23.104  21.673   2.900
18934W        W90550  38.338  28.046  11.357
18935W        W90551  34.589   2.792   0.047
18936W        W90552   2.345   3.467   3.258
18937W        W90553  44.324  40.827   2.013
18938W        W90554  41.747  21.734   1.434
18939W        W90555  26.068  26.969   0.436
18940W        W90556  38.488  10.129  12.161
18941W        W90557  20.356  19.589   1.799
18942W        W90558  35.578   9.364   3.876
18943W        W90559  43.218  34.950   0.439
18944W        W90560  44.399  40.258  12.477
18945W        W90561  30.051  43.328  13.611
18946W        W90562  35.103  22.765  11.994
18947W        W90563   4.213  38.941   4.835
18948W        W90564  23.390  20.947   3.967
18949W        W90565   7.177  35.445   4.276
18950W        W90566   5.724  17.847   1.559
18951W        W90567   6.924  41.288  11.570
18952W        W90568  33.876  26.020  13.879
18953W        W90569  35.472  18.274   1.461
18954W        W90570  24.848  12.580  11.712
18955W        W90571   5.275  34.407  11.321
18956W        W90572  30.903   2.377  14.454
18957W        W90573  38.114  11.660  12.048
18958W        W90574  44.043   3.208  14.135
18959W        W90575  15.862   3.939  12.326
18960W        W90576  33.403  37.619  11.116
18961W        W90577  43.710  42.873   4.583
18962W        W90578   9.001  36.841   3.372
18963W        W90579  37.436  39.613   4.117
18964W        W90580  35.626   4.859  11.846
18965W        W90581  11.346  39.856  14.636
18966W        W90582  29.065  41.798   0.720
18967W        W90583  16.208   0.923  11.870
18968W        W90584  16.099  16.654  11.660
18969W        W90585  36.075  25.994  11.674
18970W        W90586   8.741  14.087  11.005
18971W        W90587   5.204  39.810   3.637
18972W        W90588   9.393  43.720   1.383
18973W        W90589  44.347  25.963   4.582
18974W        W90590  19.704  25.643  12.752
18975W        W90591  27.553  37.085   0.994
18976W        W90592  36.964   0.745   3.637
18977W        W90593  20.092  27.031   1.396
18978W        W90594  23.591   5.007   2.226
18979W        W90595  29.560   7.852   0.318
18980W        W90596   4.945  28.656   2.794
18981W        W90597  40.534   8.706   1.351
18982W        W90598   6.977  10.908  12.031
18983W        W90599  11.268   6.804   3.319
18984W        W90600  11.382  10.800  13.898
18985W        W90601   1.039  23.154  12.357
18986W        W90602  42.925   7.834   3.648
18987W        W90603  40.351  17.758   1.667
18988W        W90604  14.606  31.587  14.854
18989W        W90605  24.826  40.434   1.328
18990W        W90606  18.569  39.018  13.822
18991W        W90607  16.596  40.815  13.465
18992W        W90608   6.846  24.239   4.668
18993W        W90609  17.745  34.933  10.742
18994W        W90610  26.062  18.972   0.685
18995W        W90611  44.819  35.702   9.836
18996W        W90612  41.474  12.517   4.241
18997W        W90613  11.256   8.302  11.466
18998W        W90614  21.656  44.321   2.917
18999W        W90615  26.935  13.928   3.089
19000W        W90616  22.764  36.953  14.364
19001W        W90617  43.301  34.119  14.837
19002W        W90618  36.065  17.510  12.498
19003W        W90619  27.260  26.668  13.434
19004W        W90620  27.621  43.813  11.332
19005W        W90621  44.971  13.684   2.038
19006W        W90622   8.248   0.402   3.678
19007W        W90623   3.918   8.297   1.271
19008W        W90624   0.306  22.541   0.460
19009W        W90625  34.254  26.588  10.588
19010W        W90626  11.291   0.463   1.656
19011W        W90627  22.465  38.899  10.955
19012W        W90628  43.379   6.783   0.908
19013W        W90629  15.051  38.066  12.589
19014W        W90630  23.212  14.100   0.814
19015W        W90631  18.481   3.925   4.434
19016W        W90632  29.486  16.476   0.803
19017W        W90633  20.769  23.722  12.318
19018W        W90634  24.679   3.275  14.452
19019W        W90635  14.592  41.722   3.709
19020W        W90636  16.352  44.419  13.330
19021W        W90637  43.903  44.465   2.841
19022W        W90638   0.467  12.444   2.456
19023W        W90639  19.666   9.183  10.636
19024W        W90640  37.022  23.823   3.164
19025W        W90641   8.188  40.284  13.437
19026W        W90642  30.986  22.129   3.714
19027W        W90643  15.121  28.175  14.249
19028W        W90644  41.517  12.859   4.621
19029W        W90645  13.227   2.715   1.319
19030W        W90646   3.376  13.548   0.862
19031W        W90647  26.976   3.391  12.954
19032W        W90648   3.195  26.569   0.819
19033W        W90649   8.521  21.916   1.488
19034W        W90650   1.005   0.459  12.183
19035W        W90651  12.324  38.381   2.383
19036W        W90652   0.330  44.840   2.737
19037W        W90653  27.070  33.864   1.716
19038W        W90654  12.736  43.326   1.413
19039W        W90655  10.956   9.284  11.100
19040W        W90656  43.007   5.607   4.629
19041W        W90657  44.949  35.186   0.859
19042W        W90658  16.838   0.218   2.824
19043W        W90659  15.861  17.113  11.553
19044W        W90660  41.781   0.731  10.235
19045W        W90661  14.075   8.406   4.179
19046W        W90662  35.843  22.573   0.916
19047W        W90663   4.250  44.212   3.303
19048W        W90664   2.400   7.341   4.503
19049W        W90665  20.658  16.634  14.925
19050W        W90666  19.674  40.889  14.866
19051W        W90667   3.686  19.360   0.872
19052W        W90668  30.467  14.005  10.510
19053W        W90669   9.888  10.638  14.026
19054W        W90670  33.216  34.353  10.529
19055W        W90671  11.637  28.691   3.241
19056W        W90672  15.344  37.021  14.500
19057W        W90673  29.556  37.084  12.102
19058W        W90674  16.313  40.355  14.951
19059W        W90675  13.513  25.557   1.965
19060W        W90676  25.131  10.727   3.387
19061W        W90677  19.452  12.674  11.114
19062W        W90678   1.849  15.080  12.502
19063W        W90679  12.594   5.252   4.023
19064W        W90680  34.040  21.807   1.418
19065W        W90681  36.325  37.691  14.938
19066W        W90682  33.588   1.290  14.789
19067W        W90683  35.765   6.015   0.926
19068W        W90684  37.275   0.881   3.241
19069W        W90685  36.151  13.443  11.514
19070W        W90686   2.728  30.648   1.706
19071W        W90687  17.802  29.553  12.561
19072W        W90688  20.160  12.853  12.539
19073W        W90689  11.120  22.448  10.630
19074W        W90690  30.555  26.964   0.234
19075W        W90691  17.782  24.535  14.289
19076W        W90692  11.129  22.487   0.333
19077W        W90693  43.075  11.849  12.528
19078W        W90694   7.158  28.374   3.316
19079W        W90695  10.374  29.707   2.310
19080W        W90696  32.507  14.737   0.907
19081W        W90697  16.117   8.857   1.724
19082W        W90698   1.648   9.912  13.064
19083W        W90699  34.307  11.438  10.561
19084W        W90700   5.217   0.880  11.301
19085W        W90701  34.804  17.773   3.250
19086W        W90702  31.459   0.400   4.957
19087W        W90703  14.560  23.950  14.455
19088W        W90704   3.973  43.417   4.901
19089W        W90705  40.119  19.533   0.012
19090W        W90706   9.568  29.107  14.333
19091W        W90707  14.613  19.256  13.425
19092W        W90708  14.166   1.589  11.139
19093W        W90709   2.421  28.521  13.351
19094W        W90710  38.857  17.667  12.514
19095W        W90711   2.150   0.678  12.869
19096W        W90712   7.587  27.981   4.694
19097W        W90713  43.582  28.751   4.164
19098W        W90714  21.656   8.903  11.166
19099W        W90715   6.804   4.810   1.258
19100W        W90716   3.853  26.255  10.664
19101W        W90717  26.652  26.548   0.906
19102W        W90718  35.547  21.017   1.820
19103W        W90719  16.649  16.285  12.085
19104W        W90720  25.691   8.146  14.368
19105W        W90721  12.091   4.442   1.695
19106W        W90722   8.765  23.246  12.449
19107W        W90723   4.861  31.181   1.313
19108W        W90724  43.886  14.746   1.458
19109W        W90725  33.390  22.430  12.000
19110W        W90726   9.252  12.839   4.833
19111W        W90727  26.984  36.796   4.366
19112W        W90728  17.694  25.169  11.472
19113W        W90729  28.266  44.478  13.365
19114W        W90730   2.774  42.555   4.999
19115W        W90731  12.755  23.082  14.337
19116W        W90732  22.115   6.949  13.948
19117W        W90733  10.211  23.275  12.549
19118W        W90734   8.967  37.827   4.007
19119W        W90735  32.175   9.247   2.205
19120W        W90736  41.758  33.572   1.857
19121W        W90737  18.616  20.388  10.470
19122W        W90738  44.007   7.669   4.148
19123W        W90739  27.627  35.927   2.923
19124W        W90740  38.802   7.882  13.549
19125W        W90741  19.715  29.613  13.405
19126W        W90742  37.089  19.808   0.684
19127W        W90743   5.535  41.331   2.260
19128W        W90744  24.618  37.507  11.639
19129W        W90745   2.376  40.226  13.967
19130W        W90746  29.595  21.664  11.047
19131W        W90747  29.506   8.116   2.847
19132W        W90748  26.435   3.160  13.498
19133W        W90749   6.470  41.510  12.346
19134W        W90750  33.689  21.621  11.106
19135W        W90751  38.434  31.425  13.499
19136W        W90752   2.152  11.675   3.276
19137W        W90753  19.139  19.103   4.035
19138W        W90754  14.691   6.793  10.495
19139W        W90755  43.834   2.258   4.180
19140W        W90756   5.677  32.341  14.871
19141W        W90757  35.164  12.168   4.716
19142W        W90758  42.707  14.239   4.412
19143W        W90759  10.240  17.039  13.522
19144W        W90760   7.799  32.682   2.254
19145W        W90761  28.120   7.003   5.102
19146W        W90762  43.691  19.904  13.146
19147W        W90763  22.712   1.468   0.769
19148W        W90764  44.424  41.989   1.459
19149W        W90765  21.083  31.486  13.114
19150W        W90766  35.925  35.642  11.707
19151W        W90767  11.667  23.218   1.883
19152W        W90768  37.533   7.861   3.175
19153W        W90769  33.888  19.158  12.919
19154W        W90770  15.350  15.808   9.663
19155W        W90771  44.801  29.316  10.913
19156W        W90772  30.569  21.165   4.614
19157W        W90773   2.463  14.458  12.155
19158W        W90774  11.084  41.305   3.380
19159W        W90775  44.255  21.781   4.176
19160W        W90776  20.180  20.058  14.808
19161W        W90777  16.638   5.043   1.555
19162W        W90778  28.939  27.320   4.712
19163W        W90779   9.192  13.560  11.738
19164W        W90780   8.814  24.849  13.978
19165W        W90781   1.321  12.675   2.394
19166W        W90782  10.452  26.618  10.410
19167W        W90783  34.470   0.313   0.436
19168W        W90784  30.945  14.864  12.126
19169W        W90785  12.782   3.356  10.663
19170W        W90786  21.204  12.667  10.278
19171W        W90787   8.143  34.907   1.795
19172W        W90788  22.505   2.776  14.049
19173W        W90789  10.397  41.451   4.574
19174W        W90790  28.526  26.692  14.368
19175W        W90791   4.493  11.646  12.936
19176W        W90792  40.976  28.066  13.322
19177W        W90793  21.774  23.010   3.200
19178W        W90794  36.049  33.105  12.751
19179W        W90795  30.453  42.246   1.351
19180W        W90796  44.175  38.397  11.303
19181W        W90797   3.967  27.704   3.570
19182W        W90798   9.379  40.748  13.000
19183W        W90799  16.766   0.951   2.728
19184W        W90800   2.031   2.258  12.545
19185W        W90801  34.727   1.209  13.411
19186W        W90802  40.025  25.758  12.925
19187W        W90803  27.080  31.611   1.007
19188W        W90804  31.272  10.264   4.210
19189W        W90805  40.469  20.686   2.142
19190W        W90806  26.833  17.596  12.620
19191W        W90807  19.965   2.224  12.501
19192W        W90808  30.707  15.239   3.494
19193W        W90809  12.360  11.180   3.894
19194W        W90810  20.819  13.322  12.033
19195W        W90811  22.249  19.107  11.561
19196W        W90812   7.304  13.637  10.552
19197W        W90813  14.658  34.609   0.327
19198W        W90814   0.952  12.340  13.600
19199W        W90815  42.788  29.883  13.237
19200W        W90816  15.162   1.328  14.025
19201W        W90817  38.464  28.391   4.750
19202W        W90818  30.544  14.209  13.995
19203W        W90819  30.087  25.997   4.134
19204W        W90820  23.315  44.673  14.010
19205W        W90821   1.776  32.588  12.007
19206W        W90822   1.172  36.147  12.470
19207W        W90823  43.915  15.857   4.408
19208W        W90824  16.181  42.917   2.953
19209W        W90825  44.350  38.525  10.664
19210W        W90826  16.392   0.300   4.705
19211W        W90827  27.035  37.839  14.437
19212W        W90828  10.692  19.174   4.809
19213W        W90829  21.894   5.051  14.543
19214W        W90830  11.588  15.625  13.165
19215W        W90831  30.945   0.472   2.689
19216W        W90832  26.157   2.930  14.730
19217W        W90833  32.052  32.672  11.740
19218W        W90834   3.007  37.242  14.291
19219W        W90835   0.141  32.113  10.320
19220W        W90836  40.084  28.724  12.025
19221W        W90837   0.641  25.342   0.218
19222W        W90838  26.970  44.830   1.875
19223W        W90839  31.071  14.155   0.283
19224W        W90840  39.395  10.553   0.147
19225W        W90841  20.246  22.989   1.276
19226W        W90842  18.640  12.889   2.235
19227W        W90843   6.596  21.556   2.887
19228W        W90844  43.326   7.240   5.068
19229W        W90845  12.553   3.068   1.782
19230W        W90846  13.985  39.319  11.898
19231W        W90847   1.780  21.968   2.617
19232W        W90848  20.596   7.404   3.626
19233W        W90849   9.832  36.071   1.421
19234W        W90850   4.595  25.698   3.154
19235W        W90851  35.115   9.309   4.115
19236W        W90852   8.941   0.060   3.168
19237W        W90853  42.448  13.547  12.397
19238W        W90854   2.950  32.914  12.460
19239W        W90855  41.018  29.473   0.269
19240W        W90856  17.752  39.570   0.451
19241W        W90857   4.385  23.082   1.363
19242W        W90858   2.852  31.604   2.953
19243W        W90859   6.886  21.598  10.630
19244W        W90860  19.710  30.350   1.371
19245W        W90861  39.569  41.053  10.807
19246W        W90862   6.713  37.623  11.218
19247W        W90863  25.119  44.343   1.349
19248W        W90864  34.560  13.053   2.836
19249W        W90865   9.536  10.391   3.362
19250W        W90866  12.271   4.405  10.125
19251W        W90867   6.391  29.195  12.460
19252W        W90868  15.086  25.740  11.144
19253W        W90869  16.387  39.360  14.554
19254W        W90870  31.413  44.269  12.542
19255W        W90871   8.684  19.030   4.936
19256W        W90872  11.927   1.867  12.834
19257W        W90873  20.306  26.592   0.446
19258W        W90874  25.964  10.337  11.139
19259W        W90875  26.684  15.637  11.554
19260W        W90876  17.202  18.740   2.093
19261W        W90877  28.105   3.703   1.963
19262W        W90878   7.546  28.627   0.314
19263W        W90879  26.160  14.033   3.181
19264W        W90880  10.323  16.357  11.611
19265W        W90881  29.883  29.175  12.555
19266W        W90882  27.430   5.127  11.631
19267W        W90883   4.157  15.700  14.770
19268W        W90884  17.965  12.907   1.643
19269W        W90885   7.669   5.790  14.061
19270W        W90886  19.222  44.180  12.898
19271W        W90887  33.572  43.420   3.305
19272W        W90888  39.957  40.549   4.390
19273W        W90889  40.105  24.411   2.164
19274W        W90890   9.984  24.142  12.986
19275W        W90891  32.598   9.971   1.674
19276W        W90892  19.865  36.011  11.141
19277W        W90893  40.587  12.729  11.963
19278W        W90894  32.429  39.386  14.851
19279W        W90895  39.198  14.718   1.321
19280W        W90896  13.365  23.578   0.177
19281W        W90897  10.953  23.068  13.454
19282W        W90898  33.003  44.513   3.596
19283W        W90899  19.598  41.024   4.554
19284W        W90900  30.476   1.449  14.468
19285W        W90901  17.284  17.007   4.650
19286W        W90902  31.939  30.502   3.327
19287W        W90903  36.692  17.298  13.603
19288W        W90904  19.676   5.123  12.990
19289W        W90905  15.374  15.117  14.444
19290W        W90906   1.771   2.685   4.309
19291W        W90907  32.667  32.591   0.340
19292W        W90908  18.182   1.165   0.711
19293W        W90909  43.825  37.500   3.163
19294W        W90910  17.878  17.627   4.177
19295W        W90911  40.996   0.106  11.116
19296W        W90912   7.869  36.069  13.969
19297W        W90913  17.654  30.385   4.855
19298W        W90914  30.404   6.905   0.496
19299W        W90915  40.385  34.831  12.908
19300W        W90916  36.724  21.706   2.319
19301W        W90917   0.502  22.090   2.232
19302W        W90918  28.610  37.118   1.461
19303W        W90919  14.516  11.241   0.472
19304W        W90920  42.610   3.198  10.528
19305W        W90921  39.020  37.867   2.164
19306W        W90922  23.175  39.417  11.396
19307W        W90923  14.528  22.540  13.455
19308W        W90924   3.424  24.439   0.440
19309W        W90925  27.495  22.458   2.436
19310W        W90926  11.107  24.725   1.446
19311W        W90927   6.899  14.860   0.935
19312W        W90928  27.723  28.874   0.018
19313W        W90929  10.695  34.345  11.490
19314W        W90930  20.566  37.332  11.152
19315W        W90931  29.684   3.423   3.711
19316W        W90932  18.211  31.418  13.512
19317W        W90933  41.896  16.095   4.515
19318W        W90934   0.749  30.581   3.685
19319W        W90935  37.745  14.860   4.150
19320W        W90936  32.749  32.182  12.919
19321W        W90937  10.702  33.030  13.128
19322W        W90938   1.365  15.618  12.124
19323W        W90939  39.702  40.298   2.408
19324W        W90940  17.555  37.975  14.763
19325W        W90941  15.000   0.203  12.523
19326W        W90942  41.355  20.696  13.437
19327W        W90943  20.019  28.025  10.788
19328W        W90944  21.259  19.308   3.698
19329W        W90945  32.186  26.590  11.961
19330W        W90946  41.507  25.753  14.531
19331W        W90947  15.233   5.166   4.148
19332W        W90948  18.793   6.824   3.738
19333W        W90949   4.306   6.385  10.531
19334W        W90950  17.078   8.392   2.966
19335W        W90951   3.098  34.818  12.909
19336W        W90952  43.585   8.246   1.133
19337W        W90953  11.280  32.051  13.926
19338W        W90954  16.817  42.445   4.285
19339W        W90955  29.483  14.102   4.151
19340W        W90956   1.040  39.852  10.448
19341W        W90957  27.120  27.863   3.835
19342W        W90958   2.243  31.864  13.009
19343W        W90959  21.623  14.085  11.896
19344W        W90960  22.100  29.677   2.200
19345W        W90961  39.317   4.782   0.078
19346W        W90962  14.850  11.901  12.455
19347W        W90963   6.351  34.124  14.739
19348W        W90964  44.361  19.796  14.707
19349W        W90965  20.734  40.356   3.420
19350W        W90966   4.899  33.113  14.582
19351W        W90967  35.625  27.741  14.718
19352W        W90968  27.657  34.004  12.999
19353W        W90969  32.987  13.467   1.263
19354W        W90970  33.867  13.249  11.656
19355W        W90971  31.442  14.217   1.079
19356W        W90972  36.463   4.197  14.767
19357W        W90973  36.521   8.344   3.216
19358W        W90974  38.631  22.528  11.927
19359W        W90975  19.068  31.975   3.560
19360W        W90976  12.088  36.597   4.198
19361W        W90977  21.454  33.437   2.629
19362W        W90978  42.348  29.173   4.090
19363W        W90979  35.460  35.954   3.039
19364W        W90980  17.628   2.703   0.457
19365W        W90981   1.066   0.908   0.900
19366W        W90982   8.092  20.085   0.841
19367W        W90983   3.733  26.574  14.529
19368W        W90984  14.606  35.922   2.831
19369W        W90985  13.559  34.790  14.003
19370W        W90986   0.188   5.654  14.761
19371W        W90987  13.679  10.012   3.167
19372W        W90988  19.111  10.604   3.048
19373W        W90989   8.569  18.045  12.494
19374W        W90990   7.154   1.267  10.719
19375W        W90991  44.192  16.037  14.395
19376W        W90992  39.459  36.068   0.707
19377W        W90993  22.204  29.701  12.361
19378W        W90994  37.402   5.699   0.440
19379W        W90995  44.014   0.456   1.206
19380W        W90996   3.275  28.612  11.152
19381W        W90997   0.398   3.620  12.907
19382W        W90998  11.113   5.424  13.048
19383W        W90999  27.284  44.934   4.854
19384W        W91000  10.243  40.389  10.398
19385W        W91001  36.059  10.343   4.697
19386W        W91002   7.398  29.538  12.842
19387W        W91003  39.031  27.907  10.295
19388W        W91004  11.054  22.543  14.240
19389W        W91005  32.386  40.550   3.704
19390W        W91006  13.169  16.772  12.349
19391W        W91007  41.336  40.616  11.160
19392W        W91008   9.400  10.269   2.646
19393W        W91009   6.415  26.604   5.048
19394W        W91010   6.910   8.181  10.699
19395W        W91011  14.643  28.117   4.578
19396W        W91012  40.277   7.786  11.678
19397W        W91013  10.823   1.705   3.792
19398W        W91014  42.761  31.934   3.215
19399W        W91015  25.687  27.651  13.499
19400W        W91016  25.494   3.743  12.495
19401W        W91017  11.495   8.864  10.079
19402W        W91018  43.358  14.991   4.257
19403W        W91019  21.217   8.148   2.308
19404W        W91020  36.399  37.121  13.298
19405W        W91021  22.094  37.601   3.760
19406W        W91022  36.893  16.270   3.793
19407W        W91023   7.954  19.018  14.556
19408W        W91024   6.223  39.113  14.284
19409W        W91025   1.974   4.153   4.075
19410W        W91026  12.729   2.780   2.512
19411W        W91027  16.704  19.552   2.142
19412W        W91028   7.204  43.935  12.441
19413W        W91029  26.633   8.607   3.163
19414W        W91030   8.412  27.294   4.033
19415W        W91031  21.585   7.130   0.749
19416W        W91032  20.670  40.289  13.489
19417W        W91033  32.559  30.907  11.214
19418W        W91034  19.777  11.187   4.516
19419W        W91035  43.040  14.305  10.594
19420W        W91036   2.768  19.185   0.202
19421W        W91037   5.283  43.117   3.184
19422W        W91038  17.419  37.254   3.610
19423W        W91039  16.798  41.983   2.601
19424W        W91040  43.143  13.424  11.025
19425W        W91041  12.808   8.770  14.775
19426W        W91042   1.806  23.068   4.536
19427W        W91043  23.105  24.001  14.215
19428W        W91044  41.334  27.947   2.332
19429W        W91045  41.887   9.766  13.445
19430W        W91046  27.494   4.219  13.949
19431W        W91047  12.801  30.486   4.139
19432W        W91048   4.341   3.170   2.748
19433W        W91049  37.329   1.715  14.236
19434W        W91050  38.333  33.924   0.830
19435W        W91051  30.041   9.265  14.276
19436W        W91052   0.591  43.889  14.415
19437W        W91053  26.513  28.063   4.583
19438W        W91054  39.940  44.103   2.862
19439W        W91055  22.822  16.546   4.547
19440W        W91056  18.042  13.719   2.315
19441W        W91057   4.179   7.216   0.214
19442W        W91058  12.879  12.564   1.483
19443W        W91059  17.243  20.989   4.952
19444W        W91060  23.177   8.782  14.381
19445W        W91061  18.995   6.896   3.268
19446W        W91062   4.399   1.486   3.671
19447W        W91063  42.485  42.852  13.951
19448W        W91064   8.768   3.244   4.673
19449W        W91065  28.312  26.139  13.995
19450W        W91066   7.589  32.409   3.419
19451W        W91067  33.515  39.870   4.788
19452W        W91068  11.821  21.475   2.356
19453W        W91069  39.865  32.543  14.535
19454W        W91070  26.416   5.941  13.976
19455W        W91071  14.052  20.748  13.330
19456W        W91072   4.129  19.108   0.707
19457W        W91073  17.125  34.612  12.926
19458W        W91074  37.336  23.619  13.420
19459W        W91075  12.132  16.621   0.235
19460W        W91076  12.604  37.927   0.877
19461W        W91077   0.433  21.760   2.612
19462W        W91078  37.861  14.081  11.954
19463W        W91079  23.596  21.896  12.122
19464W        W91080  32.737  13.805  11.196
19465W        W91081  29.947   3.696   2.468
19466W        W91082  17.699  42.255   3.792
19467W        W91083  28.102  19.467  10.293
19468W        W91084  35.424  19.727   1.400
19469W        W91085  14.839  11.673  12.932
19470W        W91086  23.130   1.684  13.412
19471W        W91087   5.291  20.132  11.489
19472W        W91088  32.034  13.321  11.975
19473W        W91089  41.074  29.858   2.894
19474W        W91090  27.719  27.153   1.289
19475W        W91091  32.663   4.772  11.114
19476W        W91092   7.733   4.212   4.832
19477W        W91093  40.592   5.222  11.666
19478W        W91094  30.504  12.919  14.356
19479W        W91095  36.080  17.301  10.596
19480W        W91096  17.491   6.408   0.401
19481W        W91097  27.206  30.114   1.701
19482W        W91098  25.715   9.199   4.275
19483W        W91099   1.190  11.600  11.519
19484W        W91100  32.815  17.839  13.549
19485W        W91101  12.702   5.798   3.308
19486W        W91102   6.156   1.329  13.917
19487W        W91103  42.414  13.656  10.626
19488W        W91104  18.481  19.218   2.209
19489W        W91105  35.490  43.508  10.352
19490W        W91106  13.563  33.372   2.415
19491W        W91107   2.422   8.248  12.573
19492W        W91108  17.100  11.796   0.398
19493W        W91109  24.574  13.575  14.272
19494W        W91110  43.279  31.930   3.074
19495W        W91111  10.769  28.949   4.101
19496W        W91112   5.328  11.718   2.840
19497W        W91113  10.674  15.112   4.343
19498W        W91114  35.570  38.359   3.293
19499W        W91115  34.989  44.424   1.526
19500W        W91116   9.104  43.466  10.612
19501W        W91117  38.095  20.649  14.963
19502W        W91118  24.278  35.098  11.046
19503W        W91119  39.746  34.126   4.633
19504W        W91120  19.361  34.761   2.620
19505W        W91121  39.445  26.489   0.856
19506W        W91122   5.112  35.385  12.950
19507W        W91123  18.687   0.969   4.596
19508W        W91124  38.457  19.054   0.883
19509W        W91125   2.238  38.642  12.145
19510W        W91126  16.398  16.666   9.991
19511W        W91127  23.944  36.152  14.376
19512W        W91128   8.151  13.167   0.609
19513W        W91129  34.729   0.000  14.873
19514W        W91130  39.873  40.284  13.215
19515W        W91131  44.798  39.241   0.437
19516W        W91132  22.411  40.753  11.910
19517W        W91133  42.771   1.555  14.763
19518W        W91134  41.499  19.225  13.294
19519W        W91135  44.329  18.120   1.535
19520W        W91136  37.617  43.040   4.238
19521W        W91137  26.617  29.679  11.137
19522W        W91138  40.075  39.942  14.005
19523W        W91139  19.643  25.031   2.070
19524W        W91140  38.347  17.779   3.126
19525W        W91141  32.866  41.887  12.036
19526W        W91142  19.099  43.768   9.768
19527W        W91143  31.561  23.852   4.988
19528W        W91144   7.453   9.773   4.899
19529W        W91145  35.659  29.956  10.816
19530W        W91146  44.424  17.057   1.292
19531W        W91147   5.709  24.471  13.110
19532W        W91148   2.779  33.893   2.869
19533W        W91149  26.568   9.740   3.421
19534W        W91150  32.578   9.760   4.218
19535W        W91151  35.151  29.558  13.810
19536W        W91152  16.247   9.568  13.502
19537W        W91153  10.787  42.798   4.657
19538W        W91154  24.848  21.126  12.102
19539W        W91155   6.312  32.622  12.681
19540W        W91156  40.609  30.634   1.866
19541W        W91157  41.101  30.529  11.724
19542W        W91158  36.751   3.777   3.073
19543W        W91159  29.530  39.312   4.317
19544W        W91160   1.294   0.513   0.426
19545W        W91161   3.838   0.202   2.845
19546W        W91162  12.609  37.452  14.462
19547W        W91163  17.290  30.988  14.885
19548W        W91164   1.070   6.755  11.609
19549W        W91165  29.319  26.052  13.923
19550W        W91166  42.526   1.769  14.357
19551W        W91167  34.063  15.177   1.780
19552W        W91168  25.089  27.152  11.611
19553W        W91169  35.111  26.944   4.894
19554W        W91170  30.229  12.030  13.539
19555W        W91171  11.276  40.279   0.299
19556W        W91172   3.014  11.157   2.403
19557W        W91173  12.284  38.364   0.878
19558W        W91174  42.997   0.869   2.768
19559W        W91175  24.732  26.150  14.426
19560W        W91176  27.909  12.465   3.132
19561W        W91177  12.560  21.645   2.668
19562W        W91178  32.447  15.357  14.655
19563W        W91179  32.561   8.398  13.057
19564W        W91180  21.503  20.693   2.704
19565W        W91181  10.129   6.289  10.541
19566W        W91182  17.563  14.583  10.614
19567W        W91183  13.802  44.413  13.096
19568W        W91184  34.568   8.020   0.505
19569W        W91185  37.038   1.782   3.646
19570W        W91186  16.340   6.768   2.617
19571W        W91187  21.721  15.797   4.254
19572W        W91188  28.580  25.629  14.555
19573W        W91189  18.671  42.878  14.750
19574W        W91190  41.857  29.970   1.507
19575W        W91191   9.656  18.026   3.244
19576W        W91192  37.328   6.811  12.558
19577W        W91193  39.528  23.565  10.716
19578W        W91194   8.812   6.355  14.612
19579W        W91195  20.739  44.995   1.442
19580W        W91196   4.878  41.603  10.160
19581W        W91197  11.385   7.504   4.158
19582W        W91198  36.809  24.499   2.669
19583W        W91199  25.780   8.312   4.232
19584W        W91200   2.811  31.029   4.659
19585W        W91201  19.550  23.683  10.533
19586W        W91202  43.369  41.406  14.352
19587W        W91203  21.437  11.085   0.655
19588W        W91204   7.747  30.620   3.293
19589W        W91205  29.995  44.259  14.999
19590W        W91206  34.975  28.738   1.315
19591W        W91207  17.160   7.815  13.320
19592W        W91208  41.217  24.045  11.117
19593W        W91209  38.776  10.134  14.447
19594W        W91210   3.433  33.425  11.680
19595W        W91211  15.082   5.912   3.671
19596W        W91212  29.881  31.787   2.825
19597W        W91213  26.131   0.053   3.564
19598W        W91214  36.927  40.880   1.307
19599W        W91215  26.681  39.884   0.670
19600W        W91216  22.824   9.753   1.207
19601W        W91217   6.043   1.714   2.727
19602W        W91218  27.706   9.101  12.057
19603W        W91219  25.628   6.413   1.299
19604W        W91220  37.982  14.264   2.167
19605W        W91221   6.970  33.346   3.618
19606W        W91222   1.265  13.642  11.517
19607W        W91223  12.205  19.659   3.158
19608W        W91224  22.852   3.908   2.885
19609W        W91225  42.503   4.781  13.799
19610W        W91226  16.584  32.436   2.427
19611W        W91227  31.018  30.994  10.371
19612W        W91228  10.166  42.232  10.881
19613W        W91229   3.805  27.104  12.107
19614W        W91230  19.885  34.429   3.702
19615W        W91231  32.629  13.549  12.594
19616W        W91232  41.438  28.258  13.359
19617W        W91233  29.952  44.094   0.506
19618W        W91234   4.871  37.079   3.796
19619W        W91235  17.576  20.643   4.271
19620W        W91236  39.105  29.553  14.065
19621W        W91237  44.894  38.733   3.676
19622W        W91238   8.678  15.664   2.788
19623W        W91239  30.657  13.595  12.307
19624W        W91240  43.505  24.062   4.813
19625W        W91241  42.994  37.612  14.383
19626W        W91242  17.038  26.571  14.312
19627W        W91243  17.828  31.002  11.144
19628W        W91244  21.550   4.916  14.028
19629W        W91245  19.399  39.599   2.942
19630W        W91246  25.949  36.503  12.932
19631W        W91247   7.962  23.223  12.916
19632W        W91248  33.572   1.188  11.126
19633W        W91249  12.875  17.726   0.019
19634W        W91250  42.831  16.125  14.110
19635W        W91251  37.969  40.849   0.745
19636W        W91252   9.350   6.115  12.016
19637W        W91253  20.097  41.805  12.877
19638W        W91254  23.242   2.058  12.542
19639W        W91255   4.362  38.631   3.712
19640W        W91256   1.633  36.357  12.866
19641W        W91257  31.827  14.156  12.502
19642W        W91258  37.070   6.217  13.291
19643W        W91259   3.541  32.613  13.262
19644W        W91260  25.165  39.637  12.512
19645W        W91261   3.182  34.854  13.765
19646W        W91262  22.235   8.107   0.243
19647W        W91263  10.543  44.540   0.229
19648W        W91264   2.996  19.117  11.108
19649W        W91265   2.965   2.482   2.309
19650W        W91266  22.527  24.902   4.277
19651W        W91267  40.972  24.071  12.151
19652W        W91268   5.310  40.804  14.000
19653W        W91269  29.390  33.187  13.346
19654W        W91270  17.269  31.872  11.152
19655W        W91271   7.548  36.410  11.148
19656W        W91272  17.557  32.390   2.363
19657W        W91273  35.496   1.641  13.146
19658W        W91274  28.966  10.654  11.988
19659W        W91275  44.249   8.632  10.644
19660W        W91276   0.809  17.752  12.966
19661W        W91277   6.990  44.281  11.136
19662W        W91278  30.844  13.547  13.598
19663W        W91279   4.326  13.762   4.109
19664W        W91280  19.337  32.501  11.028
19665W        W91281  38.923  19.050  14.256
19666W        W91282  21.003  41.636  11.949
19667W        W91283  34.443  22.341  13.363
19668W        W91284   3.726  11.320   2.616
19669W        W91285  27.517  32.201   4.750
19670W        W91286  34.847   3.387   1.182
19671W        W91287  33.840   3.725   4.790
19672W        W91288  14.927   1.413   2.318
19673W        W91289  23.177  39.611  14.651
19674W        W91290  21.068  15.090   4.067
19675W        W91291  26.768  20.024  14.803
19676W        W91292  40.755   4.620   0.066
19677W        W91293   8.671  25.613  10.744
19678W        W91294   6.382   2.710   2.477
19679W        W91295  30.385   3.896   0.981
19680W        W91296  23.351  18.784  13.944
19681W        W91297  10.758  26.194  13.040
19682W        W91298  30.152  34.619  13.483
19683W        W91299  18.064   0.415  13.876
19684W        W91300  35.109  28.130  12.418
19685W        W91301  29.786  39.290  13.076
19686W        W91302  44.320  19.660   2.167
19687W        W91303  20.599  15.178   3.847
19688W        W91304  30.692  32.303   3.744
19689W        W91305  11.895  31.960   2.866
19690W        W91306  15.230  14.048   3.265
19691W        W91307  13.858  12.509   2.446
19692W        W91308   5.428  17.611  12.707
19693W        W91309  44.817  15.785  10.093
19694W        W91310  16.821  38.383  11.573
19695W        W91311  27.906  13.720   2.847
19696W        W91312  35.525   2.889  14.852
19697W        W91313   9.668  33.034   3.173
19698W        W91314  31.028  18.768  10.698
19699W        W91315  44.977  17.811   2.675
19700W        W91316  15.499  24.451  11.453
19701W        W91317  14.831  31.975   4.628
19702W        W91318  16.160   5.172  12.066
19703W        W91319  42.473  39.180  13.795
19704W        W91320   5.332  44.483   0.377
19705W        W91321  34.894  19.531  11.111
19706W        W91322  38.524  42.926  11.563
19707W        W91323  31.148  11.107   5.184
19708W        W91324  28.048  20.737  10.241
19709W        W91325  41.039   8.417   0.365
19710W        W91326  21.467  30.426   0.321
19711W        W91327  26.909  13.215   4.763
19712W        W91328   3.700  14.663   1.847
19713W        W91329  18.849  15.363  10.757
19714W        W91330  32.181  12.959   3.674
19715W        W91331   7.500   5.518   4.115
19716W        W91332  36.530  39.700  14.896
19717W        W91333  32.159  32.521   0.205
19718W        W91334  19.340  30.648  11.010
19719W        W91335  25.583  36.520  13.303
19720W        W91336  14.242  42.061   2.268
19721W        W91337  18.179  13.625  13.979
19722W        W91338  44.611  12.621   2.706
19723W        W91339  43.875  12.688   0.325
19724W        W91340  18.145  19.615  10.665
19725W        W91341  20.224   0.965   0.244
19726W        W91342  32.252  43.335   1.162
19727W        W91343  37.467   6.973  13.569
19728W        W91344  33.144  43.455   3.662
19729W        W91345  10.723  12.378  14.928
19730W        W91346  15.987  21.623  13.462
19731W        W91347  21.545  33.096   2.202
19732W        W91348  16.078   5.247  14.549
19733W        W91349  40.544  26.918   0.190
19734W        W91350  26.369  17.619   4.050
19735W        W91351  24.143  24.627   3.216
19736W        W91352   8.288  10.113  10.640
19737W        W91353   9.854  31.697  10.773
19738W        W91354  26.621  26.106   2.239
19739W        W91355  20.930  44.342   2.326
19740W        W91356  38.118   5.381  14.240
19741W        W91357  27.873  18.982  11.097
19742W        W91358  19.771  41.283  11.159
19743W        W91359  42.417  37.323   2.449
19744W        W91360  26.258  32.985   2.243
19745W        W91361  29.176  20.094  13.000
19746W        W91362  14.188  27.658   4.449
19747W        W91363   0.396  27.145  13.626
19748W        W91364  34.350  29.775   1.245
19749W        W91365  24.522  29.001  14.068
19750W        W91366   8.485   2.449   1.327
19751W        W91367   9.085  35.985   0.363
19752W        W91368  24.980  31.108  14.395
19753W        W91369   0.311  18.877   2.281
19754W        W91370  24.255  28.679  11.912
19755W        W91371  32.653  25.947   1.310
19756W        W91372  42.605   8.765  12.910
19757W        W91373  29.465  24.427   2.567
19758W        W91374  27.129  19.105  10.636
19759W        W91375  13.725  33.474   1.411
19760W        W91376  27.009   4.469  14.983
19761W        W91377  32.322  35.434  12.609
19762W        W91378  30.084  23.654   0.423
19763W        W91379  11.196  29.104   3.837
19764W        W91380   6.853  12.292  12.599
19765W        W91381  25.093  21.569   3.132
19766W        W91382  10.547   7.757   0.875
19767W        W91383  42.928  17.275   3.309
19768W        W91384   3.815  17.070  14.967
19769W        W91385  42.976  18.929   5.076
19770W        W91386   9.400  21.146  13.389
19771W        W91387  44.293  14.661  13.566
19772W        W91388  30.923   7.193  14.475
19773W        W91389  24.030  37.904  13.104
19774W        W91390  40.983  33.565   4.507
19775W        W91391   9.171  16.813   2.649
19776W        W91392  35.535  12.219  14.278
19777W        W91393  22.332  44.816  12.570
19778W        W91394  21.713  33.409   3.105
19779W        W91395   4.690  20.317  14.277
19780W        W91396  22.441  23.003   3.677
19781W        W91397  22.571  19.786  10.743
19782W        W91398  39.339  12.854   1.378
19783W        W91399  33.943  20.761   2.625
19784W        W91400   8.127  41.535  13.938
19785W        W91401  10.159  11.196  13.560
19786W        W91402  29.413  29.663  12.573
19787W        W91403  20.058  23.264  10.628
19788W        W91404  44.463  32.494   0.244
19789W        W91405   1.199  21.266  13.965
19790W        W91406   5.676  27.492  12.583
19791W        W91407  38.402  25.410  12.513
19792W        W91408  14.358   9.366  14.825
19793W        W91409  14.573  16.637  11.496
19794W        W91410  40.896  12.166  13.539
19795W        W91411   0.386  20.161   4.496
19796W        W91412  31.117  31.417  12.597
19797W        W91413  36.333   9.114  13.249
19798W        W91414  20.101  37.436  14.296
19799W        W91415  12.590   5.035  13.087
19800W        W91416  44.749  26.638  14.284
19801W        W91417   9.818  12.646  12.081
19802W        W91418  27.931   8.942  11.614
19803W        W91419  25.517   8.201  11.897
19804W        W91420  27.158  12.151   5.010
19805W        W91421  39.866  23.016  11.296
19806W        W91422   5.149  32.846  10.193
19807W        W91423  17.806  43.012   0.376
19808W        W91424  42.071  41.394  14.911
19809W        W91425  20.591  43.974   4.372
19810W        W91426  43.475  10.469   0.354
19811W        W91427  17.313   0.418   0.512
19812W        W91428  29.704   3.958   3.803
19813W        W91429  39.589  25.169  11.252
19814W        W91430  20.386  42.898   2.870
19815W        W91431  17.193  10.217   4.499
19816W        W91432  23.873  26.717   1.409
19817W        W91433  11.511  41.435  13.114
19818W        W91434  22.493  20.687   4.525
19819W        W91435  41.946  31.611   0.852
19820W        W91436  36.936  40.330  13.599
19821W        W91437  40.571  31.361  11.079
19822W        W91438  18.048  19.115   3.333
19823W        W91439  30.661  44.770   5.223
19824W        W91440   1.481  19.932   3.664
19825W        W91441  24.729   8.159   4.610
19826W        W91442  44.888   8.635   0.958
19827W        W91443  37.847  43.936   1.898
19828W        W91444  44.343  10.783   1.470
19829W        W91445  10.699  13.595   1.345
19830W        W91446   6.493  30.525   3.195
19831W        W91447  36.078  33.453  11.242
19832W        W91448  39.964   9.574   4.073
19833W        W91449  44.361   3.172  12.443
19834W        W91450  36.858  20.191  13.785
19835W        W91451  26.673  32.249   3.765
19836W        W91452  39.106  27.362   4.126
19837W        W91453   4.922  19.594   1.817
19838W        W91454  39.843  41.300  13.528
19839W        W91455  41.871   2.768  13.374
19840W        W91456  28.153   4.659  14.776
19841W        W91457  13.205  35.317   0.852
19842W        W91458  18.034   7.048   2.891
19843W        W91459  38.987  20.770  14.794
19844W        W91460  24.779  26.585  12.202
19845W        W91461   7.672  17.135  13.010
19846W        W91462  37.221  43.017  14.030
19847W        W91463   6.802  11.364   4.177
19848W        W91464  21.311  32.738  13.776
19849W        W91465   6.322  22.004  13.107
19850W        W91466  29.937  20.547  14.397
19851W        W91467  43.291  41.481   0.649
19852W        W91468  31.999   2.943  11.566
19853W        W91469   9.374  27.215  11.591
19854W        W91470  22.597  40.093  12.474
19855W        W91471  32.555   8.805   4.693
19856W        W91472  30.133   9.719  11.515
19857W        W91473  36.072   5.905   4.066
19858W        W91474  16.272  43.392   3.172
19859W        W91475   4.851  43.618  11.976
19860W        W91476  10.257  19.219   4.047
19861W        W91477  21.283   9.168   1.619
19862W        W91478  44.308  35.281   9.639
19863W        W91479  14.102  31.578   4.600
19864W        W91480  26.418  40.506   4.729
19865W        W91481  17.714  12.561  10.749
19866W        W91482  15.304  14.797  12.457
19867W        W91483  34.071  39.464  12.137
19868W        W91484  18.838  19.479   4.216
19869W        W91485  41.025  31.490  13.846
19870W        W91486   9.203  41.450  13.723
19871W        W91487  38.943  17.292  10.686
19872W        W91488   6.351  27.331   4.337
19873W        W91489  26.904  25.607  12.162
19874W        W91490  36.416  28.203   2.827
19875W        W91491  31.025  44.189   2.953
19876W        W91492   9.196  16.899  11.070
19877W        W91493   5.120  11.497   0.886
19878W        W91494  34.571  24.683   0.295
19879W        W91495  25.982  31.183  11.598
19880W        W91496   3.051   9.795   2.780
19881W        W91497  26.555  40.407  14.808
19882W        W91498  16.177  24.737   3.328
19883W        W91499   0.361  35.142   4.705
19884W        W91500   3.365  10.147   0.733
19885W        W91501   0.522  22.971  10.635
19886W        W91502  33.429  23.711  13.729
19887W        W91503  13.468  18.231  12.177
19888W        W91504  16.604  13.189   2.861
19889W        W91505  38.011   8.171  10.610
19890W        W91506  11.583  31.116   4.765
19891W        W91507  13.362  43.303   4.577
19892W        W91508  24.016  40.503  10.547
19893W        W91509  32.333  41.756   3.088
19894W        W91510  22.460   0.083   3.697
19895W        W91511  39.099   6.851  12.578
19896W        W91512  23.462  28.244  14.838
19897W        W91513   9.953  14.315   2.208
19898W        W91514  14.329  17.054  13.292
19899W        W91515  37.608  35.509  14.423
19900W        W91516  30.683  16.665   4.260
19901W        W91517  23.010  10.082  12.062
19902W        W91518   3.363  24.272   3.793
19903W        W91519  19.340  13.622  11.194
19904W        W91520  44.091   4.690  14.724
19905W        W91521  30.085   3.715   4.089
19906W        W91522  25.728  21.079   1.647
19907W        W91523  31.543  43.425  11.578
19908W        W91524  25.448  29.865  14.357
19909W        W91525  38.249  40.035   3.260
19910W        W91526  44.823  25.678   2.257
19911W        W91527  11.862  43.797  13.298
19912W        W91528  21.137   5.193   3.528
19913W        W91529  32.394  37.508  10.715
19914W        W91530  30.482  44.858   0.780
19915W        W91531  33.450  25.645  14.787
19916W        W91532  18.709  34.949   0.919
19917W        W91533   3.531  41.445  13.906
19918W        W91534   8.666  17.960   3.213
19919W        W91535  38.609  16.688  14.557
19920W        W91536  40.431   8.424  13.949
19921W        W91537  27.004  15.195  12.108
19922W        W91538  27.036   0.410   1.414
19923W        W91539  33.571   5.058  11.031
19924W        W91540  23.051  24.707   1.455
19925W        W91541  22.274  36.612  11.172
19926W        W91542  40.020  42.178   3.660
19927W        W91543   0.487  38.161   3.150
19928W        W91544   6.677   9.284   1.745
19929W        W91545  38.341  29.035  11.823
19930W        W91546  34.697  17.076  11.008
19931W        W91547  34.450  28.542   1.841
19932W        W91548  19.470  34.459   4.546
19933W        W91549  39.014  44.990   3.247
19934W        W91550   1.412   9.708  11.331
19935W        W91551  30.560  35.622   2.504
19936W        W91552   2.080  35.745  13.329
19937W        W91553   4.208  34.658   0.336
19938W        W91554  20.837  14.522  14.956
19939W        W91555  34.915  20.697  13.937
19940W        W91556  31.161  43.836  14.881
19941W        W91557  30.998   3.167   2.749
19942W        W91558  37.567  25.557  13.219
19943W        W91559   7.292   0.348  12.426
19944W        W91560  32.046  44.967   2.419
19945W        W91561   9.741  21.463   1.337
19946W        W91562  12.688   2.547  11.721
19947W        W91563  23.195   8.188   2.355
19948W        W91564  41.961  39.047  13.825
19949W        W91565  33.095  33.075   4.193
19950W        W91566  27.060   4.902  14.244
19951W        W91567  10.239  41.346  10.847
19952W        W91568  35.627  16.541   0.833
19953W        W91569  10.807   6.415   3.934
19954W        W91570   3.568  38.318   4.649
19955W        W91571  44.249  14.166  12.418
19956W        W91572  40.024  35.530   1.884
19957W        W91573  39.972  12.793  12.558
19958W        W91574  21.191   2.440  14.989
19959W        W91575  30.219  13.502   0.436
19960W        W91576  35.426  11.251   0.728
19961W        W91577  43.911   1.388  12.474
19962W        W91578  15.150  39.701  14.163
19963W        W91579  25.889  19.645   2.258
19964W        W91580  20.098  34.476   0.780
19965W        W91581   8.981  42.949  11.187
19966W        W91582  24.946   2.635   1.887
19967W        W91583  12.423  32.001   0.496
19968W        W91584  35.136   6.362  13.475
19969W        W91585  33.619  16.782   1.317
19970W        W91586  34.550  18.731  14.433
19971W        W91587  37.966  19.017   4.651
19972W        W91588  31.640  19.281  14.901
19973W        W91589  30.987  21.524   1.704
19974W        W91590  14.247  13.664   4.564
19975W        W91591  33.611  22.801  14.258
19976W        W91592  26.954   2.455  12.982
19977W        W91593  31.343  35.164   3.283
19978W        W91594  20.767   2.117   0.027
19979W        W91595  35.895  15.328   2.326
19980W        W91596  25.038  33.614  14.895
19981W        W91597  13.772  19.580   1.255
19982W        W91598   7.308  39.974  13.641
19983W        W91599   5.525  22.727  11.439
19984W        W91600  44.493  27.592   1.267
19985W        W91601  12.992  27.184   0.317
19986W        W91602  34.663  16.194  11.743
19987W        W91603  30.707  16.519  13.939
19988W        W91604   8.754  37.237   2.813
19989W        W91605  28.169  33.706  12.430
19990W        W91606   1.946  29.332   4.140
19991W        W91607   6.685  36.152  11.105
19992W        W91608   3.396  26.380  12.261
19993W        W91609  41.309   3.357   0.880
19994W        W91610   0.544  41.252   2.409
19995W        W91611  41.389   9.680  13.302
19996W        W91612  32.141   4.642  10.296
19997W        W91613  28.216   8.399   0.811
19998W        W91614  17.151   2.320   0.551
19999W        W91615  12.678  21.174   3.388
20000W        W91616  32.515  43.319   0.721
20001W        W91617  23.251  42.075   2.705
20002W        W91618  44.565  41.469  14.972
20003W        W91619  29.587   3.455   2.830
20004W        W91620   0.561  17.346  11.837
20005W        W91621  43.991  26.437   3.821
20006W        W91622   0.992  20.659   1.162
20007W        W91623  41.950   8.667   0.962
20008W        W91624  30.358  39.523   0.951
20009W        W91625   3.406   7.869  10.602
20010W        W91626  35.279  28.982   0.781
20011W        W91627  24.650  24.415   4.563
20012W        W91628  42.459   0.174  10.628
20013W        W91629  26.243   6.719   3.104
20014W        W91630   1.176  38.435  12.886
20015W        W91631   4.799   6.957   1.409
20016W        W91632  25.172  27.800  13.003
20017W        W91633  22.183  11.370   0.438
20018W        W91634  35.654  37.654   4.328
20019W        W91635  23.226  15.548  10.783
20020W        W91636  43.798  13.562  12.502
20021W        W91637  19.314  15.345  10.980
20022W        W91638  37.412   8.055   1.733
20023W        W91639  26.714  35.905   4.090
20024W        W91640  40.543  38.059  10.566
20025W        W91641  36.619   6.380  13.519
20026W        W91642  39.614  36.425  14.292
20027W        W91643  17.763  40.503  13.905
20028W        W91644  23.685  13.032  14.171
20029W        W91645  40.610  36.763   2.841
20030W        W91646  24.107   3.181   2.950
20031W        W91647   3.747  13.835   1.364
20032W        W91648   9.439   6.284   2.678
20033W        W91649   9.490  35.401  14.276
20034W        W91650  44.096  38.765   9.826
20035W        W91651  42.753  32.060   4.475
20036W        W91652  11.428  11.685   3.126
20037W        W91653  17.815  33.959  11.475
20038W        W91654  38.295  19.288  11.552
20039W        W91655  41.059  15.183   1.268
20040W        W91656  24.631  19.684   2.663
20041W        W91657  24.210  15.551  14.759
20042W        W91658  25.589  19.158   0.928
20043W        W91659   5.179  17.526   0.352
20044W        W91660  30.937  25.729   4.637
20045W        W91661  30.466   0.939   2.743
20046W        W91662   5.645   9.441   3.780
20047W        W91663  27.581   9.455  11.213
20048W        W91664  13.225  31.106  14.906
20049W        W91665  26.564  32.880  11.625
20050W        W91666  15.722  28.465   2.257
20051W        W91667  41.912  35.906  13.161
20052W        W91668  42.456  41.790   1.871
20053W        W91669  25.545  40.299  11.929
20054W        W91670  25.768  12.312   4.121
20055W        W91671  18.975  29.555   3.649
20056W        W91672  30.687  41.025  11.226
20057W        W91673  37.019   5.787   0.784
20058W        W91674  25.598  39.450   0.660
20059W        W91675  36.431  41.084   3.707
20060W        W91676  23.703   8.240  12.284
20061W        W91677  29.231  22.690   1.352
20062W        W91678   0.822  31.513   1.266
20063W        W91679  42.551  37.926  13.498
20064W        W91680  20.092  11.731   3.883
20065W        W91681   7.230  44.952   1.757
20066W        W91682  42.678  18.589   3.699
20067W        W91683  15.799  44.880   0.943
20068W        W91684  21.867  10.488  14.850
20069W        W91685  22.923  30.027  10.439
20070W        W91686   7.251  21.970   4.635
20071W        W91687   7.902  36.886   0.888
20072W        W91688  13.345  40.401   1.775
20073W        W91689   6.182   9.399  14.919
20074W        W91690  17.720  28.474   4.237
20075W        W91691  40.051  16.152   4.528
20076W        W91692  13.556  36.798  11.656
20077W        W91693  15.835  10.317  13.865
20078W        W91694  44.452  40.911   0.452
20079W        W91695  21.961   5.839  13.958
20080W        W91696  12.639  10.740   0.280
20081W        W91697  31.055  32.046   3.456
20082W        W91698  21.840  21.332  12.905
20083W        W91699  11.433  17.833   4.136
20084W        W91700  31.674  16.655  11.532
20085W        W91701  42.122  10.360   3.776
20086W        W91702  14.875  13.284   0.532
20087W        W91703  34.111  20.796  10.427
20088W        W91704  39.738  16.268   0.827
20089W        W91705  44.915  34.543   0.003
20090W        W91706  11.533   5.414   2.226
20091W        W91707  41.863  26.395   1.645
20092W        W91708  24.049   9.220   4.646
20093W        W91709  11.051   7.911   0.890
20094W        W91710  31.998  26.390  10.605
20095W        W91711  32.091  29.981  13.334
20096W        W91712  21.072  41.514   1.218
20097W        W91713   9.832  35.794   4.843
20098W        W91714  18.302  27.028   3.763
20099W        W91715  10.629  39.004   4.632
20100W        W91716  33.445  13.951   1.876
20101W        W91717  44.661  35.632  14.459
20102W        W91718  13.084  24.679  13.846
20103W        W91719  15.257  41.953  11.951
20104W        W91720  18.808  25.523  12.936
20105W        W91721  17.561  32.886   0.263
20106W        W91722  11.104   0.676  10.982
20107W        W91723  25.009  41.946  14.392
20108W        W91724  33.926  38.515  11.355
20109W        W91725  36.257  12.765  11.598
20110W        W91726  35.010  42.336  11.420
20111W        W91727  15.265  35.428   4.635
20112W        W91728  11.714  31.738  13.899
20113W        W91729  32.617  12.030   1.275
20114W        W91730  17.000  22.331   3.255
20115W        W91731  22.944  19.608  13.862
20116W        W91732   2.476   5.612  14.858
20117W        W91733  37.318  36.299   4.117
20118W        W91734  31.993   5.800  13.800
20119W        W91735  24.440   4.900   3.527
20120W        W91736   6.662  14.140  11.701
20121W        W91737   3.610  27.488   0.402
20122W        W91738  35.540  39.826  11.559
20123W        W91739  19.227   0.026   3.584
20124W        W91740  26.058  41.511   1.719
20125W        W91741  15.092  37.185  11.508
20126W        W91742  12.959  28.624  14.512
20127W        W91743  22.541  43.066  10.717
20128W        W91744  36.323  22.627  14.000
20129W        W91745  32.889   5.863  11.982
20130W        W91746  32.628  41.334  12.031
20131W        W91747  21.954  34.063   0.849
20132W        W91748  24.345  26.474   4.574
20133W        W91749  39.303  33.624  10.956
20134W        W91750  31.890   9.369   1.790
20135W        W91751  29.306  30.646   3.341
20136W        W91752  21.307  13.279   1.962
20137W        W91753  23.491  30.513   4.347
20138W        W91754  16.685   7.596   1.874
20139W        W91755  11.790  41.451   0.866
20140W        W91756  18.057  33.760   4.150
20141W        W91757  28.606   9.443   0.413
20142W        W91758  41.255  23.943  13.877
20143W        W91759   7.629   3.420  10.270
20144W        W91760  23.834  19.715   3.543
20145W        W91761  13.878  16.642   4.037
20146W        W91762  39.043  20.240  14.803
20147W        W91763  31.558  20.486  14.489
20148W        W91764  20.744  27.853  10.445
20149W        W91765  26.680  20.838  11.600
20150W        W91766   9.821  37.688  14.387
20151W        W91767  27.048   6.428   3.474
20152W        W91768  30.618  43.865  12.536
20153W        W91769  39.899  20.955   1.762
20154W        W91770  10.461  35.920  14.886
20155W        W91771  41.500   9.976   2.242
20156W        W91772  41.015   8.990  10.735
20157W        W91773  12.072   5.875   4.835
20158W        W91774  20.308  37.505  12.431
20159W        W91775  11.901  41.381  13.493
20160W        W91776   3.502  40.020  12.068
20161W        W91777  24.776   0.754   2.160
20162W        W91778  20.718   2.769   4.089
20163W        W91779   5.042  24.438  12.605
20164W        W91780  25.184  41.876   4.569
20165W        W91781   4.426  35.777  14.024
20166W        W91782  38.453  37.167  11.886
20167W        W91783  34.032  23.735   1.702
20168W        W91784  39.898  34.459   3.748
20169W        W91785  24.850   2.102   1.903
20170W        W91786  22.738  31.425   3.112
20171W        W91787  41.024  17.393   0.495
20172W        W91788  30.909  19.598  14.726
20173W        W91789   9.583   1.489  11.967
20174W        W91790  42.778  38.792  14.018
20175W        W91791  13.227   5.380   0.769
20176W        W91792   1.550  42.283   0.239
20177W        W91793  26.695  15.284   1.870
20178W        W91794  27.964  23.256  14.940
20179W        W91795  18.638  44.356  14.991
20180W        W91796   8.089   7.874  11.172
20181W        W91797  44.058  40.297  12.857
20182W        W91798  25.103  44.854  13.808
20183W        W91799  29.198  44.546  13.824
20184W        W91800  19.841  15.233   2.836
20185W        W91801   0.195  16.283   3.777
20186W        W91802   6.432  13.172  13.302
20187W        W91803  11.536  44.475  11.526
20188W        W91804   5.077  24.153  11.927
20189W        W91805  31.060  27.078  12.514
20190W        W91806  11.666  38.960   1.320
20191W        W91807  41.743  39.525  13.372
20192W        W91808  21.348  12.190   2.405
20193W        W91809  42.099   5.690   0.512
20194W        W91810  16.584  28.163  11.097
20195W        W91811  12.890   4.894   1.858
20196W        W91812  34.588   1.419   5.494
20197W        W91813  19.388  23.601   3.646
20198W        W91814  37.779   6.371   1.615
20199W        W91815  14.375  16.026  14.969
20200W        W91816  27.492  32.425   3.184
20201W        W91817   9.801  40.682  13.886
20202W        W91818  26.014   6.230   0.515
20203W        W91819  31.583   0.693  11.500
20204W        W91820   2.303  25.778   5.498
20205W        W91821  21.638  14.585   2.385
20206W        W91822  23.073  13.792  14.479
20207W        W91823   8.258   4.456  13.334
20208W        W91824   3.889  12.686  10.593
20209W        W91825   1.639  12.365  12.433
20210W        W91826  34.534  20.778   2.003
20211W        W91827  10.772   3.173   2.843
20212W        W91828   1.315   9.796   2.685
20213W        W91829   8.114  12.193  11.034
20214W        W91830  44.822  37.891  14.285
20215W        W91831  21.385  10.344   2.886
20216W        W91832  23.464  34.326  13.024
20217W        W91833  14.184  27.791  13.998
20218W        W91834  39.819  25.994  11.483
20219W        W91835  22.065  12.084   3.523
20220W        W91836   2.877  37.885  13.559
20221W        W91837   8.151  22.768   3.285
20222W        W91838  31.064  35.408   4.633
20223W        W91839  42.867   5.905   0.501
20224W        W91840   6.443  37.279   3.643
20225W        W91841   0.001   4.496   0.276
20226W        W91842  32.414  26.514   4.260
20227W        W91843  39.686  13.106  14.993
20228W        W91844   6.181   2.273  11.414
20229W        W91845   0.934  35.188  10.722
20230W        W91846  29.632  29.063  10.455
20231W        W91847   9.732  24.038   4.647
20232W        W91848  24.232   7.494   0.869
20233W        W91849  20.807  10.797  11.628
20234W        W91850   0.821  26.519   3.251
20235W        W91851   8.446  18.249   0.827
20236W        W91852  44.179  28.391  13.807
20237W        W91853   1.389  25.418  11.610
20238W        W91854   9.226  27.973   0.897
20239W        W91855  41.562   1.538   0.455
20240W        W91856  40.300  39.275   2.700
20241W        W91857  14.526  28.571  13.456
20242W        W91858  31.475  28.505  13.933
20243W        W91859  15.460   6.205  13.499
20244W        W91860  32.350  19.849   2.194
20245W        W91861  28.066  21.019   4.218
20246W        W91862  29.074  34.924   3.975
20247W        W91863   9.931  19.856  13.562
20248W        W91864  28.101  17.856   0.673
20249W        W91865  10.164  44.846   0.772
20250W        W91866  36.619  22.813  11.055
20251W        W91867  19.996   4.596  10.011
20252W        W91868  12.891  13.766   2.775
20253W        W91869  29.620  33.160   0.420
20254W        W91870  23.174  41.723   4.500
20255W        W91871  26.300  19.043  14.845
20256W        W91872   7.324   6.840   0.030
20257W        W91873   4.657  34.070   2.286
20258W        W91874  23.939  29.719  11.148
20259W        W91875  37.115  32.645   1.505
20260W        W91876   0.493  22.999  13.083
20261W        W91877  43.599  27.900   2.779
20262W        W91878   7.452  34.953  14.824
20263W        W91879  31.543  37.032  14.582
20264W        W91880   5.216  13.100  13.666
20265W        W91881  27.891   3.763  14.410
20266W        W91882  21.048  38.803  11.917
20267W        W91883  17.973  17.875  10.417
20268W        W91884  15.339   2.852   2.312
20269W        W91885   8.597  17.659  12.920
20270W        W91886   9.441  25.065   1.976
20271W        W91887  13.286  41.546  10.679
20272W        W91888  26.209  36.416  13.979
20273W        W91889  14.326  26.045  13.442
20274W        W91890  25.049  34.890   5.286
20275W        W91891  13.812  34.569  11.174
20276W        W91892  41.545  23.764  13.288
20277W        W91893  42.735  14.219  11.448
20278W        W91894   8.679  43.773  10.613
20279W        W91895   3.991  30.608   1.417
20280W        W91896  19.830  16.086  13.727
20281W        W91897  18.211  22.192  13.322
20282W        W91898  39.100  19.728  14.897
20283W        W91899  20.678  12.640  10.674
20284W        W91900  12.124  34.109   0.238
20285W        W91901  17.749  42.339  12.530
20286W        W91902  22.022   2.952   3.258
20287W        W91903  16.435  29.059   0.983
20288W        W91904  20.663  34.963  12.090
20289W        W91905   0.409  20.245  14.972
20290W        W91906  44.139  23.576   1.661
20291W        W91907  43.845   9.702   0.246
20292W        W91908  29.901  12.397   2.213
20293W        W91909  19.029  38.386  14.702
20294W        W91910  25.377   4.258   1.739
20295W        W91911  23.817  36.557   3.681
20296W        W91912  29.190   8.317  10.666
20297W        W91913  36.918  14.092  11.957
20298W        W91914  39.879  17.720  12.015
20299W        W91915  33.885  14.185  12.552
20300W        W91916  15.323  25.207  13.733
20301W        W91917  31.645  33.720   1.882
20302W        W91918  29.422   4.245  13.534
20303W        W91919  22.138  24.804   0.345
20304W        W91920  30.489  43.658   2.278
20305W        W91921  28.651  37.577  10.684
20306W        W91922  41.549  17.205   4.594
20307W        W91923   5.501  40.455  12.490
20308W        W91924  14.438  39.428   3.049
20309W        W91925  18.286  42.291   3.131
20310W        W91926  29.141  12.865   1.129
20311W        W91927  19.824   1.843  14.032
20312W        W91928  26.150  10.613  10.707
20313W        W91929  28.379  17.053   2.884
20314W        W91930  13.125  20.268  14.222
20315W        W91931  29.063  37.508   2.209
20316W        W91932  18.493   7.422   3.878
20317W        W91933   6.156  42.398  14.475
20318W        W91934  43.463  44.778   2.369
20319W        W91935  19.654  30.541   4.044
20320W        W91936   4.997  23.550  12.676
20321W        W91937   4.796   3.425  10.621
20322W        W91938  28.446  30.491  12.547
20323W        W91939  10.956  35.363   4.046
20324W        W91940   3.309  32.841  11.423
20325W        W91941  39.206  23.980   3.712
20326W        W91942  12.549  32.012   2.328
20327W        W91943   3.491  21.625  11.542
20328W        W91944  39.832  27.039   3.670
20329W        W91945  18.750   5.479   1.759
20330W        W91946   5.269  42.088  11.181
20331W        W91947  29.740  32.110  11.690
20332W        W91948   7.314  18.481   0.331
20333W        W91949  18.332  19.763  11.120
20334W        W91950  12.578   0.933   3.689
20335W        W91951  14.261  21.999  10.767
20336W        W91952  34.846  38.288   3.790
20337W        W91953  18.300  26.604   0.898
20338W        W91954  29.534  19.856   1.026
20339W        W91955  30.865   2.708   3.648
20340W        W91956  29.144  37.476   3.635
20341W        W91957  23.193   5.032  11.991
20342W        W91958  44.791  34.634  12.517
20343W        W91959  12.268  10.288  11.172
20344W        W91960  20.210  27.562   1.472
20345W        W91961  44.960  13.196  10.640
20346W        W91962  13.797  22.951  13.333
20347W        W91963  38.306  34.455  14.033
20348W        W91964  44.409  22.525  11.209
20349W        W91965   8.256  12.196  14.465
20350W        W91966  20.517  20.209   0.861
20351W        W91967  10.683  26.473  13.453
20352W        W91968  23.195  16.361   0.772
20353W        W91969  12.054   7.705  11.542
20354W        W91970  28.119  41.767   0.888
20355W        W91971  15.901  23.057   4.662
20356W        W91972  39.939  19.169  13.148
20357W        W91973  35.458  21.232   5.157
20358W        W91974  33.059  25.168  10.302
20359W        W91975  17.195   8.944  11.472
20360W        W91976  35.515  42.694   3.186
20361W        W91977   4.233  35.026   3.242
20362W        W91978  15.702  15.197  14.022
20363W        W91979   5.222   6.732   0.352
20364W        W91980  21.597   9.128   0.943
20365W        W91981   8.761   8.302  12.891
20366W        W91982   6.872  16.398   0.833
20367W        W91983  25.240   4.983  14.854
20368W        W91984  23.535  36.347  12.028
20369W        W91985  31.641  31.638  11.100
20370W        W91986  19.673  21.271   3.759
20371W        W91987   9.357   7.277   2.620
20372W        W91988  41.529  11.331  14.905
20373W        W91989   1.235   2.132   1.802
20374W        W91990  12.932   1.885  12.494
20375W        W91991   0.767  21.003   2.685
20376W        W91992  38.333  37.631   3.715
20377W        W91993  28.942   2.873   1.266
20378W        W91994  39.196  21.081   0.194
20379W        W91995  27.085  20.975   4.910
20380W        W91996  36.544  41.744   5.007
20381W        W91997  19.852  35.270   3.200
20382W        W91998  42.739  42.098   4.412
20383W        W91999  16.699  21.543  14.995
20384W        W92000   8.258  38.851   3.798
20385W        W92001  29.062   2.291  13.636
20386W        W92002  11.714  43.756  11.133
20387W        W92003  25.445   2.362   1.267
20388W        W92004   8.314  36.614  13.895
20389W        W92005  41.126  18.148  14.645
20390W        W92006   6.894  20.398  12.359
20391W        W92007   1.071   0.839   2.340
20392W        W92008  44.745   0.199   3.182
20393W        W92009  31.901  21.784  13.561
20394W        W92010  34.193  21.022  11.615
20395W        W92011   3.915   6.630  11.648
20396W        W92012  14.026   3.925   1.043
20397W        W92013  31.505   5.652  11.693
20398W        W92014  32.887  36.697   2.451
20399W        W92015  40.925   2.308   1.712
20400W        W92016  16.849  32.702   4.164
20401W        W92017  15.985  34.878  13.853
20402W        W92018   3.292  19.515  11.991
20403W        W92019  29.039   5.115  13.334
20404W        W92020  13.452  12.743   1.664
20405W        W92021  35.529  32.606  13.933
20406W        W92022   9.854  23.594   2.889
20407W        W92023  42.198  10.843  14.858
20408W        W92024  37.889  24.328   2.262
20409W        W92025  34.943  15.375   3.315
20410W        W92026   6.829   0.447   2.193
20411W        W92027  18.524  22.527   2.333
20412W        W92028   0.303  31.161   0.785
20413W        W92029  19.727  33.227   2.677
20414W        W92030  36.003  24.990  11.662
20415W        W92031   6.553  17.251   3.069
20416W        W92032  16.293  34.387   2.431
20417W        W92033  18.246  43.516  14.828
20418W        W92034   8.684  30.090   1.387
20419W        W92035  34.926  26.998   2.114
20420W        W92036  29.991  11.374   2.303
20421W        W92037   1.640   2.655   0.793
20422W        W92038  40.047   5.010   1.279
20423W        W92039   7.453  33.154   4.319
20424W        W92040  34.925  35.198  12.043
20425W        W92041  21.207  30.010  12.627
20426W        W92042  19.385  44.415  11.447
20427W        W92043  12.890  41.631  12.011
20428W        W92044   4.394   0.275  14.386
20429W        W92045  36.901   1.446  12.868
20430W        W92046  13.341  38.517   3.306
20431W        W92047  10.533  39.751   3.287
20432W        W92048   1.274  19.527  11.118
20433W        W92049  24.916  24.646   0.936
20434W        W92050  17.192  37.300   2.284
20435W        W92051  11.149  13.856  13.429
20436W        W92052  29.687   3.914  11.091
20437W        W92053  24.439  15.742  11.650
20438W        W92054  35.527  35.994  13.377
20439W        W92055  10.769  28.214  11.201
20440W        W92056   2.120  13.173  12.345
20441W        W92057  36.808   1.290  10.386
20442W        W92058   9.770  21.018   0.660
20443W        W92059  13.340  26.414  14.471
20444W        W92060  24.283  10.702  10.648
20445W        W92061  42.042  35.390   4.746
20446W        W92062  21.544  35.323  13.429
20447W        W92063  37.841  31.899   1.799
20448W        W92064   7.773  14.231   3.569
20449W        W92065  15.761   6.164   9.813
20450W        W92066   5.219  16.799  12.256
20451W        W92067  41.648  17.154  10.742
20452W        W92068   6.462   1.438   2.844
20453W        W92069  32.402  30.605   0.326
20454W        W92070  28.520  40.020  14.392
20455W        W92071  26.324  36.350  12.612
20456W        W92072  17.083   2.999  14.332
20457W        W92073  43.762  15.910   2.502
20458W        W92074  19.384  39.735  11.688
20459W        W92075  38.320  43.492  13.441
20460W        W92076  32.997  43.410  12.044
20461W        W92077  14.806  10.476   3.743
20462W        W92078   4.421  19.110  11.596
20463W        W92079  16.793  39.824  13.400
20464W        W92080   3.447   2.352  14.830
20465W        W92081   3.221  33.041   1.320
20466W        W92082  40.497   9.840  14.128
20467W        W92083  33.850  21.048  13.391
20468W        W92084  33.180  38.062  11.976
20469W        W92085  30.072  29.668   4.554
20470W        W92086  31.964  27.562   4.647
20471W        W92087  20.442  28.422  13.373
20472W        W92088  18.344  34.007   0.532
20473W        W92089  43.061   5.915   2.794
20474W        W92090  24.618  19.731  12.454
20475W        W92091  43.382   0.877   3.813
20476W        W92092   6.369  37.965   5.068
20477W        W92093   9.156   6.668  14.331
20478W        W92094  18.320  28.156  10.640
20479W        W92095  41.399  13.857   4.706
20480W        W92096  41.845  31.668  11.531
20481W        W92097  31.745   8.820   0.120
20482W        W92098  17.487  16.099   0.758
20483W        W92099  39.058  38.463   4.497
20484W        W92100   7.843   0.751   4.123
20485W        W92101  35.516  30.083   2.502
20486W        W92102  13.802  14.541  12.593
20487W        W92103  15.495  40.097  11.453
20488W        W92104  14.380  34.732  10.563
20489W        W92105  24.590   0.184   0.276
20490W        W92106  23.325  41.448   1.325
20491W        W92107  16.093  31.400  13.454
20492W        W92108  14.719  19.294  11.502
20493W        W92109   3.983  22.438  14.254
20494W        W92110  17.521  26.752   0.237
20495W        W92111  33.958   1.052  14.502
20496W        W92112  14.046  25.746  11.124
20497W        W92113  37.894  24.193  11.233
20498W        W92114  22.501  42.397   0.974
20499W        W92115  20.960  18.545   4.932
20500W        W92116   3.825  42.607  14.316
20501W        W92117  38.059  26.223  12.701
20502W        W92118  44.446   1.216  11.032
20503W        W92119  24.234   1.472  13.849
20504W        W92120  43.444  24.557   2.731
20505W        W92121  29.573  22.001   2.386
20506W        W92122   7.157  25.023  11.924
20507W        W92123   3.462  25.404  12.352
20508W        W92124   0.418  44.505   2.346
20509W        W92125   6.269  28.070   1.768
20510W        W92126  35.345  22.990   3.588
20511W        W92127  26.320  43.726   1.869
20512W        W92128  38.558   7.933  12.230
20513W        W92129  29.892  34.582  12.081
20514W        W92130  42.476  14.661  10.558
20515W        W92131   2.750  27.411   1.051
20516W        W92132  32.673   4.255   3.007
20517W        W92133  29.490  26.642   4.234
20518W        W92134  35.342  37.895   3.180
20519W        W92135  14.311  23.487  13.436
20520W        W92136  15.017  44.435  12.313
20521W        W92137  10.835   9.694  11.377
20522W        W92138  30.881   9.072   5.005
20523W        W92139  24.264  40.424   1.382
20524W        W92140   9.884   7.982  13.452
20525W        W92141  18.167   8.024  14.261
20526W        W92142  37.483  31.055  13.962
20527W        W92143   4.381  21.589  12.937
20528W        W92144  18.995  39.556  11.960
20529W        W92145  15.751   1.498   4.656
20530W        W92146  18.763  30.576  11.753
20531W        W92147  19.083  32.947   1.531
20532W        W92148  40.207  21.552  12.518
20533W        W92149  44.457  30.447  11.724
20534W        W92150   7.568  11.376   3.254
20535W        W92151  38.891  25.572  12.559
20536W        W92152   4.684  10.358   0.346
20537W        W92153  19.895  31.802  10.756
20538W        W92154  37.093  37.682   2.750
20539W        W92155   6.701  12.085  14.909
20540W        W92156  37.457  36.711   3.099
20541W        W92157  24.451  39.162  13.060
20542W        W92158   1.893  35.673  14.707
20543W        W92159  39.408  34.933  10.693
20544W        W92160  28.962  33.079   4.931
20545W        W92161  14.007  21.949   4.084
20546W        W92162  31.831  30.025   2.706
20547W        W92163  16.752  33.630   3.507
20548W        W92164   2.786  18.119  14.713
20549W        W92165  20.093  27.800   3.295
20550W        W92166  33.246   7.211   4.545
20551W        W92167  44.825  11.909   0.285
20552W        W92168  12.417  36.679  13.397
20553W        W92169  25.970  31.470  12.528
20554W        W92170   1.964  13.400   2.892
20555W        W92171  27.518  35.768  11.855
20556W        W92172  26.132  21.656  11.976
20557W        W92173  31.513   7.813  11.916
20558W        W92174  36.129   9.290   2.634
20559W        W92175  12.802  27.708   4.198
20560W        W92176  29.689  21.216  14.672
20561W        W92177   5.870  43.399   2.587
20562W        W92178  33.428  26.703  13.914
20563W        W92179  30.578  11.575   0.866
20564W        W92180  12.789   1.233  14.444
20565W        W92181  35.914  27.360   4.030
20566W        W92182  30.923  39.864   1.726
20567W        W92183   8.162  34.363  11.049
20568W        W92184  43.601  24.434   1.358
20569W        W92185  39.057  20.418   1.472
20570W        W92186  35.922  44.909   0.406
20571W        W92187  37.114  17.678  11.871
20572W        W92188  17.776  10.867   3.600
20573W        W92189   8.871  40.001   2.892
20574W        W92190   4.538  23.717  12.456
20575W        W92191  10.672  22.221  12.187
20576W        W92192  41.919  33.254  14.770
20577W        W92193  29.010  23.067   0.199
20578W        W92194  38.818  14.858  12.696
20579W        W92195   0.349   5.213  11.930
20580W        W92196  25.158   7.744  11.573
20581W        W92197   3.291  29.999   3.941
20582W        W92198  34.337  28.588   0.512
20583W        W92199   5.187  22.616  10.231
20584W        W92200  21.482  19.218  14.006
20585W        W92201  23.977  10.814   1.248
20586W        W92202   4.140   4.948   3.245
20587W        W92203  15.775  32.127   3.716
20588W        W92204  43.487   4.501   2.413
20589W        W92205  26.682  29.472   4.403
20590W        W92206  25.526  29.104   4.636
20591W        W92207  18.314   6.023   2.922
20592W        W92208  20.070  17.515   2.203
20593W        W92209   7.176  41.731  12.016
20594W        W92210   7.374  23.147   4.530
20595W        W92211   3.696   0.684   2.899
20596W        W92212   7.774  18.253   3.741
20597W        W92213  22.340  19.752   2.819
20598W        W92214  34.364  40.529  10.822
20599W        W92215  20.106   1.003  11.566
20600W        W92216  23.683  20.019   2.935
20601W        W92217   5.045  21.694  14.900
20602W        W92218  36.036  14.161   4.862
20603W        W92219  31.875  13.685   0.816
20604W        W92220  15.993  12.361   4.343
20605W        W92221  37.957   9.643   2.148
20606W        W92222  43.847  43.073   2.046
20607W        W92223   2.208   7.686  13.286
20608W        W92224  27.741   3.428   2.816
20609W        W92225   2.748  16.641   1.803
20610W        W92226  10.719   2.196  10.586
20611W        W92227  19.577   9.378  13.484
20612W        W92228  30.409  17.116  12.438
20613W        W92229  16.529  44.410  13.983
20614W        W92230   0.006  11.901   4.303
20615W        W92231  12.131  16.734  12.555
20616W        W92232  44.449  36.085   2.218
20617W        W92233  12.104  24.098  12.855
20618W        W92234   1.117  15.832   0.663
20619W        W92235   0.500  23.492   3.606
20620W        W92236   4.005  17.428  11.141
20621W        W92237   6.521  37.019  14.771
20622W        W92238   9.951  21.664  13.900
20623W        W92239  15.071  10.590  12.331
20624W        W92240  37.415  42.860   4.717
20625W        W92241  15.090  44.465   4.067
20626W        W92242  15.561  33.447   0.319
20627W        W92243  14.184   1.034   3.172
20628W        W92244  24.034  37.544  12.515
20629W        W92245  23.229   3.447   4.585
20630W        W92246  40.978  29.192  11.976
20631W        W92247  37.407  29.947  14.586
20632W        W92248  20.027  44.326  14.333
20633W        W92249  25.224   2.394  12.752
20634W        W92250   2.968  39.551   2.621
20635W        W92251  38.070   4.344   0.300
20636W        W92252  42.811  19.572   0.302
20637W        W92253  15.653  35.185  13.371
20638W        W92254  14.119  19.077  13.401
20639W        W92255  21.231   8.753   3.573
20640W        W92256  25.461  44.328   1.751
20641W        W92257  26.979   6.367  14.622
20642W        W92258  15.803   1.191   2.149
20643W        W92259   2.821   7.542   2.762
20644W        W92260  12.472  33.638   3.344
20645W        W92261  24.200  30.601   1.462
20646W        W92262  28.035  35.966   9.933
20647W        W92263  32.433   7.752   4.542
20648W        W92264   6.581  39.626  11.200
20649W        W92265  19.098  39.373  14.998
20650W        W92266  40.546  44.016   1.282
20651W        W92267   5.792  19.328  11.678
20652W        W92268  22.478  10.609  12.499
20653W        W92269  12.063  15.424   2.485
20654W        W92270  21.848  35.069   0.415
20655W        W92271  31.919  11.860  13.841
20656W        W92272  34.404  22.592   1.649
20657W        W92273  10.400  25.693  10.814
20658W        W92274  32.892  23.463  12.554
20659W        W92275  40.865   1.176   4.623
20660W        W92276  23.973  26.077  11.012
20661W        W92277  27.896  26.987  11.548
20662W        W92278  36.025   5.291  13.355
20663W        W92279  12.420  26.023  14.423
20664W        W92280   6.362  21.277   3.265
20665W        W92281  25.675  43.235   3.216
20666W        W92282   3.924  15.783   0.246
20667W        W92283  42.485  15.034   3.257
20668W        W92284  17.073  42.974   0.831
20669W        W92285  12.328  25.064  11.567
20670W        W92286  35.960  32.991   0.282
20671W        W92287  23.133   4.922   2.489
20672W        W92288  17.703  21.101  11.630
20673W        W92289  41.319  32.189   3.359
20674W        W92290  31.001  37.880   4.276
20675W        W92291  16.367  12.306   0.918
20676W        W92292  33.377  38.939   1.507
20677W        W92293  42.200  10.389  11.204
20678W        W92294   3.012   0.682   0.419
20679W        W92295  40.897  43.460  13.226
20680W        W92296  14.081  38.371  14.420
20681W        W92297  24.230  17.406   4.133
20682W        W92298  43.611  38.382  13.924
20683W        W92299  43.017  27.878  11.974
20684W        W92300   3.492  40.469  13.572
20685W        W92301  16.324  14.744  14.362
20686W        W92302  21.780  33.367   1.242
20687W        W92303  21.562  43.825   2.909
20688W        W92304  28.880  11.943  11.686
20689W        W92305  41.555  25.731   4.143
20690W        W92306  12.605  44.620  12.931
20691W        W92307   4.742  18.534   4.098
20692W        W92308   3.071   3.773   1.792
20693W        W92309   8.728  25.300   3.597
20694W        W92310  35.911  12.677  12.861
20695W        W92311   0.886  39.569   2.843
20696W        W92312   4.720  14.108   2.206
20697W        W92313  21.310  36.839  12.067
20698W        W92314  33.835  31.715  13.488
20699W        W92315   2.813   4.781  14.224
20700W        W92316  33.419  14.787   2.324
20701W        W92317   0.285   2.675  14.088
20702W        W92318   7.357  35.424   4.769
20703W        W92319  21.545   4.373   0.223
20704W        W92320   9.469  35.957  10.250
20705W        W92321  13.136  34.089  12.395
20706W        W92322  21.302  11.563  11.103
20707W        W92323  41.440   8.774  14.756
20708W        W92324   0.991   8.813   2.733
20709W        W92325  31.053  19.403  12.984
20710W        W92326  23.203  33.607   4.419
20711W        W92327   5.041  29.230  14.210
20712W        W92328  15.642  36.180   4.706
20713W        W92329  42.792  32.727   2.764
20714W        W92330  17.054  25.690   3.792
20715W        W92331  30.688  36.959  11.135
20716W        W92332  18.037  28.657   2.794
20717W        W92333   1.181   3.819  10.562
20718W        W92334  34.477  32.893  12.084
20719W        W92335  30.816  36.550  14.991
20720W        W92336   8.408  13.686   2.504
20721W        W92337  29.527   8.114  11.011
20722W        W92338  32.619  12.273   4.640
20723W        W92339   7.142  18.279  14.099
20724W        W92340  10.761   9.721   0.847
20725W        W92341  37.689  13.821  14.363
20726W        W92342  40.837   8.362  11.036
20727W        W92343  15.775  34.555   3.671
20728W        W92344  28.114  31.440   2.471
20729W        W92345  16.740  40.821   4.099
20730W        W92346  25.692  19.630  13.953
20731W        W92347  18.603  23.038  10.157
20732W        W92348  32.993   6.282   0.019
20733W        W92349  22.113  23.042   0.503
20734W        W92350  29.372   9.962   3.737
20735W        W92351   2.954   4.136   3.163
20736W        W92352  43.487  39.128  10.943
20737W        W92353  22.777  21.899  14.315
20738W        W92354   2.920  13.886  14.946
20739W        W92355  16.950  29.462  14.969
20740W        W92356  42.377  22.181  12.460
20741W        W92357  19.066   9.606   0.241
20742W        W92358  12.652  25.707  12.021
20743W        W92359  40.938   9.780  14.953
20744W        W92360  22.047  28.187  10.951
20745W        W92361  34.951   2.656  11.106
20746W        W92362  24.868  14.902   5.043
20747W        W92363  28.958  15.859   3.233
20748W        W92364  13.434  23.430  13.769
20749W        W92365   0.804  12.757   2.157
20750W        W92366   9.762  22.127   1.182
20751W        W92367  23.963  23.205   0.478
20752W        W92368   3.751  33.062   1.219
20753W        W92369   9.207  11.630  11.591
20754W        W92370   0.591   3.844  12.474
20755W        W92371  23.631  44.456   0.362
20756W        W92372   8.199  10.362   1.003
20757W        W92373  22.653  38.558   0.754
20758W        W92374  43.101  26.542  12.841
20759W        W92375  42.444  10.918  12.118
20760W        W92376  42.933  31.369  14.936
20761W        W92377  20.760  33.780   2.221
20762W        W92378  15.277  41.554   2.222
20763W        W92379  11.666   4.706  12.938
20764W        W92380  28.197  11.371  11.973
20765W        W92381  26.313  44.434  10.862
20766W        W92382  34.119  27.271   2.387
20767W        W92383  43.092  36.028   3.146
20768W        W92384  15.343  16.388   4.978
20769W        W92385  35.434   6.438   3.799
20770W        W92386  37.998  11.563  14.325
20771W        W92387  42.562   1.058  11.061
20772W        W92388  16.313  26.107   2.850
20773W        W92389   4.769  27.361   3.159
20774W        W92390  16.595  31.959  14.817
20775W        W92391  14.757  17.815  13.598
20776W        W92392  10.905  32.011   0.411
20777W        W92393  24.766  20.206   0.943
20778W        W92394  41.064   2.235   0.065
20779W        W92395  41.869  16.658  11.636
20780W        W92396  37.988   1.768   3.702
20781W        W92397  26.957  15.793  12.743
20782W        W92398  23.159   2.711  13.094
20783W        W92399  32.667  29.717   9.847
20784W        W92400  16.066   1.863   3.114
20785W        W92401  38.379  14.956   0.833
20786W        W92402   0.259   2.671   3.330
20787W        W92403  13.416  29.187   4.681
20788W        W92404  10.594  37.399   0.315
20789W        W92405  25.930  24.200   1.600
20790W        W92406   4.562  38.036  10.448
20791W        W92407  22.745  13.255  12.115
20792W        W92408  38.095  35.513   3.164
20793W        W92409  14.650   3.897   4.242
20794W        W92410  27.441  13.986   5.483
20795W        W92411   3.459   0.607  12.844
20796W        W92412   2.308   7.762   3.437
20797W        W92413  34.552   3.640  14.752
20798W        W92414  20.161   4.415  12.874
20799W        W92415   0.586  10.786   4.787
20800W        W92416   5.635  25.619  10.661
20801W        W92417  28.145  36.986   4.917
20802W        W92418   7.816  27.388  11.912
20803W        W92419  11.951   8.834  14.564
20804W        W92420  27.310  13.519   4.818
20805W        W92421  14.740  28.998   0.960
20806W        W92422  42.282   9.682   1.660
20807W        W92423  21.668  13.108   4.650
20808W        W92424   9.211  39.836   0.838
20809W        W92425   8.308  41.345  14.401
20810W        W92426  15.983   5.990   2.845
20811W        W92427  35.881  34.319  11.512
20812W        W92428   0.552   7.378   4.138
20813W        W92429   6.686   2.427   3.601
20814W        W92430  21.093   0.987   2.848
20815W        W92431  44.256  39.899  10.196
20816W        W92432  25.564  14.735  12.029
20817W        W92433   1.025  32.896  12.462
20818W        W92434   0.353  43.719  12.583
20819W        W92435  11.420   8.723   0.676
20820W        W92436  22.722   1.044  12.395
20821W        W92437   9.825  19.683   2.835
20822W        W92438   4.896  39.302  13.474
20823W        W92439   3.636  37.442   3.900
20824W        W92440  15.073   0.372  14.189
20825W        W92441  35.449  34.643   2.421
20826W        W92442  25.294  22.021  14.384
20827W        W92443  20.775  13.873   4.586
20828W        W92444  42.774   8.157  13.520
20829W        W92445  13.671  25.226   4.438
20830W        W92446  22.074  15.257  14.019
20831W        W92447   5.274  13.370  10.719
20832W        W92448   0.266  21.152   4.399
20833W        W92449  44.449   7.762  12.806
20834W        W92450   7.681   4.977   1.791
20835W        W92451  22.722  42.810  10.273
20836W        W92452  12.372  27.069   2.142
20837W        W92453   2.959  30.563  11.862
20838W        W92454  42.557  20.085  12.530
20839W        W92455  16.102  32.436   2.202
20840W        W92456  19.688  24.259   3.277
20841W        W92457  40.426  16.730  10.339
20842W        W92458   3.308  26.600  14.084
20843W        W92459   4.618   4.017  14.458
20844W        W92460  27.723  28.484   4.091
20845W        W92461  17.294  12.316  14.961
20846W        W92462  14.703   5.227  14.415
20847W        W92463  27.913  31.507   0.927
20848W        W92464   9.213   0.804   0.217
20849W        W92465  43.014  13.091  12.922
20850W        W92466  40.325  41.486  13.414
20851W        W92467   9.291  31.819   1.813
20852W        W92468  24.619   9.261  10.799
20853W        W92469  36.390  10.090  10.696
20854W        W92470  22.399  19.507  12.789
20855W        W92471  25.252   4.878  14.358
20856W        W92472   5.930  36.843   3.081
20857W        W92473  37.263   5.310  10.385
20858W        W92474  22.099  36.332   1.932
20859W        W92475   2.949  29.699   2.667
20860W        W92476   2.646   4.201   0.464
20861W        W92477  18.739  27.456   0.341
20862W        W92478  11.251  22.005  11.484
20863W        W92479  33.319  35.565   1.510
20864W        W92480  40.862  21.405  11.975
20865W        W92481   7.374  12.360  12.816
20866W        W92482  11.540  43.918  12.418
20867W        W92483  40.491   7.218  14.524
20868W        W92484  28.317  44.515   3.321
20869W        W92485  38.469   7.410  12.153
20870W        W92486  37.542  26.250  10.592
20871W        W92487  25.907  12.785   4.254
20872W        W92488   5.769   5.636  11.706
20873W        W92489  28.039  26.939  14.406
20874W        W92490  38.626  41.390   3.688
20875W        W92491   7.637  29.127   4.986
20876W        W92492  38.139  37.012  13.257
20877W        W92493  26.546  10.636   4.195
20878W        W92494  28.468  34.752  10.649
20879W        W92495   4.014  15.175  14.796
20880W        W92496  37.476  17.620  14.343
20881W        W92497   1.218  13.759  12.411
20882W        W92498  37.583  30.556  10.671
20883W        W92499  18.553  32.499   4.579
20884W        W92500   6.977   5.863  13.960
20885W        W92501  15.064   1.378  14.894
20886W        W92502  10.354  10.325   4.335
20887W        W92503  41.469   0.553   1.896
20888W        W92504  28.965   3.329   1.553
20889W        W92505  29.373  24.076   3.953
20890W        W92506  16.768  20.042  14.780
20891W        W92507   5.947  33.665   1.013
20892W        W92508  30.150  35.483  10.727
20893W        W92509  32.098  38.799   1.015
20894W        W92510  31.448   0.754  12.772
20895W        W92511  33.324   9.228   0.940
20896W        W92512  28.315  22.713   1.421
20897W        W92513  11.124   3.827   4.167
20898W        W92514  38.920  44.312  11.562
20899W        W92515  28.541  22.248   4.623
20900W        W92516  19.969  41.036   3.129
20901W        W92517   4.262  13.158   3.699
20902W        W92518   6.419  40.542   1.793
20903W        W92519  10.628   8.800  10.403
20904W        W92520   8.475  34.122   0.114
20905W        W92521  31.198  35.046  12.893
20906W        W92522  13.374  19.709  12.491
20907W        W92523  11.732  42.176   0.322
20908W        W92524  39.138  38.663  14.303
20909W        W92525  20.292   1.467  13.484
20910W        W92526  14.336  23.251   3.743
20911W        W92527  24.998  36.834  11.798
20912W        W92528  41.090  42.363  11.057
20913W        W92529   1.679  37.474  14.284
20914W        W92530  10.723  13.558   4.014
20915W        W92531  25.558  41.887   4.952
20916W        W92532  41.885  17.642   1.908
20917W        W92533  31.555  19.264   4.386
20918W        W92534   5.492  42.197  11.651
20919W        W92535  41.882   2.711  12.499
20920W        W92536   5.500  20.034  12.104
20921W        W92537  44.068  25.917   3.738
20922W        W92538  37.012   9.651   4.177
20923W        W92539  34.322  37.060   2.340
20924W        W92540  18.115   7.381   1.670
20925W        W92541  23.225  41.853  11.976
20926W        W92542   6.906  41.262   3.243
20927W        W92543  17.989  21.745  13.933
20928W        W92544  31.661   7.935  12.400
20929W        W92545   1.176  40.130   3.157
20930W        W92546   9.148  26.462  12.876
20931W        W92547   9.306   9.820  11.568
20932W        W92548  10.609  38.283  14.520
20933W        W92549  26.170  29.138  11.868
20934W        W92550   3.569   5.430  11.143
20935W        W92551   9.340  12.335   4.602
20936W        W92552  21.392  31.468  12.106
20937W        W92553   5.173  31.805   1.309
20938W        W92554  29.562  22.145   0.959
20939W        W92555  34.889  11.566  12.391
20940W        W92556   9.657  30.543  14.579
20941W        W92557  44.926  20.310   2.812
20942W        W92558  32.514  23.894   1.799
20943W        W92559  14.377  17.086   5.063
20944W        W92560  17.774  18.194  11.281
20945W        W92561  12.673  23.524  11.113
20946W        W92562  13.406   8.845  11.174
20947W        W92563  37.368  11.971   0.802
20948W        W92564  11.910  36.931   2.677
20949W        W92565  36.818   5.254   3.415
20950W        W92566  33.810  28.930  12.515
20951W        W92567  39.067  11.204   4.359
20952W        W92568   8.306   4.791   3.359
20953W        W92569   1.957  20.656  10.634
20954W        W92570   7.620  41.898  11.285
20955W        W92571  40.062  31.573  10.433
20956W        W92572  43.911  35.559   4.714
20957W        W92573   7.359   4.863   1.350
20958W        W92574   0.639  31.450   4.272
20959W        W92575  26.111  33.112  14.788
20960W        W92576  13.087   4.334  11.144
20961W        W92577  26.441  21.139   2.706
20962W        W92578   0.324  10.938   2.229
20963W        W92579  17.137  12.015   4.980
20964W        W92580  31.630   6.704  12.922
20965W        W92581  33.627  39.965   3.400
20966W        W92582  41.493  18.955  12.858
20967W        W92583   3.736  29.893  14.688
20968W        W92584  32.618   2.939   2.200
20969W        W92585   3.906   9.013  13.362
20970W        W92586  19.112  20.216  13.459
20971W        W92587   0.390  34.547   0.189
20972W        W92588   7.253  42.265  11.126
20973W        W92589  13.128  43.893   4.540
20974W        W92590  43.993  26.269  11.452
20975W        W92591  38.618  24.541   2.487
20976W        W92592   4.005  30.019  12.112
20977W        W92593  26.996  12.686   2.679
20978W        W92594  35.822  15.878  11.711
20979W        W92595  15.066  42.954   0.722
20980W        W92596  14.634  20.085  11.940
20981W        W92597  25.055  35.431  13.503
20982W        W92598  32.115  16.966  11.583
20983W        W92599   8.112   8.736  12.423
20984W        W92600  43.808  28.199   4.895
20985W        W92601  43.642  27.462  10.964
20986W        W92602  14.807  31.796   4.136
20987W        W92603  34.914  43.734   2.155
20988W        W92604   9.080  39.420   1.639
20989W        W92605   2.731  14.193  13.308
20990W        W92606  44.207  25.489  13.522
20991W        W92607   5.633  34.797   0.065
20992W        W92608  44.320   0.688   2.402
20993W        W92609   5.734  13.284  12.855
20994W        W92610   8.351   3.874  12.629
20995W        W92611  26.198  10.268  12.018
20996W        W92612  27.997  27.219  11.093
20997W        W92613  26.364  16.802  11.051
20998W        W92614  38.457  17.886  12.175
20999W        W92615  38.997  17.811  10.783
21000W        W92616  27.347   7.365  11.945
21001W        W92617  43.931  38.175  11.711
21002W        W92618  30.004  21.362  13.402
21003W        W92619   2.320  28.200  13.760
21004W        W92620  19.549  41.920   4.985
21005W        W92621  41.311  30.660   1.345
21006W        W92622  40.438  10.278  10.980
21007W        W92623   8.154  22.240  12.427
21008W        W92624  26.679   8.791  14.894
21009W        W92625  23.053  32.203   4.515
21010W        W92626  14.320  32.032   1.462
21011W        W92627   9.371  41.230   2.395
21012W        W92628  33.911  27.399  11.536
21013W        W92629  17.772  28.968   1.917
21014W        W92630  13.115  25.495  14.231
21015W        W92631  28.357  22.663   3.429
21016W        W92632  12.072  28.056   0.428
21017W        W92633  41.476   4.528   2.809
21018W        W92634  13.385  40.700  14.482
21019W        W92635   6.348  19.697   0.553
21020W        W92636  42.200  35.088  14.833
21021W        W92637  10.899  43.783  11.755
21022W        W92638  44.775  20.219   0.313
21023W        W92639  37.074  33.590   1.215
21024W        W92640  39.862  14.320  10.908
21025W        W92641  12.339  30.722  12.640
21026W        W92642   6.208   2.780  10.523
21027W        W92643   5.392  44.982  12.917
21028W        W92644   8.798  41.693   1.853
21029W        W92645  10.279  28.702   1.413
21030W        W92646  41.257   6.694   1.298
21031W        W92647  21.196  20.750  11.550
21032W        W92648  43.342  22.758   3.316
21033W        W92649   0.432  11.844   3.478
21034W        W92650   0.430  42.166   4.454
21035W        W92651  42.607  35.128   4.185
21036W        W92652  19.140  26.089   4.334
21037W        W92653  11.319  17.643  12.621
21038W        W92654  10.208  35.689  12.640
21039W        W92655   5.668  19.607   2.374
21040W        W92656  31.483  12.761   2.639
21041W        W92657  26.128  31.478  11.180
21042W        W92658  34.270  31.437   4.551
21043W        W92659   1.011  13.011   1.739
21044W        W92660  28.921  20.431   4.645
21045W        W92661  11.695  22.252   1.373
21046W        W92662  31.149  23.208  10.983
21047W        W92663  13.280  12.658  11.547
21048W        W92664   4.691  23.076  14.426
21049W        W92665  20.612  41.018  10.524
21050W        W92666  10.270   5.342  14.916
21051W        W92667  44.792  41.940  12.383
21052W        W92668  23.977  26.644   2.429
21053W        W92669  28.991  16.675   0.824
21054W        W92670  33.346  14.849  12.936
21055W        W92671  15.429  33.944  13.065
21056W        W92672  22.787  29.615   0.934
21057W        W92673  22.953   6.655  13.609
21058W        W92674   1.748  31.999  12.934
21059W        W92675  25.551  13.333  13.124
21060W        W92676  24.252   3.110   4.472
21061W        W92677  25.177   9.747   3.275
21062W        W92678  29.480  32.145  12.116
21063W        W92679  24.700  21.131   0.802
21064W        W92680  22.098  32.637   3.627
21065W        W92681  41.826  20.702  12.671
21066W        W92682  37.702  28.823   2.567
21067W        W92683  19.789  13.476  13.378
21068W        W92684  43.366  33.978   3.800
21069W        W92685  36.425   1.797  14.021
21070W        W92686  13.786  30.487   0.796
21071W        W92687  38.334  19.967   3.796
21072W        W92688  21.557   5.928   1.501
21073W        W92689  18.571  36.327  12.832
21074W        W92690  29.602   5.555   3.676
21075W        W92691  41.799  17.806   1.369
21076W        W92692  34.362  12.137   2.728
21077W        W92693  14.071  14.166   4.218
21078W        W92694  21.496  28.262  12.493
21079W        W92695  12.852  12.796  10.754
21080W        W92696  32.606  18.686   4.294
21081W        W92697  11.860  17.742  11.652
21082W        W92698  34.886   0.835  10.346
21083W        W92699   7.715   3.533  13.369
21084W        W92700  27.540   5.174   1.902
21085W        W92701  11.136  25.250   2.400
21086W        W92702  43.719  39.422  13.022
21087W        W92703  19.271   2.303   2.681
21088W        W92704  30.133  11.122  14.334
21089W        W92705  17.650  13.182   2.896
21090W        W92706   8.860  28.659  14.731
21091W        W92707  16.433   7.297  13.534
21092W        W92708  21.051  25.161  13.776
21093W        W92709  41.379   3.912   0.420
21094W        W92710  19.995   5.240  13.940
21095W        W92711   0.365  39.594   0.771
21096W        W92712   1.748   3.552  11.167
21097W        W92713   8.065  23.760  11.453
21098W        W92714  32.348  43.112  11.074
21099W        W92715  17.119  29.520   1.480
21100W        W92716   5.304   6.437  13.735
21101W        W92717  26.635  34.169  11.128
21102W        W92718  29.968   1.298  14.405
21103W        W92719   0.794  37.938   2.297
21104W        W92720  20.661   5.176  11.952
21105W        W92721  10.211   1.231   4.605
21106W        W92722  25.258   2.949  13.562
21107W        W92723  28.707  42.294  14.788
21108W        W92724  39.477  15.938   1.349
21109W        W92725  14.699  10.847  14.078
21110W        W92726  43.340   3.271   4.602
21111W        W92727   6.891  37.171   3.387
21112W        W92728  31.405  12.564  11.995
21113W        W92729   4.882  38.962  12.132
21114W        W92730  35.155   9.275   3.604
21115W        W92731  19.015  18.755   4.704
21116W        W92732   9.316  30.850   0.374
21117W        W92733  37.058  34.897   3.756
21118W        W92734  29.401  40.007   3.215
21119W        W92735   6.341   9.082  11.589
21120W        W92736  24.672  21.012   3.685
21121W        W92737  19.492  29.765   2.740
21122W        W92738  29.636  29.659   5.369
21123W        W92739  36.495  12.304   3.679
21124W        W92740  36.281  23.660   4.889
21125W        W92741  19.145   7.322  11.452
21126W        W92742  12.902  44.605   4.621
21127W        W92743  39.245  42.396  11.596
21128W        W92744  27.617  38.944   3.747
21129W        W92745  17.237  42.742   4.343
21130W        W92746   6.021  10.535   1.217
21131W        W92747  19.438  28.628   3.247
21132W        W92748  25.159   7.116  10.702
21133W        W92749  31.318  26.114  14.070
21134W        W92750   7.652  29.393   1.410
21135W        W92751  17.531  27.934   1.698
21136W        W92752  15.256  26.785   3.326
21137W        W92753   5.178  12.256  10.674
21138W        W92754  28.189  18.584  13.089
21139W        W92755   6.531   0.375  13.791
21140W        W92756  42.730  37.429  10.417
21141W        W92757  14.757  39.936  11.216
21142W        W92758  35.438   0.021   0.311
21143W        W92759  16.619  44.361   3.881
21144W        W92760  22.228  14.166   1.000
21145W        W92761  35.533  44.069  11.614
21146W        W92762  35.869  18.806   4.505
21147W        W92763  30.691  38.540   1.768
21148W        W92764  34.154  28.946   2.967
21149W        W92765  29.823  42.261   0.297
21150W        W92766  22.073  12.001   4.038
21151W        W92767  39.837  22.923  11.811
21152W        W92768  44.636  26.376  13.380
21153W        W92769  23.982  43.826   0.255
21154W        W92770  42.554  23.639  12.934
21155W        W92771  16.743  39.110   1.873
21156W        W92772  31.722  12.352   0.809
21157W        W92773   5.207  14.392  10.741
21158W        W92774   6.554   1.913   1.963
21159W        W92775  17.633  31.653  12.431
21160W        W92776  43.902  26.663   1.921
21161W        W92777  24.217  13.877   3.176
21162W        W92778   1.024   5.894   4.048
21163W        W92779  34.643  15.628   3.655
21164W        W92780  27.291  31.620  14.308
21165W        W92781  26.426  32.741   3.910
21166W        W92782  21.573  26.437  10.997
21167W        W92783  25.054   9.111  11.625
21168W        W92784   7.745  21.377  13.779
21169W        W92785  42.478  16.949  12.167
21170W        W92786   8.095  16.271   4.538
21171W        W92787  25.540  25.073   2.400
21172W        W92788  15.252  10.202   3.689
21173W        W92789  38.160  12.759  12.087
21174W        W92790  20.586  16.195  12.367
21175W        W92791  26.800   1.216   0.450
21176W        W92792  23.120  25.640  11.617
21177W        W92793   5.767  30.594  13.521
21178W        W92794   7.981  10.215   1.465
21179W        W92795  26.719  14.889   0.913
21180W        W92796  37.571  29.229   1.287
21181W        W92797  36.520   9.188   1.714
21182W        W92798  13.119  21.524   0.375
21183W        W92799  17.668  40.600  11.873
21184W        W92800  32.095  26.308  13.634
21185W        W92801  25.591  37.317   0.893
21186W        W92802  42.195  13.803  13.341
21187W        W92803   1.427  43.509  11.699
21188W        W92804  21.605  15.339   1.285
21189W        W92805   1.846  29.114  11.944
21190W        W92806  35.449  33.615  14.057
21191W        W92807  21.479  22.053   1.012
21192W        W92808  40.845  28.738   1.298
21193W        W92809  23.253  10.042   9.945
21194W        W92810  22.940  15.871   2.891
21195W        W92811  20.158  38.342  14.314
21196W        W92812  10.871  15.374   0.199
21197W        W92813  25.008  37.303  13.878
21198W        W92814  39.863  33.730  11.976
21199W        W92815  25.912  17.637  11.074
21200W        W92816   9.264  42.374   1.492
21201W        W92817  18.294  44.407   0.899
21202W        W92818  30.649  12.628   2.244
21203W        W92819  41.356   1.889   4.478
21204W        W92820   4.709  20.498  13.547
21205W        W92821  23.993  43.507   0.942
21206W        W92822  36.229  28.894   0.755
21207W        W92823  13.577  26.866  11.578
21208W        W92824  35.494   1.003   0.275
21209W        W92825  30.222   0.494   2.275
21210W        W92826  35.979  24.693   1.581
21211W        W92827  41.560  25.089  14.694
21212W        W92828   0.296   4.695   3.255
21213W        W92829  28.121  41.057  14.052
21214W        W92830   6.608  34.617   4.093
21215W        W92831  23.274  29.397  13.358
21216W        W92832  43.376   4.504   1.915
21217W        W92833  39.944  39.848   2.380
21218W        W92834  26.539  29.702   0.295
21219W        W92835  15.694  40.089   2.834
21220W        W92836   9.153  27.423   0.039
21221W        W92837  19.822  32.487  11.210
21222W        W92838  12.721  22.474  11.925
21223W        W92839   6.585  23.571  10.968
21224W        W92840   7.322  22.771   1.340
21225W        W92841   0.473  35.963   2.443
21226W        W92842  16.687  30.960  12.968
21227W        W92843  26.400  33.124   3.580
21228W        W92844  23.701  31.794   1.885
21229W        W92845  11.379  12.602  14.659
21230W        W92846   0.320  23.770   4.708
21231W        W92847  24.139   1.278   1.732
21232W        W92848  17.198  40.853   4.378
21233W        W92849  20.276  38.357  13.318
21234W        W92850  13.104  35.557  11.908
21235W        W92851  27.170  14.401   4.693
21236W        W92852  10.589  24.633  11.610
21237W        W92853  15.180   4.748  13.035
21238W        W92854  20.530  15.602  11.022
21239W        W92855  37.439  12.299   3.611
21240W        W92856  27.033  36.397  12.056
21241W        W92857  37.643  28.956  13.021
21242W        W92858  26.110  16.355  10.671
21243W        W92859  12.052  42.428  11.161
21244W        W92860   7.857  24.831   2.701
21245W        W92861   6.884  26.667   3.351
21246W        W92862   9.608  26.028   0.981
21247W        W92863  26.695   5.695   0.356
21248W        W92864  24.183  16.954  14.806
21249W        W92865  35.686  38.878   2.258
21250W        W92866  43.823  18.695  14.204
21251W        W92867  28.661   6.269  11.883
21252W        W92868  14.603  14.263   3.567
21253W        W92869   4.962  44.024  11.462
21254W        W92870   3.313  13.083   4.769
21255W        W92871  33.356  35.430   3.858
21256W        W92872  32.578   6.636  14.979
21257W        W92873  16.645   7.837   1.399
21258W        W92874  14.052   5.842   3.656
21259W        W92875   7.890  39.011   1.363
21260W        W92876   4.762  18.385  12.912
21261W        W92877   4.111  19.098   0.145
21262W        W92878  39.368   9.647  10.575
21263W        W92879  22.345  13.283  12.522
21264W        W92880  36.915  44.367  10.616
21265W        W92881   3.467  21.471  12.392
21266W        W92882   0.465  14.482  13.227
21267W        W92883  43.255  11.140  13.834
21268W        W92884  36.459  36.596   2.193
21269W        W92885  17.752  14.619  12.282
21270W        W92886  13.062  15.682   2.747
21271W        W92887  33.490   9.646   1.730
21272W        W92888   0.620  12.748  12.479
21273W        W92889  18.923  22.966  13.937
21274W        W92890  25.083  41.808  11.353
21275W        W92891  26.171  40.387  14.449
21276W        W92892  41.808   2.433  14.333
21277W        W92893  41.044  38.090  10.621
21278W        W92894  31.462  18.583   1.467
21279W        W92895   5.827  19.230   3.600
21280W        W92896  15.867  10.031   3.049
21281W        W92897  43.238  22.673  14.527
21282W        W92898  17.270  25.643   1.250
21283W        W92899  26.328  16.656   4.961
21284W        W92900  33.359   9.150  11.479
21285W        W92901  26.074   0.528   3.351
21286W        W92902  29.127  13.390  11.131
21287W        W92903  40.046  12.942   0.425
21288W        W92904  40.919  31.556   4.782
21289W        W92905  25.608  17.076  14.768
21290W        W92906  18.850   1.411  13.220
21291W        W92907  16.243  32.721  11.967
21292W        W92908  25.178  18.562  14.502
21293W        W92909  33.582  44.398  14.938
21294W        W92910  22.976  38.409  14.409
21295W        W92911  25.292  35.835   0.327
21296W        W92912  13.119  11.259   0.210
21297W        W92913   1.973  40.906   0.548
21298W        W92914   6.371  37.874  11.902
21299W        W92915   9.237  33.080  12.450
21300W        W92916  12.819  12.733  12.130
21301W        W92917   7.901  24.327   3.588
21302W        W92918  38.196  18.400  14.012
21303W        W92919  26.687  37.548   2.301
21304W        W92920  33.971  26.948   0.498
21305W        W92921  13.401  31.937  11.077
21306W        W92922  24.036  10.207   1.016
21307W        W92923   3.416  38.582   0.979
21308W        W92924  11.158  18.725   2.784
21309W        W92925   3.366  37.862   3.648
21310W        W92926  28.616  31.365  14.784
21311W        W92927  20.004   5.513   4.148
21312W        W92928  23.347  29.845   2.549
21313W        W92929  37.430  38.995   1.691
21314W        W92930  22.765  38.826   3.649
21315W        W92931   8.343  34.013   3.262
21316W        W92932   9.258  25.537  14.707
21317W        W92933  29.391  34.761  11.995
21318W        W92934  22.444  31.408  12.051
21319W        W92935  10.307  12.632  10.149
21320W        W92936  40.819  24.763   4.199
21321W        W92937   1.908   7.154   4.130
21322W        W92938  25.017   6.923  12.017
21323W        W92939  15.823   5.982  12.082
21324W        W92940  30.043  31.512   3.638
21325W        W92941   2.849  42.252  12.638
21326W        W92942  29.079  15.671   1.095
21327W        W92943   8.549  11.326   3.365
21328W        W92944  29.646  41.733  12.868
21329W        W92945  13.687   9.232   2.925
21330W        W92946  28.953  27.147  12.747
21331W        W92947  39.421  20.107  10.545
21332W        W92948  13.237  27.767   4.521
21333W        W92949  11.953  36.483  14.991
21334W        W92950   8.154   1.778   2.361
21335W        W92951  36.344  17.685   0.349
21336W        W92952   8.174  43.531   4.127
21337W        W92953  44.250  24.581  12.578
21338W        W92954  12.949   6.295  10.240
21339W        W92955  22.878  44.843  13.777
21340W        W92956  14.724  36.904   2.625
21341W        W92957  24.274  28.179   4.194
21342W        W92958  16.653   9.390  14.289
21343W        W92959  44.581   9.635  12.896
21344W        W92960   0.827   8.436  13.528
21345W        W92961  15.940  35.147   0.539
21346W        W92962   9.633  40.303  12.970
21347W        W92963  27.221  34.639  11.602
21348W        W92964   4.785  35.301  14.909
21349W        W92965  42.740  12.087   0.462
21350W        W92966  22.802   5.359  14.343
21351W        W92967  16.757  11.080   1.750
21352W        W92968  19.213  25.992   2.891
21353W        W92969  10.876  31.162   1.968
21354W        W92970  20.253   0.032  14.324
21355W        W92971  24.991  43.444   0.411
21356W        W92972  34.124  44.780  14.105
21357W        W92973  17.789  16.802  10.973
21358W        W92974  35.544  11.701   3.406
21359W        W92975   9.872  21.744  12.055
21360W        W92976   6.690  42.363   0.930
21361W        W92977   3.964  38.647   0.272
21362W        W92978  23.173   5.920   1.642
21363W        W92979  43.736   6.402   0.873
21364W        W92980  28.056  14.073  12.097
21365W        W92981  20.529  18.629  10.999
21366W        W92982  41.786  43.076   3.635
21367W        W92983  40.520  32.204   2.151
21368W        W92984  13.696  25.018  11.951
21369W        W92985  39.890  29.168   2.090
21370W        W92986  17.110  38.470  11.000
21371W        W92987  29.589  39.355   2.077
21372W        W92988  26.662  28.958  11.543
21373W        W92989  38.007   6.902   3.357
21374W        W92990  29.028  37.660   0.309
21375W        W92991   0.036   2.838  14.921
21376W        W92992  25.143  17.943   4.842
21377W        W92993  10.759   6.597  11.959
21378W        W92994  39.515  37.554  12.074
21379W        W92995  41.467  37.496   3.688
21380W        W92996  13.790  22.091  12.625
21381W        W92997  26.542  18.084  10.833
21382W        W92998  37.173  35.947   2.475
21383W        W92999   1.898  15.995  10.730
21384W        W93000  35.972   7.516   3.162
21385W        W93001  12.325  18.709  10.848
21386W        W93002  36.355  21.011   4.900
21387W        W93003  24.395  43.491   4.273
21388W        W93004   5.636   8.727   4.199
21389W        W93005  31.454   0.969  11.933
21390W        W93006   6.146  23.443  11.645
21391W        W93007  44.200   5.694   3.598
21392W        W93008  37.886   1.459  11.713
21393W        W93009  35.501   0.533   1.345
21394W        W93010  20.624  26.273   0.163
21395W        W93011  17.294   8.878   3.176
21396W        W93012  33.943  10.405  13.464
21397W        W93013  22.655   1.905  13.484
21398W        W93014   7.468  17.054   4.536
21399W        W93015   1.472  35.136  14.408
21400W        W93016  10.253  37.837  11.576
21401W        W93017  18.583  33.233  10.777
21402W        W93018   3.184   5.368  12.922
21403W        W93019  23.026   1.158  13.421
21404W        W93020  44.462  15.975  11.330
21405W        W93021  18.119  15.642   3.238
21406W        W93022  40.179  15.299  11.077
21407W        W93023   4.830   3.441   1.225
21408W        W93024  11.377   6.723  14.374
21409W        W93025   2.050  29.007  12.399
21410W        W93026   1.491  37.522   4.931
21411W        W93027  14.153  37.029  13.437
21412W        W93028  21.597  41.036  14.527
21413W        W93029  43.537  30.884  12.664
21414W        W93030   1.667  17.769   4.731
21415W        W93031  41.903  28.317  12.572
21416W        W93032  15.299  26.725  14.547
21417W        W93033  24.535  39.600   2.481
21418W        W93034  36.596  41.539   2.812
21419W        W93035  38.914  35.177   2.330
21420W        W93036  36.432  24.180  14.192
21421W        W93037  34.332  24.294  11.394
21422W        W93038  19.245  26.992   0.237
21423W        W93039  14.412  12.351   2.629
21424W        W93040  43.327  34.434  11.731
21425W        W93041  14.671   9.794  12.465
21426W        W93042  24.119  29.362  12.564
21427W        W93043  33.481  31.617   3.572
21428W        W93044  40.369  11.633  11.868
21429W        W93045  26.704  18.376  12.937
21430W        W93046   1.309  42.059  14.831
21431W        W93047   8.777  34.890  12.029
21432W        W93048  37.289  34.074   2.393
21433W        W93049  21.926  39.352  13.493
21434W        W93050  35.894  16.538   1.311
21435W        W93051  12.584  16.877   3.728
21436W        W93052  29.147   1.451  13.977
21437W        W93053  24.117  25.441   2.874
21438W        W93054  26.735  44.187  14.247
21439W        W93055  10.549  15.806   2.758
21440W        W93056  26.924  15.166  11.590
21441W        W93057  19.670  28.621   1.858
21442W        W93058  25.584  25.665  11.387
21443W        W93059   3.380  41.361   3.120
21444W        W93060  24.191   8.215   1.413
21445W        W93061  19.041  41.501   1.365
21446W        W93062   9.754   7.416  13.017
21447W        W93063  30.912   6.892  10.727
21448W        W93064   8.890   5.433   3.885
21449W        W93065  43.389  12.631   2.319
21450W        W93066   0.687   8.246   3.009
21451W        W93067  12.078  30.578   2.038
21452W        W93068  43.856  41.593   4.616
21453W        W93069  12.351  32.064  12.507
21454W        W93070  32.640   0.278   4.039
21455W        W93071  41.349  40.048  12.972
21456W        W93072  40.535  17.204  10.076
21457W        W93073   7.234  14.573  14.021
21458W        W93074  32.465  24.867   2.294
21459W        W93075  41.355  23.790   2.635
21460W        W93076  34.253   2.100   5.101
21461W        W93077  22.039   9.475  10.729
21462W        W93078  26.961  43.415   2.464
21463W        W93079  34.416   5.125  14.730
21464W        W93080  27.561  18.603   2.920
21465W        W93081  31.353  28.000  14.114
21466W        W93082  12.835  13.863   3.310
21467W        W93083  44.320  43.317  14.986
21468W        W93084  12.884  21.774   0.792
21469W        W93085  11.274  11.170   2.238
21470W        W93086  30.433  31.853  13.525
21471W        W93087  19.858  18.574   3.660
21472W        W93088   1.022   2.982  13.778
21473W        W93089  30.587  19.690  13.799
21474W        W93090  14.694   6.171  11.919
21475W        W93091  18.047  24.503   1.762
21476W        W93092   2.850  23.728   0.758
21477W        W93093  41.957  36.437  14.520
21478W        W93094  16.342  26.801  12.055
21479W        W93095  43.273  22.860  11.085
21480W        W93096   2.240  38.603   2.723
21481W        W93097  20.270   5.724   2.158
21482W        W93098  44.181  18.213   2.018
21483W        W93099  27.177   7.634  10.665
21484W        W93100  16.267  13.203  10.722
21485W        W93101  42.747  43.524  11.154
21486W        W93102  20.176  29.221   3.205
21487W        W93103   1.706   1.049  13.957
21488W        W93104  40.647  30.245   0.184
21489W        W93105  28.608  21.632  14.958
21490W        W93106  33.021  18.750   1.174
21491W        W93107   7.851  35.927  13.448
21492W        W93108  24.356   1.955   2.054
21493W        W93109  14.693  42.215  11.082
21494W        W93110  17.734  22.940  13.344
21495W        W93111  17.305  32.589  12.534
21496W        W93112  28.485  11.246  11.537
21497W        W93113  28.488  13.618  14.948
21498W        W93114  27.200  11.856  11.177
21499W        W93115  17.148   7.692  11.409
21500W        W93116  34.126  27.455   1.345
21501W        W93117  26.251  12.437   4.582
21502W        W93118   3.340  22.113   9.981
21503W        W93119  13.373  32.215  10.286
21504W        W93120  11.555  13.098  12.006
21505W        W93121   4.278  25.146   1.623
21506W        W93122  24.113   2.771   1.658
21507W        W93123  13.604  29.449  13.884
21508W        W93124  43.599  11.190   2.084
21509W        W93125  31.239   2.557   0.802
21510W        W93126  16.110  31.493   4.715
21511W        W93127  42.442  34.115   2.723
21512W        W93128  13.362   5.286  12.013
21513W        W93129  37.008  34.057   0.911
21514W        W93130  24.371   8.652   0.733
21515W        W93131  15.317   3.258   0.431
21516W        W93132  40.224  32.755  11.257
21517W        W93133  29.488  29.513   1.821
21518W        W93134  10.811  25.488  14.761
21519W        W93135  13.576  21.878  13.059
21520W        W93136  39.930  34.858  11.658
21521W        W93137   9.711  17.319  12.347
21522W        W93138  31.700  19.788   4.717
21523W        W93139  14.217  18.784   0.334
21524W        W93140   1.201  27.507   0.752
21525W        W93141   6.699  32.528  14.041
21526W        W93142   9.856  44.726  12.538
21527W        W93143  44.645  34.394   3.709
21528W        W93144  14.264  38.507   1.141
21529W        W93145  29.390  19.720  10.283
21530W        W93146  16.294  39.599   4.498
21531W        W93147  40.986   3.136  11.982
21532W        W93148  35.426  24.321  11.162
21533W        W93149   9.463  25.306  10.775
21534W        W93150  27.147  17.051  10.186
21535W        W93151  38.356  35.559   3.613
21536W        W93152  41.457  41.054  12.958
21537W        W93153   4.466  43.435  10.710
21538W        W93154   7.438  17.536   3.389
21539W        W93155  33.656  38.104  11.099
21540W        W93156  38.325   4.213  13.928
21541W        W93157  44.611  19.607   3.122
21542W        W93158   4.204  13.203  13.494
21543W        W93159  29.983  12.816  14.360
21544W        W93160  19.751  34.290  14.719
21545W        W93161  20.789  22.027  14.963
21546W        W93162  27.587  14.650   0.757
21547W        W93163  15.172  42.836   1.805
21548W        W93164  30.456  14.082   0.850
21549W        W93165   4.273  34.882  10.757
21550W        W93166  16.540  18.612  11.196
21551W        W93167  21.046  17.661   3.918
21552W        W93168  17.149  14.724  11.998
21553W        W93169  36.933  43.476   0.253
21554W        W93170  26.618   9.816   9.893
21555W        W93171  19.211  40.316  12.906
21556W        W93172   2.659  16.054  11.557
21557W        W93173   5.668  28.412  11.361
21558W        W93174  15.784  21.220   4.670
21559W        W93175  27.062  22.675  11.018
21560W        W93176  14.020   7.918   2.359
21561W        W93177  24.443   8.413   4.220
21562W        W93178   8.596  35.691   0.926
21563W        W93179  16.032   8.383   4.344
21564W        W93180  17.155  31.187  12.881
21565W        W93181  19.347  19.646   4.266
21566W        W93182  20.016   6.321  13.378
21567W        W93183  27.085   6.854  13.458
21568W        W93184  27.698   4.689   3.659
21569W        W93185   9.881   0.282  11.621
21570W        W93186  14.043  43.051   0.530
21571W        W93187  35.216  19.252  13.493
21572W        W93188   6.671  41.977  13.716
21573W        W93189   0.070   3.856  12.589
21574W        W93190   6.236  44.702  11.565
21575W        W93191  29.639  44.840   1.497
21576W        W93192   7.972   9.673  14.754
21577W        W93193  13.001  39.507  11.051
21578W        W93194   2.048   6.844   1.328
21579W        W93195   5.065   0.900   3.195
21580W        W93196   5.018   0.032  12.133
21581W        W93197   0.370   6.930  12.687
21582W        W93198  35.123  16.892   3.133
21583W        W93199   1.756  33.116  12.978
21584W        W93200  36.325  15.769   3.040
21585W        W93201  32.986  25.228   2.890
21586W        W93202  40.808  41.357  11.166
21587W        W93203  37.522  15.294   1.455
21588W        W93204  18.283  12.841   2.623
21589W        W93205  33.038  28.490  14.988
21590W        W93206  41.773  43.586  11.912
21591W        W93207  26.941  13.244   5.265
21592W        W93208  33.398  11.547   0.242
21593W        W93209  22.531  37.977  11.181
21594W        W93210  26.857  26.531  12.631
21595W        W93211  15.991  34.635   4.654
21596W        W93212  30.925   8.124   1.793
21597W        W93213  19.886  41.937  12.422
21598W        W93214  14.350  30.975  11.052
21599W        W93215   2.447  16.545   2.768
21600W        W93216  23.728  44.758  12.095
21601W        W93217  27.015  30.439  12.911
21602W        W93218  44.790  17.196  11.413
21603W        W93219   4.641  25.553  10.655
21604W        W93220   0.314  35.044  12.489
21605W        W93221  12.373  26.844  13.118
21606W        W93222   9.703   7.141   0.979
21607W        W93223  36.469  21.965  13.436
21608W        W93224  17.566  26.068  11.277
21609W        W93225  24.267  37.825   2.608
21610W        W93226   0.752  29.438   1.281
21611W        W93227  29.000  40.725  13.994
21612W        W93228   0.810  34.852  13.470
21613W        W93229  10.777  36.861  14.274
21614W        W93230  38.600   8.100   0.777
21615W        W93231   6.793  39.305   4.631
21616W        W93232  10.973  26.633   4.534
21617W        W93233  42.896  25.537   4.735
21618W        W93234   7.374  30.949   2.900
21619W        W93235  36.544  25.822  14.410
21620W        W93236  33.576   2.615  12.643
21621W        W93237  16.511  33.856  12.070
21622W        W93238  10.293  31.199   0.714
21623W        W93239  43.618  39.905   0.894
21624W        W93240  17.300  27.296   4.006
21625W        W93241  20.055  31.883   3.759
21626W        W93242  43.948  22.011  11.423
21627W        W93243  23.603  22.360   4.110
21628W        W93244  15.094   0.845  11.604
21629W        W93245   3.273   1.143   1.263
21630W        W93246   9.930  43.226  13.496
21631W        W93247  32.372  29.175   3.103
21632W        W93248  14.369  24.733   0.583
21633W        W93249  27.500  40.954   0.374
21634W        W93250   3.750  43.827  14.899
21635W        W93251  38.026   7.361  11.064
21636W        W93252  41.469  31.748   3.116
21637W        W93253  40.614  43.031  13.219
21638W        W93254  41.454  37.531   4.589
21639W        W93255  21.254   5.277   2.383
21640W        W93256  30.004  10.850   2.261
21641W        W93257  21.635   2.941   4.080
21642W        W93258   5.247  10.772   3.843
21643W        W93259  31.576  10.295  14.626
21644W        W93260  30.912   4.909   1.453
21645W        W93261  26.451  30.611  10.230
21646W        W93262   6.075  35.077  12.080
21647W        W93263  23.716   2.128   2.116
21648W        W93264  18.157  25.561   3.641
21649W        W93265  10.602   5.317  12.223
21650W        W93266   7.312  32.364   4.685
21651W        W93267  10.327  14.036   2.907
21652W        W93268  15.392   0.109  14.526
21653W        W93269  11.858  23.473   0.887
21654W        W93270  37.423  36.912   4.763
21655W        W93271  37.899  25.739   4.569
21656W        W93272  19.687   1.557   1.699
21657W        W93273  15.753  20.093   4.645
21658W        W93274  22.094  35.565   0.294
21659W        W93275  10.428   4.799  14.778
21660W        W93276  24.765  23.805  11.071
21661W        W93277  38.598  42.777   0.915
21662W        W93278  11.721   8.094   2.662
21663W        W93279  43.872  10.284  14.011
21664W        W93280  44.563  42.173   4.972
21665W        W93281   1.416  15.723  11.209
21666W        W93282  26.902   3.399   4.173
21667W        W93283   4.205  14.522   1.770
21668W        W93284  19.704  29.141   3.405
21669W        W93285  27.686  17.277   5.049
21670W        W93286   7.614  37.557   3.177
21671W        W93287  40.361  18.539  13.543
21672W        W93288   8.872  10.723   2.263
21673W        W93289   4.919  16.261   1.813
21674W        W93290  32.443   3.348  12.078
21675W        W93291  14.091  27.078  10.689
21676W        W93292  18.271  40.359   0.507
21677W        W93293   2.811   0.398  10.702
21678W        W93294  32.022  19.456  10.512
21679W        W93295  31.908  35.934   1.791
21680W        W93296  35.890  37.129   4.959
21681W        W93297  21.038  33.391  11.585
21682W        W93298  19.226   0.743   0.156
21683W        W93299   2.970  42.517   2.696
21684W        W93300  15.284  35.928  10.783
21685W        W93301   6.313   0.533   3.662
21686W        W93302  24.985  21.701  13.936
21687W        W93303  41.439  29.347  14.459
21688W        W93304   1.131  36.086  10.414
21689W        W93305  40.920  12.168  10.667
21690W        W93306  29.515  40.852  12.881
21691W        W93307   8.638  17.542  12.423
21692W        W93308  10.738  42.772  11.985
21693W        W93309   5.632  20.233  14.397
21694W        W93310  12.797  10.114  12.940
21695W        W93311  40.912  43.338   1.219
21696W        W93312   4.582  19.811  14.212
21697W        W93313   4.874  25.679  11.427
21698W        W93314  35.813  12.893   1.539
21699W        W93315  14.671  19.021   0.271
21700W        W93316   2.663  13.448  13.539
21701W        W93317  20.112  29.359  14.915
21702W        W93318  17.476  21.399   2.417
21703W        W93319   7.200   5.217   0.393
21704W        W93320   8.211  11.229   2.346
21705W        W93321  32.386   4.450   1.480
21706W        W93322  19.042  44.939   0.427
21707W        W93323  39.373  28.000   2.762
21708W        W93324  29.680  40.357  10.482
21709W        W93325  15.825  14.693   2.105
21710W        W93326   9.878  21.543  11.543
21711W        W93327  26.868   3.897   2.605
21712W        W93328  41.084  41.581  11.541
21713W        W93329  26.736  35.482   3.753
21714W        W93330  20.790  16.819   2.645
21715W        W93331  33.052  24.692   1.691
21716W        W93332  20.104  17.200  11.466
21717W        W93333  10.325  43.560  11.975
21718W        W93334  29.452   5.793  13.501
21719W        W93335  37.663   3.953   4.150
21720W        W93336   5.801  17.351   1.707
21721W        W93337  39.335   2.081   2.160
21722W        W93338   5.200   5.257  13.136
21723W        W93339  33.414  10.858   1.433
21724W        W93340   0.418  20.547   1.411
21725W        W93341  39.677  18.773   0.380
21726W        W93342  38.998  17.233  11.536
21727W        W93343  15.620   7.205  10.683
21728W        W93344  20.255  33.895  13.824
21729W        W93345  12.251  37.327  12.240
21730W        W93346  29.669  17.669  14.944
21731W        W93347   4.889  12.912   1.327
21732W        W93348   3.191  32.295   9.969
21733W        W93349  23.457  36.062   1.818
21734W        W93350   1.226   4.407   4.473
21735W        W93351  17.778   8.379   4.603
21736W        W93352  19.619   5.570   2.873
21737W        W93353  12.196  36.366  12.411
21738W        W93354  33.890   8.900   1.759
21739W        W93355  40.766  10.530   4.834
21740W        W93356  22.738   4.277  13.967
21741W        W93357  40.991  24.312  12.620
21742W        W93358  15.360   5.516  14.982
21743W        W93359   5.270  41.981  13.329
21744W        W93360  11.068  30.152   0.415
21745W        W93361  19.352  38.883  14.894
21746W        W93362  24.098   2.827  10.914
21747W        W93363  15.924  28.257   4.982
21748W        W93364  13.847  14.090  12.873
21749W        W93365  13.747   1.888   2.469
21750W        W93366  14.573  36.424   3.604
21751W        W93367  16.580   7.110  13.083
21752W        W93368  32.130  44.172  10.421
21753W        W93369   7.031  33.919   0.225
21754W        W93370  32.548  40.992   1.913
21755W        W93371   4.166  43.325  12.954
21756W        W93372   5.742  43.143  12.004
21757W        W93373  42.061   1.909   2.253
21758W        W93374  27.537  19.735  13.339
21759W        W93375  18.666  43.554   3.398
21760W        W93376  26.778  22.962   0.427
21761W        W93377  42.380  20.509  11.068
21762W        W93378  25.179  33.471  12.424
21763W        W93379  37.512  44.722   0.181
21764W        W93380  25.666  43.837  12.899
21765W        W93381  37.058  19.166   2.210
21766W        W93382  34.605  37.205  11.013
21767W        W93383  31.969  37.941   0.743
21768W        W93384  44.435  29.458  11.475
21769W        W93385  24.569  35.892   4.601
21770W        W93386   0.564  23.788   1.595
21771W        W93387  39.766  37.594  11.179
21772W        W93388  32.504  28.588   4.432
21773W        W93389  25.178  26.246  14.889
21774W        W93390  15.764  27.658  11.171
21775W        W93391  17.076  40.226  11.289
21776W        W93392  28.083  22.089   0.282
21777W        W93393  34.956  21.016  14.592
21778W        W93394  30.988  27.706   1.627
21779W        W93395  21.694  35.136   1.626
21780W        W93396   9.411  44.785   1.890
21781W        W93397  21.356   7.206  12.913
21782W        W93398  19.198   3.633  11.509
21783W        W93399   0.358  36.042   0.163
21784W        W93400  15.604  20.772  14.416
21785W        W93401  15.167   3.932   1.829
21786W        W93402  12.132  22.477  11.574
21787W        W93403   4.149   9.400   3.701
21788W        W93404  10.821   2.861  14.631
21789W        W93405  18.251   0.275   4.676
21790W        W93406  34.394  22.146  12.389
21791W        W93407  42.721   6.889  13.941
21792W        W93408  34.376   9.234  14.789
21793W        W93409  41.849   3.350  14.250
21794W        W93410  38.188   3.292   4.681
21795W        W93411  11.966   4.362  14.433
21796W        W93412  33.403  27.954   2.382
21797W        W93413  18.255  35.004  13.597
21798W        W93414   1.505   3.288  11.536
21799W        W93415  18.714  44.541  10.687
21800W        W93416  14.565  43.018  14.733
21801W        W93417  29.513  17.979  13.064
21802W        W93418   0.884  11.641   4.115
21803W        W93419   3.464  14.206   3.314
21804W        W93420  26.575  19.523  11.354
21805W        W93421   5.497  21.063   0.903
21806W        W93422   5.300  41.850  11.967
21807W        W93423  27.368  23.703   4.096
21808W        W93424  26.194   7.208   3.364
21809W        W93425  35.017  33.575   3.224
21810W        W93426  26.136  11.859  11.207
21811W        W93427  34.920   1.229  10.691
21812W        W93428  27.251  10.614  13.948
21813W        W93429   8.757   4.396  13.251
21814W        W93430  23.023  30.030   0.105
21815W        W93431  43.413   2.890  11.508
21816W        W93432  13.663  11.218  10.725
21817W        W93433  41.898  23.719   2.912
21818W        W93434   9.384  23.059  14.868
21819W        W93435  25.193  43.527  10.550
21820W        W93436   3.201  44.365  13.790
21821W        W93437   1.364   0.839   2.794
21822W        W93438   4.753  11.411  12.066
21823W        W93439  12.997   5.495   1.590
21824W        W93440  26.169  14.075   2.668
21825W        W93441   8.388   2.922   2.684
21826W        W93442   5.949  32.200  10.157
21827W        W93443  12.098  42.734  10.239
21828W        W93444  31.972  11.380  14.514
21829W        W93445  39.182   8.783  14.558
21830W        W93446  30.611  34.852   1.273
21831W        W93447  31.551  43.566  10.091
21832W        W93448  26.187  19.837  11.206
21833W        W93449  10.598  29.575   0.364
21834W        W93450  40.402  33.248  14.357
21835W        W93451  18.177   9.859   1.194
21836W        W93452  24.948  17.545  12.904
21837W        W93453  43.643  36.882  12.025
21838W        W93454  30.056   2.670   2.668
21839W        W93455  44.880  10.915  14.469
21840W        W93456   3.412  29.580   3.633
21841W        W93457  12.924  34.583  13.597
21842W        W93458  19.671  33.384  12.455
21843W        W93459  28.187  35.846  14.422
21844W        W93460  40.993   8.006  14.537
21845W        W93461  39.064  41.351   0.821
21846W        W93462   5.693  23.219   4.171
21847W        W93463  20.538  34.481  13.419
21848W        W93464  32.408  13.662  12.153
21849W        W93465  41.491  28.644  13.034
21850W        W93466   7.995  14.660  14.551
21851W        W93467  16.592  14.229   0.372
21852W        W93468   7.161   5.207  12.481
21853W        W93469  33.637  22.957   0.773
21854W        W93470  41.620  17.208   3.675
21855W        W93471  28.402  28.139  13.109
21856W        W93472  25.095  10.132   1.200
21857W        W93473  33.321  33.693   5.073
21858W        W93474  43.561  28.963  12.493
21859W        W93475   0.185  17.714   0.816
21860W        W93476   7.469  27.082  11.541
21861W        W93477   4.958   7.122   2.864
21862W        W93478   6.964  19.194   4.150
21863W        W93479  43.614  10.628  11.949
21864W        W93480  21.377  19.726   1.707
21865W        W93481  14.869  39.268  14.333
21866W        W93482  16.128  12.662  14.744
21867W        W93483  40.708  21.182   4.614
21868W        W93484   9.371   3.316   0.743
21869W        W93485  30.643  18.335   3.918
21870W        W93486  25.687  14.733   3.255
21871W        W93487  32.370  33.372   3.674
21872W        W93488  23.715   5.217  12.882
21873W        W93489  41.023  29.909   0.581
21874W        W93490   2.568  42.730  13.093
21875W        W93491  31.652  27.631   3.296
21876W        W93492   0.232  31.849  10.761
21877W        W93493  24.272  43.018   3.322
21878W        W93494  25.280  33.006  11.261
21879W        W93495  37.627   8.830   4.147
21880W        W93496  19.134  37.346  14.621
21881W        W93497   2.857  30.332  13.719
21882W        W93498  32.916   4.058  14.303
21883W        W93499  30.979  28.644  13.798
21884W        W93500   0.235  28.192  13.843
21885W        W93501  35.460   3.447  13.748
21886W        W93502  35.623  26.987   4.234
21887W        W93503  18.254  29.769  11.634
21888W        W93504  14.299   3.294  13.354
21889W        W93505  10.892  39.436   4.817
21890W        W93506   9.306  11.922  14.475
21891W        W93507   6.447  14.609   0.949
21892W        W93508  13.149  13.121  10.497
21893W        W93509   1.472  13.134  13.590
21894W        W93510   3.181  38.034   1.819
21895W        W93511  21.189   3.463   1.741
21896W        W93512  31.418  31.782  14.547
21897W        W93513  42.472   0.420   4.176
21898W        W93514  14.505  32.859  13.886
21899W        W93515   4.272  16.302   4.170
21900W        W93516  28.461  24.060   2.764
21901W        W93517  41.740  16.811  12.114
21902W        W93518  15.298  22.629  11.564
21903W        W93519   4.400  18.798  14.463
21904W        W93520  31.444  36.790  12.975
21905W        W93521   5.661  10.033  13.051
21906W        W93522  31.591  39.813  13.942
21907W        W93523  33.019   9.743   3.923
21908W        W93524  30.225   3.355  11.608
21909W        W93525   2.302  37.785  14.799
21910W        W93526  22.555  30.077   0.908
21911W        W93527  27.842  37.708  11.993
21912W        W93528   9.852   4.919  12.973
21913W        W93529  31.261  21.226  11.952
21914W        W93530  26.445  24.004  14.018
21915W        W93531  21.781  28.951   0.397
21916W        W93532  23.137  35.137  12.966
21917W        W93533  38.133  29.518   3.641
21918W        W93534   0.329  42.262  13.958
21919W        W93535  36.777   1.930  12.148
21920W        W93536   9.192  31.729  14.940
21921W        W93537  13.801  38.522  12.531
21922W        W93538  11.702  10.846   1.428
21923W        W93539  16.205  32.415   3.632
21924W        W93540  38.847  20.159  13.324
21925W        W93541  42.005   7.430   3.647
21926W        W93542  15.035  31.100  14.239
21927W        W93543  15.123  35.958   4.420
21928W        W93544  11.533  41.378  11.260
21929W        W93545  37.547   5.823  11.653
21930W        W93546  14.087   3.411   5.476
21931W        W93547   8.207   9.827  13.034
21932W        W93548   7.728  40.399   0.243
21933W        W93549  15.359  33.868  13.663
21934W        W93550  25.560  34.640   3.738
21935W        W93551  11.613  36.915  13.841
21936W        W93552   2.559  43.648  11.125
21937W        W93553  35.477  34.747   1.876
21938W        W93554  37.596   0.824  14.398
21939W        W93555  33.132  10.716  11.394
21940W        W93556  35.587   1.500  11.504
21941W        W93557  42.486  31.868   4.073
21942W        W93558  19.696  38.431   4.080
21943W        W93559  30.291  11.123   4.665
21944W        W93560  28.937  25.568  13.822
21945W        W93561  18.238   6.660   0.448
21946W        W93562  33.016  43.550  12.949
21947W        W93563  30.982  24.715   1.353
21948W        W93564  44.365  34.571  10.031
21949W        W93565  39.277   2.918  13.340
21950W        W93566  27.200  24.147  10.612
21951W        W93567  19.056  35.107   1.280
21952W        W93568  36.971  31.938   0.782
21953W        W93569  20.001  38.285  12.348
21954W        W93570  10.310  31.130   3.831
21955W        W93571  40.381   4.874   4.223
21956W        W93572  44.419   4.912   2.281
21957W        W93573   1.402  10.644   4.685
21958W        W93574  36.988   6.134   2.558
21959W        W93575   9.737   9.789   4.761
21960W        W93576  15.767  27.198   1.351
21961W        W93577  16.042  19.352  12.456
21962W        W93578   8.829  11.654  14.526
21963W        W93579  18.092   8.755   0.881
21964W        W93580   7.800  12.900  13.452
21965W        W93581  33.409   9.743  14.496
21966W        W93582  34.167  12.523   0.335
21967W        W93583  33.555  44.455   5.259
21968W        W93584  19.360  23.780  14.578
21969W        W93585  12.867  31.866   2.690
21970W        W93586  21.210   9.875   2.806
21971W        W93587   2.022  10.242  10.555
21972W        W93588  21.710  27.111   2.839
21973W        W93589  10.586   4.987   4.085
21974W        W93590  23.623  27.185  14.085
21975W        W93591  42.783  30.664   0.433
21976W        W93592  31.689  23.161  13.004
21977W        W93593  24.039  28.117  10.846
21978W        W93594  26.941  29.684   1.813
21979W        W93595  29.686  10.911  14.199
21980W        W93596   1.028  11.216   0.476
21981W        W93597  27.090  18.335  11.000
21982W        W93598  36.941  23.715   1.830
21983W        W93599  21.468  25.274   0.299
21984W        W93600  26.410   7.435  11.180
21985W        W93601  44.265   4.196  14.699
21986W        W93602  16.689  39.278   4.601
21987W        W93603  30.458  42.958  10.690
21988W        W93604  42.855  32.961   2.213
21989W        W93605   1.221  10.217  11.130
21990W        W93606  33.063  35.672  12.139
21991W        W93607  43.323  17.598   2.293
21992W        W93608  42.272  14.828   1.800
21993W        W93609  17.710  17.540  12.377
21994W        W93610  44.922  36.580  11.482
21995W        W93611  34.849  15.755  11.523
21996W        W93612  21.954  30.753   4.837
21997W        W93613   3.258  21.718   5.171
21998W        W93614  36.396  29.593   0.296
21999W        W93615  35.392  38.594  14.961
22000W        W93616  11.598  12.166  14.475
22001W        W93617   4.752   7.697  10.776
22002W        W93618   9.091   0.753  11.990
22003W        W93619  30.108   1.326  11.784
22004W        W93620  19.530  12.662   4.726
22005W        W93621   7.352   8.003   3.610
22006W        W93622  13.307  33.932  13.729
22007W        W93623  10.685  27.310   2.207
22008W        W93624  44.719  19.549  12.532
22009W        W93625  30.240  38.456   1.348
22010W        W93626  21.426  39.805   4.356
22011W        W93627   2.799  40.340   0.702
22012W        W93628  18.106  28.965   1.298
22013W        W93629  36.521  39.923   2.194
22014W        W93630  33.351  31.586   0.289
22015W        W93631   0.034   4.593  11.468
22016W        W93632  16.111  38.542   1.381
22017W        W93633  28.940  32.592   4.672
22018W        W93634  36.083   3.821  10.574
22019W        W93635  43.948  25.240   1.682
22020W        W93636  23.832  18.206   5.319
22021W        W93637  16.746  26.164   1.363
22022W        W93638  18.605  38.451  11.533
22023W        W93639   8.848  17.962   1.777
22024W        W93640  34.031  27.734  13.296
22025W        W93641  26.344  25.160   2.753
22026W        W93642  27.385   6.255   4.272
22027W        W93643  22.561  37.125   1.770
22028W        W93644  41.506   6.159   3.870
22029W        W93645  18.235  13.311   4.767
22030W        W93646  13.806  40.249   0.294
22031W        W93647  13.263  33.295   2.847
22032W        W93648  33.094  17.598   4.182
22033W        W93649  42.720  27.564   3.694
22034W        W93650  13.488  10.137  14.355
22035W        W93651  10.284  16.258   2.970
22036W        W93652   4.364  31.006   0.039
22037W        W93653  25.379   7.846   0.981
22038W        W93654  44.918  39.919   2.870
22039W        W93655  13.797  10.248  14.794
22040W        W93656  17.334  20.800  13.859
22041W        W93657   9.685  17.747   0.840
22042W        W93658   0.054  39.422   2.425
22043W        W93659  22.972   9.266  12.411
22044W        W93660  35.195   8.518   5.297
22045W        W93661  31.638  22.686  13.535
22046W        W93662  40.599  35.616  11.672
22047W        W93663  17.640   4.186  14.473
22048W        W93664  14.357  16.069  11.490
22049W        W93665  28.509  33.309   1.417
22050W        W93666  40.788  11.361  11.770
22051W        W93667   1.427  21.179  12.087
22052W        W93668  12.860  21.681  12.498
22053W        W93669   5.906   3.311  11.711
22054W        W93670  11.342   1.928   2.904
22055W        W93671  36.328  15.205  14.461
22056W        W93672   8.770  20.269  11.937
22057W        W93673   3.796  34.467   2.622
22058W        W93674   0.464   6.350  13.391
22059W        W93675  33.719  19.667  12.029
22060W        W93676  38.836  25.782  11.425
22061W        W93677  43.415  21.761   4.129
22062W        W93678  29.898  37.900   3.819
22063W        W93679  27.712  11.099   4.491
22064W        W93680  28.672   8.058  13.282
22065W        W93681  34.154  23.630   0.311
22066W        W93682  18.490   3.688  11.871
22067W        W93683  15.386  34.100   0.546
22068W        W93684  44.385  10.280   4.521
22069W        W93685   1.076  10.388  12.001
22070W        W93686  43.198  18.083   2.890
22071W        W93687  20.257  19.124   4.442
22072W        W93688  43.513  36.848   0.465
22073W        W93689  36.866  13.594  13.870
22074W        W93690   7.172  25.213   1.222
22075W        W93691   9.429  18.597  12.103
22076W        W93692  30.993  14.669  10.816
22077W        W93693  15.193  20.227   4.568
22078W        W93694  30.472  42.962   2.737
22079W        W93695  43.894  38.423   2.256
22080W        W93696   8.700  20.754   2.234
22081W        W93697   8.729   1.555   0.525
22082W        W93698  24.544  29.525  12.859
22083W        W93699   6.477   1.033   1.435
22084W        W93700  26.049  27.581   3.493
22085W        W93701  19.582  34.803  10.256
22086W        W93702  31.160  29.804  14.368
22087W        W93703  14.677   2.381  10.875
22088W        W93704  16.804  22.695  10.506
22089W        W93705  10.631  30.984   3.204
22090W        W93706  29.949  44.425   4.196
22091W        W93707  13.720  16.726   1.867
22092W        W93708   9.916  20.816   4.499
22093W        W93709  16.883  28.962  11.996
22094W        W93710  23.169   4.526  11.648
22095W        W93711  25.251  36.259  14.571
22096W        W93712   2.661  39.903   3.081
22097W        W93713   9.345  19.760   0.307
22098W        W93714   0.448  22.279  14.025
22099W        W93715  12.154   1.852  11.259
22100W        W93716  16.534  23.048  11.491
22101W        W93717  12.177  12.118   3.294
22102W        W93718  44.958  25.435  14.262
22103W        W93719  25.173   1.512  12.388
22104W        W93720  24.988  11.638   0.487
22105W        W93721  37.837   6.733   2.766
22106W        W93722   5.861  25.611  11.117
22107W        W93723  34.581  43.851  12.154
22108W        W93724  13.541   1.631  13.331
22109W        W93725  23.131  19.584  13.385
22110W        W93726  29.618  22.249  13.306
22111W        W93727  40.035  13.833  14.468
22112W        W93728   2.790  17.313  12.853
22113W        W93729   2.880  19.831  12.014
22114W        W93730  32.016  20.485   5.236
22115W        W93731   6.383  20.151  13.065
22116W        W93732   9.831  34.042  14.008
22117W        W93733   5.769  14.633  10.662
22118W        W93734  31.986  21.594   1.662
22119W        W93735   0.232  23.755   5.538
22120W        W93736  13.348  22.220  14.427
22121W        W93737  27.965  13.380   2.084
22122W        W93738   8.588  40.929  12.645
22123W        W93739  35.879  27.616   4.617
22124W        W93740   5.816  25.232   4.513
22125W        W93741  40.996  43.818   1.408
22126W        W93742  30.181   6.216   3.262
22127W        W93743  39.218  40.303   2.571
22128W        W93744   9.172  38.847   0.017
22129W        W93745  33.679   8.848   2.241
22130W        W93746  27.689   7.436   1.866
22131W        W93747  43.075   8.383  12.524
22132W        W93748  38.027  13.340  14.271
22133W        W93749  32.990   6.357  12.082
22134W        W93750  25.395  27.471   2.606
22135W        W93751   3.144  13.854  14.458
22136W        W93752  32.763  17.927   4.994
22137W        W93753  22.792   6.711   2.280
22138W        W93754  26.164  36.814   4.883
22139W        W93755  25.686  36.519  14.386
22140W        W93756  16.508  43.491  11.603
22141W        W93757  13.004   1.855   4.911
22142W        W93758   5.223   2.143  11.795
22143W        W93759   9.561   8.375  11.707
22144W        W93760   5.377  31.072  11.988
22145W        W93761  16.230  19.142   0.282
22146W        W93762   5.682   0.034  14.690
22147W        W93763  39.421  23.393   0.699
22148W        W93764  34.918   4.383  13.671
22149W        W93765  12.080  31.118  11.486
22150W        W93766  42.011   5.387   3.946
22151W        W93767   8.261   6.264   3.649
22152W        W93768  11.100  12.202  12.030
22153W        W93769  26.449  18.055  10.327
22154W        W93770   3.457  28.532  10.664
22155W        W93771  39.499  10.542  12.611
22156W        W93772   6.303   4.565  12.567
22157W        W93773  29.909  17.495   4.862
22158W        W93774  38.297   0.435   4.733
22159W        W93775  21.023  26.271   5.008
22160W        W93776  20.108  39.555   0.509
22161W        W93777   0.915  35.807   3.186
22162W        W93778  36.769  16.003  12.396
22163W        W93779  43.045  30.555  10.764
22164W        W93780  25.457   1.723  12.804
22165W        W93781  36.977  24.543  10.560
22166W        W93782  43.245   2.336  11.123
22167W        W93783  31.482   5.420  11.227
22168W        W93784  43.113  33.890   2.012
22169W        W93785  34.611  28.803  12.890
22170W        W93786   6.046  35.340  13.150
22171W        W93787  30.168  13.854   1.287
22172W        W93788   9.755  26.747  11.596
22173W        W93789   2.890   3.271   0.649
22174W        W93790  23.307  11.683  14.441
22175W        W93791  17.278  33.287   2.314
22176W        W93792  38.430  33.793  11.666
22177W        W93793   4.238  16.613   4.623
22178W        W93794  19.763  37.069  14.494
22179W        W93795  19.858  33.491   3.116
22180W        W93796  20.539  11.629  12.329
22181W        W93797   0.459  34.347  11.719
22182W        W93798   8.350  17.518   2.431
22183W        W93799   1.415  16.105   0.331
22184W        W93800  16.811  42.787   1.234
22185W        W93801   8.636  29.526  11.635
22186W        W93802  12.501   2.975  11.401
22187W        W93803   8.347   3.851   1.368
22188W        W93804   5.694   6.923  13.475
22189W        W93805  12.259  23.929  12.370
22190W        W93806  29.704  23.021  10.491
22191W        W93807  15.742  26.928  12.927
22192W        W93808   6.889  32.415   1.840
22193W        W93809  20.832  29.131  12.992
22194W        W93810  29.124   2.839  14.139
22195W        W93811  21.193  29.148   4.065
22196W        W93812  24.422  41.083  11.994
22197W        W93813  11.593  21.215   0.641
22198W        W93814  24.936  15.240   4.187
22199W        W93815   3.374   6.727  13.513
22200W        W93816   8.958  15.485  13.151
22201W        W93817  24.194  21.092  13.507
22202W        W93818  34.577  25.267  12.063
22203W        W93819  27.187  31.427   3.297
22204W        W93820  36.812  29.017  11.668
22205W        W93821   9.510   9.236   4.618
22206W        W93822  39.038  11.892   4.679
22207W        W93823  20.707  41.978   0.522
22208W        W93824  26.856  28.589  12.441
22209W        W93825   8.372  12.117   3.963
22210W        W93826  10.246  17.005  11.206
22211W        W93827  36.551  18.528  13.392
22212W        W93828   1.910  42.110  11.171
22213W        W93829  18.979   6.326   1.703
22214W        W93830  25.232  34.252   0.720
22215W        W93831   5.173  20.274   2.870
22216W        W93832  23.458  18.761  14.924
22217W        W93833  22.994   4.435  14.973
22218W        W93834  31.649  26.547  11.962
22219W        W93835  32.470  43.993   2.868
22220W        W93836   3.561  35.425   0.371
22221W        W93837  10.077  16.226   4.922
22222W        W93838  36.136   2.952   2.909
22223W        W93839  34.978  13.395   1.177
22224W        W93840  42.007   7.394  14.132
22225W        W93841  29.496   1.489  13.583
22226W        W93842  28.207  42.789   4.628
22227W        W93843  20.355  16.090  13.788
22228W        W93844  14.928  38.465  14.726
22229W        W93845  18.122  33.387  10.930
22230W        W93846   9.121  24.200   2.880
22231W        W93847  27.604  36.137   0.640
22232W        W93848  41.430   2.739  13.912
22233W        W93849   1.749   0.354  10.593
22234W        W93850  38.052  23.791   4.576
22235W        W93851  26.240  19.419   4.507
22236W        W93852  12.153  21.120  13.889
22237W        W93853  17.230  34.095   3.612
22238W        W93854  28.172   4.196   2.273
22239W        W93855  20.668  20.091   0.353
22240W        W93856  12.738  25.921  13.992
22241W        W93857  41.868  29.713  11.573
22242W        W93858  23.765   0.031   3.873
22243W        W93859  11.039  43.698  13.958
22244W        W93860  15.361  39.592   0.280
22245W        W93861  33.330  38.120   4.114
22246W        W93862  32.311  22.495   0.896
22247W        W93863  34.511  35.643  12.817
22248W        W93864  32.326  19.406   4.690
22249W        W93865   3.859  34.259  13.964
22250W        W93866  18.557  29.428   2.783
22251W        W93867  44.716  26.620   4.855
22252W        W93868  26.377  19.372  12.922
22253W        W93869  40.830  27.521  11.112
22254W        W93870  13.063  12.114  13.811
22255W        W93871   7.453  39.834  13.169
22256W        W93872  12.256  37.674   1.300
22257W        W93873   8.435  15.071  12.274
22258W        W93874  28.407  42.819  14.457
22259W        W93875   2.022   9.649  13.908
22260W        W93876   6.696  18.182  13.679
22261W        W93877  24.390  10.243  12.557
22262W        W93878  39.312  38.970  12.094
22263W        W93879  40.434  43.936  14.456
22264W        W93880  22.811  11.215  12.091
22265W        W93881  26.430  22.611   1.866
22266W        W93882  15.653   4.311  12.606
22267W        W93883  23.584  32.358  12.035
22268W        W93884  33.883  22.215  12.101
22269W        W93885   8.698  12.419   4.227
22270W        W93886  34.776  39.610  14.242
22271W        W93887  40.776  41.416   2.763
22272W        W93888  22.503   7.415   2.771
22273W        W93889  10.191  33.558  13.312
22274W        W93890  14.070  44.109   0.339
22275W        W93891  10.849  20.073   1.864
22276W        W93892   2.963   0.888   1.919
22277W        W93893   4.832  22.939   3.598
22278W        W93894   5.908   3.955  14.776
22279W        W93895  33.633  40.599  14.428
22280W        W93896  21.042  43.419  11.112
22281W        W93897   1.138   2.781   2.431
22282W        W93898  15.717  22.568   3.524
22283W        W93899  44.393  29.046  11.087
22284W        W93900  28.228  39.436  12.029
22285W        W93901  28.402  39.842   2.879
22286W        W93902  22.131  28.585  14.550
22287W        W93903   3.782  44.389  11.924
22288W        W93904   1.819  44.434  13.581
22289W        W93905   1.629  17.684  10.721
22290W        W93906  13.236  30.830  14.049
22291W        W93907  12.187  35.863  12.472
22292W        W93908  33.738  31.360  11.207
22293W        W93909  44.922  23.510   0.274
22294W        W93910  33.438  18.399   3.105
22295W        W93911  13.179   4.179   4.135
22296W        W93912  37.049  23.189   2.160
22297W        W93913  22.314   1.329   2.698
22298W        W93914  26.139  17.503  12.006
22299W        W93915  19.484  13.065  10.467
22300W        W93916  44.950  37.392  13.254
22301W        W93917  44.335  19.688  10.781
22302W        W93918  12.867   8.748   2.830
22303W        W93919  12.765  37.426   2.342
22304W        W93920   7.626   8.345   0.875
22305W        W93921  32.281   0.391  11.624
22306W        W93922  13.100  14.187   1.188
22307W        W93923  15.668   2.897  10.710
22308W        W93924   6.242  12.699  11.145
22309W        W93925  25.471  21.134  14.440
22310W        W93926   4.849  14.348  13.975
22311W        W93927  17.048  15.085  13.024
22312W        W93928  39.478  30.583  13.563
22313W        W93929  44.439   8.749  14.795
22314W        W93930  43.417  10.295   3.884
22315W        W93931  26.815  27.344  11.552
22316W        W93932  44.354  37.805   3.692
22317W        W93933   5.655  43.898   4.561
22318W        W93934  20.253   0.557  13.418
22319W        W93935   0.315  23.026  11.106
22320W        W93936  18.080  16.636  12.616
22321W        W93937   1.736  27.552   0.766
22322W        W93938  16.291  18.310   2.229
22323W        W93939   9.587  26.215  14.017
22324W        W93940  33.333  14.140  10.387
22325W        W93941  30.031   8.708  12.471
22326W        W93942   5.822  11.616  14.993
22327W        W93943   9.915  37.003   3.624
22328W        W93944  27.930   7.221   2.299
22329W        W93945  33.117  38.574   2.848
22330W        W93946  28.212   6.011   3.693
22331W        W93947  21.014  42.859  13.052
22332W        W93948  19.574  22.072  13.269
22333W        W93949  28.110   7.450  14.216
22334W        W93950   2.750  15.581   4.222
22335W        W93951  35.346  29.895  12.868
22336W        W93952  29.641  26.047   3.870
22337W        W93953  39.060  22.289   0.302
22338W        W93954  24.258  34.480  13.473
22339W        W93955  34.544  27.178   2.678
22340W        W93956  20.258  30.438  13.121
22341W        W93957  33.038  11.292   1.753
22342W        W93958  29.435  41.077   3.386
22343W        W93959   6.895  29.546  13.074
22344W        W93960  23.064  38.069  12.014
22345W        W93961  37.375  21.310  10.886
22346W        W93962  19.764  43.983   2.335
22347W        W93963  19.535  12.540   2.858
22348W        W93964   9.104  38.912   0.968
22349W        W93965  14.575  30.666   1.509
22350W        W93966  26.132  26.543  13.431
22351W        W93967   7.640   7.366   1.816
22352W        W93968   3.353  43.303   0.293
22353W        W93969   4.844  21.369  13.032
22354W        W93970   4.350  27.418   0.949
22355W        W93971  30.449  28.208   2.298
22356W        W93972   2.714  28.506  14.884
22357W        W93973  10.345  23.714   1.742
22358W        W93974  41.516   1.215   4.311
22359W        W93975  28.539  36.880  14.983
22360W        W93976  40.891   8.791   0.828
22361W        W93977   7.492  15.032  12.557
22362W        W93978  16.085  41.251  14.127
22363W        W93979   9.272  23.769  13.267
22364W        W93980  36.395  33.400  11.630
22365W        W93981  32.109   8.383  14.297
22366W        W93982  22.010  37.884   3.299
22367W        W93983  28.296  16.412   5.030
22368W        W93984  13.383  20.209   1.684
22369W        W93985  40.346  11.395   4.194
22370W        W93986   6.427   6.955  10.052
22371W        W93987  44.387  28.973  14.977
22372W        W93988  12.613  40.961  11.660
22373W        W93989  20.499   9.684   1.752
22374W        W93990  25.983   3.428  12.146
22375W        W93991  35.027  24.543  10.886
22376W        W93992  32.165  25.140   1.033
22377W        W93993  39.142  24.497   4.808
22378W        W93994  21.525  15.444   3.834
22379W        W93995  43.020  26.731   0.645
22380W        W93996   9.270  26.453   2.402
22381W        W93997  24.913  43.032  13.512
22382W        W93998  42.481  14.226   0.476
22383W        W93999  43.772  18.398   0.773
22384W        W94000  23.181  22.613   4.441
22385W        W94001  20.265  43.519  13.490
22386W        W94002  32.011  38.514  10.712
22387W        W94003  12.367  36.368   2.200
22388W        W94004  13.340   8.869  12.888
22389W        W94005   0.389   0.868  13.571
22390W        W94006  10.686  10.697  10.471
22391W        W94007  24.587  21.519   4.410
22392W        W94008   7.725  21.448   0.361
22393W        W94009  29.146  11.133   2.787
22394W        W94010  18.299   4.640  14.030
22395W        W94011  34.846  35.298   3.129
22396W        W94012  21.125   1.220   0.279
22397W        W94013  37.437  16.483   4.557
22398W        W94014  28.188  39.371  11.144
22399W        W94015   3.513  28.041  14.985
22400W        W94016  40.346  16.242   2.853
22401W        W94017   2.611  35.670   1.444
22402W        W94018  38.808   7.633   0.921
22403W        W94019   5.355  30.119   2.745
22404W        W94020  13.023   9.975   1.445
22405W        W94021  11.016  23.497  12.297
22406W        W94022  16.533  23.977   0.727
22407W        W94023  19.259  27.661  11.428
22408W        W94024  34.452   1.800  11.182
22409W        W94025  18.003  25.404  12.834
22410W        W94026  19.080   1.029   3.798
22411W        W94027   4.257  10.361   2.618
22412W        W94028  14.701   6.852  13.789
22413W        W94029  33.927   2.018   2.347
22414W        W94030  33.931  20.158  10.676
22415W        W94031   8.739  11.894  11.619
22416W        W94032  31.648  28.276   1.812
22417W        W94033   1.387  15.936  12.915
22418W        W94034  23.609  14.032  12.089
22419W        W94035   8.726   0.355  11.961
22420W        W94036  29.624  28.645  14.225
22421W        W94037  22.785   7.397   1.921
22422W        W94038  21.785   3.292  10.736
22423W        W94039   6.388  10.726  12.800
22424W        W94040  37.054   0.585  12.440
22425W        W94041  19.064   7.594   1.144
22426W        W94042  35.145  22.699   4.264
22427W        W94043  15.647   2.360   2.989
22428W        W94044  23.755  32.921  12.962
22429W        W94045  23.675  21.085   3.551
22430W        W94046  20.023  37.304   2.967
22431W        W94047  43.539  30.350  11.563
22432W        W94048  36.529  42.057   1.520
22433W        W94049  16.056   7.230   4.048
22434W        W94050   0.294  17.876   1.786
22435W        W94051  21.680  37.850  13.511
22436W        W94052   7.696   3.581   0.184
22437W        W94053  25.172  30.649  12.023
22438W        W94054  34.458  21.632  12.537
22439W        W94055  13.646  37.429   1.658
22440W        W94056  26.682  37.072   0.413
22441W        W94057  22.701  30.905   3.150
22442W        W94058   8.900  20.672   4.164
22443W        W94059  13.301  10.765   4.867
22444W        W94060  15.670  15.727  14.028
22445W        W94061  40.988   1.716  13.539
22446W        W94062  31.011  25.236   2.247
22447W        W94063   3.832  13.591   4.168
22448W        W94064  36.821  34.123  11.169
22449W        W94065   8.091  40.755  12.626
22450W        W94066  27.922  33.943   0.580
22451W        W94067  38.900  16.836  13.577
22452W        W94068  25.696   3.055  14.967
22453W        W94069  11.167   6.281   2.676
22454W        W94070  30.461  16.597  14.430
22455W        W94071   3.749  11.877  12.559
22456W        W94072  16.203  35.148   0.974
22457W        W94073  15.653   7.793  13.538
22458W        W94074   4.664  34.943  12.031
22459W        W94075   2.053  11.176  12.456
22460W        W94076   5.089   6.235   3.925
22461W        W94077   8.390  27.687   1.034
22462W        W94078  36.948  38.573  14.054
22463W        W94079  15.056  37.857  13.525
22464W        W94080  12.376   9.842  12.069
22465W        W94081  21.533  22.720   4.066
22466W        W94082   4.299  17.260  14.110
22467W        W94083  10.734  12.901  14.900
22468W        W94084  42.999  32.213   2.705
22469W        W94085  14.051  44.893   3.622
22470W        W94086  34.323  37.914  14.105
22471W        W94087  35.237  37.452  12.974
22472W        W94088  30.663  17.645  13.636
22473W        W94089  35.959  31.719  14.519
22474W        W94090   7.953  31.619  12.939
22475W        W94091   6.717  35.343   4.529
22476W        W94092  18.478  15.615   4.566
22477W        W94093  24.493  20.309   0.491
22478W        W94094  42.760  21.010  12.157
22479W        W94095  36.543  29.473   9.957
22480W        W94096  10.204  23.121  12.060
22481W        W94097  30.562  34.246   2.634
22482W        W94098  40.857  34.502   3.673
22483W        W94099  22.435   5.164   0.947
22484W        W94100  15.629   6.255  10.877
22485W        W94101  29.698   6.709  13.842
22486W        W94102  16.906  28.604   3.675
22487W        W94103  39.935  36.773  11.559
22488W        W94104  19.328  27.488   1.963
22489W        W94105  20.272  35.642   3.684
22490W        W94106   5.255  20.127   1.046
22491W        W94107  37.491  31.985   3.602
22492W        W94108   0.337  34.333  13.067
22493W        W94109   3.732  41.335   4.034
22494W        W94110  40.038  33.777   4.344
22495W        W94111  25.681  25.433  13.524
22496W        W94112  42.492  21.660   3.680
22497W        W94113  18.695  24.290  13.497
22498W        W94114  16.740  42.773  11.566
22499W        W94115  11.915  17.515   0.317
22500W        W94116  36.277   0.177   2.945
22501W        W94117  25.859  19.773  14.424
22502W        W94118   1.897  33.501   1.870
22503W        W94119  43.261  12.956   2.699
22504W        W94120   7.657  13.342  12.325
22505W        W94121   4.964  10.355   4.604
22506W        W94122  35.048   2.630   3.616
22507W        W94123  33.025  27.312  13.531
22508W        W94124  31.181   1.399   1.746
22509W        W94125  24.963  23.516   2.830
22510W        W94126  22.526  19.893  12.455
22511W        W94127  26.995  33.555  14.547
22512W        W94128  36.475  33.956   0.006
22513W        W94129  39.240  30.032   3.187
22514W        W94130  20.215  34.918  14.979
22515W        W94131  21.484  18.306  12.615
22516W        W94132  43.830  33.275   0.362
22517W        W94133  12.896  36.055   1.916
22518W        W94134  32.862   1.305   1.035
22519W        W94135  32.059  25.392  10.662
22520W        W94136   4.030  11.309   4.600
22521W        W94137  23.100  35.514   0.254
22522W        W94138  19.707  36.425  13.936
22523W        W94139  30.839   9.844  11.018
22524W        W94140  26.288  30.984   2.275
22525W        W94141  13.254  39.477   1.804
22526W        W94142  30.962   7.419   0.734
22527W        W94143   1.747   7.416  11.265
22528W        W94144  29.487  29.174  11.878
22529W        W94145   1.680  42.939   2.267
22530W        W94146   5.946  22.722  14.063
22531W        W94147  17.399  23.911   0.407
22532W        W94148   4.382  44.844   1.025
22533W        W94149  43.271  10.630   2.894
22534W        W94150  11.879  24.228   1.198
22535W        W94151  38.354  12.268   0.553
22536W        W94152  19.110   3.718   2.967
22537W        W94153  43.808  31.674  14.023
22538W        W94154  40.261  16.735   3.631
22539W        W94155  17.986  18.752  12.379
22540W        W94156  16.442   3.367   3.457
22541W        W94157  39.083  23.156  12.423
22542W        W94158  41.541  34.068  13.625
22543W        W94159   4.716  14.364   1.750
22544W        W94160   8.207  38.905  14.011
22545W        W94161  43.512   0.261  11.577
22546W        W94162  36.993  17.894   4.515
22547W        W94163  28.981  30.246  12.834
22548W        W94164   5.770   1.033  12.402
22549W        W94165  42.245  40.751  14.607
22550W        W94166  44.240  20.947   3.745
22551W        W94167  22.640  39.585  12.476
22552W        W94168  17.109  43.007  14.948
22553W        W94169  21.670  36.583   1.768
22554W        W94170  24.093  24.746   1.273
22555W        W94171  34.625   0.921   9.892
22556W        W94172  36.845  26.642   2.373
22557W        W94173  29.445  33.891  14.478
22558W        W94174  15.909  33.900   4.113
22559W        W94175   5.488  39.329   0.343
22560W        W94176  11.775  37.867  14.419
22561W        W94177   8.293  23.570   3.610
22562W        W94178  19.770  27.415   1.235
22563W        W94179  44.042  22.997   3.710
22564W        W94180  32.518   3.307  14.479
22565W        W94181   6.432  36.882   3.277
22566W        W94182   3.485  32.116  13.436
22567W        W94183  30.444  34.566  14.840
22568W        W94184  38.428   1.728   2.375
22569W        W94185   3.158  24.940   5.642
22570W        W94186  22.198  18.598   3.163
22571W        W94187  14.281  14.424   4.986
22572W        W94188  41.291  19.311   2.338
22573W        W94189   2.229   4.976   0.669
22574W        W94190  36.037  21.332  12.458
22575W        W94191  11.139  14.350   4.029
22576W        W94192  21.591   1.974  11.058
22577W        W94193  34.132  43.453  13.705
22578W        W94194  19.282  35.393   0.266
22579W        W94195  22.016  27.701  13.552
22580W        W94196  19.009  31.586  12.173
22581W        W94197  16.576  12.621   0.012
22582W        W94198  27.019  43.001  11.912
22583W        W94199  32.932  10.285  12.568
22584W        W94200  33.190  41.472   4.382
22585W        W94201  24.357  23.029  11.659
22586W        W94202  12.743  32.527   4.530
22587W        W94203  25.898  37.481   1.688
22588W        W94204  20.649   6.939   4.865
22589W        W94205  30.906  42.822  13.324
22590W        W94206  29.376  19.334   2.774
22591W        W94207  16.931  34.122  14.626
22592W        W94208  10.668  12.273   1.717
22593W        W94209  24.580  33.452  12.973
22594W        W94210   1.470   5.772  11.543
22595W        W94211  27.520  15.107   0.275
22596W        W94212   9.441  30.577   1.209
22597W        W94213  17.554  21.613   1.461
22598W        W94214   8.975  17.045   3.448
22599W        W94215  10.214  19.672   0.514
22600W        W94216  37.276   1.832   4.098
22601W        W94217  35.969  18.818   2.796
22602W        W94218  25.134  17.110  11.022
22603W        W94219   2.616   4.847  10.040
22604W        W94220  31.956  15.243   2.308
22605W        W94221  29.166   8.790   4.553
22606W        W94222   5.445   6.942   0.755
22607W        W94223  27.783  21.457  11.062
22608W        W94224  34.737  31.563  11.134
22609W        W94225  24.798  23.006   2.259
22610W        W94226  12.969   5.896   1.950
22611W        W94227  41.425   8.798  10.487
22612W        W94228  24.954  43.961  13.592
22613W        W94229  34.903  38.780  14.962
22614W        W94230  40.617  17.629  13.364
22615W        W94231  18.204  26.012   2.791
22616W        W94232  19.990  30.223  12.059
22617W        W94233  42.653  28.318  11.171
22618W        W94234  28.276  41.265   4.548
22619W        W94235  12.644   2.492  11.214
22620W        W94236  22.689   7.386   9.895
22621W        W94237   6.146   5.337  14.702
22622W        W94238  16.420  15.328  14.577
22623W        W94239   2.442   8.831  13.905
22624W        W94240  11.913  38.312  11.096
22625W        W94241  17.605   8.461  13.023
22626W        W94242  10.217  12.138   0.588
22627W        W94243  30.878  24.962   0.440
22628W        W94244   7.407  18.647   2.310
22629W        W94245  24.269  33.039  12.909
22630W        W94246  25.831  40.487  11.539
22631W        W94247   9.671  37.811   1.972
22632W        W94248  24.233  28.565  10.981
22633W        W94249  12.690   2.507  14.766
22634W        W94250  20.310  25.657  10.784
22635W        W94251  38.869  31.980  13.537
22636W        W94252  38.047  17.315   3.266
22637W        W94253  42.357   6.926  10.698
22638W        W94254   7.692  30.034  13.135
22639W        W94255  32.469  27.594  10.785
22640W        W94256  24.513   2.816   0.337
22641W        W94257   4.457  25.541   1.934
22642W        W94258   4.268   5.293  11.977
22643W        W94259  38.967  32.657  14.332
22644W        W94260  22.657  13.691  10.370
22645W        W94261   4.493  44.387  14.777
22646W        W94262   6.812  35.378  10.574
22647W        W94263  18.790  30.453  12.770
22648W        W94264  43.886  27.037  10.825
22649W        W94265  21.756  42.367  11.935
22650W        W94266  15.246   9.882  10.756
22651W        W94267  40.223   7.521  12.130
22652W        W94268   4.174   1.960   2.199
22653W        W94269  29.897  24.612   3.318
22654W        W94270  17.055  39.140  13.299
22655W        W94271  36.655  31.806   2.117
22656W        W94272  30.598  25.439  10.620
22657W        W94273  16.593   5.477   4.136
22658W        W94274  11.624   5.898   4.076
22659W        W94275  33.389  29.248  14.968
22660W        W94276  18.749  36.292   2.909
22661W        W94277  35.048  24.191  12.072
22662W        W94278  29.302   7.392  12.134
22663W        W94279  34.673  30.519  13.916
22664W        W94280  25.807  42.053   0.858
22665W        W94281  25.061  13.302   2.844
22666W        W94282  24.478  14.304   4.081
22667W        W94283  39.494  19.271   4.095
22668W        W94284  27.877   9.436  12.418
22669W        W94285  20.271  44.427   3.110
22670W        W94286  20.013  19.281   1.003
22671W        W94287  30.661   9.822   3.751
22672W        W94288   9.770  16.331  13.017
22673W        W94289  19.864  43.954   0.345
22674W        W94290  19.637  26.970  13.017
22675W        W94291  15.120   3.691   4.209
22676W        W94292  28.483  39.287   4.143
22677W        W94293  29.468  37.032   3.120
22678W        W94294  41.774  30.974   1.392
22679W        W94295  43.801  31.131   4.230
22680W        W94296  41.128  36.351  12.163
22681W        W94297   8.210  22.519   2.814
22682W        W94298  14.799  16.176   0.246
22683W        W94299  16.937   0.306  10.048
22684W        W94300   9.266  20.634  11.370
22685W        W94301  39.595  19.976  12.500
22686W        W94302  20.976  29.098  12.126
22687W        W94303   5.431  32.408   3.557
22688W        W94304  36.515  18.068  10.077
22689W        W94305  24.630  11.868  12.777
22690W        W94306  24.014  43.198   1.375
22691W        W94307   6.170  41.408  11.959
22692W        W94308  27.974  41.825  12.411
22693W        W94309  13.394  34.846  14.949
22694W        W94310   7.593  18.485  11.125
22695W        W94311  18.752  25.207  10.216
22696W        W94312  41.976  20.828   3.479
22697W        W94313   8.697  36.810  11.708
22698W        W94314  29.798  16.384  11.075
22699W        W94315  27.596   0.003  12.661
22700W        W94316  19.182  36.346   2.628
22701W        W94317  38.421   6.337  13.445
22702W        W94318  32.869  29.956   1.862
22703W        W94319  12.932   5.380   2.085
22704W        W94320  37.314  11.726   2.642
22705W        W94321  32.158  10.778   3.699
22706W        W94322   7.657  29.594   2.286
22707W        W94323  40.337  44.907   4.569
22708W        W94324  18.771   4.441   2.032
22709W        W94325  10.805  34.491   2.834
22710W        W94326  33.012  11.564  12.347
22711W        W94327  41.045  25.132  14.882
22712W        W94328  27.641  18.755  11.487
22713W        W94329  24.790  30.032  11.045
22714W        W94330  21.541  25.067  13.972
22715W        W94331  10.224  15.610  14.247
22716W        W94332   7.321  36.597   2.036
22717W        W94333   5.881  34.413   4.588
22718W        W94334  17.756  42.577  10.239
22719W        W94335   7.764  24.658  13.979
22720W        W94336  26.324  10.725   5.136
22721W        W94337  26.557  32.562  12.609
22722W        W94338  32.082  21.922  12.026
22723W        W94339  20.767   1.107  14.886
22724W        W94340  28.421   6.611  14.427
22725W        W94341  11.129  18.069  13.951
22726W        W94342   8.808  38.217   2.092
22727W        W94343  32.195  38.514   0.550
22728W        W94344  19.548  36.509   1.799
22729W        W94345   9.922  10.302  11.123
22730W        W94346  31.182  19.756   9.990
22731W        W94347  34.645  19.836  10.770
22732W        W94348  43.643  36.663  11.540
22733W        W94349  27.187   3.141  13.349
22734W        W94350   1.243  12.118   1.821
22735W        W94351   6.226  38.396  11.970
22736W        W94352  30.609   1.672  13.916
22737W        W94353  42.218  26.617   1.989
22738W        W94354  17.748  22.141   2.819
22739W        W94355  11.626  38.467  10.681
22740W        W94356   6.290  22.473   2.611
22741W        W94357  13.817   4.397  13.052
22742W        W94358  17.821  20.617  11.850
22743W        W94359  20.526  12.579   2.622
22744W        W94360   1.723  15.904  11.621
22745W        W94361  26.802   8.275   4.178
22746W        W94362   3.353  28.702   2.922
22747W        W94363  30.472  37.523  10.286
22748W        W94364  35.390  21.278   3.247
22749W        W94365   1.684  10.186  10.931
22750W        W94366   3.463   4.779   3.579
22751W        W94367  19.232  28.426  14.499
22752W        W94368  11.724  37.342   2.415
22753W        W94369  26.733  31.125  13.759
22754W        W94370  28.940  35.992   1.439
22755W        W94371  44.658  24.646   1.756
22756W        W94372  42.053  34.038   1.847
22757W        W94373  39.096  43.969  14.918
22758W        W94374  37.582   0.407   4.130
22759W        W94375  34.247  14.680   4.178
22760W        W94376  37.805   2.619  12.390
22761W        W94377  38.459  25.902  12.613
22762W        W94378  14.204  19.830   0.409
22763W        W94379  26.662  28.213  14.378
22764W        W94380   9.150  42.054  12.907
22765W        W94381  11.235   5.490   0.910
22766W        W94382  21.707  29.927  14.408
22767W        W94383  26.694   5.517   4.161
22768W        W94384   0.499  37.946  13.718
22769W        W94385  17.725  39.371  14.281
22770W        W94386  32.473  15.831   2.827
22771W        W94387   3.365  39.815   0.456
22772W        W94388  28.560  16.168   4.175
22773W        W94389  33.553  26.059  10.748
22774W        W94390  16.861  40.422  12.567
22775W        W94391   9.963  34.372   1.756
22776W        W94392  13.824  37.107   2.463
22777W        W94393  26.072  25.215  13.795
22778W        W94394  13.309   6.167  12.200
22779W        W94395  11.150  27.742  14.516
22780W        W94396  28.241   2.628   3.307
22781W        W94397  22.198  36.334  13.583
22782W        W94398  36.978  24.097  12.004
22783W        W94399  34.676  37.068   0.423
22784W        W94400  29.905  33.143  13.403
22785W        W94401  11.629  17.630   3.540
22786W        W94402  12.147  27.740  14.803
22787W        W94403  12.824  37.416   4.018
22788W        W94404   7.452   5.840   3.358
22789W        W94405  38.908  28.641   3.112
22790W        W94406  38.412   3.391  14.502
22791W        W94407  42.731  18.751   0.811
22792W        W94408  24.491  32.402  11.929
22793W        W94409  25.939   5.997  12.614
22794W        W94410   2.323   7.466   2.459
22795W        W94411  14.235   5.273  12.812
22796W        W94412  39.603  11.778  12.869
22797W        W94413  23.253   7.283   1.690
22798W        W94414   5.789  44.939  11.498
22799W        W94415   5.612  39.685  12.062
22800W        W94416  25.693  35.969  11.666
22801W        W94417  28.212  32.694  12.598
22802W        W94418  35.878  26.203   1.760
22803W        W94419  38.149  29.117   4.340
22804W        W94420  12.108  43.883  14.463
22805W        W94421  16.164  24.777   2.811
22806W        W94422  18.117  12.313   3.816
22807W        W94423   1.346  19.322   3.245
22808W        W94424  10.713   6.381   0.913
22809W        W94425  37.475  32.997  12.896
22810W        W94426  20.018  22.530   3.168
22811W        W94427   4.984  29.080   3.609
22812W        W94428  38.138  41.288  11.461
22813W        W94429  39.946  26.480   0.695
22814W        W94430  10.667   0.261   2.804
22815W        W94431  16.855  23.123   4.957
22816W        W94432  28.993  16.353   1.893
22817W        W94433   5.409   5.320  12.071
22818W        W94434  34.644  15.634  10.713
22819W        W94435  23.013   7.943   4.228
22820W        W94436  35.794  43.878   2.914
22821W        W94437  39.302   6.646   3.634
22822W        W94438  39.344  35.368   3.783
22823W        W94439  28.531  20.719   4.419
22824W        W94440  16.508  17.530  14.878
22825W        W94441   0.257  17.301  12.277
22826W        W94442  39.073  34.484   0.377
22827W        W94443  11.378  19.398   1.700
22828W        W94444  44.968  14.903   4.612
22829W        W94445   2.748  34.552   1.811
22830W        W94446  36.430   0.002  10.905
22831W        W94447  31.524  11.218  14.248
22832W        W94448  23.106  31.442  14.412
22833W        W94449  24.030  23.166  11.292
22834W        W94450  10.331  26.462  11.898
22835W        W94451  36.503  20.643   3.215
22836W        W94452  17.281  29.455  12.649
22837W        W94453  40.145   8.603  14.343
22838W        W94454  35.564  14.617  10.672
22839W        W94455   2.454   8.582  11.901
22840W        W94456  39.209   4.835  12.102
22841W        W94457   0.094  19.615  10.371
22842W        W94458  35.673  18.051   2.693
22843W        W94459   9.871  36.078  10.556
22844W        W94460   0.791  41.769   0.998
22845W        W94461  22.649   6.202   2.332
22846W        W94462   0.761  34.442  12.418
22847W        W94463  25.431   8.543  13.546
22848W        W94464  32.165  33.161   3.265
22849W        W94465   8.895  10.163   1.763
22850W        W94466   0.150  34.442  13.533
22851W        W94467  19.240  36.013   1.174
22852W        W94468  18.653  15.672   1.032
22853W        W94469  11.953  19.822   0.939
22854W        W94470  14.130  21.598   0.240
22855W        W94471  20.800  21.241   4.552
22856W        W94472   5.699  30.536   0.412
22857W        W94473  39.979  34.032   0.301
22858W        W94474   5.837  36.838  14.279
22859W        W94475   9.163  10.610  11.518
22860W        W94476   8.170  13.494  12.974
22861W        W94477  44.384  44.354   0.321
22862W        W94478  18.140  44.551   0.032
22863W        W94479  14.531   8.319   2.888
22864W        W94480  23.565  24.525   2.889
22865W        W94481  42.054  30.576   4.090
22866W        W94482  21.334   9.085  13.921
22867W        W94483   1.218  35.366  12.122
22868W        W94484  10.937  23.471   0.852
22869W        W94485  31.185   4.925  13.388
22870W        W94486  31.962  39.709  13.263
22871W        W94487  11.933  25.032   1.320
22872W        W94488  26.959  14.653  11.619
22873W        W94489   3.265  29.829   1.414
22874W        W94490  11.530  15.330   4.243
22875W        W94491  20.661  28.534  12.170
22876W        W94492  26.704   1.287   1.779
22877W        W94493   0.497  30.242  14.088
22878W        W94494  25.064   0.788  12.032
22879W        W94495  27.180  25.009  13.325
22880W        W94496  37.465  36.170   1.796
22881W        W94497  40.295  43.447   0.524
22882W        W94498  13.715   3.898   3.274
22883W        W94499  21.030   8.147   4.985
22884W        W94500  14.760  35.175   4.527
22885W        W94501   2.588  37.787  12.548
22886W        W94502   0.428  30.544  10.895
22887W        W94503   0.979  16.247   2.902
22888W        W94504   8.407  17.893  11.225
22889W        W94505  39.934   2.770   1.674
22890W        W94506  28.663  15.565   5.479
22891W        W94507  25.333  41.309  13.958
22892W        W94508  31.766   8.836   2.621
22893W        W94509   0.107   0.751  12.154
22894W        W94510   1.719  20.506  12.033
22895W        W94511  18.185  18.202   0.878
22896W        W94512  21.299  11.134  11.998
22897W        W94513   6.587   7.826  10.449
22898W        W94514  35.074   7.038   2.268
22899W        W94515  36.164  40.439   0.726
22900W        W94516  13.358   1.988  10.657
22901W        W94517  16.972  42.546   2.206
22902W        W94518  15.283  21.559   4.100
22903W        W94519  15.175   9.318   4.193
22904W        W94520  25.662  25.301   5.052
22905W        W94521  25.214   2.646  11.615
22906W        W94522   8.802  38.265   3.796
22907W        W94523  16.072  26.645  14.212
22908W        W94524   8.645   9.616  12.229
22909W        W94525  41.633  40.584   0.260
22910W        W94526  36.874  27.054  13.549
22911W        W94527  13.374  22.434  12.502
22912W        W94528  39.735  10.239  14.115
22913W        W94529   4.612   1.659  11.537
22914W        W94530   5.725  11.187   0.487
22915W        W94531   7.103  17.263   3.080
22916W        W94532  30.970  40.980   0.317
22917W        W94533  16.712  17.156  10.220
22918W        W94534  13.798  20.560   4.642
22919W        W94535   6.709   4.864   4.268
22920W        W94536  15.089  35.990   2.620
22921W        W94537  13.158  25.741   2.724
22922W        W94538   2.397  30.590  11.122
22923W        W94539   4.636  28.892  11.401
22924W        W94540  31.132  36.225  11.690
22925W        W94541  21.425   9.900  12.989
22926W        W94542   9.196  15.605   1.718
22927W        W94543  39.839  24.975  14.751
22928W        W94544  16.367   9.224  13.862
22929W        W94545  41.990  36.923   2.704
22930W        W94546  27.216   1.112   0.816
22931W        W94547  12.756  22.843  13.858
22932W        W94548  15.615   4.079  13.064
22933W        W94549  19.320   4.765   0.354
22934W        W94550  24.541  20.344   2.773
22935W        W94551  20.237  22.590   0.953
22936W        W94552   4.750   2.294   1.794
22937W        W94553  15.697   8.916  14.393
22938W        W94554  34.587  10.066   4.095
22939W        W94555  33.329  27.965  11.146
22940W        W94556  10.581  30.945  12.646
22941W        W94557  20.282  16.294  11.389
22942W        W94558  18.417  36.729  10.782
22943W        W94559  14.263   4.400  11.524
22944W        W94560   1.346  27.473  13.808
22945W        W94561  28.537  36.075  10.558
22946W        W94562  40.398   2.982   1.804
22947W        W94563   7.335  28.500  12.607
22948W        W94564   4.444  15.470   3.165
22949W        W94565  41.166   5.907   4.158
22950W        W94566  43.870  15.335  14.709
22951W        W94567  19.369  30.988  12.934
22952W        W94568   4.998  12.831  12.545
22953W        W94569   5.389  11.185   2.717
22954W        W94570   5.913  29.246   2.169
22955W        W94571  35.280   8.913  12.721
22956W        W94572  40.050  40.661   3.838
22957W        W94573  14.282   5.572   3.211
22958W        W94574  34.938   7.231  11.553
22959W        W94575  29.589  38.022   2.079
22960W        W94576   6.561  27.645   2.769
22961W        W94577  29.511   5.810   2.683
22962W        W94578  22.125   3.386   1.190
22963W        W94579  35.690  23.608   3.245
22964W        W94580   9.362  27.894  14.970
22965W        W94581  29.411   0.450   4.195
22966W        W94582  30.165  39.528   3.808
22967W        W94583   7.726  38.596   1.728
22968W        W94584  12.701  12.531   4.612
22969W        W94585   0.577  10.644  12.552
22970W        W94586  36.016  27.025   1.338
22971W        W94587  34.579   3.293   2.148
22972W        W94588  40.939  10.676   0.964
22973W        W94589  44.309  32.923  14.096
22974W        W94590   9.752  22.918  12.908
22975W        W94591  22.640  37.330  12.960
22976W        W94592   0.880  16.773   1.426
22977W        W94593  32.455  17.355   1.786
22978W        W94594  42.376  13.632  14.298
22979W        W94595   2.545  35.578   4.790
22980W        W94596  14.743  31.667  10.723
22981W        W94597  36.612   8.822  11.122
22982W        W94598  26.393  39.317   3.721
22983W        W94599  25.869  43.851   0.459
22984W        W94600  35.703   8.573  12.809
22985W        W94601  23.197  38.333  13.419
22986W        W94602  21.179   1.515  12.805
22987W        W94603  17.064   0.833  12.145
22988W        W94604   0.355  28.656  10.962
22989W        W94605   6.559   3.943  11.747
22990W        W94606  26.591  14.347   3.205
22991W        W94607  18.760   6.676   4.590
22992W        W94608  20.541  41.823  12.105
22993W        W94609  26.135  31.420   2.964
22994W        W94610  27.036  21.507   4.208
22995W        W94611  38.862  32.109   1.767
22996W        W94612   4.444  18.824   2.353
22997W        W94613  26.409  38.007   1.337
22998W        W94614  20.529  31.150   2.658
22999W        W94615  30.075   6.272   2.232
23000W        W94616   0.510  16.130   0.243
23001W        W94617  40.694  32.705  12.520
23002W        W94618   7.779  22.001  12.689
23003W        W94619  12.930  13.758  14.015
23004W        W94620  19.282  42.008  11.655
23005W        W94621  13.761   7.648  10.947
23006W        W94622  29.550  26.952  13.050
23007W        W94623  38.122  27.214  12.257
23008W        W94624  22.443  17.597   3.262
23009W        W94625  31.627   2.874   3.144
23010W        W94626  37.430  23.695  14.405
23011W        W94627  20.229  30.009   3.660
23012W        W94628  22.209  36.906   0.293
23013W        W94629  15.224  23.719   3.411
23014W        W94630  17.117  41.887   3.537
23015W        W94631  31.934   3.681   4.718
23016W        W94632  33.689  21.433   3.008
23017W        W94633  32.685  43.681   3.271
23018W        W94634  28.969  15.161   1.452
23019W        W94635  35.795   9.792   2.677
23020W        W94636   3.656   2.065  11.784
23021W        W94637   9.783  32.942   0.668
23022W        W94638  31.602  32.341   1.339
23023W        W94639  39.056   9.407  12.131
23024W        W94640  37.806  33.065   1.240
23025W        W94641   1.822  37.872   2.946
23026W        W94642   5.724  32.378  11.032
23027W        W94643  27.484  16.524  13.408
23028W        W94644   7.975  38.377  11.833
23029W        W94645  28.781  33.505   0.451
23030W        W94646  28.142  29.137  14.863
23031W        W94647  32.644   1.324  10.304
23032W        W94648  43.762  13.941   2.038
23033W        W94649   6.194  30.142  12.677
23034W        W94650   1.903  31.801  11.009
23035W        W94651  29.593  42.495   0.864
23036W        W94652  38.277  35.504   4.476
23037W        W94653  34.752  23.050   2.703
23038W        W94654  34.730  16.577   4.876
23039W        W94655  37.561  33.899   3.785
23040W        W94656  38.536  44.759   1.061
23041W        W94657  16.273  12.016  12.568
23042W        W94658   9.662  21.991   3.268
23043W        W94659  14.116   0.473   4.069
23044W        W94660  21.048  18.077   4.719
23045W        W94661  18.233  12.085  13.392
23046W        W94662  18.659  15.721   2.478
23047W        W94663  23.209  23.776   2.331
23048W        W94664   6.691  36.068   4.036
23049W        W94665  18.122  15.272   2.843
23050W        W94666  18.179  34.067  12.613
23051W        W94667  17.499  11.459  11.462
23052W        W94668   7.752  42.744   1.936
23053W        W94669  20.584  36.304  13.208
23054W        W94670  19.159  40.062   4.674
23055W        W94671   1.947  11.038  11.193
23056W        W94672  20.146  37.107   3.413
23057W        W94673  11.644  27.003   2.449
23058W        W94674  43.280  17.918   0.391
23059W        W94675  39.184   8.769  10.773
23060W        W94676  27.575   6.778   2.924
23061W        W94677  33.557  11.076  12.074
23062W        W94678  29.909  12.113   0.219
23063W        W94679  34.650  35.208   0.137
23064W        W94680  22.755  11.673   4.527
23065W        W94681  28.275   3.519  11.154
23066W        W94682  26.418  10.572  11.134
23067W        W94683  36.724   0.848  11.171
23068W        W94684  27.135  44.383   2.728
23069W        W94685  30.363  40.411   2.467
23070W        W94686  22.063   2.723  14.906
23071W        W94687   0.403  37.005  14.446
23072W        W94688   3.329  20.198   0.410
23073W        W94689  27.187  22.149   2.183
23074W        W94690  33.152  15.019  11.218
23075W        W94691  38.066   5.373  14.771
23076W        W94692   2.398   8.236  13.548
23077W        W94693  19.817  18.362   3.203
23078W        W94694  25.502  25.093   0.379
23079W        W94695   2.630  36.026  12.079
23080W        W94696  12.593   2.193   4.852
23081W        W94697  41.998   9.879   3.621
23082W        W94698  19.561  18.177   3.819
23083W        W94699  11.384  18.657   3.804
23084W        W94700  44.936  20.427  14.285
23085W        W94701  15.079  43.512   2.461
23086W        W94702  41.890  24.451   0.704
23087W        W94703  28.125  23.227  14.453
23088W        W94704  20.825  38.294  11.169
23089W        W94705  41.759  44.070   4.628
23090W        W94706  26.891  35.410  12.619
23091W        W94707  20.833  11.626   1.875
23092W        W94708   1.958  20.107   2.799
23093W        W94709  31.398  23.589  12.907
23094W        W94710  11.571  16.284  11.090
23095W        W94711  11.052  18.638   4.204
23096W        W94712   9.146  34.438  11.202
23097W        W94713   4.462  22.555  14.415
23098W        W94714  22.068   0.533   4.552
23099W        W94715   8.782   7.912  12.036
23100W        W94716  22.484  31.225  12.589
23101W        W94717  36.888   9.913   2.853
23102W        W94718  35.080   1.316  10.220
23103W        W94719  19.031  27.522   0.998
23104W        W94720  36.353  13.271  12.888
23105W        W94721  14.537   2.198   4.920
23106W        W94722  25.145   5.312  11.082
23107W        W94723  42.217   6.146   0.748
23108W        W94724  16.089  41.675  14.437
23109W        W94725  34.576  31.355  12.893
23110W        W94726  39.508  43.801   0.475
23111W        W94727   7.386   0.731   1.415
23112W        W94728  42.835  41.465  14.247
23113W        W94729  21.332   2.900   4.926
23114W        W94730  43.804  11.073  10.531
23115W        W94731   7.242  13.579  13.723
23116W        W94732  36.473  14.691   0.797
23117W        W94733  15.378  16.160   3.358
23118W        W94734   2.250  26.629  10.905
23119W        W94735  36.820  25.301   3.874
23120W        W94736  42.089  23.173  14.810
23121W        W94737  24.450  26.955   3.372
23122W        W94738  40.017  17.494   0.221
23123W        W94739  33.680  13.215   3.153
23124W        W94740   6.452  43.946   0.705
23125W        W94741   5.331   4.425   4.027
23126W        W94742  15.161   3.368  12.821
23127W        W94743   3.794  24.109  13.771
23128W        W94744  26.151  22.714  14.973
23129W        W94745   9.970  21.008   3.183
23130W        W94746   0.963   2.226   2.258
23131W        W94747  40.235   1.934  11.989
23132W        W94748  25.487  21.248   2.489
23133W        W94749  13.863  12.581  10.797
23134W        W94750  19.109   6.869   1.499
23135W        W94751  22.417  16.601   3.587
23136W        W94752  42.011  19.749  12.085
23137W        W94753   4.297  24.691   1.899
23138W        W94754  44.956  43.377  12.496
23139W        W94755  25.555  36.811   0.808
23140W        W94756  34.750   0.931  13.980
23141W        W94757  16.006  11.192  11.909
23142W        W94758   9.833  34.368  10.572
23143W        W94759  12.276  21.575  11.657
23144W        W94760   0.326  32.219   0.737
23145W        W94761  11.806   2.118   5.040
23146W        W94762  33.590  30.722   4.538
23147W        W94763  28.014  17.789   4.740
23148W        W94764   1.278   7.622   3.634
23149W        W94765  14.647  23.297   0.696
23150W        W94766  17.299  16.381   9.740
23151W        W94767  26.785  36.765  11.057
23152W        W94768  42.848   4.754  11.121
23153W        W94769  27.621  28.931   4.370
23154W        W94770  29.089  14.716   0.697
23155W        W94771   7.747  22.756   4.604
23156W        W94772  30.009  22.696  12.542
23157W        W94773  39.203  16.878   2.248
23158W        W94774  10.174  17.473  12.090
23159W        W94775  22.668   6.824  11.208
23160W        W94776  31.414  22.821   3.416
23161W        W94777  32.093  37.410   0.723
23162W        W94778  22.380  24.301   0.741
23163W        W94779   0.195  10.448  12.219
23164W        W94780  20.633  23.096   3.752
23165W        W94781  32.154  33.393   2.784
23166W        W94782  41.785  34.684   2.667
23167W        W94783  33.613   1.049  12.505
23168W        W94784  43.447  14.393   2.205
23169W        W94785  21.090  24.972  12.309
23170W        W94786  27.064  26.888  14.230
23171W        W94787  27.044  33.029   4.722
23172W        W94788  41.111  15.641   4.957
23173W        W94789  42.883  31.507  14.039
23174W        W94790  11.203   2.883   2.828
23175W        W94791  33.640  37.517  14.633
23176W        W94792  38.947   9.254   1.784
23177W        W94793  27.236  23.990   2.088
23178W        W94794   0.263   2.356  14.815
23179W        W94795   7.147   9.611  12.422
23180W        W94796   5.098  40.621   5.064
23181W        W94797   7.134   1.231   4.131
23182W        W94798   8.307  36.314  13.456
23183W        W94799  15.590  10.275  11.543
23184W        W94800  18.284  42.973  13.472
23185W        W94801  28.501  15.249   2.232
23186W        W94802   9.056  17.316  10.791
23187W        W94803  28.641  10.357  10.742
23188W        W94804  17.630  43.243  14.737
23189W        W94805   0.896   2.793   4.098
23190W        W94806  13.395  43.018   2.770
23191W        W94807  17.920   8.883  13.102
23192W        W94808   2.911  23.580   2.664
23193W        W94809  33.924  23.938   4.010
23194W        W94810  10.898  18.631   3.670
23195W        W94811  19.704  17.894  14.204
23196W        W94812  18.729   0.252   0.701
23197W        W94813  43.482  28.086  14.531
23198W        W94814   1.201   0.107   5.409
23199W        W94815  27.720  44.843   1.357
23200W        W94816   3.005  28.443   1.245
23201W        W94817  21.002  38.795   1.401
23202W        W94818  31.751  43.091  10.008
23203W        W94819  31.407  26.633   4.078
23204W        W94820  12.234  12.169  11.144
23205W        W94821   7.795  33.249   3.270
23206W        W94822  20.589  36.061  14.557
23207W        W94823   9.784  21.549   1.895
23208W        W94824  41.604  34.496   0.560
23209W        W94825   8.642  15.104   0.314
23210W        W94826  40.079  13.499   1.369
23211W        W94827  23.021   2.064   0.265
23212W        W94828  19.762  40.488  14.306
23213W        W94829  25.145  24.084   0.447
23214W        W94830   6.109  21.137  13.137
23215W        W94831  38.885  23.112  11.433
23216W        W94832   9.828  31.072   0.925
23217W        W94833   0.817  13.382   0.830
23218W        W94834  27.458  38.489   1.859
23219W        W94835  16.645   1.407  13.128
23220W        W94836  20.795  26.126  12.087
23221W        W94837  30.527  12.433  14.960
23222W        W94838   8.294  32.150  12.098
23223W        W94839  44.911   8.161   2.839
23224W        W94840  39.730   8.184  14.875
23225W        W94841   3.608  37.499   4.445
23226W        W94842  30.568  10.827  13.394
23227W        W94843   9.313  36.457  11.922
23228W        W94844  21.478  14.869   1.963
23229W        W94845  15.441   8.478  14.161
23230W        W94846  38.574  17.587   3.528
23231W        W94847  23.589  44.374   1.899
23232W        W94848  12.897  37.411  11.582
23233W        W94849  36.071  23.105  14.063
23234W        W94850  37.723   4.564  12.193
23235W        W94851   6.658  29.524   0.761
23236W        W94852  27.167  36.579  13.874
23237W        W94853  19.679  26.990  10.930
23238W        W94854  28.026  43.522  11.173
23239W        W94855   5.323  24.110  10.607
23240W        W94856  20.831   6.250   0.255
23241W        W94857  35.781   9.358  11.013
23242W        W94858   2.986  12.997  12.321
23243W        W94859  42.910   7.753   0.773
23244W        W94860  11.875  17.524  10.441
23245W        W94861  10.054  14.794   0.253
23246W        W94862  15.350  25.073   1.333
23247W        W94863  33.624   4.896   4.523
23248W        W94864  41.434  38.007   0.753
23249W        W94865   7.919  16.138  11.432
23250W        W94866  10.386  27.663  10.707
23251W        W94867   3.267  38.043   2.653
23252W        W94868  30.634  35.441   4.324
23253W        W94869  35.834  21.342   3.492
23254W        W94870  25.164  11.142  11.519
23255W        W94871  43.974  15.165  12.602
23256W        W94872  29.495  41.098  10.914
23257W        W94873  27.205  11.737   3.174
23258W        W94874  17.090   9.656   1.165
23259W        W94875  17.830  41.661   5.169
23260W        W94876  22.043  25.213  14.434
23261W        W94877  18.598   5.963   1.716
23262W        W94878  22.442  44.844   2.823
23263W        W94879  44.287  29.103   3.725
23264W        W94880  35.991  42.322   0.853
23265W        W94881  23.556   0.390   2.997
23266W        W94882   5.212  10.813  13.417
23267W        W94883  38.272  10.607   3.273
23268W        W94884  27.724  10.641  13.694
23269W        W94885  42.682  25.009  13.016
23270W        W94886  23.669  32.971   1.151
23271W        W94887  41.941  37.850   5.050
23272W        W94888  37.651  33.902  13.471
23273W        W94889   4.946  44.598  14.623
23274W        W94890   6.685  20.946  11.511
23275W        W94891  16.037  18.998   4.641
23276W        W94892  22.157   7.008   3.674
23277W        W94893   5.397  13.706   3.543
23278W        W94894   6.853  37.614   1.317
23279W        W94895  44.698  30.385  12.532
23280W        W94896  27.188  42.447  14.406
23281W        W94897  43.788   6.796  13.871
23282W        W94898  37.061   6.107   2.064
23283W        W94899  39.057  16.263   3.737
23284W        W94900  39.745   8.625   0.864
23285W        W94901   5.469   5.670  12.963
23286W        W94902  42.331   2.444   3.731
23287W        W94903  34.994  30.086   0.545
23288W        W94904  20.927  38.515   1.913
23289W        W94905  16.776  40.072   3.830
23290W        W94906  37.078  31.459   0.292
23291W        W94907  27.185  44.321  10.203
23292W        W94908   2.060   1.211  13.582
23293W        W94909  33.091  25.292  13.091
23294W        W94910  10.424   9.672  10.331
23295W        W94911  25.643  25.637  12.617
23296W        W94912   3.175  18.855   0.021
23297W        W94913  14.191  24.432   1.248
23298W        W94914  23.746  25.672   3.255
23299W        W94915  10.770  43.107   0.445
23300W        W94916  28.432  16.785  10.936
23301W        W94917   6.298  18.654   2.710
23302W        W94918   5.742  34.535   0.891
23303W        W94919  31.056  44.500   3.862
23304W        W94920  11.183   5.634   3.995
23305W        W94921   4.323  11.872   4.013
23306W        W94922  41.396  19.090  14.300
23307W        W94923   3.916  24.473   0.252
23308W        W94924  34.048  28.804   4.707
23309W        W94925  35.430  16.165  13.897
23310W        W94926  24.490   2.007   3.733
23311W        W94927  13.372  28.295  10.094
23312W        W94928  21.177  31.301   5.098
23313W        W94929  32.663  17.109  13.211
23314W        W94930  22.200  34.353  11.225
23315W        W94931  40.136  22.991   3.622
23316W        W94932  38.994  42.081  12.671
23317W        W94933   2.034  16.617  11.229
23318W        W94934  36.065  33.970  14.678
23319W        W94935  35.013   2.467  12.406
23320W        W94936  41.567  35.397   3.345
23321W        W94937  26.595  37.237   2.695
23322W        W94938  14.079   1.313   3.589
23323W        W94939  24.029  21.701  11.927
23324W        W94940  27.835  24.199  12.032
23325W        W94941  31.765  40.880   0.092
23326W        W94942  30.870  39.097  13.861
23327W        W94943  24.464  22.007   4.938
23328W        W94944  28.474  26.001   2.616
23329W        W94945  14.600  24.934   1.943
23330W        W94946  19.221  18.743  14.006
23331W        W94947  20.692  33.425  12.534
23332W        W94948  25.545   4.698   1.271
23333W        W94949  40.151  28.433   1.900
23334W        W94950  14.279  23.856  12.489
23335W        W94951  43.613  36.039   3.783
23336W        W94952  28.103  29.090   4.532
23337W        W94953   0.906  36.985  14.309
23338W        W94954  41.888  22.468  13.811
23339W        W94955   5.296  44.048   0.086
23340W        W94956   7.133  43.991   3.616
23341W        W94957  43.280   4.961  12.851
23342W        W94958  30.031  34.064  12.099
23343W        W94959  18.778  30.488  14.395
23344W        W94960  24.061  35.047   0.874
23345W        W94961  11.876  24.013   3.984
23346W        W94962  16.712  17.865   3.758
23347W        W94963  44.954  24.616  13.962
23348W        W94964   9.496   3.821  14.136
23349W        W94965  20.555  28.658   4.619
23350W        W94966   0.511  24.821   3.249
23351W        W94967  11.878  15.134   2.037
23352W        W94968  12.043  12.500   1.904
23353W        W94969   5.858  13.297   3.284
23354W        W94970  12.659  44.827   1.296
23355W        W94971   3.178   4.160  11.202
23356W        W94972  18.950  13.595   0.514
23357W        W94973  13.214  11.400  12.822
23358W        W94974   2.484   3.246   4.961
23359W        W94975  40.957  39.496  14.428
23360W        W94976  42.971  44.547   0.845
23361W        W94977   5.367  11.899  14.954
23362W        W94978  38.102  39.566   0.365
23363W        W94979  43.142  38.589  10.478
23364W        W94980  17.881  18.286  13.513
23365W        W94981  11.084  27.241  14.470
23366W        W94982  10.761  15.484  14.712
23367W        W94983  11.796  12.867  13.941
23368W        W94984  18.946  26.053  14.866
23369W        W94985  36.462  16.157   0.417
23370W        W94986  37.389  37.090  13.935
23371W        W94987  36.820   8.796   4.575
23372W        W94988  14.457   9.308   3.270
23373W        W94989   2.396   5.380   2.311
23374W        W94990   4.884   4.345   1.272
23375W        W94991  19.518  33.006   1.838
23376W        W94992   9.898   6.336  14.725
23377W        W94993  15.499  34.964  14.031
23378W        W94994  31.837  17.003   1.297
23379W        W94995   6.988  39.332  11.993
23380W        W94996  38.557  29.989  11.631
23381W        W94997  29.433  27.118  12.566
23382W        W94998   7.133  39.807   1.843
23383W        W94999   3.758  43.628   3.733
23384W        W95000  37.156  32.489  11.582
23385W        W95001  42.541  37.486  11.137
23386W        W95002   5.806   7.244   3.408
23387W        W95003  25.675  40.616   4.016
23388W        W95004  22.764  33.444   1.455
23389W        W95005  25.191  36.390  13.600
23390W        W95006  19.724  35.573  10.418
23391W        W95007  16.176  32.680   3.182
23392W        W95008   1.522  14.202  14.844
23393W        W95009  38.488  20.489  13.464
23394W        W95010  40.934  34.346   1.100
23395W        W95011   4.844  32.010  13.099
23396W        W95012  33.358  32.982  12.856
23397W        W95013  28.271   4.283  12.503
23398W        W95014  43.258   4.943  14.841
23399W        W95015  20.489  24.623   4.840
23400W        W95016  28.704   5.870   1.120
23401W        W95017  16.099   1.460   0.832
23402W        W95018  31.001  27.303   4.615
23403W        W95019   1.393  17.662   0.271
23404W        W95020  25.986  20.723   0.824
23405W        W95021  13.135   0.441   1.624
23406W        W95022   6.822  39.008  13.399
23407W        W95023  31.425  23.558  11.598
23408W        W95024  34.719  39.844   4.334
23409W        W95025  21.984  14.027   3.249
23410W        W95026   8.654  14.711   3.604
23411W        W95027  29.958   9.182   3.611
23412W        W95028  18.190  29.216   4.335
23413W        W95029   0.116  26.482  11.098
23414W        W95030  21.180  31.876   1.841
23415W        W95031   9.158  15.137   0.449
23416W        W95032  27.571   7.146  11.489
23417W        W95033  25.691   0.302   0.264
23418W        W95034  35.748   1.534  10.635
23419W        W95035  19.837  30.918   0.494
23420W        W95036  25.974  44.006  12.485
23421W        W95037  41.844  26.362   3.488
23422W        W95038   0.364  39.622   1.700
23423W        W95039   6.120  44.267   1.938
23424W        W95040  21.770  22.479  10.133
23425W        W95041  20.237   1.349   2.977
23426W        W95042  15.952  30.868   0.379
23427W        W95043  29.910  33.638  14.245
23428W        W95044  38.791  23.345  13.349
23429W        W95045  23.551  27.565  11.387
23430W        W95046  11.188  41.301  12.469
23431W        W95047  39.421  16.567   4.056
23432W        W95048  28.606   7.382   1.905
23433W        W95049  30.664  20.371   0.291
23434W        W95050  29.923   5.241  12.009
23435W        W95051  36.981  41.818  13.524
23436W        W95052   2.513  21.566  11.603
23437W        W95053  10.622   0.758   0.744
23438W        W95054  28.652  10.406   4.141
23439W        W95055  20.953   4.762  12.082
23440W        W95056   5.580  29.632  10.867
23441W        W95057   2.382  42.993  11.736
23442W        W95058  17.666   7.602   3.542
23443W        W95059  30.199  20.041   0.243
23444W        W95060  19.546  30.551   0.310
23445W        W95061  11.946  41.892   3.351
23446W        W95062  24.432  37.802   0.419
23447W        W95063  30.589  31.174  10.579
23448W        W95064  15.710  25.009   2.887
23449W        W95065  15.496  15.881  10.680
23450W        W95066   6.069  14.500  11.124
23451W        W95067  17.752  23.429   1.448
23452W        W95068   6.910   0.360   4.344
23453W        W95069  29.292  38.707  11.594
23454W        W95070  11.901   8.879  10.425
23455W        W95071   6.437  32.847   0.225
23456W        W95072  37.319  15.309   3.711
23457W        W95073  35.089  22.194   2.721
23458W        W95074  21.636   7.368   3.738
23459W        W95075  18.078  12.631   3.114
23460W        W95076   3.839  29.067   3.610
23461W        W95077  20.760  10.341   4.605
23462W        W95078  41.294  20.828   1.687
23463W        W95079  11.384  37.531   3.797
23464W        W95080  21.347  30.482  12.411
23465W        W95081  43.799  13.919  11.656
23466W        W95082  44.019  26.992   0.159
23467W        W95083  16.980  23.785   1.621
23468W        W95084  28.943   6.642  13.409
23469W        W95085  12.224  30.368   0.288
23470W        W95086  10.834  39.877  13.286
23471W        W95087  31.605   6.386  11.090
23472W        W95088  36.310  43.864   2.833
23473W        W95089  21.242  28.440   0.929
23474W        W95090   1.040   8.425  10.507
23475W        W95091  13.875   3.683   2.815
23476W        W95092  11.620  20.300  12.666
23477W        W95093  36.125  14.185   2.381
23478W        W95094  23.209   3.713  12.078
23479W        W95095  42.468  29.466  12.677
23480W        W95096   5.011  26.047   3.738
23481W        W95097   0.872   5.832  12.837
23482W        W95098  21.084  43.276   3.164
23483W        W95099  31.501  11.887   0.886
23484W        W95100  21.216  10.568   4.578
23485W        W95101   3.923  17.260   4.704
23486W        W95102  34.525   0.207  10.279
23487W        W95103  14.713  41.300  11.514
23488W        W95104  37.166   4.783  13.481
23489W        W95105  29.000  17.250  12.824
23490W        W95106  15.238   2.824   3.799
23491W        W95107  43.468  33.525   4.014
23492W        W95108  38.789  38.160   3.587
23493W        W95109  41.555  29.176  12.434
23494W        W95110   8.016  33.868   0.527
23495W        W95111  10.372  29.428  14.041
23496W        W95112  16.316  16.096   4.192
23497W        W95113  36.879  40.822  10.830
23498W        W95114  41.768  13.601  13.042
23499W        W95115   7.908  31.966   0.391
23500W        W95116  29.831  19.271  13.438
23501W        W95117  21.626  31.612  14.002
23502W        W95118  12.393  43.102   0.717
23503W        W95119   4.776   9.827  12.200
23504W        W95120  44.605  35.788   3.591
23505W        W95121  30.352  33.128  11.783
23506W        W95122  17.098  15.769   1.497
23507W        W95123  36.587   7.821   0.429
23508W        W95124  31.107  32.582  14.487
23509W        W95125   0.269  18.225   2.777
23510W        W95126  30.359  26.599  11.972
23511W        W95127  11.909   9.721   4.555
23512W        W95128  44.452   0.425   5.025
23513W        W95129  44.673  26.991  10.424
23514W        W95130   6.491  10.965   4.248
23515W        W95131  16.828  38.993   4.195
23516W        W95132  13.912  32.467   2.246
23517W        W95133   2.318  43.744  13.401
23518W        W95134  20.057  10.139  13.752
23519W        W95135  40.722  25.239  14.266
23520W        W95136   2.083  43.627   4.976
23521W        W95137  42.395  35.877   5.252
23522W        W95138  37.800  19.710  12.089
23523W        W95139  26.586  40.185   4.343
23524W        W95140   4.913  42.357   0.477
23525W        W95141  40.950  37.351  10.292
23526W        W95142  17.586  26.125  11.789
23527W        W95143  36.523   2.422   4.088
23528W        W95144  29.210  39.435   2.407
23529W        W95145  43.853  16.768  10.596
23530W        W95146  10.190   5.763   0.298
23531W        W95147  10.141  34.643  14.364
23532W        W95148  41.809   6.177  12.156
23533W        W95149  38.943  28.894   4.122
23534W        W95150   5.703  38.027   4.533
23535W        W95151  35.439  15.757   1.314
23536W        W95152   0.104  13.203   0.515
23537W        W95153  30.902   7.861  13.872
23538W        W95154  15.232  13.540   0.260
23539W        W95155  39.871  44.171   3.397
23540W        W95156  11.303  38.950   2.745
23541W        W95157   5.715  29.138   2.637
23542W        W95158  20.819  10.099   1.861
23543W        W95159   9.792   8.058   2.856
23544W        W95160  43.091   4.351  12.562
23545W        W95161  16.205  12.060   1.339
23546W        W95162  30.099  43.977   2.036
23547W        W95163  37.864  23.090   0.320
23548W        W95164  43.650  44.268  11.565
23549W        W95165  40.002  31.028  12.931
23550W        W95166  21.900  37.290  11.583
23551W        W95167  11.212  37.595   1.437
23552W        W95168  18.893  43.010   1.879
23553W        W95169  14.791  38.510  12.499
23554W        W95170  15.160  16.625   2.680
23555W        W95171   4.011   4.343  11.537
23556W        W95172  19.703  31.677   0.816
23557W        W95173  34.489  28.542   4.616
23558W        W95174  12.597  43.293  11.143
23559W        W95175  37.429   0.523  14.775
23560W        W95176  16.253  11.783   1.961
23561W        W95177  41.962  35.816   2.416
23562W        W95178  41.589  44.451  11.972
23563W        W95179  41.844   7.175  10.615
23564W        W95180  13.324  25.545  14.705
23565W        W95181  23.694  12.771  13.334
23566W        W95182   9.635  18.323   1.467
23567W        W95183   8.308  10.634  14.922
23568W        W95184  36.399  20.767   2.286
23569W        W95185  35.001  30.911   4.519
23570W        W95186   8.721  16.315  10.720
23571W        W95187  30.941   3.266  14.400
23572W        W95188  28.207  37.881  11.661
23573W        W95189  38.309  13.412   1.522
23574W        W95190  44.286  16.146   4.160
23575W        W95191  37.001  10.751  10.564
23576W        W95192  10.361  40.792  14.605
23577W        W95193  37.996  17.800  10.763
23578W        W95194  39.787  18.109  11.086
23579W        W95195  19.771  26.576   1.771
23580W        W95196   9.919   2.518   0.313
23581W        W95197  27.382  43.482  14.557
23582W        W95198  14.356   9.988  12.106
23583W        W95199  33.123  41.823   2.613
23584W        W95200  37.338  18.590   0.188
23585W        W95201  36.494  40.020  13.502
23586W        W95202  26.674  26.996   3.695
23587W        W95203  34.069  27.931   1.114
23588W        W95204  35.020  19.735  13.413
23589W        W95205  31.933   9.195  13.824
23590W        W95206  38.864  36.540   9.956
23591W        W95207  16.785  33.939   4.477
23592W        W95208   6.760   2.458  11.618
23593W        W95209  36.416  10.922   3.224
23594W        W95210   6.294  29.162   4.644
23595W        W95211  30.194  31.570  13.116
23596W        W95212  25.859  44.815   3.159
23597W        W95213   7.299  17.732  12.648
23598W        W95214   5.373  17.322  14.893
23599W        W95215   7.329   6.913  11.958
23600W        W95216   1.916  27.713  12.967
23601W        W95217  17.713  32.857   0.744
23602W        W95218   6.634  37.868   2.617
23603W        W95219   6.736   4.904  10.981
23604W        W95220  20.274  11.294  14.850
23605W        W95221  32.117  42.827  12.817
23606W        W95222   6.091   2.480   4.757
23607W        W95223  30.475   6.556  11.466
23608W        W95224  29.879  25.434  11.142
23609W        W95225   2.966  15.671   0.861
23610W        W95226  37.079   5.657  12.611
23611W        W95227   2.360  29.145  11.109
23612W        W95228  42.763   4.039   3.450
23613W        W95229  43.929  37.347   1.700
23614W        W95230   9.394  42.821   2.294
23615W        W95231   3.035  17.099  11.613
23616W        W95232  10.410  10.732   2.220
23617W        W95233  36.608  13.143  14.948
23618W        W95234   4.281   5.284  13.183
23619W        W95235  21.589   3.506   0.485
23620W        W95236  13.631  34.063   0.660
23621W        W95237  32.942  15.049   2.326
23622W        W95238  13.370   5.497   2.830
23623W        W95239   1.264   9.126  11.641
23624W        W95240  16.591  28.541  13.139
23625W        W95241  19.005  36.597  10.763
23626W        W95242  39.437   9.284  14.525
23627W        W95243  10.543   2.768   1.014
23628W        W95244   6.976   8.378  11.961
23629W        W95245  11.871  41.025  11.166
23630W        W95246  16.054  33.040   2.784
23631W        W95247  21.736  18.630   4.094
23632W        W95248  35.012  39.756   4.812
23633W        W95249   4.194  25.038  11.317
23634W        W95250   4.304  33.333  11.465
23635W        W95251  26.107  42.446  10.828
23636W        W95252  22.711  40.757   0.342
23637W        W95253  18.048   7.637  13.277
23638W        W95254  16.736  14.419  11.890
23639W        W95255   4.874  28.924   1.226
23640W        W95256  15.787  31.552  12.457
23641W        W95257  40.061  26.828  12.159
23642W        W95258   9.923  22.121   4.595
23643W        W95259  41.005  18.079   3.852
23644W        W95260   9.032  37.326   1.199
23645W        W95261   6.430   5.916  12.360
23646W        W95262  34.371  24.172   1.745
23647W        W95263   3.788  21.759  12.928
23648W        W95264   9.319  13.830   2.147
23649W        W95265   0.729   7.454   1.802
23650W        W95266  16.142   7.751  10.981
23651W        W95267  40.426  39.633   2.329
23652W        W95268  39.593  35.097   2.745
23653W        W95269  17.301  24.010  14.868
23654W        W95270  34.378  35.368   1.487
23655W        W95271  15.985  26.391  12.437
23656W        W95272  35.411  16.735   2.187
23657W        W95273  42.890  38.103   2.207
23658W        W95274  16.746   5.943  12.057
23659W        W95275  38.369  13.622  12.596
23660W        W95276  10.899  11.685  13.843
23661W        W95277  26.489  21.057   0.273
23662W        W95278  15.774  23.583  13.868
23663W        W95279   2.697   6.242   4.517
23664W        W95280  42.273  31.475   3.746
23665W        W95281   7.701  14.479   4.924
23666W        W95282  23.144  32.397  14.498
23667W        W95283  18.870   1.880   4.606
23668W        W95284  42.267  29.418   4.558
23669W        W95285  34.621  41.768  13.299
23670W        W95286  11.317  12.432   2.251
23671W        W95287  26.571  25.975   1.294
23672W        W95288   0.961  37.908   5.121
23673W        W95289  32.303  38.078   2.934
23674W        W95290  23.339  21.830   3.444
23675W        W95291  26.966   0.349  12.973
23676W        W95292  36.214  20.569   0.625
23677W        W95293  13.607  35.804   2.981
23678W        W95294  19.798  43.385  12.589
23679W        W95295  34.006   1.680  11.987
23680W        W95296  22.988  24.234   2.315
23681W        W95297  40.311  12.158  14.429
23682W        W95298   0.429  40.794  13.930
23683W        W95299  42.892  26.440  11.877
23684W        W95300  16.289  17.030   1.309
23685W        W95301  28.444  24.378  14.421
23686W        W95302  34.596  24.361   1.233
23687W        W95303   6.696  26.441  12.893
23688W        W95304  42.863  40.393  10.730
23689W        W95305  40.886  24.624   1.264
23690W        W95306  40.315  22.366  14.590
23691W        W95307  42.339  35.055   1.838
23692W        W95308   1.422  43.003  13.863
23693W        W95309  35.887   5.818  13.241
23694W        W95310  14.525  19.129   3.170
23695W        W95311   9.221  33.369   3.131
23696W        W95312  17.041  29.657   3.691
23697W        W95313  26.356  28.255   4.113
23698W        W95314  29.597  25.166   2.374
23699W        W95315  14.133  11.507   2.811
23700W        W95316   0.415  27.617   3.731
23701W        W95317  41.421  25.125   2.889
23702W        W95318  38.003  40.269   1.847
23703W        W95319  23.982  17.054  14.330
23704W        W95320  13.332   8.125   2.334
23705W        W95321  16.145  24.073  12.008
23706W        W95322   0.281  14.041  14.422
23707W        W95323   3.820  20.066   2.264
23708W        W95324   1.015   6.500  11.104
23709W        W95325  13.900  10.711   1.826
23710W        W95326  13.202   3.302  10.206
23711W        W95327  44.803   1.908   4.113
23712W        W95328  32.843  21.667   3.261
23713W        W95329  33.726  13.868   4.065
23714W        W95330  11.196  18.243   3.419
23715W        W95331  10.363  27.032  14.639
23716W        W95332  36.417   7.233  11.634
23717W        W95333  34.807  28.108   2.671
23718W        W95334   8.940   6.339  11.769
23719W        W95335   3.942  34.954   1.912
23720W        W95336   8.157  12.682  14.742
23721W        W95337  10.036  26.720   1.606
23722W        W95338  25.933   5.263   0.153
23723W        W95339   6.909  19.785   3.780
23724W        W95340   0.757  20.508   2.600
23725W        W95341  23.727  42.916   4.553
23726W        W95342   0.213  13.471  11.454
23727W        W95343  43.455  39.784   0.442
23728W        W95344  15.240  40.365   3.243
23729W        W95345  34.014  20.096  12.043
23730W        W95346  38.341  38.481  13.009
23731W        W95347  39.770  24.733  12.082
23732W        W95348  39.362  34.564  13.419
23733W        W95349   4.691  28.892  14.029
23734W        W95350  13.206  21.872  10.661
23735W        W95351  22.617  21.026   3.300
23736W        W95352  24.111  23.581   3.316
23737W        W95353  44.204   1.580   4.404
23738W        W95354   5.689  24.069   0.268
23739W        W95355  12.789  20.831  13.782
23740W        W95356  39.983   7.344  12.876
23741W        W95357  32.802   1.671  10.670
23742W        W95358  15.685  38.074   1.332
23743W        W95359  33.111  16.021   0.680
23744W        W95360  11.247   9.427  12.322
23745W        W95361   2.399  10.818  14.443
23746W        W95362  27.358   7.334  11.061
23747W        W95363   2.663  13.135   1.792
23748W        W95364  27.717  23.258  10.908
23749W        W95365  14.320  10.402   1.927
23750W        W95366  39.988  42.930  10.524
23751W        W95367  38.798   8.280   2.361
23752W        W95368   0.252  24.269  10.019
23753W        W95369  11.906  39.566  12.974
23754W        W95370  30.124  28.760  12.035
23755W        W95371  30.252   6.857   3.709
23756W        W95372  29.940   1.550   4.219
23757W        W95373  31.884  35.654   1.357
23758W        W95374  36.390  26.694  10.662
23759W        W95375  21.715   0.427  13.211
23760W        W95376   1.967  32.425  11.568
23761W        W95377  12.090  18.328   3.698
23762W        W95378  19.610  36.003  10.678
23763W        W95379  40.493   3.991   1.953
23764W        W95380  40.935  24.560  10.939
23765W        W95381  32.187  29.517  13.561
23766W        W95382   1.476  18.506  14.363
23767W        W95383  12.781  38.920  11.210
23768W        W95384  30.790  17.041  14.408
23769W        W95385  31.092  24.708   0.850
23770W        W95386  29.076  20.453   3.727
23771W        W95387  35.286  36.234   5.105
23772W        W95388  30.638   4.987   2.865
23773W        W95389   8.813  38.617  14.350
23774W        W95390  42.098  43.995   0.164
23775W        W95391   3.276  16.665   0.500
23776W        W95392  16.751  10.139   0.355
23777W        W95393   1.685  23.168   0.330
23778W        W95394   7.618  22.297  14.037
23779W        W95395  25.230  41.286  14.841
23780W        W95396  28.929   0.307   1.820
23781W        W95397   3.214  20.187  13.482
23782W        W95398   2.487  14.248  12.635
23783W        W95399  37.540  14.226   2.439
23784W        W95400   9.638  12.757   4.512
23785W        W95401  15.435  12.567  11.570
23786W        W95402   7.812  31.882  13.347
23787W        W95403  31.595   7.667   1.832
23788W        W95404  33.502  23.535   4.056
23789W        W95405  32.403  30.386  12.608
23790W        W95406  23.917  25.224   4.150
23791W        W95407  28.651  32.628  13.453
23792W        W95408  31.879  33.528   4.124
23793W        W95409  11.712  14.634   3.372
23794W        W95410   3.294  25.703   0.686
23795W        W95411  32.482   9.923  14.030
23796W        W95412  14.778  15.853   4.141
23797W        W95413  20.578  35.433   2.366
23798W        W95414  44.267  24.456   3.229
23799W        W95415  13.385  39.943   3.678
23800W        W95416  43.442  15.357  10.297
23801W        W95417  12.905  30.176   4.801
23802W        W95418   2.772  32.005   4.233
23803W        W95419  21.977  11.706  10.602
23804W        W95420   8.702  35.405  13.558
23805W        W95421  25.736  22.902  11.592
23806W        W95422  18.916  16.306  13.435
23807W        W95423  28.360  15.186   3.176
23808W        W95424   3.405  30.442  11.508
23809W        W95425   3.395   2.030   2.806
23810W        W95426  20.164  28.976   0.762
23811W        W95427  33.007  30.406  12.279
23812W        W95428  10.601  19.699  12.440
23813W        W95429   9.636   3.390  11.644
23814W        W95430   1.787  20.014   0.417
23815W        W95431  40.330  40.292   1.233
23816W        W95432  20.801  24.228   4.749
23817W        W95433  12.187  22.098   1.507
23818W        W95434  35.913  12.876   4.165
23819W        W95435   6.132  17.740  10.687
23820W        W95436  42.892   6.862  12.583
23821W        W95437  25.035  42.167  12.631
23822W        W95438  28.643  29.623  14.318
23823W        W95439   5.587  27.517  14.912
23824W        W95440  43.913  24.224   0.709
23825W        W95441   2.709  15.694   1.875
23826W        W95442   2.732  27.120   1.520
23827W        W95443  21.212  29.716  11.299
23828W        W95444  43.398  15.244  12.815
23829W        W95445  28.477  35.105   0.936
23830W        W95446  16.742  19.006   1.959
23831W        W95447   0.748  24.686   2.442
23832W        W95448  13.743  13.851   0.406
23833W        W95449  18.900   3.269  10.609
23834W        W95450  26.615  11.366  10.697
23835W        W95451   1.852  34.547  14.005
23836W        W95452  38.237  35.778  13.248
23837W        W95453  38.914  22.699   4.656
23838W        W95454  21.798  17.665  14.791
23839W        W95455  38.869  18.784   1.724
23840W        W95456  19.160  29.286  10.518
23841W        W95457   9.277  21.953   0.432
23842W        W95458   4.880   0.371  10.630
23843W        W95459  12.839  38.887   0.839
23844W        W95460  36.874   0.902  13.634
23845W        W95461  22.065  36.993   3.177
23846W        W95462  25.982  21.029   0.374
23847W        W95463   2.741  20.582   2.012
23848W        W95464   8.587  25.036   3.193
23849W        W95465  17.675  26.248   0.367
23850W        W95466  13.249  26.007   1.205
23851W        W95467  29.433  22.970   2.189
23852W        W95468  22.174  39.677  14.276
23853W        W95469  36.422  36.321  12.648
23854W        W95470  40.337  42.457  11.576
23855W        W95471  32.705   3.301  11.175
23856W        W95472  18.239  38.606  12.342
23857W        W95473  32.106  36.235   4.176
23858W        W95474   8.832  11.820   3.254
23859W        W95475  39.094  42.801  14.859
23860W        W95476  15.153  23.606  10.352
23861W        W95477  37.153  25.174   2.414
23862W        W95478  24.148  44.847  13.878
23863W        W95479  16.511  18.778   4.628
23864W        W95480   3.415  20.260   1.457
23865W        W95481  37.456  14.225  13.901
23866W        W95482  35.226  41.829  11.525
23867W        W95483  38.029  22.106  13.305
23868W        W95484  31.331  13.998  12.958
23869W        W95485   6.658  22.798   3.314
23870W        W95486   8.339  16.031   2.203
23871W        W95487  18.689  32.420  13.376
23872W        W95488  10.584  25.604  12.196
23873W        W95489  36.337   6.176  11.627
23874W        W95490  30.194  36.172  12.471
23875W        W95491  33.343  18.557  12.418
23876W        W95492  32.590  29.163  14.512
23877W        W95493  20.810  32.256   2.810
23878W        W95494  15.513   9.308   2.358
23879W        W95495   6.204  32.100   5.257
23880W        W95496  37.571  32.455  10.794
23881W        W95497   8.327  16.337  12.399
23882W        W95498   3.824   7.645   4.317
23883W        W95499  41.558  41.932  10.768
23884W        W95500  17.171  36.630  11.490
23885W        W95501   4.272  44.765  12.802
23886W        W95502  37.057   2.931  14.476
23887W        W95503  15.706  24.214  10.603
23888W        W95504   3.837  13.414   3.679
23889W        W95505   2.276  44.429  14.339
23890W        W95506  39.949  38.153  14.345
23891W        W95507  41.758  33.373  13.348
23892W        W95508  15.777   0.678  13.816
23893W        W95509  29.925  26.002  12.292
23894W        W95510   1.370  42.806  10.092
23895W        W95511  27.180  16.588   4.620
23896W        W95512  32.689  34.429  10.653
23897W        W95513  39.286  13.170   1.860
23898W        W95514  11.205   7.894   4.485
23899W        W95515  20.038  25.423   2.831
23900W        W95516   9.984  24.343  13.927
23901W        W95517  14.313  11.363   3.811
23902W        W95518  27.771  14.377  10.011
23903W        W95519  18.246  34.523   0.475
23904W        W95520  36.601  44.840   3.194
23905W        W95521   4.012  36.479  13.642
23906W        W95522  13.369   6.315  11.579
23907W        W95523   5.492  10.676   2.807
23908W        W95524  34.456   3.889   3.652
23909W        W95525  26.303  38.279   2.680
23910W        W95526  21.817  13.496   3.606
23911W        W95527  12.208  10.483   2.934
23912W        W95528  10.282  12.654  14.819
23913W        W95529  18.269  35.056  13.066
23914W        W95530  43.971  22.608   1.322
23915W        W95531  36.547  32.415  13.889
23916W        W95532  31.944  19.924  12.103
23917W        W95533   7.654   6.439   0.906
23918W        W95534  27.564  42.416  12.473
23919W        W95535   1.588  35.898   4.553
23920W        W95536  36.337   2.550  13.451
23921W        W95537  35.801  19.022   1.189
23922W        W95538   1.418   9.670  12.400
23923W        W95539  16.015  19.825   3.237
23924W        W95540   8.185  14.072   2.193
23925W        W95541  20.054  15.784  11.133
23926W        W95542  26.019   3.687   4.201
23927W        W95543   9.594  34.027   0.586
23928W        W95544   7.183  20.193   1.247
23929W        W95545  15.100  12.338  12.897
23930W        W95546  35.940  16.051  14.546
23931W        W95547  31.670  43.941  12.894
23932W        W95548  16.139  34.625  12.887
23933W        W95549  24.868   7.835  14.355
23934W        W95550  40.193   9.502  14.426
23935W        W95551  25.172  11.711   3.865
23936W        W95552  10.723  30.540   2.250
23937W        W95553   2.274  14.238  10.744
23938W        W95554  24.008  14.266  12.805
23939W        W95555  21.154  37.126   1.866
23940W        W95556  39.734  10.858  14.871
23941W        W95557  10.350   4.925   0.787
23942W        W95558  24.054  14.768   2.734
23943W        W95559  35.490   5.192   3.208
23944W        W95560  18.389  37.904   4.944
23945W        W95561  25.441  27.408  13.900
23946W        W95562  10.946   5.161  10.998
23947W        W95563   5.197  29.115   2.732
23948W        W95564  31.577  36.096  12.441
23949W        W95565  16.826  23.403   1.321
23950W        W95566  31.079   9.642  12.409
23951W        W95567  40.312  12.024   1.334
23952W        W95568  41.321   8.196  11.227
23953W        W95569  28.143  31.040   4.471
23954W        W95570   1.903   1.950  13.900
23955W        W95571  18.149  42.206  13.387
23956W        W95572  17.730  16.272  11.015
23957W        W95573  19.661  33.657   0.730
23958W        W95574  16.198   2.707   1.258
23959W        W95575  32.169  37.330   3.789
23960W        W95576  19.672  13.842   3.339
23961W        W95577  14.701   3.366   4.072
23962W        W95578  24.213   8.159  14.864
23963W        W95579  27.286  23.216   2.819
23964W        W95580  38.015  30.648  13.302
23965W        W95581  41.053  29.702  11.970
23966W        W95582  36.546   4.642  13.070
23967W        W95583  12.456  18.786  10.344
23968W        W95584  20.223  22.337   0.515
23969W        W95585  44.343  32.545  11.206
23970W        W95586  17.560  44.501   4.097
23971W        W95587   1.072   0.934  12.910
23972W        W95588   7.651  33.842   3.824
23973W        W95589  44.358  36.834  14.520
23974W        W95590  17.543  28.253  12.141
23975W        W95591  20.581  23.146   0.273
23976W        W95592  43.742  31.520   2.472
23977W        W95593  25.025  36.435  12.122
23978W        W95594  10.798  24.937  12.443
23979W        W95595  23.396  34.464   0.859
23980W        W95596  26.172   3.996   3.717
23981W        W95597  15.778  42.420  14.958
23982W        W95598  36.275   3.328  10.709
23983W        W95599   1.822   2.647   4.851
23984W        W95600  41.152  35.567  10.987
23985W        W95601  21.492  31.086   3.150
23986W        W95602  20.493  31.700  11.910
23987W        W95603  38.602  10.379   9.852
23988W        W95604  32.983  43.929  11.357
23989W        W95605  30.926  44.304   1.879
23990W        W95606   4.778  27.349   1.519
23991W        W95607  38.043  16.727  11.918
23992W        W95608  24.774  16.056  11.895
23993W        W95609  27.075  34.923  13.549
23994W        W95610   5.680  12.382  10.632
23995W        W95611  25.619  40.020  11.503
23996W        W95612  29.377  17.029   0.811
23997W        W95613  17.551  44.723   3.627
23998W        W95614  10.151   2.571   1.295
23999W        W95615   0.089  25.601   3.648
24000W        W95616   3.789   9.105  14.303
24001W        W95617  10.752  35.496  13.797
24002W        W95618  14.113  15.597  11.565
24003W        W95619  35.554  23.972  12.153
24004W        W95620  37.867  39.366  13.949
24005W        W95621  20.513   0.435   4.725
24006W        W95622  34.852  15.711  13.165
24007W        W95623  41.737  27.790   3.723
24008W        W95624  29.948  18.219  13.343
24009W        W95625   1.522  15.533   0.449
24010W        W95626  34.802  14.696  14.274
24011W        W95627  33.465  18.141   4.483
24012W        W95628  23.432  39.035   0.319
24013W        W95629  33.143  37.081   4.665
24014W        W95630  19.959  30.149   3.233
24015W        W95631   2.511  34.912  11.111
24016W        W95632  24.419   8.335  11.474
24017W        W95633   6.706   4.925  13.000
24018W        W95634  36.526  38.335  11.123
24019W        W95635  20.099  21.669  13.297
24020W        W95636  10.325  32.575   0.292
24021W        W95637  26.126  22.682  12.471
24022W        W95638  30.945  29.866  13.410
24023W        W95639  23.613   2.272   0.314
24024W        W95640  39.405   6.277  12.107
24025W        W95641  17.755  16.371   0.397
24026W        W95642  43.157   0.810   4.522
24027W        W95643  37.372  26.883  13.635
24028W        W95644  37.286  10.514   9.714
24029W        W95645   0.577   2.820  13.232
24030W        W95646  35.615  18.566   1.039
24031W        W95647  27.025  20.664   2.172
24032W        W95648  28.531  11.745  13.439
24033W        W95649   5.645  44.324  13.154
24034W        W95650   1.255  18.608  13.889
24035W        W95651  28.331   0.796   2.654
24036W        W95652  27.404  22.103  11.592
24037W        W95653  32.161  11.276   4.174
24038W        W95654  32.937  22.006   0.755
24039W        W95655  34.573  14.710   3.791
24040W        W95656  21.706  20.482  11.266
24041W        W95657  32.699  28.510  13.280
24042W        W95658  24.970  13.698   2.510
24043W        W95659  33.521  37.884   1.021
24044W        W95660  16.107  43.806   3.911
24045W        W95661  23.254  26.997  11.948
24046W        W95662   3.768  15.765  10.865
24047W        W95663  24.249  13.689   2.695
24048W        W95664  11.489  19.551   0.292
24049W        W95665   4.276  28.082  11.404
24050W        W95666  35.998  14.645  12.004
24051W        W95667   8.776  23.217  11.107
24052W        W95668  36.066  23.916   2.920
24053W        W95669   1.452   7.516   2.130
24054W        W95670  23.814  15.655  12.015
24055W        W95671  42.381  41.356   0.923
24056W        W95672  33.002  42.814   2.649
24057W        W95673  29.252  44.143   4.961
24058W        W95674  40.574   7.423   3.329
24059W        W95675  35.866  28.278  11.930
24060W        W95676   0.593   9.625   2.164
24061W        W95677  42.133  32.105   0.779
24062W        W95678  26.925  23.495  13.705
24063W        W95679  14.462  25.716   0.903
24064W        W95680  42.490  40.511   0.363
24065W        W95681  16.750  27.124   1.441
24066W        W95682  21.714  12.591   2.508
24067W        W95683  33.611  28.716   3.653
24068W        W95684  29.508  12.099   0.992
24069W        W95685   3.432   9.105  11.662
24070W        W95686  34.396  33.658   2.388
24071W        W95687   1.502  10.113   0.305
24072W        W95688   5.884   8.070   3.532
24073W        W95689  16.798  30.192  14.486
24074W        W95690  26.589  42.757  12.041
24075W        W95691   4.024  41.597  13.983
24076W        W95692  32.505  22.575  10.595
24077W        W95693  25.083  26.144  14.004
24078W        W95694   5.315  10.784   3.322
24079W        W95695   0.663  33.214   1.897
24080W        W95696   2.465   4.501   4.655
24081W        W95697  38.976  38.535  10.763
24082W        W95698  20.634  16.860  11.700
24083W        W95699   5.072  29.604  10.932
24084W        W95700  23.937   6.764  11.409
24085W        W95701  31.508  23.908  14.766
24086W        W95702   3.974   3.913   2.077
24087W        W95703  11.411  25.127  13.432
24088W        W95704   6.137  26.095  14.822
24089W        W95705  41.294  34.345  12.957
24090W        W95706  33.574  27.022   3.087
24091W        W95707  41.230  26.666  10.527
24092W        W95708   3.750  21.884  10.237
24093W        W95709   8.646  16.886  13.191
24094W        W95710  37.533   7.846  12.456
24095W        W95711   7.155  38.841  12.126
24096W        W95712  27.146  15.396  14.479
24097W        W95713  27.357  26.993  14.997
24098W        W95714  13.142  26.218   3.590
24099W        W95715   3.553  35.444   1.409
24100W        W95716  32.495  34.570  12.078
24101W        W95717  16.762  39.377   0.324
24102W        W95718  15.384  35.059   1.391
24103W        W95719  14.234  38.450   1.668
24104W        W95720   3.902  32.086   2.240
24105W        W95721  20.376  39.146  13.808
24106W        W95722   4.002   5.323   1.072
24107W        W95723  10.401  41.956   5.128
24108W        W95724  16.175  44.028  14.125
24109W        W95725  42.901  13.253   2.909
24110W        W95726  25.923  33.458  11.932
24111W        W95727  44.367  29.907  14.064
24112W        W95728  41.573  10.170  13.500
24113W        W95729  36.983   7.012   0.820
24114W        W95730   8.170  34.860  13.524
24115W        W95731  23.903  16.306  12.095
24116W        W95732  15.742  24.008   3.840
24117W        W95733   9.637  35.481  14.817
24118W        W95734  28.688  28.425  14.908
24119W        W95735  28.221  27.643  13.220
24120W        W95736  16.434  34.119  14.506
24121W        W95737   3.315  27.582  14.900
24122W        W95738   2.800  40.459   0.194
24123W        W95739  17.151  29.554   0.960
24124W        W95740  44.701  19.085  11.232
24125W        W95741  31.872  10.397   1.097
24126W        W95742  10.953   0.687   2.685
24127W        W95743   4.995  20.181  11.061
24128W        W95744  32.916  13.291   2.155
24129W        W95745  30.119   9.728   1.922
24130W        W95746  27.748   5.784   3.612
24131W        W95747   7.888  41.483  12.651
24132W        W95748  15.679  21.612  13.916
24133W        W95749  29.676  32.670   1.797
24134W        W95750  13.272  25.537  11.536
24135W        W95751   1.367  23.840   2.888
24136W        W95752  18.679   1.795   1.643
24137W        W95753  22.045  39.215   2.316
24138W        W95754   1.782  23.272   2.321
24139W        W95755  11.166  11.259   0.417
24140W        W95756  18.249  23.652  11.623
24141W        W95757  15.530   6.404   3.116
24142W        W95758   3.890  21.942  14.215
24143W        W95759   8.774   0.296   3.625
24144W        W95760  29.975  12.197   1.214
24145W        W95761   0.987  17.345  11.538
24146W        W95762  10.843  38.939   0.181
24147W        W95763  34.082  37.311   1.919
24148W        W95764  20.125  31.869  13.977
24149W        W95765  32.434   7.506   3.711
24150W        W95766  37.594  32.041   1.352
24151W        W95767  17.152  16.456  12.972
24152W        W95768  25.017   1.416   1.399
24153W        W95769  32.406  33.475   1.486
24154W        W95770   4.751  16.111   4.179
24155W        W95771   1.291  42.863  13.370
24156W        W95772  30.133  24.306  14.083
24157W        W95773  32.386  13.705   0.744
24158W        W95774  15.968  27.559  12.481
24159W        W95775  29.515  27.465  13.026
24160W        W95776  12.677  41.957  11.470
24161W        W95777  34.075   2.790  14.958
24162W        W95778  18.996   1.997   3.831
24163W        W95779  22.236  44.397  10.674
24164W        W95780  12.663  39.245   3.579
24165W        W95781   5.661  27.997  14.241
24166W        W95782  14.974  38.938   1.861
24167W        W95783  25.196   6.623  11.595
24168W        W95784   3.886  13.928   3.635
24169W        W95785  40.196  23.806  12.885
24170W        W95786  12.875  39.903  14.965
24171W        W95787  18.845  15.493   3.723
24172W        W95788  38.835  23.847  10.299
24173W        W95789  40.797  36.113   4.532
24174W        W95790  21.818   1.353  14.774
24175W        W95791  27.956  44.401  13.823
24176W        W95792  27.082  44.954  12.491
24177W        W95793   6.911  40.968   2.393
24178W        W95794  13.777  20.350   2.659
24179W        W95795   0.990  13.030   3.769
24180W        W95796  21.784   5.643   4.106
24181W        W95797  14.231  27.727   2.434
24182W        W95798  26.185   6.748   0.658
24183W        W95799  30.575  35.478   4.856
24184W        W95800  28.522  33.321  14.359
24185W        W95801  19.087  20.133   1.707
24186W        W95802  25.021   6.463  12.889
24187W        W95803   6.717  16.481  14.843
24188W        W95804  30.203   1.368   1.881
24189W        W95805  30.106  25.614   1.878
24190W        W95806  19.988   4.431  10.890
24191W        W95807  18.788  15.072   0.341
24192W        W95808  44.080   8.786  10.178
24193W        W95809  43.238  32.540   3.734
24194W        W95810   0.686  26.007   3.093
24195W        W95811   5.476  29.155   0.260
24196W        W95812  34.341   1.197  14.167
24197W        W95813  12.733  36.016   4.581
24198W        W95814  26.549  24.308  12.473
24199W        W95815   3.992  10.629   2.254
24200W        W95816  31.503  11.224  14.765
24201W        W95817  19.310   9.228  13.919
24202W        W95818  30.152  16.736  11.234
24203W        W95819  11.222   7.205  10.873
24204W        W95820  39.620  17.826   4.233
24205W        W95821  30.704  42.993   4.581
24206W        W95822  26.944  18.137  10.520
24207W        W95823  17.558  37.389  14.264
24208W        W95824  26.151  38.300   3.168
24209W        W95825  43.686  23.548   4.922
24210W        W95826  31.404  16.343  10.845
24211W        W95827  11.301  26.877   4.205
24212W        W95828  28.474  29.183  11.868
24213W        W95829  10.062  30.139   2.244
24214W        W95830  19.194  30.985   4.338
24215W        W95831  20.680  38.017  10.581
24216W        W95832   3.374   0.697   9.862
24217W        W95833  37.311  39.303   1.289
24218W        W95834  41.371  35.447   3.832
24219W        W95835  14.323  27.245   1.215
24220W        W95836  43.031  17.352  10.571
24221W        W95837  44.838   3.256   4.502
24222W        W95838  41.943   6.904  14.316
24223W        W95839   7.796   2.558   1.718
24224W        W95840  27.786  13.986   1.312
24225W        W95841   9.810  41.365  12.602
24226W        W95842   9.483   4.554  13.006
24227W        W95843  43.944   0.246   0.719
24228W        W95844   3.399  16.128  14.240
24229W        W95845   9.453  16.714  12.882
24230W        W95846  31.102  33.363  12.637
24231W        W95847  36.081  41.310   2.816
24232W        W95848  11.777  29.659  13.790
24233W        W95849  15.491  32.830   1.660
24234W        W95850  25.645  21.988  11.290
24235W        W95851  21.734  42.809   1.199
24236W        W95852  21.771   4.730   3.991
24237W        W95853  27.250  16.164  12.547
24238W        W95854   0.647  24.606  12.518
24239W        W95855  40.329  17.035   4.106
24240W        W95856   8.279  21.151  11.542
24241W        W95857  34.403  17.153   1.999
24242W        W95858  17.883  32.257  11.586
24243W        W95859  37.101  24.597  13.311
24244W        W95860  16.963  37.456  11.971
24245W        W95861  36.625  26.797  14.356
24246W        W95862   5.858   4.867   1.302
24247W        W95863  37.244  25.598  13.860
24248W        W95864  28.805  21.247  13.418
24249W        W95865  32.656  44.004   5.193
24250W        W95866  12.251   9.689   1.196
24251W        W95867  34.821   1.426  12.501
24252W        W95868  17.664  39.264  11.678
24253W        W95869  11.904  31.040  12.395
24254W        W95870  31.442   0.342  14.865
24255W        W95871  15.158  28.693  13.040
24256W        W95872  41.292  37.602  12.582
24257W        W95873  28.668  36.384   2.450
24258W        W95874  34.110  19.096  11.638
24259W        W95875   5.492  17.200   2.086
24260W        W95876  10.492  16.489   2.190
24261W        W95877  30.508  14.978   2.181
24262W        W95878  29.105   4.987   4.615
24263W        W95879  20.268  12.358  12.617
24264W        W95880   1.511  38.560   3.205
24265W        W95881   7.290  30.896  12.893
24266W        W95882  42.782  40.715  11.378
24267W        W95883  36.093  27.040  12.463
24268W        W95884  13.686   3.295  10.036
24269W        W95885  14.186  17.204   1.370
24270W        W95886   9.106  13.059  13.074
24271W        W95887  28.976  33.548   1.310
24272W        W95888  34.359  11.587   0.398
24273W        W95889  33.193  10.693  12.415
24274W        W95890  40.586  14.957   2.239
24275W        W95891   9.376  35.571   4.105
24276W        W95892  10.472   4.034   3.885
24277W        W95893  11.129  40.550   4.307
24278W        W95894  15.389  16.622  10.141
24279W        W95895   7.896  16.749  14.482
24280W        W95896  19.547   9.734   0.046
24281W        W95897  14.355  19.735   4.626
24282W        W95898  18.214  44.530   1.426
24283W        W95899  37.073  41.967   2.838
24284W        W95900  13.839  28.703  12.455
24285W        W95901  12.674  44.000  10.612
24286W        W95902   0.547  17.791  14.485
24287W        W95903   4.144   7.801   1.362
24288W        W95904  41.559  33.175   2.345
24289W        W95905   3.342  43.030   0.749
24290W        W95906  31.330  34.827  14.262
24291W        W95907   0.599   5.720  11.083
24292W        W95908  30.161  40.470   4.693
24293W        W95909   9.191  40.424   2.087
24294W        W95910   7.355  41.987   1.867
24295W        W95911  33.161  10.184   4.135
24296W        W95912   8.599  20.337   2.622
24297W        W95913   2.386   4.982  12.601
24298W        W95914  28.935  23.182   4.620
24299W        W95915  33.601  25.021  12.973
24300W        W95916  12.728  37.498  12.070
24301W        W95917  40.996  17.612   4.745
24302W        W95918  44.190  27.331   4.010
24303W        W95919  41.813   1.924   0.695
24304W        W95920  26.891  42.493  13.510
24305W        W95921  30.574   5.838   1.991
24306W        W95922  37.310   7.297   1.540
24307W        W95923  41.946  28.203   4.020
24308W        W95924  42.974   9.585   3.479
24309W        W95925  11.694  36.974  12.954
24310W        W95926  32.599  11.740  12.617
24311W        W95927   7.164  22.714   3.284
24312W        W95928  17.223  37.302  13.354
24313W        W95929  19.424  19.692  11.192
24314W        W95930  41.382  30.381  12.147
24315W        W95931  31.615  27.564  12.850
24316W        W95932  38.232  23.718   1.554
24317W        W95933  28.959  13.255  13.374
24318W        W95934  24.649  30.097  12.435
24319W        W95935  16.066  37.800  11.565
24320W        W95936  31.715  35.858  11.516
24321W        W95937   1.711  17.200  11.998
24322W        W95938  19.524   6.130  12.384
24323W        W95939  35.450  36.488   3.119
24324W        W95940  12.877  35.339   0.464
24325W        W95941   0.123  43.881  14.665
24326W        W95942  12.256  11.268  14.301
24327W        W95943  44.883  17.851   3.737
24328W        W95944   0.910  39.223  13.474
24329W        W95945  39.076  37.382   2.472
24330W        W95946  10.715  35.582  13.281
24331W        W95947   3.143  21.556   2.838
24332W        W95948  29.687  39.798   0.289
24333W        W95949  31.378  21.495  11.546
24334W        W95950  34.590  29.203  11.570
24335W        W95951   8.603  30.082  13.894
24336W        W95952  24.506  15.789   3.204
24337W        W95953  34.752  31.868  14.295
24338W        W95954  18.790  39.454  13.267
24339W        W95955  44.082  37.562  10.329
24340W        W95956  17.724  23.138   3.152
24341W        W95957  22.311  29.639  13.267
24342W        W95958   5.342  27.422  10.614
24343W        W95959  29.190   3.307   4.454
24344W        W95960   1.426   7.177  14.970
24345W        W95961  15.638  39.539  11.087
24346W        W95962  13.770   6.572  10.572
24347W        W95963  39.686  13.664   5.457
24348W        W95964  18.221  32.148  14.025
24349W        W95965  10.410  28.019   4.040
24350W        W95966  15.750   3.837  11.817
24351W        W95967  37.051  33.874   3.765
24352W        W95968  35.339  33.015   1.729
24353W        W95969  26.496  11.082   3.019
24354W        W95970  25.595   9.358  10.633
24355W        W95971  23.505  22.434  11.953
24356W        W95972  20.292  13.574   2.229
24357W        W95973   6.900  18.329  11.150
24358W        W95974  36.400   0.510   1.503
24359W        W95975  24.545  25.561  10.648
24360W        W95976  34.542  42.845  14.531
24361W        W95977  40.695  44.199  11.095
24362W        W95978  19.179  14.892  10.784
24363W        W95979  27.647  20.181  10.671
24364W        W95980  30.146  14.905  14.039
24365W        W95981   2.800  39.324  10.677
24366W        W95982  32.661  10.740  12.446
24367W        W95983  19.504   8.252  11.067
24368W        W95984  30.872  39.834   2.789
24369W        W95985  28.176  43.830  10.733
24370W        W95986  39.879  24.250   4.136
24371W        W95987   2.486  24.549   4.963
24372W        W95988  27.419  38.537  12.946
24373W        W95989   7.226  14.261  13.419
24374W        W95990   2.912   0.208   1.345
24375W        W95991   0.178  23.970   2.938
24376W        W95992   0.699   2.304   4.087
24377W        W95993  38.076   9.645  14.285
24378W        W95994  20.741   0.728   5.084
24379W        W95995  13.755   3.195  11.576
24380W        W95996  40.289  31.599   1.891
24381W        W95997  33.238   2.300   1.727
24382W        W95998   8.179  30.243   2.803
24383W        W95999  18.116   5.197   0.178
24384W        W96000  28.286  21.505   4.170
24385W        W96001  21.763  25.189   3.138
24386W        W96002  17.370   5.992  11.050
24387W        W96003   4.895  42.117  12.092
24388W        W96004  35.024  24.213  13.645
24389W        W96005  14.099  42.847  14.045
24390W        W96006  19.971   4.822  14.558
24391W        W96007  11.409  35.829  12.464
24392W        W96008  12.032  42.857  11.480
24393W        W96009  11.632  24.690  14.579
24394W        W96010   1.291   8.806  10.841
24395W        W96011  15.735   1.499   0.359
24396W        W96012  28.837  31.524   1.896
24397W        W96013  43.738  15.785  14.445
24398W        W96014  35.447  14.938  14.771
24399W        W96015  21.289  18.053   0.874
24400W        W96016  14.310  11.698  14.056
24401W        W96017  40.141   1.325   0.551
24402W        W96018  37.916  40.392  14.892
24403W        W96019  15.407   7.104   1.887
24404W        W96020  43.999   7.798  13.261
24405W        W96021  27.055  28.149  14.047
24406W        W96022  28.580  40.957  13.788
24407W        W96023  17.564  25.481  12.557
24408W        W96024  35.393  14.388   4.097
24409W        W96025  18.737  20.842  12.200
24410W        W96026  20.001  37.847   2.357
24411W        W96027  15.235  31.579  12.491
24412W        W96028  31.927  42.449   0.217
24413W        W96029  24.858  13.102   4.165
24414W        W96030  41.766  30.060   4.134
24415W        W96031  39.768  28.482  14.477
24416W        W96032  42.029  33.573  11.101
24417W        W96033  37.591   7.246  12.632
24418W        W96034  12.214  23.073   2.686
24419W        W96035   3.386  30.682  12.133
24420W        W96036  44.515   2.756  14.958
24421W        W96037  38.236  20.928  14.229
24422W        W96038  12.679  11.827  12.529
24423W        W96039  23.652  27.603   3.282
24424W        W96040  42.918  15.857   3.149
24425W        W96041  16.719  12.536  12.476
24426W        W96042  11.579  19.618  13.497
24427W        W96043  33.451  41.970  11.917
24428W        W96044  27.814   4.861  11.173
24429W        W96045  24.578   4.439  13.449
24430W        W96046  17.066  18.048   4.119
24431W        W96047  38.640   6.381  13.007
24432W        W96048  34.545  23.441   4.644
24433W        W96049  41.902  20.742  12.168
24434W        W96050  13.886  28.601   4.328
24435W        W96051  23.126  44.660   4.961
24436W        W96052  35.995  36.351   0.606
24437W        W96053  41.701   6.896   4.811
24438W        W96054  13.304  28.556  12.339
24439W        W96055  28.474  34.606  12.401
24440W        W96056  16.683   9.938  12.156
24441W        W96057   1.256  22.910   3.321
24442W        W96058  44.814  10.014  14.662
24443W        W96059  25.157  21.843  11.220
24444W        W96060  37.979   4.488  14.282
24445W        W96061  12.270   8.749  14.998
24446W        W96062  36.153  14.642  12.526
24447W        W96063  26.089  35.669  10.564
24448W        W96064  14.635  42.969  10.662
24449W        W96065  36.403  40.969   0.513
24450W        W96066  28.263  32.490  14.369
24451W        W96067  19.192   6.428   1.229
24452W        W96068  42.483  23.937   3.248
24453W        W96069  41.164  44.753  12.073
24454W        W96070  10.013  28.537  13.018
24455W        W96071  24.173   7.648  12.991
24456W        W96072  20.719   5.905  11.179
24457W        W96073  21.182  25.234   4.942
24458W        W96074  35.707  10.716   2.902
24459W        W96075  10.910  22.607   1.846
24460W        W96076  20.227  35.300  14.160
24461W        W96077  16.652   8.614   2.757
24462W        W96078   0.939  33.129   1.455
24463W        W96079   9.412  28.243   4.360
24464W        W96080   8.818  26.967   0.728
24465W        W96081  26.485  21.564  11.114
24466W        W96082  23.806  17.249  11.320
24467W        W96083  14.257  20.726   4.862
24468W        W96084  37.152   3.376   4.389
24469W        W96085  37.447  33.835   2.876
24470W        W96086  41.146  22.208   1.871
24471W        W96087  34.621  20.604   3.907
24472W        W96088  42.562  21.666   4.612
24473W        W96089  28.635  40.966  14.300
24474W        W96090  22.204  28.368  12.855
24475W        W96091   8.731  22.081   1.020
24476W        W96092   4.339  29.314  11.592
24477W        W96093  42.783  38.254  11.794
24478W        W96094  13.763   1.744  12.885
24479W        W96095   9.432  29.169   1.206
24480W        W96096   6.163  38.019   2.770
24481W        W96097  21.905   4.676   1.737
24482W        W96098  17.772  10.629   2.810
24483W        W96099   2.855  13.919  12.803
24484W        W96100  19.314   1.587  13.002
24485W        W96101  24.089  39.442   4.582
24486W        W96102  29.920   3.416  13.457
24487W        W96103  13.898   1.441  11.893
24488W        W96104   1.783  10.311   3.159
24489W        W96105  23.429  14.066   2.313
24490W        W96106  16.361  14.025  14.939
24491W        W96107   4.858   0.735   5.414
24492W        W96108   0.849  12.250   2.143
24493W        W96109  21.341  34.477  10.702
24494W        W96110   7.488   6.752   1.903
24495W        W96111  43.491  34.377  10.748
24496W        W96112  17.809  19.207  13.121
24497W        W96113  12.652  13.650  12.198
24498W        W96114  11.763  38.451  12.633
24499W        W96115  28.057   7.018   3.710
24500W        W96116  24.467   2.465   1.885
24501W        W96117  20.356  15.142   2.797
24502W        W96118   7.969  30.062  12.723
24503W        W96119  41.382  43.516  13.496
24504W        W96120  40.794  27.344   3.623
24505W        W96121  14.304  38.635   0.442
24506W        W96122  20.387   4.761   3.674
24507W        W96123  25.174  14.259   4.869
24508W        W96124  38.585  24.415   3.931
24509W        W96125  27.483   4.100  11.585
24510W        W96126   7.986  17.186  13.920
24511W        W96127  31.054   7.890  12.884
24512W        W96128  19.153  33.589   4.393
24513W        W96129  22.450  36.247  11.538
24514W        W96130  35.194   4.286  13.256
24515W        W96131  18.076  37.792   4.530
24516W        W96132  32.033  30.909  13.441
24517W        W96133  27.602  16.795   2.416
24518W        W96134   4.893   7.624  11.644
24519W        W96135  31.448  32.141   2.137
24520W        W96136  11.772   0.037  14.848
24521W        W96137  10.264  13.862   0.301
24522W        W96138  31.937   0.145  13.386
24523W        W96139   7.895   7.799   2.030
24524W        W96140   8.586  20.776  14.922
24525W        W96141  40.777  28.871  11.641
24526W        W96142  41.818  38.021   0.007
24527W        W96143  36.285  18.182   3.574
24528W        W96144  33.909   7.437  14.640
24529W        W96145  38.245  36.928   3.663
24530W        W96146  38.751   9.787   1.819
24531W        W96147  22.060  40.833   1.823
24532W        W96148  27.178  34.404   3.693
24533W        W96149  11.850  43.471  11.567
24534W        W96150  40.505   6.285   4.531
24535W        W96151   8.268  13.787  13.961
24536W        W96152  20.923   0.005  13.485
24537W        W96153  40.940   7.689  14.093
24538W        W96154  25.597   8.790  11.422
24539W        W96155  42.952  27.188  13.936
24540W        W96156  31.545  26.756  12.470
24541W        W96157  13.622  15.145  11.614
24542W        W96158   1.191   6.190   1.625
24543W        W96159  35.324  22.465   1.668
24544W        W96160  22.324   8.689  11.605
24545W        W96161  19.484  18.785   0.866
24546W        W96162  43.583   0.446  12.456
24547W        W96163  30.184  14.141  14.365
24548W        W96164  38.578  38.305  13.450
24549W        W96165  42.473  26.899   2.371
24550W        W96166   8.392   3.192  11.280
24551W        W96167  11.452   1.437   4.925
24552W        W96168  39.417  29.091   3.413
24553W        W96169   5.405  11.318  11.524
24554W        W96170  42.383   9.697  11.615
24555W        W96171  32.194  22.046  10.107
24556W        W96172  17.575  13.281  13.164
24557W        W96173  22.664  25.452  11.031
24558W        W96174  29.396  22.286   3.373
24559W        W96175  35.379  37.586   2.446
24560W        W96176  23.995  41.528   3.175
24561W        W96177   3.712  21.130  10.638
24562W        W96178  14.201   3.653  10.970
24563W        W96179  12.823  26.407   1.715
24564W        W96180  26.137   3.421  11.116
24565W        W96181  29.903  38.355  13.395
24566W        W96182  18.694  23.458  12.516
24567W        W96183   3.738  28.157   1.715
24568W        W96184  31.628  39.279   0.958
24569W        W96185  44.462  18.363   2.433
24570W        W96186  37.572  28.936  10.579
24571W        W96187  35.977  10.604  14.323
24572W        W96188  12.282  27.186   0.331
24573W        W96189  27.449  22.534   1.908
24574W        W96190  22.708  24.418   4.267
24575W        W96191  44.943  27.189  13.909
24576W        W96192  39.290  43.920   1.776
24577W        W96193  13.747  40.831   3.945
24578W        W96194  25.515  30.141   3.177
24579W        W96195  35.542  29.205  12.651
24580W        W96196   4.628   3.168   0.702
24581W        W96197   3.934  19.073  14.492
24582W        W96198  27.411   8.347  14.926
24583W        W96199   0.107  12.972  11.620
24584W        W96200  31.919   0.976  12.885
24585W        W96201  32.885  35.586   1.192
24586W        W96202  35.553  17.523   4.561
24587W        W96203  10.349  38.067   0.035
24588W        W96204   2.219   0.750  13.835
24589W        W96205   2.373   0.810  13.341
24590W        W96206  20.041  30.954   4.624
24591W        W96207  33.192  39.088   4.358
24592W        W96208  28.933   5.545   2.583
24593W        W96209  39.327  22.559  10.564
24594W        W96210  44.892   6.785   3.252
24595W        W96211  42.034  28.147  14.003
24596W        W96212   1.061   3.262   0.417
24597W        W96213  30.244   8.374  13.431
24598W        W96214  34.671  24.158  14.062
24599W        W96215  12.177   3.583   0.653
24600W        W96216   0.238  36.898   4.046
24601W        W96217  15.749  42.125   4.080
24602W        W96218  16.878  23.549   3.648
24603W        W96219  33.545  29.067   0.925
24604W        W96220  11.325   8.646   2.203
24605W        W96221  38.321  29.443   2.375
24606W        W96222  15.600  30.579  10.345
24607W        W96223  14.990  38.998   2.750
24608W        W96224  23.646   2.201  12.243
24609W        W96225  37.164  24.043  12.507
24610W        W96226  44.409  44.769  11.506
24611W        W96227  10.027  37.985   2.305
24612W        W96228   7.448  38.920   0.056
24613W        W96229   4.404  19.183  13.721
24614W        W96230  35.948   5.148   1.875
24615W        W96231  28.552  13.132   3.697
24616W        W96232  33.128   8.480   2.268
24617W        W96233  35.013  26.048   4.670
24618W        W96234  28.851  43.989   0.140
24619W        W96235  21.199  40.557   4.685
24620W        W96236   3.517  39.715  11.092
24621W        W96237  30.139  30.909  10.544
24622W        W96238   0.359   0.226   1.280
24623W        W96239   4.241   7.145  12.250
24624W        W96240  12.474  11.569   4.231
24625W        W96241  23.539  41.498  14.423
24626W        W96242  33.843  34.333  13.066
24627W        W96243  17.702   6.681   1.836
24628W        W96244  27.637   6.698   4.294
24629W        W96245  20.159  19.159   1.987
24630W        W96246  36.094   5.110  11.828
24631W        W96247  18.516   6.215   0.381
24632W        W96248  13.110   2.764  14.544
24633W        W96249  27.053  17.359  14.496
24634W        W96250   0.728  30.107  10.961
24635W        W96251  32.441  26.851   1.322
24636W        W96252   2.338   4.921   1.176
24637W        W96253  28.385  43.476  10.436
24638W        W96254  42.199  34.506  11.905
24639W        W96255  31.084   5.852   1.784
24640W        W96256  40.363  38.480   3.595
24641W        W96257  17.046  17.544  14.834
24642W        W96258  24.238  43.512  13.400
24643W        W96259   2.526  13.741   3.340
24644W        W96260  35.018  33.319  13.993
24645W        W96261  30.965  21.327   0.316
24646W        W96262  12.711  26.290  11.358
24647W        W96263  33.383   6.472  12.467
24648W        W96264  16.204   7.554   4.417
24649W        W96265   4.224   4.303   1.341
24650W        W96266  24.604  19.965  14.264
24651W        W96267   1.268  12.755  10.499
24652W        W96268  38.810  20.609   1.033
24653W        W96269   7.723  10.524  12.714
24654W        W96270   7.920  28.393   1.245
24655W        W96271  15.552  40.464   2.262
24656W        W96272  44.849   2.528  14.304
24657W        W96273   7.077   5.006  13.955
24658W        W96274  39.823   5.612   4.354
24659W        W96275   7.243  29.805   1.302
24660W        W96276   5.849   8.519  13.417
24661W        W96277  42.353  28.135  12.424
24662W        W96278  26.626  39.751   4.068
24663W        W96279   0.968  14.508   4.538
24664W        W96280  41.428   3.282  10.329
24665W        W96281  43.418  30.024  12.587
24666W        W96282  25.111  14.895   1.704
24667W        W96283  18.307  12.592  13.325
24668W        W96284  16.204  36.442  10.762
24669W        W96285  39.904   3.647   1.291
24670W        W96286  17.138  33.329   0.984
24671W        W96287  34.040   3.262  13.553
24672W        W96288  10.852   1.248  14.786
24673W        W96289  19.630  26.652  11.719
24674W        W96290  14.517  22.335   3.211
24675W        W96291  37.791  15.130   2.434
24676W        W96292  39.611  14.128  13.380
24677W        W96293  15.604  10.393  12.852
24678W        W96294  39.040   0.308  12.552
24679W        W96295   8.359   2.246   2.318
24680W        W96296  42.249  41.459   2.243
24681W        W96297  33.960  41.737  11.633
24682W        W96298  31.148  34.817   1.214
24683W        W96299  33.685  21.630   3.859
24684W        W96300  31.319  36.034   0.365
24685W        W96301  39.828  17.332   1.770
24686W        W96302   3.774  43.115  14.350
24687W        W96303  40.301  36.600   3.264
24688W        W96304   9.827   1.946   3.671
24689W        W96305  12.663   0.008  11.457
24690W        W96306   8.756  44.244   2.769
24691W        W96307   6.222  44.250   3.166
24692W        W96308  14.039   3.265   3.987
24693W        W96309  30.388  28.706   4.495
24694W        W96310   0.315   9.957   2.506
24695W        W96311  29.495  34.102  10.907
24696W        W96312  14.746  37.572   4.934
24697W        W96313  19.100   9.711  11.905
24698W        W96314  10.350  13.588  11.992
24699W        W96315   6.542   1.961   0.266
24700W        W96316   5.961   5.394   4.527
24701W        W96317  41.515  21.204  13.419
24702W        W96318  41.025  33.504   3.604
24703W        W96319   9.743  40.549   1.291
24704W        W96320   1.517  29.125  12.364
24705W        W96321  24.030  13.089  13.096
24706W        W96322  35.495  27.113   0.959
24707W        W96323  43.739   1.369   4.608
24708W        W96324  25.336  41.449   4.805
24709W        W96325   8.731  35.576   0.388
24710W        W96326  30.552  44.180   2.210
24711W        W96327  42.252  28.636  12.342
24712W        W96328   8.767   5.809  12.897
24713W        W96329  34.425  24.070  14.498
24714W        W96330  42.975  21.988  12.108
24715W        W96331  20.022  29.717   2.291
24716W        W96332  44.418  16.183  12.304
24717W        W96333  30.520  25.863   3.861
24718W        W96334   4.747  18.940   4.503
24719W        W96335  25.960  30.506  13.774
24720W        W96336  34.893   7.271  13.541
24721W        W96337  10.999  21.577  13.195
24722W        W96338  42.811  38.831  14.961
24723W        W96339  32.936   8.361  11.099
24724W        W96340  20.481   9.403   3.673
24725W        W96341  21.550  18.727  11.737
24726W        W96342  11.179  41.305   4.651
24727W        W96343  14.666  42.973  11.555
24728W        W96344  31.476  16.576   2.162
24729W        W96345  39.005   4.200  11.486
24730W        W96346  41.707   7.571  12.607
24731W        W96347  44.894  24.745  10.753
24732W        W96348  24.258  25.657   3.317
24733W        W96349  12.608   5.645   0.381
24734W        W96350  17.365  14.122   4.165
24735W        W96351  36.317  41.982   4.620
24736W        W96352  17.302  22.368   1.939
24737W        W96353  44.233   8.687   3.193
24738W        W96354  39.826  41.527  10.777
24739W        W96355  19.487  24.621   1.733
24740W        W96356  42.893  42.926   3.673
24741W        W96357  13.144  33.799   4.688
24742W        W96358  26.426  30.474  11.535
24743W        W96359  31.832  41.242  14.310
24744W        W96360  20.454   1.348  12.067
24745W        W96361  25.402  33.536  11.919
24746W        W96362  29.100  27.455  12.344
24747W        W96363  23.736  43.818  11.301
24748W        W96364  44.432  12.562   0.901
24749W        W96365  27.463  35.164   4.073
24750W        W96366  29.642  20.079   1.642
24751W        W96367  33.331  22.578   0.878
24752W        W96368  10.605  32.902  14.958
24753W        W96369  37.460  36.453  14.784
24754W        W96370  12.820  29.562  12.254
24755W        W96371  22.574  26.432  10.161
24756W        W96372  24.946  26.690   2.272
24757W        W96373  43.922  36.353   1.732
24758W        W96374  37.105  22.716   0.219
24759W        W96375  29.189  23.435   4.252
24760W        W96376  15.075  18.384   3.612
24761W        W96377  20.916  42.845   2.764
24762W        W96378   8.837   1.173  10.905
24763W        W96379  34.721  16.607   3.267
24764W        W96380   5.172  20.346  10.527
24765W        W96381  32.465  29.435  14.017
24766W        W96382   6.197   8.783  12.112
24767W        W96383  39.966  19.606   1.980
24768W        W96384  29.768   0.206  11.009
24769W        W96385  39.030  14.513   0.382
24770W        W96386  32.925   6.254   4.109
24771W        W96387  12.794  17.545  10.674
24772W        W96388  28.774  16.215   5.092
24773W        W96389  35.580  41.845   2.488
24774W        W96390  13.575  31.661  12.065
24775W        W96391   3.036  30.837   1.296
24776W        W96392  22.507  24.286   2.513
24777W        W96393  30.913   7.310   9.960
24778W        W96394  44.517  36.212  11.611
24779W        W96395  20.554  13.624   1.752
24780W        W96396   2.146   4.286  14.711
24781W        W96397   1.069  33.133   2.870
24782W        W96398  21.744  23.155  10.779
24783W        W96399  20.797  38.426   2.417
24784W        W96400  14.761  39.798   0.377
24785W        W96401  32.985  15.624   0.974
24786W        W96402  38.895   4.423  12.078
24787W        W96403  41.109  35.432   2.455
24788W        W96404  20.225  21.240   2.751
24789W        W96405  20.757  22.726  13.485
24790W        W96406  24.520  26.512  14.761
24791W        W96407  31.191  13.611   4.397
24792W        W96408  15.611  10.458  10.126
24793W        W96409  35.539  42.526   3.699
24794W        W96410  22.738  35.161   0.796
24795W        W96411   5.392  27.086  11.001
24796W        W96412  35.024  34.046   1.217
24797W        W96413  44.613   6.362   5.165
24798W        W96414  19.543  40.267  13.829
24799W        W96415  21.857  25.900   2.449
24800W        W96416  42.264  23.117  13.378
24801W        W96417  23.857  24.718   0.785
24802W        W96418  44.771  33.039   2.697
24803W        W96419  16.195  44.311  11.867
24804W        W96420   8.361  26.473   4.639
24805W        W96421  32.002  20.763  12.991
24806W        W96422  22.812   8.909   9.893
24807W        W96423  22.611  40.216  11.152
24808W        W96424  42.448  35.078   4.685
24809W        W96425  42.857  36.108  12.399
24810W        W96426  32.448  24.578   5.089
24811W        W96427  24.291  10.288  11.606
24812W        W96428  26.280  34.452   0.026
24813W        W96429  29.607   4.675  12.554
24814W        W96430  10.442   5.028  12.599
24815W        W96431  44.960  38.523  14.809
24816W        W96432  30.740  34.048  14.100
24817W        W96433  25.685  12.449  11.660
24818W        W96434  25.094  26.665  13.931
24819W        W96435  29.602   2.833  14.304
24820W        W96436  18.901  13.441   2.292
24821W        W96437  19.807  24.071  12.216
24822W        W96438  25.565  31.223   1.766
24823W        W96439  41.038   1.455  10.459
24824W        W96440  32.918  10.131  13.055
24825W        W96441  38.989  34.088  12.828
24826W        W96442  28.115  44.207   2.496
24827W        W96443  31.064  14.242  13.832
24828W        W96444  12.283  29.331   3.269
24829W        W96445   4.285  15.701   2.699
24830W        W96446  12.795  29.576   3.926
24831W        W96447  25.430  23.636   2.619
24832W        W96448   5.307  10.352  11.435
24833W        W96449  42.403  16.216  14.859
24834W        W96450  12.044  33.694   1.706
24835W        W96451   4.847   3.461   2.895
24836W        W96452  37.871   0.697  13.440
24837W        W96453  15.762  43.092  11.719
24838W        W96454  17.706  10.595   0.676
24839W        W96455  12.650  13.496   2.359
24840W        W96456  24.777  40.892   3.824
24841W        W96457   8.628  28.881  13.402
24842W        W96458  12.538  25.524  12.977
24843W        W96459  37.424  36.817  12.562
24844W        W96460  35.026  33.158   1.313
24845W        W96461  29.557   9.463  14.370
24846W        W96462  24.768  34.135   1.884
24847W        W96463   1.053  19.725   3.471
24848W        W96464  27.683  14.227   4.653
24849W        W96465  19.280   6.736   2.441
24850W        W96466  16.061  14.212  14.452
24851W        W96467  29.155  29.854  13.168
24852W        W96468  12.245  43.347   4.658
24853W        W96469   4.343  16.092   4.636
24854W        W96470  23.041   6.120   3.325
24855W        W96471  26.270  13.832  13.969
24856W        W96472  31.931   9.392  14.302
24857W        W96473  15.548  31.071  10.521
24858W        W96474  21.425  39.226  13.437
24859W        W96475  42.424  17.583   3.361
24860W        W96476   8.036  17.737  10.900
24861W        W96477  34.987  43.597   1.241
24862W        W96478  15.252  25.729  14.715
24863W        W96479  23.046  24.208   1.327
24864W        W96480  19.682  27.478  11.142
24865W        W96481  23.454  41.469  10.436
24866W        W96482  40.043   0.529   2.579
24867W        W96483  24.121  29.932  13.396
24868W        W96484  28.148  12.306  11.997
24869W        W96485  29.980  40.769  12.624
24870W        W96486  31.172  16.212  13.787
24871W        W96487  14.791  41.754  11.762
24872W        W96488  35.404   4.796  13.829
24873W        W96489  27.042  15.014  13.037
24874W        W96490  29.972  22.834   3.318
24875W        W96491  10.272  34.840  13.878
24876W        W96492   7.358   3.395   0.537
24877W        W96493  16.295  28.817  13.500
24878W        W96494   7.841  36.897   4.492
24879W        W96495  19.713  28.565  14.334
24880W        W96496  11.115   5.704  12.620
24881W        W96497  11.289  32.653   0.991
24882W        W96498  18.148  39.985   2.196
24883W        W96499  42.821   6.275   3.464
24884W        W96500   3.678  27.267   3.573
24885W        W96501  27.235  44.906  13.023
24886W        W96502   2.879  38.398  11.531
24887W        W96503  43.645  10.821   3.193
24888W        W96504   9.093   3.273  12.839
24889W        W96505  17.599  36.417  14.951
24890W        W96506  28.318  10.647  14.342
24891W        W96507  10.881  29.946   2.719
24892W        W96508   9.219  27.001  13.372
24893W        W96509   5.279  10.694   2.321
24894W        W96510   9.437  28.173   0.440
24895W        W96511  23.943   9.751  10.535
24896W        W96512  41.169  31.968   4.528
24897W        W96513   5.600  13.087  11.140
24898W        W96514  17.223  39.778  13.959
24899W        W96515  23.128  27.088  13.806
24900W        W96516  21.594  30.567  10.410
24901W        W96517   0.409  13.649   2.292
24902W        W96518  11.239   2.684   0.413
24903W        W96519  30.156  23.543  14.494
24904W        W96520  38.536  40.357   4.035
24905W        W96521  33.393  14.627   4.342
24906W        W96522  16.314  30.878   3.891
24907W        W96523  15.828  43.549   1.805
24908W        W96524  20.244   0.013   1.641
24909W        W96525   2.796  36.951  13.885
24910W        W96526   1.915  38.008   0.477
24911W        W96527  36.592  34.364   0.298
24912W        W96528   1.640  35.205   2.053
24913W        W96529  39.412   3.561   2.506
24914W        W96530   1.992  14.072  12.678
24915W        W96531   5.672  22.380  11.075
24916W        W96532   9.806   5.808  12.633
24917W        W96533  27.509  12.554  13.864
24918W        W96534  28.515   6.678  11.592
24919W        W96535  35.895  42.418  11.920
24920W        W96536  33.311  17.699   2.320
24921W        W96537  16.908  39.948  12.118
24922W        W96538  32.974  11.350   3.638
24923W        W96539  26.555  10.351  13.554
24924W        W96540  39.832  20.597   3.324
24925W        W96541  41.800   8.164   2.251
24926W        W96542  40.735  19.281  14.819
24927W        W96543   4.054   1.405  11.077
24928W        W96544  38.981  25.824  13.541
24929W        W96545  41.376  13.520  14.444
24930W        W96546  20.712   7.820  14.701
24931W        W96547  18.157  21.788   4.538
24932W        W96548  24.694  19.364  11.557
24933W        W96549  25.670  39.143  14.428
24934W        W96550  20.247  22.577   4.375
24935W        W96551  32.493  11.620   4.925
24936W        W96552  15.047   4.183  10.230
24937W        W96553  33.330   0.894   4.444
24938W        W96554  27.911  36.146   1.444
24939W        W96555  15.866  37.777   3.793
24940W        W96556   5.544  28.577   4.024
24941W        W96557  40.725  16.596   0.394
24942W        W96558  30.757  41.254   3.248
24943W        W96559   1.363  29.253   0.696
24944W        W96560  12.286  44.009   0.392
24945W        W96561  12.041  33.349   3.346
24946W        W96562  19.970  28.261  13.454
24947W        W96563  36.062  26.127  14.476
24948W        W96564  16.669   9.084  12.740
24949W        W96565  27.644  35.703   1.588
24950W        W96566  42.463   8.671   2.717
24951W        W96567  12.351  43.117   3.332
24952W        W96568  34.467  29.303  12.970
24953W        W96569   8.828   8.640  14.478
24954W        W96570  26.678  34.377   1.181
24955W        W96571  28.921  25.627  11.094
24956W        W96572  31.068   8.879   4.104
24957W        W96573  30.092  42.596   2.393
24958W        W96574  43.749   8.747  10.942
24959W        W96575  12.083  21.638  12.136
24960W        W96576  14.267  15.793   4.535
24961W        W96577  28.487   1.783   4.405
24962W        W96578  16.053  44.398  13.772
24963W        W96579  40.300  23.535  12.450
24964W        W96580   6.656  41.919   1.199
24965W        W96581  20.819  32.421   1.949
24966W        W96582  34.400  39.806  10.716
24967W        W96583  23.264  39.008   3.657
24968W        W96584   8.443  29.603   0.967
24969W        W96585  21.225  12.653  13.065
24970W        W96586  14.620  44.278   2.798
24971W        W96587  29.103  29.385  14.118
24972W        W96588  27.144   6.569  10.724
24973W        W96589   6.405  44.239   0.259
24974W        W96590  31.027  13.229   0.926
24975W        W96591   2.734  42.906  10.169
24976W        W96592  11.344   0.130   4.611
24977W        W96593  15.245  24.202   3.676
24978W        W96594  37.325  16.075  13.545
24979W        W96595  34.920  38.463  10.894
24980W        W96596   6.957  44.484   3.526
24981W        W96597   2.454  37.385   2.052
24982W        W96598  22.041  24.882  11.541
24983W        W96599  21.764  34.430   4.024
24984W        W96600  15.508  33.611   3.498
24985W        W96601  23.072  38.970  13.987
24986W        W96602   8.834   7.904   5.065
24987W        W96603  15.205  18.385  14.801
24988W        W96604  40.470   5.669   3.734
24989W        W96605  42.973   9.212  13.986
24990W        W96606  15.283   9.298  13.081
24991W        W96607  13.599  26.310  11.066
24992W        W96608  21.289  38.822  14.292
24993W        W96609  22.975  42.673   4.912
24994W        W96610  21.581  23.512   3.405
24995W        W96611  36.115  16.748   1.729
24996W        W96612   2.928  31.698  14.457
24997W        W96613  21.821  20.968  11.100
24998W        W96614  14.711  30.224  11.482
24999W        W96615  44.090  35.379   5.168
25000W        W96616  18.000  30.176   3.595
25001W        W96617  43.518  33.926   1.717
25002W        W96618  38.089  10.302   4.086
25003W        W96619  33.570  42.801   1.694
25004W        W96620  13.817  18.695   2.753
25005W        W96621  18.580  31.806   1.467
25006W        W96622  36.375  32.607  11.179
25007W        W96623  11.746   6.076  13.806
25008W        W96624   5.323  39.891   2.338
25009W        W96625  17.677  35.406   4.450
25010W        W96626  21.601  10.288   4.402
25011W        W96627   4.671  19.564   1.326
25012W        W96628  40.100   3.806  11.224
25013W        W96629   2.555  38.281   4.582
25014W        W96630  10.750  36.583   3.844
25015W        W96631  36.755  15.230  11.987
25016W        W96632  11.335  31.135  13.518
25017W        W96633  24.887  11.411  14.834
25018W        W96634  15.307   1.356  12.527
25019W        W96635  28.825  40.538  13.534
25020W        W96636  27.019   4.831   0.387
25021W        W96637  21.255  37.039   2.736
25022W        W96638  29.564  31.582   4.934
25023W        W96639  33.447  19.176   2.317
25024W        W96640  32.162  40.557  13.867
25025W        W96641  41.109  31.621  13.338
25026W        W96642  21.577  41.672   0.511
25027W        W96643  28.768  29.384  10.661
25028W        W96644  27.872  32.788  14.714
25029W        W96645  31.485   3.283  12.194
25030W        W96646  17.441  30.281  13.897
25031W        W96647  41.436  17.568  11.419
25032W        W96648  13.083   3.921   4.562
25033W        W96649   3.765   6.188   2.333
25034W        W96650  21.554   0.695   0.905
25035W        W96651   6.320  26.712   3.179
25036W        W96652   7.708  26.605   3.620
25037W        W96653  35.534  19.581   3.817
25038W        W96654  32.292  16.828   2.763
25039W        W96655   6.856   7.283   1.206
25040W        W96656  26.558   1.041  13.722
25041W        W96657  26.014  34.544   3.169
25042W        W96658   0.746  15.091  10.360
25043W        W96659  18.695  44.224  13.724
25044W        W96660  23.588  27.349   2.676
25045W        W96661  10.144   3.062   3.535
25046W        W96662   3.001  27.915   3.703
25047W        W96663   9.704   8.639   2.784
25048W        W96664  26.225  21.528  14.546
25049W        W96665   4.181  16.613   3.759
25050W        W96666  12.618   0.498  14.026
25051W        W96667  41.331  14.795  12.849
25052W        W96668   3.902   4.974  13.949
25053W        W96669   5.895  35.090   4.056
25054W        W96670  39.001   9.743  11.631
25055W        W96671  12.534   8.918  13.307
25056W        W96672  31.376  12.121  12.328
25057W        W96673  27.173   9.298   1.290
25058W        W96674  33.509  16.387  11.169
25059W        W96675   6.460  10.893   0.869
25060W        W96676  38.550  15.274   1.790
25061W        W96677  44.743  19.160  12.046
25062W        W96678  13.079  42.892   1.403
25063W        W96679  40.114  20.655   3.885
25064W        W96680  39.959  27.957   1.945
25065W        W96681  34.057   3.972   2.368
25066W        W96682  44.729  13.320  11.641
25067W        W96683   6.580  17.996   4.151
25068W        W96684  30.075  43.464   2.559
25069W        W96685  35.127  17.336  12.505
25070W        W96686   1.621  44.050  10.314
25071W        W96687  20.241  31.417   0.731
25072W        W96688   1.857   4.523  13.837
25073W        W96689  24.947  12.701  13.996
25074W        W96690  13.515  21.801   1.680
25075W        W96691  30.080  43.404   1.117
25076W        W96692   2.975  13.760   1.253
25077W        W96693  14.328   9.756   0.882
25078W        W96694  30.170   8.180  14.389
25079W        W96695  34.182  19.117   1.815
25080W        W96696  20.660   0.194  12.964
25081W        W96697   6.923  21.688  13.867
25082W        W96698  37.461  32.105  11.741
25083W        W96699  10.845   4.171  13.627
25084W        W96700   8.803  38.054  11.017
25085W        W96701   1.018  10.720   2.361
25086W        W96702  16.011  40.519   4.270
25087W        W96703  17.574  17.575   1.241
25088W        W96704  38.321  40.959  12.298
25089W        W96705   4.420   2.216   4.085
25090W        W96706  38.944  40.133  11.702
25091W        W96707  18.410  23.054  13.888
25092W        W96708  15.488   8.698  10.485
25093W        W96709   8.634  12.343  13.233
25094W        W96710  44.461   1.344   1.848
25095W        W96711  16.571   5.391   3.146
25096W        W96712  35.292  19.064   0.294
25097W        W96713  44.954  15.320   1.867
25098W        W96714  29.611  36.566  11.984
25099W        W96715  36.444  13.338  11.930
25100W        W96716  25.681  34.498   2.369
25101W        W96717  39.814  22.565  13.282
25102W        W96718  33.502  41.569  13.573
25103W        W96719  22.078   2.680  12.410
25104W        W96720   7.375  41.948   3.784
25105W        W96721  19.630   7.200   4.588
25106W        W96722  19.281  17.579   1.417
25107W        W96723  10.777  40.351  13.515
25108W        W96724  21.290  37.567   9.923
25109W        W96725  22.693  21.018  14.757
25110W        W96726  43.061  38.130   5.589
25111W        W96727  39.810  12.587  11.526
25112W        W96728  42.808   0.056   0.702
25113W        W96729  40.053  25.920   1.781
25114W        W96730   2.960   5.252   0.334
25115W        W96731   0.036  32.984   0.244
25116W        W96732   9.883   5.252   1.561
25117W        W96733  25.111  40.142   1.736
25118W        W96734   6.901  22.522  14.941
25119W        W96735  30.349  29.110  13.784
25120W        W96736  25.721  44.342   2.318
25121W        W96737  21.181  31.648  11.173
25122W        W96738  35.814  13.628   0.888
25123W        W96739   4.440  41.836  11.987
25124W        W96740  11.329  28.347  12.016
25125W        W96741   9.018  21.260   2.894
25126W        W96742   2.279  19.774  12.485
25127W        W96743  12.256  33.667  14.292
25128W        W96744  33.972  11.415   4.051
25129W        W96745  42.815   9.181   3.162
25130W        W96746  30.192   4.791  13.419
25131W        W96747   3.662  43.688  10.643
25132W        W96748   0.205  38.008   4.629
25133W        W96749  22.711  14.361   3.741
25134W        W96750  41.280  38.867   1.869
25135W        W96751   5.707   6.312  12.879
25136W        W96752  37.886  14.596  11.828
25137W        W96753  17.840  31.941  12.814
25138W        W96754   6.599   4.442   2.676
25139W        W96755  34.040  17.620   1.432
25140W        W96756  43.954  26.555  10.688
25141W        W96757  12.681  24.721  12.455
25142W        W96758  39.117   6.314   3.251
25143W        W96759  10.178  36.582   4.256
25144W        W96760  19.122   7.686  12.689
25145W        W96761  13.361  13.207  12.389
25146W        W96762  32.982   8.852   1.880
25147W        W96763   5.978  28.933  14.469
25148W        W96764  12.147  33.949  11.551
25149W        W96765  25.113  35.086   3.679
25150W        W96766  29.623  18.852   4.992
25151W        W96767   6.660  19.637   4.213
25152W        W96768  24.533  42.907   1.336
25153W        W96769   4.840   2.053   4.837
25154W        W96770   0.922  44.832  10.624
25155W        W96771  29.147  26.663   3.334
25156W        W96772  36.161  37.961   2.535
25157W        W96773  28.327   1.212  14.236
25158W        W96774  12.755  41.989   0.766
25159W        W96775   0.407  36.404  11.537
25160W        W96776   7.269  20.784   0.281
25161W        W96777  31.341  12.059  11.782
25162W        W96778   2.510  23.538   1.383
25163W        W96779  39.045  11.166   3.843
25164W        W96780  36.636  43.315   4.722
25165W        W96781  15.601  22.126  13.860
25166W        W96782  38.558  19.545  13.191
25167W        W96783  22.556   7.347   3.677
25168W        W96784  10.229   0.554  11.355
25169W        W96785  23.084  30.113   1.612
25170W        W96786   2.807  15.537  12.422
25171W        W96787  19.481   0.033  13.287
25172W        W96788  18.808  21.986   1.487
25173W        W96789   0.913  36.546   4.423
25174W        W96790   0.908  23.102  14.037
25175W        W96791  10.931  40.935   1.713
25176W        W96792  16.118  41.393   4.499
25177W        W96793  37.709  10.252  10.057
25178W        W96794   3.278  16.980   2.874
25179W        W96795  26.017  26.254   3.292
25180W        W96796  22.289  42.233   1.707
25181W        W96797  31.314  44.890   3.160
25182W        W96798  13.185   2.352  14.841
25183W        W96799   5.803  29.725   3.868
25184W        W96800  19.508  21.479   1.876
25185W        W96801   3.209  36.028   3.033
25186W        W96802  43.237  26.121  12.066
25187W        W96803  44.411  42.820   0.868
25188W        W96804  40.514  27.604   1.887
25189W        W96805   4.155  19.254  12.030
25190W        W96806  13.269  42.868   2.299
25191W        W96807  29.270  29.145   5.462
25192W        W96808  15.137   4.951  10.714
25193W        W96809  16.239  28.983  14.426
25194W        W96810  31.116  33.873  12.546
25195W        W96811  21.736   4.825  11.750
25196W        W96812  33.192  32.627   2.708
25197W        W96813  21.716  23.040   0.015
25198W        W96814  34.723  12.835  10.690
25199W        W96815  44.567   7.405  13.986
25200W        W96816  44.832  33.425   0.551
25201W        W96817  20.730  29.719  11.567
25202W        W96818   1.182  23.574   4.607
25203W        W96819   4.984  17.191   1.970
25204W        W96820  18.046  22.741  14.560
25205W        W96821  10.369  38.252  10.094
25206W        W96822   3.246   1.880  13.553
25207W        W96823   5.470  11.768  14.025
25208W        W96824   9.745   0.281   3.303
25209W        W96825  17.271   8.620  14.449
25210W        W96826  25.445  36.805  12.912
25211W        W96827  21.111   5.770  10.532
25212W        W96828  44.474  23.456   0.971
25213W        W96829  19.097   3.693   1.690
25214W        W96830  18.775   0.145   9.679
25215W        W96831  10.805  27.701  10.326
25216W        W96832  13.733   4.860   3.208
25217W        W96833   1.735   4.716   1.897
25218W        W96834  26.454   1.445   4.258
25219W        W96835  15.724  14.170  12.557
25220W        W96836  31.536  27.255  12.442
25221W        W96837  27.036  40.105  14.892
25222W        W96838  27.940  14.878   1.130
25223W        W96839  43.166   8.708   1.480
25224W        W96840  24.866  23.077  11.489
25225W        W96841   6.088  30.986  12.044
25226W        W96842  28.223  33.308  13.885
25227W        W96843  21.627  32.818   4.731
25228W        W96844  22.157   4.061  11.642
25229W        W96845  21.335  38.325   0.570
25230W        W96846  44.985  21.052   2.084
25231W        W96847   8.212  26.760  12.510
25232W        W96848  15.822  37.995  10.501
25233W        W96849  17.208  31.690  12.759
25234W        W96850   6.215  12.045   4.985
25235W        W96851  29.002  38.844   2.648
25236W        W96852  10.218  13.656  14.785
25237W        W96853  29.270   4.947   1.260
25238W        W96854  24.691  39.069   4.738
25239W        W96855   3.390  10.933   3.971
25240W        W96856  17.368  20.028   2.148
25241W        W96857  33.969  27.383  14.367
25242W        W96858  35.445   9.769   3.081
25243W        W96859  15.894  11.813  11.263
25244W        W96860  17.840  42.811  14.486
25245W        W96861  35.120  39.308   0.139
25246W        W96862   7.496  16.181  11.704
25247W        W96863  34.586   3.275   1.615
25248W        W96864   9.884  14.848   3.807
25249W        W96865  17.932  22.561   0.864
25250W        W96866  11.404   9.788   0.788
25251W        W96867  16.255  16.907   3.703
25252W        W96868   7.901   2.566   3.555
25253W        W96869  21.662  39.494   1.513
25254W        W96870   0.884  15.760  11.137
25255W        W96871  18.640  13.828  13.861
25256W        W96872  21.266   3.394  14.723
25257W        W96873  21.227  13.655   2.318
25258W        W96874  21.162  26.154  14.800
25259W        W96875  27.327  42.345   0.150
25260W        W96876  10.226   7.286  10.742
25261W        W96877  14.423  34.664   3.722
25262W        W96878  29.041  29.997   4.624
25263W        W96879  43.947  28.457  14.412
25264W        W96880  32.205  11.165  10.183
25265W        W96881  37.287   9.366  14.131
25266W        W96882  12.694  19.791   3.260
25267W        W96883  21.107   0.157  10.463
25268W        W96884  13.195  27.196  13.952
25269W        W96885  35.536   3.902   3.733
25270W        W96886   2.410  31.558   1.686
25271W        W96887  31.653  44.403   5.059
25272W        W96888  24.563  22.511   4.624
25273W        W96889   9.128  38.278  10.702
25274W        W96890   2.464  42.535   2.797
25275W        W96891  36.066  20.902  11.499
25276W        W96892  29.285  14.321   0.454
25277W        W96893  38.994  16.889   2.735
25278W        W96894  24.567   9.196  14.369
25279W        W96895   3.998   2.282   0.723
25280W        W96896  29.967  24.174   2.149
25281W        W96897  31.157  41.829   4.071
25282W        W96898  21.579  16.600  10.982
25283W        W96899  39.858  19.335  10.614
25284W        W96900  14.801   9.702  11.914
25285W        W96901   2.150  44.921  14.494
25286W        W96902  11.037   8.126   3.254
25287W        W96903  40.589   6.655  12.896
25288W        W96904  43.948  22.155   1.637
25289W        W96905  15.590  30.608   0.693
25290W        W96906  38.556  29.289   3.433
25291W        W96907  20.763  30.441  13.293
25292W        W96908  30.851  13.116   2.345
25293W        W96909   3.378  37.038   4.631
25294W        W96910   7.141  20.499   1.695
25295W        W96911   0.393   0.673  14.564
25296W        W96912   4.175  23.457  13.747
25297W        W96913  36.539  35.411  13.873
25298W        W96914  11.247  38.252  12.567
25299W        W96915  23.796  36.377   2.095
25300W        W96916   8.236  36.308   1.852
25301W        W96917   6.805  27.659   2.243
25302W        W96918  16.831  34.645  14.250
25303W        W96919   6.859   9.728   1.368
25304W        W96920  12.081  33.957  14.695
25305W        W96921   3.374   4.920   1.404
25306W        W96922  38.695  24.339   5.143
25307W        W96923   1.929  43.995   1.738
25308W        W96924  43.872  16.564  12.918
25309W        W96925  37.200  22.106   1.420
25310W        W96926   6.627  30.449   4.116
25311W        W96927  30.141  14.712   0.950
25312W        W96928  29.012  40.836   3.577
25313W        W96929  36.172  13.432  14.922
25314W        W96930   7.938  38.464  12.344
25315W        W96931  27.958  23.600  12.608
25316W        W96932   0.331  11.679  14.396
25317W        W96933  15.926  27.686   1.261
25318W        W96934  39.422  28.083  10.678
25319W        W96935  17.288  41.004  14.235
25320W        W96936  18.727  12.395  11.539
25321W        W96937  37.685   8.736   2.962
25322W        W96938  39.905  33.382  13.888
25323W        W96939  43.355   6.176   1.759
25324W        W96940  27.465  12.517   3.413
25325W        W96941  34.120  43.960  10.562
25326W        W96942  36.848  19.938   1.810
25327W        W96943  20.591  34.532   1.670
25328W        W96944  14.126  14.889   2.792
25329W        W96945  35.830   4.350  13.352
25330W        W96946  27.120  44.062  12.001
25331W        W96947  25.941  42.309  11.626
25332W        W96948  44.911  30.165   3.705
25333W        W96949   5.970  12.995  13.210
25334W        W96950  21.125  24.449   2.786
25335W        W96951  28.950  10.160  11.119
25336W        W96952  36.532  11.309  10.244
25337W        W96953  15.774  35.446  11.484
25338W        W96954  39.517  11.281   3.633
25339W        W96955  31.767  38.404   0.886
25340W        W96956   6.667   5.217   0.368
25341W        W96957  41.043   5.001  12.556
25342W        W96958   9.693   0.465   3.812
25343W        W96959  23.942  17.232  11.871
25344W        W96960  30.073  10.622  14.475
25345W        W96961  38.300   7.980   4.120
25346W        W96962   0.295  25.166   4.551
25347W        W96963   8.293   1.038  13.949
25348W        W96964  25.417   7.494  12.408
25349W        W96965  38.042  37.043  10.925
25350W        W96966  26.099  31.974   0.344
25351W        W96967  15.290  24.638   3.394
25352W        W96968   8.109   3.262  12.112
25353W        W96969  12.937  30.013  11.099
25354W        W96970  41.392  41.342  12.503
25355W        W96971   3.976  40.292   2.317
25356W        W96972  10.248  12.091  10.109
25357W        W96973  24.624  12.660   2.801
25358W        W96974  19.826  25.971   2.150
25359W        W96975  40.601  30.497  11.846
25360W        W96976   2.215  32.877  13.004
25361W        W96977  31.615   2.388   3.397
25362W        W96978  18.332  14.177   0.717
25363W        W96979  19.586  27.651  14.291
25364W        W96980  13.197  28.281   4.656
25365W        W96981  25.093  14.562   2.231
25366W        W96982  21.196   5.965   2.897
25367W        W96983  40.801  44.529   3.150
25368W        W96984  16.214  11.610   4.748
25369W        W96985   1.956  18.032   3.312
25370W        W96986   6.261  14.420   2.755
25371W        W96987   8.335  13.351  14.759
25372W        W96988  44.352  23.391   2.811
25373W        W96989  44.070  37.389   3.669
25374W        W96990  21.543   0.230  12.779
25375W        W96991   3.237   4.821   0.420
25376W        W96992  18.951  23.845  13.584
25377W        W96993  15.365   0.387   1.714
25378W        W96994  25.885   9.163   3.159
25379W        W96995  23.936  30.059  10.689
25380W        W96996   7.206  22.644   4.629
25381W        W96997  23.671  21.733  12.625
25382W        W96998  17.647  44.272  11.119
25383W        W96999  13.882  35.362  10.839
25384W        W97000  27.079  37.487   0.778
25385W        W97001  25.628  34.493  11.204
25386W        W97002  20.594  37.451   1.179
25387W        W97003  18.242  44.532  13.469
25388W        W97004  12.733  11.826  13.523
25389W        W97005  41.883  37.041   4.603
25390W        W97006  16.572  22.529   2.324
25391W        W97007  29.971  31.504  11.671
25392W        W97008  27.531  14.186   1.731
25393W        W97009  25.279   9.157   2.379
25394W        W97010   8.796  17.374  13.294
25395W        W97011   5.620  38.547   0.817
25396W        W97012  32.556  34.627  11.108
25397W        W97013  17.389  10.830  11.556
25398W        W97014  38.007   0.810   1.627
25399W        W97015  34.495  36.259   1.264
25400W        W97016  30.993  14.214   0.793
25401W        W97017   5.793  18.714  10.506
25402W        W97018  37.412   6.682  10.844
25403W        W97019  11.630   5.222   2.712
25404W        W97020  22.727  22.908   3.245
25405W        W97021  20.704   7.679  12.950
25406W        W97022  12.308  36.186   1.364
25407W        W97023  42.647  36.867   0.473
25408W        W97024   2.995  18.322  11.920
25409W        W97025  29.498  43.468   1.566
25410W        W97026  34.804  10.261  12.983
25411W        W97027  40.279   7.671  14.362
25412W        W97028  34.130  19.057   4.167
25413W        W97029  29.374  24.252  13.476
25414W        W97030  41.933  22.082   3.230
25415W        W97031  16.336  37.206  12.064
25416W        W97032  25.606   2.218   3.157
25417W        W97033  11.506  40.057  10.668
25418W        W97034  23.224  42.260  11.336
25419W        W97035   1.579  14.512  11.385
25420W        W97036  13.787  10.154   4.509
25421W        W97037   2.782  20.859   0.386
25422W        W97038  11.602  40.569   4.080
25423W        W97039   2.473  41.993   2.752
25424W        W97040  31.588  35.592   0.452
25425W        W97041  31.555  27.670   0.414
25426W        W97042  13.615  16.306  12.011
25427W        W97043  24.025  25.766  11.973
25428W        W97044  22.607  16.738   3.134
25429W        W97045  37.836   4.938   4.197
25430W        W97046  31.937   1.200  12.009
25431W        W97047  10.708  17.546   3.423
25432W        W97048  35.843  13.274  12.821
25433W        W97049  43.836  36.357   5.000
25434W        W97050   4.475  19.554   4.664
25435W        W97051  39.630  37.017   2.764
25436W        W97052  40.252  43.864   4.835
25437W        W97053   5.619  26.663  10.729
25438W        W97054  16.391  44.286  11.399
25439W        W97055   6.663  33.435   4.524
25440W        W97056  13.800   9.169   1.379
25441W        W97057  17.986  29.437  14.717
25442W        W97058  24.377  19.623  12.912
25443W        W97059  27.896  13.609   3.800
25444W        W97060   8.387  41.764  14.733
25445W        W97061  39.526  39.075   3.458
25446W        W97062   9.704  38.372   4.218
25447W        W97063   5.281  24.707  13.844
25448W        W97064  44.904  34.070   2.573
25449W        W97065   8.279  10.768   0.462
25450W        W97066   3.902  11.735  12.094
25451W        W97067  19.585  43.777  12.336
25452W        W97068  22.226  26.131  12.039
25453W        W97069  11.258  35.606  13.842
25454W        W97070   9.876   8.637   3.688
25455W        W97071   4.678  39.555   3.707
25456W        W97072   5.334  31.027   1.164
25457W        W97073  26.762  19.740  12.965
25458W        W97074  20.498  39.437  11.585
25459W        W97075  40.907  34.627  14.539
25460W        W97076   6.749  28.413  12.456
25461W        W97077   4.836  37.890   2.140
25462W        W97078  30.785  24.549   3.869
25463W        W97079  23.501  38.779  12.985
25464W        W97080   3.010  29.198   0.491
25465W        W97081  10.275   8.507  10.659
25466W        W97082   1.605  29.205   3.752
25467W        W97083  32.511  37.287   1.659
25468W        W97084  30.122   7.296  10.718
25469W        W97085  23.306  20.954  13.024
25470W        W97086  31.376   4.332  10.730
25471W        W97087  39.310  17.315  11.948
25472W        W97088  22.696  18.426   3.213
25473W        W97089  18.954  12.391   0.658
25474W        W97090   6.365  36.520   4.162
25475W        W97091  27.147  29.011  11.723
25476W        W97092  23.657  28.478  14.379
25477W        W97093  35.893  27.000   2.232
25478W        W97094  33.980  20.164   4.590
25479W        W97095  44.552   9.819   1.869
25480W        W97096  28.589   2.963   3.452
25481W        W97097  17.164  23.592  13.644
25482W        W97098  42.566  42.065   3.928
25483W        W97099  27.595  31.919  10.707
25484W        W97100  21.449  27.395   3.180
25485W        W97101   2.711  24.738   0.819
25486W        W97102  36.571  14.142   4.710
25487W        W97103  13.650   4.494   3.567
25488W        W97104  35.947  24.128  11.210
25489W        W97105  15.096  28.045  12.607
25490W        W97106   4.671   9.783  11.709
25491W        W97107  41.950   2.460  10.798
25492W        W97108  19.167  37.846   0.925
25493W        W97109  42.445  36.391   2.077
25494W        W97110   2.532  10.689   3.365
25495W        W97111  37.105  27.653   1.273
25496W        W97112  35.254  19.821  10.909
25497W        W97113  29.244   8.508   0.871
25498W        W97114  25.539  30.537   2.314
25499W        W97115  23.396  21.038   1.287
25500W        W97116  35.203   5.968   3.775
25501W        W97117  34.161  31.077  10.441
25502W        W97118  18.179  44.876   4.369
25503W        W97119  30.535  36.519  13.486
25504W        W97120  15.354   6.744   0.419
25505W        W97121  43.718  43.827  13.826
25506W        W97122   5.183  27.201  12.546
25507W        W97123  19.061   3.371  14.361
25508W        W97124  28.523   6.183   1.507
25509W        W97125  37.029  41.592   4.930
25510W        W97126  35.346   6.365   4.536
25511W        W97127   5.658  33.875  12.128
25512W        W97128  23.225  22.360   4.963
25513W        W97129   7.372  29.572   2.764
25514W        W97130  13.627  32.464  13.529
25515W        W97131  17.578  12.048   2.483
25516W        W97132  14.063  35.420  14.375
25517W        W97133  22.778  32.541   1.938
25518W        W97134  31.990   2.599  10.322
25519W        W97135  14.672  21.762   3.303
25520W        W97136  32.414   6.044   1.003
25521W        W97137  18.785  10.750   3.859
25522W        W97138   7.121   0.347   2.620
25523W        W97139   7.333  10.697  14.889
25524W        W97140  44.800  29.677  14.636
25525W        W97141   3.508  17.360  11.625
25526W        W97142  23.758  18.671   2.215
25527W        W97143  35.095  35.158  14.393
25528W        W97144  17.218  34.114   4.705
25529W        W97145  35.718  10.437   1.666
25530W        W97146  33.504  24.557  13.139
25531W        W97147   3.713  39.180   3.701
25532W        W97148  36.822   4.396  13.443
25533W        W97149  26.911   6.884   4.258
25534W        W97150   4.999  33.090   1.450
25535W        W97151  33.521  43.854   3.563
25536W        W97152   4.308  29.604  13.003
25537W        W97153  27.423  32.806  11.672
25538W        W97154  42.153  30.745   4.758
25539W        W97155  33.297  28.188   2.831
25540W        W97156  31.768  38.402  14.528
25541W        W97157  21.745   0.685   4.138
25542W        W97158  44.389   6.898   1.457
25543W        W97159  22.404  16.700  13.291
25544W        W97160  16.849  18.253   2.804
25545W        W97161  14.391  32.633  14.940
25546W        W97162  22.725  36.450   3.522
25547W        W97163  23.942  20.607   0.862
25548W        W97164  42.765  24.062   2.834
25549W        W97165  26.927   0.402   2.941
25550W        W97166  39.774  33.046   0.802
25551W        W97167  38.472  39.288   2.068
25552W        W97168  25.375  36.961  10.684
25553W        W97169  41.389  37.744   0.145
25554W        W97170   0.878   2.504   1.791
25555W        W97171  31.563  14.170   0.033
25556W        W97172  42.055  35.427  10.886
25557W        W97173  36.325  19.605   2.241
25558W        W97174  32.164  36.870  13.324
25559W        W97175  42.848  26.303   0.920
25560W        W97176   3.038  18.587  14.594
25561W        W97177   5.085  16.444   2.693
25562W        W97178  33.604  30.405   4.117
25563W        W97179   2.040  31.520   0.884
25564W        W97180  39.092   0.985  14.846
25565W        W97181  33.157   1.449  10.342
25566W        W97182  14.513  42.140  11.555
25567W        W97183   3.740  18.865   1.698
25568W        W97184   8.444  11.338  11.125
25569W        W97185  39.657  19.592  14.022
25570W        W97186  30.633  36.350  12.133
25571W        W97187  33.929  14.960   1.309
25572W        W97188  16.682  13.409   1.089
25573W        W97189  40.397  17.201  13.561
25574W        W97190  39.635  33.086   2.736
25575W        W97191  23.461  25.017   0.349
25576W        W97192  31.628  17.681   4.120
25577W        W97193  25.072  16.754  11.574
25578W        W97194   1.373   0.936  14.338
25579W        W97195  43.020  27.413   4.072
25580W        W97196  41.071  18.368  11.392
25581W        W97197   5.866  36.621  11.281
25582W        W97198  10.207  37.247   1.403
25583W        W97199   0.931   6.217  10.643
25584W        W97200   1.171  34.021   3.426
25585W        W97201  19.941   8.363  12.811
25586W        W97202  36.734  28.588  11.940
25587W        W97203  18.664  35.822  12.898
25588W        W97204  43.735  15.416   1.565
25589W        W97205  13.316  19.040  12.998
25590W        W97206  23.797  12.271  13.839
25591W        W97207  18.115  43.521  10.270
25592W        W97208   2.052   6.368  12.568
25593W        W97209  25.504  34.011  12.715
25594W        W97210   6.384  41.983   1.659
25595W        W97211  31.424  14.200  13.444
25596W        W97212  36.074  44.064   3.721
25597W        W97213  30.164  19.536   2.270
25598W        W97214  39.321  39.204  13.888
25599W        W97215   0.362  37.189  12.979
25600W        W97216  37.699  10.456  12.558
25601W        W97217   9.756  35.997   3.859
25602W        W97218  12.357  37.822  12.381
25603W        W97219  28.595   9.375   0.948
25604W        W97220  17.349  13.746  14.529
25605W        W97221  35.311  12.130  13.392
25606W        W97222  34.974  33.021   4.404
25607W        W97223  36.468  43.846  12.243
25608W        W97224   7.760   2.802  11.447
25609W        W97225  12.734  18.198  11.566
25610W        W97226  41.606  42.403   4.106
25611W        W97227  25.225  31.495  13.534
25612W        W97228  27.025  37.680   3.176
25613W        W97229  30.366   3.169   1.550
25614W        W97230  35.510  24.612  10.698
25615W        W97231  29.586  35.878   3.257
25616W        W97232  17.659  15.317  11.094
25617W        W97233  44.478  31.695  11.467
25618W        W97234  39.630  30.998   3.197
25619W        W97235  42.582  27.790  11.160
25620W        W97236  32.916  24.273   4.585
25621W        W97237   1.472  24.632   4.033
25622W        W97238  32.533   7.739   3.260
25623W        W97239  36.647  44.061  13.084
25624W        W97240  42.381  39.394  11.526
25625W        W97241  18.161  44.000  12.615
25626W        W97242   4.005  20.505  14.919
25627W        W97243  12.620  32.526  12.461
25628W        W97244  38.791   5.617  12.535
25629W        W97245  20.702  22.614   0.741
25630W        W97246   8.982  15.941   5.169
25631W        W97247  25.030  32.915  10.377
25632W        W97248  42.954  44.007   0.808
25633W        W97249  29.941   1.836  11.549
25634W        W97250   4.192  31.182   4.599
25635W        W97251  31.385   6.661  10.724
25636W        W97252  16.713  39.266  10.380
25637W        W97253   1.938  15.991  13.990
25638W        W97254  25.109  29.122  11.537
25639W        W97255  15.758  42.857   1.218
25640W        W97256   3.283   7.672   0.357
25641W        W97257  42.989  24.126   4.680
25642W        W97258  27.594  28.641  10.665
25643W        W97259  34.248   6.210   0.974
25644W        W97260  25.659  28.448  13.037
25645W        W97261  31.926  44.706  14.330
25646W        W97262  32.397   0.428   0.774
25647W        W97263  31.034  39.739  14.755
25648W        W97264   5.906  29.714   1.468
25649W        W97265  15.700  12.893   0.185
25650W        W97266  18.071  15.131   3.346
25651W        W97267  19.633  32.585   0.514
25652W        W97268  39.445  22.602   1.706
25653W        W97269  40.483  25.931  11.944
25654W        W97270   9.627   0.884  14.927
25655W        W97271   3.224  33.007  14.034
25656W        W97272  27.956  14.409  11.734
25657W        W97273  27.444  43.031   3.078
25658W        W97274   9.809   0.984  10.723
25659W        W97275  39.998  41.953   1.973
25660W        W97276  30.148  12.095   3.745
25661W        W97277  39.859  16.780   1.788
25662W        W97278  30.531  21.207   0.577
25663W        W97279  24.641  12.818  11.246
25664W        W97280  35.367  24.976  14.695
25665W        W97281   8.245  14.046   0.885
25666W        W97282  30.356  13.314   2.383
25667W        W97283  11.898  15.311  14.460
25668W        W97284  41.405  11.685   0.761
25669W        W97285  43.612  20.753  12.910
25670W        W97286  22.641   1.510  12.178
25671W        W97287   2.174  39.814   2.910
25672W        W97288  29.148   4.529  12.235
25673W        W97289  24.976  15.147  12.815
25674W        W97290   1.525  18.150  11.918
25675W        W97291  20.147  14.232   2.797
25676W        W97292  14.015  22.005   1.754
25677W        W97293   4.202  13.286  14.438
25678W        W97294  40.275  18.222  14.727
25679W        W97295  18.928  40.897   2.993
25680W        W97296   9.337  14.644   1.725
25681W        W97297  19.789   7.106  13.080
25682W        W97298  40.747  16.347  13.644
25683W        W97299  14.065  27.581   3.446
25684W        W97300  43.897  31.050  11.891
25685W        W97301   5.241  24.222   2.214
25686W        W97302  16.614  25.690   4.111
25687W        W97303  34.877  17.041   1.173
25688W        W97304   8.881  39.365  13.119
25689W        W97305  16.156   2.886   1.756
25690W        W97306  27.691  39.380   2.262
25691W        W97307  41.785  10.182   1.386
25692W        W97308  33.987  26.189   9.910
25693W        W97309   8.992  17.207   1.344
25694W        W97310  30.425  34.785   3.101
25695W        W97311   5.197   3.031   3.732
25696W        W97312  24.930   7.672  12.519
25697W        W97313   6.604  31.092   3.586
25698W        W97314  26.029  44.342   3.263
25699W        W97315   1.482  13.559   0.227
25700W        W97316   5.069  16.719  14.453
25701W        W97317  17.412  28.708   3.681
25702W        W97318  14.189  12.683  12.444
25703W        W97319  20.915  31.352   1.899
25704W        W97320   4.718   7.130  12.007
25705W        W97321  22.538  14.412  13.891
25706W        W97322  20.211  32.209   4.208
25707W        W97323  25.932   4.932  13.826
25708W        W97324   6.269  23.059   1.797
25709W        W97325  28.701  15.031   0.620
25710W        W97326  33.518  39.205   5.065
25711W        W97327  22.507  25.653   1.864
25712W        W97328   1.435  39.363  13.336
25713W        W97329  33.902  23.214  14.405
25714W        W97330  42.764  36.555   4.189
25715W        W97331   8.404  25.625  11.892
25716W        W97332  42.087  32.955  10.502
25717W        W97333  17.472  19.520   4.638
25718W        W97334  42.615  18.304  14.527
25719W        W97335  37.320  21.292   5.181
25720W        W97336  23.229  37.456  14.030
25721W        W97337  11.803  35.833   3.315
25722W        W97338  29.719   5.684  14.947
25723W        W97339  29.040  34.266  12.065
25724W        W97340  26.260  29.650  14.188
25725W        W97341  13.910  26.802  14.081
25726W        W97342   5.890  18.077  14.955
25727W        W97343  10.711  41.482  14.527
25728W        W97344  20.803  43.786  12.791
25729W        W97345   6.393   2.881   0.025
25730W        W97346  15.727   7.973  11.138
25731W        W97347  24.643  25.881  13.963
25732W        W97348  32.459  33.892  11.820
25733W        W97349  26.722  32.555   0.951
25734W        W97350   5.894  31.388   2.282
25735W        W97351   0.763  43.138  14.884
25736W        W97352  39.413  10.902   2.664
25737W        W97353   6.894  42.417   2.323
25738W        W97354  29.826  18.112   4.083
25739W        W97355  23.978  44.470   4.134
25740W        W97356  37.416   9.821   4.700
25741W        W97357   2.744  31.963  14.024
25742W        W97358   9.409  40.061   4.208
25743W        W97359  10.048   4.091   5.122
25744W        W97360  24.478  43.298  12.987
25745W        W97361  33.079  40.037  11.074
25746W        W97362  17.946  32.636  14.992
25747W        W97363  11.110  40.369  13.948
25748W        W97364   6.042   1.922   0.446
25749W        W97365  36.667   6.320  14.460
25750W        W97366  24.704  30.551  13.285
25751W        W97367  36.517   7.394   2.386
25752W        W97368  42.278   5.183   2.761
25753W        W97369  23.519   8.718   4.565
25754W        W97370   2.288  27.593  13.300
25755W        W97371   2.503  16.026   2.720
25756W        W97372  34.144  15.530  12.091
25757W        W97373   6.757  29.494  12.137
25758W        W97374  34.496   8.819   0.086
25759W        W97375  38.843  38.337  12.991
25760W        W97376  36.547  39.537   0.387
25761W        W97377  31.460  11.693  14.002
25762W        W97378  34.134   7.511   4.152
25763W        W97379   9.785  27.658   1.269
25764W        W97380   3.333  43.557   0.774
25765W        W97381  35.071   4.420  11.669
25766W        W97382  11.562   3.234   2.028
25767W        W97383  31.919  28.100  10.264
25768W        W97384  28.650  37.817  14.999
25769W        W97385  15.840  43.080   3.318
25770W        W97386  30.873  41.377   4.252
25771W        W97387  24.126  21.671   2.760
25772W        W97388  33.339  23.773  12.473
25773W        W97389   6.020  34.240   3.277
25774W        W97390  38.728  13.832  10.150
25775W        W97391  42.163  22.727   2.857
25776W        W97392   1.313   7.402  13.969
25777W        W97393  37.038  31.034   4.681
25778W        W97394   1.332  11.656   3.208
25779W        W97395  44.896  31.904  11.140
25780W        W97396   0.844  30.086   1.890
25781W        W97397  15.871  31.920   1.299
25782W        W97398  41.528  40.447   4.838
25783W        W97399  29.871  40.862  10.615
25784W        W97400  21.706  19.767   2.135
25785W        W97401   9.953  26.573   3.712
25786W        W97402  29.426  10.947   3.677
25787W        W97403  29.618   6.030   3.877
25788W        W97404  17.493  20.476  12.389
25789W        W97405   8.476  34.001  14.083
25790W        W97406  12.901  37.503   0.921
25791W        W97407  15.719  35.602   3.695
25792W        W97408  21.932  33.599   2.674
25793W        W97409   5.243  29.389   0.839
25794W        W97410   9.906  20.276   4.598
25795W        W97411  44.944  12.708   3.168
25796W        W97412   3.225   6.225  11.763
25797W        W97413  11.762  37.963   4.876
25798W        W97414   2.883  24.568   3.085
25799W        W97415   5.871   7.812   2.162
25800W        W97416   0.789  18.211   1.286
25801W        W97417  26.351  38.292   1.763
25802W        W97418  29.595  28.663  14.727
25803W        W97419  42.628  12.587   0.402
25804W        W97420  17.837  31.503   3.469
25805W        W97421   7.578  13.900  13.519
25806W        W97422  36.699  30.575   0.463
25807W        W97423  25.149  35.324  11.570
25808W        W97424  10.894   3.288  13.781
25809W        W97425  18.342  41.492  14.905
25810W        W97426  27.582   1.769   2.431
25811W        W97427  31.972  39.682  10.807
25812W        W97428  16.689  10.586   1.827
25813W        W97429  27.080  37.099  13.860
25814W        W97430   8.878  16.878  14.507
25815W        W97431   3.251  36.866   0.334
25816W        W97432  31.868   6.810   3.390
25817W        W97433   3.772  16.976   9.807
25818W        W97434  18.622   7.428   2.622
25819W        W97435  26.629  40.698  11.107
25820W        W97436  32.193  27.180  13.416
25821W        W97437  25.227  14.815  13.961
25822W        W97438  16.170  24.476  10.531
25823W        W97439  13.624  18.592  13.109
25824W        W97440  40.840   7.613   1.492
25825W        W97441  13.352  31.853   1.352
25826W        W97442   2.880  35.187  12.401
25827W        W97443  38.797  44.536   2.320
25828W        W97444   9.513  40.057   1.240
25829W        W97445   6.303   1.386  10.967
25830W        W97446  25.975  21.679  13.566
25831W        W97447  32.679  26.204   3.654
25832W        W97448  40.138   3.138  12.574
25833W        W97449  37.920   8.311  13.550
25834W        W97450   3.329   8.192   2.147
25835W        W97451  16.480  43.320  12.361
25836W        W97452  12.246  15.233  12.080
25837W        W97453  29.710  32.647  14.228
25838W        W97454  19.488  15.730   4.623
25839W        W97455  10.284   4.811   4.552
25840W        W97456  31.612   0.423  10.525
25841W        W97457   2.895  24.566   1.715
25842W        W97458  29.455   8.824   3.565
25843W        W97459   4.412  33.844  13.509
25844W        W97460   7.711  37.651  13.044
25845W        W97461  16.836  40.072   0.790
25846W        W97462  25.693  41.406  14.320
25847W        W97463  29.970  10.634   0.013
25848W        W97464  10.118  17.249  10.771
25849W        W97465  14.312  42.019  11.997
25850W        W97466  41.405  15.887   1.362
25851W        W97467  18.167  42.090   0.340
25852W        W97468  15.765  15.630   5.487
25853W        W97469  44.897  44.764  13.524
25854W        W97470  18.177  27.891   2.281
25855W        W97471  34.747  41.700   1.468
25856W        W97472   4.640  31.125   4.918
25857W        W97473  18.105  34.742   3.237
25858W        W97474  17.601  40.493  13.398
25859W        W97475  23.446  36.074  14.469
25860W        W97476  38.830  23.535  11.741
25861W        W97477  19.774  15.365   4.302
25862W        W97478  39.557  32.790   0.398
25863W        W97479  19.682  25.793   2.833
25864W        W97480  12.360   8.833   2.919
25865W        W97481   4.351   5.652   1.275
25866W        W97482  22.703   1.051   4.212
25867W        W97483  39.348  16.360  14.022
25868W        W97484   3.516   7.720   2.283
25869W        W97485  32.042  25.890  10.634
25870W        W97486  35.781   4.047  11.171
25871W        W97487  36.102   6.994   3.259
25872W        W97488  14.610  10.858   4.734
25873W        W97489  26.999  33.906   0.208
25874W        W97490   9.256  42.309  11.542
25875W        W97491  11.840  24.176   5.106
25876W        W97492  19.803  22.564   4.125
25877W        W97493  14.230  32.053  12.958
25878W        W97494  42.380  40.388   0.876
25879W        W97495  17.079   2.279   0.006
25880W        W97496   4.351   4.270   1.876
25881W        W97497  14.062  29.975  14.390
25882W        W97498   6.424  24.187   2.286
25883W        W97499  27.612  37.788  13.951
25884W        W97500   9.250  10.394   0.216
25885W        W97501  26.775  44.495  10.632
25886W        W97502  32.086   1.715   1.785
25887W        W97503   6.571   1.028   4.870
25888W        W97504  32.128  20.537  11.330
25889W        W97505  14.095  25.649  11.987
25890W        W97506  13.005   8.500  11.156
25891W        W97507  32.568  35.664  14.968
25892W        W97508  35.035  37.130  11.274
25893W        W97509  37.644  36.022   2.279
25894W        W97510  22.039  19.429  14.317
25895W        W97511  13.413   1.703  12.506
25896W        W97512  12.671  23.184  12.883
25897W        W97513  36.119  41.331  13.250
25898W        W97514  18.225  14.281   4.535
25899W        W97515   6.092  19.590  14.550
25900W        W97516  25.449  13.258  14.575
25901W        W97517  23.290  34.884  11.163
25902W        W97518  22.109  32.700   4.969
25903W        W97519  32.006  17.851  11.839
25904W        W97520  13.221   0.334  12.666
25905W        W97521  41.412  32.467  11.810
25906W        W97522  33.527  28.737  10.798
25907W        W97523  43.871  14.072  12.788
25908W        W97524  24.045  36.099   3.549
25909W        W97525  25.732   8.591  13.113
25910W        W97526  16.848  40.990   1.961
25911W        W97527  42.260  38.338  13.411
25912W        W97528   6.891  44.829  14.406
25913W        W97529  22.153  37.501   1.540
25914W        W97530  27.644  13.870   5.027
25915W        W97531  17.542  17.722   2.824
25916W        W97532   3.060  36.649   3.589
25917W        W97533  34.293  27.869  11.117
25918W        W97534  31.994  20.924  12.102
25919W        W97535  42.796  12.761   2.614
25920W        W97536  12.697  32.400  11.365
25921W        W97537  30.849  25.008   3.654
25922W        W97538  43.743  44.372   1.568
25923W        W97539  41.274   0.999   2.118
25924W        W97540  16.204  31.564   2.327
25925W        W97541   3.356  23.107   1.140
25926W        W97542  11.209  26.183   1.290
25927W        W97543  26.243  42.424   0.894
25928W        W97544  41.397  29.093   2.118
25929W        W97545  13.758   6.057   5.391
25930W        W97546  16.791  34.163  14.122
25931W        W97547  42.793  38.406   4.275
25932W        W97548  34.967   7.781   2.812
25933W        W97549  22.236  39.445   2.802
25934W        W97550  23.832  28.092  13.022
25935W        W97551  19.631  16.702   4.627
25936W        W97552   8.900  27.468  13.332
25937W        W97553  14.927  27.480  11.268
25938W        W97554  34.111  22.603   4.515
25939W        W97555  33.360  14.327  13.510
25940W        W97556   2.012  16.762  12.065
25941W        W97557  37.058  27.062   4.875
25942W        W97558  25.430  40.561   1.710
25943W        W97559  15.340   8.866   2.823
25944W        W97560   5.711  18.724   3.861
25945W        W97561   2.381   8.758   4.652
25946W        W97562  39.137  20.706   5.133
25947W        W97563  44.908  44.838  11.359
25948W        W97564  17.210  21.242   4.109
25949W        W97565  26.185  18.492  12.972
25950W        W97566  15.803   9.438  13.257
25951W        W97567   5.174  37.819   4.557
25952W        W97568  34.535  20.573   3.388
25953W        W97569  37.562  37.327   1.297
25954W        W97570  42.933  42.716  14.348
25955W        W97571   2.429  25.541  11.111
25956W        W97572  19.086  43.018   4.036
25957W        W97573  31.287  21.795   2.918
25958W        W97574  27.413  35.476  12.549
25959W        W97575   4.658  43.109  13.933
25960W        W97576   5.317  37.509   1.772
25961W        W97577  11.266   8.244  13.657
25962W        W97578  19.463  31.845   4.639
25963W        W97579  14.108  36.307   0.673
25964W        W97580  26.069   5.342   3.169
25965W        W97581  18.799  14.944   2.128
25966W        W97582  28.990  17.888  11.490
25967W        W97583  13.423  33.638   4.177
25968W        W97584   0.199  39.514  12.099
25969W        W97585  42.541  21.486   3.145
25970W        W97586   3.377  13.483   1.381
25971W        W97587  31.983  30.903   4.614
25972W        W97588   6.537  42.478   0.457
25973W        W97589  23.841   6.514   0.026
25974W        W97590  34.530  19.074  12.870
25975W        W97591   2.684  21.337   0.180
25976W        W97592  27.427  13.092  12.158
25977W        W97593  22.982  14.355   3.278
25978W        W97594  21.775  43.829   1.249
25979W        W97595  35.611  44.759   4.303
25980W        W97596  21.715  10.633   2.625
25981W        W97597  20.004  34.973   0.965
25982W        W97598  33.019   6.220   1.820
25983W        W97599  41.373   6.173   2.271
25984W        W97600  41.862  44.004   1.699
25985W        W97601  37.567  13.552  13.510
25986W        W97602  25.836  12.139   0.053
25987W        W97603  19.221   9.008  13.408
25988W        W97604  26.060  22.962   3.229
25989W        W97605  30.388  22.515  14.325
25990W        W97606  21.796   6.584   4.285
25991W        W97607  14.286  21.410   3.335
25992W        W97608  44.878  40.847   4.225
25993W        W97609  23.658  41.182  13.922
25994W        W97610  37.494   2.058  11.069
25995W        W97611   6.801   5.733  12.049
25996W        W97612   2.263  28.581  10.508
25997W        W97613  38.441  14.816  11.925
25998W        W97614  19.973  14.614   4.122
25999W        W97615  22.562  23.187  12.012
26000W        W97616   1.844  38.522   4.146
26001W        W97617  34.570  22.855  11.775
26002W        W97618  20.723  26.253   3.712
26003W        W97619  21.672  33.876   1.304
26004W        W97620  24.013  11.194   4.655
26005W        W97621   2.973  18.534  12.393
26006W        W97622  11.375  26.662   1.489
26007W        W97623  22.752  34.548  11.445
26008W        W97624  17.494  27.106  10.672
26009W        W97625   4.779  16.701  10.922
26010W        W97626   7.403  43.817  12.937
26011W        W97627  14.877  38.560  11.591
26012W        W97628   3.618  15.269   4.321
26013W        W97629  18.482  43.382  11.583
26014W        W97630  28.171  12.700   4.141
26015W        W97631  31.475  36.011  10.749
26016W        W97632   5.690   8.256   4.537
26017W        W97633  33.920  29.362  12.838
26018W        W97634  25.785   4.833   5.081
26019W        W97635  19.687  32.853   0.065
26020W        W97636  11.587   2.761   0.833
26021W        W97637   7.257  23.188  10.717
26022W        W97638  42.344  13.301   1.688
26023W        W97639  42.008  22.426   0.214
26024W        W97640  27.188  14.119   2.652
26025W        W97641   4.454   7.776  11.851
26026W        W97642  43.591   4.273  12.530
26027W        W97643   0.389   5.741  12.415
26028W        W97644  41.341   3.795   3.511
26029W        W97645   1.770  22.331  13.410
26030W        W97646  24.177  38.022   3.215
26031W        W97647  35.846  20.025   4.148
26032W        W97648  19.499   6.290   1.635
26033W        W97649  43.307  25.176   4.550
26034W        W97650  28.802  16.850   4.535
26035W        W97651  17.738  43.877   3.848
26036W        W97652  26.529   7.858   4.351
26037W        W97653  41.837   4.805   3.316
26038W        W97654  17.289  41.582   3.115
26039W        W97655  41.674  14.250   2.779
26040W        W97656  43.036  32.569   1.920
26041W        W97657  43.975  41.642  12.320
26042W        W97658  19.557  39.982  12.536
26043W        W97659  29.580  34.774   2.827
26044W        W97660   6.151  16.224  13.941
26045W        W97661  22.529  31.648  10.767
26046W        W97662  18.077  12.453  12.019
26047W        W97663  35.141  14.351  12.884
26048W        W97664  23.649  38.035   3.839
26049W        W97665  18.836  26.229  11.087
26050W        W97666  35.591  24.042   2.722
26051W        W97667  20.256  17.113  11.981
26052W        W97668  16.871  18.643  10.003
26053W        W97669   5.500  27.681   3.826
26054W        W97670  14.661  20.766  11.599
26055W        W97671  31.400  43.897  13.887
26056W        W97672  22.134  24.577   2.802
26057W        W97673  11.917   4.071   1.371
26058W        W97674  14.457  37.806   2.503
26059W        W97675  32.186  24.700  12.018
26060W        W97676  22.693  43.793  11.910
26061W        W97677   3.457  19.815   0.062
26062W        W97678  21.456  31.453   0.408
26063W        W97679  42.665  14.209   2.808
26064W        W97680  43.884  44.360   0.085
26065W        W97681  34.588  18.624  14.972
26066W        W97682  25.243  12.626   1.660
26067W        W97683  29.372  41.390   1.059
26068W        W97684  26.249  24.752   0.425
26069W        W97685  16.012  44.805  13.414
26070W        W97686  13.306  31.394   3.295
26071W        W97687  32.430   3.427  10.728
26072W        W97688  35.106  36.967  13.586
26073W        W97689   7.870  38.309   2.412
26074W        W97690   9.327  36.510   3.871
26075W        W97691  16.855  28.030   4.158
26076W        W97692  18.080  18.194  13.038
26077W        W97693  29.878  41.830   3.324
26078W        W97694  22.589   0.839  13.423
26079W        W97695  21.887  29.514   4.019
26080W        W97696  17.015  25.430   3.305
26081W        W97697   1.836  29.176   2.377
26082W        W97698  28.972  18.164  11.059
26083W        W97699   6.091  23.184  13.802
26084W        W97700  11.325   7.983  11.905
26085W        W97701  36.531   2.375   5.105
26086W        W97702   2.851  39.427   3.110
26087W        W97703   3.638  10.137   3.364
26088W        W97704  11.653  41.524   4.584
26089W        W97705   4.865  28.108   0.494
26090W        W97706  39.866  13.362  14.233
26091W        W97707  17.277  10.177   3.288
26092W        W97708   0.442  15.577  14.102
26093W        W97709  35.170  11.871  14.421
26094W        W97710  19.227  18.687   1.897
26095W        W97711  20.261  22.702   3.870
26096W        W97712   5.844  17.359   0.767
26097W        W97713   2.506   6.858  10.671
26098W        W97714  36.833  38.369  13.053
26099W        W97715  18.551  28.910   4.132
26100W        W97716  18.702  31.828   3.914
26101W        W97717  34.000   0.960   4.528
26102W        W97718  21.495  15.090  11.127
26103W        W97719  16.040  43.547  12.458
26104W        W97720   5.822  25.583  12.007
26105W        W97721   6.140  42.565   3.788
26106W        W97722  44.565  25.782   3.636
26107W        W97723  10.322  33.343  13.760
26108W        W97724  37.616  26.710  11.252
26109W        W97725  39.722   4.204  14.413
26110W        W97726  17.021  37.968  13.898
26111W        W97727  34.411  27.617  10.702
26112W        W97728  13.770   1.945   1.481
26113W        W97729  10.770  33.482   2.353
26114W        W97730   3.660  22.443  11.104
26115W        W97731  44.713  35.159  13.430
26116W        W97732  35.760   2.696  14.229
26117W        W97733  42.017  21.078  11.665
26118W        W97734  28.277  18.471  14.879
26119W        W97735   9.860  12.365  11.639
26120W        W97736  42.436  15.128  14.922
26121W        W97737  24.244  29.170  11.708
26122W        W97738  33.396  11.874   1.134
26123W        W97739  40.719   3.388   4.133
26124W        W97740  14.090  31.508  14.800
26125W        W97741  13.276  41.284   2.251
26126W        W97742   0.648  33.089   0.999
26127W        W97743  33.599   7.959   0.556
26128W        W97744  43.209  10.767   1.663
26129W        W97745  35.133  37.322   2.846
26130W        W97746   3.475  27.466   4.386
26131W        W97747  39.871  43.545   4.632
26132W        W97748  34.415   4.703   1.371
26133W        W97749   3.363  30.002   4.452
26134W        W97750  33.890  26.278   0.036
26135W        W97751  37.478  30.678  12.735
26136W        W97752  20.153  12.696   4.540
26137W        W97753   7.685  20.471  14.396
26138W        W97754  37.946  36.000   3.183
26139W        W97755  38.830   0.148  12.038
26140W        W97756  33.633  32.572   1.835
26141W        W97757  14.879   3.756   5.078
26142W        W97758  29.097  41.680  12.980
26143W        W97759  38.549   3.312   5.066
26144W        W97760  32.597   3.695  14.089
26145W        W97761  36.234   5.859   4.689
26146W        W97762  22.003  43.469   4.535
26147W        W97763  30.172  14.003   3.754
26148W        W97764   5.099  21.748  13.287
26149W        W97765  25.073  10.419   3.990
26150W        W97766  27.161  13.643   2.175
26151W        W97767   9.092  14.648  13.812
26152W        W97768   4.509  21.587   2.703
26153W        W97769  21.100  18.025  14.903
26154W        W97770  37.333  33.933   4.677
26155W        W97771  24.275  21.838   3.678
26156W        W97772  25.647  41.064   0.807
26157W        W97773  18.279  15.239  13.807
26158W        W97774   5.982   4.004   3.137
26159W        W97775  12.677  37.136  12.492
26160W        W97776  41.844  27.446   0.232
26161W        W97777   4.023   5.205  11.411
26162W        W97778   5.046   4.573  11.377
26163W        W97779   4.499  34.817   2.802
26164W        W97780  36.068  12.370   3.974
26165W        W97781  16.021  18.936  11.678
26166W        W97782  26.919   2.468   4.185
26167W        W97783  25.681   8.224   2.138
26168W        W97784  19.441  41.031  14.438
26169W        W97785  26.095   3.938  13.930
26170W        W97786  10.832  38.523   2.288
26171W        W97787   0.275   5.659   1.720
26172W        W97788  40.765  24.208  11.265
26173W        W97789   5.263   0.907   3.670
26174W        W97790  33.157  22.194   2.193
26175W        W97791  16.307  13.102  11.568
26176W        W97792  11.960   9.296  11.201
26177W        W97793  40.740  19.359   4.518
26178W        W97794  13.534  24.042   0.316
26179W        W97795  28.624  18.176   3.957
26180W        W97796  21.990  32.318   2.379
26181W        W97797   1.633  28.676  12.138
26182W        W97798  19.801  34.829  14.680
26183W        W97799  41.555   2.244  12.957
26184W        W97800  15.839  35.970   1.154
26185W        W97801   4.691  19.307  12.026
26186W        W97802  12.448  34.870   1.401
26187W        W97803  11.792  42.381   3.291
26188W        W97804  15.588  29.152   0.953
26189W        W97805  38.124  41.141  13.348
26190W        W97806  41.515  36.148  10.646
26191W        W97807  16.628  44.937   1.625
26192W        W97808  43.697   3.712  11.096
26193W        W97809   0.868  13.741   3.343
26194W        W97810  17.634  39.455  13.775
26195W        W97811   2.535  18.520   3.125
26196W        W97812  28.097   3.121   3.196
26197W        W97813   6.356  43.334  10.591
26198W        W97814  27.121  10.918  11.476
26199W        W97815  29.946  42.971   2.746
26200W        W97816  28.488  35.675   1.900
26201W        W97817  20.064   4.460  11.391
26202W        W97818   2.929   0.827   0.928
26203W        W97819  20.275  28.293   3.416
26204W        W97820  34.162  14.127   3.800
26205W        W97821  34.844  20.097  14.737
26206W        W97822  39.988  16.052   1.249
26207W        W97823   8.223  41.301   2.683
26208W        W97824  35.112   1.610   3.769
26209W        W97825  27.162  44.226  12.482
26210W        W97826  35.577  26.267   0.325
26211W        W97827  23.645  28.056  10.498
26212W        W97828   5.392  18.262  13.498
26213W        W97829  26.151  33.503  12.371
26214W        W97830  12.500  28.106  11.569
26215W        W97831  41.965  44.571   4.577
26216W        W97832  17.251   9.159  13.434
26217W        W97833  42.862  13.244   2.401
26218W        W97834  11.190  24.949  14.495
26219W        W97835  23.780  32.075   3.686
26220W        W97836  44.486  16.096   2.587
26221W        W97837  27.489  15.521  10.933
26222W        W97838  28.706  24.664  12.040
26223W        W97839  25.157   7.933  12.131
26224W        W97840  33.439  20.219   4.760
26225W        W97841  33.662  33.601   2.886
26226W        W97842   6.074  40.433   1.442
26227W        W97843  14.333  41.018  12.017
26228W        W97844   8.441  16.154   2.702
26229W        W97845   3.782   9.337   0.747
26230W        W97846   4.511  40.041   2.859
26231W        W97847  32.418  23.100  10.709
26232W        W97848  34.411  43.807  12.874
26233W        W97849  38.510  30.649   0.238
26234W        W97850  37.197   3.503  11.739
26235W        W97851   8.293  28.012  13.836
26236W        W97852  39.289   8.296   2.161
26237W        W97853  10.722   3.859  10.759
26238W        W97854  39.461  13.754  13.789
26239W        W97855  14.689   2.419   0.645
26240W        W97856  44.549  30.401   2.247
26241W        W97857  40.287   6.786  14.300
26242W        W97858   8.823   8.279   2.329
26243W        W97859  16.676  10.369  14.364
26244W        W97860  15.991  27.707   5.143
26245W        W97861   2.275  33.524   1.265
26246W        W97862  43.407  20.840   0.207
26247W        W97863   9.722  33.848   1.931
26248W        W97864   7.807  30.105   1.879
26249W        W97865   6.168  16.278  11.469
26250W        W97866  12.468  17.947   3.668
26251W        W97867  20.352  30.497  13.624
26252W        W97868  31.835  34.452   2.968
26253W        W97869  19.520  18.688  10.591
26254W        W97870  23.137  30.195   3.476
26255W        W97871  38.583  28.794   0.333
26256W        W97872   8.427  43.380   1.465
26257W        W97873  13.550  36.466  12.891
26258W        W97874  27.205  43.446   0.954
26259W        W97875  16.778  14.415  14.922
26260W        W97876  43.413   8.189   3.741
26261W        W97877  31.449  12.916   1.731
26262W        W97878  42.903  33.226   2.671
26263W        W97879  43.967  26.177  14.075
26264W        W97880  43.492  22.416   1.021
26265W        W97881  18.984  26.559  13.381
26266W        W97882   0.793  37.363  11.162
26267W        W97883   8.683  11.077   0.279
26268W        W97884  34.054  40.508   0.919
26269W        W97885   9.471   9.160  11.192
26270W        W97886  37.463   2.686   4.477
26271W        W97887  25.210  14.448   1.411
26272W        W97888   3.564   2.601  11.724
26273W        W97889   8.339  21.136   4.597
26274W        W97890  35.570   5.362  11.080
26275W        W97891  16.209  18.775   1.652
26276W        W97892  18.333  40.502   4.167
26277W        W97893  38.487  38.096  11.679
26278W        W97894  16.885   4.380  13.382
26279W        W97895  44.720  15.134   1.298
26280W        W97896  38.328  43.303   4.447
26281W        W97897  38.129   8.863  13.340
26282W        W97898   0.010  22.089   0.315
26283W        W97899  28.549  30.376  13.526
26284W        W97900  42.242  11.615   0.321
26285W        W97901  11.288  26.606   0.980
26286W        W97902  16.039  23.754  13.477
26287W        W97903  13.048  24.058   0.112
26288W        W97904   4.222  30.870  10.725
26289W        W97905  15.203  18.665   3.192
26290W        W97906  31.066   6.780   3.562
26291W        W97907  11.941  10.991  14.745
26292W        W97908  14.727  37.377   2.430
26293W        W97909  17.919  22.297   3.630
26294W        W97910  24.107   6.607  12.963
26295W        W97911  23.535  31.938  12.303
26296W        W97912  11.883  42.888   3.365
26297W        W97913  39.292   8.354   1.184
26298W        W97914   1.801  40.414   1.628
26299W        W97915  24.857  33.587   5.123
26300W        W97916   1.144  34.089  11.345
26301W        W97917  43.204  21.079  12.923
26302W        W97918  40.068  29.553  11.935
26303W        W97919  12.925   4.376   2.040
26304W        W97920  27.161  10.923   1.216
26305W        W97921  36.435  32.000   1.283
26306W        W97922  17.486  25.663   3.441
26307W        W97923  35.279  40.006  11.130
26308W        W97924  18.850  43.461   2.428
26309W        W97925  13.439  38.894  12.518
26310W        W97926  42.700  43.468  12.054
26311W        W97927  31.545  19.211   0.756
26312W        W97928  28.935  44.517  11.172
26313W        W97929   9.606  35.579   1.370
26314W        W97930  21.638  40.882   4.578
26315W        W97931  21.477  37.500   2.866
26316W        W97932  11.818   6.745  11.375
26317W        W97933   7.070  15.636  14.340
26318W        W97934  37.870  13.342   1.228
26319W        W97935  20.753  28.470   3.253
26320W        W97936   0.849  30.553  11.198
26321W        W97937   2.162  43.758  12.425
26322W        W97938  12.869  35.061  10.551
26323W        W97939   4.906  11.724   3.175
26324W        W97940   1.053   1.727  13.086
26325W        W97941  26.975  36.503  14.888
26326W        W97942   3.788  29.077  12.558
26327W        W97943  14.632  19.248   3.672
26328W        W97944  30.506  16.156   3.105
26329W        W97945  27.135  36.816   0.292
26330W        W97946  28.562  16.234   3.243
26331W        W97947  13.254  18.049   4.165
26332W        W97948  34.902  14.064   1.719
26333W        W97949  14.908  39.638  14.830
26334W        W97950  31.670  26.748  14.470
26335W        W97951  15.108   0.483   4.194
26336W        W97952  18.086  38.938   1.020
26337W        W97953   2.854  44.540   4.521
26338W        W97954  30.538  43.425   0.363
26339W        W97955  32.783  28.976  12.377
26340W        W97956  17.782  23.541  13.044
26341W        W97957  41.346  16.217  12.977
26342W        W97958  41.473  20.636   2.673
26343W        W97959  14.533  23.203  13.041
26344W        W97960  25.223  26.120   1.753
26345W        W97961  39.590  12.400   4.096
26346W        W97962  19.546  37.568   2.355
26347W        W97963   7.757  31.146   3.667
26348W        W97964  34.170   7.248   1.833
26349W        W97965   6.528  31.958  12.419
26350W        W97966  24.515   8.661  13.037
26351W        W97967  35.535   9.598  11.586
26352W        W97968  32.189   5.942  13.356
26353W        W97969  29.660   0.486   0.382
26354W        W97970  30.150   7.337   2.772
26355W        W97971  16.196   2.802  11.254
26356W        W97972  21.570  15.750   2.979
26357W        W97973  13.154  19.381   4.702
26358W        W97974  29.353  40.575  14.372
26359W        W97975  30.438  27.029   5.176
26360W        W97976  11.616   0.869   1.752
26361W        W97977  41.819   6.061  13.991
26362W        W97978  44.922  10.304   2.581
26363W        W97979   1.891  20.144   3.895
26364W        W97980   6.781  39.492   4.120
26365W        W97981   1.369   3.493   4.264
26366W        W97982  10.390  32.648  12.956
26367W        W97983   8.465  25.170  12.901
26368W        W97984   0.468   3.482   1.605
26369W        W97985   4.887  41.873  10.669
26370W        W97986   6.709   8.966  13.408
26371W        W97987  37.338  39.137  12.642
26372W        W97988  26.978   5.956   3.700
26373W        W97989  19.538  20.131  13.781
26374W        W97990  32.463  34.276   5.044
26375W        W97991   4.465  34.952   0.673
26376W        W97992  11.566  41.018  10.714
26377W        W97993  27.402  11.751   2.674
26378W        W97994  20.676  31.984   0.671
26379W        W97995  28.391  32.171   4.280
26380W        W97996  33.329  43.089  10.947
26381W        W97997  14.297  16.793   4.622
26382W        W97998   7.856  14.830   0.919
26383W        W97999  11.289  36.058  11.995
26384W        W98000  12.207   9.779  14.354
26385W        W98001  32.248  26.434   5.193
26386W        W98002  17.718   4.830   3.145
26387W        W98003   4.160   1.957  11.571
26388W        W98004  10.131  13.610   2.663
26389W        W98005  29.027   2.837   1.778
26390W        W98006  29.043   6.812   4.151
26391W        W98007   7.138  22.951  11.841
26392W        W98008  21.082  17.997  12.402
26393W        W98009  10.330   6.193   0.022
26394W        W98010  30.632  27.197  11.684
26395W        W98011  37.915  22.116  13.802
26396W        W98012   8.224  29.242   4.460
26397W        W98013  13.104  41.945   2.804
26398W        W98014  27.979  35.557  13.446
26399W        W98015  15.170  21.671   3.208
26400W        W98016   2.784  25.430   3.664
26401W        W98017  11.588   1.459   4.360
26402W        W98018  24.231  32.374  13.935
26403W        W98019  13.806   8.726  13.043
26404W        W98020  27.747  18.559  14.203
26405W        W98021  30.392  21.986  13.877
26406W        W98022  36.367  27.503   1.886
26407W        W98023  17.306  11.344   1.392
26408W        W98024   0.325  11.198   0.646
26409W        W98025  24.543  35.372   4.598
26410W        W98026  34.020   6.865   2.209
26411W        W98027  29.712  10.769   4.098
26412W        W98028  19.019   3.973  14.874
26413W        W98029  42.267  35.530  14.570
26414W        W98030  32.567  18.029   2.705
26415W        W98031  15.239  11.597  14.320
26416W        W98032  29.884  30.116   0.023
26417W        W98033  42.470   2.254  12.987
26418W        W98034  43.957  16.016  10.981
26419W        W98035  38.114  19.695  12.959
26420W        W98036  36.092  40.600   4.157
26421W        W98037  23.220  11.161   2.669
26422W        W98038  19.225  19.983   1.169
26423W        W98039  24.304  23.985   0.117
26424W        W98040  30.032  11.339  12.313
26425W        W98041  16.854  16.287   4.997
26426W        W98042  39.509  39.795   1.257
26427W        W98043   6.685   1.477   3.357
26428W        W98044  12.435  43.208  12.930
26429W        W98045  35.951  15.113  14.858
26430W        W98046  41.083  18.358   2.327
26431W        W98047  16.698  18.498  10.496
26432W        W98048  40.992  17.977  13.276
26433W        W98049   3.411   2.245  11.384
26434W        W98050  18.671  23.855   4.612
26435W        W98051  25.788   6.691   4.579
26436W        W98052  38.539  23.308   0.700
26437W        W98053  11.919  17.597  13.929
26438W        W98054  25.589  37.099  14.971
26439W        W98055  14.847   2.464   3.127
26440W        W98056  32.043  40.059  14.858
26441W        W98057   5.940  18.474  12.547
26442W        W98058  34.853  17.326   1.819
26443W        W98059  18.155   4.194   2.633
26444W        W98060  19.640   7.832   2.654
26445W        W98061  40.283  17.130   3.226
26446W        W98062  12.083   5.452   2.764
26447W        W98063  19.695   6.058   2.790
26448W        W98064  20.461  38.318   3.725
26449W        W98065  21.149  12.053   1.951
26450W        W98066  20.217   1.371   4.841
26451W        W98067  39.875   8.757  13.917
26452W        W98068  39.013  30.644  10.777
26453W        W98069  26.269   8.433  11.143
26454W        W98070   3.899  40.491   3.198
26455W        W98071   2.024  43.918  11.548
26456W        W98072  35.005  28.538  11.125
26457W        W98073   6.425   1.275  12.554
26458W        W98074   0.865  31.037   1.807
26459W        W98075  10.273  35.500  13.591
26460W        W98076   5.624  27.349  11.508
26461W        W98077  37.774  20.370  10.824
26462W        W98078  37.368  29.544   3.124
26463W        W98079  12.310  16.718   4.146
26464W        W98080  31.897  17.747   0.346
26465W        W98081  12.739  15.638  12.608
26466W        W98082  18.446  43.983   2.238
26467W        W98083  30.252   8.644  11.408
26468W        W98084  36.881  13.673   1.188
26469W        W98085   1.480   8.342  10.774
26470W        W98086  19.011   9.482   1.327
26471W        W98087  43.963   8.630   2.763
26472W        W98088  13.248  12.197   3.640
26473W        W98089  28.533  24.723   4.658
26474W        W98090  11.936   0.993  14.525
26475W        W98091  31.462  37.579   3.268
26476W        W98092  29.785  16.054   5.021
26477W        W98093  35.344  12.900   2.332
26478W        W98094  16.180  26.954   2.369
26479W        W98095  18.638  33.919  14.713
26480W        W98096  21.245  39.767  13.018
26481W        W98097  28.272  36.504  10.663
26482W        W98098  21.623  22.849   0.523
26483W        W98099   9.685  16.716   2.824
26484W        W98100  32.985  22.461  12.630
26485W        W98101  25.616   8.655   4.591
26486W        W98102  40.577  42.232  12.003
26487W        W98103   3.396  17.657  13.108
26488W        W98104  29.728  36.127   4.101
26489W        W98105   2.523  32.663   4.964
26490W        W98106  39.257  39.691  11.038
26491W        W98107  18.496  35.462   3.736
26492W        W98108   1.178   8.525   1.252
26493W        W98109  14.182  39.591   4.028
26494W        W98110  40.470  14.542  14.313
26495W        W98111  34.002   7.155  12.552
26496W        W98112  17.891  11.765  10.969
26497W        W98113   5.437  41.404  10.620
26498W        W98114   2.167  37.639   3.427
26499W        W98115  14.520  28.403   1.356
26500W        W98116   3.467  36.648   2.585
26501W        W98117  17.115  15.287  12.521
26502W        W98118  44.787   0.485   4.626
26503W        W98119  33.099  14.221  13.081
26504W        W98120   2.836  22.178   0.714
26505W        W98121  31.658   2.278   3.885
26506W        W98122  15.757   1.997   0.498
26507W        W98123  16.804   1.458   1.402
26508W        W98124  36.972  28.658   4.635
26509W        W98125  33.587  29.993  13.365
26510W        W98126   0.734  14.896  11.044
26511W        W98127  20.516  36.604   2.370
26512W        W98128  34.188  32.961  13.210
26513W        W98129  32.910  33.394  11.586
26514W        W98130  38.612  41.009  11.517
26515W        W98131  28.532  33.857  11.206
26516W        W98132   2.432  37.279  14.867
26517W        W98133   2.537  24.516  10.688
26518W        W98134  21.118  11.120   9.967
26519W        W98135  33.938   4.687   3.674
26520W        W98136  35.112   6.769   0.295
26521W        W98137  41.132  28.507  14.003
26522W        W98138  34.977   6.730  13.133
26523W        W98139   1.216  44.201  12.460
26524W        W98140  13.149  43.331  13.401
26525W        W98141  41.548   6.833  13.012
26526W        W98142  19.476  35.382  12.479
26527W        W98143   5.987  42.429   1.695
26528W        W98144  27.587  40.960  10.558
26529W        W98145  30.991  35.276  13.374
26530W        W98146   3.853  42.829   1.574
26531W        W98147  36.980  39.187   1.863
26532W        W98148   1.609   2.640   2.587
26533W        W98149  34.635  38.264   2.905
26534W        W98150  42.514  11.639  13.457
26535W        W98151   4.640  22.105   1.669
26536W        W98152   5.107  16.773   4.640
26537W        W98153   2.679   8.810  11.481
26538W        W98154  44.476  37.627  13.409
26539W        W98155  13.297  19.867   4.564
26540W        W98156  30.358   2.890  12.541
26541W        W98157   1.888  11.317   2.168
26542W        W98158  33.633  31.055  10.630
26543W        W98159  15.579  32.182   3.181
26544W        W98160   8.046   1.808   1.833
26545W        W98161  18.555  25.023  10.659
26546W        W98162  36.417  31.991   3.191
26547W        W98163   1.532  32.379   4.618
26548W        W98164   3.269   3.465  12.016
26549W        W98165  29.655  19.513   2.341
26550W        W98166  25.652   7.199   1.756
26551W        W98167  20.786  37.596  12.591
26552W        W98168  38.572  33.704   0.195
26553W        W98169  41.417   0.307   2.366
26554W        W98170  18.640  22.269  14.355
26555W        W98171  31.078  24.954  11.553
26556W        W98172  37.508  37.427   5.058
26557W        W98173  20.034  37.064  13.883
26558W        W98174  24.628   2.787   4.782
26559W        W98175  35.813  16.184   4.770
26560W        W98176   7.475   6.761  14.002
26561W        W98177  42.302  11.367  14.045
26562W        W98178   4.875  11.790   2.608
26563W        W98179  19.761  36.324  12.722
26564W        W98180   7.293  43.602  13.426
26565W        W98181  14.155  29.272  12.036
26566W        W98182  38.415  36.792   4.682
26567W        W98183   8.153  10.924   1.866
26568W        W98184  20.832  30.068   0.805
26569W        W98185   1.713  12.885   2.714
26570W        W98186  18.835  24.944  12.843
26571W        W98187  36.917  35.620  10.733
26572W        W98188   9.231  31.974  11.070
26573W        W98189  42.025  33.482   3.611
26574W        W98190   9.203  17.313  10.309
26575W        W98191   3.314  18.287  13.344
26576W        W98192  38.493  36.361  10.629
26577W        W98193   5.280  32.639  11.923
26578W        W98194  15.991  24.334   0.069
26579W        W98195  35.696  29.091  13.657
26580W        W98196  33.811  41.733  13.193
26581W        W98197  22.782   6.878  13.123
26582W        W98198  21.144  37.615   0.989
26583W        W98199  13.735  21.562  12.676
26584W        W98200   1.458  43.348  13.477
26585W        W98201  27.779   2.731   4.215
26586W        W98202  40.083  25.228   4.196
26587W        W98203   7.232  27.159  12.497
26588W        W98204   2.411   2.156   4.142
26589W        W98205  32.856  33.391   2.284
26590W        W98206  13.688  42.746   4.192
26591W        W98207  40.353  21.201   1.983
26592W        W98208  19.990  27.647   0.067
26593W        W98209  31.479  25.170  14.147
26594W        W98210  42.984   2.451   0.336
26595W        W98211   5.591   1.011   2.004
26596W        W98212  43.764  10.713  14.933
26597W        W98213  11.485  39.400  14.983
26598W        W98214  24.766  42.983   0.843
26599W        W98215  35.439  30.131   5.008
26600W        W98216   8.740  44.031   3.253
26601W        W98217  22.275  30.383  12.051
26602W        W98218  17.532  33.339   0.611
26603W        W98219  36.874  21.651  11.781
26604W        W98220  32.664  38.601  13.520
26605W        W98221  14.257  39.934  12.958
26606W        W98222  18.852   0.365   0.227
26607W        W98223  34.020  32.056  13.834
26608W        W98224  12.883   8.681   1.176
26609W        W98225  36.865  11.108  14.854
26610W        W98226  15.565  14.323   3.566
26611W        W98227  38.534  14.615   2.615
26612W        W98228  17.674  39.994  13.849
26613W        W98229  44.724  12.869   2.247
26614W        W98230  28.451  18.787  12.113
26615W        W98231  23.556  35.023  12.633
26616W        W98232  38.292  34.382  11.063
26617W        W98233  26.213  24.819  11.214
26618W        W98234   7.798  34.330   3.372
26619W        W98235  15.649   0.969  14.890
26620W        W98236  33.406   8.828   0.558
26621W        W98237  38.961  20.123   4.088
26622W        W98238  44.682  13.674   3.993
26623W        W98239   2.679  18.752  14.924
26624W        W98240  43.394  18.658  13.303
26625W        W98241   2.609  34.877  12.754
26626W        W98242  12.908  33.393   5.024
26627W        W98243  40.751   5.970  12.415
26628W        W98244   6.805  38.480   4.228
26629W        W98245  23.596  30.938   3.272
26630W        W98246  27.724   5.406   2.332
26631W        W98247  21.050  23.423   1.217
26632W        W98248  11.776  24.290  10.583
26633W        W98249   5.909  39.333   3.045
26634W        W98250  31.459  14.599  14.350
26635W        W98251  28.150   4.890  10.737
26636W        W98252  20.895   4.435  13.349
26637W        W98253   1.434  36.535   4.476
26638W        W98254  41.469  13.776   1.414
26639W        W98255  37.114   6.594   2.373
26640W        W98256  20.771  10.964   3.359
26641W        W98257  37.768  34.620  11.057
26642W        W98258  38.157  22.129  12.792
26643W        W98259  30.902   7.603   2.589
26644W        W98260  22.399   2.252  12.521
26645W        W98261  11.216  24.288   3.345
26646W        W98262  14.197   6.591   3.190
26647W        W98263  17.719  12.225   3.478
26648W        W98264  21.980  26.722  10.952
26649W        W98265   9.325   3.711   2.432
26650W        W98266  30.062  20.528  13.060
26651W        W98267  18.520  11.908  11.584
26652W        W98268   4.976  21.102  11.665
26653W        W98269  29.211  28.775  12.097
26654W        W98270  20.209   2.609  14.368
26655W        W98271   4.240  41.091  13.415
26656W        W98272   1.446   8.091   3.762
26657W        W98273  24.136  36.316   3.044
26658W        W98274   6.679   0.977  11.529
26659W        W98275   8.879  38.392   2.949
26660W        W98276  35.615   8.684   4.979
26661W        W98277  20.262  31.875  12.584
26662W        W98278  11.104  19.208   2.606
26663W        W98279  34.844  37.402   4.558
26664W        W98280  24.714  31.888  11.070
26665W        W98281  34.165  36.101  11.648
26666W        W98282  18.190  16.053   4.547
26667W        W98283  11.915  11.890  10.214
26668W        W98284  41.438   2.723   3.395
26669W        W98285  12.663  35.792  12.627
26670W        W98286   3.320  31.075   4.577
26671W        W98287  38.683  28.519   2.593
26672W        W98288  40.181  33.968   0.776
26673W        W98289  28.899  44.182  13.997
26674W        W98290  24.567  19.567  14.972
26675W        W98291  30.602  18.297   2.284
26676W        W98292  23.118  23.668   1.500
26677W        W98293   4.475  36.580   0.069
26678W        W98294  14.714  38.363  11.138
26679W        W98295  21.159   4.289  12.418
26680W        W98296  38.641  29.658  14.393
26681W        W98297  13.674  32.655   4.165
26682W        W98298  40.438  15.697   4.545
26683W        W98299  24.695  26.915  11.802
26684W        W98300  10.097   5.308   0.538
26685W        W98301  24.723  22.533  13.916
26686W        W98302  12.296  10.599  10.690
26687W        W98303  33.548   0.302   0.326
26688W        W98304  38.732  25.273   3.694
26689W        W98305   3.419   2.923   1.332
26690W        W98306  24.579   9.249  12.668
26691W        W98307  13.428   5.879  14.312
26692W        W98308  34.240  30.586   1.939
26693W        W98309  33.438   4.375  13.603
26694W        W98310   2.423   0.324   5.063
26695W        W98311   4.594  34.825  14.834
26696W        W98312  36.887  29.787   3.252
26697W        W98313  21.936   3.676  12.565
26698W        W98314  39.577  39.894  12.479
26699W        W98315  34.473  25.514   1.837
26700W        W98316  36.603  25.739   2.197
26701W        W98317  17.181  26.080   0.491
26702W        W98318   9.296   5.695  12.879
26703W        W98319  36.296   4.506  13.488
26704W        W98320  29.985  33.907   4.144
26705W        W98321  12.255  31.631   0.855
26706W        W98322  35.011  23.253  12.938
26707W        W98323  40.781  16.717  11.532
26708W        W98324  35.373   8.683  13.731
26709W        W98325   3.235  36.147  14.747
26710W        W98326   5.010  14.717  12.745
26711W        W98327  38.706  24.910  14.319
26712W        W98328  43.459  17.159  11.175
26713W        W98329   8.419  26.000  10.990
26714W        W98330  25.796  26.578  14.415
26715W        W98331   8.747  28.656   1.216
26716W        W98332  15.316   5.751  11.103
26717W        W98333  33.106  21.904   1.736
26718W        W98334  43.454   7.791   2.885
26719W        W98335  26.651  12.360  11.577
26720W        W98336  11.644  41.558  14.498
26721W        W98337  13.026  12.727   1.964
26722W        W98338  27.489  15.183  12.425
26723W        W98339  17.783  10.622  13.775
26724W        W98340  36.987   5.172   2.426
26725W        W98341  31.623  11.536   4.889
26726W        W98342   6.396  38.305   4.566
26727W        W98343   8.307  23.803  14.969
26728W        W98344  42.430  33.869  13.772
26729W        W98345  11.368  30.020   1.978
26730W        W98346   1.770   2.597  12.288
26731W        W98347  11.913  43.397   0.819
26732W        W98348  41.093  24.638   0.316
26733W        W98349  11.236  39.821   1.130
26734W        W98350   8.900   0.996  11.591
26735W        W98351  26.194  22.121  13.307
26736W        W98352  40.072  38.986   3.083
26737W        W98353  30.346   0.288  13.955
26738W        W98354  38.823  39.399  11.176
26739W        W98355   2.390  18.050  13.842
26740W        W98356  23.926   7.259   0.016
26741W        W98357  12.413  34.443   3.796
26742W        W98358  17.750   3.886  12.958
26743W        W98359  31.914  31.521  14.597
26744W        W98360  42.910  25.260   1.135
26745W        W98361  38.561  17.121  13.319
26746W        W98362  38.780  19.540   0.422
26747W        W98363   8.694   1.397  11.813
26748W        W98364  24.938  33.542  14.361
26749W        W98365  34.902  38.445  11.416
26750W        W98366  16.261  13.253   0.829
26751W        W98367  33.177  28.466  12.043
26752W        W98368  39.571  26.129  11.045
26753W        W98369  30.085  33.878  10.708
26754W        W98370  23.106  21.225  10.582
26755W        W98371  12.565  16.082  11.072
26756W        W98372  23.170   3.011   4.309
26757W        W98373  43.814  23.420   3.513
26758W        W98374  44.762  41.484   4.491
26759W        W98375   4.365  29.555   3.644
26760W        W98376   4.191  25.906  12.545
26761W        W98377  10.378  32.077   0.494
26762W        W98378  36.135   3.787  12.107
26763W        W98379  22.453  44.462  13.999
26764W        W98380  14.445  38.438  14.898
26765W        W98381  20.222  17.336   3.792
26766W        W98382  32.542  38.664  10.540
26767W        W98383  17.190  34.414  11.896
26768W        W98384  43.830  10.056   3.657
26769W        W98385  16.958  32.412   1.671
26770W        W98386  19.742  40.019  11.459
26771W        W98387  15.936  14.667  12.417
26772W        W98388  23.531   0.205   2.529
26773W        W98389   4.313  26.481   3.333
26774W        W98390  23.447  21.272  11.453
26775W        W98391   5.382  31.971   4.572
26776W        W98392   9.294  20.636   0.624
26777W        W98393  36.578  39.010   2.776
26778W        W98394  11.630  43.224   0.419
26779W        W98395  26.167   2.187  12.465
26780W        W98396  13.903  35.752   4.810
26781W        W98397  40.443  35.405  13.868
26782W        W98398  10.605  23.640   3.552
26783W        W98399  24.681  44.343   0.384
26784W        W98400  41.314   5.163  10.652
26785W        W98401  41.902  36.842  12.968
26786W        W98402  17.550  25.113   4.165
26787W        W98403  37.931   9.181  10.561
26788W        W98404  23.553  35.439  13.991
26789W        W98405   8.550   7.807  14.239
26790W        W98406  34.480  38.120   1.657
26791W        W98407   8.673  29.329   2.698
26792W        W98408  29.253   9.796  13.947
26793W        W98409   4.912  35.107   4.560
26794W        W98410   3.186  44.794   0.247
26795W        W98411  22.799  14.173  12.042
26796W        W98412  40.579  16.867   1.285
26797W        W98413  18.761  23.227   2.948
26798W        W98414  10.674  35.885   0.577
26799W        W98415  35.837  24.634  11.099
26800W        W98416  42.033  18.003  11.603
26801W        W98417   0.819   0.553   2.728
26802W        W98418  26.320   2.489   0.038
26803W        W98419   7.017   2.535   4.059
26804W        W98420   8.288  26.350   3.064
26805W        W98421  38.354   3.866  14.732
26806W        W98422   8.009   1.272  13.545
26807W        W98423  36.157  42.869  11.978
26808W        W98424  39.753  29.425  11.527
26809W        W98425  28.522  25.089  10.634
26810W        W98426  33.049  10.347  14.373
26811W        W98427  27.199  28.672   2.817
26812W        W98428  38.514  21.466   0.916
26813W        W98429   8.585  20.982   5.017
26814W        W98430  15.788   4.661   3.622
26815W        W98431  12.933  25.665  12.467
26816W        W98432  25.949   0.395  13.003
26817W        W98433  30.587  33.149   2.288
26818W        W98434   0.144   1.772   0.388
26819W        W98435   8.141  43.963   3.823
26820W        W98436  39.439  23.732   1.515
26821W        W98437   9.735   2.562   4.362
26822W        W98438  32.455  25.705   0.890
26823W        W98439  15.170  29.575   2.150
26824W        W98440  31.272  41.808  14.802
26825W        W98441  30.689  40.132   3.290
26826W        W98442  18.864  23.724  14.437
26827W        W98443  15.683   1.256   4.195
26828W        W98444  24.912  42.905  14.467
26829W        W98445  27.403  22.326   4.288
26830W        W98446  33.894  13.668   1.981
26831W        W98447  10.128  35.516   1.343
26832W        W98448   8.701   1.883  12.519
26833W        W98449   2.438  25.335  11.595
26834W        W98450  33.414  30.113  10.576
26835W        W98451  40.517   0.303  13.447
26836W        W98452  27.935  24.511  11.614
26837W        W98453  30.992  40.054   0.771
26838W        W98454  31.169  14.064   3.594
26839W        W98455  20.604  24.155   1.319
26840W        W98456  42.499  43.748   0.916
26841W        W98457   6.079  28.970  12.087
26842W        W98458  15.643  12.704   0.690
26843W        W98459  23.266   3.810   3.847
26844W        W98460   7.197  39.095   3.390
26845W        W98461  30.671   2.830  14.370
26846W        W98462  18.301  28.607  10.355
26847W        W98463   6.164  30.736   2.857
26848W        W98464  13.899  24.483   0.483
26849W        W98465  26.218  22.478   2.345
26850W        W98466  31.527  39.940  10.973
26851W        W98467  36.872  41.325  11.510
26852W        W98468  36.060  29.863  13.354
26853W        W98469   3.358  17.104  12.064
26854W        W98470  14.366  19.568  12.630
26855W        W98471  28.000  40.309   1.897
26856W        W98472  22.059  25.024  13.145
26857W        W98473   3.630  36.454  14.464
26858W        W98474  24.527  24.702  14.457
26859W        W98475  12.093  32.469  13.508
26860W        W98476  43.342   4.212  14.578
26861W        W98477  17.297   2.398  12.662
26862W        W98478  23.720  16.326   2.783
26863W        W98479  38.586  18.110   3.467
26864W        W98480  20.283  42.207  14.845
26865W        W98481  41.613  30.273   1.846
26866W        W98482  34.381  11.058   3.371
26867W        W98483  34.153  21.711   2.983
26868W        W98484   0.807  31.037   5.055
26869W        W98485  38.352  12.717   2.682
26870W        W98486   7.707  21.038   2.335
26871W        W98487  35.898  23.579  13.798
26872W        W98488   3.289   9.232  12.168
26873W        W98489  20.074  40.083  14.387
26874W        W98490   5.345  34.903   4.719
26875W        W98491  32.483  14.582  14.266
26876W        W98492   3.392  27.940  11.935
26877W        W98493  42.390  23.612   1.617
26878W        W98494  12.661  43.582   3.664
26879W        W98495  10.700  11.745   1.840
26880W        W98496  44.523  42.240  13.314
26881W        W98497  12.838  24.627   4.523
26882W        W98498  18.300  37.850  13.446
26883W        W98499  17.038  27.901   1.864
26884W        W98500  17.445  31.928  14.990
26885W        W98501   6.078  44.828   2.237
26886W        W98502  42.288  17.124  14.945
26887W        W98503  41.333  16.563  12.324
26888W        W98504  28.865  22.433   4.269
26889W        W98505  16.245  21.144   3.933
26890W        W98506  17.084   2.392  13.097
26891W        W98507  34.901  15.212  13.454
26892W        W98508  28.045  22.730  14.271
26893W        W98509   8.335  19.208  10.470
26894W        W98510  17.026  36.892  10.330
26895W        W98511  35.092  27.133  13.306
26896W        W98512  40.200  39.952   0.508
26897W        W98513  30.666  36.080  14.791
26898W        W98514  16.106  27.880  14.977
26899W        W98515  31.509  28.378   0.861
26900W        W98516  27.545  18.249   1.956
26901W        W98517  29.439  25.962   0.722
26902W        W98518  39.339  23.823  11.113
26903W        W98519  22.890  18.566  14.032
26904W        W98520  21.975  35.985   0.619
26905W        W98521   0.302   8.404   0.731
26906W        W98522  33.743  12.195  14.497
26907W        W98523   4.696  43.871   1.421
26908W        W98524  16.055   9.128  11.037
26909W        W98525  39.510  20.674   1.362
26910W        W98526  15.576  30.094  13.429
26911W        W98527  15.974  36.321  14.002
26912W        W98528  14.363  42.582  11.359
26913W        W98529  17.724  10.212   4.281
26914W        W98530  19.474  31.660   1.964
26915W        W98531   3.223   2.929  12.089
26916W        W98532   1.414  29.327  11.220
26917W        W98533  24.456  39.193  13.849
26918W        W98534  11.417  15.104  14.523
26919W        W98535   6.837  30.255   2.342
26920W        W98536   6.536   6.832  13.023
26921W        W98537  28.706   6.589   3.395
26922W        W98538  35.071   5.555  10.301
26923W        W98539   6.846  16.000  12.912
26924W        W98540  35.473  41.420  14.510
26925W        W98541  41.325  38.578  12.999
26926W        W98542  28.605  31.330  10.479
26927W        W98543  24.453  37.669  12.940
26928W        W98544   4.508  40.068   1.012
26929W        W98545  18.706  18.259   0.676
26930W        W98546   7.092  27.168   2.228
26931W        W98547  29.358  30.352   2.089
26932W        W98548  37.393   5.497  13.756
26933W        W98549  32.039  40.298  10.437
26934W        W98550  28.184   3.888   1.430
26935W        W98551  37.060  12.822  10.742
26936W        W98552  34.892   7.368  10.659
26937W        W98553   3.320  23.561   0.902
26938W        W98554  30.481  35.906   4.522
26939W        W98555   7.334  15.288   4.872
26940W        W98556  40.859  42.896   1.867
26941W        W98557  24.522  18.633   0.931
26942W        W98558  41.766  36.080   2.841
26943W        W98559  30.922  26.505   2.837
26944W        W98560  34.077   4.422   3.234
26945W        W98561   4.666  18.169   3.152
26946W        W98562  29.137  22.980  13.597
26947W        W98563  35.439   4.682  10.897
26948W        W98564  33.279   6.915  13.599
26949W        W98565  39.403  33.555   3.795
26950W        W98566  17.623  18.476   2.264
26951W        W98567  39.300  23.727   3.252
26952W        W98568   6.695   0.202  12.030
26953W        W98569   7.595  10.011  14.900
26954W        W98570  15.110  22.691  14.911
26955W        W98571  23.675  26.233  12.974
26956W        W98572  29.719  23.929  12.103
26957W        W98573  15.267  10.631  11.337
26958W        W98574  44.490   2.324  13.983
26959W        W98575   3.699  43.987  11.082
26960W        W98576  44.860  22.307  11.097
26961W        W98577  13.686   2.197   4.291
26962W        W98578  31.331  42.710   0.333
26963W        W98579  31.351  33.416  14.374
26964W        W98580  18.827  28.911   2.216
26965W        W98581  39.876   4.740   4.137
26966W        W98582  13.768  36.344   1.397
26967W        W98583  21.105  31.337   2.729
26968W        W98584  32.148  28.878  10.563
26969W        W98585  30.746  13.250  13.159
26970W        W98586  43.831  11.789   3.754
26971W        W98587  36.901   0.874   1.494
26972W        W98588   7.728  40.514   2.370
26973W        W98589   5.748  12.579  14.078
26974W        W98590  32.445   7.885  12.970
26975W        W98591  10.331  15.621   2.326
26976W        W98592  25.220  16.336   2.799
26977W        W98593  15.821  18.567  12.966
26978W        W98594  11.629  24.427  12.864
26979W        W98595  26.174  25.694   3.420
26980W        W98596  43.464  35.948   0.819
26981W        W98597  40.821  17.856   0.506
26982W        W98598   9.326  40.854  14.386
26983W        W98599  38.625   1.855  14.591
26984W        W98600  16.327   0.341   1.759
26985W        W98601  18.524  25.605   2.766
26986W        W98602   1.725  33.349   0.381
26987W        W98603  16.332  35.311   2.738
26988W        W98604  44.292  36.599  10.979
26989W        W98605  41.794  32.046  14.448
26990W        W98606  17.798   5.883   2.286
26991W        W98607  32.199  24.137  11.708
26992W        W98608  13.195  33.559   0.952
26993W        W98609  42.268  10.284   1.230
26994W        W98610  15.572   7.333  14.283
26995W        W98611  10.441   4.223  12.905
26996W        W98612  43.752   4.375   3.708
26997W        W98613  36.026  13.952  14.959
26998W        W98614  23.301  19.757   4.162
26999W        W98615  43.551  33.997   3.306
27000W        W98616   2.796   7.969   1.849
27001W        W98617  19.405  14.662   4.938
27002W        W98618   7.877  35.005   4.131
27003W        W98619   7.436  13.648  12.686
27004W        W98620  20.079  28.923  11.562
27005W        W98621  37.267  40.180   3.139
27006W        W98622  28.418   8.420  12.014
27007W        W98623  24.904  13.774   0.480
27008W        W98624  16.303  18.779   2.674
27009W        W98625  38.288  30.435   5.036
27010W        W98626  17.714  26.057  13.943
27011W        W98627   9.647  30.143  10.701
27012W        W98628  40.858  34.694   4.150
27013W        W98629  22.626   2.285  14.298
27014W        W98630  19.355   1.795   1.355
27015W        W98631  33.625  43.715   1.364
27016W        W98632  40.948  37.729  11.969
27017W        W98633  25.385  37.696   3.673
27018W        W98634  42.184  22.232  10.377
27019W        W98635  24.082  33.352   0.912
27020W        W98636  28.895  38.270  14.442
27021W        W98637  42.107  25.980   4.258
27022W        W98638  43.331  11.110  10.784
27023W        W98639  36.656  33.529   3.416
27024W        W98640  20.448  27.245   1.079
27025W        W98641   6.315  16.655   2.485
27026W        W98642  15.670  42.298  11.007
27027W        W98643  25.967  40.930  13.603
27028W        W98644  38.131   1.831   1.731
27029W        W98645  25.748  31.527   3.274
27030W        W98646  20.594  41.834   3.222
27031W        W98647  36.302  38.173  14.680
27032W        W98648  11.064  15.698  12.993
27033W        W98649  43.467  37.079  14.994
27034W        W98650  34.096  38.608   4.530
27035W        W98651   0.175  38.998  14.875
27036W        W98652  30.916  43.037   1.113
27037W        W98653   3.633   5.716   0.649
27038W        W98654  38.293   7.823   1.760
27039W        W98655  36.380   9.653   1.887
27040W        W98656   8.284   8.324   4.631
27041W        W98657  40.038  32.919  10.766
27042W        W98658  41.732  30.357   3.722
27043W        W98659  22.828  29.121   0.553
27044W        W98660  26.673  41.982  12.975
27045W        W98661  37.490  19.520   9.727
27046W        W98662   9.912  32.060  12.861
27047W        W98663  16.190   9.830   4.156
27048W        W98664  16.055  44.310  10.658
27049W        W98665  19.680   0.445  13.047
27050W        W98666  26.725  36.973   1.288
27051W        W98667  12.820  26.550   3.354
27052W        W98668  10.873   3.497   3.282
27053W        W98669  18.184  14.361   1.176
27054W        W98670  16.150   5.276  13.499
27055W        W98671   8.431  42.213  12.182
27056W        W98672  36.793  35.313   3.980
27057W        W98673  44.926  30.862  12.584
27058W        W98674   8.269   0.697  11.595
27059W        W98675  24.538  13.594  11.882
27060W        W98676  17.985  41.992  11.097
27061W        W98677  10.793  17.658  12.467
27062W        W98678  44.852  10.790   2.391
27063W        W98679  36.206   0.550   2.217
27064W        W98680   6.695  14.146   2.611
27065W        W98681  15.839  19.085   1.878
27066W        W98682  37.294   6.256   3.717
27067W        W98683  40.775   1.160   2.123
27068W        W98684  35.662  40.527  11.105
27069W        W98685  40.754  13.272  11.108
27070W        W98686  22.233  31.242  11.601
27071W        W98687  43.546   5.425   2.334
27072W        W98688   3.670   8.667   2.328
27073W        W98689  10.824  10.592  11.469
27074W        W98690  23.278  18.145  11.680
27075W        W98691  14.772   6.690   2.311
27076W        W98692  33.159  24.722   4.669
27077W        W98693  18.488  41.043   2.692
27078W        W98694  15.382  18.612   2.695
27079W        W98695  24.198  35.990  11.039
27080W        W98696  22.967   3.436   3.080
27081W        W98697  21.162  11.653   2.269
27082W        W98698  34.401  43.460  12.447
27083W        W98699   1.189  41.595  12.736
27084W        W98700  27.144  26.252   2.403
27085W        W98701   5.892  18.768  13.933
27086W        W98702   1.880  31.066   2.555
27087W        W98703   0.828  34.099   1.291
27088W        W98704  19.205  27.908  13.346
27089W        W98705  22.749  37.550   3.303
27090W        W98706   4.687  19.843   2.294
27091W        W98707   3.273  30.003   4.962
27092W        W98708   0.180  31.328  12.548
27093W        W98709  42.208  13.206  14.024
27094W        W98710  42.973   5.150  11.938
27095W        W98711  20.661  44.316  11.008
27096W        W98712   7.750  32.364  11.924
27097W        W98713  22.144  43.565  14.468
27098W        W98714  43.283   7.980   0.403
27099W        W98715  18.615   3.594   5.102
27100W        W98716  31.360  41.416  13.450
27101W        W98717   4.449  31.057  11.602
27102W        W98718   1.711  16.849   0.353
27103W        W98719  11.712  10.085   4.197
27104W        W98720  39.321   4.207  11.044
27105W        W98721  30.225   8.924   0.948
27106W        W98722  36.315  28.154   1.313
27107W        W98723  27.159  26.675   4.558
27108W        W98724   7.773   9.957   4.126
27109W        W98725  30.027   6.420   0.665
27110W        W98726  11.533  31.914   4.999
27111W        W98727   1.363  34.391   2.944
27112W        W98728   5.827  16.818   1.705
27113W        W98729  26.578  30.188  11.142
27114W        W98730  34.458  31.946  12.026
27115W        W98731   2.804   9.256   0.446
27116W        W98732  18.647  34.791  12.810
27117W        W98733   2.162  21.311   4.350
27118W        W98734  34.889  38.200   0.833
27119W        W98735  35.651  42.839  12.092
27120W        W98736  43.520   2.968  14.210
27121W        W98737  11.468  34.494  14.840
27122W        W98738   1.865  25.133   3.592
27123W        W98739  27.587  38.688   4.186
27124W        W98740  14.758  41.442   1.713
27125W        W98741  40.057  32.549   0.531
27126W        W98742   5.926  27.159  14.768
27127W        W98743  43.687  20.769  11.208
27128W        W98744  30.418   1.636  11.530
27129W        W98745  40.742  37.033   4.610
27130W        W98746   3.206  17.291   1.304
27131W        W98747  19.662   8.876  14.972
27132W        W98748  35.178  37.571   0.300
27133W        W98749   1.924  36.233  13.348
27134W        W98750   9.147  15.343   1.282
27135W        W98751  27.571  38.077   0.878
27136W        W98752  39.535   8.732   1.432
27137W        W98753  30.749  26.009   1.466
27138W        W98754  10.284  38.441   2.195
27139W        W98755  42.834  25.662   3.097
27140W        W98756  16.007   9.677   1.326
27141W        W98757  37.060  25.276   3.437
27142W        W98758  22.814  14.614   4.688
27143W        W98759   6.358  30.951  13.827
27144W        W98760   5.660   8.155  11.167
27145W        W98761  28.891  40.386  14.407
27146W        W98762  33.207   3.347   3.706
27147W        W98763  12.774   9.600  12.890
27148W        W98764  36.268  27.729   4.032
27149W        W98765   9.427  43.646  11.921
27150W        W98766  31.831  21.791  10.693
27151W        W98767  26.545  43.530   2.816
27152W        W98768  16.162  19.752  14.563
27153W        W98769  13.884  23.098  12.539
27154W        W98770  15.461  39.828   1.018
27155W        W98771   7.958  19.081   0.533
27156W        W98772  27.369  26.119   0.654
27157W        W98773  20.963  23.484   0.308
27158W        W98774  20.162  37.085   0.139
27159W        W98775  24.668  31.820  13.648
27160W        W98776  16.303  22.732   1.942
27161W        W98777  43.013  16.695  12.835
27162W        W98778  27.997  28.211  14.799
27163W        W98779  33.084   2.489  14.491
27164W        W98780  13.219   5.824  10.956
27165W        W98781  34.556  28.698  11.524
27166W        W98782  11.543  33.919   3.870
27167W        W98783  35.876   9.255  13.477
27168W        W98784  15.189  10.323   4.212
27169W        W98785   6.356   0.386   0.476
27170W        W98786  13.320  18.027   1.838
27171W        W98787  41.798  17.291  13.424
27172W        W98788  43.040   1.781   2.671
27173W        W98789  41.998  42.283   1.210
27174W        W98790  33.240  26.263   2.704
27175W        W98791  35.794  40.504  13.679
27176W        W98792  12.592  32.894   1.288
27177W        W98793   1.667   2.935  14.906
27178W        W98794  41.374  17.594  10.861
27179W        W98795  25.020  44.991  12.478
27180W        W98796  33.900  32.167   4.142
27181W        W98797  19.302  34.632  10.690
27182W        W98798  13.552  20.742  14.251
27183W        W98799  42.177  24.914   3.254
27184W        W98800  28.020  22.781   2.628
27185W        W98801   4.426   2.819  12.626
27186W        W98802   7.880   9.294   1.461
27187W        W98803   9.677  24.716  11.426
27188W        W98804  42.372  14.242  13.083
27189W        W98805  44.268  43.508   0.840
27190W        W98806  43.268   8.848  11.678
27191W        W98807  14.653  14.789  13.771
27192W        W98808  27.707  33.388  10.834
27193W        W98809  28.627  13.513  13.059
27194W        W98810  11.136  35.080  11.366
27195W        W98811  10.617   8.180   0.036
27196W        W98812  30.516   5.236  12.859
27197W        W98813   6.928  37.725   3.553
27198W        W98814  11.274   4.700  13.591
27199W        W98815  32.544  34.059   0.635
27200W        W98816   1.648  38.097   4.873
27201W        W98817   8.199  38.127   1.380
27202W        W98818   5.361   5.558  11.051
27203W        W98819  19.829   9.850   2.382
27204W        W98820  36.653   6.589  13.017
27205W        W98821  22.995  44.514   2.227
27206W        W98822  41.729   2.400  12.096
27207W        W98823  41.164  19.349   1.842
27208W        W98824   6.774  17.002   3.963
27209W        W98825  19.517  38.479  12.363
27210W        W98826  37.611  14.686  10.773
27211W        W98827  37.320  21.099   3.633
27212W        W98828  15.164  15.592  10.101
27213W        W98829   2.974  27.048   2.439
27214W        W98830  10.429  12.830  11.061
27215W        W98831  36.426  12.289   0.555
27216W        W98832   3.282   3.324   1.934
27217W        W98833  34.635   5.337  14.268
27218W        W98834   1.816  35.486   0.194
27219W        W98835  11.454  19.061  13.827
27220W        W98836  14.810  25.400   3.131
27221W        W98837  24.363  42.230   4.007
27222W        W98838  35.573  42.334   2.314
27223W        W98839   6.103  40.481   3.711
27224W        W98840  12.293   4.243   3.755
27225W        W98841  37.870  36.571  13.475
27226W        W98842  21.783  19.900  14.361
27227W        W98843  16.147  28.838  12.704
27228W        W98844  31.424  21.006   4.150
27229W        W98845  36.117  39.319  11.006
27230W        W98846  42.681  13.404  13.207
27231W        W98847   4.332  15.024  14.393
27232W        W98848  29.039  38.936  14.037
27233W        W98849  24.610  26.686  11.198
27234W        W98850  42.899  39.096   0.390
27235W        W98851  40.799  42.493   0.433
27236W        W98852   1.267  32.081   0.379
27237W        W98853  44.757  20.334  10.723
27238W        W98854   8.945  32.383   2.884
27239W        W98855  26.212  27.409  12.316
27240W        W98856  39.055  33.164  14.461
27241W        W98857   9.591  25.664  13.386
27242W        W98858   9.326  28.920  14.972
27243W        W98859  34.869  24.282   1.919
27244W        W98860  25.106  44.011  14.099
27245W        W98861  44.511   1.960   4.588
27246W        W98862  24.520  26.102  10.720
27247W        W98863  31.903  38.965   1.461
27248W        W98864   7.212  32.425  10.615
27249W        W98865  25.384   2.990   0.838
27250W        W98866  17.153  44.972   0.779
27251W        W98867  19.098  38.384  11.418
27252W        W98868  29.470  13.808  12.481
27253W        W98869  24.480   8.106  11.029
27254W        W98870  27.162   6.209   0.870
27255W        W98871  41.853  14.360  11.618
27256W        W98872  11.209  44.714   4.347
27257W        W98873   9.351  19.507   4.613
27258W        W98874   7.824   0.712   4.690
27259W        W98875  38.845  18.322  14.853
27260W        W98876  40.832  27.913   0.931
27261W        W98877   8.318  44.526   0.964
27262W        W98878  27.944  33.447   4.808
27263W        W98879  26.842  23.608   5.074
27264W        W98880  30.690  39.094   1.835
27265W        W98881  14.750  25.337   5.112
27266W        W98882  14.082  25.109   0.358
27267W        W98883  37.558   9.423  12.763
27268W        W98884  26.161   3.481  12.800
27269W        W98885  34.668  39.335  10.809
27270W        W98886   1.094   4.530  12.119
27271W        W98887  14.051  26.073   3.075
27272W        W98888   4.184  23.518   1.022
27273W        W98889  11.926  18.831  13.728
27274W        W98890   0.038  32.448   1.890
27275W        W98891  23.427  31.936  10.610
27276W        W98892   4.207  31.613  12.896
27277W        W98893  18.044   4.294  12.833
27278W        W98894   1.074  11.159   3.898
27279W        W98895  28.541  43.757   1.393
27280W        W98896  38.845  10.726   3.654
27281W        W98897  25.859  11.104   1.242
27282W        W98898  14.617   6.895   3.190
27283W        W98899  38.695  39.039   5.081
27284W        W98900   3.513  27.642  11.025
27285W        W98901  10.624  27.377  13.490
27286W        W98902  19.410  42.870  14.376
27287W        W98903   8.358  23.500  12.149
27288W        W98904  32.457  14.877  12.763
27289W        W98905  21.776  27.692  12.438
27290W        W98906  11.054  24.441  12.411
27291W        W98907  15.897   3.368  11.605
27292W        W98908  20.665  21.249  11.648
27293W        W98909  17.507  44.030  13.959
27294W        W98910  40.749   6.444  11.569
27295W        W98911  18.991  26.015   3.402
27296W        W98912   6.341   9.322  12.891
27297W        W98913  31.058  29.679   9.938
27298W        W98914  23.795  20.610  11.177
27299W        W98915  18.292  20.243   1.336
27300W        W98916  30.738  12.150  11.184
27301W        W98917  15.303  26.649  13.041
27302W        W98918  12.256  23.120  14.210
27303W        W98919  30.657  20.579  10.299
27304W        W98920   0.247  21.793   1.805
27305W        W98921  19.643  29.679   0.775
27306W        W98922   1.656  29.116   4.575
27307W        W98923  25.638  26.000   4.807
27308W        W98924  26.700  44.147  10.236
27309W        W98925  13.211  32.803   1.854
27310W        W98926  19.949   0.855   2.107
27311W        W98927  39.029  38.562  13.452
27312W        W98928  15.669  26.392  14.389
27313W        W98929   7.917  33.401   1.854
27314W        W98930   7.465  41.824  14.456
27315W        W98931  28.501  35.651  11.654
27316W        W98932   1.524  14.162   4.223
27317W        W98933  14.884  18.291   0.926
27318W        W98934  37.382  28.005   2.792
27319W        W98935   9.230   4.280   1.136
27320W        W98936  33.413  32.602  14.440
27321W        W98937  36.673   5.901  11.912
27322W        W98938  24.524   6.309  12.889
27323W        W98939  18.574  30.761  14.788
27324W        W98940  10.225  30.751   4.357
27325W        W98941  22.780  21.014  13.905
27326W        W98942  16.275  38.449  14.457
27327W        W98943  40.654  41.569   1.309
27328W        W98944  32.569  35.235   3.432
27329W        W98945  16.442  43.821   9.871
27330W        W98946   1.869  44.296  10.690
27331W        W98947  18.133  21.074   0.706
27332W        W98948  32.034   1.504   2.277
27333W        W98949  30.555  42.627   4.908
27334W        W98950   4.557  40.566  14.900
27335W        W98951  39.974  20.535  13.017
27336W        W98952  15.662  15.762  11.621
27337W        W98953  35.082  17.190   2.715
27338W        W98954  23.177   4.964   1.455
27339W        W98955  30.647   0.222   2.166
27340W        W98956  19.004  32.623  12.936
27341W        W98957  13.786   6.470   2.006
27342W        W98958  12.247  24.086  10.648
27343W        W98959  25.676   4.058   4.074
27344W        W98960   4.175   7.232   2.221
27345W        W98961  29.338  19.738   1.913
27346W        W98962   0.922   9.823   4.877
27347W        W98963   2.946  22.490  12.067
27348W        W98964  17.657  14.058   1.250
27349W        W98965  41.894  14.548   3.908
27350W        W98966   3.421   4.419   4.386
27351W        W98967  30.351   7.364   3.774
27352W        W98968  23.647  42.491  14.501
27353W        W98969  18.852  11.713   1.911
27354W        W98970  30.860  21.230   2.563
27355W        W98971  39.240  12.680   3.811
27356W        W98972   2.846  19.698   3.503
27357W        W98973  25.943  33.149   3.814
27358W        W98974   4.344   0.019   2.899
27359W        W98975   9.840  43.191   3.580
27360W        W98976  16.082  35.483   0.179
27361W        W98977  32.889  40.593   0.220
27362W        W98978  13.362  18.678   0.236
27363W        W98979  16.316  44.145  10.248
27364W        W98980  14.661  35.076   0.577
27365W        W98981   4.920   0.314  12.884
27366W        W98982  11.118  22.492  11.399
27367W        W98983  42.944   2.959   0.115
27368W        W98984  41.297  28.495   1.167
27369W        W98985  36.174  24.602  14.300
27370W        W98986  33.221  36.928   2.125
27371W        W98987  31.861  13.178   4.085
27372W        W98988  18.494  41.167  10.095
27373W        W98989  25.166  28.488  13.467
27374W        W98990  12.179   7.637   4.143
27375W        W98991  18.692  24.674   0.908
27376W        W98992  26.217  30.587   2.741
27377W        W98993  32.489   9.761   2.151
27378W        W98994  10.143   9.343  13.860
27379W        W98995   4.944  19.574  13.354
27380W        W98996   6.601  20.259  14.277
27381W        W98997  26.296  18.703   3.813
27382W        W98998  32.355  28.957  11.148
27383W        W98999  32.860  44.308  10.990
27384W        W99000   2.060  38.410   2.286
27385W        W99001  12.602  32.489   0.321
27386W        W99002  32.497  27.149   4.076
27387W        W99003  11.231  14.639  14.744
27388W        W99004  19.493   2.416   0.070
27389W        W99005  16.727  28.951  11.477
27390W        W99006  40.296  44.583  12.347
27391W        W99007   3.926  34.579  13.052
27392W        W99008   4.951  32.173   0.423
27393W        W99009  27.007  24.762  14.273
27394W        W99010  12.601  18.127   1.417
27395W        W99011   8.838  37.349   3.317
27396W        W99012  40.603  23.962  12.535
27397W        W99013  17.463  43.648   4.564
27398W        W99014  31.901   0.236  11.144
27399W        W99015  28.294  23.452   3.994
27400W        W99016  39.833  25.647   3.693
27401W        W99017   9.242  28.416  14.997
27402W        W99018  31.246  10.823  11.101
27403W        W99019  20.282  11.130  13.437
27404W        W99020  42.762   8.423  14.983
27405W        W99021  16.477   8.694  11.871
27406W        W99022  32.695  20.738   0.490
27407W        W99023  15.514  38.935   2.769
27408W        W99024  31.917   2.858   2.698
27409W        W99025  22.999  10.710   2.356
27410W        W99026  12.789  38.803   2.346
27411W        W99027  13.178  43.983  12.960
27412W        W99028  17.400  36.138  12.055
27413W        W99029  23.243  32.635  14.000
27414W        W99030  22.770   9.290   4.550
27415W        W99031  30.379  41.333   0.779
27416W        W99032  28.612  12.392   1.697
27417W        W99033  22.688  29.873   1.385
27418W        W99034   0.335  13.979  13.091
27419W        W99035   0.101   2.387  10.785
27420W        W99036   4.425   0.674  11.429
27421W        W99037   3.129  43.082  12.447
27422W        W99038  39.847  19.766  13.438
27423W        W99039  22.299  22.629  10.391
27424W        W99040  10.083  27.533  11.116
27425W        W99041  33.838  25.464  14.416
27426W        W99042  38.671   7.148  12.539
27427W        W99043  22.705  10.584   0.821
27428W        W99044  19.810   7.839  11.488
27429W        W99045  29.152   0.450  14.682
27430W        W99046  32.952   6.143  14.065
27431W        W99047  11.179  36.588   0.456
27432W        W99048  25.072  43.705   2.494
27433W        W99049   6.754  22.049   0.362
27434W        W99050  22.754   1.209  14.396
27435W        W99051  23.528   7.030  12.587
27436W        W99052  16.141  40.539  13.541
27437W        W99053   2.813  32.982  11.488
27438W        W99054  27.740  16.149   2.247
27439W        W99055   3.938  29.568  11.813
27440W        W99056  16.842  11.644   3.121
27441W        W99057  11.403   5.114  13.333
27442W        W99058   4.839   9.016   1.537
27443W        W99059  16.809  39.789  11.627
27444W        W99060   2.311  38.424  10.700
27445W        W99061  42.071  30.702  11.599
27446W        W99062  12.425   2.010   1.700
27447W        W99063  21.571  11.904  14.825
27448W        W99064  17.572  25.057  10.986
27449W        W99065   0.488  37.862  11.641
27450W        W99066  14.541   5.302   0.275
27451W        W99067   9.189   6.334   4.564
27452W        W99068   0.583  29.100  10.694
27453W        W99069  20.314  11.179   4.469
27454W        W99070  32.153  18.110   4.794
27455W        W99071   6.359  43.583  11.052
27456W        W99072  21.717  31.120  14.105
27457W        W99073  24.905  22.055   2.591
27458W        W99074  12.389  13.017  10.669
27459W        W99075  21.745  25.666   1.366
27460W        W99076  32.534  32.458   3.739
27461W        W99077  37.237  16.656   3.601
27462W        W99078  23.298  37.422   2.236
27463W        W99079   4.444  21.495   3.222
27464W        W99080  24.032  29.224   0.380
27465W        W99081  30.392  30.088  13.305
27466W        W99082   4.918  40.044   1.426
27467W        W99083   1.209  29.705   1.109
27468W        W99084  20.562  11.315  12.998
27469W        W99085  35.932  40.326   3.750
27470W        W99086   3.263   1.386  10.631
27471W        W99087  21.834  14.292   1.340
27472W        W99088  25.851  28.051  10.648
27473W        W99089  37.898  39.836   0.914
27474W        W99090  39.033  33.986   0.199
27475W        W99091  18.312  17.388   3.965
27476W        W99092   1.212  22.816  11.097
27477W        W99093  34.604  36.459   4.578
27478W        W99094  32.588  44.586  12.530
27479W        W99095  30.325   3.721  13.856
27480W        W99096  39.367  14.275  13.812
27481W        W99097  11.679   1.309  11.158
27482W        W99098   9.227  43.134  13.855
27483W        W99099   8.163  26.590   0.218
27484W        W99100   3.735  38.971   2.738
27485W        W99101  19.002  42.579   4.766
27486W        W99102  13.049  16.746  11.464
27487W        W99103  34.250  28.872   3.462
27488W        W99104  14.355  11.337   4.332
27489W        W99105   1.772  27.423  13.426
27490W        W99106  13.201  36.397   0.853
27491W        W99107  38.399  25.100  12.098
27492W        W99108   0.770  29.065  13.432
27493W        W99109  41.361  18.373   1.793
27494W        W99110   2.456   1.747  10.579
27495W        W99111  13.295  16.288  14.412
27496W        W99112  42.393  43.443  13.437
27497W        W99113  38.606  25.278   0.344
27498W        W99114  26.631   6.664  11.625
27499W        W99115  31.956   3.230  12.032
27500W        W99116   0.897   9.369   4.624
27501W        W99117  12.787  37.788   1.372
27502W        W99118  13.603  23.718  12.123
27503W        W99119  38.482  32.023   4.565
27504W        W99120  12.145  36.616  13.830
27505W        W99121   2.924   0.021   0.622
27506W        W99122  44.233   6.172   2.680
27507W        W99123  24.527   9.454  11.682
27508W        W99124  32.388  28.990   4.145
27509W        W99125  21.504  30.437  11.422
27510W        W99126   0.334  17.625  13.210
27511W        W99127   3.661  36.348   4.175
27512W        W99128  28.296   6.624  11.133
27513W        W99129  15.199   6.112  14.013
27514W        W99130   6.880  43.446   4.532
27515W        W99131   6.191  17.949   2.284
27516W        W99132  14.906  35.488   2.750
27517W        W99133  11.905  26.145  12.060
27518W        W99134  40.245  19.568  10.208
27519W        W99135  25.170  12.393  13.403
27520W        W99136  30.618  25.436   0.629
27521W        W99137  10.424   2.011  11.422
27522W        W99138  31.562  27.963  14.986
27523W        W99139  10.429  24.042  13.980
27524W        W99140  33.670   9.362   1.324
27525W        W99141  13.821   9.881  10.542
27526W        W99142  17.644   1.477  13.878
27527W        W99143   8.871  19.807  13.063
27528W        W99144  17.958  31.704   1.742
27529W        W99145  35.216  11.323   1.203
27530W        W99146  38.366   1.415  14.466
27531W        W99147  36.969  39.801   4.765
27532W        W99148   6.454  42.311   4.702
27533W        W99149   1.047  16.821  14.918
27534W        W99150  28.976  31.642   3.682
27535W        W99151  12.514  15.289   4.373
27536W        W99152  37.703  17.119   0.595
27537W        W99153  18.857  43.016   4.516
27538W        W99154  29.314  24.682  14.544
27539W        W99155  15.954  29.496   4.125
27540W        W99156  41.297  21.265   1.979
27541W        W99157  12.611  40.491  13.759
27542W        W99158  13.201  27.540  12.216
27543W        W99159  32.719   6.698  13.083
27544W        W99160  32.134  19.302   1.270
27545W        W99161  12.175  19.152  10.598
27546W        W99162  23.178  17.090   3.798
27547W        W99163  35.018  35.801  12.905
27548W        W99164  25.494  11.405  10.714
27549W        W99165   2.215   5.175   4.062
27550W        W99166  17.662  20.179  11.570
27551W        W99167  13.338  19.879  11.419
27552W        W99168   6.451  20.814   1.050
27553W        W99169  28.933  22.210  14.693
27554W        W99170  37.047  17.473  12.481
27555W        W99171  34.985  16.714  10.501
27556W        W99172  30.606  42.506   4.415
27557W        W99173  34.559   7.927   2.542
27558W        W99174  39.343  40.614  13.843
27559W        W99175  39.391  44.999   4.177
27560W        W99176  35.371  11.778   4.389
27561W        W99177   2.378  21.459   1.658
27562W        W99178  36.185  11.083  13.418
27563W        W99179  39.964  21.458   0.463
27564W        W99180  33.867  14.141   4.614
27565W        W99181  42.891  42.092  11.024
27566W        W99182  29.888  28.645  10.722
27567W        W99183  44.753  22.478  14.747
27568W        W99184  22.181  15.837   2.217
27569W        W99185   3.887  14.628  11.729
27570W        W99186  20.425  10.249  11.013
27571W        W99187   2.230  21.078   0.988
27572W        W99188  20.738   9.850   1.308
27573W        W99189  11.393  24.070  12.580
27574W        W99190  34.848  15.579   2.839
27575W        W99191  33.974  27.666   2.701
27576W        W99192  26.292  25.227  14.792
27577W        W99193  38.477  27.916  14.321
27578W        W99194  41.887  23.345  10.258
27579W        W99195  36.521   0.777  11.810
27580W        W99196  39.784  12.594  10.642
27581W        W99197  17.845  31.619  11.616
27582W        W99198  24.416  40.765  11.600
27583W        W99199  12.241   2.414  14.461
27584W        W99200  12.838  43.815   1.346
27585W        W99201   1.468  31.570  11.546
27586W        W99202  30.580  16.589   0.854
27587W        W99203   5.846  36.805  13.431
27588W        W99204  18.834  38.976   2.224
27589W        W99205  28.883  27.124   4.235
27590W        W99206  27.422   7.449   1.433
27591W        W99207   5.339  27.023  11.883
27592W        W99208  25.545   1.895   4.036
27593W        W99209  22.125  16.209  12.518
27594W        W99210   6.331  13.085   3.210
27595W        W99211  11.538  37.864  13.339
27596W        W99212  41.892   1.005   3.988
27597W        W99213   0.962  18.524  13.407
27598W        W99214  39.809  35.262  10.792
27599W        W99215  16.512   4.226   2.794
27600W        W99216  23.197  23.554  13.921
27601W        W99217   7.459   1.133   2.728
27602W        W99218   5.904  31.787  13.920
27603W        W99219  30.429  39.909  12.964
27604W        W99220   1.810  14.169   3.754
27605W        W99221  30.952  43.503  12.750
27606W        W99222   2.694  19.798  13.900
27607W        W99223  35.412  36.942  10.987
27608W        W99224  42.381  10.144  12.543
27609W        W99225  39.815  21.223  12.542
27610W        W99226  20.580  28.943   3.371
27611W        W99227   4.726   5.181  12.894
27612W        W99228  17.278  36.032   0.854
27613W        W99229   6.705  18.767   4.378
27614W        W99230  33.656   9.235   3.761
27615W        W99231  43.159  19.992   4.822
27616W        W99232  22.577   1.436  12.698
27617W        W99233  23.466  26.469   1.194
27618W        W99234   9.524  33.712   1.000
27619W        W99235  13.138   0.963   0.763
27620W        W99236  24.714   2.349  12.518
27621W        W99237  33.419  13.228  12.493
27622W        W99238  23.290  44.429   2.662
27623W        W99239   2.281  27.516   0.801
27624W        W99240  43.985   5.475  14.355
27625W        W99241  17.508  10.619   3.236
27626W        W99242  17.127  35.479   0.775
27627W        W99243  29.904   2.095  11.084
27628W        W99244  24.471  18.514   3.209
27629W        W99245  43.372  20.556  11.596
27630W        W99246  29.922  28.886   3.151
27631W        W99247  28.365  22.608   4.218
27632W        W99248  27.108  19.625   5.240
27633W        W99249   7.251  38.798  11.262
27634W        W99250  20.683  30.400  14.209
27635W        W99251  21.902  21.422  11.406
27636W        W99252  24.444   9.411  12.207
27637W        W99253  18.609  34.202  12.039
27638W        W99254  18.148  43.862  14.455
27639W        W99255  32.708  44.650   0.225
27640W        W99256  21.262   6.345   1.531
27641W        W99257  36.627  19.590  12.073
27642W        W99258   0.271  28.547  12.398
27643W        W99259  17.737   9.104   3.822
27644W        W99260   5.832  26.622   0.016
27645W        W99261  25.901   9.175  14.731
27646W        W99262  39.856  38.345  12.798
27647W        W99263  12.402  25.532  13.852
27648W        W99264   7.436   1.635   2.878
27649W        W99265  44.264  29.427  12.361
27650W        W99266  21.593   1.539   4.869
27651W        W99267  43.795  44.752   0.818
27652W        W99268  15.441  35.076   0.411
27653W        W99269  12.839   4.638   5.266
27654W        W99270  13.126  12.457  11.090
27655W        W99271  25.148  38.612  12.399
27656W        W99272  43.815  39.863  14.079
27657W        W99273  44.351  10.896  13.306
27658W        W99274  40.841  39.712  13.430
27659W        W99275   8.234  13.538   4.024
27660W        W99276  14.236  15.369  13.582
27661W        W99277  10.102  23.138   3.740
27662W        W99278  10.900  30.463  13.326
27663W        W99279  37.899  27.833   2.812
27664W        W99280  36.528  35.990  14.915
27665W        W99281   0.856  32.452   0.744
27666W        W99282  41.204  43.047  13.330
27667W        W99283  41.667   9.250   0.658
27668W        W99284   9.939  37.405  11.428
27669W        W99285  19.737   2.950   3.730
27670W        W99286   7.507   8.749  13.116
27671W        W99287   1.523  34.437  12.116
27672W        W99288  11.278  14.190  13.844
27673W        W99289  20.153   1.696   0.710
27674W        W99290  21.548  16.125   3.896
27675W        W99291  31.110  23.988  11.618
27676W        W99292  40.559   5.743  12.871
27677W        W99293  39.748  44.012   2.385
27678W        W99294  11.764  25.157  11.092
27679W        W99295  23.699   4.476  11.613
27680W        W99296  39.079  26.399   1.769
27681W        W99297  17.661  16.046   1.239
27682W        W99298   3.977   4.858  12.935
27683W        W99299   8.917   0.735   2.684
27684W        W99300  18.711  34.880  13.807
27685W        W99301   3.184  26.752   3.720
27686W        W99302  36.760  24.472   1.283
27687W        W99303  23.176  40.584   1.476
27688W        W99304  18.241  33.474   1.458
27689W        W99305  31.036   9.406  13.879
27690W        W99306  27.500  15.560  13.479
27691W        W99307  36.970  32.465  13.527
27692W        W99308   3.142  43.445  13.086
27693W        W99309   8.337  19.490  11.350
27694W        W99310  22.161  22.574   2.357
27695W        W99311  42.233   8.588   4.963
27696W        W99312   1.319  41.790  13.391
27697W        W99313   1.528  43.415  10.934
27698W        W99314  17.760  31.527   2.944
27699W        W99315  16.800  26.097  14.438
27700W        W99316  11.174  32.703  14.926
27701W        W99317  29.699  18.490  12.095
27702W        W99318  44.473  27.663   3.717
27703W        W99319  14.363  26.424   0.590
27704W        W99320  32.839  24.247   3.736
27705W        W99321  21.602  16.115  11.115
27706W        W99322   4.380  31.053  13.069
27707W        W99323  10.565  28.443  14.820
27708W        W99324  27.469   0.359  13.035
27709W        W99325   8.155   3.827   4.164
27710W        W99326  42.945  13.781  11.316
27711W        W99327  43.406  30.987   3.920
27712W        W99328  29.895  17.768   0.442
27713W        W99329  39.483  43.244  11.966
27714W        W99330  38.816   1.781  11.721
27715W        W99331   1.450  15.311   2.794
27716W        W99332   8.152  14.685   1.338
27717W        W99333  31.860  36.510   2.751
27718W        W99334  22.204  43.004   4.600
27719W        W99335  34.897  37.053   2.193
27720W        W99336   1.915  29.907   0.838
27721W        W99337  29.845  44.491  14.077
27722W        W99338  35.783   6.559   3.301
27723W        W99339  39.309   0.400  12.073
27724W        W99340   9.064  38.005   0.977
27725W        W99341  32.954  44.212   0.932
27726W        W99342  18.237  17.073  14.807
27727W        W99343  17.619  28.883  11.364
27728W        W99344  29.591  11.058   4.550
27729W        W99345  20.349  13.075   2.075
27730W        W99346  13.150  28.362   1.210
27731W        W99347   2.394  40.752  11.051
27732W        W99348  28.996  15.085   4.555
27733W        W99349   0.845  15.248  13.803
27734W        W99350  25.309  10.827   5.046
27735W        W99351  27.867  12.127  12.380
27736W        W99352  12.751  28.573   2.974
27737W        W99353   4.951  19.801   2.733
27738W        W99354  21.523  34.032  13.488
27739W        W99355  44.186  19.420   3.516
27740W        W99356   9.336  14.781   3.883
27741W        W99357  24.055  24.264   2.187
27742W        W99358  18.610  27.250  14.834
27743W        W99359  21.214   6.862  13.475
27744W        W99360  23.027   0.775  14.899
27745W        W99361  41.777  42.025   0.794
27746W        W99362  27.094  37.961   4.586
27747W        W99363  10.405  26.054  11.546
27748W        W99364  43.619   9.594   2.891
27749W        W99365  36.392  36.987   1.738
27750W        W99366  24.284  27.169  13.296
27751W        W99367   7.303  43.876   1.952
27752W        W99368  36.451  41.283   3.223
27753W        W99369  12.436  17.119  12.047
27754W        W99370  42.995   2.051  12.056
27755W        W99371  38.880   0.421   3.846
27756W        W99372  26.098  15.113   4.995
27757W        W99373  20.899   1.472  11.182
27758W        W99374  44.269  21.878   1.926
27759W        W99375   6.337  10.167   2.593
27760W        W99376  41.531   7.826  14.871
27761W        W99377   0.739   6.427   1.796
27762W        W99378   8.397   2.735   3.589
27763W        W99379  34.458  27.621   0.405
27764W        W99380   9.887  35.670  13.901
27765W        W99381   3.735  21.724  11.998
27766W        W99382  42.022  40.131   2.424
27767W        W99383  32.064  18.677   0.225
27768W        W99384  34.590  38.011  13.635
27769W        W99385   8.194  21.124   0.494
27770W        W99386  14.710  16.000   0.728
27771W        W99387  14.023  31.938   0.715
27772W        W99388  25.744  39.027  12.518
27773W        W99389   3.481  20.338  12.379
27774W        W99390  28.127  10.567   2.309
27775W        W99391   8.498  12.689   2.318
27776W        W99392  42.019  31.695   1.776
27777W        W99393  10.379  15.553  11.105
27778W        W99394  20.785  39.767  11.891
27779W        W99395  41.979  34.323  13.506
27780W        W99396   6.869  14.894   2.294
27781W        W99397  36.873  16.352   2.301
27782W        W99398  41.319  27.901   0.738
27783W        W99399  36.071  31.784   4.443
27784W        W99400  30.539  37.087   3.224
27785W        W99401  29.839  26.025  13.940
27786W        W99402  16.643  18.500   9.569
27787W        W99403  14.289  38.275   2.678
27788W        W99404  10.672  19.325   1.215
27789W        W99405  28.101   5.294  11.150
27790W        W99406  24.664  19.174   2.762
27791W        W99407  40.454   3.016   0.946
27792W        W99408  15.636  41.389  11.367
27793W        W99409   1.937   7.451   3.669
27794W        W99410   0.694  23.679  14.832
27795W        W99411  14.365  11.026  11.347
27796W        W99412  31.912  19.014  13.993
27797W        W99413   9.528  38.801   3.226
27798W        W99414  38.542  15.043   4.482
27799W        W99415   8.138  34.589  12.908
27800W        W99416   7.970  44.776   0.150
27801W        W99417  43.798  43.502  12.887
27802W        W99418  21.265  20.203   4.117
27803W        W99419   4.441  37.867   1.404
27804W        W99420  31.987  21.288  13.546
27805W        W99421  27.387  36.051   4.805
27806W        W99422  13.349  41.815   2.343
27807W        W99423  33.417  33.249  13.602
27808W        W99424  16.090  44.037   0.815
27809W        W99425  28.443  29.382   4.219
27810W        W99426   2.811  32.369   1.665
27811W        W99427  29.276  43.069   1.272
27812W        W99428  25.045  40.400  14.867
27813W        W99429  13.755  14.320  13.791
27814W        W99430  34.863  36.704   0.768
27815W        W99431  33.038  32.337  13.323
27816W        W99432  14.720  29.801  14.797
27817W        W99433  11.376  24.969  11.393
27818W        W99434   2.017  44.755  13.974
27819W        W99435  30.430  41.801   0.999
27820W        W99436  37.529  35.511   2.427
27821W        W99437  30.878  31.102  11.378
27822W        W99438  31.996  27.375  10.708
27823W        W99439  28.030   5.007   5.080
27824W        W99440  21.083   9.134   4.893
27825W        W99441  25.559  22.486   3.959
27826W        W99442  38.079  29.128   3.289
27827W        W99443  36.057   3.644   0.022
27828W        W99444  38.252  33.693  14.768
27829W        W99445  44.254  23.165   3.259
27830W        W99446  20.036   5.366  11.211
27831W        W99447  38.456  13.810  12.101
27832W        W99448  22.537  14.181  10.214
27833W        W99449  11.444  30.379   3.293
27834W        W99450  30.875   6.645   0.259
27835W        W99451  16.585  44.783   3.596
27836W        W99452  11.249  32.190  12.018
27837W        W99453   6.661  17.813   0.900
27838W        W99454  36.745   0.442  11.489
27839W        W99455  40.753  28.114  12.383
27840W        W99456  13.649  21.216   2.352
27841W        W99457   1.979  36.985  14.590
27842W        W99458  17.454  15.755   4.386
27843W        W99459   1.261  43.265   1.887
27844W        W99460  20.071  18.302   4.040
27845W        W99461  30.514  44.008   4.726
27846W        W99462  21.745  16.116   2.291
27847W        W99463  26.077   5.438   3.680
27848W        W99464  32.597  27.465  13.266
27849W        W99465  41.737   8.640  11.200
27850W        W99466  33.681   9.319  11.869
27851W        W99467  12.547   3.530  11.665
27852W        W99468  21.292  38.458  13.470
27853W        W99469  33.971  17.622   0.318
27854W        W99470   1.758  36.241  11.082
27855W        W99471  16.201   8.930  14.243
27856W        W99472  24.808  32.839  11.052
27857W        W99473  16.516  42.257  12.579
27858W        W99474   7.743   0.281   4.414
27859W        W99475   1.934  39.303  11.027
27860W        W99476  25.045  44.301  11.996
27861W        W99477  35.568  23.775  14.381
27862W        W99478  34.525  13.769  11.222
27863W        W99479  19.129  44.294   9.787
27864W        W99480  34.437   8.149  14.433
27865W        W99481  21.997   0.154   0.892
27866W        W99482  17.629  41.827   3.434
27867W        W99483  18.560  21.070   0.373
27868W        W99484  30.155  41.586  13.935
27869W        W99485   5.266  42.602   3.235
27870W        W99486  24.140  13.576  12.465
27871W        W99487  30.021  34.657   4.816
27872W        W99488  34.725   7.809  11.728
27873W        W99489  33.093  16.841  13.871
27874W        W99490  41.255   4.813  12.106
27875W        W99491  44.653  14.724  14.864
27876W        W99492  33.692  12.723  13.611
27877W        W99493  13.580  35.373  11.887
27878W        W99494   4.245   4.581  13.874
27879W        W99495  44.819   4.688  13.749
27880W        W99496  14.729  18.010   3.614
27881W        W99497   2.133  14.725  13.944
27882W        W99498  22.412  18.784  13.926
27883W        W99499  22.014  14.660   4.170
27884W        W99500  26.428   9.261  14.791
27885W        W99501  32.440  18.467   3.785
27886W        W99502  35.412  14.525   0.050
27887W        W99503  35.543  28.419  10.983
27888W        W99504  31.045  32.664   0.881
27889W        W99505  40.012  38.400   1.775
27890W        W99506  44.284   0.510  12.029
27891W        W99507  29.019  16.171   0.944
27892W        W99508  17.462  32.395   0.774
27893W        W99509  28.908   2.455  14.980
27894W        W99510  25.179  20.807  10.962
27895W        W99511   2.020  14.552  14.469
27896W        W99512  23.157  23.449  14.928
27897W        W99513  23.086  33.596  12.059
27898W        W99514   8.134  30.872   1.293
27899W        W99515  25.868  34.582  12.052
27900W        W99516   7.834  22.187   4.617
27901W        W99517  17.011  42.947   4.769
27902W        W99518  36.876  25.055  14.615
27903W        W99519  11.840  21.632   0.833
27904W        W99520   5.121  13.209  13.084
27905W        W99521  43.400  41.580   3.784
27906W        W99522   5.060   6.916  12.471
27907W        W99523  24.096  13.586   3.609
27908W        W99524   0.492   6.467   2.260
27909W        W99525  37.353  11.285  11.587
27910W        W99526   2.677  17.845  10.658
27911W        W99527  39.500   2.646   4.019
27912W        W99528   2.706  32.077  10.876
27913W        W99529  34.153  31.309   0.456
27914W        W99530  35.888   9.212  11.509
27915W        W99531  24.029  36.349   0.509
27916W        W99532   2.232   4.805  11.444
27917W        W99533  32.409   3.567   0.888
27918W        W99534  36.993  39.300  10.657
27919W        W99535  36.330  15.315   3.802
27920W        W99536  34.909  26.655  13.361
27921W        W99537  26.618  44.905  14.804
27922W        W99538  24.117   5.187   0.244
27923W        W99539  11.336  40.184   2.599
27924W        W99540  12.211  15.763   4.571
27925W        W99541  12.920  11.963  11.088
27926W        W99542  33.871  13.638  12.001
27927W        W99543  37.572  34.941   3.675
27928W        W99544  35.913  12.825   3.115
27929W        W99545  32.686   9.674   1.272
27930W        W99546  25.145  43.893   2.968
27931W        W99547  36.033  43.514  12.396
27932W        W99548  34.704  35.840   2.388
27933W        W99549  25.588   3.164  14.027
27934W        W99550  25.592   9.855   1.201
27935W        W99551   3.518   7.902   3.554
27936W        W99552   1.973  30.504  11.874
27937W        W99553  21.104  14.960  14.990
27938W        W99554  11.637   8.341  12.148
27939W        W99555   8.152  27.366   3.144
27940W        W99556  14.774  25.660  10.733
27941W        W99557   2.362  15.844  12.852
27942W        W99558  23.501  26.955   1.020
27943W        W99559   8.171  41.331  11.395
27944W        W99560  10.163  34.510   2.960
27945W        W99561  42.764  43.195  14.289
27946W        W99562   8.416  11.794   0.450
27947W        W99563  39.746   6.845   0.201
27948W        W99564  34.878   9.707   4.343
27949W        W99565   9.665  29.985  12.162
27950W        W99566  18.801  15.369  14.921
27951W        W99567  27.645  22.829  12.156
27952W        W99568   5.236  27.747  12.571
27953W        W99569  21.220   7.969   0.916
27954W        W99570  42.054   8.429   3.696
27955W        W99571  44.650  39.604  12.949
27956W        W99572  41.093   1.495   4.252
27957W        W99573  20.604  17.775   2.125
27958W        W99574  38.409  16.594   0.906
27959W        W99575  10.230  10.587   0.952
27960W        W99576   2.747  41.923  14.874
27961W        W99577  17.552  30.941  13.166
27962W        W99578  36.359  41.222   0.073
27963W        W99579  21.484  35.183  11.760
27964W        W99580   8.129  44.233   1.919
27965W        W99581  21.205  35.226   1.871
27966W        W99582  37.426  37.021  14.831
27967W        W99583  20.397  13.562  11.081
27968W        W99584  39.314  17.610   4.576
27969W        W99585   5.762  17.578   4.589
27970W        W99586  10.318  14.246  11.527
27971W        W99587   3.920  25.044   3.154
27972W        W99588  31.160   8.883   0.709
27973W        W99589  42.915  26.956  11.899
27974W        W99590  15.371  31.071  11.006
27975W        W99591  34.173  39.944  14.825
27976W        W99592  30.314   5.278   3.175
27977W        W99593  10.211  22.630   3.631
27978W        W99594  32.866  22.065   4.215
27979W        W99595  42.949  44.474   4.141
27980W        W99596  17.060  29.137   3.634
27981W        W99597  15.596  27.510  12.108
27982W        W99598  25.673  37.300   2.680
27983W        W99599  31.674   2.259   0.780
27984W        W99600  24.759   4.940  13.286
27985W        W99601  11.715  20.646  14.380
27986W        W99602  32.100  23.650   3.875
27987W        W99603  41.896  28.164  14.520
27988W        W99604  34.448   1.460   0.769
27989W        W99605  23.519  22.755  13.474
27990W        W99606  33.117  29.437   0.436
27991W        W99607  38.281   3.866  13.359
27992W        W99608  13.720   2.692   4.457
27993W        W99609  31.627  10.729   3.663
27994W        W99610   4.754   5.404  14.417
27995W        W99611   7.573   4.106  11.855
27996W        W99612   1.411  13.933  10.669
27997W        W99613  41.905  33.025   1.199
27998W        W99614  37.532   1.730   2.289
27999W        W99615  27.214  27.547   3.400
28000W        W99616   3.005  11.790  10.960
28001W        W99617  30.114  33.539   2.636
28002W        W99618  10.108  19.662   3.279
28003W        W99619   5.244  30.572  11.955
28004W        W99620   1.687  33.962   2.729
28005W        W99621   0.801  13.613  14.415
28006W        W99622   1.600  23.844  10.694
28007W        W99623  30.667  44.289  12.117
28008W        W99624  13.020  15.000   1.408
28009W        W99625   4.878  27.924  14.954
28010W        W99626  30.213   1.009   2.269
28011W        W99627  26.946   8.046   1.768
28012W        W99628  42.719  20.160   5.015
28013W        W99629   4.033  23.500   3.272
28014W        W99630  15.815  21.690   3.246
28015W        W99631  22.488  41.498  14.316
28016W        W99632  23.438  18.414  10.400
28017W        W99633   2.474  27.009  11.160
28018W        W99634   5.446   2.851  14.051
28019W        W99635  38.374  13.286   0.353
28020W        W99636   9.874  10.336  13.189
28021W        W99637  12.747  14.554   1.261
28022W        W99638  29.199  41.746  13.922
28023W        W99639  23.998  25.211  10.813
28024W        W99640   3.760  24.213   4.635
28025W        W99641  10.693  20.347  11.715
28026W        W99642  11.158  39.991  12.120
28027W        W99643  25.696  41.041   1.628
28028W        W99644  42.330   9.304   3.381
28029W        W99645  20.455  31.138   3.163
28030W        W99646  41.821   2.978   4.749
28031W        W99647   7.362  39.022   1.376
28032W        W99648  21.570  17.279  12.413
28033W        W99649   4.299  31.388  10.782
28034W        W99650   5.952  38.613   2.397
28035W        W99651  34.515  14.624  14.745
28036W        W99652  26.052  34.512  14.566
28037W        W99653  43.223   9.266   1.755
28038W        W99654  41.990  35.969  14.798
28039W        W99655  40.339  30.092  10.545
28040W        W99656  39.036   3.749   0.834
28041W        W99657  27.140  34.074  11.050
28042W        W99658  31.905  15.343  13.019
28043W        W99659  22.484  19.202  13.605
28044W        W99660  32.272  43.755   2.348
28045W        W99661   2.153  11.433  12.000
28046W        W99662  29.387  42.236  13.950
28047W        W99663   2.204  27.227   2.246
28048W        W99664  40.011  32.398  14.058
28049W        W99665  22.955  44.945   0.077
28050W        W99666  41.719   4.918   0.769
28051W        W99667  21.273  22.298  13.400
28052W        W99668   2.492  21.067  11.817
28053W        W99669  44.772   3.294   0.798
28054W        W99670  20.140  28.404  13.986
28055W        W99671  35.929  11.067   0.154
28056W        W99672  23.838  19.655  14.388
28057W        W99673  17.197  27.738  11.581
28058W        W99674  13.173  22.022  13.931
28059W        W99675  20.151   9.877  11.664
28060W        W99676  20.312   7.094   1.456
28061W        W99677  25.985   6.172   4.245
28062W        W99678  17.266  35.643  10.336
28063W        W99679  14.864  13.936  11.903
28064W        W99680  30.115   4.317   0.807
28065W        W99681  30.640  10.340   4.158
28066W        W99682  13.404  23.252  10.429
28067W        W99683  37.843  24.071   0.016
28068W        W99684  20.144  18.751  13.478
28069W        W99685  12.975  41.130   0.771
28070W        W99686  19.707  17.976  11.017
28071W        W99687  19.038  15.359   0.881
28072W        W99688  21.730  35.864   1.063
28073W        W99689  40.384  32.382  14.704
28074W        W99690  21.957  35.915  13.758
28075W        W99691  34.168  12.220   4.620
28076W        W99692  16.799  32.576  12.403
28077W        W99693  19.749  12.689   3.311
28078W        W99694  32.102  24.584  14.834
28079W        W99695  22.987  19.319  14.351
28080W        W99696  13.095  26.764  13.015
28081W        W99697  37.848  44.478   0.501
28082W        W99698  33.565  28.230  10.790
28083W        W99699   1.094  27.444   9.980
28084W        W99700  35.578  14.103   3.122
28085W        W99701   9.702  37.236   4.828
28086W        W99702   6.314  21.179  11.224
28087W        W99703  24.243  20.952  12.990
28088W        W99704  27.514  28.360  13.734
28089W        W99705  33.971   2.984  14.465
28090W        W99706  20.520   0.455   1.328
28091W        W99707  10.315  28.161  12.328
28092W        W99708  42.512   8.644   3.588
28093W        W99709  37.596  10.427   2.391
28094W        W99710  32.220  40.610  11.074
28095W        W99711   5.081  24.190   1.683
28096W        W99712  18.113   0.245  11.448
28097W        W99713  42.768  19.481  13.433
28098W        W99714  16.327  38.325   4.852
28099W        W99715  23.786   9.232   3.831
28100W        W99716  33.507  42.274  13.127
28101W        W99717  33.065   0.304  11.279
28102W        W99718  25.651  16.254  10.918
28103W        W99719   5.377   7.493   2.139
28104W        W99720  38.656  12.698  12.212
28105W        W99721   4.131  30.931  12.502
28106W        W99722  22.580  11.288  13.016
28107W        W99723  42.826  38.994  10.519
28108W        W99724  17.086  27.417   4.796
28109W        W99725  12.033  22.316   3.167
28110W        W99726   9.123  21.794   4.155
28111W        W99727  16.569  10.372  11.609
28112W        W99728  13.736  34.808   0.337
28113W        W99729  44.460  27.067  14.233
28114W        W99730  33.725  37.209  11.129
28115W        W99731  41.711  37.822  12.811
28116W        W99732  29.642   4.160   1.899
28117W        W99733   9.210  34.149  12.405
28118W        W99734   4.800  20.685   4.666
28119W        W99735  29.771  21.143   0.982
28120W        W99736  15.596  11.964   0.034
28121W        W99737  27.209  34.143   3.243
28122W        W99738   5.887  38.878  12.468
28123W        W99739  43.772  30.833  14.984
28124W        W99740   3.378   3.073  11.636
28125W        W99741  31.371  31.934   2.609
28126W        W99742  10.189  24.256  14.422
28127W        W99743  20.323  33.054  12.035
28128W        W99744  38.392  29.826   2.038
28129W        W99745  24.733  28.113   0.263
28130W        W99746   9.779  31.982   1.826
28131W        W99747  38.674  16.678  13.103
28132W        W99748  33.152  34.394  13.735
28133W        W99749  16.559  25.124   2.795
28134W        W99750  11.181  28.378   3.353
28135W        W99751  30.174   6.461  12.974
28136W        W99752  38.487  42.355   1.805
28137W        W99753  21.712  44.291  13.380
28138W        W99754  29.962  17.279   4.001
28139W        W99755  15.024  28.376  13.468
28140W        W99756  13.399  32.369  10.797
28141W        W99757  23.431  27.543  11.893
28142W        W99758  35.104   1.856   1.158
28143W        W99759  37.565  11.685  12.965
28144W        W99760  22.223   2.012  11.635
28145W        W99761  17.014  15.615   3.249
28146W        W99762  41.275  22.102   2.396
28147W        W99763   1.454  43.976  13.733
28148W        W99764  41.795  18.110   2.782
28149W        W99765  42.277  26.284  12.718
28150W        W99766  22.256  32.485   1.952
28151W        W99767  13.607  18.660   2.139
28152W        W99768   9.402  43.479   0.788
28153W        W99769  41.144  39.058  13.835
28154W        W99770  15.198  17.563  13.768
28155W        W99771  25.661   5.227   4.599
28156W        W99772   6.202   7.912  14.981
28157W        W99773  35.527  15.854  14.327
28158W        W99774  14.282  11.281   4.932
28159W        W99775  14.939   0.376  11.529
28160W        W99776  40.242  36.337   2.840
28161W        W99777  43.830  22.602   3.444
28162W        W99778  15.023   4.264   0.336
28163W        W99779  37.201  43.493  11.604
28164W        W99780   9.197  25.479   3.590
28165W        W99781  27.457  24.081  11.097
28166W        W99782  10.817   5.840   0.759
28167W        W99783  44.883   8.580  14.999
28168W        W99784  16.278  12.184  14.938
28169W        W99785  14.624  28.677   2.290
28170W        W99786  43.354  34.879  11.953
28171W        W99787  35.566   5.244  14.012
28172W        W99788   4.987  29.968  11.975
28173W        W99789  22.180  42.807  14.427
28174W        W99790   1.425   2.454   1.437
28175W        W99791  36.520   1.056   4.563
28176W        W99792   1.325  18.488  13.031
28177W        W99793   7.643  39.618   1.942
28178W        W99794  17.688   5.691  14.328
28179W        W99795  15.567  11.031   4.932
28180W        W99796  39.585  23.078  14.849
28181W        W99797  40.558   7.819  14.771
28182W        W99798  29.195   0.483  12.038
28183W        W99799  35.819   8.881   2.739
28184W        W99800  23.734   2.607   1.980
28185W        W99801   1.766  44.825   0.807
28186W        W99802  36.490   2.270  14.763
28187W        W99803  16.351   1.932  13.930
28188W        W99804   7.009  18.756   2.013
28189W        W99805   6.646  25.050   0.365
28190W        W99806   6.444   5.385  12.102
28191W        W99807  25.319  43.593   3.368
28192W        W99808  42.324  41.402  11.153
28193W        W99809   3.866   1.338   4.234
28194W        W99810  31.858  37.608   4.113
28195W        W99811  38.296   4.989   3.329
28196W        W99812  43.139  19.976  10.956
28197W        W99813  34.925  16.355  12.566
28198W        W99814  32.991   7.695   4.571
28199W        W99815  30.568  26.923   2.791
28200W        W99816  39.775  12.342  11.086
28201W        W99817  38.968  21.277  14.727
28202W        W99818  16.644  28.925  12.795
28203W        W99819  33.967  17.122   4.639
28204W        W99820  10.326  38.993   2.922
28205W        W99821  36.522  21.956  12.036
28206W        W99822  43.798  22.982   0.422
28207W        W99823  44.130  39.774  12.920
28208W        W99824  29.157  18.639  10.901
28209W        W99825   8.108  14.760   0.287
28210W        W99826  13.195  28.528   2.185
28211W        W99827  18.829   2.789  11.601
28212W        W99828  27.287  36.130  11.571
28213W        W99829  23.448  38.971   2.739
28214W        W99830  35.977  14.499   0.711
28215W        W99831  32.480  26.781  14.830
28216W        W99832  22.650   5.705  13.488
28217W        W99833   5.363  36.360   4.711
28218W        W99834   6.390  38.733  12.431
28219W        W99835   5.705   3.415   2.279
28220W        W99836  22.020  41.453  11.931
28221W        W99837  42.352  36.602  12.939
28222W        W99838  15.507  14.708  13.914
28223W        W99839  23.091   3.940  11.610
28224W        W99840   8.427  10.832  11.078
28225W        W99841  39.562  10.854  13.005
28226W        W99842  21.303   0.770   3.853
28227W        W99843  16.621  31.539  13.474
28228W        W99844  24.786  39.961   4.006
28229W        W99845  43.779  24.073   1.737
28230W        W99846  42.001   4.030  12.026
28231W        W99847  24.268  31.518  13.471
28232W        W99848  43.399  16.593  10.390
28233W        W99849  35.666   8.981   1.872
28234W        W99850  17.319  18.249   0.739
28235W        W99851   5.187   3.817  11.992
28236W        W99852  30.619  42.291   0.865
28237W        W99853  25.640  41.622   2.730
28238W        W99854  25.239  17.601   2.414
28239W        W99855  22.228   0.533  13.016
28240W        W99856  30.194  37.061   1.513
28241W        W99857  12.209  39.370  11.725
28242W        W99858  20.053  40.409  12.865
28243W        W99859  39.311  23.270  11.115
28244W        W99860  13.223  14.941   0.824
28245W        W99861  24.433  17.348  10.599
28246W        W99862  44.591  17.863   4.576
28247W        W99863  25.541  34.531   1.630
28248W        W99864  35.495   3.003   1.522
28249W        W99865  34.407  32.696  14.438
28250W        W99866  27.562  34.753   4.777
28251W        W99867   1.307  31.409   1.317
28252W        W99868  20.027  35.806  12.054
28253W        W99869  25.511  17.160  10.666
28254W        W99870  30.675   3.923   4.137
28255W        W99871  21.967  36.354  11.503
28256W        W99872   1.764  41.087  13.483
28257W        W99873   3.472   4.950  12.846
28258W        W99874  24.920  34.912   0.539
28259W        W99875  33.514  19.903  13.973
28260W        W99876  10.127  38.514  14.492
28261W        W99877  42.895  27.445  14.411
28262W        W99878  26.101  23.230   2.687
28263W        W99879  10.319  15.258   1.048
28264W        W99880   8.806   7.764  12.944
28265W        W99881  26.887  27.126  11.059
28266W        W99882  10.936  29.041   2.560
28267W        W99883  26.255   7.498   4.735
28268W        W99884  12.348  38.524   3.314
28269W        W99885  13.794  39.041  13.836
28270W        W99886  12.139   6.987   4.525
28271W        W99887  10.387  41.806   4.201
28272W        W99888  32.838   1.577  12.020
28273W        W99889  31.062  26.978  10.457
28274W        W99890  29.087  29.409   3.782
28275W        W99891  43.082  40.814  10.988
28276W        W99892   9.595  17.745  11.165
28277W        W99893  40.338   9.683   4.630
28278W        W99894  11.446   3.749   3.736
28279W        W99895  43.006  16.559   1.718
28280W        W99896  31.129  33.640   3.735
28281W        W99897  14.656  15.690  10.221
28282W        W99898   1.726  31.031  13.078
28283W        W99899  37.802  21.280  13.398
28284W        W99900  34.926  28.535   2.419
28285W        W99901   5.093   9.122   3.324
28286W        W99902  10.836  12.586  13.891
28287W        W99903  33.578  20.630   3.371
28288W        W99904  13.647  16.127   5.398
28289W        W99905   5.525  40.407  11.594
28290W        W99906   2.767  25.395   2.151
28291W        W99907  18.735  13.177  11.113
28292W        W99908   5.541  15.144   3.177
28293W        W99909  35.813  44.688  13.376
28294W        W99910  41.445  19.471  12.838
28295W        W99911   1.289   9.943  10.455
28296W        W99912  43.433  10.143  12.036
28297W        W99913  24.397   9.319  14.845
28298W        W99914  19.638  38.559   2.107
28299W        W99915  34.517  34.338  13.595
28300W        W99916  44.689  22.552  12.107
28301W        W99917  42.711  13.225  13.982
28302W        W99918   4.056  24.775   5.480
28303W        W99919   2.669  27.138   2.029
28304W        W99920   6.433   3.384   0.732
28305W        W99921   4.493   0.187  11.515
28306W        W99922  24.790  41.731   4.144
28307W        W99923  30.564  24.962   0.868
28308W        W99924  36.328  29.586  12.988
28309W        W99925   3.755  19.714   3.927
28310W        W99926   6.351  10.929   2.902
28311W        W99927  40.616  28.361  14.650
28312W        W99928  28.187  16.247   4.558
28313W        W99929   6.382  38.977   3.584
28314W        W99930  18.021  20.323  12.204
28315W        W99931   9.397  38.090   0.004
28316W        W99932   9.118   1.990  10.474
28317W        W99933  42.601  27.344  13.587
28318W        W99934  12.322  25.161   2.267
28319W        W99935  20.213  35.456  11.143
28320W        W99936  18.753  40.449   3.206
28321W        W99937  31.530  13.839  11.589
28322W        W99938  22.673  36.633  14.820
28323W        W99939  25.659  35.057  13.954
28324W        W99940  21.344  20.112   0.195
28325W        W99941  32.557  41.278   3.133
28326W        W99942  36.180  31.581   2.202
28327W        W99943  31.193  19.807   4.562
28328W        W99944  42.374  43.249   0.844
28329W        W99945  22.821  21.957   1.392
28330W        W99946  39.527  44.016  10.680
28331W        W99947  29.261  41.642  12.120
28332W        W99948  17.288  40.611   1.916
28333W        W99949  23.765  25.866  12.525
28334W        W99950   4.313  16.702  10.695
28335W        W99951  39.829  11.341   4.247
28336W        W99952  33.321  27.167   1.781
28337W        W99953  42.318  20.878   4.129
28338W        W99954  27.190  22.695  12.417
28339W        W99955  34.640  16.702  11.361
28340W        W99956   2.647  43.025   2.758
28341W        W99957  26.643  19.598  10.855
28342W        W99958  25.495  19.111   4.622
28343W        W99959  36.291   4.429   2.611
28344W        W99960  36.153  29.974  14.596
28345W        W99961  25.417  40.502  12.372
28346W        W99962   2.795   5.587  10.761
28347W        W99963   8.530   6.903  12.395
28348W        W99964  32.688   5.322   4.432
28349W        W99965   1.359   8.284   0.822
28350W        W99966  25.227  40.807   2.703
28351W        W99967  15.686   2.696   1.498
28352W        W99968  18.358  36.965   1.784
28353W        W99969  30.096   1.754  12.063
28354W        W99970  42.021   5.292  12.182
28355W        W99971  15.073   1.033  11.114
28356W        W99972  12.548  27.691   3.749
28357W        W99973  10.080   8.889  13.580
28358W        W99974  21.162  30.333  10.601
28359W        W99975   1.706  16.722   2.012
28360W        W99976   8.207  18.209  10.453
28361W        W99977   4.401  22.521   9.815
28362W        W99978   6.316  44.863   1.245
28363W        W99979  43.912   2.935  12.246
28364W        W99980  12.763  13.665  11.698
28365W        W99981  11.708   3.465   3.383
28366W        W99982  20.270  32.539   1.957
28367W        W99983  14.199  23.306   0.949
28368W        W99984  10.034  14.416   4.607
28369W        W99985  10.623   5.393  10.689
28370W        W99986   8.672   6.933  13.410
28371W        W99987  12.702   7.008  11.723
28372W        W99988  33.785  33.660   0.979
28373W        W99989  17.702   0.273   0.898
28374W        W99990  28.056  37.290   0.945
28375W        W99991  18.855   8.643  13.362
28376W        W99992  35.432  40.019   2.709
28377W        W99993   5.196   6.703   3.757
28378W        W99994  28.477  30.516   3.781
28379W        W99995  17.886   4.013   0.924
28380W        W99996  32.493  16.492  11.997
28381W        W99997   0.041  24.677   4.502
28382W        W99998   2.792   1.382   0.515
28383W        W99999  41.734  41.979  11.716
28384W        W    0   8.875  28.008   2.925
28385W        W    1  18.837   0.632   4.064
28386W        W    2  25.064  30.750  12.926
28387W        W    3   6.310  31.656  10.520
28388W        W    4  44.320   9.890   3.637
28389W        W    5  15.575  18.038  11.059
28390W        W    6   6.100   7.922  10.574
28391W        W    7  15.805   0.391   0.845
28392W        W    8   2.535  10.945  11.123
28393W        W    9  35.870  27.553  12.921
28394W        W   10   1.400  31.865  11.089
28395W        W   11  37.060  10.931   0.443
28396W        W   12   1.498  36.318   0.071
28397W        W   13  17.171  34.106   1.339
28398W        W   14  31.573  19.428   3.292
28399W        W   15  20.809   1.460  13.445
28400W        W   16  14.677  44.747  11.153
28401W        W   17  39.805  19.088  14.950
28402W        W   18  14.183   3.210  11.849
28403W        W   19   7.359   0.915   4.919
28404W        W   20  28.152  28.535   3.202
28405W        W   21  21.462  16.574   3.648
28406W        W   22   5.502   5.522   0.934
28407W        W   23  24.263  38.916   4.453
28408W        W   24  28.672  15.580  10.165
28409W        W   25  37.868  37.831   0.798
28410W        W   26  35.128   6.344  14.363
28411W        W   27  19.756  19.792  14.100
28412W        W   28  33.820   9.762   0.473
28413W        W   29   3.265   1.829  10.977
28414W        W   30  34.344   4.366  12.687
28415W        W   31  34.542   7.351  12.463
28416W        W   32   3.810   9.331   2.894
28417W        W   33  36.268   0.237  14.803
28418W        W   34  18.806  44.051  11.963
28419W        W   35  39.177   7.947   2.535
28420W        W   36   1.949  17.172   2.129
28421W        W   37  14.665  28.157   4.050
28422W        W   38  23.094  19.490   2.369
28423W        W   39  44.257   2.837   1.281
28424W        W   40  35.530  33.979  10.775
28425W        W   41  37.873  17.163  10.182
28426W        W   42  41.936  26.593  14.542
28427W        W   43  26.627  44.574   1.399
28428W        W   44  41.326   1.318   3.325
28429W        W   45  24.102  24.101   3.134
28430W        W   46  27.105  30.427   4.687
28431W        W   47  30.052  20.974   2.377
28432W        W   48  17.859  21.589  11.783
28433W        W   49  42.253  32.506  10.730
28434W        W   50  19.654  30.573   0.844
28435W        W   51  41.339  33.886  13.172
28436W        W   52  21.689   1.420  10.712
28437W        W   53  18.111  41.619   1.304
28438W        W   54  40.785  37.700  14.042
28439W        W   55  21.041   0.998  10.570
28440W        W   56   7.617   0.953   0.335
28441W        W   57  24.275  14.377   9.863
28442W        W   58  30.190  43.453  12.172
28443W        W   59  36.902  20.816  13.943
28444W        W   60   6.353  31.003   2.449
28445W        W   61   1.135  12.080  14.504
28446W        W   62  21.654  28.968   3.273
28447W        W   63  15.673  13.312  14.269
28448W        W   64  36.480  25.217   1.054
28449W        W   65  28.026  34.829   0.983
28450W        W   66  18.211   3.607   4.058
28451W        W   67  18.187  22.042  14.317
28452W        W   68   1.544   1.620   5.040
28453W        W   69  41.789  43.476   2.462
28454W        W   70  30.763   4.810   4.938
28455W        W   71  16.157  42.280   4.975
28456W        W   72  14.638  23.995   3.862
28457W        W   73  21.068  41.055   3.752
28458W        W   74  16.618   4.932  11.941
28459W        W   75  41.339  18.276  12.518
28460W        W   76  18.693   3.508  13.524
28461W        W   77  37.414  38.407   2.628
28462W        W   78   6.328  44.701  12.952
28463W        W   79  19.074  24.663   2.701
28464W        W   80   1.972  25.139  10.329
28465W        W   81   9.285   3.972   4.496
28466W        W   82   9.880  26.676   1.121
28467W        W   83   7.919  40.354   4.146
28468W        W   84  12.259   9.109  10.780
28469W        W   85   2.719  10.230  11.976
28470W        W   86  19.710   3.815   0.352
28471W        W   87   4.794  12.183   2.933
28472W        W   88   4.739  41.326   1.472
28473W        W   89  28.086  40.787   4.633
28474W        W   90  10.909  11.598  11.105
28475W        W   91  15.758  21.050   0.505
28476W        W   92  14.182  13.561  14.319
28477W        W   93   7.592  19.344   3.637
28478W        W   94  34.569  40.248  13.841
28479W        W   95  30.033  19.662  14.903
28480W        W   96   2.290  19.964   0.307
28481W        W   97  32.590   8.907  13.091
28482W        W   98  10.752  26.979   0.483
28483W        W   99  21.544  40.992   2.299
28484W        W  100  29.500   5.708  14.043
28485W        W  101  21.963  40.550   3.646
28486W        W  102  24.697  16.314   0.560
28487W        W  103  42.907  11.927  14.284
28488W        W  104  40.950  28.444   0.340
28489W        W  105  20.409  16.840   3.641
28490W        W  106  29.196   2.080   3.805
28491W        W  107  22.764  37.506  13.725
28492W        W  108  17.242  28.391   4.072
28493W        W  109  16.992  13.141   4.114
28494W        W  110  42.295  44.406   0.413
28495W        W  111   7.486  42.711  12.064
28496W        W  112   1.363  40.455  10.690
28497W        W  113  38.651   8.068   5.091
28498W        W  114  27.569  38.584   0.718
28499W        W  115  20.974  33.883  11.618
28500W        W  116  24.604  27.502  13.606
28501W        W  117   1.946  43.753   2.753
28502W        W  118  34.616  15.270  13.023
28503W        W  119  31.664  17.167  13.077
28504W        W  120  33.398  12.850   0.728
28505W        W  121  41.044  34.176  11.641
28506W        W  122  19.316  35.985   2.249
28507W        W  123  34.051  25.457   0.273
28508W        W  124  41.727  34.418   1.707
28509W        W  125  43.842  26.948  13.417
28510W        W  126  36.355  39.501   2.765
28511W        W  127  17.630  17.489  10.491
28512W        W  128   9.511  14.873   0.104
28513W        W  129  40.849  34.053  11.178
28514W        W  130  29.733  12.140  13.474
28515W        W  131  34.954  21.671  14.832
28516W        W  132  15.055  16.660  12.383
28517W        W  133  29.103  44.787  10.756
28518W        W  134  12.679  42.936   1.732
28519W        W  135  28.693  26.926  10.618
28520W        W  136   6.259  29.758  11.359
28521W        W  137  36.455  34.588   1.699
28522W        W  138  42.070  20.564  14.078
28523W        W  139  12.056  28.663  14.895
28524W        W  140  31.776  20.634  12.508
28525W        W  141  33.990  12.376  13.196
28526W        W  142   7.129  26.889  13.865
28527W        W  143   6.279   3.995   2.696
28528W        W  144   1.271   2.991  12.092
28529W        W  145  42.708   2.349  11.128
28530W        W  146  36.385  36.649  13.518
28531W        W  147  11.635  30.143  10.980
28532W        W  148  44.934  18.351  10.762
28533W        W  149  33.069  38.799  14.481
28534W        W  150  13.883   8.371  14.337
28535W        W  151  14.468  35.031   0.061
28536W        W  152  31.082  19.711  12.153
28537W        W  153  38.626  17.427   4.009
28538W        W  154  11.666  29.057   4.083
28539W        W  155  29.322  11.084  11.206
28540W        W  156   6.939  18.303   0.761
28541W        W  157  40.973  40.838   3.631
28542W        W  158   5.192  29.597  10.406
28543W        W  159  35.108  39.359  12.868
28544W        W  160  38.442   3.010   1.778
28545W        W  161   2.992  44.532  11.213
28546W        W  162  38.389  35.479   0.868
28547W        W  163  29.045  10.832   3.286
28548W        W  164  12.659  24.766   2.232
28549W        W  165   8.433  44.936  14.955
28550W        W  166   5.295   5.417  11.559
28551W        W  167  13.660  32.482  12.281
28552W        W  168  10.120  25.233   0.918
28553W        W  169  43.220  32.082  13.932
28554W        W  170  39.248  28.109  12.553
28555W        W  171  16.911  34.999   0.497
28556W        W  172  13.656  32.926   2.174
28557W        W  173  27.032   8.601   0.382
28558W        W  174  41.884   4.266  14.221
28559W        W  175  10.899  11.616  12.925
28560W        W  176  42.887   7.650   2.234
28561W        W  177   7.815   8.191  12.819
28562W        W  178  41.424  32.310   2.017
28563W        W  179  44.468   5.141   3.726
28564W        W  180  14.487   0.831   1.741
28565W        W  181  32.401   9.486   1.708
28566W        W  182  17.176   1.164   1.591
28567W        W  183  13.261  18.251   4.631
28568W        W  184  14.725  21.844  12.861
28569W        W  185  23.400  10.697  11.694
28570W        W  186   7.717  34.881   1.477
28571W        W  187  14.196  28.664  11.264
28572W        W  188  34.072  36.975  10.424
28573W        W  189  33.946  30.075   1.072
28574W        W  190  32.606  22.086  12.543
28575W        W  191   0.213  25.940  10.964
28576W        W  192  40.924  17.084  12.891
28577W        W  193  34.765  36.100   0.457
28578W        W  194  18.626  43.115  10.368
28579W        W  195  39.916  22.194  12.502
28580W        W  196   7.058  33.990  13.350
28581W        W  197  33.492  24.185  13.497
28582W        W  198  43.701  30.189   3.080
28583W        W  199  33.548  20.483  12.963
28584W        W  200  26.176  29.426   1.279
28585W        W  201   4.047  32.163  11.608
28586W        W  202  24.196  39.399  13.464
28587W        W  203   6.626   3.277  14.325
28588W        W  204  11.187  27.125   4.670
28589W        W  205  24.034  20.087  13.652
28590W        W  206  28.058  19.203  12.529
28591W        W  207  19.695  19.583   4.662
28592W        W  208  36.715  21.969  12.952
28593W        W  209   5.904  41.959   3.691
28594W        W  210  12.312  28.694  12.381
28595W        W  211  14.133  19.327   2.437
28596W        W  212  11.193  20.093   2.693
28597W        W  213  16.513  15.291  13.682
28598W        W  214  38.157  24.653   1.045
28599W        W  215  23.238   3.909   4.352
28600W        W  216  38.441  41.952   3.001
28601W        W  217  28.400  36.329  13.283
28602W        W  218   8.915  17.713  10.499
28603W        W  219   3.209  36.548   4.078
28604W        W  220   7.705  13.150   2.397
28605W        W  221   8.498  24.052  13.773
28606W        W  222  12.618  13.019   1.424
28607W        W  223  24.787  41.631  12.567
28608W        W  224  37.305  31.725   4.512
28609W        W  225  42.485  10.201  10.795
28610W        W  226  23.579  25.997   1.476
28611W        W  227   2.284   6.861  14.359
28612W        W  228  22.678   8.106  12.195
28613W        W  229   0.758  10.869   1.939
28614W        W  230   0.239  36.379  14.786
28615W        W  231  27.436   2.066  14.024
28616W        W  232  20.303  11.413   1.411
28617W        W  233  41.364   0.454  14.545
28618W        W  234  23.999   5.405   0.695
28619W        W  235  40.666  35.457  11.200
28620W        W  236  37.421  12.212   4.115
28621W        W  237  43.724  15.906   1.471
28622W        W  238  23.696  40.403   0.347
28623W        W  239  33.913   0.399  13.519
28624W        W  240  30.419  11.359  11.486
28625W        W  241   9.412  29.184  12.527
28626W        W  242   7.721  28.364  14.379
28627W        W  243  40.579  31.841   1.350
28628W        W  244  42.439  30.704   2.190
28629W        W  245  15.391  13.890   3.753
28630W        W  246   5.584  36.415  14.426
28631W        W  247  18.169  31.412   2.291
28632W        W  248  24.956  43.589  10.998
28633W        W  249  41.125  42.402   3.804
28634W        W  250  11.902   8.162   1.344
28635W        W  251  20.495  17.602  14.439
28636W        W  252  15.950  38.263  14.859
28637W        W  253  22.560  22.148   0.961
28638W        W  254  16.046  44.045  12.557
28639W        W  255  42.868  20.551   1.280
28640W        W  256  34.080   7.354   0.679
28641W        W  257   5.602   3.357   3.727
28642W        W  258  28.279   5.870  10.451
28643W        W  259  31.930  32.373   2.622
28644W        W  260  43.518  36.819  14.022
28645W        W  261  34.607  43.276   1.362
28646W        W  262   5.850  31.166   1.233
28647W        W  263  32.054   9.686  13.611
28648W        W  264  15.177   9.140   1.406
28649W        W  265  42.510  14.674   0.217
28650W        W  266  41.294  32.684   2.539
28651W        W  267  34.369  27.086   3.788
28652W        W  268   1.251  23.476   5.124
28653W        W  269  31.340  19.103   0.279
28654W        W  270   9.339  36.350  13.438
28655W        W  271  33.537  10.197   1.757
28656W        W  272  33.186   0.503  12.813
28657W        W  273  26.624  41.016   4.721
28658W        W  274   3.222  31.253  11.139
28659W        W  275  17.202  21.039   0.186
28660W        W  276  17.098   2.909   3.791
28661W        W  277  19.245   4.134  14.007
28662W        W  278  42.989  22.729   1.758
28663W        W  279  17.406  22.248   3.555
28664W        W  280  38.350  12.351  14.541
28665W        W  281  21.088   5.804   2.412
28666W        W  282  43.782   1.241   2.203
28667W        W  283  32.189  32.867   3.700
28668W        W  284  36.651   8.488  11.539
28669W        W  285  27.958   9.642   2.382
28670W        W  286  15.573  44.672   1.391
28671W        W  287  44.069  13.569   0.248
28672W        W  288  17.485  39.903  11.247
28673W        W  289  12.189  18.738   1.823
28674W        W  290  24.996  38.077   3.683
28675W        W  291  25.704  40.608   2.602
28676W        W  292  27.603   3.953  13.475
28677W        W  293   3.857  23.200   1.294
28678W        W  294  22.778  23.639  11.466
28679W        W  295  32.584  38.800   2.778
28680W        W  296  43.686  17.732   0.809
28681W        W  297  33.610  34.171  13.539
28682W        W  298   1.747  30.893  12.141
28683W        W  299  37.413  31.952  10.763
28684W        W  300  29.452  43.570   4.242
28685W        W  301   9.656  15.817  10.695
28686W        W  302  40.150  42.279   2.345
28687W        W  303   5.405   7.990   2.227
28688W        W  304  15.748  40.965   0.475
28689W        W  305  39.019   0.474   2.141
28690W        W  306  21.140  42.494   4.564
28691W        W  307  38.460  41.734  12.092
28692W        W  308  24.957  19.799  13.390
28693W        W  309  15.647  13.284  14.805
28694W        W  310  41.462   3.492  13.169
28695W        W  311  19.512  10.106   0.807
28696W        W  312   7.737  14.499  14.983
28697W        W  313  37.447  41.594  13.587
28698W        W  314  35.136   3.369   5.113
28699W        W  315  39.093  35.515  13.484
28700W        W  316  40.288   1.351  14.312
28701W        W  317  17.489  10.176   2.234
28702W        W  318  17.674  21.326  14.504
28703W        W  319  25.665  40.007   0.502
28704W        W  320   6.147  26.361  12.731
28705W        W  321  29.874  21.456  10.660
28706W        W  322  41.626  19.819   0.747
28707W        W  323  30.385  44.437  11.224
28708W        W  324  26.170  12.617  11.641
28709W        W  325  27.602   5.368  11.211
28710W        W  326  39.019  28.101   0.486
28711W        W  327  37.865  14.552   3.718
28712W        W  328   2.781  10.302   2.875
28713W        W  329  14.753   6.850  12.745
28714W        W  330   9.362  23.011   4.151
28715W        W  331   8.208  19.644  14.768
28716W        W  332  13.148  10.123   2.272
28717W        W  333  22.154  37.428   1.038
28718W        W  334  24.673  28.555   4.305
28719W        W  335   4.533  18.567   1.902
28720W        W  336  18.842  14.614  14.439
28721W        W  337  32.529  25.643   4.853
28722W        W  338   0.997  38.479   3.192
28723W        W  339  15.055  39.032  11.607
28724W        W  340  43.106  22.988   2.189
28725W        W  341  14.703  28.538  12.126
28726W        W  342   5.660  23.147  12.840
28727W        W  343  24.705  31.534  14.455
28728W        W  344   2.162  13.597  13.473
28729W        W  345  25.279  18.796  11.856
28730W        W  346  16.103  30.431  14.127
28731W        W  347   3.801  40.061  12.845
28732W        W  348  14.013  38.020  13.502
28733W        W  349   9.344  26.904  14.275
28734W        W  350  25.656  16.049   2.914
28735W        W  351  37.796  20.269  14.760
28736W        W  352  43.434  22.610  13.350
28737W        W  353  20.757   0.930   1.288
28738W        W  354  25.208   6.172   2.237
28739W        W  355   6.235   0.833  12.346
28740W        W  356  41.058  22.983   2.783
28741W        W  357  25.124  27.054   4.603
28742W        W  358  32.835  12.401  10.672
28743W        W  359  22.091  13.304   1.223
28744W        W  360  42.864  43.480   4.067
28745W        W  361  12.235  15.566  12.490
28746W        W  362  44.834  26.592   0.297
28747W        W  363   8.294  24.597   3.346
28748W        W  364  44.229  32.912  13.145
28749W        W  365  13.185  32.898  13.980
28750W        W  366  32.372  30.088   1.847
28751W        W  367   3.175  16.698  14.444
28752W        W  368  29.125  28.643   3.372
28753W        W  369   3.531  10.393   2.270
28754W        W  370  34.310  41.044   2.145
28755W        W  371   5.873   1.352   4.760
28756W        W  372  22.035  33.534   3.696
28757W        W  373  22.824  39.039  12.554
28758W        W  374  11.657  28.387   1.317
28759W        W  375   3.611  39.027   4.214
28760W        W  376  33.513  33.455   0.241
28761W        W  377  26.077  10.098  14.693
28762W        W  378  36.824  14.777   0.415
28763W        W  379  24.963   1.417  10.857
28764W        W  380  34.073  38.794   1.938
28765W        W  381  26.738   2.806   1.210
28766W        W  382  29.836  21.962  12.939
28767W        W  383   8.148  13.253   2.145
28768W        W  384   9.866  31.526   1.217
28769W        W  385  15.522  19.260   1.508
28770W        W  386  11.675  21.762  10.935
28771W        W  387  21.230  42.225   2.304
28772W        W  388  35.868  33.374  11.724
28773W        W  389  21.919  39.864   4.269
28774W        W  390  38.521  39.446   4.604
28775W        W  391   4.744  16.030  11.226
28776W        W  392  15.758   8.249  14.963
28777W        W  393  36.843  22.757  13.173
28778W        W  394  32.744  40.810   3.262
28779W        W  395  16.217  18.834   2.165
28780W        W  396   6.235  27.616   3.182
28781W        W  397  39.526  29.563   3.611
28782W        W  398  19.814  14.874   1.325
28783W        W  399  22.107  24.210  13.620
28784W        W  400   7.414  14.668   3.171
28785W        W  401  42.299  33.028   4.563
28786W        W  402   6.365  23.086  11.341
28787W        W  403  38.299  32.373  13.676
28788W        W  404   9.426  38.483  13.000
28789W        W  405  11.296  35.520  11.596
28790W        W  406  44.545   9.786   0.043
28791W        W  407  44.082  35.047   4.051
28792W        W  408  25.081   8.200   0.184
28793W        W  409  34.617   5.007  13.802
28794W        W  410  24.922  44.810   0.431
28795W        W  411   8.879  33.696   4.031
28796W        W  412   7.004   6.566   1.960
28797W        W  413  25.723  15.768  14.561
28798W        W  414  37.566   9.653  14.450
28799W        W  415  21.223  23.261  14.888
28800W        W  416  43.548  16.692   1.695
28801W        W  417   6.817  39.273   0.278
28802W        W  418  13.328  16.538  10.049
28803W        W  419  42.554  25.532   2.627
28804W        W  420  38.261   5.852  13.587
28805W        W  421  29.882  11.011  12.927
28806W        W  422  32.229  22.482   3.391
28807W        W  423  31.604  27.481  11.412
28808W        W  424  35.859   2.277   2.251
28809W        W  425  37.035  38.920  11.961
28810W        W  426   8.659  27.169  11.990
28811W        W  427  37.552  13.210   4.560
28812W        W  428   4.935   7.623  14.884
28813W        W  429  33.146  17.703   1.829
28814W        W  430  12.086  22.323   2.354
28815W        W  431   9.219  14.544   0.814
28816W        W  432  41.477  28.250   1.940
28817W        W  433  32.952  17.878  11.469
28818W        W  434  28.564   6.844   1.880
28819W        W  435  13.679  11.634  12.435
28820W        W  436   3.961   3.480   4.863
28821W        W  437  28.436  13.327   4.182
28822W        W  438   0.693   4.272  14.293
28823W        W  439  36.087  30.028   1.266
28824W        W  440   3.582  21.015   2.248
28825W        W  441  35.121  15.814  11.081
28826W        W  442  37.402  38.344   2.109
28827W        W  443  13.857  17.140   5.196
28828W        W  444   9.234  11.842   1.775
28829W        W  445  15.675  28.459   1.696
28830W        W  446  14.102  18.803   2.296
28831W        W  447  27.541  17.764  13.825
28832W        W  448  42.910  36.569   1.823
28833W        W  449   0.515  31.413  10.741
28834W        W  450  26.134  20.592   3.576
28835W        W  451  37.080   7.393   2.842
28836W        W  452   3.252   7.658  14.262
28837W        W  453  35.930  43.118   2.113
28838W        W  454  14.446  38.915   1.875
28839W        W  455  11.263   2.541  12.411
28840W        W  456  27.099   7.147   0.180
28841W        W  457  20.003  23.812   0.474
28842W        W  458  44.846  18.088   4.189
28843W        W  459  35.193  16.335  14.943
28844W        W  460   3.949  10.285  12.471
28845W        W  461  19.747  22.197  12.344
28846W        W  462  41.463   7.826   4.206
28847W        W  463   2.357  43.820   4.176
28848W        W  464  24.060  29.127  13.840
28849W        W  465   1.614   2.241  14.224
28850W        W  466  35.727  16.111   1.682
28851W        W  467   6.586  20.441  11.450
28852W        W  468   1.261  26.741   1.414
28853W        W  469  34.405  34.873  13.532
28854W        W  470  19.255  38.831   1.912
28855W        W  471  37.010   4.215  11.217
28856W        W  472   1.089   2.418   5.085
28857W        W  473  23.903   8.323   3.305
28858W        W  474  11.224   2.238  11.905
28859W        W  475  31.740  31.247   5.473
28860W        W  476  33.477  18.712   2.092
28861W        W  477  35.596  34.646   3.838
28862W        W  478  11.179  20.686  10.614
28863W        W  479  44.011  42.283  13.416
28864W        W  480   8.436  16.669   4.430
28865W        W  481  13.663  35.435   1.034
28866W        W  482  23.171  39.407  10.886
28867W        W  483   5.854  43.913  11.894
28868W        W  484  43.259   1.668  13.146
28869W        W  485   4.738   5.731  10.742
28870W        W  486  40.996  35.818  13.437
28871W        W  487  10.011   7.687  14.839
28872W        W  488  13.811   1.551   2.875
28873W        W  489  42.273  22.204   2.819
28874W        W  490   2.805   4.638   0.198
28875W        W  491  35.432  21.330   0.349
28876W        W  492  24.806  36.071  11.821
28877W        W  493  44.836  19.839  10.771
28878W        W  494  13.433  21.748   0.754
28879W        W  495  15.244  30.960  12.899
28880W        W  496   2.876  14.765   4.379
28881W        W  497  40.827  26.735   2.330
28882W        W  498  21.538  16.650  13.059
28883W        W  499   8.658  34.898  13.423
28884W        W  500  14.771  33.556  14.353
28885W        W  501  36.525  33.428   2.932
28886W        W  502  20.118  15.975   0.144
28887W        W  503  16.796  32.157   4.273
28888W        W  504  30.025  20.820  13.560
28889W        W  505   3.311   7.432   1.414
28890W        W  506  37.799  18.360   1.261
28891W        W  507  41.214  41.248   4.461
28892W        W  508  11.081  43.991  13.469
28893W        W  509  43.064  23.943   2.414
28894W        W  510  41.660   5.751   2.389
28895W        W  511  10.709   2.407  11.973
28896W        W  512  38.634  33.386   1.507
28897W        W  513  19.735  41.050  11.613
28898W        W  514   7.142  32.261  14.044
28899W        W  515  23.704  31.527   4.144
28900W        W  516  17.173  30.953   0.777
28901W        W  517  11.040   2.838  11.095
28902W        W  518  29.077  19.077  14.636
28903W        W  519  17.520  22.581   1.496
28904W        W  520  37.326  21.798  10.805
28905W        W  521  37.773  41.540   4.386
28906W        W  522  29.628  23.885  10.300
28907W        W  523   5.243  13.299  14.594
28908W        W  524  43.433  42.089  12.075
28909W        W  525  10.753  36.881  11.513
28910W        W  526  37.540   0.294  13.208
28911W        W  527   8.122  30.526   4.232
28912W        W  528   9.591   1.517   2.179
28913W        W  529  24.168  43.303   4.714
28914W        W  530   4.937  21.692   4.521
28915W        W  531  17.763  35.870  14.462
28916W        W  532  36.328  24.759  11.154
28917W        W  533  13.831  39.509   1.465
28918W        W  534  36.263  26.388   4.179
28919W        W  535  18.981  32.767   2.144
28920W        W  536  21.969  12.491  12.123
28921W        W  537  25.486  40.938  11.494
28922W        W  538   0.426  13.310   3.878
28923W        W  539  41.978  30.578   0.841
28924W        W  540  24.458  29.660  11.097
28925W        W  541  40.803  41.768  14.719
28926W        W  542  31.107  16.294   3.284
28927W        W  543  25.215  31.481  11.301
28928W        W  544   8.455  31.975   3.758
28929W        W  545  39.356  10.718   0.914
28930W        W  546  41.053  16.113   4.503
28931W        W  547   2.438  39.832  14.971
28932W        W  548   8.509  30.040  14.822
28933W        W  549  22.833   9.123  12.894
28934W        W  550  15.257  13.115  10.685
28935W        W  551   8.965  38.380  13.906
28936W        W  552  32.060   7.559   1.152
28937W        W  553  32.062  10.828   0.844
28938W        W  554  14.341  44.515  10.193
28939W        W  555   3.681  11.314   3.112
28940W        W  556  24.070  16.854  13.850
28941W        W  557  33.545  30.954   2.129
28942W        W  558  34.649  41.433  14.023
28943W        W  559  23.947  33.440  10.683
28944W        W  560  22.518  37.241  11.719
28945W        W  561   7.941  37.055  13.826
28946W        W  562  11.706  26.127  12.939
28947W        W  563  15.650  29.945   3.274
28948W        W  564  23.706   1.528   2.804
28949W        W  565  39.381  15.305  12.048
28950W        W  566  24.233  39.803  11.925
28951W        W  567  10.045   4.374   4.714
28952W        W  568  12.532  32.768   4.104
28953W        W  569  16.060  43.907   2.276
28954W        W  570  20.956  33.883   4.150
28955W        W  571   6.965  42.235   4.608
28956W        W  572  33.293  20.461  14.798
28957W        W  573   0.889  27.261  12.370
28958W        W  574   3.642  33.453  12.249
28959W        W  575  29.228  10.838   4.211
28960W        W  576   3.323  34.050  14.459
28961W        W  577  27.371  10.008  12.982
28962W        W  578   4.879   6.768   1.914
28963W        W  579   7.885  25.688   0.364
28964W        W  580   2.766  40.790   3.384
28965W        W  581   7.410   7.162   4.943
28966W        W  582  24.448  31.977  14.576
28967W        W  583  18.394  40.166  12.887
28968W        W  584  12.300  16.225  14.197
28969W        W  585   2.409  26.766   4.730
28970W        W  586  43.336   6.863  11.640
28971W        W  587   5.584  38.905  12.894
28972W        W  588  17.265   8.217  14.769
28973W        W  589  40.461  15.154   3.629
28974W        W  590  22.038  19.284  12.031
28975W        W  591  15.289   2.032   4.155
28976W        W  592  27.467  19.935   2.106
28977W        W  593  41.350  26.795  13.389
28978W        W  594   8.952   6.110   1.824
28979W        W  595  14.942  19.777   1.500
28980W        W  596  42.460   3.053   0.239
28981W        W  597   1.640  22.744  10.230
28982W        W  598  11.856   1.663   2.846
28983W        W  599  18.649  21.652   2.732
28984W        W  600  11.307  27.503   2.794
28985W        W  601  15.311  14.308   2.812
28986W        W  602  27.200  25.904  13.238
28987W        W  603  31.435   5.319  12.102
28988W        W  604  40.918  29.251   1.249
28989W        W  605  16.763  24.439  10.649
28990W        W  606  20.547  35.807  13.073
28991W        W  607   2.528  17.187   3.252
28992W        W  608  25.214   5.404  14.407
28993W        W  609  22.183   9.869   3.406
28994W        W  610  40.843  16.555   2.733
28995W        W  611   5.149  41.194  11.364
28996W        W  612   4.459  36.559   4.198
28997W        W  613  30.774  38.830  14.462
28998W        W  614  26.155  41.246  12.912
28999W        W  615   1.893  26.462   4.004
29000W        W  616  40.446  34.396   0.925
29001W        W  617   7.293  24.272   2.346
29002W        W  618  43.056  27.133   1.673
29003W        W  619  38.225   5.908   5.037
29004W        W  620   0.452  19.287  13.305
29005W        W  621  43.721   5.932   4.443
29006W        W  622  19.154  26.043  13.926
29007W        W  623  42.983   6.667  13.546
29008W        W  624  37.260  20.267   3.589
29009W        W  625  32.026  28.397  10.666
29010W        W  626  13.840  35.016   1.391
29011W        W  627  19.159  21.028  12.412
29012W        W  628  15.646   1.927  14.481
29013W        W  629   3.520  39.656  10.537
29014W        W  630  35.146   1.715  12.779
29015W        W  631   4.171  11.621   0.712
29016W        W  632  43.324   4.882  10.266
29017W        W  633  21.094  12.937  10.709
29018W        W  634  14.839  38.697   3.534
29019W        W  635   4.204   1.197   9.574
29020W        W  636  40.971  31.711  12.539
29021W        W  637  17.708  25.458  10.653
29022W        W  638  14.607  18.686   2.363
29023W        W  639   2.897  31.146   4.144
29024W        W  640  44.211   3.034   0.292
29025W        W  641  20.255  14.589   1.329
29026W        W  642  17.023   9.447  11.575
29027W        W  643  30.373   2.956   0.806
29028W        W  644  40.060   0.384   4.041
29029W        W  645  19.702  23.980   2.281
29030W        W  646  19.437  39.811   1.793
29031W        W  647  34.323  37.884   4.176
29032W        W  648  32.971   0.646   4.170
29033W        W  649  34.463  17.307  11.421
29034W        W  650  29.051  43.492   0.319
29035W        W  651   2.243  16.773  10.770
29036W        W  652  29.517  28.876   1.684
29037W        W  653  10.809   1.147  13.796
29038W        W  654  29.155  24.277   2.181
29039W        W  655  32.016   1.677   0.971
29040W        W  656   6.197  11.774   0.910
29041W        W  657   2.943   9.676   0.720
29042W        W  658   8.212  21.663  11.703
29043W        W  659  22.177  25.662  11.058
29044W        W  660  31.963   6.850  14.153
29045W        W  661   1.574  32.857  11.170
29046W        W  662  37.903   9.619  11.638
29047W        W  663  14.287   0.936  10.768
29048W        W  664   8.839  33.210   0.345
29049W        W  665  36.641  15.107   4.153
29050W        W  666  32.977  44.019  13.917
29051W        W  667  14.068   7.174   1.406
29052W        W  668  25.237  41.329  12.531
29053W        W  669  33.157  18.362  14.387
29054W        W  670  11.024   4.883   2.265
29055W        W  671   1.179  43.330   2.649
29056W        W  672  17.222  37.031  14.081
29057W        W  673  23.541  26.743  13.812
29058W        W  674  33.573   5.449   0.786
29059W        W  675   4.715  34.994   4.111
29060W        W  676  11.188  38.009  11.565
29061W        W  677  11.844  21.550  12.969
29062W        W  678   1.081  36.197   0.353
29063W        W  679  26.773  20.657   0.407
29064W        W  680  27.136  28.624   2.302
29065W        W  681  44.343  14.266   2.664
29066W        W  682  16.982   6.076  10.681
29067W        W  683  28.641  38.404  10.634
29068W        W  684  14.589   3.736  13.286
29069W        W  685  40.979  28.569  13.113
29070W        W  686   1.183  29.134   2.830
29071W        W  687  31.694  15.917  10.856
29072W        W  688  34.498  33.861   2.885
29073W        W  689  33.087  16.380  11.477
29074W        W  690  11.892   6.226   2.357
29075W        W  691  17.006  40.999   3.688
29076W        W  692  19.123   4.927   2.422
29077W        W  693  12.821  22.797  10.604
29078W        W  694  35.899  16.012   1.227
29079W        W  695  30.750  23.077   2.676
29080W        W  696  35.683   9.282   2.339
29081W        W  697   4.404  16.421  11.159
29082W        W  698  43.077  33.969  10.659
29083W        W  699  37.832  26.928  10.202
29084W        W  700   4.356  22.951  11.871
29085W        W  701  17.253  32.374   4.080
29086W        W  702  32.605   5.689  11.598
29087W        W  703  13.587   8.188  13.929
29088W        W  704  16.812   2.535  11.356
29089W        W  705   4.194  15.564  11.440
29090W        W  706  41.047  15.760   2.361
29091W        W  707   9.880  44.513  11.198
29092W        W  708   1.587   3.557  12.314
29093W        W  709   7.162  41.885  13.934
29094W        W  710  38.549  21.634   1.409
29095W        W  711  17.451  30.598   1.747
29096W        W  712  24.033  19.235   1.370
29097W        W  713   2.785  43.120  12.839
29098W        W  714  42.783  42.954   1.964
29099W        W  715  13.335  29.897  13.732
29100W        W  716  27.898  35.372  10.766
29101W        W  717  39.217  12.301   2.687
29102W        W  718  36.938  19.199  10.680
29103W        W  719  34.371   3.832  13.104
29104W        W  720   6.717  29.959  13.886
29105W        W  721   3.987  21.584   1.791
29106W        W  722  38.389   5.763   2.405
29107W        W  723  35.339  25.110   3.726
29108W        W  724  39.034  21.500  12.850
29109W        W  725  28.930  40.276   0.683
29110W        W  726  11.653   0.110   4.185
29111W        W  727  35.524  40.100  13.019
29112W        W  728   2.444   9.656  11.199
29113W        W  729  13.100   2.717  11.980
29114W        W  730  21.319  30.540   2.445
29115W        W  731  14.631  37.320   0.359
29116W        W  732  41.875  18.298   3.278
29117W        W  733  41.390  36.372   1.787
29118W        W  734  22.679   0.014  10.950
29119W        W  735  27.197  39.427  13.548
29120W        W  736  37.142  43.940   3.145
29121W        W  737   3.731  10.363  11.538
29122W        W  738  34.331  27.074  11.517
29123W        W  739   3.633   2.400  14.363
29124W        W  740  38.301   5.339   2.716
29125W        W  741  25.217  40.497  14.359
29126W        W  742  30.004   4.380   3.537
29127W        W  743  15.304   2.888  13.007
29128W        W  744  20.307  11.200   2.640
29129W        W  745  31.012  29.124  11.627
29130W        W  746  31.178  43.068   3.820
29131W        W  747  11.817   6.494  11.818
29132W        W  748   9.358  33.915   3.268
29133W        W  749  34.934   6.815  11.263
29134W        W  750  20.888  10.381  10.848
29135W        W  751  40.605   3.284   1.370
29136W        W  752  30.582  23.212   1.861
29137W        W  753  17.045  13.413   3.672
29138W        W  754   7.845   9.614  13.485
29139W        W  755  16.136  27.873   3.757
29140W        W  756   1.366  16.964   1.322
29141W        W  757  19.613   8.714   2.805
29142W        W  758   2.961  16.625   2.630
29143W        W  759  15.576   4.302  11.063
29144W        W  760  34.503  38.834  10.748
29145W        W  761  21.970   8.803   2.205
29146W        W  762  44.534  20.622  12.527
29147W        W  763  36.982  18.421  11.404
29148W        W  764   9.403   1.278   0.869
29149W        W  765  42.469  30.153   2.285
29150W        W  766   3.481  10.711  11.224
29151W        W  767  11.735  35.393   1.268
29152W        W  768   3.433  39.624   0.921
29153W        W  769  30.620  18.288   0.671
29154W        W  770   6.679  27.062  14.063
29155W        W  771  29.626  44.764  10.786
29156W        W  772  34.282  10.296  13.866
29157W        W  773  12.501  40.999  12.540
29158W        W  774   7.122   0.767   2.917
29159W        W  775   0.196   7.401  10.509
29160W        W  776  41.235  19.365  14.728
29161W        W  777   2.495  38.975   0.501
29162W        W  778  21.567  30.763   0.702
29163W        W  779   7.008  36.898  12.116
29164W        W  780  43.998  18.678   2.605
29165W        W  781  33.907   5.820   0.878
29166W        W  782  28.727  20.167  11.935
29167W        W  783  41.152   3.165  12.871
29168W        W  784   4.540  23.721   9.719
29169W        W  785   6.897  38.978  14.817
29170W        W  786   3.730  13.744  12.233
29171W        W  787  14.652  29.149   0.468
29172W        W  788  21.230  37.395   0.536
29173W        W  789  24.562  43.478   1.725
29174W        W  790  30.037  30.966  11.799
29175W        W  791  21.982  39.510   4.658
29176W        W  792   4.127  13.016   0.849
29177W        W  793  10.340  15.801   3.229
29178W        W  794   5.891   1.829  12.100
29179W        W  795  29.468  44.397   9.810
29180W        W  796  34.401   7.888  13.164
29181W        W  797  23.256  29.963   3.965
29182W        W  798  22.305  32.187   3.767
29183W        W  799  39.613   4.817  13.885
29184W        W  800  31.513   5.337   1.413
29185W        W  801  33.020  29.839  10.199
29186W        W  802  38.056   7.686   3.742
29187W        W  803  36.048  41.574  12.396
29188W        W  804  14.724  37.349  13.937
29189W        W  805  17.157   5.167  11.105
29190W        W  806  12.585  14.009   2.396
29191W        W  807  25.493   2.826  12.637
29192W        W  808  13.289  42.766  14.709
29193W        W  809   4.887  24.624  12.132
29194W        W  810  13.956  14.477  12.119
29195W        W  811   5.776  27.495  14.408
29196W        W  812  35.926  18.213   2.249
29197W        W  813   3.221   0.846  12.429
29198W        W  814  12.599   7.887   0.749
29199W        W  815   9.934  36.119  12.509
29200W        W  816  41.205   3.400  11.168
29201W        W  817  26.451  33.996   0.896
29202W        W  818  34.506  10.646  12.337
29203W        W  819  41.212  27.068  12.594
29204W        W  820  24.935  12.255   2.126
29205W        W  821   8.760  13.242  11.672
29206W        W  822  35.646  44.963  12.499
29207W        W  823  33.614   5.277  14.451
29208W        W  824   3.459  36.130   2.602
29209W        W  825  35.709   8.864  12.082
29210W        W  826   2.766  21.305   2.213
29211W        W  827  26.528  20.368  11.480
29212W        W  828   8.361  26.069  13.075
29213W        W  829   3.129  13.246  13.474
29214W        W  830   6.615   8.262  14.327
29215W        W  831  30.778  30.090   0.896
29216W        W  832  27.020  39.857   1.906
29217W        W  833   0.483   1.766   3.275
29218W        W  834  42.500  11.363   3.706
29219W        W  835  36.006  16.816  11.700
29220W        W  836  38.543  39.201  10.346
29221W        W  837  18.725  13.459   4.696
29222W        W  838   0.655  35.244   5.558
29223W        W  839  28.174  43.977  12.580
29224W        W  840  21.597  32.526  13.356
29225W        W  841  32.813   5.669  14.269
29226W        W  842  32.080   9.986  10.687
29227W        W  843  17.022  26.522  12.537
29228W        W  844  30.930  37.949  11.537
29229W        W  845  24.466  36.702   1.206
29230W        W  846  23.172  31.398  14.927
29231W        W  847  31.302  35.550   3.625
29232W        W  848  11.185  44.577  11.948
29233W        W  849   5.818  38.817  13.394
29234W        W  850  26.669  11.624  14.395
29235W        W  851  44.695  17.749  13.910
29236W        W  852  27.148  30.917  12.693
29237W        W  853  19.315  15.232  14.056
29238W        W  854  40.025  17.615   0.753
29239W        W  855  24.699   9.930  11.534
29240W        W  856   1.814  14.872  11.667
29241W        W  857  17.531   7.608  14.934
29242W        W  858  16.901   2.404   3.320
29243W        W  859  13.902  10.265  13.424
29244W        W  860   1.940  11.390   0.876
29245W        W  861  32.681  32.931   1.235
29246W        W  862  20.230  28.109  14.904
29247W        W  863  44.698   5.827  14.811
29248W        W  864  39.432  17.634  12.455
29249W        W  865  35.818   3.221  10.947
29250W        W  866  26.987   1.876   0.265
29251W        W  867  34.168  12.358  11.163
29252W        W  868  30.162   3.507  14.775
29253W        W  869  37.997  33.866  11.978
29254W        W  870  25.122   1.965   2.535
29255W        W  871  16.106  30.055  13.422
29256W        W  872  18.574  30.882  12.560
29257W        W  873  10.618  16.218   0.274
29258W        W  874  10.894  16.192  12.379
29259W        W  875  16.273  33.636   3.014
29260W        W  876  13.846  24.101  11.353
29261W        W  877  17.864  14.112   2.604
29262W        W  878  41.873  38.117   3.694
29263W        W  879  19.109  14.043  13.852
29264W        W  880  38.100   5.796  11.653
29265W        W  881  31.153  27.407  11.696
29266W        W  882  25.984  40.418  13.507
29267W        W  883  21.670   8.477   4.611
29268W        W  884   4.866  14.503   3.242
29269W        W  885  24.638   3.468   4.511
29270W        W  886   0.467  17.191   3.395
29271W        W  887  42.828  25.249  10.983
29272W        W  888  44.964  16.824  12.250
29273W        W  889  30.526  13.761   3.143
29274W        W  890  39.027  28.125  13.126
29275W        W  891  23.737  40.055   0.763
29276W        W  892   5.802  34.534   2.043
29277W        W  893  25.080   9.870  13.423
29278W        W  894  18.037   9.760   1.684
29279W        W  895  42.010   4.245  14.950
29280W        W  896   9.401  16.897   1.298
29281W        W  897  35.360  13.258   4.115
29282W        W  898  43.401  38.353   2.381
29283W        W  899  19.333  22.721   2.413
29284W        W  900  33.554  15.061  11.598
29285W        W  901  26.706  43.773  12.061
29286W        W  902   0.353  27.879  12.209
29287W        W  903   8.300  38.069   2.210
29288W        W  904  36.167  10.107   2.882
29289W        W  905  28.683  12.637  12.470
29290W        W  906  14.533  38.959  11.657
29291W        W  907  37.788  27.671  13.116
29292W        W  908  35.611  23.469  10.540
29293W        W  909  14.080   5.221  10.598
29294W        W  910   5.941   2.982  11.321
29295W        W  911   3.341  42.505   0.815
29296W        W  912  34.323  14.788  13.026
29297W        W  913  12.767  27.463   4.645
29298W        W  914   5.676  24.667   2.895
29299W        W  915  28.628   9.845   1.860
29300W        W  916  27.482   7.007   0.506
29301W        W  917  37.743  33.405   1.827
29302W        W  918   2.387  39.141  14.343
29303W        W  919  35.390   7.938   0.909
29304W        W  920  26.677   7.763   4.865
29305W        W  921   3.456  14.049  14.825
29306W        W  922  19.820  43.780  12.936
29307W        W  923   9.204  21.108  12.152
29308W        W  924  25.905  30.967   1.322
29309W        W  925  34.178  11.648   2.775
29310W        W  926  23.628  43.878   1.075
29311W        W  927  25.915  13.626   3.853
29312W        W  928  43.067  15.644  11.999
29313W        W  929  33.015  41.577   0.363
29314W        W  930  14.168  20.220  13.306
29315W        W  931   9.418   7.899  10.731
29316W        W  932  34.948   9.822   2.866
29317W        W  933  34.868  27.455   4.544
29318W        W  934  43.994  11.413   0.845
29319W        W  935  44.471  37.510  11.970
29320W        W  936   1.009  25.811   0.946
29321W        W  937  42.085   9.787   1.204
29322W        W  938  41.089  19.270  12.492
29323W        W  939   4.690  10.658  14.875
29324W        W  940  28.186   4.830  10.061
29325W        W  941   5.292  35.641   4.097
29326W        W  942  33.929  37.999  14.466
29327W        W  943  12.819   9.038  12.870
29328W        W  944  18.661  21.788  10.690
29329W        W  945  36.986   9.786   1.204
29330W        W  946  15.504  44.924  10.839
29331W        W  947  28.883  12.161  12.543
29332W        W  948  19.929  42.738   3.667
29333W        W  949  18.736   9.695  11.507
29334W        W  950  36.894  32.081  10.094
29335W        W  951   6.922   3.543   4.105
29336W        W  952  27.719  32.789   1.161
29337W        W  953  16.484  27.644   4.240
29338W        W  954  24.386  43.976  14.494
29339W        W  955   6.294   4.386   0.865
29340W        W  956  42.114  21.549  12.505
29341W        W  957  21.546  42.766   3.744
29342W        W  958   0.027  35.624   3.818
29343W        W  959  37.061  10.788  11.837
29344W        W  960  19.332  19.659  13.694
29345W        W  961  27.108   8.318  13.649
29346W        W  962   5.728   8.215  13.808
29347W        W  963  41.034  43.561   3.430
29348W        W  964  13.677  41.923   4.586
29349W        W  965  15.349  22.171   4.531
29350W        W  966   2.995   2.337   0.885
29351W        W  967  17.427   6.145  14.007
29352W        W  968  39.981  21.442  14.924
29353W        W  969   1.742  15.350  14.460
29354W        W  970  28.083  24.270   3.573
29355W        W  971  25.089   7.230   4.156
29356W        W  972  42.810  15.856  12.840
29357W        W  973  20.336  21.650  12.852
29358W        W  974   1.395  40.883   2.753
29359W        W  975  36.334  19.732  10.720
29360W        W  976  11.813  39.989   2.268
29361W        W  977  31.581   8.810   2.121
29362W        W  978  32.121   2.828   3.322
29363W        W  979  30.323   6.273   1.777
29364W        W  980  21.499  20.744   3.609
29365W        W  981  14.379  13.259  11.164
29366W        W  982   9.133  17.640  12.974
29367W        W  983   1.301  12.359   1.367
29368W        W  984   2.041  14.210  14.913
29369W        W  985  43.351  39.866  14.289
29370W        W  986   9.149   2.679  11.763
29371W        W  987  23.492  18.181   0.957
29372W        W  988  13.342  12.579   4.431
29373W        W  989  14.224  40.361   4.702
29374W        W  990  19.281  26.466   4.027
29375W        W  991  14.800  44.425  14.446
29376W        W  992  15.267  13.276   1.005
29377W        W  993  10.004  23.910   1.396
29378W        W  994   1.871   7.210   2.292
29379W        W  995  33.653  36.882  10.743
29380W        W  996  28.540  29.746   4.604
29381W        W  997  13.411  17.998   5.052
29382W        W  998   1.457  29.154  13.939
29383W        W  999  44.150  25.362  10.398
29384W        W 1000  18.462   8.360  11.923
29385W        W 1001  42.455  38.262   2.468
29386W        W 1002  21.706  33.487  14.405
29387W        W 1003  36.592  34.682  14.272
29388W        W 1004  41.280  19.066  12.023
29389W        W 1005  27.664  25.996  14.205
29390W        W 1006  41.053   4.327   0.381
29391W        W 1007  20.590  34.189  11.581
29392W        W 1008  14.345  33.040   0.237
29393W        W 1009  29.994  22.591   0.351
29394W        W 1010  43.518  40.497   1.688
29395W        W 1011  13.169  23.650  12.940
29396W        W 1012   4.286  18.887  11.106
29397W        W 1013  36.913  23.019   1.172
29398W        W 1014  41.782  38.883   0.985
29399W        W 1015  29.516  33.545   1.825
29400W        W 1016   2.978   9.660  11.998
29401W        W 1017  44.455  38.634   2.327
29402W        W 1018   8.758   2.406  11.212
29403W        W 1019   6.708  23.122   0.499
29404W        W 1020   0.848  26.201  12.430
29405W        W 1021  34.910   0.726   4.523
29406W        W 1022   1.915  35.383  14.275
29407W        W 1023  14.860  27.383  13.153
29408W        W 1024  26.411  11.227  13.843
29409W        W 1025  14.544  14.200   1.134
29410W        W 1026  32.827  33.200   1.650
29411W        W 1027  30.932  27.437  11.216
29412W        W 1028  39.101  23.107   3.825
29413W        W 1029  33.819  44.779   0.868
29414W        W 1030  11.161  28.261  13.436
29415W        W 1031  36.676  34.482   1.244
29416W        W 1032  28.561  26.585  11.189
29417W        W 1033  31.075  44.989   4.021
29418W        W 1034  32.403   9.222  14.454
29419W        W 1035  22.994  34.862   1.999
29420W        W 1036  35.945   6.245  12.899
29421W        W 1037   4.119  27.199  14.107
29422W        W 1038  27.437   6.359  11.949
29423W        W 1039  34.317  30.108   1.807
29424W        W 1040  35.932  27.210   0.299
29425W        W 1041  43.183  42.251  13.120
29426W        W 1042  30.329  21.890  12.449
29427W        W 1043  22.434  11.447   0.889
29428W        W 1044  16.079  40.577   3.528
29429W        W 1045   6.961  40.133   3.370
29430W        W 1046  17.145  43.094   3.938
29431W        W 1047  25.834  34.486  12.606
29432W        W 1048   5.891   9.539   2.890
29433W        W 1049  38.374  28.759   1.344
29434W        W 1050  21.324  30.071  13.536
29435W        W 1051  13.701  18.791  13.588
29436W        W 1052   5.278  18.635   4.279
29437W        W 1053  22.205  29.477  13.744
29438W        W 1054  21.482  38.608   1.837
29439W        W 1055  36.837  44.477  11.487
29440W        W 1056  25.477  19.238  14.420
29441W        W 1057  37.949  25.199  12.390
29442W        W 1058  32.120   6.203   3.595
29443W        W 1059  26.035  11.316  12.112
29444W        W 1060   1.420  34.599   2.470
29445W        W 1061  44.024  30.149  11.803
29446W        W 1062   3.680  13.104  14.340
29447W        W 1063   1.218  34.198   4.392
29448W        W 1064  24.576  10.257   1.000
29449W        W 1065  35.001  11.650   3.988
29450W        W 1066   2.547  25.797  10.281
29451W        W 1067  42.740   9.434   1.684
29452W        W 1068  41.299  18.069   4.678
29453W        W 1069  20.956   7.310   2.698
29454W        W 1070  11.602  27.876  11.519
29455W        W 1071  44.437  29.881   4.809
29456W        W 1072   9.582  18.103  13.908
29457W        W 1073  15.526  26.752   2.772
29458W        W 1074  38.346  12.008   4.181
29459W        W 1075  36.133  37.358   2.615
29460W        W 1076  31.964   6.055   0.736
29461W        W 1077  41.574   2.901  14.403
29462W        W 1078  35.018  32.912   0.297
29463W        W 1079  43.738  36.894  13.406
29464W        W 1080  38.055   2.982   2.185
29465W        W 1081   9.093   2.970  12.199
29466W        W 1082   3.481  26.162   1.006
29467W        W 1083   3.854  25.668  12.171
29468W        W 1084   5.921  35.011   1.016
29469W        W 1085  20.211  39.324   1.508
29470W        W 1086   6.663  17.686  11.588
29471W        W 1087   4.289  35.955   0.529
29472W        W 1088  35.413  43.427  10.851
29473W        W 1089  40.388  13.610   1.787
29474W        W 1090  39.560  11.814   3.683
29475W        W 1091  10.285   2.878   0.378
29476W        W 1092  19.524  26.038  10.630
29477W        W 1093  35.645  20.113  11.438
29478W        W 1094  29.380  43.248  12.430
29479W        W 1095   2.271  37.817  11.223
29480W        W 1096  26.967  22.612  13.405
29481W        W 1097   8.752  31.110  12.381
29482W        W 1098  27.599  35.624   4.311
29483W        W 1099  31.972  18.250  10.314
29484W        W 1100   5.419  33.822   1.526
29485W        W 1101  25.598   5.249   1.930
29486W        W 1102  24.760  17.691  12.414
29487W        W 1103   8.714  10.706  13.019
29488W        W 1104   4.960   8.743   0.504
29489W        W 1105  24.997   1.006  10.478
29490W        W 1106  25.970  18.234   0.237
29491W        W 1107  10.793  36.338  14.352
29492W        W 1108  28.456  43.891  12.118
29493W        W 1109  27.882  43.752   2.711
29494W        W 1110   4.723  39.765  10.404
29495W        W 1111  25.745  33.369  13.240
29496W        W 1112  23.483  12.320  13.440
29497W        W 1113   2.579   9.823  14.144
29498W        W 1114   6.270   2.189   3.353
29499W        W 1115  24.535   9.607  11.174
29500W        W 1116  41.522  38.071  10.828
29501W        W 1117  20.185   5.898   4.875
29502W        W 1118  31.426  39.077   4.700
29503W        W 1119  25.138   0.771   3.271
29504W        W 1120  25.488   6.333   3.235
29505W        W 1121   4.318   1.460   1.016
29506W        W 1122  16.568  24.448   4.032
29507W        W 1123   1.906  12.252   0.552
29508W        W 1124  41.937  36.444  11.521
29509W        W 1125  23.637   5.772   1.818
29510W        W 1126  17.758   3.507   0.891
29511W        W 1127  43.939  44.317   0.583
29512W        W 1128  29.890  36.281   5.054
29513W        W 1129  13.701  42.248   0.294
29514W        W 1130  30.590  39.271   3.633
29515W        W 1131   1.755   3.722   4.551
29516W        W 1132  19.645   2.306  11.619
29517W        W 1133   6.256  20.564   2.712
29518W        W 1134  13.114  43.826   3.672
29519W        W 1135  10.741  35.014  14.008
29520W        W 1136  32.147   5.978   3.145
29521W        W 1137  19.264  13.232   0.278
29522W        W 1138  18.029  36.860   3.024
29523W        W 1139  41.464  29.685   0.438
29524W        W 1140  44.327  31.527  12.979
29525W        W 1141  36.902  43.737   1.758
29526W        W 1142  32.450  15.013  10.948
29527W        W 1143   3.469  19.159   3.865
29528W        W 1144  38.499  15.662   1.409
29529W        W 1145  23.666  14.088   1.530
29530W        W 1146  12.363  43.343  12.087
29531W        W 1147  20.695  39.328   4.230
29532W        W 1148  36.923   1.700  10.712
29533W        W 1149  16.479  25.698  11.083
29534W        W 1150  18.295  26.869   2.264
29535W        W 1151   7.216  34.629   4.104
29536W        W 1152  24.720  21.689   0.295
29537W        W 1153   8.794  33.735   0.393
29538W        W 1154   1.193  15.373   2.041
29539W        W 1155  39.077  18.252   2.920
29540W        W 1156  16.353  38.570  14.965
29541W        W 1157   4.969  26.437  13.559
29542W        W 1158  21.062  23.452  11.421
29543W        W 1159   8.454   8.947  12.736
29544W        W 1160   4.778  38.851  14.447
29545W        W 1161  16.981  27.546   4.313
29546W        W 1162  44.469  29.607  13.304
29547W        W 1163   7.824  41.276  12.171
29548W        W 1164  25.772   6.867  14.763
29549W        W 1165  29.061   7.151  10.671
29550W        W 1166  21.483  41.163   1.368
29551W        W 1167  13.386   1.511   0.299
29552W        W 1168  13.902  19.510  11.239
29553W        W 1169  41.222  43.412  12.838
29554W        W 1170  16.182  34.590   1.403
29555W        W 1171  15.510  34.545   0.793
29556W        W 1172  33.123   2.432  11.307
29557W        W 1173  34.842  14.374   1.310
29558W        W 1174   7.604  18.966  11.958
29559W        W 1175   3.814  36.413   1.198
29560W        W 1176  43.993  32.442  14.988
29561W        W 1177  15.618   9.957   1.687
29562W        W 1178  29.100  29.356  14.932
29563W        W 1179  20.112  33.088  14.244
29564W        W 1180  21.745  14.087  12.826
29565W        W 1181   9.674  30.687  10.583
29566W        W 1182  38.418  40.217   2.215
29567W        W 1183  22.606  40.052  14.774
29568W        W 1184  13.414  24.078  11.064
29569W        W 1185  19.015  32.912  10.780
29570W        W 1186  37.573  12.694  10.133
29571W        W 1187  22.188   5.140   4.512
29572W        W 1188  23.733  20.035  12.044
29573W        W 1189  27.407  36.900   2.795
29574W        W 1190   0.498   8.994  12.941
29575W        W 1191  39.401   5.373   3.083
29576W        W 1192  19.636  18.258  12.888
29577W        W 1193   1.889  42.804  13.992
29578W        W 1194  37.826  16.540  11.475
29579W        W 1195  11.314  32.688  12.095
29580W        W 1196  25.292   4.266   4.639
29581W        W 1197  38.070  24.020  12.116
29582W        W 1198  19.943  16.493   2.084
29583W        W 1199  20.629  11.738  14.027
29584W        W 1200  26.454   1.747  12.537
29585W        W 1201  21.694  41.350  12.332
29586W        W 1202  40.983  21.456  13.735
29587W        W 1203  34.053  41.798  14.907
29588W        W 1204   2.206  23.990   3.250
29589W        W 1205  17.764  43.397   2.200
29590W        W 1206  15.166  16.144   5.402
29591W        W 1207   3.893  13.285  11.715
29592W        W 1208   4.352  10.559   0.745
29593W        W 1209  25.722  17.969  10.690
29594W        W 1210  22.699  37.958  11.663
29595W        W 1211   9.125  22.552  13.506
29596W        W 1212  39.107  34.353   1.236
29597W        W 1213   9.764  37.744   4.929
29598W        W 1214  26.157   4.897  14.332
29599W        W 1215   2.763  29.946  11.254
29600W        W 1216  19.122   8.038   2.717
29601W        W 1217   7.394  18.646  12.766
29602W        W 1218   3.139  27.083  13.974
29603W        W 1219  33.416  30.974   0.782
29604W        W 1220  26.165  30.760   4.119
29605W        W 1221  16.516  36.105  12.931
29606W        W 1222   1.073  23.019   2.854
29607W        W 1223   2.944  33.433  11.254
29608W        W 1224  14.287  16.140   0.451
29609W        W 1225  44.090   0.815  12.390
29610W        W 1226  20.228  32.460  11.505
29611W        W 1227   9.226  29.618   1.254
29612W        W 1228   2.643  18.501   1.268
29613W        W 1229  42.002  17.308   3.189
29614W        W 1230  11.249  17.541  11.683
29615W        W 1231  20.190  24.961   1.328
29616W        W 1232  24.759   6.331  11.616
29617W        W 1233  10.907   8.660   3.701
29618W        W 1234   4.146  44.844  10.660
29619W        W 1235  40.608  19.188   2.690
29620W        W 1236  44.875  22.080  12.001
29621W        W 1237  17.200  29.655  11.649
29622W        W 1238   6.186  41.445   1.571
29623W        W 1239   1.666  23.491   4.785
29624W        W 1240  25.888   7.688  14.402
29625W        W 1241   2.986  26.208  14.767
29626W        W 1242   8.282  42.381   1.409
29627W        W 1243  11.874  18.669  13.194
29628W        W 1244  38.284  21.218   4.167
29629W        W 1245  40.441  37.547  14.404
29630W        W 1246  29.531  26.597   1.364
29631W        W 1247  12.578  38.568   0.476
29632W        W 1248  24.148  29.896  12.414
29633W        W 1249  22.300   0.327  14.501
29634W        W 1250  33.229  36.266  14.359
29635W        W 1251  36.003  42.748  10.614
29636W        W 1252  39.038  41.492  11.834
29637W        W 1253  34.034   0.196  11.149
29638W        W 1254  42.419   2.233   3.267
29639W        W 1255   0.745  39.758  10.851
29640W        W 1256   9.646  31.031  11.925
29641W        W 1257  30.719   5.713   9.945
29642W        W 1258  41.426   1.983  13.443
29643W        W 1259  10.727  31.459   2.675
29644W        W 1260  39.092  33.593   2.357
29645W        W 1261  29.054  39.033   1.286
29646W        W 1262  29.453  33.741  11.270
29647W        W 1263  27.744  42.975   4.456
29648W        W 1264  27.384   5.416  13.955
29649W        W 1265   7.162  30.424   4.083
29650W        W 1266  27.051   9.639   4.617
29651W        W 1267  25.873   0.781   0.634
29652W        W 1268  30.851  37.397   1.340
29653W        W 1269  17.931  39.649  12.156
29654W        W 1270  10.500   2.484   3.219
29655W        W 1271  10.892  16.632  10.741
29656W        W 1272  32.609  25.528   4.052
29657W        W 1273  10.818  14.958  14.883
29658W        W 1274  10.495  35.410   2.722
29659W        W 1275  22.477  16.239  14.938
29660W        W 1276  11.125   3.725  13.494
29661W        W 1277  15.291   0.570  11.184
29662W        W 1278  11.028  13.116   2.731
29663W        W 1279   1.678  13.784  13.484
29664W        W 1280   1.345  34.435   0.492
29665W        W 1281   1.866  33.653   4.803
29666W        W 1282  36.582  20.000   2.484
29667W        W 1283  14.608  33.996   2.586
29668W        W 1284  38.910   8.509   0.874
29669W        W 1285  15.650  26.487  14.893
29670W        W 1286  11.900  28.522  12.037
29671W        W 1287  39.007  12.849  11.009
29672W        W 1288  44.564   9.759   0.953
29673W        W 1289  44.389   8.216   1.234
29674W        W 1290  19.693  37.538   4.209
29675W        W 1291  44.888  39.047   2.828
29676W        W 1292  35.348   9.558  14.467
29677W        W 1293  19.048   9.256  11.645
29678W        W 1294   7.010  10.287   4.957
29679W        W 1295  32.569  41.320  12.932
29680W        W 1296  24.429  28.652  12.403
29681W        W 1297  20.206  34.083   1.409
29682W        W 1298  27.231  13.908  13.766
29683W        W 1299  25.247   5.858   3.122
29684W        W 1300   9.179  41.079  13.355
29685W        W 1301   7.379  11.489   2.495
29686W        W 1302   3.966   1.790   1.717
29687W        W 1303  37.903  25.144  11.890
29688W        W 1304   4.789  25.133   1.799
29689W        W 1305   8.640  32.488  12.938
29690W        W 1306  23.759  30.576   0.033
29691W        W 1307   1.248  21.379   5.254
29692W        W 1308  34.975  18.006  11.157
29693W        W 1309  31.681  24.768  11.989
29694W        W 1310  16.810  15.360   3.645
29695W        W 1311   6.455   4.810   0.042
29696W        W 1312  41.750  18.609   1.042
29697W        W 1313  14.148  34.534   4.580
29698W        W 1314  23.135  44.367   0.205
29699W        W 1315  41.551   5.421   4.804
29700W        W 1316  22.033  37.444   4.634
29701W        W 1317  41.390   7.267  10.886
29702W        W 1318  36.778  35.422   1.273
29703W        W 1319  28.157  42.734   3.315
29704W        W 1320  36.470  40.923  12.613
29705W        W 1321  19.215  29.127   3.896
29706W        W 1322  21.677   5.539  13.626
29707W        W 1323  15.169  21.679  11.184
29708W        W 1324  35.608  21.904  10.727
29709W        W 1325   8.939  21.945   0.018
29710W        W 1326  23.203  28.330  12.471
29711W        W 1327  19.069  21.191   0.387
29712W        W 1328  29.546  29.871   2.843
29713W        W 1329  26.189  43.346   3.205
29714W        W 1330  39.138  42.184  11.128
29715W        W 1331   0.841  16.180  12.612
29716W        W 1332  40.347  13.614  13.029
29717W        W 1333  40.013  44.660  11.921
29718W        W 1334  13.152  41.815  11.552
29719W        W 1335  39.800  37.604   4.624
29720W        W 1336  15.571   6.247   0.370
29721W        W 1337  30.105  37.432   3.732
29722W        W 1338  11.225  18.144  10.646
29723W        W 1339  24.889  21.156  10.686
29724W        W 1340  28.500  43.680   3.259
29725W        W 1341  10.005  39.035  13.994
29726W        W 1342  13.607  43.475   2.866
29727W        W 1343  33.420   5.436   3.695
29728W        W 1344  20.880  10.838  12.135
29729W        W 1345  35.034   7.060  14.880
29730W        W 1346  35.548  18.098   4.831
29731W        W 1347  35.203  30.444   0.251
29732W        W 1348  20.344  17.519  12.294
29733W        W 1349   1.777  40.812   2.427
29734W        W 1350  15.200   3.387   2.371
29735W        W 1351  14.243  34.298   1.053
29736W        W 1352  42.508  17.938  11.767
29737W        W 1353  36.508  41.983  11.494
29738W        W 1354   3.786  15.732  14.301
29739W        W 1355  25.933  34.288   3.613
29740W        W 1356  19.875  37.417   1.945
29741W        W 1357  43.982  40.517   1.440
29742W        W 1358   5.760  38.017  12.708
29743W        W 1359  31.997  32.443  14.722
29744W        W 1360   3.181  23.433  10.246
29745W        W 1361  16.636  37.177  11.039
29746W        W 1362   4.361  20.437   4.811
29747W        W 1363  21.777  15.082   0.861
29748W        W 1364  37.969  44.789  14.909
29749W        W 1365  24.933  32.034   0.706
29750W        W 1366  20.018   1.027  13.391
29751W        W 1367   9.884  18.059  12.870
29752W        W 1368  26.627   7.894   1.002
29753W        W 1369  22.103  39.103  13.055
29754W        W 1370  18.232  18.394  13.879
29755W        W 1371  20.819  10.337  14.867
29756W        W 1372   6.345  29.713   4.620
29757W        W 1373  37.026  15.162   1.278
29758W        W 1374  15.370  34.950   2.295
29759W        W 1375  29.115  32.546  10.808
29760W        W 1376  10.464  38.781  13.903
29761W        W 1377  20.108  24.874  11.655
29762W        W 1378   0.229  16.805  13.592
29763W        W 1379  21.178  38.396  14.574
29764W        W 1380   8.145  36.865   3.653
29765W        W 1381  43.014  29.123   3.335
29766W        W 1382  13.548  41.970   1.667
29767W        W 1383  25.993   1.332  13.408
29768W        W 1384   7.761  21.558  10.871
29769W        W 1385  16.900  18.093   1.603
29770W        W 1386  41.769   4.349   3.540
29771W        W 1387  23.129  19.393   4.977
29772W        W 1388  18.390  13.322   2.370
29773W        W 1389  22.424   4.705  13.874
29774W        W 1390  38.576  23.630   1.908
29775W        W 1391  20.989  12.795  11.978
29776W        W 1392  39.311   9.962  10.965
29777W        W 1393   5.631  43.837   2.714
29778W        W 1394   9.328  17.674   4.060
29779W        W 1395  34.213  34.344   2.943
29780W        W 1396  28.555  23.149   1.304
29781W        W 1397   4.000  30.054  14.282
29782W        W 1398  22.573   9.664   2.218
29783W        W 1399   2.309  28.197   0.637
29784W        W 1400   6.186  15.404  12.661
29785W        W 1401  39.474  29.180  13.815
29786W        W 1402  16.045  33.481  11.107
29787W        W 1403   4.970   4.940   1.681
29788W        W 1404  40.766  15.797  11.532
29789W        W 1405  35.543  35.671   2.274
29790W        W 1406  15.743  38.850   0.622
29791W        W 1407  22.151  16.213  14.111
29792W        W 1408  37.001  36.735  13.785
29793W        W 1409   6.332  42.744   0.899
29794W        W 1410   2.049  17.374  11.575
29795W        W 1411   9.400  31.978  12.957
29796W        W 1412  29.080  42.923   4.589
29797W        W 1413  30.224  17.674  14.544
29798W        W 1414  35.029  15.041  12.095
29799W        W 1415  43.998  33.224  11.945
29800W        W 1416  19.680  26.322   4.691
29801W        W 1417  40.022  43.291   3.460
29802W        W 1418  36.066  12.537  11.156
29803W        W 1419   6.864  36.904   2.946
29804W        W 1420  19.998  19.639   1.420
29805W        W 1421   7.417  25.468  12.003
29806W        W 1422  17.934  14.146  12.449
29807W        W 1423  15.287   1.973  14.837
29808W        W 1424  44.385  22.627   4.678
29809W        W 1425  22.545  21.713   0.629
29810W        W 1426  41.807   2.895   2.305
29811W        W 1427  32.284  34.616  14.445
29812W        W 1428  36.360   6.691  11.683
29813W        W 1429  36.200  10.625   2.762
29814W        W 1430  32.948  20.980  13.518
29815W        W 1431  40.355  24.495   2.615
29816W        W 1432  44.295  42.700  13.295
29817W        W 1433  28.150  39.880  11.260
29818W        W 1434  20.760  18.446   4.455
29819W        W 1435  41.017  30.449   0.500
29820W        W 1436  22.234  26.580  12.604
29821W        W 1437   6.526  29.433  13.485
29822W        W 1438  41.505   3.353   4.551
29823W        W 1439   0.117  36.161   9.815
29824W        W 1440  29.425  22.011  12.380
29825W        W 1441  29.738  10.124   0.809
29826W        W 1442   0.035  40.889   0.440
29827W        W 1443  15.008  15.233   4.701
29828W        W 1444  10.111  33.175   4.606
29829W        W 1445  15.117  14.722  13.551
29830W        W 1446  12.654  10.897  12.434
29831W        W 1447  22.724  19.100  14.830
29832W        W 1448  43.987  16.569  14.339
29833W        W 1449  11.646  38.764  11.122
29834W        W 1450   5.918  13.085   4.633
29835W        W 1451  34.374   8.133  11.941
29836W        W 1452   6.871  21.934   3.105
29837W        W 1453   5.333   2.225   0.063
29838W        W 1454   5.082  28.022   0.960
29839W        W 1455  20.621   5.211   3.661
29840W        W 1456  30.912  22.631  12.879
29841W        W 1457   6.172  38.941  12.006
29842W        W 1458  36.885  41.745  11.166
29843W        W 1459   2.475  26.696   2.828
29844W        W 1460  26.945  18.161   1.509
29845W        W 1461   8.810  30.220  12.376
29846W        W 1462  43.217  12.896  12.371
29847W        W 1463  22.151  17.011   1.226
29848W        W 1464  37.834  28.325   2.716
29849W        W 1465  12.575  42.863   0.214
29850W        W 1466  11.809   1.528   3.879
29851W        W 1467  32.449  39.236  13.835
29852W        W 1468   2.183  37.653  11.687
29853W        W 1469  16.035  38.651  10.251
29854W        W 1470  25.610  34.175  12.215
29855W        W 1471  10.002  11.781   2.397
29856W        W 1472  38.798  36.584   3.204
29857W        W 1473   3.402  24.204  12.832
29858W        W 1474   9.665   7.731   0.271
29859W        W 1475   5.501  11.670   3.883
29860W        W 1476  38.097  21.728   5.107
29861W        W 1477  20.254  28.227  12.101
29862W        W 1478  33.508  29.219   9.666
29863W        W 1479  42.075  42.374  11.907
29864W        W 1480  10.630  10.750   4.326
29865W        W 1481  30.452  31.171  14.503
29866W        W 1482  20.550  30.929   0.014
29867W        W 1483  25.504   6.847   3.783
29868W        W 1484   2.700   2.346  13.049
29869W        W 1485  35.562  11.231  11.207
29870W        W 1486  15.215  24.395   4.797
29871W        W 1487   6.357  41.791   2.483
29872W        W 1488  29.979  24.953  14.221
29873W        W 1489  32.833  22.048  13.510
29874W        W 1490   1.901  26.138   4.476
29875W        W 1491  40.913  26.514  11.208
29876W        W 1492  40.811  37.211   0.736
29877W        W 1493  32.617  26.520  13.007
29878W        W 1494   8.907  12.786  11.095
29879W        W 1495   7.516   5.370   4.603
29880W        W 1496  23.797   9.695   4.604
29881W        W 1497  15.672  35.638  10.991
29882W        W 1498  44.058  23.799   2.110
29883W        W 1499  36.230  35.244   0.698
29884W        W 1500  44.254  22.146  13.949
29885W        W 1501  43.687  12.653   2.763
29886W        W 1502  22.638  16.664   4.054
29887W        W 1503  15.226  18.315  13.328
29888W        W 1504  35.395  31.988   3.841
29889W        W 1505  17.184   3.172  14.835
29890W        W 1506  13.009  42.027  13.862
29891W        W 1507  18.639  12.313   3.734
29892W        W 1508   5.020  11.512  14.000
29893W        W 1509  13.168  20.488   0.548
29894W        W 1510   7.395   4.469   2.285
29895W        W 1511  27.365  43.990   0.893
29896W        W 1512  11.654   5.776   0.654
29897W        W 1513   4.278  29.371   4.116
29898W        W 1514  37.987  43.732   1.437
29899W        W 1515  15.770  33.636  13.363
29900W        W 1516  39.385   8.412   4.160
29901W        W 1517  42.940  40.445  12.211
29902W        W 1518  43.806  39.820   2.143
29903W        W 1519  43.772  35.508  13.333
29904W        W 1520  11.941  35.670  12.033
29905W        W 1521  24.505  41.296   0.740
29906W        W 1522   9.624  19.073  13.035
29907W        W 1523  10.698   8.789   1.182
29908W        W 1524   6.435  18.153  10.916
29909W        W 1525  32.939   6.363   4.610
29910W        W 1526  27.643  10.713  11.421
29911W        W 1527   2.348   7.258   1.483
29912W        W 1528  34.927  23.725  11.085
29913W        W 1529  39.962  28.491   4.009
29914W        W 1530   5.283  13.269  12.579
29915W        W 1531  20.769  33.327   1.384
29916W        W 1532  14.250  26.759   4.970
29917W        W 1533  36.338  33.041   4.210
29918W        W 1534  21.443  25.653  12.727
29919W        W 1535  20.355  39.976  12.919
29920W        W 1536   0.794  10.906  12.963
29921W        W 1537   0.341  41.530   1.034
29922W        W 1538   5.952   2.926   3.840
29923W        W 1539  38.755  36.805   3.723
29924W        W 1540  39.859  33.208  12.094
29925W        W 1541  17.731  20.923  13.526
29926W        W 1542  10.644  14.771  12.459
29927W        W 1543  24.623   5.124  11.055
29928W        W 1544  40.234  13.933   3.206
29929W        W 1545  40.582  22.813   0.473
29930W        W 1546   5.595  13.589  11.104
29931W        W 1547  16.746  18.742   2.932
29932W        W 1548  17.829  30.005   4.054
29933W        W 1549  31.595   6.186  10.620
29934W        W 1550  14.408  18.241   2.210
29935W        W 1551  31.422  21.552   3.360
29936W        W 1552   8.807  27.953   0.496
29937W        W 1553  37.497   8.791   1.088
29938W        W 1554  16.225   3.835   1.843
29939W        W 1555   8.250   9.368   1.122
29940W        W 1556   5.641  40.334   4.578
29941W        W 1557  19.203   2.170  12.991
29942W        W 1558   7.199  30.365  11.836
29943W        W 1559  14.848  28.485   0.986
29944W        W 1560   5.138  42.485  14.324
29945W        W 1561  36.725  11.051   9.842
29946W        W 1562  15.226  39.805  11.112
29947W        W 1563  13.195  16.827   1.624
29948W        W 1564   7.661  17.004  14.893
29949W        W 1565  38.970  34.157  14.291
29950W        W 1566  11.493  33.124  11.361
29951W        W 1567  22.086   4.330   2.934
29952W        W 1568  33.504  18.087  14.126
29953W        W 1569  21.813  29.575   1.683
29954W        W 1570  18.221  44.936   3.216
29955W        W 1571   9.378  28.579  11.898
29956W        W 1572  27.622  23.207  12.524
29957W        W 1573  12.589  20.166   4.687
29958W        W 1574   2.945   0.242   3.370
29959W        W 1575  37.006  31.608  14.388
29960W        W 1576  14.907  28.599  12.587
29961W        W 1577  39.417  31.301  11.543
29962W        W 1578  35.128  18.623  12.160
29963W        W 1579  31.050   0.840  10.954
29964W        W 1580  11.819  35.401  11.605
29965W        W 1581  29.641   8.740  13.504
29966W        W 1582   6.437  34.830  11.168
29967W        W 1583  39.397  41.583  12.634
29968W        W 1584  14.587  16.122  12.371
29969W        W 1585  36.505   7.197   0.852
29970W        W 1586  23.624  42.513   0.972
29971W        W 1587  38.073   0.366  12.430
29972W        W 1588  28.447  36.106   1.209
29973W        W 1589  26.692   2.271   4.624
29974W        W 1590  37.813   4.015  11.483
29975W        W 1591  32.651  29.318   5.521
29976W        W 1592  35.917   1.692  13.421
29977W        W 1593  44.872   1.520  12.634
29978W        W 1594  34.565  11.249   4.520
29979W        W 1595   1.324   0.550  10.836
29980W        W 1596  19.532  38.123   0.331
29981W        W 1597  39.032  42.296   3.696
29982W        W 1598  44.836   7.928   3.274
29983W        W 1599   5.726  13.177   3.796
29984W        W 1600  13.382  12.778  14.802
29985W        W 1601  40.832   3.685   3.711
29986W        W 1602  15.431  34.068  14.173
29987W        W 1603  12.248  28.063  13.064
29988W        W 1604   1.439  21.983   2.236
29989W        W 1605  35.433  16.785   1.267
29990W        W 1606  44.517  10.005   2.752
29991W        W 1607  29.271   6.794   2.385
29992W        W 1608  36.553  42.043   2.824
29993W        W 1609  34.045  19.749   3.657
29994W        W 1610  11.757  20.224  11.152
29995W        W 1611  13.211  24.736   3.815
29996W        W 1612  29.690  13.826   2.553
29997W        W 1613  22.821  27.912   3.257
29998W        W 1614  37.607  34.831   1.962
29999W        W 1615  40.370  10.486   3.189
30000W        W 1616  24.128  17.724   4.625
30001W        W 1617  25.267  44.192   3.935
30002W        W 1618  15.342  11.314   3.931
30003W        W 1619  11.087  37.987   3.627
30004W        W 1620  43.809  39.082  11.339
30005W        W 1621  18.756  42.701  13.399
30006W        W 1622  34.451  33.947  13.935
30007W        W 1623  25.749   1.706   3.147
30008W        W 1624  22.218   0.455  11.651
30009W        W 1625  34.538   6.243  14.875
30010W        W 1626  24.615  14.387  14.922
30011W        W 1627  11.956   7.570  13.472
30012W        W 1628   0.961  30.966   0.762
30013W        W 1629  29.814  21.600  11.567
30014W        W 1630  38.948  22.241  10.366
30015W        W 1631   6.868  34.848  12.194
30016W        W 1632  39.139  13.757  11.021
30017W        W 1633  22.679  34.192   3.748
30018W        W 1634   7.190  42.891  13.908
30019W        W 1635  38.775   1.994   1.438
30020W        W 1636  44.071   2.217   3.240
30021W        W 1637  44.392  17.045   2.854
30022W        W 1638  25.266  11.875   1.257
30023W        W 1639  39.937  17.612  11.133
30024W        W 1640  38.145  23.504   3.706
30025W        W 1641  29.603  23.826   0.560
30026W        W 1642  15.145  37.454  10.558
30027W        W 1643   9.284  32.864  11.969
30028W        W 1644  23.707   9.354   2.335
30029W        W 1645  42.500  25.671  11.120
30030W        W 1646  44.885  38.963  10.997
30031W        W 1647  14.565  32.638  13.358
30032W        W 1648  24.121  24.262  10.618
30033W        W 1649   7.192  21.249   1.418
30034W        W 1650  34.946  39.101   1.749
30035W        W 1651   9.328  22.415   1.364
30036W        W 1652  43.879  16.284  13.539
30037W        W 1653  26.453  35.795  11.769
30038W        W 1654  31.056  32.886   2.322
30039W        W 1655  28.532  37.102   4.171
30040W        W 1656  25.739  18.618  10.879
30041W        W 1657  32.094  14.626   5.075
30042W        W 1658  32.143  27.441   3.283
30043W        W 1659  13.898  20.001  10.580
30044W        W 1660  32.498  40.987  13.798
30045W        W 1661  29.633  10.184   4.172
30046W        W 1662  38.395  35.861  10.632
30047W        W 1663  15.793   7.709  10.598
30048W        W 1664  11.681  15.504   1.721
30049W        W 1665  13.796   3.366  14.543
30050W        W 1666  15.535  15.529   5.032
30051W        W 1667  20.188  25.507   3.687
30052W        W 1668   3.404   8.118   3.118
30053W        W 1669  34.330  24.578  13.962
30054W        W 1670   6.308  33.164  14.831
30055W        W 1671  17.581  28.403   2.805
30056W        W 1672  35.531  17.270  12.856
30057W        W 1673  19.047  37.034  11.623
30058W        W 1674  33.387   5.955  11.092
30059W        W 1675  33.031  33.506   0.411
30060W        W 1676   0.368  39.287  12.541
30061W        W 1677   3.903  25.910   1.226
30062W        W 1678  43.730  22.165   2.574
30063W        W 1679  32.135   0.195  12.082
30064W        W 1680  43.045  35.810   5.077
30065W        W 1681  38.355   9.679   5.177
30066W        W 1682  36.082  32.528   3.613
30067W        W 1683   1.930  13.864  13.922
30068W        W 1684  14.697  27.553  11.721
30069W        W 1685  43.264  28.876   1.923
30070W        W 1686   6.670   6.354   3.306
30071W        W 1687  13.839  44.218   4.350
30072W        W 1688   0.322   2.481   0.832
30073W        W 1689  29.873  30.992   1.393
30074W        W 1690  23.233  30.704  11.182
30075W        W 1691  33.120  16.341  11.994
30076W        W 1692  40.888   1.894  11.229
30077W        W 1693  31.147   5.485   4.631
30078W        W 1694  39.962  40.556   0.963
30079W        W 1695   3.300   9.358   4.544
30080W        W 1696  42.934  37.576   4.847
30081W        W 1697  30.072  34.715   1.056
30082W        W 1698  44.553  17.894   2.975
30083W        W 1699  11.730  33.692  10.181
30084W        W 1700  40.098  17.232   4.819
30085W        W 1701  14.278  14.674   4.542
30086W        W 1702  43.391   9.717   1.431
30087W        W 1703  26.216  32.964   3.130
30088W        W 1704  13.445   5.694  12.314
30089W        W 1705  28.631  25.183  14.245
30090W        W 1706  41.524  28.107   1.430
30091W        W 1707  11.815  10.576   5.154
30092W        W 1708  15.057  17.053  11.114
30093W        W 1709  30.561   3.887  13.097
30094W        W 1710  40.696  16.695   3.933
30095W        W 1711  32.154   3.307  13.410
30096W        W 1712   1.632   9.226   4.197
30097W        W 1713  10.335  24.602   3.398
30098W        W 1714   4.603  37.973  11.466
30099W        W 1715   6.478  17.734   3.253
30100W        W 1716  28.234   7.327  13.735
30101W        W 1717   4.170  38.791   9.962
30102W        W 1718  43.837  23.021   4.775
30103W        W 1719   2.563   6.656   2.832
30104W        W 1720  27.668  16.311  11.482
30105W        W 1721   4.511  28.424   1.777
30106W        W 1722  42.511  21.756   2.639
30107W        W 1723  13.631  15.250   0.988
30108W        W 1724  26.664   9.733  11.488
30109W        W 1725  40.542  35.844  14.813
30110W        W 1726  34.150  12.370  12.048
30111W        W 1727  39.118  19.639   4.166
30112W        W 1728  31.868  22.871  11.747
30113W        W 1729   9.751  15.710  14.852
30114W        W 1730  37.528  18.121  14.441
30115W        W 1731  30.483   0.483   4.149
30116W        W 1732  21.605  10.275   0.238
30117W        W 1733  42.061  26.483  12.091
30118W        W 1734  29.989  12.506  14.896
30119W        W 1735  13.191  36.857  10.735
30120W        W 1736   0.713   0.484   0.939
30121W        W 1737   4.391  30.609   2.748
30122W        W 1738  14.761   5.769   1.288
30123W        W 1739  31.058  21.710   4.660
30124W        W 1740  29.008  10.194  12.509
30125W        W 1741   8.736  36.889   4.389
30126W        W 1742  44.282  18.045  13.317
30127W        W 1743   9.973   0.706   1.831
30128W        W 1744  37.367   3.303  14.980
30129W        W 1745  38.004   8.853   0.212
30130W        W 1746  44.048  36.848   1.781
30131W        W 1747   1.740  42.792  14.898
30132W        W 1748  33.436   2.234   5.477
30133W        W 1749  28.090  13.593  10.037
30134W        W 1750  36.988   8.040  10.726
30135W        W 1751  10.423  26.578   4.630
30136W        W 1752  30.987  30.686   0.048
30137W        W 1753   3.925  44.928   0.795
30138W        W 1754  37.195  11.905   2.159
30139W        W 1755  23.894   1.068  11.386
30140W        W 1756  42.296  43.998  12.566
30141W        W 1757  43.946  28.226  10.377
30142W        W 1758  12.295   2.773   3.793
30143W        W 1759  33.541  43.988   2.403
30144W        W 1760  32.616  43.764  12.151
30145W        W 1761   4.972  40.883   1.427
30146W        W 1762   3.366  38.270   1.403
30147W        W 1763  39.580  28.731  12.866
30148W        W 1764  12.287  14.534  12.582
30149W        W 1765  10.367  39.858   3.750
30150W        W 1766   6.170  42.506  12.053
30151W        W 1767  18.708   6.671   1.247
30152W        W 1768  26.841  34.364  13.898
30153W        W 1769  12.328  27.238  12.688
30154W        W 1770   3.500   2.388   2.402
30155W        W 1771  16.197   7.675   1.210
30156W        W 1772  10.390  14.761   3.679
30157W        W 1773  33.387   9.334  12.518
30158W        W 1774  25.661  27.049   2.857
30159W        W 1775  34.623  14.794  11.693
30160W        W 1776  20.164   4.895  11.645
30161W        W 1777  12.829  13.542   4.738
30162W        W 1778  16.801  43.880  12.949
30163W        W 1779  25.175  41.169   0.997
30164W        W 1780   2.703  36.158   1.404
30165W        W 1781  32.756  24.004  14.365
30166W        W 1782  42.926  26.246  10.025
30167W        W 1783  26.477  18.881  13.135
30168W        W 1784   9.748  16.735   4.321
30169W        W 1785  40.495  36.544  14.285
30170W        W 1786   3.493   5.351   2.732
30171W        W 1787  19.580  32.794  11.606
30172W        W 1788  19.008   2.384  11.974
30173W        W 1789  26.237  42.960   0.815
30174W        W 1790   1.072  29.510  13.305
30175W        W 1791  30.330   1.335   0.957
30176W        W 1792  11.727  24.650   2.619
30177W        W 1793  32.643   0.302   1.946
30178W        W 1794  26.017  43.833  10.659
30179W        W 1795  34.429  14.586   2.751
30180W        W 1796   9.758   8.201  12.434
30181W        W 1797  37.005   6.616   0.517
30182W        W 1798   7.919  28.720  14.943
30183W        W 1799   6.408  42.340  14.004
30184W        W 1800  28.075  36.599  14.999
30185W        W 1801  38.593  19.536   3.150
30186W        W 1802  44.166  14.097   0.642
30187W        W 1803  21.039   2.901  11.074
30188W        W 1804   5.723  15.837   2.664
30189W        W 1805   8.636  43.870   3.731
30190W        W 1806  10.105  27.626   1.874
30191W        W 1807   3.349  17.268  12.551
30192W        W 1808  19.317  34.033  11.588
30193W        W 1809   0.013  38.521   4.502
30194W        W 1810  44.714  29.074   1.775
30195W        W 1811  12.183  16.414   2.575
30196W        W 1812  11.881  43.852  13.826
30197W        W 1813  30.961  38.428   0.693
30198W        W 1814  13.266  28.255   3.653
30199W        W 1815  29.154  30.389  13.857
30200W        W 1816  39.072  42.979   3.054
30201W        W 1817  16.201  24.241   1.037
30202W        W 1818  43.419  30.147  11.090
30203W        W 1819  22.382  44.036   9.943
30204W        W 1820  15.710  36.337   3.422
30205W        W 1821   8.195   3.369   2.874
30206W        W 1822  21.763  33.019   2.675
30207W        W 1823  16.810   1.369   0.884
30208W        W 1824  16.043  11.968   0.363
30209W        W 1825  34.867  20.834   3.066
30210W        W 1826  12.839  14.553   5.080
30211W        W 1827  18.075  14.350  14.701
30212W        W 1828  37.507   2.738   2.250
30213W        W 1829   4.138   8.551   3.562
30214W        W 1830  26.896  15.549  10.315
30215W        W 1831  44.079   1.439  12.947
30216W        W 1832   5.784  27.709  10.555
30217W        W 1833  20.974  26.906  12.551
30218W        W 1834   5.897  19.717   3.730
30219W        W 1835  35.878  20.248   2.716
30220W        W 1836  26.597   4.780  12.033
30221W        W 1837  42.871  23.511   3.865
30222W        W 1838   4.247   6.923  11.383
30223W        W 1839   7.837  40.467  14.752
30224W        W 1840   5.638  34.919  12.365
30225W        W 1841   2.364  31.223  10.564
30226W        W 1842   6.921  33.947  11.538
30227W        W 1843  21.550   0.044  11.117
30228W        W 1844   7.414  10.235  13.720
30229W        W 1845  16.431  18.914   9.814
30230W        W 1846  18.655  35.504   4.596
30231W        W 1847  14.817   9.201  12.041
30232W        W 1848  10.215   1.203   2.760
30233W        W 1849  35.187  40.520   0.691
30234W        W 1850  44.875  15.867  14.706
30235W        W 1851  25.763  31.711   1.732
30236W        W 1852  44.303  43.866   3.683
30237W        W 1853   1.408   7.806   2.765
30238W        W 1854  24.916  37.137  10.397
30239W        W 1855   0.550   1.365  13.981
30240W        W 1856  18.401  19.554   4.593
30241W        W 1857  39.371  29.985  14.791
30242W        W 1858  10.797  38.503  13.584
30243W        W 1859  24.676   6.934   0.474
30244W        W 1860  17.244  39.888   9.893
30245W        W 1861   8.592   6.002  10.535
30246W        W 1862  13.492  33.132   4.130
30247W        W 1863   1.403  20.981  13.086
30248W        W 1864  30.439  10.111  11.418
30249W        W 1865  41.941  40.418   4.235
30250W        W 1866  30.568  26.919  12.530
30251W        W 1867   2.812  10.715   4.148
30252W        W 1868  24.477  20.474  14.979
30253W        W 1869   5.635  43.346  12.829
30254W        W 1870  41.546  38.864   4.180
30255W        W 1871  11.665   0.925  14.060
30256W        W 1872  43.898  12.619   1.902
30257W        W 1873  10.793  32.445   0.161
30258W        W 1874  24.688  16.628   1.212
30259W        W 1875  26.921   7.615   0.303
30260W        W 1876   5.955  38.065  13.966
30261W        W 1877   4.732  44.805   1.904
30262W        W 1878  44.936  15.824   0.954
30263W        W 1879  19.860  39.478   1.896
30264W        W 1880  22.342   1.728  11.215
30265W        W 1881  44.026  31.683  11.104
30266W        W 1882  38.961  26.511  11.169
30267W        W 1883  26.083  14.091   5.052
30268W        W 1884  18.251  24.643  10.443
30269W        W 1885   5.659  20.171   3.775
30270W        W 1886   9.146  40.508   3.078
30271W        W 1887  10.881  44.900   1.383
30272W        W 1888  26.117  14.351  13.070
30273W        W 1889  39.391   1.322  10.643
30274W        W 1890  16.030  27.873   4.274
30275W        W 1891  11.964  14.692  13.874
30276W        W 1892  18.149  36.536  14.553
30277W        W 1893  35.441   3.395   3.809
30278W        W 1894  40.892  29.445  12.405
30279W        W 1895  13.141   8.384  13.086
30280W        W 1896  19.821  40.513   0.214
30281W        W 1897  37.184  14.024  12.961
30282W        W 1898  18.492  36.769   1.022
30283W        W 1899  37.646  43.788   9.879
30284W        W 1900  30.835   2.599  10.864
30285W        W 1901   7.723   5.386  10.572
30286W        W 1902  13.335  33.173  14.432
30287W        W 1903  23.205   6.880   3.117
30288W        W 1904   7.574   7.725  12.405
30289W        W 1905  36.572  20.049   4.478
30290W        W 1906  16.651  44.248   2.437
30291W        W 1907  44.750  31.065  14.252
30292W        W 1908  23.043  26.558  13.808
30293W        W 1909   1.025  35.383  14.342
30294W        W 1910  39.865   8.402  10.675
30295W        W 1911   4.030   7.354  11.226
30296W        W 1912  21.259  15.358   2.784
30297W        W 1913  10.964  22.934   0.822
30298W        W 1914  20.199  43.964  11.482
30299W        W 1915  31.614  36.093   1.342
30300W        W 1916  32.663  18.308  11.453
30301W        W 1917  19.166  24.079  14.954
30302W        W 1918   9.654  37.553  12.853
30303W        W 1919   5.121  32.874   1.910
30304W        W 1920   8.738  42.960   0.443
30305W        W 1921  21.620  26.031   4.799
30306W        W 1922  27.382  35.589   3.837
30307W        W 1923  35.784  33.598   4.671
30308W        W 1924   2.691  32.080   2.739
30309W        W 1925  10.442   0.791   3.693
30310W        W 1926  12.378  30.989   1.842
30311W        W 1927   8.941   1.755  12.084
30312W        W 1928  40.792  40.076   4.210
30313W        W 1929  23.980  33.952   2.678
30314W        W 1930  24.550  36.582  14.754
30315W        W 1931  15.070   2.522  14.038
30316W        W 1932   8.166  29.646   0.503
30317W        W 1933   4.322  37.549  13.321
30318W        W 1934  41.270  32.643   3.085
30319W        W 1935   4.730   1.331  10.390
30320W        W 1936  37.340  32.142  13.909
30321W        W 1937   6.681  22.223  12.356
30322W        W 1938  40.746  29.175  14.887
30323W        W 1939   3.683  26.973   4.423
30324W        W 1940   6.315  23.583   0.930
30325W        W 1941  31.936   8.974  12.449
30326W        W 1942  11.365  32.532  12.958
30327W        W 1943  12.635  44.912  13.831
30328W        W 1944  14.181  21.567   2.855
30329W        W 1945  32.903  36.295   4.271
30330W        W 1946  30.594  29.759   4.492
30331W        W 1947  38.566  22.814   0.833
30332W        W 1948  24.629  42.948   2.258
30333W        W 1949  35.504  36.305   4.600
30334W        W 1950  36.301  42.595  14.120
30335W        W 1951  17.769  33.460  12.287
30336W        W 1952  39.988   9.803  13.919
30337W        W 1953  43.972  17.219   4.398
30338W        W 1954   2.869  20.295  13.868
30339W        W 1955  44.505  33.424   4.166
30340W        W 1956  28.853   3.781  14.722
30341W        W 1957  23.644   0.939   1.357
30342W        W 1958  27.846  15.805  11.663
30343W        W 1959  16.756   2.240  10.443
30344W        W 1960  25.501  30.598   5.092
30345W        W 1961   2.875  30.073   4.641
30346W        W 1962  36.162  35.053   4.543
30347W        W 1963  27.663  31.871   1.305
30348W        W 1964  35.707  12.485  13.299
30349W        W 1965  13.200  13.251   4.509
30350W        W 1966  30.512   2.952   2.721
30351W        W 1967  17.033   9.336   0.448
30352W        W 1968  14.195  31.725  12.548
30353W        W 1969  14.086  12.801  11.209
30354W        W 1970  40.524  33.745  14.444
30355W        W 1971  18.226   6.949  12.873
30356W        W 1972  40.060  11.855  13.581
30357W        W 1973  43.112  44.292   3.680
30358W        W 1974  31.580  26.852  13.533
30359W        W 1975   6.451  41.582   3.869
30360W        W 1976  17.726  42.573   4.213
30361W        W 1977  39.436  36.995   0.480
30362W        W 1978  23.951   8.961   0.906
30363W        W 1979  18.278   4.380   1.182
30364W        W 1980   4.909  14.106  11.071
30365W        W 1981  30.388  25.215  13.329
30366W        W 1982  22.690  19.502   1.836
30367W        W 1983  25.965   0.843  14.406
30368W        W 1984  21.696   3.774  11.622
30369W        W 1985   9.693  33.950   0.084
30370W        W 1986  37.447  28.950  14.845
30371W        W 1987  22.740   6.718  12.209
30372W        W 1988  35.139  17.820   0.975
30373W        W 1989  27.636  17.017  12.021
30374W        W 1990   0.830  21.600  13.899
30375W        W 1991  23.549  18.096   0.453
30376W        W 1992  25.836  26.127  11.488
30377W        W 1993  12.389  23.796  11.635
30378W        W 1994   7.408   6.271   1.327
30379W        W 1995  14.235  37.281  10.621
30380W        W 1996   2.257  20.574   2.813
30381W        W 1997   5.387  26.508  11.813
30382W        W 1998  31.566   9.409   0.210
30383W        W 1999   1.610  22.647   0.996
30384W        W 2000   2.333  37.824   1.221
30385W        W 2001  32.919  38.680  12.509
30386W        W 2002  41.542   1.133  13.887
30387W        W 2003   3.956  40.511  11.420
30388W        W 2004  27.525  34.360   2.247
30389W        W 2005  31.473  17.440   0.465
30390W        W 2006  21.504  20.779  13.633
30391W        W 2007  14.623  43.223   2.994
30392W        W 2008  15.262  15.562   4.029
30393W        W 2009  29.942  37.107   4.369
30394W        W 2010  16.018   3.374   1.949
30395W        W 2011  13.257  34.261  12.879
30396W        W 2012   5.130   0.885  13.198
30397W        W 2013  41.482   6.363   4.752
30398W        W 2014  10.298  16.367  12.957
30399W        W 2015   4.115  30.347   4.148
30400W        W 2016  22.668   2.815  13.008
30401W        W 2017  17.064  19.501  13.393
30402W        W 2018  24.677   2.697  12.950
30403W        W 2019  36.106   3.971   2.408
30404W        W 2020  29.041  13.811   3.275
30405W        W 2021  39.183  10.807  13.978
30406W        W 2022  34.789  17.121  11.790
30407W        W 2023  22.912  28.149   1.930
30408W        W 2024  18.698   9.930   1.324
30409W        W 2025   2.531   4.229   4.195
30410W        W 2026  32.982  25.673   0.954
30411W        W 2027   4.187  12.713   3.944
30412W        W 2028  25.658  11.795  12.467
30413W        W 2029  19.158  31.046   1.389
30414W        W 2030  21.149  36.140  10.166
30415W        W 2031  29.345  36.681   1.442
30416W        W 2032  38.796   4.781  14.985
30417W        W 2033  28.026  27.100  12.846
30418W        W 2034   7.464  19.192  14.840
30419W        W 2035  15.181  43.807   3.347
30420W        W 2036   1.828  28.363  13.561
30421W        W 2037  44.185   6.852   4.986
30422W        W 2038  27.702  27.428  14.468
30423W        W 2039  10.762  34.031  13.971
30424W        W 2040   3.449  17.612   4.717
30425W        W 2041  23.676   1.430   2.300
30426W        W 2042   8.446  34.618  10.722
30427W        W 2043  11.321  44.577  14.040
30428W        W 2044   5.766   3.831  10.769
30429W        W 2045  31.013  25.737   3.179
30430W        W 2046   6.171  23.909  10.745
30431W        W 2047  37.510  42.722  12.988
30432W        W 2048  33.974  25.777  14.855
30433W        W 2049   8.150  38.152   0.488
30434W        W 2050  37.570  39.658  12.061
30435W        W 2051   2.472  33.102  10.980
30436W        W 2052   6.157  19.208  12.898
30437W        W 2053  17.272  25.439   2.316
30438W        W 2054  15.375  11.824  11.149
30439W        W 2055   0.499  44.891   3.640
30440W        W 2056  20.781  37.635  11.564
30441W        W 2057  34.436  18.683  11.524
30442W        W 2058   9.683   8.162  14.992
30443W        W 2059  22.133  41.365   2.628
30444W        W 2060  32.354  44.827   3.823
30445W        W 2061  22.536  11.342   4.879
30446W        W 2062  26.526  16.264  11.908
30447W        W 2063  15.719  30.158   0.964
30448W        W 2064  19.466  15.658   1.991
30449W        W 2065  12.034   3.888   4.603
30450W        W 2066  21.636  11.185   4.327
30451W        W 2067  25.461   4.568  10.762
30452W        W 2068   3.101  11.137  11.957
30453W        W 2069  21.472  25.474   1.824
30454W        W 2070  26.940  42.300   3.322
30455W        W 2071  18.320  17.360  12.013
30456W        W 2072  13.450  11.238   0.622
30457W        W 2073  30.331  24.648  14.445
30458W        W 2074  21.357  14.500  11.743
30459W        W 2075  42.559  36.419   0.725
30460W        W 2076  26.765  27.896  11.665
30461W        W 2077  16.333   4.992   2.897
30462W        W 2078  31.505   2.987  14.836
30463W        W 2079   3.035  40.604  13.807
30464W        W 2080  40.837  44.333  13.263
30465W        W 2081  43.348   8.373  12.084
30466W        W 2082  32.096  41.176   2.862
30467W        W 2083  11.897   5.304   3.232
30468W        W 2084   8.232   2.536  11.446
30469W        W 2085  29.060  12.919   2.182
30470W        W 2086  29.090  30.885  13.057
30471W        W 2087   3.274   3.977  14.428
30472W        W 2088  33.462  37.484  14.128
30473W        W 2089  16.376   6.767  13.519
30474W        W 2090  24.193  21.499  12.892
30475W        W 2091   8.437   6.801  13.884
30476W        W 2092  18.678  12.945  10.664
30477W        W 2093  12.791  44.469   2.444
30478W        W 2094  12.381  16.608   3.346
30479W        W 2095  20.666   3.869  10.676
30480W        W 2096  29.973   9.751  14.500
30481W        W 2097  29.146  41.045  14.356
30482W        W 2098  34.734  10.589   3.221
30483W        W 2099  36.965  38.567  14.562
30484W        W 2100  34.850  25.184   2.386
30485W        W 2101  22.513   0.953   0.720
30486W        W 2102   4.042  12.637  14.282
30487W        W 2103  12.329   4.357   4.716
30488W        W 2104  19.065  13.162   3.658
30489W        W 2105   1.313  22.013   3.600
30490W        W 2106  10.208   3.790   2.479
30491W        W 2107  33.909  22.096  11.106
30492W        W 2108  10.222  39.489  10.699
30493W        W 2109   6.780   1.778   4.785
30494W        W 2110   6.716  43.930   1.363
30495W        W 2111  36.436  24.655   0.364
30496W        W 2112  31.471  26.896   3.233
30497W        W 2113  19.309   6.840   3.700
30498W        W 2114   4.806  21.190   2.842
30499W        W 2115  11.765  44.972  11.552
30500W        W 2116  18.736  15.329  12.596
30501W        W 2117  44.043  37.456   1.221
30502W        W 2118  21.581  19.479  10.683
30503W        W 2119   3.318  39.372   3.425
30504W        W 2120  42.795  23.979   1.554
30505W        W 2121  27.153  18.607  10.575
30506W        W 2122  40.867  34.123  14.357
30507W        W 2123  32.544  13.333   3.687
30508W        W 2124   1.420  12.892   3.421
30509W        W 2125   4.975  39.818   0.973
30510W        W 2126   2.487  23.496  10.548
30511W        W 2127  23.475  40.486  14.405
30512W        W 2128   0.805  25.490  13.549
30513W        W 2129  42.331   0.751  11.393
30514W        W 2130  43.674  40.173  13.527
30515W        W 2131  13.737   1.401   3.940
30516W        W 2132  22.441   1.974  12.089
30517W        W 2133  36.562  39.553   1.811
30518W        W 2134  44.380  38.409  11.800
30519W        W 2135  35.060  29.903   3.776
30520W        W 2136   2.435   3.511  13.492
30521W        W 2137  42.843   9.762   0.223
30522W        W 2138  17.817  24.500   4.140
30523W        W 2139  15.169  11.957   0.751
30524W        W 2140   5.796  21.762  13.818
30525W        W 2141  24.890   0.584   0.808
30526W        W 2142   7.525  28.739  13.834
30527W        W 2143   5.116  40.947  13.522
30528W        W 2144  28.650  41.562   1.910
30529W        W 2145  15.551  25.545  11.158
30530W        W 2146  41.483  42.957   9.840
30531W        W 2147   5.139  27.198  11.427
30532W        W 2148  34.194  44.791   1.727
30533W        W 2149  32.225  40.171  13.268
30534W        W 2150   2.147   4.363  11.167
30535W        W 2151  39.035  43.630  14.106
30536W        W 2152   9.359   7.740   2.903
30537W        W 2153  28.632  30.819  10.668
30538W        W 2154  11.399  36.950  11.610
30539W        W 2155  32.195   2.422   2.569
30540W        W 2156  33.856   0.753  11.915
30541W        W 2157  16.565  40.477  12.130
30542W        W 2158  25.072  33.818   4.186
30543W        W 2159  10.781   3.351  14.279
30544W        W 2160  10.899   5.230  11.496
30545W        W 2161   0.480  37.904   4.176
30546W        W 2162  13.556  34.517   4.289
30547W        W 2163   0.471  42.029  10.720
30548W        W 2164  26.936  18.004   2.723
30549W        W 2165  20.546  26.086  11.616
30550W        W 2166  39.804   1.384   3.852
30551W        W 2167  40.167   5.992  11.080
30552W        W 2168  43.788   9.108   2.789
30553W        W 2169  44.896  41.937  14.880
30554W        W 2170   8.834  39.822  12.892
30555W        W 2171  14.511  11.194  10.649
30556W        W 2172   0.713  20.685  13.456
30557W        W 2173  10.074  25.311   3.146
30558W        W 2174  34.180   2.579   3.715
30559W        W 2175  13.429   7.921  11.888
30560W        W 2176  11.292  20.437   1.732
30561W        W 2177   0.655  26.196   0.247
30562W        W 2178  33.931  23.004  14.867
30563W        W 2179   7.672  40.472   3.724
30564W        W 2180  18.459  35.167  14.158
30565W        W 2181   4.738  10.644   4.192
30566W        W 2182   0.218  32.488  13.454
30567W        W 2183  27.153   9.868  12.531
30568W        W 2184  29.608  14.187   1.466
30569W        W 2185  16.140  34.868   1.843
30570W        W 2186  10.602  34.838  12.589
30571W        W 2187   0.476   6.439  10.541
30572W        W 2188  25.009   0.812  14.959
30573W        W 2189  35.411  19.124   2.117
30574W        W 2190  36.670  12.054  10.529
30575W        W 2191   0.855  36.548  14.058
30576W        W 2192  41.547  43.492   0.631
30577W        W 2193   2.840  23.748  11.599
30578W        W 2194  36.037   7.480   1.697
30579W        W 2195  39.930  42.922   3.117
30580W        W 2196   4.849  11.855  11.613
30581W        W 2197  11.773  41.069  14.379
30582W        W 2198  11.564  35.177   4.028
30583W        W 2199   0.822   0.932  13.998
30584W        W 2200  44.830  20.000   0.833
30585W        W 2201  34.460  27.837   3.250
30586W        W 2202  40.481   1.541   1.904
30587W        W 2203   9.191  30.399  10.557
30588W        W 2204   0.839  44.733   0.552
30589W        W 2205  15.790   2.904  14.954
30590W        W 2206  44.360   2.350  13.482
30591W        W 2207  36.704   2.722   2.758
30592W        W 2208   4.943  38.786  13.469
30593W        W 2209   3.447  17.606  12.132
30594W        W 2210   7.918  39.685  11.484
30595W        W 2211  35.562  11.854   0.319
30596W        W 2212  21.090  26.003  14.302
30597W        W 2213   7.817  29.391  14.419
30598W        W 2214   7.558  19.552  13.951
30599W        W 2215   3.952  28.989   0.006
30600W        W 2216   1.865   8.399  14.928
30601W        W 2217  13.551  17.145   2.805
30602W        W 2218  26.986   2.683  11.597
30603W        W 2219  27.405  16.563  14.345
30604W        W 2220  31.523  37.121  11.561
30605W        W 2221  40.772  27.765  12.968
30606W        W 2222  20.434  24.658  12.062
30607W        W 2223  27.942  19.625   4.073
30608W        W 2224  44.518   0.698  10.961
30609W        W 2225  28.956   0.017  12.060
30610W        W 2226   3.303  22.465  10.743
30611W        W 2227  24.729  43.734  12.908
30612W        W 2228   0.508  37.356   4.032
30613W        W 2229  12.421   8.269   1.349
30614W        W 2230   9.366  21.976   3.704
30615W        W 2231  32.930  12.300   3.677
30616W        W 2232  32.576  29.517   2.723
30617W        W 2233  11.522   0.293   3.067
30618W        W 2234  24.428   1.142   4.255
30619W        W 2235  16.410  20.130   3.340
30620W        W 2236  32.555  15.837   0.329
30621W        W 2237   9.633  31.905  12.444
30622W        W 2238   5.417  13.750  14.803
30623W        W 2239  16.306  28.118   3.323
30624W        W 2240  38.393   5.836   2.906
30625W        W 2241  11.785  14.159  13.036
30626W        W 2242  17.170  13.228   0.233
30627W        W 2243  38.353  23.479  14.812
30628W        W 2244  38.977  42.659  14.373
30629W        W 2245  20.670  44.857  14.038
30630W        W 2246  35.417  41.328  11.556
30631W        W 2247  23.827  18.128  11.808
30632W        W 2248  28.261  33.401   0.564
30633W        W 2249  10.375  20.060  14.755
30634W        W 2250  11.831  27.632   4.965
30635W        W 2251   4.060  20.639   3.096
30636W        W 2252   3.461   4.214  12.375
30637W        W 2253   3.638  35.756   5.024
30638W        W 2254  12.722  29.176   1.674
30639W        W 2255  30.501  23.600   0.754
30640W        W 2256  30.903  39.069  12.060
30641W        W 2257  11.617  14.688  14.276
30642W        W 2258  41.884  41.100  14.391
30643W        W 2259   7.390   8.956   3.394
30644W        W 2260  33.916  31.069  11.960
30645W        W 2261  37.372   7.902  12.981
30646W        W 2262  24.155   2.726  12.938
30647W        W 2263  38.634  13.186  12.453
30648W        W 2264  29.469  11.166   3.205
30649W        W 2265  34.952  30.083  14.983
30650W        W 2266   9.248  43.558   4.013
30651W        W 2267  42.402  21.005   3.223
30652W        W 2268  22.143  37.349   2.012
30653W        W 2269   1.944  13.115  11.629
30654W        W 2270  36.076  30.393  13.398
30655W        W 2271  16.077  19.992  14.078
30656W        W 2272  25.678  16.557   4.601
30657W        W 2273   7.741  17.860  13.464
30658W        W 2274  14.868  25.602   1.224
30659W        W 2275  21.253  26.228   1.777
30660W        W 2276  29.875   8.432   3.997
30661W        W 2277  17.608  24.263   3.726
30662W        W 2278  11.684  20.187   4.740
30663W        W 2279  24.656  13.143  13.909
30664W        W 2280  16.811   8.742   3.299
30665W        W 2281   8.747   6.461   3.816
30666W        W 2282  15.953  34.095  14.340
30667W        W 2283   1.576   1.837  12.871
30668W        W 2284  22.510  25.602  10.565
30669W        W 2285  24.305  29.011   4.653
30670W        W 2286  31.934  15.991   1.377
30671W        W 2287  24.989  20.520  14.807
30672W        W 2288  36.068  17.497   5.039
30673W        W 2289  17.984  15.981   3.654
30674W        W 2290  30.005  43.263  11.140
30675W        W 2291  41.497  23.642  14.240
30676W        W 2292   9.403  21.650  12.320
30677W        W 2293  28.794  36.172  11.541
30678W        W 2294  23.365  24.536   1.090
30679W        W 2295  41.825  29.539  13.361
30680W        W 2296  34.838  31.932   3.639
30681W        W 2297  42.946  21.735   2.905
30682W        W 2298  25.834  30.085  12.120
30683W        W 2299   0.410  39.089   0.781
30684W        W 2300   5.207   9.892  14.814
30685W        W 2301  23.984  25.585  11.142
30686W        W 2302  29.002  33.822   4.116
30687W        W 2303  43.694   1.990   1.502
30688W        W 2304  42.316  14.528   2.219
30689W        W 2305  42.803   9.381   2.672
30690W        W 2306   9.934  38.867  10.952
30691W        W 2307   7.134  19.283  13.069
30692W        W 2308  26.076  19.701   2.747
30693W        W 2309  20.681  13.387  14.247
30694W        W 2310  37.104  35.005   1.874
30695W        W 2311  40.657  21.448   2.820
30696W        W 2312   0.365   3.873  14.245
30697W        W 2313  21.073  33.181  14.126
30698W        W 2314  28.819  13.263  11.511
30699W        W 2315  35.467  44.493   1.714
30700W        W 2316  19.764  30.982  11.103
30701W        W 2317   4.325  18.048  12.108
30702W        W 2318   1.895  43.301  11.590
30703W        W 2319  10.068  38.583  10.541
30704W        W 2320  40.455   2.982  11.168
30705W        W 2321  18.884  35.891  14.909
30706W        W 2322  17.618   5.182   4.422
30707W        W 2323  25.585  11.557   4.546
30708W        W 2324  44.553  23.192  14.277
30709W        W 2325  32.899   4.516   4.815
30710W        W 2326  25.269  20.596   3.277
30711W        W 2327  25.408  35.321  12.288
30712W        W 2328  36.905  43.611   3.712
30713W        W 2329  40.957  22.410   1.413
30714W        W 2330  17.869   7.209   4.534
30715W        W 2331  38.009  18.265   2.296
30716W        W 2332   7.957  35.549  13.779
30717W        W 2333  20.672  16.807   3.162
30718W        W 2334  39.524  34.063  12.502
30719W        W 2335   8.349  37.546  11.600
30720W        W 2336  24.924  43.933  14.579
30721W        W 2337  32.846  36.379  11.042
30722W        W 2338  35.822   0.368   3.136
30723W        W 2339  15.737   7.519   2.796
30724W        W 2340   8.150  37.298  12.453
30725W        W 2341  29.938   4.849   0.177
30726W        W 2342  38.360  31.515   4.655
30727W        W 2343  16.652  18.273  13.868
30728W        W 2344  33.031  42.330   4.462
30729W        W 2345  37.595  27.908   4.612
30730W        W 2346   7.463  11.035  14.373
30731W        W 2347  12.801  19.579   2.782
30732W        W 2348  40.773   5.181  11.166
30733W        W 2349  31.515  30.030   5.428
30734W        W 2350  38.566  18.241   2.981
30735W        W 2351  43.308  16.352   3.765
30736W        W 2352  43.786  10.089  13.052
30737W        W 2353   6.764  42.902   2.426
30738W        W 2354  40.526  34.517   4.933
30739W        W 2355  42.421  34.803   1.396
30740W        W 2356  17.132   9.610  12.059
30741W        W 2357   3.696  13.462   2.225
30742W        W 2358   9.894  13.649  10.742
30743W        W 2359   0.982  30.168   2.873
30744W        W 2360  38.974  29.684   1.163
30745W        W 2361  27.204  32.050  12.353
30746W        W 2362  20.575   7.146  13.833
30747W        W 2363  21.673  32.449   4.350
30748W        W 2364   1.403  17.157  13.892
30749W        W 2365  37.550  36.531  11.527
30750W        W 2366  36.677  37.876   4.175
30751W        W 2367   6.664  10.029   0.812
30752W        W 2368   8.796   5.377  12.089
30753W        W 2369  11.285   1.935   2.365
30754W        W 2370   0.996  33.412   4.122
30755W        W 2371  40.155  29.080  10.828
30756W        W 2372   4.217  18.755   1.544
30757W        W 2373  17.637  38.041   2.631
30758W        W 2374  41.265  33.961   3.730
30759W        W 2375  39.197   1.791  10.466
30760W        W 2376  43.843  24.964   3.865
30761W        W 2377  15.067   9.638  14.810
30762W        W 2378   9.643  39.535  10.907
30763W        W 2379  28.159  20.075  13.066
30764W        W 2380   6.232  41.044  12.454
30765W        W 2381  40.414  44.690   0.822
30766W        W 2382  44.843  42.106  13.892
30767W        W 2383   0.779  43.360   1.176
30768W        W 2384   9.629  21.517  14.749
30769W        W 2385  33.062  14.620  13.884
30770W        W 2386   0.304  30.068  13.091
30771W        W 2387  13.016   3.221   4.097
30772W        W 2388  16.584  42.329   0.365
30773W        W 2389  36.918  39.957   4.262
30774W        W 2390  13.263   3.676   4.105
30775W        W 2391  20.664  29.602   4.648
30776W        W 2392  13.119  42.990   0.194
30777W        W 2393  33.915  30.657   2.324
30778W        W 2394  15.105   5.350  14.052
30779W        W 2395  40.526  44.954  14.743
30780W        W 2396   2.244  43.352   2.687
30781W        W 2397   2.389  32.874   2.292
30782W        W 2398  25.180  28.267  13.949
30783W        W 2399  26.106  14.853   3.769
30784W        W 2400  32.880  34.803  14.959
30785W        W 2401  34.083  44.899   3.161
30786W        W 2402  16.021  31.484  10.563
30787W        W 2403  38.875  43.729   0.853
30788W        W 2404   5.740  35.237  14.844
30789W        W 2405  28.456  27.774   3.744
30790W        W 2406  29.489  37.908  12.663
30791W        W 2407  13.542  13.744  11.188
30792W        W 2408   0.919   1.300  12.067
30793W        W 2409  15.302  33.630   1.554
30794W        W 2410  11.414  15.983   4.940
30795W        W 2411  26.978  33.041  13.723
30796W        W 2412  36.354   0.969   0.029
30797W        W 2413  16.893  13.253  11.345
30798W        W 2414  33.125  42.839  12.142
30799W        W 2415  22.790  35.677   0.912
30800W        W 2416  21.734  25.835   3.870
30801W        W 2417  29.970  43.507   4.117
30802W        W 2418  37.927  10.327  13.415
30803W        W 2419  34.432  18.195  13.267
30804W        W 2420   7.180  16.653   3.704
30805W        W 2421  25.959  32.877  12.036
30806W        W 2422  20.068  10.746  13.133
30807W        W 2423  31.759  22.781   3.845
30808W        W 2424  36.491  44.813  14.587
30809W        W 2425  27.538  36.883   4.361
30810W        W 2426   1.535  24.292  10.923
30811W        W 2427  25.511  14.689  13.532
30812W        W 2428  34.100  26.970   4.792
30813W        W 2429  18.260  17.050  12.408
30814W        W 2430   6.338  15.345  14.406
30815W        W 2431  33.553  21.105   2.606
30816W        W 2432  10.584  10.224  13.887
30817W        W 2433  41.184  32.992   3.836
30818W        W 2434  20.085  22.125  14.587
30819W        W 2435  12.784   8.155   2.293
30820W        W 2436  35.961  14.561  14.893
30821W        W 2437  26.251   9.138   0.248
30822W        W 2438   6.415  39.442   2.828
30823W        W 2439  38.564  23.815   0.747
30824W        W 2440  37.060   0.368   3.992
30825W        W 2441   5.963  22.432   1.400
30826W        W 2442  28.130   8.436  12.472
30827W        W 2443  30.469  36.322  14.011
30828W        W 2444  28.419  30.950   1.229
30829W        W 2445  22.158  27.873   2.763
30830W        W 2446  27.639   9.791  14.306
30831W        W 2447  11.628  35.023  12.506
30832W        W 2448  14.647  40.503  14.053
30833W        W 2449  27.192  27.063   3.611
30834W        W 2450  27.109  10.371   1.306
30835W        W 2451  11.146  17.579   0.811
30836W        W 2452  22.235  23.006  12.783
30837W        W 2453  24.005  37.999  14.158
30838W        W 2454   6.237  21.488  14.391
30839W        W 2455   8.210  36.178   0.183
30840W        W 2456  23.503  23.640  12.545
30841W        W 2457  20.328  44.918   1.139
30842W        W 2458  15.019  24.328  11.591
30843W        W 2459   7.347  14.331   3.830
30844W        W 2460  29.897  35.922  10.733
30845W        W 2461  35.942  26.638   3.558
30846W        W 2462  43.318  25.490   3.126
30847W        W 2463  39.048  28.648  11.576
30848W        W 2464  19.333  21.971  14.600
30849W        W 2465  42.132  36.350   1.071
30850W        W 2466  25.997  33.458  10.656
30851W        W 2467  35.783   4.838  14.587
30852W        W 2468   0.439   1.199  12.286
30853W        W 2469  12.802   6.272   4.471
30854W        W 2470  17.530   9.310  12.227
30855W        W 2471   6.326   2.888   0.917
30856W        W 2472  37.335   5.384  11.884
30857W        W 2473   8.248  23.159   1.391
30858W        W 2474  39.395  39.388   2.139
30859W        W 2475  11.022  42.844  12.877
30860W        W 2476   7.603  13.072  11.126
30861W        W 2477  16.038  38.414  10.721
30862W        W 2478  43.785  34.463   3.141
30863W        W 2479  37.093  40.972   3.319
30864W        W 2480  24.027  22.665   0.374
30865W        W 2481  12.587  35.634   0.143
30866W        W 2482  32.276  16.219   1.025
30867W        W 2483  44.168  20.615   2.873
30868W        W 2484  18.721  28.810   3.218
30869W        W 2485  30.612  36.078   2.295
30870W        W 2486   0.151  22.956   4.264
30871W        W 2487  36.935   7.072   2.434
30872W        W 2488  34.060  21.809  13.985
30873W        W 2489   9.926   5.647  13.917
30874W        W 2490   5.103   7.947  10.489
30875W        W 2491  41.074   2.505   4.186
30876W        W 2492  26.028  30.428   0.535
30877W        W 2493  24.541  23.309  11.194
30878W        W 2494  29.867  32.447   3.233
30879W        W 2495   9.303  34.449   0.692
30880W        W 2496  17.247  43.426  12.083
30881W        W 2497  30.589  15.667   2.196
30882W        W 2498  40.756   8.844   2.767
30883W        W 2499  15.569  12.224   0.486
30884W        W 2500   3.622  17.074   4.035
30885W        W 2501  27.641  41.638   1.023
30886W        W 2502   2.206  15.615   2.893
30887W        W 2503  34.553  39.200   2.610
30888W        W 2504  33.301  22.620  11.549
30889W        W 2505  29.911   6.679   3.361
30890W        W 2506  25.580  20.691  10.635
30891W        W 2507  18.527  17.923  11.261
30892W        W 2508   0.821   3.679   1.299
30893W        W 2509  23.800  28.485  11.776
30894W        W 2510  31.830  16.963   2.969
30895W        W 2511  43.813  15.223  12.113
30896W        W 2512  43.656  13.915  14.367
30897W        W 2513  12.230  30.555  13.585
30898W        W 2514   6.826  25.155   3.586
30899W        W 2515  33.299  23.064  11.862
30900W        W 2516  22.228   8.401   2.407
30901W        W 2517  31.688  29.208   3.017
30902W        W 2518  32.372  34.058  12.826
30903W        W 2519  25.550  26.903  14.025
30904W        W 2520  36.292  14.632   0.309
30905W        W 2521  11.340  39.684   2.486
30906W        W 2522  27.676   9.552  11.724
30907W        W 2523  15.824   6.308   5.058
30908W        W 2524   4.678  18.597   1.390
30909W        W 2525   9.341  29.752  10.955
30910W        W 2526  42.791  36.976   4.591
30911W        W 2527  40.284  12.580   1.301
30912W        W 2528  29.217  35.553   1.441
30913W        W 2529  42.074   2.817   3.985
30914W        W 2530   6.417  36.092  10.651
30915W        W 2531  34.387  35.869  11.237
30916W        W 2532  36.196   9.749   2.366
30917W        W 2533  42.757  25.258  10.229
30918W        W 2534   6.603  15.779  13.310
30919W        W 2535   0.132  14.104   2.321
30920W        W 2536  17.874   1.278  13.457
30921W        W 2537  44.764   8.407   4.121
30922W        W 2538  11.240  23.466  13.672
30923W        W 2539  32.736  34.504   4.635
30924W        W 2540  11.547   5.054  12.024
30925W        W 2541  28.004  15.350  10.738
30926W        W 2542  29.099  21.096  11.411
30927W        W 2543   0.566  23.117   2.793
30928W        W 2544  25.037  22.926  11.954
30929W        W 2545  27.866  42.666   0.993
30930W        W 2546  39.841  12.400  14.561
30931W        W 2547  33.612  15.298  13.072
30932W        W 2548  23.445  42.382  13.103
30933W        W 2549  30.152  38.923   0.441
30934W        W 2550  40.753  29.723  13.335
30935W        W 2551  36.582  40.758   0.950
30936W        W 2552   2.880  33.190   3.526
30937W        W 2553  18.205  23.622   2.260
30938W        W 2554  13.101  10.461  14.252
30939W        W 2555  10.747   0.703  14.069
30940W        W 2556   6.162   1.345  10.477
30941W        W 2557  26.684   5.307   3.675
30942W        W 2558  13.327  20.978  12.143
30943W        W 2559  19.466  15.450  11.982
30944W        W 2560  36.051   5.652   1.147
30945W        W 2561  10.167  10.886   4.106
30946W        W 2562  17.619   2.914   3.763
30947W        W 2563  13.430  11.753  13.984
30948W        W 2564  32.016  17.667   4.539
30949W        W 2565  17.134  27.010  12.408
30950W        W 2566   0.192  32.744   2.854
30951W        W 2567  32.027  36.876   3.409
30952W        W 2568  19.601  37.531   0.872
30953W        W 2569  34.236  11.532   3.618
30954W        W 2570  38.968  19.466  11.554
30955W        W 2571   3.280  24.415   2.802
30956W        W 2572   9.871  21.993  10.621
30957W        W 2573  36.971  32.807   0.248
30958W        W 2574  37.019  23.326   4.112
30959W        W 2575  29.982  15.151  10.898
30960W        W 2576  42.459  36.452  14.702
30961W        W 2577  32.065  43.758  10.713
30962W        W 2578  16.032  16.751  13.436
30963W        W 2579   0.856   5.191  11.551
30964W        W 2580  11.500  33.316   5.167
30965W        W 2581  39.825   4.209  11.084
30966W        W 2582  12.994  19.851   4.979
30967W        W 2583  26.683  34.743   0.231
30968W        W 2584  29.683  24.200  12.602
30969W        W 2585  23.918  30.924  14.466
30970W        W 2586   0.413  27.171  14.141
30971W        W 2587   2.983  21.532   4.221
30972W        W 2588  13.045  39.727  11.537
30973W        W 2589   6.251  36.998   0.227
30974W        W 2590  25.711  39.488   1.817
30975W        W 2591  34.823   8.855  11.351
30976W        W 2592  14.397  40.252   5.197
30977W        W 2593   4.676  17.759  11.853
30978W        W 2594  35.023  21.564   1.303
30979W        W 2595  33.540  26.550  11.344
30980W        W 2596  21.244  19.182  11.052
30981W        W 2597  13.774  38.491   0.427
30982W        W 2598  16.246   1.361   4.823
30983W        W 2599   0.311  11.611  13.089
30984W        W 2600  34.464  36.064  12.059
30985W        W 2601  38.880  19.525  14.490
30986W        W 2602  11.593  31.676   3.871
30987W        W 2603   3.816  11.596  14.300
30988W        W 2604  20.635  27.167  11.711
30989W        W 2605  22.702  27.478  12.679
30990W        W 2606   6.494   0.388  11.172
30991W        W 2607  20.454  23.077   0.784
30992W        W 2608  17.682  17.610  13.703
30993W        W 2609  43.203  12.777   4.902
30994W        W 2610  31.537  38.012   4.238
30995W        W 2611  37.737   8.155   1.336
30996W        W 2612  16.256  28.727  11.447
30997W        W 2613  44.371   0.123   4.601
30998W        W 2614  23.826   6.766  14.306
30999W        W 2615   3.047  17.422  13.848
31000W        W 2616  21.706  10.712   3.121
31001W        W 2617  32.284  10.692  11.151
31002W        W 2618  40.916  12.637  13.304
31003W        W 2619  41.819  39.279  11.115
31004W        W 2620  24.712  20.037  12.988
31005W        W 2621  17.803  41.449  14.950
31006W        W 2622  19.488   8.403   4.086
31007W        W 2623  39.368   6.894   1.515
31008W        W 2624  17.790   9.797  11.438
31009W        W 2625  42.519  17.198   0.429
31010W        W 2626  36.253  25.024  14.593
31011W        W 2627  26.545   1.785   0.904
31012W        W 2628   7.968  23.529  13.341
31013W        W 2629  23.615  36.454   0.855
31014W        W 2630  22.768  41.475   1.484
31015W        W 2631   5.238   6.133  12.903
31016W        W 2632   3.185  18.362   1.457
31017W        W 2633  35.853  29.565   4.564
31018W        W 2634  13.646  21.807   0.285
31019W        W 2635  36.076  18.352   0.969
31020W        W 2636  25.982   2.345   1.261
31021W        W 2637  30.128  38.058  10.903
31022W        W 2638  35.844  36.712   0.994
31023W        W 2639  44.351  13.644  10.399
31024W        W 2640   7.490  34.775   0.726
31025W        W 2641  12.833  14.628  14.876
31026W        W 2642  32.642  41.260   0.182
31027W        W 2643   1.136  10.097  12.535
31028W        W 2644  12.183   9.093  12.513
31029W        W 2645  31.188   1.610  13.780
31030W        W 2646   7.596  44.809   0.990
31031W        W 2647  21.563   1.954   0.462
31032W        W 2648   8.693   9.581  11.033
31033W        W 2649  37.830  21.179  10.488
31034W        W 2650  43.043  22.226  13.487
31035W        W 2651  14.826  16.230  14.710
31036W        W 2652   4.276  33.775  14.487
31037W        W 2653   5.984  38.989  10.639
31038W        W 2654  14.777  23.602   3.099
31039W        W 2655   3.394   9.657   0.970
31040W        W 2656  43.694  33.488  14.413
31041W        W 2657  31.621   8.505   3.410
31042W        W 2658  41.328  19.636  14.300
31043W        W 2659  35.133   0.722   2.642
31044W        W 2660   0.838  11.230   2.903
31045W        W 2661  25.156  24.568   1.884
31046W        W 2662  24.083   3.153   0.154
31047W        W 2663  16.582  16.035   2.258
31048W        W 2664  24.267  35.541  11.294
31049W        W 2665  30.852  21.670   2.274
31050W        W 2666  27.984   9.936   4.402
31051W        W 2667  24.495  18.358  11.100
31052W        W 2668  29.162  37.980  11.328
31053W        W 2669  18.742  16.327   3.407
31054W        W 2670   5.988  11.377   2.234
31055W        W 2671  16.143  30.605   2.670
31056W        W 2672  40.985  37.955   3.286
31057W        W 2673  29.084   9.405  12.959
31058W        W 2674  15.661   7.945  14.547
31059W        W 2675  31.121  13.635   0.371
31060W        W 2676   6.805  34.316   0.011
31061W        W 2677  22.479  31.917   4.155
31062W        W 2678  23.602  41.558   0.892
31063W        W 2679  12.283  16.624  12.041
31064W        W 2680  14.186  28.588  12.080
31065W        W 2681  17.882  19.328   1.610
31066W        W 2682  10.186  33.870  14.931
31067W        W 2683   5.899  32.116  13.495
31068W        W 2684   8.019   6.770  12.343
31069W        W 2685  28.499  44.219  10.548
31070W        W 2686   4.460  14.486  13.457
31071W        W 2687  32.916  23.292   2.960
31072W        W 2688  15.879   3.225  11.106
31073W        W 2689  20.454  12.658  11.125
31074W        W 2690   7.154  30.205   4.828
31075W        W 2691  11.934  12.925   2.768
31076W        W 2692  34.366  36.998   3.380
31077W        W 2693  30.212  30.174   3.532
31078W        W 2694   3.164  28.920  13.191
31079W        W 2695  27.427  32.463  13.892
31080W        W 2696  44.288   1.481  14.441
31081W        W 2697  40.047   4.705  12.487
31082W        W 2698  24.127  44.939  12.385
31083W        W 2699  24.492  32.416  14.842
31084W        W 2700  37.241  12.713   2.290
31085W        W 2701  34.380  38.872   0.157
31086W        W 2702  12.917  34.607  14.766
31087W        W 2703  32.433  40.017  10.686
31088W        W 2704   4.924  27.708  10.615
31089W        W 2705  39.890  43.776   4.168
31090W        W 2706  15.736  24.161   1.838
31091W        W 2707  18.374   2.317   3.757
31092W        W 2708  44.864  34.655   0.881
31093W        W 2709  31.613  26.443   2.104
31094W        W 2710  44.472  22.703  13.052
31095W        W 2711  25.138   1.485   0.395
31096W        W 2712  17.583   5.889   0.292
31097W        W 2713  44.681  13.220   2.695
31098W        W 2714  43.062  26.024   4.138
31099W        W 2715   8.713  22.870  13.347
31100W        W 2716  25.307  18.625  13.998
31101W        W 2717  32.181  21.811  12.594
31102W        W 2718  35.471  21.030   0.790
31103W        W 2719  40.506  20.539   2.637
31104W        W 2720  12.683  19.312  11.924
31105W        W 2721  27.598  16.332   1.773
31106W        W 2722  35.127  35.350  13.883
31107W        W 2723  20.136  32.814   0.316
31108W        W 2724  25.024  29.247  13.947
31109W        W 2725  31.014  18.479   3.576
31110W        W 2726  17.352  20.574   3.467
31111W        W 2727  36.024  36.350   2.329
31112W        W 2728  40.180  19.086  11.886
31113W        W 2729  18.490  32.618   2.220
31114W        W 2730  41.812  23.297   3.274
31115W        W 2731  33.348  14.130   4.528
31116W        W 2732  35.336  37.423   4.730
31117W        W 2733   1.052   0.808   1.427
31118W        W 2734  29.442  41.870  13.329
31119W        W 2735  31.900  21.417  10.333
31120W        W 2736  14.538  17.083  11.082
31121W        W 2737  18.754  27.613  13.005
31122W        W 2738  39.088  37.862   2.658
31123W        W 2739  13.130  23.879  10.664
31124W        W 2740  25.788   9.742   0.746
31125W        W 2741  23.732  44.214   2.880
31126W        W 2742  42.725  35.125   0.370
31127W        W 2743  31.951   1.861   3.826
31128W        W 2744   4.493  38.583   4.567
31129W        W 2745  44.920  17.117   1.512
31130W        W 2746  15.612  40.949  13.355
31131W        W 2747  33.011  42.846   3.704
31132W        W 2748  16.061  11.131   1.260
31133W        W 2749   3.674  32.964   1.724
31134W        W 2750  34.878   0.379  12.539
31135W        W 2751  43.528  11.363   3.792
31136W        W 2752  41.035  20.450  14.500
31137W        W 2753   0.562   4.911   3.642
31138W        W 2754  14.719  23.600   2.073
31139W        W 2755  14.721   2.363  13.336
31140W        W 2756  17.595  21.197  10.094
31141W        W 2757  40.214  34.619  13.352
31142W        W 2758  39.601   9.591   2.260
31143W        W 2759  20.749   7.170   4.043
31144W        W 2760   5.844  27.554  11.048
31145W        W 2761  23.290  32.585  12.918
31146W        W 2762   8.911  30.928   4.086
31147W        W 2763  11.943  19.899  13.738
31148W        W 2764  38.281  23.993   2.208
31149W        W 2765   4.367  44.172   2.411
31150W        W 2766  31.693   2.709  14.446
31151W        W 2767  41.479  38.057  10.325
31152W        W 2768   0.923  12.328  14.891
31153W        W 2769  18.045  30.554  11.157
31154W        W 2770  28.684   8.081   4.430
31155W        W 2771  31.014  24.016  14.532
31156W        W 2772  35.379  42.369  14.104
31157W        W 2773  10.136  16.557  12.081
31158W        W 2774  18.077   7.753   0.847
31159W        W 2775  43.911  41.964  10.727
31160W        W 2776  42.593  22.479   1.043
31161W        W 2777  31.579   5.990   3.730
31162W        W 2778  25.260  21.427  12.089
31163W        W 2779   0.698  33.933  14.448
31164W        W 2780  12.080   3.312   2.128
31165W        W 2781   1.952  23.487   2.774
31166W        W 2782  17.695  16.571  13.932
31167W        W 2783   8.263  25.097  12.013
31168W        W 2784  32.506  22.926   0.677
31169W        W 2785  33.081   3.141   2.469
31170W        W 2786  16.766   6.713   3.766
31171W        W 2787   6.504   8.610  13.922
31172W        W 2788   1.264   3.792   4.708
31173W        W 2789  35.520  37.924  13.034
31174W        W 2790  10.295  40.578   4.083
31175W        W 2791  36.309  12.881   4.796
31176W        W 2792  25.044  39.608   3.182
31177W        W 2793  26.073  11.282   0.384
31178W        W 2794  44.481  43.193  14.134
31179W        W 2795  38.449  15.742  12.025
31180W        W 2796   3.502  41.200   0.227
31181W        W 2797  24.891  28.250  12.979
31182W        W 2798  27.029  20.763   0.820
31183W        W 2799  24.699  29.187  13.189
31184W        W 2800  43.195  33.403   0.822
31185W        W 2801  19.863   9.247  12.035
31186W        W 2802  15.961  37.521   3.355
31187W        W 2803   8.779   5.136   0.532
31188W        W 2804  36.622  19.626   2.822
31189W        W 2805  42.785  26.408   4.885
31190W        W 2806  22.718  42.821  11.127
31191W        W 2807  14.142   2.993   2.174
31192W        W 2808  11.700  31.170   3.786
31193W        W 2809  12.114  18.179   1.281
31194W        W 2810   8.681  21.489   3.208
31195W        W 2811  15.185  44.489  12.907
31196W        W 2812  42.810  10.817  13.378
31197W        W 2813  12.440  19.776   0.759
31198W        W 2814   9.717  33.089  11.730
31199W        W 2815  31.954  27.003   4.955
31200W        W 2816  26.471   0.374   4.168
31201W        W 2817  27.938  20.776  14.756
31202W        W 2818  37.368  27.727  11.146
31203W        W 2819   2.550  39.688  13.932
31204W        W 2820  23.833  38.728   9.871
31205W        W 2821  24.172  10.043   3.698
31206W        W 2822  24.201  25.634  13.783
31207W        W 2823   7.027  29.900   0.827
31208W        W 2824  37.057  19.892   4.291
31209W        W 2825  20.578  31.835   3.743
31210W        W 2826  35.593   4.597   4.873
31211W        W 2827   0.267  31.715   0.785
31212W        W 2828  24.048  20.732  13.903
31213W        W 2829  37.181  30.641  14.004
31214W        W 2830  43.367   1.198  14.923
31215W        W 2831  10.837   3.222   1.020
31216W        W 2832   7.927  34.937   0.084
31217W        W 2833  27.111  17.828  13.538
31218W        W 2834   9.057  28.091   4.687
31219W        W 2835  42.036  19.935   1.053
31220W        W 2836  28.103  24.690   3.868
31221W        W 2837  21.329   6.607   4.091
31222W        W 2838  26.550   9.655   4.422
31223W        W 2839   1.946   4.168  14.224
31224W        W 2840  44.229  24.933   4.619
31225W        W 2841  42.479  27.079   3.815
31226W        W 2842  16.970  22.132   0.238
31227W        W 2843  44.767  33.118  14.818
31228W        W 2844  14.719  18.332  13.531
31229W        W 2845   4.190  39.908   1.903
31230W        W 2846  10.959  29.618  13.205
31231W        W 2847  15.141  13.092  13.781
31232W        W 2848  29.422  24.844   4.564
31233W        W 2849   6.945  29.075  11.607
31234W        W 2850  23.580   3.694  10.804
31235W        W 2851  18.662   5.914   0.802
31236W        W 2852  30.927  38.772   3.289
31237W        W 2853   0.697   8.701   1.241
31238W        W 2854  41.496  32.295   9.982
31239W        W 2855  35.611  13.042   4.568
31240W        W 2856  42.692   1.030   2.295
31241W        W 2857  34.102  28.289  12.511
31242W        W 2858  31.846  13.875  12.987
31243W        W 2859  37.461  13.549   0.276
31244W        W 2860  24.499   1.354   2.755
31245W        W 2861  29.642   4.894   2.889
31246W        W 2862   7.392   1.669   4.147
31247W        W 2863  25.589   5.697  11.906
31248W        W 2864  25.118  17.851   1.526
31249W        W 2865  27.793  18.200   2.505
31250W        W 2866  17.305  41.499  12.524
31251W        W 2867  32.672  15.712   1.381
31252W        W 2868  22.720  40.040   4.530
31253W        W 2869  29.661  44.463  13.596
31254W        W 2870  37.621  36.654   1.760
31255W        W 2871  10.775  24.092  13.437
31256W        W 2872  35.065  30.158   1.071
31257W        W 2873  29.126   7.467   1.967
31258W        W 2874   5.766  21.880   0.897
31259W        W 2875  25.791   7.307   3.007
31260W        W 2876  44.281  36.762   4.175
31261W        W 2877  21.194  22.487   2.609
31262W        W 2878  38.828   1.974   3.264
31263W        W 2879  29.525  30.574  13.092
31264W        W 2880  34.862  12.313  11.578
31265W        W 2881  41.576  28.303  13.831
31266W        W 2882  38.578  14.638  14.885
31267W        W 2883  17.068  36.240  11.130
31268W        W 2884   3.191  36.264   1.260
31269W        W 2885  44.962  36.528   4.969
31270W        W 2886  22.813  32.591   0.451
31271W        W 2887  36.401  34.313   0.825
31272W        W 2888  15.595  35.013   4.551
31273W        W 2889  40.598  17.646  12.469
31274W        W 2890  16.023  30.531   4.179
31275W        W 2891  31.225  11.320  12.134
31276W        W 2892  27.032  43.358   1.436
31277W        W 2893   1.962   6.344  13.538
31278W        W 2894   1.839  22.010  13.829
31279W        W 2895  36.334  31.109  12.156
31280W        W 2896  35.928   4.907   3.302
31281W        W 2897  18.325  43.799   4.755
31282W        W 2898   9.637  26.472   1.826
31283W        W 2899  36.521  19.111  11.951
31284W        W 2900  21.074  33.597   4.636
31285W        W 2901   3.407  30.884   2.117
31286W        W 2902  23.157  29.632   4.665
31287W        W 2903  27.007  44.252  14.721
31288W        W 2904  29.800  13.272   5.025
31289W        W 2905  41.011  22.571   4.604
31290W        W 2906  31.694  20.107  12.964
31291W        W 2907  11.807  23.049  13.119
31292W        W 2908   8.072  26.539  14.719
31293W        W 2909  19.751  30.673  10.682
31294W        W 2910  31.848   7.248   1.650
31295W        W 2911  23.581  35.580  14.558
31296W        W 2912   4.893   4.435   1.784
31297W        W 2913  24.204  42.733   2.114
31298W        W 2914  44.753  29.076   4.503
31299W        W 2915  36.996   1.892  12.629
31300W        W 2916  13.788  12.774  11.622
31301W        W 2917  26.209   0.390   1.993
31302W        W 2918   3.711  10.315   4.596
31303W        W 2919   1.454  19.677  10.641
31304W        W 2920  28.018  25.159   4.048
31305W        W 2921  29.627  32.919  12.488
31306W        W 2922   2.283  43.090  10.333
31307W        W 2923  12.758  36.110   3.616
31308W        W 2924  36.498  32.325  10.340
31309W        W 2925  33.659  43.430  14.946
31310W        W 2926   3.534  27.118  13.043
31311W        W 2927   3.423  33.959  13.447
31312W        W 2928  21.022  11.385  10.677
31313W        W 2929   7.682  35.607  10.980
31314W        W 2930  11.732  24.200   2.990
31315W        W 2931  36.300  38.604   0.057
31316W        W 2932  28.472  43.529   4.397
31317W        W 2933   1.600  36.696   2.813
31318W        W 2934   4.469  37.091  11.457
31319W        W 2935  44.993  22.495  11.699
31320W        W 2936  19.797  11.115   2.762
31321W        W 2937   4.409   6.428   3.154
31322W        W 2938  24.982   5.110   0.291
31323W        W 2939  28.426  17.204   1.212
31324W        W 2940  11.368   4.304   4.253
31325W        W 2941  20.260   9.230   1.702
31326W        W 2942  43.873  13.171   1.892
31327W        W 2943   6.868  11.445  13.156
31328W        W 2944  31.333   2.090   5.568
31329W        W 2945  24.955   2.333   1.438
31330W        W 2946  35.269  27.030  14.518
31331W        W 2947  27.906  15.253  13.526
31332W        W 2948   6.243  44.755   1.756
31333W        W 2949  12.606  31.646  14.384
31334W        W 2950  37.500  31.493   1.633
31335W        W 2951   4.779  21.234  11.173
31336W        W 2952  20.234  31.632   3.223
31337W        W 2953  32.962  11.121  11.069
31338W        W 2954  14.853  19.288  10.488
31339W        W 2955  24.047   1.234  13.439
31340W        W 2956  17.945  43.845   2.387
31341W        W 2957  27.513   6.245   2.612
31342W        W 2958  43.410  11.133   2.842
31343W        W 2959   8.486  33.919  13.070
31344W        W 2960   5.512  32.868   2.272
31345W        W 2961  43.030  11.391   3.765
31346W        W 2962  34.136   0.353   2.335
31347W        W 2963   2.242  19.625   4.723
31348W        W 2964   4.864  27.203  14.383
31349W        W 2965  37.347  32.980  14.380
31350W        W 2966  25.452  16.198  14.386
31351W        W 2967  38.341   9.133   0.942
31352W        W 2968  31.923   8.146  12.001
31353W        W 2969  11.961  32.569  11.633
31354W        W 2970  21.364  24.788  13.506
31355W        W 2971  11.916   6.395   1.411
31356W        W 2972  23.028  31.621  10.916
31357W        W 2973  35.436  37.191   4.251
31358W        W 2974  43.408  36.545   0.876
31359W        W 2975  44.338  24.720  14.351
31360W        W 2976  39.375  31.527  13.161
31361W        W 2977   7.716  38.924  12.486
31362W        W 2978  11.678  34.208  12.208
31363W        W 2979  18.319  23.210  14.765
31364W        W 2980  34.053  27.919  14.314
31365W        W 2981   1.523  16.129   1.606
31366W        W 2982  18.324  31.956   0.231
31367W        W 2983  29.616   4.202  14.015
31368W        W 2984  32.834  29.335   3.317
31369W        W 2985  14.248  34.315  12.032
31370W        W 2986  27.475  22.505   3.793
31371W        W 2987  32.110  13.106   1.750
31372W        W 2988  26.018  22.671  14.441
31373W        W 2989  37.319  32.067   4.123
31374W        W 2990  22.965  44.356  13.028
31375W        W 2991  10.410  29.086   1.723
31376W        W 2992   8.910  27.146   2.693
31377W        W 2993  24.473   4.000   2.718
31378W        W 2994   2.801  21.621  13.832
31379W        W 2995  36.356  10.636  11.162
31380W        W 2996  18.503  24.694   1.872
31381W        W 2997  37.379   8.993  13.812
31382W        W 2998  32.113  44.446  13.760
31383W        W 2999  26.174   0.512   0.288
31384W        W 3000  36.386  42.663   0.932
31385W        W 3001  11.409  28.059   2.171
31386W        W 3002  18.465  39.909  13.763
31387W        W 3003  13.770  30.400   2.568
31388W        W 3004  26.198  34.866   0.357
31389W        W 3005   2.134  28.102  13.248
31390W        W 3006   5.719  23.431  11.069
31391W        W 3007   4.463   8.811  14.414
31392W        W 3008   2.109  27.683   1.785
31393W        W 3009  43.369  38.633  10.931
31394W        W 3010  30.342   9.658   2.440
31395W        W 3011  17.624  15.235  12.564
31396W        W 3012   4.663  39.054   2.809
31397W        W 3013  44.372  40.998  14.449
31398W        W 3014   5.977  38.503   3.253
31399W        W 3015  30.098  19.784   1.396
31400W        W 3016  33.069  12.812   4.565
31401W        W 3017   4.954  17.394   3.589
31402W        W 3018   8.136   0.407  13.433
31403W        W 3019  25.099  16.663   0.434
31404W        W 3020  12.949  44.893   1.741
31405W        W 3021  30.988  19.247  12.412
31406W        W 3022  38.751  43.441   4.169
31407W        W 3023   3.841  12.219   2.860
31408W        W 3024  26.874  34.625   3.344
31409W        W 3025   2.211   8.151   2.692
31410W        W 3026   6.674  43.252   3.237
31411W        W 3027  14.286  43.338   0.872
31412W        W 3028  37.551  23.943   2.344
31413W        W 3029  44.326  31.445  14.010
31414W        W 3030  28.341  20.137   1.217
31415W        W 3031  38.437  24.753   0.525
31416W        W 3032   5.274  37.247   5.343
31417W        W 3033  30.952  21.019   4.309
31418W        W 3034  32.397   0.294   3.600
31419W        W 3035   2.273  21.572   1.140
31420W        W 3036  33.215   3.279  11.147
31421W        W 3037  31.172  21.512  12.367
31422W        W 3038   7.592  42.721  13.376
31423W        W 3039  22.416  12.756  14.974
31424W        W 3040  16.553  42.949   0.815
31425W        W 3041  27.151  10.734  12.315
31426W        W 3042  11.881  18.685   0.061
31427W        W 3043  38.913  42.745   2.579
31428W        W 3044   7.424  27.688  12.112
31429W        W 3045  34.018  38.897  10.528
31430W        W 3046  23.325  43.974   3.123
31431W        W 3047  35.483  13.888   4.248
31432W        W 3048  43.902  26.023  13.584
31433W        W 3049  26.059  28.555   0.565
31434W        W 3050  17.492  40.835   3.802
31435W        W 3051   6.382   0.903   4.018
31436W        W 3052  36.415   6.187   5.079
31437W        W 3053  24.108  35.071   4.608
31438W        W 3054  11.224  12.377  12.502
31439W        W 3055  34.531  32.974  10.231
31440W        W 3056   2.000   5.946   1.299
31441W        W 3057  28.230  14.719   4.140
31442W        W 3058  16.987  19.629   0.686
31443W        W 3059  24.564  42.492   4.401
31444W        W 3060  22.492  13.587   3.248
31445W        W 3061   0.611   4.790  13.416
31446W        W 3062  21.293  23.955  13.001
31447W        W 3063  13.117   2.488  11.422
31448W        W 3064  38.787  44.482   0.325
31449W        W 3065  39.058  40.771  12.234
31450W        W 3066  34.187  21.456  11.205
31451W        W 3067  13.907  16.661   1.241
31452W        W 3068   5.234  20.062   0.542
31453W        W 3069  32.115  12.282   4.565
31454W        W 3070  35.965   7.938  13.822
31455W        W 3071  41.368  18.491  10.981
31456W        W 3072  38.783  43.963   0.352
31457W        W 3073  12.091  16.099  13.729
31458W        W 3074  13.318  17.592   2.687
31459W        W 3075  12.658  31.381  11.980
31460W        W 3076  43.177  40.401  13.600
31461W        W 3077  18.958  12.692  11.158
31462W        W 3078  26.623  43.561   0.025
31463W        W 3079   2.702  31.472   4.934
31464W        W 3080  11.302  44.917   0.061
31465W        W 3081   9.474  30.514   3.105
31466W        W 3082   3.788  13.187  10.741
31467W        W 3083  35.423  15.105  11.589
31468W        W 3084   2.326   1.155   2.213
31469W        W 3085  44.741  41.978  12.879
31470W        W 3086   1.939  28.854   1.783
31471W        W 3087   8.724  18.792   0.017
31472W        W 3088   9.353  21.022   0.973
31473W        W 3089  38.956   6.610   0.744
31474W        W 3090  14.827  21.227   1.377
31475W        W 3091   3.951  10.362   3.718
31476W        W 3092  37.032  10.437   2.911
31477W        W 3093   9.172  32.390  12.169
31478W        W 3094  32.102  26.082   0.895
31479W        W 3095  27.933  22.445  13.344
31480W        W 3096   7.389  27.951  14.935
31481W        W 3097   8.448   4.431   4.673
31482W        W 3098   5.376   9.718   4.241
31483W        W 3099  23.783  12.375  12.072
31484W        W 3100  15.947  26.139   3.332
31485W        W 3101  15.359  37.984  13.123
31486W        W 3102   2.030  37.093   2.221
31487W        W 3103  14.252   3.366   2.514
31488W        W 3104  11.182  23.716   2.418
31489W        W 3105  25.478  44.409  11.098
31490W        W 3106   9.329  12.177  13.489
31491W        W 3107  32.543  32.170  13.442
31492W        W 3108  20.305  10.994  14.421
31493W        W 3109  20.786  13.377   2.166
31494W        W 3110   7.468  23.690   4.463
31495W        W 3111  35.617   7.146   3.300
31496W        W 3112  15.896  27.566   0.340
31497W        W 3113   1.189  13.339   3.379
31498W        W 3114   1.544  40.371   2.609
31499W        W 3115  16.115  13.804   2.636
31500W        W 3116  22.811  29.231  11.574
31501W        W 3117  35.373  20.721  13.078
31502W        W 3118  30.353   0.686   3.687
31503W        W 3119  28.993  16.069   1.443
31504W        W 3120  26.192  31.303   1.034
31505W        W 3121  23.056  16.358   3.134
31506W        W 3122  12.708  42.791   4.135
31507W        W 3123  41.585  10.796   2.247
31508W        W 3124  39.020   5.912  12.183
31509W        W 3125  36.254  13.121  13.684
31510W        W 3126  33.348  19.689   2.270
31511W        W 3127  40.950  29.729  14.252
31512W        W 3128  29.038   3.048  11.114
31513W        W 3129  19.053  26.566  14.314
31514W        W 3130   4.708  21.854   0.707
31515W        W 3131  23.482  23.943   1.258
31516W        W 3132  30.449  34.043  11.213
31517W        W 3133   0.120  24.508   0.495
31518W        W 3134  17.521   0.786   0.812
31519W        W 3135  35.379  22.612   2.881
31520W        W 3136  38.536  35.158   0.236
31521W        W 3137  40.950   4.442   3.095
31522W        W 3138  23.142  31.017  12.101
31523W        W 3139  43.754   2.937  10.659
31524W        W 3140   8.980  17.542   0.329
31525W        W 3141   1.435  32.602  11.595
31526W        W 3142  42.296  16.751   0.305
31527W        W 3143  14.785  14.849  11.962
31528W        W 3144  10.763   3.794   1.785
31529W        W 3145  10.894   4.177   0.508
31530W        W 3146  14.811  38.463   4.392
31531W        W 3147  33.872  10.166  14.793
31532W        W 3148  33.817  34.430  14.395
31533W        W 3149   3.512  12.096  12.140
31534W        W 3150  39.945  35.804   4.194
31535W        W 3151  30.307   3.766  11.959
31536W        W 3152  39.822  20.238   0.408
31537W        W 3153  35.852   8.612   4.019
31538W        W 3154  22.134  37.863   0.290
31539W        W 3155   7.817   3.216   3.209
31540W        W 3156   4.712   3.581  11.588
31541W        W 3157   3.431  28.247  12.359
31542W        W 3158   7.923  32.473   0.458
31543W        W 3159  38.928  10.655  14.410
31544W        W 3160  17.706  42.081   2.748
31545W        W 3161   9.164  24.745   0.688
31546W        W 3162  39.655   1.449  14.062
31547W        W 3163  31.411  11.150   1.367
31548W        W 3164  18.347   7.443   3.057
31549W        W 3165  40.337  44.371   0.331
31550W        W 3166  26.794  35.353   2.752
31551W        W 3167   1.832  35.274   0.679
31552W        W 3168   1.843  29.697   2.317
31553W        W 3169  17.085  12.335   1.715
31554W        W 3170  36.128  33.036   3.738
31555W        W 3171  32.827  23.077   3.447
31556W        W 3172  34.069  38.371  13.949
31557W        W 3173  16.417  16.181  11.582
31558W        W 3174   2.386  12.333   0.385
31559W        W 3175   8.004  26.074  11.665
31560W        W 3176  22.074  22.807  13.774
31561W        W 3177  36.642  11.614   1.601
31562W        W 3178  42.410  29.463  12.174
31563W        W 3179  41.769   4.899  13.001
31564W        W 3180  22.779  27.154   3.874
31565W        W 3181  20.832   9.561  14.782
31566W        W 3182  34.097  29.187   4.352
31567W        W 3183  40.588  14.676   2.698
31568W        W 3184  20.508  36.052   3.241
31569W        W 3185  44.849   7.188   0.195
31570W        W 3186  16.788   7.906   2.290
31571W        W 3187  38.135  38.197   4.632
31572W        W 3188   4.847  16.243  13.156
31573W        W 3189  34.476  18.263  13.795
31574W        W 3190   8.142  37.830  12.502
31575W        W 3191  22.921  25.245  13.370
31576W        W 3192   0.208  41.061   0.904
31577W        W 3193   5.612  18.159  14.481
31578W        W 3194  43.692   0.736  12.020
31579W        W 3195  20.323  38.121   3.281
31580W        W 3196  21.121  19.496   4.650
31581W        W 3197  24.494  11.961   2.084
31582W        W 3198  18.088  12.907   0.681
31583W        W 3199  24.062   7.181  13.817
31584W        W 3200  38.029  32.605   3.768
31585W        W 3201  30.152  31.376  13.589
31586W        W 3202  36.022  14.124   1.082
31587W        W 3203   9.373  25.011   2.766
31588W        W 3204  31.833  44.868   1.915
31589W        W 3205  36.050  44.592  12.498
31590W        W 3206  24.464  37.849  11.063
31591W        W 3207  38.925  27.848   4.165
31592W        W 3208  23.041  23.094  12.151
31593W        W 3209  23.073  40.621   0.966
31594W        W 3210  19.324  40.520   3.807
31595W        W 3211  19.921  28.386   3.793
31596W        W 3212  12.542  39.289   2.272
31597W        W 3213   0.914   3.586  11.471
31598W        W 3214  12.824   2.954   4.514
31599W        W 3215  30.682  17.200  12.876
31600W        W 3216   4.337  11.113  11.595
31601W        W 3217  19.966  44.940   0.745
31602W        W 3218  16.657  41.348   2.366
31603W        W 3219  26.064  15.716   9.897
31604W        W 3220   0.482   6.264   5.097
31605W        W 3221  36.088  15.796  13.020
31606W        W 3222  39.379  22.270  12.895
31607W        W 3223   8.406  37.159  11.987
31608W        W 3224   9.562  13.150   1.399
31609W        W 3225  36.950   7.087  12.362
31610W        W 3226  39.835  34.275  13.329
31611W        W 3227  14.625  31.158  13.923
31612W        W 3228  41.931  27.106  12.953
31613W        W 3229  15.208  19.421  14.888
31614W        W 3230  44.842  11.200  14.020
31615W        W 3231  20.534  10.179  10.512
31616W        W 3232  22.560  17.012  12.789
31617W        W 3233  44.846  38.918   1.763
31618W        W 3234  19.159   2.743   0.304
31619W        W 3235   7.228  12.812   0.270
31620W        W 3236  32.539  22.809  13.880
31621W        W 3237  21.109  14.056  11.648
31622W        W 3238  17.237  27.559  11.068
31623W        W 3239  24.524  17.295   0.488
31624W        W 3240  31.990  44.203   3.005
31625W        W 3241  13.872  25.625   3.310
31626W        W 3242   0.656  29.236   2.763
31627W        W 3243   5.810  17.296  12.740
31628W        W 3244  21.560  38.018  10.636
31629W        W 3245  42.745  37.418   3.411
31630W        W 3246  18.221  18.659   1.101
31631W        W 3247  36.285   6.190  14.139
31632W        W 3248   5.604  40.552   3.785
31633W        W 3249  12.767  42.960  14.730
31634W        W 3250  23.000   2.158   2.503
31635W        W 3251  39.965   7.280  10.614
31636W        W 3252  27.225  36.263   2.333
31637W        W 3253  21.790  23.214  12.584
31638W        W 3254  17.261  34.513   4.386
31639W        W 3255   8.405  19.187   3.221
31640W        W 3256   6.282   4.215  12.159
31641W        W 3257  35.101  31.996   4.655
31642W        W 3258  36.575  11.926  14.453
31643W        W 3259   4.412   2.626  11.411
31644W        W 3260  12.446  11.641  13.929
31645W        W 3261  14.766  19.807  11.516
31646W        W 3262   2.531  29.623  11.717
31647W        W 3263  16.080   9.921  10.687
31648W        W 3264  33.585  27.418   4.109
31649W        W 3265  12.829   3.893  11.295
31650W        W 3266  13.791  24.046   0.765
31651W        W 3267  40.348  38.517  10.390
31652W        W 3268  10.289  26.710   0.747
31653W        W 3269  32.884  35.896   0.729
31654W        W 3270  22.161  15.033   3.195
31655W        W 3271   8.928  23.702   4.179
31656W        W 3272  30.701   4.862   4.106
31657W        W 3273  35.004  16.651  11.014
31658W        W 3274   8.814  10.554   4.030
31659W        W 3275  34.178   7.303   4.615
31660W        W 3276  26.067  20.234  14.307
31661W        W 3277  13.881  21.140   2.872
31662W        W 3278  33.585  24.578  12.050
31663W        W 3279  29.170   9.354   1.163
31664W        W 3280   0.191  24.364  12.619
31665W        W 3281  19.562  30.549  11.464
31666W        W 3282  16.558  16.587   3.305
31667W        W 3283  29.106  10.910   4.708
31668W        W 3284  38.733  35.302   1.339
31669W        W 3285   3.972  31.130   3.211
31670W        W 3286   3.635   4.866   2.305
31671W        W 3287  16.867  36.110  14.043
31672W        W 3288  32.548  27.519  13.763
31673W        W 3289  13.212  29.007   2.928
31674W        W 3290  15.033  22.540  13.465
31675W        W 3291   1.063  38.108  14.466
31676W        W 3292  26.082  10.161   1.264
31677W        W 3293  42.110   5.241   3.436
31678W        W 3294  20.567   4.192  12.056
31679W        W 3295  27.736  25.240  12.003
31680W        W 3296  41.998  35.442  11.419
31681W        W 3297  29.391  21.233   2.774
31682W        W 3298  30.125  32.059   4.378
31683W        W 3299  22.056   3.526   2.054
31684W        W 3300  21.650   8.881   4.977
31685W        W 3301  42.898  30.904   4.071
31686W        W 3302   0.509  42.305   0.273
31687W        W 3303  44.489   7.274   4.651
31688W        W 3304  15.211  16.291  14.304
31689W        W 3305  31.362  35.913  13.294
31690W        W 3306  17.132  30.354   5.009
31691W        W 3307   4.412   4.939  11.590
31692W        W 3308  38.616  35.463  13.335
31693W        W 3309  40.707  19.071   1.775
31694W        W 3310  26.436  41.084  13.479
31695W        W 3311  29.206  43.483   2.910
31696W        W 3312  43.550  43.240  11.593
31697W        W 3313  17.525   4.224   0.458
31698W        W 3314  34.047  41.294   2.828
31699W        W 3315  12.889  13.688  14.900
31700W        W 3316   1.460   7.959   3.259
31701W        W 3317   5.818  43.951  13.490
31702W        W 3318  39.262  29.106  12.122
31703W        W 3319   5.230  18.153  14.070
31704W        W 3320  33.597  44.051  10.730
31705W        W 3321  17.591   2.687  13.406
31706W        W 3322  22.598  41.249  11.076
31707W        W 3323  18.626  25.483   1.478
31708W        W 3324  13.109  12.072   4.591
31709W        W 3325  11.250  29.122   4.383
31710W        W 3326  20.531   4.309  11.556
31711W        W 3327  33.775  29.542   3.652
31712W        W 3328   4.166  26.795   4.208
31713W        W 3329  12.397   7.393  13.857
31714W        W 3330  11.793  40.378  10.950
31715W        W 3331  24.284  25.815  14.310
31716W        W 3332  31.125  40.308  10.821
31717W        W 3333   9.801  23.752  13.328
31718W        W 3334  29.686  22.342   1.434
31719W        W 3335  32.437   4.888  10.671
31720W        W 3336   4.860  15.594  10.309
31721W        W 3337  19.280  37.078  12.881
31722W        W 3338  18.793   4.623  12.814
31723W        W 3339   6.702  41.524   1.541
31724W        W 3340  42.423   5.932  12.460
31725W        W 3341  19.165  18.048  11.248
31726W        W 3342  14.395  15.295  14.440
31727W        W 3343  44.900  39.404  10.734
31728W        W 3344  25.533  33.035  11.734
31729W        W 3345  32.690  34.396   0.257
31730W        W 3346  38.279  10.051  14.523
31731W        W 3347  18.835  37.997  10.913
31732W        W 3348  25.797  27.940  11.510
31733W        W 3349  20.237  11.636   2.900
31734W        W 3350  34.029  36.526  10.674
31735W        W 3351  37.342  23.935  11.641
31736W        W 3352   9.257   0.413   3.476
31737W        W 3353  12.961  18.050  10.729
31738W        W 3354   0.511  43.267   0.335
31739W        W 3355  17.004  30.349   1.655
31740W        W 3356  17.883  31.530  14.433
31741W        W 3357  41.206  18.643  14.506
31742W        W 3358   9.268  17.197  13.507
31743W        W 3359  11.129   9.709   3.233
31744W        W 3360   6.416  40.979   1.356
31745W        W 3361  14.538  39.968  10.773
31746W        W 3362   5.015   1.772   2.694
31747W        W 3363  13.775  39.505   4.314
31748W        W 3364  39.646  36.599  12.850
31749W        W 3365  16.686  23.474  12.472
31750W        W 3366  29.130   7.369  11.655
31751W        W 3367  21.598  42.741  13.329
31752W        W 3368  38.995  37.343   0.687
31753W        W 3369  35.520  20.289   3.116
31754W        W 3370   0.861  37.493  13.686
31755W        W 3371  18.791   3.314  11.637
31756W        W 3372  44.265   0.619   4.570
31757W        W 3373  36.963   8.883   3.677
31758W        W 3374  11.667  25.257  13.884
31759W        W 3375  25.961  27.099  11.154
31760W        W 3376  23.116  10.432   0.170
31761W        W 3377  38.755  39.113  11.614
31762W        W 3378  30.636  42.808  12.884
31763W        W 3379  42.821   7.307   2.745
31764W        W 3380  18.353  31.394  14.290
31765W        W 3381  13.657  12.039   2.305
31766W        W 3382  19.901   2.466   3.815
31767W        W 3383  13.678  14.922  12.104
31768W        W 3384  14.877  36.720   3.135
31769W        W 3385   3.803  28.020  11.617
31770W        W 3386  40.568  34.168  10.748
31771W        W 3387  35.308   9.333  11.212
31772W        W 3388  11.122  21.460   1.929
31773W        W 3389  32.640   0.818  14.428
31774W        W 3390  35.146  18.818   4.121
31775W        W 3391   4.178  14.673   3.304
31776W        W 3392  37.902   6.445   2.116
31777W        W 3393  21.764   1.590   3.885
31778W        W 3394  31.663  29.650  10.556
31779W        W 3395  39.727  22.631  12.792
31780W        W 3396  25.008  29.871   3.284
31781W        W 3397  42.873  26.686  13.857
31782W        W 3398  31.563  34.913   2.441
31783W        W 3399  32.357  35.561  10.716
31784W        W 3400  19.870  25.053  11.209
31785W        W 3401  37.391  28.958   4.751
31786W        W 3402  19.014  40.856   3.517
31787W        W 3403   0.884  33.578   2.700
31788W        W 3404  29.153   3.374  12.984
31789W        W 3405  12.855  15.641  11.058
31790W        W 3406  16.542  12.100  13.149
31791W        W 3407   8.516  33.621   2.531
31792W        W 3408  16.313  17.041  14.831
31793W        W 3409  36.548  10.168  12.442
31794W        W 3410  41.490  18.420  14.895
31795W        W 3411  34.397  11.229  12.345
31796W        W 3412   4.331  33.976  10.669
31797W        W 3413  28.155  17.727  12.020
31798W        W 3414  26.560  10.525   3.340
31799W        W 3415  26.114  38.028  13.175
31800W        W 3416   6.438  36.355   3.684
31801W        W 3417  12.925   5.936   5.027
31802W        W 3418  38.727  14.588   4.343
31803W        W 3419   0.506   5.248   0.158
31804W        W 3420  33.658  13.193  14.869
31805W        W 3421  13.724  22.788  13.829
31806W        W 3422  35.734  29.473   1.458
31807W        W 3423  24.101   4.654   1.400
31808W        W 3424   0.640  19.994  11.575
31809W        W 3425  11.904  33.811  12.008
31810W        W 3426  27.648  36.373  13.761
31811W        W 3427  11.377  42.443  14.476
31812W        W 3428  30.632  14.690   4.721
31813W        W 3429  29.566  30.531  12.057
31814W        W 3430  28.182  33.107   9.937
31815W        W 3431  33.147   9.597  11.602
31816W        W 3432  21.215  42.772  14.001
31817W        W 3433   2.462  39.379   0.832
31818W        W 3434  44.826   5.304  11.925
31819W        W 3435  15.328   9.391   2.827
31820W        W 3436   4.928   3.211   4.735
31821W        W 3437   9.304  16.833   0.399
31822W        W 3438  23.989  16.159  13.357
31823W        W 3439  38.127   6.771   0.283
31824W        W 3440  16.583   3.549   2.161
31825W        W 3441   9.388   8.687   0.868
31826W        W 3442  16.284  42.491   0.831
31827W        W 3443  34.179  12.065   3.706
31828W        W 3444  21.212   3.264   0.224
31829W        W 3445   8.920  43.102   2.165
31830W        W 3446  24.509  23.825  11.938
31831W        W 3447   8.695   0.493  14.363
31832W        W 3448  43.983  10.852   2.775
31833W        W 3449   2.256  33.555  12.597
31834W        W 3450  38.195  27.568  11.616
31835W        W 3451  37.280  29.216   1.743
31836W        W 3452  26.476  15.785  14.797
31837W        W 3453  35.950  31.950   1.904
31838W        W 3454   0.483  13.778   1.271
31839W        W 3455  29.727   1.039  11.550
31840W        W 3456  22.678  26.158   0.357
31841W        W 3457   4.769  14.847   3.651
31842W        W 3458   1.756  18.038   1.309
31843W        W 3459  10.827  44.725  12.726
31844W        W 3460  11.074   4.654   3.996
31845W        W 3461  25.513  44.406   2.804
31846W        W 3462  16.027   7.858   0.748
31847W        W 3463  10.637  34.360  10.986
31848W        W 3464  12.589   0.605  13.133
31849W        W 3465  23.445  11.312  10.784
31850W        W 3466  41.699  23.809  11.059
31851W        W 3467  24.825  20.263  10.756
31852W        W 3468  41.577  18.206  14.417
31853W        W 3469  22.983   8.127   3.320
31854W        W 3470  30.639  35.874   4.027
31855W        W 3471  40.863  42.829   2.791
31856W        W 3472   5.162   4.851  12.843
31857W        W 3473  15.558  40.510  11.127
31858W        W 3474  39.685  44.912  10.714
31859W        W 3475  19.853  42.331   5.094
31860W        W 3476   5.535  35.154  11.061
31861W        W 3477  30.018  14.354  12.359
31862W        W 3478   3.630  36.240  12.057
31863W        W 3479   1.392  16.632  14.021
31864W        W 3480  30.665  10.361  14.742
31865W        W 3481  42.251  24.400   3.246
31866W        W 3482  37.826  12.814  12.505
31867W        W 3483  31.856  32.429   3.130
31868W        W 3484  31.874  31.051   0.779
31869W        W 3485   8.167  21.603   2.836
31870W        W 3486  27.663  43.819  10.840
31871W        W 3487  35.438  20.525   3.675
31872W        W 3488  38.836  40.518   2.324
31873W        W 3489  10.777  28.728   2.182
31874W        W 3490   3.063   2.976  10.846
31875W        W 3491  44.408   5.874   1.282
31876W        W 3492   8.646  32.541   2.507
31877W        W 3493  27.519   1.254   1.375
31878W        W 3494   8.098  33.777   4.682
31879W        W 3495  20.792  15.107   0.768
31880W        W 3496   2.216  41.216   2.641
31881W        W 3497   2.143  24.185   5.114
31882W        W 3498  43.135  34.870   2.268
31883W        W 3499  10.872  31.124   0.569
31884W        W 3500  23.982  25.199   3.313
31885W        W 3501   6.242  14.160   4.700
31886W        W 3502   1.059  15.775  13.912
31887W        W 3503  42.299  14.060   1.430
31888W        W 3504  30.580  44.727   1.332
31889W        W 3505  14.918  19.131  13.879
31890W        W 3506  19.515   6.276  13.256
31891W        W 3507  26.037  24.662  11.661
31892W        W 3508  23.514   9.271  11.564
31893W        W 3509  34.886  28.231   1.408
31894W        W 3510   3.265   3.510   0.918
31895W        W 3511  15.255  37.519   2.657
31896W        W 3512  22.602  20.957   4.118
31897W        W 3513  31.661  11.192   3.248
31898W        W 3514  23.985  12.693   4.513
31899W        W 3515  20.012  17.657  12.663
31900W        W 3516  31.277   1.923  11.822
31901W        W 3517  29.062  20.107   0.860
31902W        W 3518  24.956   4.423   0.824
31903W        W 3519   0.978  16.113  13.514
31904W        W 3520  37.751  41.532   1.468
31905W        W 3521   1.028  27.421  12.857
31906W        W 3522  41.391  33.176  12.743
31907W        W 3523   0.735  28.417  14.690
31908W        W 3524  11.598   0.114   2.407
31909W        W 3525  39.557  35.018  14.416
31910W        W 3526  22.137  41.378   3.138
31911W        W 3527  32.748   7.879  14.196
31912W        W 3528  26.506  38.219  11.127
31913W        W 3529  23.785   0.385   0.039
31914W        W 3530  36.780  24.792  10.961
31915W        W 3531  29.581  15.162   4.160
31916W        W 3532  10.614  11.165  11.028
31917W        W 3533  30.609   5.780   4.803
31918W        W 3534   2.038  11.585  14.135
31919W        W 3535  33.071   3.015   4.679
31920W        W 3536   0.663   4.991   0.768
31921W        W 3537   5.735  35.479   4.850
31922W        W 3538  39.058   8.724   2.361
31923W        W 3539  23.661  20.052   4.957
31924W        W 3540   6.095   7.882  12.005
31925W        W 3541   6.686  37.565   4.262
31926W        W 3542  22.079  44.037  12.953
31927W        W 3543  32.142  13.725   2.160
31928W        W 3544  12.163  10.065  11.663
31929W        W 3545  36.875  11.159   3.154
31930W        W 3546   0.439   6.871  13.184
31931W        W 3547  25.261  39.656  11.027
31932W        W 3548  43.052  21.248   3.145
31933W        W 3549   1.743  44.416  12.521
31934W        W 3550  26.285  12.780  12.433
31935W        W 3551   6.653   5.832   1.463
31936W        W 3552  42.849  38.814   2.940
31937W        W 3553  24.053   5.098   3.939
31938W        W 3554  32.972  17.242   3.814
31939W        W 3555  31.294  22.914  13.843
31940W        W 3556  21.932  23.020   0.984
31941W        W 3557  24.369  13.619  13.793
31942W        W 3558  27.372   3.881  14.299
31943W        W 3559  35.787  33.016   0.763
31944W        W 3560  44.321  32.213   2.926
31945W        W 3561  42.812  17.295  14.281
31946W        W 3562   4.256  21.602  11.970
31947W        W 3563   4.788   9.181   0.718
31948W        W 3564  13.745  39.396   0.209
31949W        W 3565  32.712  15.784  14.795
31950W        W 3566   0.857  26.360   2.744
31951W        W 3567  36.167  30.101  11.572
31952W        W 3568  15.791   1.412  10.688
31953W        W 3569  24.724  17.704   0.740
31954W        W 3570   7.106   5.771  11.590
31955W        W 3571  26.109  30.273   4.272
31956W        W 3572   7.868  23.878   2.732
31957W        W 3573  16.044  27.246   1.801
31958W        W 3574  39.453  16.165   0.325
31959W        W 3575  28.881  12.642  14.415
31960W        W 3576  24.456   4.412   0.910
31961W        W 3577  23.562  29.166   3.094
31962W        W 3578  14.966   6.725   5.031
31963W        W 3579   3.634  42.990  12.596
31964W        W 3580  34.538  28.582  12.443
31965W        W 3581  13.296  14.424   0.767
31966W        W 3582  42.012  26.336  11.589
31967W        W 3583  40.303  27.603   1.413
31968W        W 3584  17.584  41.487  12.087
31969W        W 3585  29.022  29.640  11.118
31970W        W 3586  35.876  30.659   0.684
31971W        W 3587  34.815   7.192  12.053
31972W        W 3588  24.340  17.120  13.461
31973W        W 3589  32.683  25.628   2.708
31974W        W 3590  11.247  16.882   4.581
31975W        W 3591  31.351   0.425  11.866
31976W        W 3592  31.843  23.932   1.922
31977W        W 3593  38.255  33.462  10.386
31978W        W 3594  34.134  28.233   4.849
31979W        W 3595  44.666  42.767   4.157
31980W        W 3596  42.258  22.307   1.393
31981W        W 3597   6.239  34.658   0.652
31982W        W 3598  36.426  14.601   4.005
31983W        W 3599   2.105  37.486   0.221
31984W        W 3600  25.234  38.130  11.531
31985W        W 3601  41.234  37.412   0.506
31986W        W 3602   6.629  40.827  12.194
31987W        W 3603   5.610  39.341  13.696
31988W        W 3604  17.696  37.953  11.945
31989W        W 3605   4.330  15.993   3.152
31990W        W 3606  42.518  39.731   0.218
31991W        W 3607  42.760  29.933  14.787
31992W        W 3608  20.578  33.756  14.941
31993W        W 3609  42.065  43.292  12.409
31994W        W 3610   4.904  36.297   2.622
31995W        W 3611  35.002  39.586   3.382
31996W        W 3612  24.306  10.584   2.659
31997W        W 3613   9.348  41.505   2.837
31998W        W 3614  36.089  30.852   1.535
31999W        W 3615  26.226  40.725   1.240
32000W        W 3616   6.349  37.001  13.413
32001W        W 3617  38.569  13.110   0.819
32002W        W 3618   8.417   1.991  13.893
32003W        W 3619  28.132  26.202  11.924
32004W        W 3620  22.350   1.297  13.538
32005W        W 3621  20.621  20.649   0.264
32006W        W 3622  33.189  20.968  10.728
32007W        W 3623  36.519  14.823  12.935
32008W        W 3624  26.814  12.701  13.067
32009W        W 3625  25.576  40.605  10.227
32010W        W 3626  16.976  33.586  11.454
32011W        W 3627  18.787  38.992   1.689
32012W        W 3628  13.110  31.433   2.798
32013W        W 3629   2.171  16.341  10.445
32014W        W 3630  23.465  39.937   0.342
32015W        W 3631   3.382   2.432   1.219
32016W        W 3632  32.391  14.391  11.551
32017W        W 3633  13.502  12.803   2.177
32018W        W 3634  21.529  13.740   0.288
32019W        W 3635  43.620  27.139  14.833
32020W        W 3636  10.349  14.864   5.151
32021W        W 3637  30.414  44.449   4.456
32022W        W 3638  12.947  28.501   0.421
32023W        W 3639  31.068  22.831  10.618
32024W        W 3640  22.680  13.280  13.524
32025W        W 3641  37.362  11.397   2.258
32026W        W 3642  23.780  21.925   4.335
32027W        W 3643  13.323  21.431  11.441
32028W        W 3644  14.449  38.927   2.825
32029W        W 3645  31.154  35.016   2.112
32030W        W 3646   0.264  38.395  13.418
32031W        W 3647  30.043  13.281   1.937
32032W        W 3648  35.107  33.187  12.782
32033W        W 3649  17.448  17.974  10.508
32034W        W 3650   0.384  34.508  10.780
32035W        W 3651  17.748  32.603   1.700
32036W        W 3652  23.304  30.956  10.732
32037W        W 3653  28.382   2.944  14.520
32038W        W 3654  36.344  12.784  10.299
32039W        W 3655  17.755  34.456   2.969
32040W        W 3656  42.950   4.411   3.151
32041W        W 3657  17.636  13.070  12.681
32042W        W 3658  27.095  35.941  13.512
32043W        W 3659  11.410  30.430   0.785
32044W        W 3660  32.185   5.186  12.346
32045W        W 3661  21.018  12.140  13.062
32046W        W 3662  18.733  38.129  14.334
32047W        W 3663   5.659  40.820  14.383
32048W        W 3664  39.829  38.751   0.830
32049W        W 3665   9.789  21.122   4.056
32050W        W 3666   8.738  26.097  13.456
32051W        W 3667  25.517  26.884   0.899
32052W        W 3668  24.618  11.202   0.861
32053W        W 3669  21.301  43.613   1.297
32054W        W 3670  43.963  21.244   4.593
32055W        W 3671  39.136  34.095  10.752
32056W        W 3672  31.075  20.167  11.890
32057W        W 3673   1.969   7.239   2.813
32058W        W 3674  38.726  21.199   1.733
32059W        W 3675  39.304  24.813   4.164
32060W        W 3676  40.903  41.833  12.065
32061W        W 3677   2.762  12.957  13.784
32062W        W 3678  31.473   8.184  11.558
32063W        W 3679  22.201   2.497  11.509
32064W        W 3680  40.376  37.468   4.500
32065W        W 3681  28.424  28.038   4.546
32066W        W 3682  21.241  31.597   0.917
32067W        W 3683   2.679  15.586  14.981
32068W        W 3684  21.070  41.428  13.755
32069W        W 3685  34.892   5.472  12.510
32070W        W 3686  37.206   0.208   4.465
32071W        W 3687   4.015  26.341   3.748
32072W        W 3688   9.306  18.298  14.313
32073W        W 3689   0.702  44.767   3.138
32074W        W 3690   9.816  10.809  11.214
32075W        W 3691   9.951   6.667   3.694
32076W        W 3692  21.580  41.456  14.005
32077W        W 3693  34.176  12.414   4.111
32078W        W 3694  19.229  33.868   0.438
32079W        W 3695  17.518  17.554  12.881
32080W        W 3696  10.809  27.562   2.880
32081W        W 3697  39.426  18.075  10.708
32082W        W 3698   5.474  21.675   0.211
32083W        W 3699  35.185   1.427  13.514
32084W        W 3700   4.049  44.101  11.523
32085W        W 3701  20.661  21.128   0.430
32086W        W 3702  36.538  17.060  10.700
32087W        W 3703  22.299  25.734  13.854
32088W        W 3704  13.399  37.448   0.762
32089W        W 3705  20.880  31.362  12.057
32090W        W 3706  22.109  36.868   1.809
32091W        W 3707   0.027  32.655  12.577
32092W        W 3708  11.832  12.386   3.615
32093W        W 3709   1.837  37.990   0.994
32094W        W 3710   2.675  38.902   2.850
32095W        W 3711   1.600  11.830   0.658
32096W        W 3712  23.233  14.294   1.311
32097W        W 3713  20.315   5.198   1.442
32098W        W 3714  39.307  25.576   3.729
32099W        W 3715  16.963  10.598   3.268
32100W        W 3716  39.945  44.667  13.496
32101W        W 3717   0.943  14.802   0.464
32102W        W 3718  36.787  31.031   0.258
32103W        W 3719  20.238  16.277   4.749
32104W        W 3720   0.766  21.731  11.136
32105W        W 3721   6.352  27.038  13.316
32106W        W 3722  40.910  19.675   4.132
32107W        W 3723  31.057  40.942   2.478
32108W        W 3724  38.533  21.536   3.179
32109W        W 3725  24.343  27.916  14.311
32110W        W 3726  23.681   9.325  10.640
32111W        W 3727  27.666  15.960   1.387
32112W        W 3728  33.605  24.612   5.023
32113W        W 3729  19.770  37.463  10.731
32114W        W 3730  16.199  20.230  10.337
32115W        W 3731   1.071  17.805  14.590
32116W        W 3732  31.302  20.561  11.670
32117W        W 3733   2.285   6.160  12.987
32118W        W 3734  41.659  30.875   4.662
32119W        W 3735  23.051  23.101   4.592
32120W        W 3736   5.168  30.967   1.668
32121W        W 3737  19.622  18.172   1.365
32122W        W 3738  41.929   4.331   3.032
32123W        W 3739   4.460   1.153   1.407
32124W        W 3740  24.804  18.592   0.472
32125W        W 3741  27.718  11.729   0.793
32126W        W 3742   1.367  42.759   1.884
32127W        W 3743  43.418  38.017   3.729
32128W        W 3744  10.752  41.414   4.945
32129W        W 3745  13.627   9.254  11.937
32130W        W 3746  24.481  18.672   0.031
32131W        W 3747   0.196   6.117   0.021
32132W        W 3748  11.089   1.890   3.374
32133W        W 3749  26.477   2.666   3.773
32134W        W 3750  18.183  26.606  10.702
32135W        W 3751  34.650  44.633  10.956
32136W        W 3752   2.415   4.338  10.725
32137W        W 3753  26.184   2.795  10.649
32138W        W 3754  17.356  29.914  10.082
32139W        W 3755  24.323   0.341   2.764
32140W        W 3756  10.790  19.704  14.849
32141W        W 3757   6.749  39.502   2.104
32142W        W 3758  18.699  27.971   2.153
32143W        W 3759  39.117  13.888   4.044
32144W        W 3760  17.544  42.979  11.987
32145W        W 3761  33.271  12.387  14.370
32146W        W 3762   6.723  12.266  11.575
32147W        W 3763  23.669   2.772  13.079
32148W        W 3764  26.206  14.156   1.234
32149W        W 3765  41.031   2.940  14.215
32150W        W 3766  28.469  21.708   3.173
32151W        W 3767  38.523   5.773  10.943
32152W        W 3768   9.643  28.426   2.122
32153W        W 3769  34.051  33.540   1.404
32154W        W 3770  18.754  34.911  14.936
32155W        W 3771  22.208  33.483  12.603
32156W        W 3772  20.628  19.274  11.978
32157W        W 3773  18.810  41.454   0.885
32158W        W 3774  36.036  12.158   2.958
32159W        W 3775   5.076  38.455  12.386
32160W        W 3776  44.921  29.728  11.220
32161W        W 3777  19.073  42.927  13.756
32162W        W 3778  33.094  15.353  11.591
32163W        W 3779  10.649   8.886  13.411
32164W        W 3780   1.978  23.150  13.097
32165W        W 3781  16.628  33.339   0.441
32166W        W 3782  15.183  39.465  13.413
32167W        W 3783  14.291   5.310   2.765
32168W        W 3784   6.325  19.317  13.384
32169W        W 3785  30.402  37.427   0.439
32170W        W 3786  19.251  36.940   4.204
32171W        W 3787  43.790  22.391  12.550
32172W        W 3788  11.895  23.712  13.932
32173W        W 3789  25.157  37.317  11.949
32174W        W 3790  14.824  25.449  14.719
32175W        W 3791  29.557  32.160  13.449
32176W        W 3792  33.878   7.458  11.991
32177W        W 3793   8.363  26.182   2.529
32178W        W 3794   8.743  42.817  13.965
32179W        W 3795   5.311  30.596  14.915
32180W        W 3796   5.842  44.895   1.004
32181W        W 3797  35.475  26.900   2.803
32182W        W 3798  23.217   1.381  12.996
32183W        W 3799   5.833   4.357  11.899
32184W        W 3800  26.877  19.782   0.251
32185W        W 3801  38.492  29.968  10.688
32186W        W 3802   7.653  14.368  13.732
32187W        W 3803  21.768  38.161   1.782
32188W        W 3804  22.469  22.926  11.468
32189W        W 3805  10.645  32.082  11.335
32190W        W 3806  40.847  35.928  11.993
32191W        W 3807  19.759  26.066   1.630
32192W        W 3808   0.630  25.089  12.336
32193W        W 3809  33.191  26.771  11.054
32194W        W 3810  14.724   8.777   4.459
32195W        W 3811  43.199  28.329  11.332
32196W        W 3812  30.011   8.237   3.081
32197W        W 3813  23.550  22.505   2.741
32198W        W 3814  20.197  34.427   2.029
32199W        W 3815  19.205  38.299   0.687
32200W        W 3816  17.348  43.495  13.456
32201W        W 3817   8.309  31.307   4.686
32202W        W 3818  33.963  38.308   1.799
32203W        W 3819  14.824  43.323   2.061
32204W        W 3820  15.759  41.941   0.258
32205W        W 3821  44.471  17.108   0.765
32206W        W 3822  29.926  35.350  11.608
32207W        W 3823  11.539  17.154   3.760
32208W        W 3824  31.209  34.140  13.044
32209W        W 3825  31.970  20.673   4.714
32210W        W 3826   0.736  44.623   4.598
32211W        W 3827  28.898  22.597   0.953
32212W        W 3828   6.194  17.196  11.087
32213W        W 3829  12.633  26.132  14.907
32214W        W 3830   5.416  19.738  11.182
32215W        W 3831  21.493  15.865   0.271
32216W        W 3832  41.247  10.298   4.495
32217W        W 3833   3.038  18.652   3.317
32218W        W 3834  28.487  22.756   2.391
32219W        W 3835  39.141  13.931  13.350
32220W        W 3836  39.592   9.703  12.492
32221W        W 3837   6.566  11.272   3.434
32222W        W 3838   2.789  15.236   2.190
32223W        W 3839  11.251   2.260  11.032
32224W        W 3840   5.308  19.216   4.392
32225W        W 3841  21.786   5.686   3.274
32226W        W 3842  38.188  16.994   1.383
32227W        W 3843  24.499  35.677   3.278
32228W        W 3844  29.452   5.670  12.977
32229W        W 3845  43.870  11.369  10.932
32230W        W 3846  26.438   8.298  11.620
32231W        W 3847   7.282   7.398  14.470
32232W        W 3848   8.838  29.013   4.853
32233W        W 3849  40.641  22.328  11.914
32234W        W 3850   4.053  11.848  13.864
32235W        W 3851  10.221  24.177  10.498
32236W        W 3852   0.616  32.385  14.248
32237W        W 3853   7.705  12.529   0.438
32238W        W 3854  13.872  39.868   2.330
32239W        W 3855   1.517  16.522   4.224
32240W        W 3856  31.661  23.683   0.218
32241W        W 3857  16.596  41.670   4.462
32242W        W 3858  23.626  37.077  11.621
32243W        W 3859  41.367   2.417   4.627
32244W        W 3860  37.543  22.216  12.015
32245W        W 3861   0.723  20.985   5.003
32246W        W 3862   9.673  43.228  11.672
32247W        W 3863  32.475  31.644  13.590
32248W        W 3864  41.814  30.066  14.033
32249W        W 3865  38.082  10.197   1.363
32250W        W 3866   6.890  10.702   0.303
32251W        W 3867  27.166  15.583  11.772
32252W        W 3868   1.422  15.507   0.946
32253W        W 3869  24.292  12.327  11.954
32254W        W 3870  26.260   9.748   0.996
32255W        W 3871   0.225  31.979  12.944
32256W        W 3872  39.210  25.477  11.639
32257W        W 3873  27.071  18.022  11.414
32258W        W 3874  34.747  17.535  12.805
32259W        W 3875  28.866  29.720   3.339
32260W        W 3876  24.727  15.223  13.402
32261W        W 3877  27.414   9.619  12.158
32262W        W 3878  21.816   5.506   1.418
32263W        W 3879  31.670  27.450   2.430
32264W        W 3880  39.770  12.838  13.993
32265W        W 3881  14.719  41.010   4.252
32266W        W 3882  21.065  15.777  12.242
32267W        W 3883  20.372   3.441   0.793
32268W        W 3884  24.175   2.207   4.112
32269W        W 3885  27.509  40.580  11.925
32270W        W 3886   2.680  38.582  14.749
32271W        W 3887  32.682   2.302  13.793
32272W        W 3888  37.912  39.395  14.912
32273W        W 3889  42.401  22.517   0.552
32274W        W 3890  33.068   0.754  13.288
32275W        W 3891  21.644  12.039   1.722
32276W        W 3892  32.764  11.583  11.222
32277W        W 3893  27.006   8.162   3.699
32278W        W 3894  14.596  15.109  13.312
32279W        W 3895  39.104  38.410  11.239
32280W        W 3896  31.031   9.212   3.669
32281W        W 3897  33.477  37.860  10.674
32282W        W 3898  24.615  43.296  13.853
32283W        W 3899  16.133  12.685  11.120
32284W        W 3900  19.157  29.573   3.130
32285W        W 3901  28.261  31.412  12.999
32286W        W 3902  39.496   6.216  14.299
32287W        W 3903  14.849  36.594  10.733
32288W        W 3904   4.479   5.284   0.853
32289W        W 3905  32.717   4.230  11.033
32290W        W 3906  38.056  23.124  13.982
32291W        W 3907   1.692  26.039   0.429
32292W        W 3908  16.848   6.759  14.693
32293W        W 3909  38.063  25.003  10.397
32294W        W 3910  21.358   9.458  14.803
32295W        W 3911  30.094   5.662   4.574
32296W        W 3912  32.663  32.950  10.730
32297W        W 3913  29.965  31.013   3.810
32298W        W 3914  27.883  26.109   0.777
32299W        W 3915  21.850   0.021  14.420
32300W        W 3916  43.313  43.253  14.812
32301W        W 3917   0.923  35.560   1.388
32302W        W 3918   5.650  37.063   2.157
32303W        W 3919  15.890  10.773  13.105
32304W        W 3920  40.788   0.642   4.553
32305W        W 3921  43.911  14.093   0.201
32306W        W 3922  43.954   4.423   4.734
32307W        W 3923  38.575  15.625  13.052
32308W        W 3924   2.718  38.317  13.799
32309W        W 3925  16.655   8.174  14.000
32310W        W 3926  35.315  19.562   2.382
32311W        W 3927  37.171  23.071  14.840
32312W        W 3928  29.437   8.442  11.380
32313W        W 3929  17.338  12.079  13.588
32314W        W 3930   5.320   5.165   1.328
32315W        W 3931   6.062  10.326   2.164
32316W        W 3932   3.684  33.772  14.841
32317W        W 3933  30.476  38.182  13.805
32318W        W 3934  43.278  33.520  10.928
32319W        W 3935  30.225   0.402  14.464
32320W        W 3936  12.957  15.344  14.356
32321W        W 3937  35.502  42.799   0.353
32322W        W 3938  13.178  17.175  14.712
32323W        W 3939  36.653  28.954  12.282
32324W        W 3940  13.770  43.191  13.846
32325W        W 3941  34.864  41.887  11.164
32326W        W 3942  19.783  31.901   1.304
32327W        W 3943  27.352  31.083   1.623
32328W        W 3944  16.683   9.160   0.908
32329W        W 3945   5.783  27.478   0.894
32330W        W 3946  39.072  18.277   3.437
32331W        W 3947   7.717  34.261  10.806
32332W        W 3948   0.161   7.489  12.686
32333W        W 3949  19.050  34.411  14.463
32334W        W 3950  38.146  11.510   3.566
32335W        W 3951  15.824  32.240  14.519
32336W        W 3952  42.004  29.885  13.014
32337W        W 3953  34.680  22.112   2.381
32338W        W 3954  26.937  11.423  12.971
32339W        W 3955  31.116   1.941   5.104
32340W        W 3956  31.909  28.759  11.004
32341W        W 3957  10.781  39.015  10.877
32342W        W 3958   4.736  24.057  10.561
32343W        W 3959   4.180  33.839  12.075
32344W        W 3960  14.098  26.016  11.608
32345W        W 3961  26.020  32.707   3.565
32346W        W 3962  24.408  25.947  11.605
32347W        W 3963  12.173  42.933  13.430
32348W        W 3964  41.323  19.591   1.380
32349W        W 3965   5.639  30.990  12.429
32350W        W 3966  10.314  35.512  11.474
32351W        W 3967  35.893  15.056   3.258
32352W        W 3968  19.588  43.279  12.104
32353W        W 3969  15.614   9.433  14.304
32354W        W 3970   6.738  28.682   3.277
32355W        W 3971  44.367  21.489  11.221
32356W        W 3972   7.776  15.556   1.327
32357W        W 3973   1.581  24.816  10.193
32358W        W 3974   5.740  32.037  14.445
32359W        W 3975   1.872  17.607   1.009
32360W        W 3976  43.609  29.296  11.676
32361W        W 3977   4.927  33.682  12.588
32362W        W 3978  25.102  39.096   3.277
32363W        W 3979  42.711  30.697   3.593
32364W        W 3980  38.846  14.297  10.753
32365W        W 3981  17.578  40.016  12.529
32366W        W 3982  18.050  14.275  10.689
32367W        W 3983   7.852  19.029   3.305
32368W        W 3984   5.460  30.350   0.851
32369W        W 3985  26.605  16.080   1.411
32370W        W 3986  40.007  25.642   2.761
32371W        W 3987  31.528   2.472  14.888
32372W        W 3988   7.581  33.513  11.160
32373W        W 3989  13.611  17.259  12.158
32374W        W 3990  20.593  35.617  10.752
32375W        W 3991  18.344   2.417  13.522
32376W        W 3992   4.933  43.383  10.995
32377W        W 3993  40.599  27.230   4.088
32378W        W 3994   0.383  27.279   1.316
32379W        W 3995  14.323   4.828   0.352
32380W        W 3996  18.004  32.447   2.130
32381W        W 3997   7.945   9.962  14.346
32382W        W 3998   1.839  31.469   2.887
32383W        W 3999  27.476  11.338  12.915
32384W        W 4000   8.209  31.826   1.177
32385W        W 4001  14.395  36.822   3.298
32386W        W 4002  29.121  32.057   1.210
32387W        W 4003  40.186   4.466  14.379
32388W        W 4004   1.381  27.738   0.253
32389W        W 4005   8.529   1.218   4.492
32390W        W 4006   5.757  20.846  12.905
32391W        W 4007  43.360   5.343  14.050
32392W        W 4008  34.678  12.253   4.590
32393W        W 4009  16.711  11.598   1.703
32394W        W 4010  10.935  17.119   0.090
32395W        W 4011   0.982  10.799  14.978
32396W        W 4012  26.045  10.795   4.713
32397W        W 4013  30.449   4.646  14.395
32398W        W 4014  31.034   3.223  11.945
32399W        W 4015   2.447  21.713   2.122
32400W        W 4016  18.592  39.726   2.369
32401W        W 4017  25.648  24.638   1.678
32402W        W 4018  15.441  19.077  13.801
32403W        W 4019  38.394  13.271  11.988
32404W        W 4020  44.901  43.857  12.346
32405W        W 4021  42.964  39.593  14.504
32406W        W 4022   6.137  30.515   2.374
32407W        W 4023  15.245  22.523  13.958
32408W        W 4024  17.828  12.269  11.156
32409W        W 4025  33.859   7.458   0.194
32410W        W 4026  31.098  25.720   0.765
32411W        W 4027  25.949  27.046  10.641
32412W        W 4028  35.444  34.125   2.369
32413W        W 4029  41.005  42.111   4.568
32414W        W 4030   8.718   1.949   0.189
32415W        W 4031  26.865  39.032   2.363
32416W        W 4032  22.754  28.552  12.063
32417W        W 4033  20.064  43.346  13.037
32418W        W 4034  36.010   7.146  14.960
32419W        W 4035  35.808  26.632  10.676
32420W        W 4036  33.083   5.430   3.200
32421W        W 4037  25.755  19.622   1.154
32422W        W 4038  17.331  19.265  12.989
32423W        W 4039  28.588  21.555   1.799
32424W        W 4040  38.971   8.244  12.133
32425W        W 4041  20.648  38.049  14.915
32426W        W 4042  17.476   6.424  11.311
32427W        W 4043  18.761  32.445  12.470
32428W        W 4044   7.813  22.500   1.402
32429W        W 4045  10.167  23.754  12.689
32430W        W 4046  27.922  23.652  10.636
32431W        W 4047  39.244   0.065   0.573
32432W        W 4048  30.014   3.922  10.692
32433W        W 4049   8.801  42.016  10.717
32434W        W 4050  44.963  19.198  13.857
32435W        W 4051   4.437   3.766  13.988
32436W        W 4052  40.016  14.360  14.464
32437W        W 4053  30.055   1.548   3.736
32438W        W 4054  40.461   0.783   4.172
32439W        W 4055  16.221  33.951  10.872
32440W        W 4056  22.657  37.595  10.008
32441W        W 4057  32.628  40.475   1.872
32442W        W 4058  32.119  20.781  13.482
32443W        W 4059   0.900  17.760   0.079
32444W        W 4060   7.936  41.577  13.153
32445W        W 4061  31.531  35.126  11.126
32446W        W 4062  43.180  42.930   0.243
32447W        W 4063  21.540  20.231  14.039
32448W        W 4064  37.177   6.176   0.353
32449W        W 4065   7.958  23.115   0.941
32450W        W 4066  30.877  12.140   2.170
32451W        W 4067  21.324  39.038  11.516
32452W        W 4068  25.159  14.760   2.731
32453W        W 4069  12.415  10.267   0.358
32454W        W 4070  37.031  28.005   0.810
32455W        W 4071  12.594  18.139  13.784
32456W        W 4072  25.903  27.471   2.665
32457W        W 4073  36.355  15.580  13.880
32458W        W 4074  30.152  31.426  10.720
32459W        W 4075  43.512  36.307  14.060
32460W        W 4076  42.595  35.966   3.246
32461W        W 4077  23.091  16.502   1.287
32462W        W 4078  39.777  32.929   4.123
32463W        W 4079   0.801  20.051   1.813
32464W        W 4080  44.079  20.021   2.494
32465W        W 4081  44.743  43.333   0.983
32466W        W 4082   8.962   9.291   2.314
32467W        W 4083  33.363   1.402   2.306
32468W        W 4084  20.501  20.802   2.756
32469W        W 4085  20.743  36.929   2.733
32470W        W 4086  37.007  14.634  12.105
32471W        W 4087  23.962  37.567   0.378
32472W        W 4088  35.525  23.250   1.371
32473W        W 4089   1.660  17.158   1.705
32474W        W 4090  21.502  32.290  11.189
32475W        W 4091  27.628  36.779  11.108
32476W        W 4092  34.515   8.731  13.140
32477W        W 4093  39.786  18.318  14.407
32478W        W 4094  28.946  34.949  12.946
32479W        W 4095  29.734  44.426   0.827
32480W        W 4096  13.385  35.942   3.761
32481W        W 4097   0.023   3.361   1.818
32482W        W 4098   0.295  35.791  13.010
32483W        W 4099  38.867  31.426   2.923
32484W        W 4100  20.984  13.130  11.580
32485W        W 4101  39.051  18.467   4.460
32486W        W 4102  20.266   7.889  12.025
32487W        W 4103  20.196  36.896   2.694
32488W        W 4104   1.377  20.161  13.318
32489W        W 4105  10.355  13.715  10.971
32490W        W 4106  32.291  27.369   9.851
32491W        W 4107  11.768   6.429  14.251
32492W        W 4108  38.300  40.932   0.333
32493W        W 4109  31.106  15.188   0.682
32494W        W 4110  37.105   9.664   2.367
32495W        W 4111  25.241  32.913   2.248
32496W        W 4112  30.990  23.217   1.296
32497W        W 4113  41.101  39.786   3.134
32498W        W 4114  42.920   8.886   2.758
32499W        W 4115   7.252  11.793   3.454
32500W        W 4116  16.741   4.433   2.378
32501W        W 4117  22.626  42.916  14.169
32502W        W 4118  19.781  43.846  10.858
32503W        W 4119  12.914  38.980  14.425
32504W        W 4120  32.530  34.879  10.468
32505W        W 4121   6.952  31.295   3.228
32506W        W 4122  38.381  16.931  13.768
32507W        W 4123  20.158   8.940   2.211
32508W        W 4124  11.631   8.717   3.198
32509W        W 4125  15.602  36.975   2.618
32510W        W 4126  40.802  26.081   2.871
32511W        W 4127  24.539  27.995  10.732
32512W        W 4128   3.257  42.547  11.410
32513W        W 4129  22.102   1.261   4.121
32514W        W 4130  15.313  25.702   2.253
32515W        W 4131  43.290   3.467   3.854
32516W        W 4132  41.885  40.513  13.603
32517W        W 4133  22.993  34.663  13.079
32518W        W 4134  31.973   3.543  12.937
32519W        W 4135   2.407  35.026  14.498
32520W        W 4136  40.981  41.894   1.117
32521W        W 4137  22.649  44.207   0.337
32522W        W 4138  40.463   0.305   2.306
32523W        W 4139  27.431  27.835  12.827
32524W        W 4140  14.710  34.870   4.096
32525W        W 4141  43.400  41.485   2.769
32526W        W 4142  28.002  27.135   3.162
32527W        W 4143  15.818  34.631   2.261
32528W        W 4144  17.104  12.083  10.931
32529W        W 4145  11.352  33.087  10.837
32530W        W 4146  31.520  40.810  11.557
32531W        W 4147  13.322   6.336  13.555
32532W        W 4148  25.765  42.945   2.795
32533W        W 4149   4.245  42.017  14.262
32534W        W 4150  33.670  12.270   0.324
32535W        W 4151  24.286  39.427  11.033
32536W        W 4152  39.408  18.269   1.233
32537W        W 4153  35.300  43.177   3.225
32538W        W 4154   8.214  26.853   3.140
32539W        W 4155  41.902   9.306   2.657
32540W        W 4156   1.975  36.323   2.783
32541W        W 4157  37.737  16.284  13.294
32542W        W 4158  10.795  13.856  10.710
32543W        W 4159  28.160  24.220  12.905
32544W        W 4160  32.679  33.490   2.766
32545W        W 4161   3.586   1.898  13.145
32546W        W 4162   5.703  43.778   0.272
32547W        W 4163  35.831   3.546  11.451
32548W        W 4164  44.767  18.732  13.043
32549W        W 4165  13.025  13.285   1.136
32550W        W 4166  27.297  39.913  12.990
32551W        W 4167  23.488   4.212  10.770
32552W        W 4168  32.600  11.543   4.129
32553W        W 4169   7.755  10.899  10.706
32554W        W 4170  41.694  44.463  14.483
32555W        W 4171   1.861  22.760   2.289
32556W        W 4172  22.808  28.170   0.960
32557W        W 4173  41.525  23.494   4.183
32558W        W 4174  27.038  33.393   3.370
32559W        W 4175  24.019  29.194   4.264
32560W        W 4176  20.262  32.179  13.058
32561W        W 4177   4.305  27.422  13.666
32562W        W 4178  40.957  38.233  12.022
32563W        W 4179  16.998  11.026   4.072
32564W        W 4180  17.782  25.493  13.286
32565W        W 4181  13.086  40.533  11.173
32566W        W 4182  10.586  18.167   1.431
32567W        W 4183  12.259  24.730  13.361
32568W        W 4184   1.445   6.908  13.015
32569W        W 4185  28.570   6.687   4.405
32570W        W 4186  22.018   9.109  11.527
32571W        W 4187  20.837  35.464  12.066
32572W        W 4188  40.773  18.671   2.660
32573W        W 4189  42.947  29.671  12.762
32574W        W 4190  36.676  10.224   1.253
32575W        W 4191  34.484  39.815   4.803
32576W        W 4192   7.919  14.114   2.632
32577W        W 4193  32.805  26.819  12.622
32578W        W 4194   9.317  23.143   2.212
32579W        W 4195  32.398  18.841  12.706
32580W        W 4196  38.544   7.772   3.652
32581W        W 4197  23.538  25.196   2.250
32582W        W 4198   0.362  22.287  10.466
32583W        W 4199   3.971  17.096  10.728
32584W        W 4200  19.301  16.549  12.555
32585W        W 4201   6.699  33.568   0.430
32586W        W 4202  44.785  25.559   1.747
32587W        W 4203   1.211  37.962   4.650
32588W        W 4204  43.979  40.253   0.987
32589W        W 4205  31.620  43.261  13.304
32590W        W 4206  39.549   8.698   3.678
32591W        W 4207  22.710  23.348  10.457
32592W        W 4208  37.297  14.860   0.135
32593W        W 4209  26.313  26.515   0.498
32594W        W 4210  34.573  35.490  10.373
32595W        W 4211  17.053  31.013   3.258
32596W        W 4212   1.375  18.034  14.942
32597W        W 4213  28.631   1.405  13.854
32598W        W 4214  39.601  26.596   3.807
32599W        W 4215  16.648  17.628   1.759
32600W        W 4216  22.459  44.994  14.114
32601W        W 4217  19.714  37.903  14.904
32602W        W 4218  22.509  17.215   0.847
32603W        W 4219   3.423  12.356   3.106
32604W        W 4220   4.210  44.350  10.479
32605W        W 4221  34.977  28.396   1.896
32606W        W 4222  30.390   8.394   4.102
32607W        W 4223  39.267   4.514  10.634
32608W        W 4224   0.579  31.333  14.425
32609W        W 4225   8.380  36.078  13.924
32610W        W 4226  25.658   1.442  11.501
32611W        W 4227   4.155  40.754  12.064
32612W        W 4228  18.001  26.757   0.504
32613W        W 4229  22.488  41.887   1.360
32614W        W 4230  11.203  16.658   1.461
32615W        W 4231  28.714  42.106   4.532
32616W        W 4232  25.275  17.716  12.510
32617W        W 4233  19.028  12.965  13.822
32618W        W 4234  17.230   2.672  14.705
32619W        W 4235  15.328  44.524  13.393
32620W        W 4236  38.440  38.539   0.643
32621W        W 4237  28.574   9.328  12.900
32622W        W 4238  23.065   7.141  13.487
32623W        W 4239  37.582   1.242  12.060
32624W        W 4240  33.119   7.160  14.026
32625W        W 4241  13.634   6.234   1.601
32626W        W 4242  17.389   6.734   1.400
32627W        W 4243  29.263  19.998   3.598
32628W        W 4244  16.255  21.132  10.695
32629W        W 4245  25.104  19.481  12.422
32630W        W 4246   6.075   7.352   4.947
32631W        W 4247  17.205  33.601   3.757
32632W        W 4248  16.235  25.452  12.559
32633W        W 4249   9.854  23.951   1.901
32634W        W 4250  10.172  30.567  14.481
32635W        W 4251  12.763  12.770  11.626
32636W        W 4252  26.554   3.293  10.590
32637W        W 4253  43.243  34.807   4.935
32638W        W 4254   9.755  24.313  14.901
32639W        W 4255  35.103  11.871   3.091
32640W        W 4256  10.769   0.997   1.172
32641W        W 4257  27.179  23.026   0.773
32642W        W 4258   3.888  11.576   4.056
32643W        W 4259  22.252  24.136  12.606
32644W        W 4260  40.250  20.083   2.777
32645W        W 4261  43.823   0.344   4.568
32646W        W 4262  31.841  38.786   4.761
32647W        W 4263  39.417  25.990  13.822
32648W        W 4264   3.497  17.798   3.880
32649W        W 4265  26.431   1.237   4.739
32650W        W 4266   4.890  32.188  12.602
32651W        W 4267   0.206  44.955   1.701
32652W        W 4268  39.477  13.703  14.363
32653W        W 4269   9.814  22.080   5.141
32654W        W 4270  33.492  15.154  13.980
32655W        W 4271   1.167  26.508  14.970
32656W        W 4272  12.671   6.715  10.092
32657W        W 4273  29.022  21.565   0.359
32658W        W 4274  42.803  27.211   2.118
32659W        W 4275  36.590  23.140   0.783
32660W        W 4276  26.719   5.457  12.396
32661W        W 4277  14.785  40.757   2.942
32662W        W 4278  17.646  21.055  14.935
32663W        W 4279  11.240  12.402  13.334
32664W        W 4280  31.336   6.884   4.525
32665W        W 4281  15.468  20.678  12.121
32666W        W 4282   0.206   7.753  12.204
32667W        W 4283  29.467  42.035  10.465
32668W        W 4284   6.039   5.291  10.953
32669W        W 4285  40.877  22.252   0.931
32670W        W 4286  24.500  10.820   1.229
32671W        W 4287  20.993  33.617  12.955
32672W        W 4288  40.479  11.713  12.801
32673W        W 4289  24.450   6.213  12.058
32674W        W 4290   6.467   9.382   1.264
32675W        W 4291   2.647  29.016  14.618
32676W        W 4292  30.477  12.888   2.640
32677W        W 4293   3.798  25.096  10.945
32678W        W 4294  41.122  23.016   2.164
32679W        W 4295   4.430   3.596   3.746
32680W        W 4296   8.242  43.223   3.226
32681W        W 4297   8.564  11.851  13.842
32682W        W 4298  33.454  33.454  10.344
32683W        W 4299  36.130  25.578  12.594
32684W        W 4300  40.833  44.035  10.420
32685W        W 4301  31.587   2.840   2.110
32686W        W 4302   8.243  41.820   3.560
32687W        W 4303  27.645   4.008  11.114
32688W        W 4304  39.838  33.974   3.356
32689W        W 4305  40.509   0.516  13.917
32690W        W 4306  22.229  35.339  11.612
32691W        W 4307  11.350  17.268   0.394
32692W        W 4308   4.308  22.559   1.863
32693W        W 4309  18.207  32.897   2.858
32694W        W 4310  20.757  29.383  11.171
32695W        W 4311  25.792  10.667   0.931
32696W        W 4312  31.342   5.598  14.870
32697W        W 4313  25.285  14.804   4.133
32698W        W 4314  18.222  23.644   4.768
32699W        W 4315  18.649  13.443  11.552
32700W        W 4316  34.921  21.626   4.257
32701W        W 4317  19.655  20.051   1.462
32702W        W 4318  20.345   5.457  14.857
32703W        W 4319  38.053  18.554  12.500
32704W        W 4320  28.643  13.832  11.130
32705W        W 4321  23.732   0.806  10.977
32706W        W 4322  22.320  10.708  14.765
32707W        W 4323  17.917  19.811   3.735
32708W        W 4324  12.576  42.813  11.554
32709W        W 4325  23.134   3.879   4.864
32710W        W 4326  39.495  10.611   2.236
32711W        W 4327  31.907  13.079   2.223
32712W        W 4328   2.317  37.851   4.791
32713W        W 4329  27.275  33.910   2.383
32714W        W 4330   1.219  22.017  10.589
32715W        W 4331  32.825  33.325  14.545
32716W        W 4332  42.036  22.458   1.911
32717W        W 4333   4.929  34.408  13.901
32718W        W 4334  39.580  22.616  11.452
32719W        W 4335  25.206  39.082   0.680
32720W        W 4336  32.153  31.082   2.160
32721W        W 4337  18.398  43.132   1.199
32722W        W 4338  16.278  10.063   3.335
32723W        W 4339  22.616  12.155  12.933
32724W        W 4340  11.164   8.764  13.426
32725W        W 4341  25.608  20.616   1.861
32726W        W 4342  38.826  41.050   0.375
32727W        W 4343  43.073  11.231   0.931
32728W        W 4344   8.477  12.795   3.329
32729W        W 4345  11.669  20.169  12.168
32730W        W 4346  28.221  18.356   0.795
32731W        W 4347  33.832   9.589   2.828
32732W        W 4348  10.230  16.230   3.505
32733W        W 4349  20.662  16.982   1.219
32734W        W 4350  32.159  15.701   4.515
32735W        W 4351   1.604  42.911   1.039
32736W        W 4352   8.146   6.619  11.446
32737W        W 4353  21.270  21.674  10.896
32738W        W 4354  30.967   4.193  13.077
32739W        W 4355  40.290  40.101  12.937
32740W        W 4356  23.687  27.689  13.952
32741W        W 4357  18.671   1.028   2.269
32742W        W 4358   5.748   6.236  12.339
32743W        W 4359   8.971  42.764   3.280
32744W        W 4360  11.310  35.008   0.465
32745W        W 4361  15.799  33.586   1.368
32746W        W 4362  42.832  27.736  13.975
32747W        W 4363  10.327  34.904  13.009
32748W        W 4364  43.981  27.166  11.688
32749W        W 4365  11.317  25.425  11.164
32750W        W 4366  34.856  29.609   3.354
32751W        W 4367  27.141  14.273  12.451
32752W        W 4368  29.184  36.741  12.204
32753W        W 4369  24.801  10.861  11.761
32754W        W 4370  38.504  33.110  13.022
32755W        W 4371  43.609   1.510  10.790
32756W        W 4372  13.344  17.474  13.805
32757W        W 4373  33.050  41.089  12.986
32758W        W 4374  32.018  12.680  11.219
32759W        W 4375  25.462  18.854  13.564
32760W        W 4376   6.759  36.731  13.308
32761W        W 4377  34.011   1.119  10.875
32762W        W 4378  40.252  17.462  14.323
32763W        W 4379  26.867  43.828   0.883
32764W        W 4380  16.673  26.023   0.377
32765W        W 4381  37.895   4.567   3.347
32766W        W 4382  26.386   3.769   2.700
32767W        W 4383  31.088  10.663  11.603
32768W        W 4384  26.939  20.520   4.637
32769W        W 4385  31.566  32.888  11.618
32770W        W 4386  17.350  14.067   0.784
32771W        W 4387  23.690  13.043   2.331
32772W        W 4388  37.885  38.673   4.656
32773W        W 4389  40.910  30.972   2.969
32774W        W 4390  17.977  43.369  11.638
32775W        W 4391   2.221  36.108  10.775
32776W        W 4392   1.691  33.632   1.203
32777W        W 4393  29.933  29.551   2.814
32778W        W 4394  25.761  14.244  14.377
32779W        W 4395  20.154  30.733  12.028
32780W        W 4396   7.177  39.249  11.033
32781W        W 4397  32.470  15.343   2.166
32782W        W 4398   9.985  16.853  14.364
32783W        W 4399  38.428  14.645   2.073
32784W        W 4400  36.797  21.230  14.829
32785W        W 4401  30.322  15.265  10.514
32786W        W 4402  41.094  42.843  11.724
32787W        W 4403  16.413  10.772  13.013
32788W        W 4404  37.103  10.232  14.886
32789W        W 4405  31.989   1.267  13.331
32790W        W 4406  18.596  15.244   3.342
32791W        W 4407  34.918  37.574   2.183
32792W        W 4408  25.357  39.052   3.762
32793W        W 4409   3.691  24.048  11.540
32794W        W 4410  27.014  27.059  13.740
32795W        W 4411   3.508  42.065   2.695
32796W        W 4412  42.313  30.895  12.014
32797W        W 4413   5.233  40.074   3.193
32798W        W 4414  21.190  13.211  12.974
32799W        W 4415  21.589  37.814  12.159
32800W        W 4416  39.954  17.274  13.299
32801W        W 4417  39.239   7.075  14.070
32802W        W 4418  33.504  15.625   0.995
32803W        W 4419  28.205  32.148  10.883
32804W        W 4420   3.614  21.967  12.452
32805W        W 4421  43.548  10.661   4.235
32806W        W 4422  42.467   1.205  14.529
32807W        W 4423  27.647  33.845   3.195
32808W        W 4424  41.403   2.474  12.509
32809W        W 4425  27.137   3.920  11.083
32810W        W 4426  42.336   3.679   1.733
32811W        W 4427  26.429  21.553  12.617
32812W        W 4428  43.055  30.522  11.601
32813W        W 4429  20.285  41.786   0.746
32814W        W 4430   1.297  42.300  13.457
32815W        W 4431   2.994  32.099  13.591
32816W        W 4432  37.811  18.649  13.768
32817W        W 4433  24.501   5.174  14.401
32818W        W 4434  38.782  36.269   2.783
32819W        W 4435  21.967  29.925   2.693
32820W        W 4436  44.564  42.914  11.214
32821W        W 4437  20.038  30.130   1.903
32822W        W 4438  38.885  40.556   1.403
32823W        W 4439  22.473   4.774   4.740
32824W        W 4440  43.453  42.217  13.939
32825W        W 4441  20.781   8.208   0.070
32826W        W 4442   5.194  22.021   0.492
32827W        W 4443  17.263  25.081   1.507
32828W        W 4444   8.705  15.331   1.930
32829W        W 4445  17.051   1.493   1.947
32830W        W 4446  25.562  17.990   1.151
32831W        W 4447  18.660   9.823  12.528
32832W        W 4448  40.018   8.415   1.756
32833W        W 4449  21.437   1.271   1.504
32834W        W 4450  34.379   2.256  12.561
32835W        W 4451  22.657  12.227  11.061
32836W        W 4452  18.063   7.740   4.351
32837W        W 4453  31.885   4.869  14.207
32838W        W 4454  21.641   6.785  12.067
32839W        W 4455   5.985  31.806   3.838
32840W        W 4456  43.747   4.760  11.185
32841W        W 4457  14.205   0.562  11.163
32842W        W 4458   4.848  26.740  10.208
32843W        W 4459   2.902  43.263   3.180
32844W        W 4460  25.858  25.036   4.587
32845W        W 4461   2.826  38.005   0.953
32846W        W 4462  35.107  25.030  13.784
32847W        W 4463  43.715   0.033   4.161
32848W        W 4464  15.144  11.128  14.070
32849W        W 4465   7.504   0.394  14.644
32850W        W 4466  27.078  31.871   4.680
32851W        W 4467  31.309   0.612   5.408
32852W        W 4468  14.792  37.032   2.020
32853W        W 4469   5.358  37.292   3.668
32854W        W 4470  10.274  32.371   1.811
32855W        W 4471  26.678  21.711  14.366
32856W        W 4472   4.848  17.169  11.669
32857W        W 4473  29.991  18.125  12.344
32858W        W 4474  15.132  28.083  14.779
32859W        W 4475  32.804   8.326   4.090
32860W        W 4476  32.930  34.462   1.462
32861W        W 4477  24.142  26.284  11.880
32862W        W 4478   6.400  28.092  14.289
32863W        W 4479   2.043  14.691  11.221
32864W        W 4480  13.110   9.737   0.957
32865W        W 4481  11.903  26.732  13.999
32866W        W 4482  21.025  25.935  12.549
32867W        W 4483   0.908   4.640  11.621
32868W        W 4484   6.402   1.789  10.324
32869W        W 4485  16.238  10.095  13.437
32870W        W 4486  40.576  24.018   1.823
32871W        W 4487  32.549   9.901   0.827
32872W        W 4488  21.785  32.250   0.637
32873W        W 4489  32.663   1.162   3.090
32874W        W 4490  27.517  42.595   1.851
32875W        W 4491  24.001  31.410   3.658
32876W        W 4492  26.569  40.014  12.554
32877W        W 4493   5.853  22.368   2.837
32878W        W 4494  11.667  37.938  11.352
32879W        W 4495  27.762  24.985  14.519
32880W        W 4496  44.038  29.710   3.978
32881W        W 4497  16.160  34.671   0.385
32882W        W 4498   8.304  28.526  12.163
32883W        W 4499   1.286  27.496  13.289
32884W        W 4500  12.155  32.872   3.129
32885W        W 4501  13.778  38.483  10.857
32886W        W 4502  24.718  42.843  13.045
32887W        W 4503  30.550  22.849   2.275
32888W        W 4504  18.858  42.546   4.231
32889W        W 4505  28.443   0.730  14.307
32890W        W 4506  32.858  17.116   0.530
32891W        W 4507   8.086  10.356  10.223
32892W        W 4508  27.535   8.493   0.402
32893W        W 4509  35.685  26.176   3.474
32894W        W 4510  24.667   5.172   2.128
32895W        W 4511  22.648  19.507   1.297
32896W        W 4512  32.435  17.226  14.121
32897W        W 4513  27.584  28.400   2.236
32898W        W 4514   6.924  37.867   0.849
32899W        W 4515   7.602  40.687   4.794
32900W        W 4516  38.603   6.643  12.574
32901W        W 4517  40.439  11.807   0.847
32902W        W 4518   4.857  19.842   3.603
32903W        W 4519  11.836  22.027  14.135
32904W        W 4520   5.655   7.136   1.853
32905W        W 4521   9.368   8.838  11.593
32906W        W 4522  17.582  30.501  14.907
32907W        W 4523   7.772  31.614  14.808
32908W        W 4524  29.855  16.852  14.475
32909W        W 4525   1.758  41.286   2.860
32910W        W 4526  30.234  21.651   4.099
32911W        W 4527   3.940  34.475   2.136
32912W        W 4528  26.825  11.907  13.108
32913W        W 4529  17.328  37.118   1.761
32914W        W 4530   4.391  16.567  12.180
32915W        W 4531  38.431   3.429   0.041
32916W        W 4532  39.639  14.092  14.673
32917W        W 4533   6.600  42.982   3.706
32918W        W 4534  28.454   0.524   0.949
32919W        W 4535  14.407  43.505  13.026
32920W        W 4536  17.622   3.661  14.531
32921W        W 4537   3.279  21.079  13.540
32922W        W 4538  18.315  23.682   3.765
32923W        W 4539   9.651  17.640  13.091
32924W        W 4540  16.622  44.911  11.208
32925W        W 4541   3.758   5.796   1.171
32926W        W 4542  12.238  37.868   4.576
32927W        W 4543   2.792  29.101   3.142
32928W        W 4544  19.801  41.893   5.429
32929W        W 4545  19.722  40.382   4.592
32930W        W 4546  38.168  34.622   2.381
32931W        W 4547  31.655   8.201  14.165
32932W        W 4548  43.299  20.456  11.089
32933W        W 4549  22.566  40.580  14.319
32934W        W 4550  34.814  21.219   1.981
32935W        W 4551  31.765  16.153   0.242
32936W        W 4552  44.729   8.469  10.645
32937W        W 4553  26.187  26.959  14.398
32938W        W 4554   4.732   4.416  14.813
32939W        W 4555  41.001  40.919  14.340
32940W        W 4556  20.044  19.569  13.029
32941W        W 4557  38.319  38.748  13.485
32942W        W 4558  23.747  22.765  12.489
32943W        W 4559  23.301   5.731   3.108
32944W        W 4560  33.010  28.530   1.494
32945W        W 4561  42.033  17.484   3.683
32946W        W 4562  43.440   1.795  11.234
32947W        W 4563  24.851  18.569   2.204
32948W        W 4564   6.627  16.580   3.683
32949W        W 4565   8.926  23.494  10.465
32950W        W 4566  20.691  26.683   0.801
32951W        W 4567  22.004   5.653  10.745
32952W        W 4568   2.295  14.480   2.356
32953W        W 4569   6.369  42.392   1.329
32954W        W 4570   1.500  37.579   0.921
32955W        W 4571  21.278  40.859   1.005
32956W        W 4572  18.077  20.018   0.907
32957W        W 4573  20.279  16.788   2.675
32958W        W 4574  31.213  22.758   1.290
32959W        W 4575  24.176  43.715   2.231
32960W        W 4576  20.114   2.223   2.145
32961W        W 4577  11.631  43.414  12.560
32962W        W 4578   8.825  29.676  13.606
32963W        W 4579   6.913  13.637  14.146
32964W        W 4580  39.659  42.052   0.742
32965W        W 4581  24.646  38.951  11.209
32966W        W 4582  17.676  39.221   2.155
32967W        W 4583   3.168  24.979  12.235
32968W        W 4584  26.951  32.806  14.869
32969W        W 4585  21.085  36.944  12.542
32970W        W 4586  24.327  25.128  11.203
32971W        W 4587  29.043   8.840  14.943
32972W        W 4588  26.031  11.663   1.916
32973W        W 4589  39.065   0.312   2.840
32974W        W 4590  43.434  18.332   2.491
32975W        W 4591  39.881  32.563   1.011
32976W        W 4592  43.333   9.354  11.653
32977W        W 4593  20.120  15.918  10.637
32978W        W 4594  18.124  34.010  12.068
32979W        W 4595  40.003  36.619   3.691
32980W        W 4596  15.820  24.253  13.823
32981W        W 4597  34.804  33.616   4.542
32982W        W 4598  38.364  44.835  14.468
32983W        W 4599  14.776  33.857  11.018
32984W        W 4600  34.403  43.021  11.641
32985W        W 4601  44.477  41.999   4.421
32986W        W 4602  37.056  22.299   3.154
32987W        W 4603  38.288  38.178   3.656
32988W        W 4604  15.825   5.284  14.995
32989W        W 4605  16.745  12.812  11.541
32990W        W 4606  38.229  44.924   1.955
32991W        W 4607   3.369  22.103   5.483
32992W        W 4608   4.858  35.953   1.183
32993W        W 4609  20.231  36.860   0.738
32994W        W 4610  12.902  42.496  14.486
32995W        W 4611  41.515   9.325  11.556
32996W        W 4612   5.529  41.787  12.901
32997W        W 4613  31.004  43.906   2.276
32998W        W 4614   5.498   5.912   3.676
32999W        W 4615  28.565  37.147  12.014
33000W        W 4616  34.812  34.509   1.152
33001W        W 4617  29.075  16.899   4.089
33002W        W 4618   6.306  17.292  12.770
33003W        W 4619  39.754  34.222  14.886
33004W        W 4620  36.022  41.105   4.048
33005W        W 4621   3.030  18.354   0.094
33006W        W 4622  13.371  13.932   3.289
33007W        W 4623  32.494  18.091  11.966
33008W        W 4624  22.619  43.435   2.423
33009W        W 4625  17.241   9.329  11.122
33010W        W 4626  23.243  43.581  14.906
33011W        W 4627   9.707  16.048   1.255
33012W        W 4628  32.429   2.987  14.893
33013W        W 4629  41.434  14.268  13.683
33014W        W 4630   3.396   3.684   0.420
33015W        W 4631  29.995  39.035  11.144
33016W        W 4632   8.602  43.491   2.358
33017W        W 4633  16.658  22.197   1.212
33018W        W 4634  14.661  33.548  13.386
33019W        W 4635   0.534  32.901  11.011
33020W        W 4636   4.217  10.196  13.794
33021W        W 4637  38.341  19.795   1.274
33022W        W 4638  40.279  10.483  13.351
33023W        W 4639  10.259  20.915  14.434
33024W        W 4640   0.096  42.777   1.368
33025W        W 4641  27.960   5.956  14.362
33026W        W 4642  15.206  30.538  12.347
33027W        W 4643  43.982  10.851   2.265
33028W        W 4644  20.172  21.453  11.652
33029W        W 4645  24.715  44.326  14.325
33030W        W 4646   0.969   2.740  10.859
33031W        W 4647   5.416  39.593   1.811
33032W        W 4648  30.497  44.221  14.825
33033W        W 4649  40.865  41.900  11.164
33034W        W 4650   1.108  17.608   4.944
33035W        W 4651  13.639  33.059   1.686
33036W        W 4652  25.536  16.353   0.427
33037W        W 4653  41.968   2.310   0.370
33038W        W 4654  12.558  17.438   3.703
33039W        W 4655   2.311  31.973   0.927
33040W        W 4656   5.862  26.181   3.661
33041W        W 4657  34.365  14.054   2.630
33042W        W 4658   9.193  21.529  11.419
33043W        W 4659  23.468   5.284   1.803
33044W        W 4660   9.786  38.318   1.989
33045W        W 4661  44.287  42.963   2.923
33046W        W 4662  43.408  40.463   2.584
33047W        W 4663  36.986   1.285   4.373
33048W        W 4664  17.362  30.081  11.903
33049W        W 4665  41.527  15.394   1.392
33050W        W 4666  26.701  11.705  13.870
33051W        W 4667   2.886  13.186   3.395
33052W        W 4668  37.339  38.077  10.889
33053W        W 4669   1.949  44.234   3.597
33054W        W 4670  29.877  33.070   4.834
33055W        W 4671  26.072  14.913   2.568
33056W        W 4672   2.329  17.275   3.723
33057W        W 4673  35.643  41.936   2.980
33058W        W 4674  22.728  42.257   1.955
33059W        W 4675  32.877  37.177  12.103
33060W        W 4676  23.118   0.763  12.528
33061W        W 4677  23.671  12.954   0.229
33062W        W 4678  17.153   4.154   0.087
33063W        W 4679  31.899  28.980   3.427
33064W        W 4680  39.785  10.408  12.047
33065W        W 4681   8.937  26.954  12.914
33066W        W 4682  12.717  13.322   3.316
33067W        W 4683  23.782   9.743   2.711
33068W        W 4684   8.623  24.133   4.160
33069W        W 4685  39.329  21.477   2.893
33070W        W 4686   2.321  21.717  14.469
33071W        W 4687  36.354  15.129  12.542
33072W        W 4688  35.828  17.059   4.169
33073W        W 4689   2.254  31.088  12.244
33074W        W 4690   1.019  19.219  14.635
33075W        W 4691   5.943  25.784   1.450
33076W        W 4692  36.728   0.033   1.504
33077W        W 4693  41.028  20.489  13.996
33078W        W 4694   5.759  36.483  13.860
33079W        W 4695  10.918  25.642  11.482
33080W        W 4696  16.802  35.006   3.003
33081W        W 4697  32.155   5.162   0.955
33082W        W 4698   4.231   1.724   4.095
33083W        W 4699  39.348  33.458  10.456
33084W        W 4700  18.745  43.533  11.991
33085W        W 4701  40.256  13.331  11.007
33086W        W 4702   5.994   0.512   4.337
33087W        W 4703  19.721  20.739   2.649
33088W        W 4704  30.996  21.581   0.774
33089W        W 4705  18.835  40.425   4.033
33090W        W 4706   6.325  27.283   4.874
33091W        W 4707  41.430  26.182   1.852
33092W        W 4708  10.805  28.537   0.787
33093W        W 4709  35.122  43.116   4.840
33094W        W 4710   6.178  16.825  11.431
33095W        W 4711  30.090  32.180  14.824
33096W        W 4712  17.316  38.135   0.289
33097W        W 4713  17.858  37.586   2.826
33098W        W 4714  27.952  22.255   2.511
33099W        W 4715   8.363  39.442   0.913
33100W        W 4716  37.321   6.684   4.667
33101W        W 4717  36.019  42.855   3.081
33102W        W 4718  33.114   8.335  12.431
33103W        W 4719  10.646  41.355  11.643
33104W        W 4720  31.014  31.817   4.423
33105W        W 4721  24.531  14.771   0.338
33106W        W 4722   2.313   5.659  13.059
33107W        W 4723  34.494  36.096   3.243
33108W        W 4724   2.827  36.379   2.239
33109W        W 4725  15.874   9.872  14.416
33110W        W 4726  39.986  33.546   0.515
33111W        W 4727  18.460  43.657   1.262
33112W        W 4728   0.513  32.888  14.364
33113W        W 4729  41.417   4.646  11.629
33114W        W 4730  29.503   4.911   0.428
33115W        W 4731   1.544  33.194   0.853
33116W        W 4732  20.686  33.581  13.914
33117W        W 4733  37.800  40.780  11.435
33118W        W 4734  42.810  34.914  12.429
33119W        W 4735  42.338   1.490  11.622
33120W        W 4736  40.344   4.806   2.324
33121W        W 4737  43.462  11.826   1.468
33122W        W 4738  41.549   8.410  11.630
33123W        W 4739  13.147  37.543  14.141
33124W        W 4740  41.236  29.496   4.648
33125W        W 4741  31.900  37.444  12.223
33126W        W 4742  32.426  29.100   3.615
33127W        W 4743  15.226  15.324  12.462
33128W        W 4744   7.438  25.154  10.665
33129W        W 4745   6.318  10.578   3.273
33130W        W 4746  35.256  20.758  11.996
33131W        W 4747  37.134  10.259   1.528
33132W        W 4748  26.624  20.093  13.325
33133W        W 4749  31.501  14.112  10.805
33134W        W 4750   7.107  15.233  13.747
33135W        W 4751  39.311   1.316   3.770
33136W        W 4752  11.935   9.354   1.438
33137W        W 4753  11.770  25.262   1.786
33138W        W 4754  17.885  28.476  10.681
33139W        W 4755  18.234  31.581   3.147
33140W        W 4756  41.993  43.824   3.253
33141W        W 4757  26.126  28.182  13.069
33142W        W 4758   5.178   7.428  12.535
33143W        W 4759  20.059  26.416   4.014
33144W        W 4760  44.565   7.686  11.972
33145W        W 4761   4.457  27.627   4.510
33146W        W 4762  44.775  32.215   3.220
33147W        W 4763   5.628  13.633  12.438
33148W        W 4764   2.164  29.203  14.688
33149W        W 4765  27.003  14.643  10.254
33150W        W 4766  14.870  31.663   2.311
33151W        W 4767  35.083   6.908   1.249
33152W        W 4768  34.408  23.766  13.853
33153W        W 4769   8.389  42.330   2.412
33154W        W 4770   2.220  21.184  10.446
33155W        W 4771  22.619  16.245   1.365
33156W        W 4772   5.350  22.711  14.886
33157W        W 4773  35.141  32.377  12.354
33158W        W 4774  12.234   1.780  13.575
33159W        W 4775  30.409  23.532   4.599
33160W        W 4776  37.422  39.492   1.798
33161W        W 4777  21.341   0.793  13.914
33162W        W 4778  34.800   9.946   4.785
33163W        W 4779  39.350  28.600  14.767
33164W        W 4780  17.010  38.445   3.162
33165W        W 4781  11.866  35.151  12.060
33166W        W 4782  14.405   8.773   2.628
33167W        W 4783  15.588  15.373  12.092
33168W        W 4784   3.218   3.332   2.439
33169W        W 4785  43.173   4.936   1.693
33170W        W 4786  42.798  33.045  14.675
33171W        W 4787  23.110  37.844   1.896
33172W        W 4788  37.511  37.809   1.165
33173W        W 4789  12.381  34.797  10.679
33174W        W 4790  31.422   3.667   4.586
33175W        W 4791  12.821   0.976  13.995
33176W        W 4792  17.677   8.111   3.564
33177W        W 4793  41.901   1.488  13.861
33178W        W 4794  16.945  15.332  14.700
33179W        W 4795  16.455  24.025  11.557
33180W        W 4796  19.318  20.858   4.709
33181W        W 4797  15.106  38.203  13.900
33182W        W 4798  38.518  26.648  14.260
33183W        W 4799  26.651   0.215   0.770
33184W        W 4800   7.287   3.796   2.713
33185W        W 4801  32.867   0.836   4.682
33186W        W 4802  39.945  37.855   0.784
33187W        W 4803  34.113   5.853  12.365
33188W        W 4804  36.864   4.215  11.716
33189W        W 4805  32.800   4.287   0.546
33190W        W 4806  26.262  20.604   0.414
33191W        W 4807  34.974  20.247  10.749
33192W        W 4808   3.656  23.127   2.098
33193W        W 4809  23.040  14.894   3.324
33194W        W 4810  25.267  25.404  14.524
33195W        W 4811   9.490  26.956   3.649
33196W        W 4812  33.489  35.011  13.825
33197W        W 4813  30.649   3.002  11.631
33198W        W 4814  12.684  39.562   0.345
33199W        W 4815  38.794  30.789  11.207
33200W        W 4816  13.557  26.839   2.857
33201W        W 4817  20.676   0.574  12.323
33202W        W 4818  17.268  35.151  12.231
33203W        W 4819  32.346   7.239   2.359
33204W        W 4820  25.691   2.710  13.103
33205W        W 4821   5.930  26.452  14.494
33206W        W 4822  25.791  42.090  14.962
33207W        W 4823  22.344  35.060   3.721
33208W        W 4824  38.507  28.873  13.854
33209W        W 4825   5.782   7.728  14.766
33210W        W 4826  11.124  25.085   0.989
33211W        W 4827  12.734   7.304   3.847
33212W        W 4828  12.340  43.554  10.777
33213W        W 4829  37.428  37.403   2.368
33214W        W 4830  44.587  38.439  14.416
33215W        W 4831  25.124  24.525   2.894
33216W        W 4832  39.358   3.339   3.406
33217W        W 4833  28.594  20.003  14.444
33218W        W 4834  44.905  11.780   1.307
33219W        W 4835  22.720  23.692  12.902
33220W        W 4836  18.526  29.539  14.833
33221W        W 4837   4.515  15.413  11.082
33222W        W 4838   4.721  18.048   2.257
33223W        W 4839  35.799   3.361  10.459
33224W        W 4840  19.034   9.813   1.714
33225W        W 4841  33.957  30.181  12.860
33226W        W 4842  41.939  38.254  11.087
33227W        W 4843  12.080  23.611   3.693
33228W        W 4844  33.373  15.210  14.522
33229W        W 4845  30.939  30.156  14.689
33230W        W 4846  19.659   0.733  12.393
33231W        W 4847   7.562  10.345   2.230
33232W        W 4848   1.961  44.881   2.020
33233W        W 4849  22.540   0.868  10.963
33234W        W 4850  24.780  39.306   2.856
33235W        W 4851  31.717  30.894   3.604
33236W        W 4852  29.812  37.469   1.468
33237W        W 4853  40.711  40.370  12.798
33238W        W 4854  22.800   1.798   1.254
33239W        W 4855  18.064  41.026   2.208
33240W        W 4856  18.511  13.765  12.995
33241W        W 4857  26.009   9.570   2.353
33242W        W 4858   5.322  29.426  13.802
33243W        W 4859  10.246  22.196   1.471
33244W        W 4860  36.824   3.759  11.477
33245W        W 4861  34.041  30.615  13.168
33246W        W 4862  35.584   4.693   2.436
33247W        W 4863  36.595  20.820  11.469
33248W        W 4864  41.347  23.898   1.302
33249W        W 4865  14.366  24.524   2.243
33250W        W 4866  39.925   7.609   2.888
33251W        W 4867  19.297   7.708   3.782
33252W        W 4868   0.707  20.696  11.974
33253W        W 4869   9.492  24.439  12.504
33254W        W 4870   8.175  21.733   1.141
33255W        W 4871  11.797  12.246   4.647
33256W        W 4872  11.343  18.584   1.319
33257W        W 4873   9.843  34.563   2.233
33258W        W 4874   3.369  20.165   2.509
33259W        W 4875   5.854  24.363  12.635
33260W        W 4876  39.972  33.274  12.589
33261W        W 4877  39.728  26.417  12.334
33262W        W 4878  36.995  14.815   2.074
33263W        W 4879  38.360  26.728   1.344
33264W        W 4880  44.746  22.736  12.598
33265W        W 4881   4.233  39.271  13.989
33266W        W 4882  33.609   0.706   4.818
33267W        W 4883  39.479   8.909   2.718
33268W        W 4884  42.887  35.406   2.370
33269W        W 4885   6.251  40.103  14.503
33270W        W 4886  15.061  26.588  12.192
33271W        W 4887  26.105  15.574  10.441
33272W        W 4888   4.647  16.766   1.880
33273W        W 4889  39.070  24.018   1.759
33274W        W 4890  37.005  32.017   4.875
33275W        W 4891  43.837  22.087   4.147
33276W        W 4892   6.870  34.863  10.566
33277W        W 4893  20.637   3.373   2.115
33278W        W 4894  36.661  29.413  10.712
33279W        W 4895  18.262  35.526  12.838
33280W        W 4896  27.138  13.993   5.041
33281W        W 4897  31.346  28.988   4.281
33282W        W 4898   7.450   9.312  10.834
33283W        W 4899  16.708   7.242  10.679
33284W        W 4900  26.431   4.312  10.673
33285W        W 4901  18.474  25.872   3.222
33286W        W 4902  28.503  16.888  12.014
33287W        W 4903  15.333  18.935   5.020
33288W        W 4904  27.587  44.283  12.028
33289W        W 4905  35.552   2.898  10.590
33290W        W 4906   4.877  31.816  14.030
33291W        W 4907   1.244  29.157   1.739
33292W        W 4908  44.926  27.448   0.755
33293W        W 4909  36.332  17.770   4.290
33294W        W 4910   2.534   1.026   0.196
33295W        W 4911  16.802  14.664   3.136
33296W        W 4912  39.701  34.102   2.889
33297W        W 4913  35.957  40.362  12.756
33298W        W 4914  13.407   8.028  13.457
33299W        W 4915   0.516   4.643  10.226
33300W        W 4916  35.421  27.030   3.303
33301W        W 4917  13.122  43.301   3.705
33302W        W 4918   7.137   4.016   4.033
33303W        W 4919  13.244  35.112  12.192
33304W        W 4920  27.974  34.685  13.598
33305W        W 4921  18.560  20.834  14.512
33306W        W 4922  20.453   2.551  11.161
33307W        W 4923  21.987  29.280   0.782
33308W        W 4924  39.046  14.867   0.004
33309W        W 4925   6.685  43.743  13.911
33310W        W 4926  13.146   2.449   3.655
33311W        W 4927  22.392  44.212  11.932
33312W        W 4928  20.623   5.816   4.092
33313W        W 4929  44.841   7.900   4.126
33314W        W 4930  43.821  42.478  10.755
33315W        W 4931  10.862  33.656  12.093
33316W        W 4932  12.541  25.978  12.661
33317W        W 4933  37.379   3.476   1.689
33318W        W 4934  22.637   9.733  11.120
33319W        W 4935  33.885  22.716   1.700
33320W        W 4936  32.106  34.303   2.540
33321W        W 4937  14.735  42.541   4.104
33322W        W 4938  14.129  44.796  12.555
33323W        W 4939  43.428  17.608  13.563
33324W        W 4940  21.120  40.529   5.221
33325W        W 4941  22.584   2.712  12.518
33326W        W 4942  29.016  30.214  14.487
33327W        W 4943  28.039  33.258  14.770
33328W        W 4944  26.518   2.719  12.797
33329W        W 4945  31.599  21.059  12.812
33330W        W 4946  16.492  41.819  13.489
33331W        W 4947  44.062  11.658   3.307
33332W        W 4948  42.073  23.119   1.396
33333W        W 4949  32.490  17.843   4.482
33334W        W 4950  11.738  12.876   3.614
33335W        W 4951   1.677   7.203   3.279
33336W        W 4952   6.604  40.322   3.673
33337W        W 4953   7.696  23.745   4.960
33338W        W 4954  34.544   6.915   4.576
33339W        W 4955  35.525  34.140  13.304
33340W        W 4956   2.697  19.601  14.427
33341W        W 4957  19.755  23.902   0.918
33342W        W 4958  12.926  42.514   0.020
33343W        W 4959  18.496  11.687   4.545
33344W        W 4960  30.422   6.206   5.046
33345W        W 4961  18.780  14.052   3.654
33346W        W 4962  18.991  32.445   3.726
33347W        W 4963   5.741  14.283   1.730
33348W        W 4964   3.174  32.242   1.312
33349W        W 4965  15.304  15.657  11.102
33350W        W 4966  30.028  10.591  13.946
33351W        W 4967   0.341  17.625  10.880
33352W        W 4968   8.427   3.381  12.514
33353W        W 4969  43.421   6.427  13.377
33354W        W 4970  12.884  24.389   4.056
33355W        W 4971  13.157  35.112   4.131
33356W        W 4972  24.113   1.410  12.043
33357W        W 4973   4.857  17.216   0.713
33358W        W 4974  12.236  13.592  12.502
33359W        W 4975  10.035  19.569  11.028
33360W        W 4976  17.575  16.586  14.882
33361W        W 4977  30.839  27.248  13.782
33362W        W 4978  11.646   1.692  12.455
33363W        W 4979  15.169  39.531   3.748
33364W        W 4980  39.751   9.298   0.455
33365W        W 4981  24.676  18.171   2.897
33366W        W 4982  39.938  24.930   2.044
33367W        W 4983  15.459  19.084   4.179
33368W        W 4984  37.762  26.508   5.025
33369W        W 4985  18.597  16.661   3.769
33370W        W 4986  10.270  22.539   4.548
33371W        W 4987   8.363  26.036   3.947
33372W        W 4988  35.602  22.395   0.467
33373W        W 4989  43.571  16.710   0.856
33374W        W 4990  27.042   7.350  13.237
33375W        W 4991  19.156  26.826  12.979
33376W        W 4992  19.198   9.785  13.902
33377W        W 4993   5.486  13.547  13.729
33378W        W 4994  10.068   4.735   2.193
33379W        W 4995  21.237  20.257  11.112
33380W        W 4996  39.184  30.857  11.554
33381W        W 4997  27.381  19.778   0.333
33382W        W 4998  40.022  12.710   2.672
33383W        W 4999  26.988   4.845  11.664
33384W        W 5000  38.541  14.517  12.386
33385W        W 5001  27.989  26.027  12.483
33386W        W 5002   0.340  27.354   3.312
33387W        W 5003  37.056  24.084  13.520
33388W        W 5004  10.636   7.274   2.899
33389W        W 5005   9.935  37.386   1.862
33390W        W 5006  27.668  38.302  14.808
33391W        W 5007   0.425  13.941  11.421
33392W        W 5008  31.847  43.375   1.473
33393W        W 5009   2.488  21.645   4.102
33394W        W 5010   2.324   1.693   2.118
33395W        W 5011  22.578   3.234  13.284
33396W        W 5012  22.258   6.747  10.314
33397W        W 5013  35.957   7.936  11.795
33398W        W 5014  43.653  26.557  11.136
33399W        W 5015  43.373  31.572  14.773
33400W        W 5016  24.344  10.117   2.352
33401W        W 5017   8.050  20.974   5.008
33402W        W 5018  36.885  27.252   3.292
33403W        W 5019  39.070  22.725  11.168
33404W        W 5020  40.773   7.376   0.946
33405W        W 5021  39.941  27.161  12.987
33406W        W 5022  22.601  41.036   4.707
33407W        W 5023  38.669   9.197  11.149
33408W        W 5024  28.601  34.600   4.543
33409W        W 5025  43.848  18.715   0.318
33410W        W 5026  20.800  13.604   2.628
33411W        W 5027   6.449  34.476   3.105
33412W        W 5028  35.619  41.535  13.300
33413W        W 5029  43.185   2.945  10.530
33414W        W 5030  11.703  33.543  11.186
33415W        W 5031  11.135  36.129   4.189
33416W        W 5032   1.547  29.486  11.700
33417W        W 5033  13.666  43.346  12.466
33418W        W 5034  41.313  14.469  11.158
33419W        W 5035   5.490   3.871   2.340
33420W        W 5036  18.608  22.182   2.865
33421W        W 5037  44.761   1.982  12.904
33422W        W 5038  33.681  26.599   4.017
33423W        W 5039   7.911  32.530   3.802
33424W        W 5040  21.826   2.010  13.963
33425W        W 5041   6.821  23.797   1.728
33426W        W 5042   6.035  37.506  14.214
33427W        W 5043  35.035   3.740  14.927
33428W        W 5044  21.003  22.011   2.422
33429W        W 5045  20.087  42.040  11.124
33430W        W 5046  23.737   5.830   4.954
33431W        W 5047   3.908  27.049  12.610
33432W        W 5048  18.210  38.142   0.515
33433W        W 5049  14.271  12.187   0.703
33434W        W 5050  43.581  10.669  14.412
33435W        W 5051   1.083  18.540   4.609
33436W        W 5052  22.426   8.652   3.179
33437W        W 5053  41.202  44.531  14.384
33438W        W 5054  15.549  20.334   2.226
33439W        W 5055   3.512  21.597  10.647
33440W        W 5056  14.820   8.124   3.760
33441W        W 5057  17.914  35.846   2.292
33442W        W 5058  43.042  40.433   1.908
33443W        W 5059   7.131  10.630  14.377
33444W        W 5060  34.321  27.050  13.775
33445W        W 5061  43.607  36.580   3.724
33446W        W 5062  36.948  22.181   2.320
33447W        W 5063  21.521  40.045   2.868
33448W        W 5064   5.920  28.359   0.938
33449W        W 5065  35.122  11.092   0.316
33450W        W 5066  36.410  16.136  13.381
33451W        W 5067  26.629  19.084  10.699
33452W        W 5068  14.353  38.950   0.877
33453W        W 5069  10.697  40.863  11.826
33454W        W 5070  13.809  26.061  14.531
33455W        W 5071  42.366  42.574  10.553
33456W        W 5072  18.542   0.870  14.594
33457W        W 5073  17.726  27.085   2.334
33458W        W 5074   8.159   5.209  12.656
33459W        W 5075  16.583  38.489  14.004
33460W        W 5076  40.765  15.183   2.723
33461W        W 5077  35.889  12.998  10.235
33462W        W 5078  11.574  39.377   2.865
33463W        W 5079  36.589  15.880  12.966
33464W        W 5080  30.538  39.656  12.474
33465W        W 5081  39.541  33.369  14.513
33466W        W 5082  30.518  20.752  12.993
33467W        W 5083  29.396  27.374   5.579
33468W        W 5084  28.427  36.967   3.217
33469W        W 5085  13.533  37.931  13.343
33470W        W 5086  36.858   2.398  12.580
33471W        W 5087  42.268  11.653  12.432
33472W        W 5088  18.770  16.955   0.855
33473W        W 5089  27.089  15.277   2.225
33474W        W 5090   0.041  13.571   3.616
33475W        W 5091  34.416   6.096  10.726
33476W        W 5092  31.486  24.218   2.829
33477W        W 5093  23.515   2.944   2.336
33478W        W 5094  25.078  42.877   1.251
33479W        W 5095  15.202  11.377   4.945
33480W        W 5096   9.646  42.313  10.717
33481W        W 5097  35.410  25.965   1.695
33482W        W 5098  34.193  26.595   1.357
33483W        W 5099  38.026   4.779   4.674
33484W        W 5100   3.363  14.273   4.667
33485W        W 5101   1.009  41.702  11.523
33486W        W 5102  42.778  44.421   2.418
33487W        W 5103   4.242  36.048  12.902
33488W        W 5104  31.388  41.533  11.027
33489W        W 5105  44.383  26.139  13.764
33490W        W 5106   3.424  43.303   3.196
33491W        W 5107   7.763  15.534  14.931
33492W        W 5108  23.978  37.392   4.044
33493W        W 5109   5.858   9.913   1.911
33494W        W 5110  30.039  15.282  11.829
33495W        W 5111  44.274  26.985   2.092
33496W        W 5112  40.078  43.369  14.300
33497W        W 5113   4.015  16.792  10.283
33498W        W 5114  34.127  44.510  12.443
33499W        W 5115  16.874  44.266   0.378
33500W        W 5116  23.207   2.467   0.595
33501W        W 5117   1.716  13.566  14.294
33502W        W 5118  36.106  19.582   4.163
33503W        W 5119   3.946  14.117  11.054
33504W        W 5120   9.832   0.515   2.302
33505W        W 5121  38.081  11.710  13.002
33506W        W 5122  27.937  17.201   0.284
33507W        W 5123  22.523  12.525  12.054
33508W        W 5124  17.232  26.575  13.840
33509W        W 5125  34.174  18.629   0.956
33510W        W 5126   7.774  20.809  12.553
33511W        W 5127  12.049  11.087  11.598
33512W        W 5128  19.578   6.658   2.004
33513W        W 5129  42.799  22.775  14.851
33514W        W 5130  36.409  10.492   4.075
33515W        W 5131   1.871  41.330  10.600
33516W        W 5132  40.530  26.657   1.822
33517W        W 5133  13.232   8.665   3.188
33518W        W 5134   5.667   2.400  13.918
33519W        W 5135  19.842  40.492   1.857
33520W        W 5136  28.656  11.889   1.768
33521W        W 5137  41.500   3.392  12.141
33522W        W 5138  11.817  16.142   4.580
33523W        W 5139  27.558  15.406  11.443
33524W        W 5140  20.304   7.658  11.571
33525W        W 5141  20.039  41.620   1.527
33526W        W 5142  42.740  22.002   2.240
33527W        W 5143   3.939  16.679   1.301
33528W        W 5144  44.388   7.283   1.801
33529W        W 5145  36.862  28.888   1.750
33530W        W 5146  20.668   9.876   3.938
33531W        W 5147  11.668  30.181   2.365
33532W        W 5148  33.027  22.567   4.252
33533W        W 5149  42.494   3.244   3.226
33534W        W 5150   5.162   5.920   0.952
33535W        W 5151  17.332  15.662   1.042
33536W        W 5152  43.754  35.067   0.406
33537W        W 5153  43.932  19.507  14.553
33538W        W 5154  43.493  16.900  12.087
33539W        W 5155  14.480  34.404   4.178
33540W        W 5156  38.831   1.251  13.439
33541W        W 5157  41.413  11.289  14.391
33542W        W 5158   8.432  33.553   3.506
33543W        W 5159  17.243   3.667  12.202
33544W        W 5160  18.174  12.128   3.245
33545W        W 5161   9.879  39.792   0.290
33546W        W 5162  10.657   1.701  14.903
33547W        W 5163  32.942  36.881   2.944
33548W        W 5164  44.220  42.569  10.376
33549W        W 5165  12.262  12.617   3.123
33550W        W 5166  30.587  16.697  10.976
33551W        W 5167  16.549  30.447  12.044
33552W        W 5168  29.808  15.633   3.344
33553W        W 5169  24.482  34.561   3.267
33554W        W 5170   2.989  39.035   4.137
33555W        W 5171  40.390  42.544   3.743
33556W        W 5172  12.572  13.228  14.752
33557W        W 5173  38.219  25.827   4.142
33558W        W 5174  17.100   5.692   0.207
33559W        W 5175   9.639  27.424  14.902
33560W        W 5176   8.512  11.930  12.070
33561W        W 5177  16.263  14.521  14.829
33562W        W 5178  21.659  38.577   2.771
33563W        W 5179  16.311  31.749  13.091
33564W        W 5180  14.316  38.871  14.447
33565W        W 5181  25.196  36.376  11.642
33566W        W 5182  44.170  27.223   2.628
33567W        W 5183   5.807  18.904   4.898
33568W        W 5184  44.950  35.496  14.886
33569W        W 5185  12.654  19.020  14.248
33570W        W 5186   3.494   2.394   0.717
33571W        W 5187  24.461  44.909   2.212
33572W        W 5188  27.810  36.659   1.431
33573W        W 5189  30.978  36.539  13.039
33574W        W 5190  39.954   0.956   2.322
33575W        W 5191  37.021  15.167   0.733
33576W        W 5192  10.709  43.604   0.553
33577W        W 5193  40.987  19.829  14.725
33578W        W 5194  12.731  13.010   3.814
33579W        W 5195   7.813  23.391  14.202
33580W        W 5196  20.691  14.299  14.047
33581W        W 5197   2.392  35.372  12.424
33582W        W 5198  18.100  18.781   2.398
33583W        W 5199   0.752  11.147  14.079
33584W        W 5200  37.993  36.154   2.672
33585W        W 5201  32.199   2.975  10.662
33586W        W 5202   5.931  18.981  12.509
33587W        W 5203  13.837   5.651  13.080
33588W        W 5204  42.431  42.743  14.918
33589W        W 5205  20.446  24.229   3.181
33590W        W 5206   0.710   2.197  12.012
33591W        W 5207  43.302   3.232  14.670
33592W        W 5208  40.402   7.134  13.535
33593W        W 5209  30.181  42.835   4.579
33594W        W 5210   5.197  35.443   2.788
33595W        W 5211   0.253  44.002  13.483
33596W        W 5212  15.774  18.842   1.341
33597W        W 5213  32.948  12.065  12.442
33598W        W 5214  14.094  30.400   3.370
33599W        W 5215  22.574   6.826  11.726
33600W        W 5216  33.111  38.385  11.553
33601W        W 5217  21.051  33.222   0.916
33602W        W 5218  15.536  20.081  13.886
33603W        W 5219  24.544  18.813  10.842
33604W        W 5220   8.448  28.368   2.248
33605W        W 5221  15.862   0.540   1.735
33606W        W 5222  23.522  32.410   3.382
33607W        W 5223  20.448  31.440  12.357
33608W        W 5224  24.127  42.919   2.834
33609W        W 5225  14.512  40.483   4.259
33610W        W 5226  22.529  39.288   3.670
33611W        W 5227   9.765  10.849   0.887
33612W        W 5228  31.643  11.012   4.999
33613W        W 5229   4.437   2.819  10.933
33614W        W 5230  39.154  10.036   4.831
33615W        W 5231  29.218  14.787   4.142
33616W        W 5232  36.920  14.617   3.912
33617W        W 5233  41.299   1.843   3.918
33618W        W 5234  26.944  42.042  11.140
33619W        W 5235  42.316  21.042  13.839
33620W        W 5236  41.010  20.091   3.787
33621W        W 5237   9.820  14.106   1.327
33622W        W 5238  27.180   3.537   0.063
33623W        W 5239   7.345  20.834  14.194
33624W        W 5240  19.944  37.429  14.830
33625W        W 5241  19.338  29.602   4.078
33626W        W 5242  35.392  23.855  13.394
33627W        W 5243  23.116  18.027  14.852
33628W        W 5244  24.552  18.989   2.272
33629W        W 5245  25.429  32.133  14.798
33630W        W 5246  22.090   6.820   1.356
33631W        W 5247   3.993   0.474  12.370
33632W        W 5248   4.843   5.850  14.146
33633W        W 5249  35.909  24.025   4.176
33634W        W 5250  44.499   6.373   0.350
33635W        W 5251  29.540  12.987   2.873
33636W        W 5252  24.277  15.258   2.820
33637W        W 5253   8.761  18.355  13.329
33638W        W 5254  17.161  10.342   1.864
33639W        W 5255  19.549  29.073  10.831
33640W        W 5256  23.936   3.191  12.913
33641W        W 5257  18.649  38.477   1.522
33642W        W 5258  26.681   0.572   2.208
33643W        W 5259   6.237  42.940   1.831
33644W        W 5260  30.229   1.830   2.292
33645W        W 5261  40.038   4.392   3.065
33646W        W 5262  15.298  40.813   1.767
33647W        W 5263  38.520  11.863   4.640
33648W        W 5264  38.076  27.719   4.588
33649W        W 5265  18.939  33.965  14.260
33650W        W 5266  30.690   8.067  14.404
33651W        W 5267  33.157  36.542   4.705
33652W        W 5268  37.134   6.475  12.867
33653W        W 5269  20.185  32.677   3.377
33654W        W 5270   7.635   1.259   3.224
33655W        W 5271  23.856  21.929   1.339
33656W        W 5272  38.195  25.386  14.034
33657W        W 5273   5.988  10.315  13.429
33658W        W 5274  22.739  29.362   1.389
33659W        W 5275  32.031  27.220   2.119
33660W        W 5276  17.649  36.388  14.426
33661W        W 5277  19.735  17.690   0.525
33662W        W 5278   1.469   0.040   2.250
33663W        W 5279  24.308  22.649  14.894
33664W        W 5280  26.517   4.749   4.524
33665W        W 5281   1.734   4.357   0.257
33666W        W 5282   1.223  11.940  10.602
33667W        W 5283  30.146  33.611  13.383
33668W        W 5284   4.988  10.810   1.409
33669W        W 5285  41.827  10.859  12.629
33670W        W 5286  19.086  36.423   1.606
33671W        W 5287  16.708  22.601  12.816
33672W        W 5288  36.461  43.791   2.306
33673W        W 5289  16.445  26.651  13.380
33674W        W 5290  19.374   7.706  11.774
33675W        W 5291  12.858  32.065  13.583
33676W        W 5292  14.767  30.332  14.816
33677W        W 5293   9.593  30.980   2.283
33678W        W 5294  36.047  21.841  12.321
33679W        W 5295   0.431   9.508  13.043
33680W        W 5296  11.465   0.753   0.371
33681W        W 5297   2.334   4.977  14.305
33682W        W 5298  19.740   1.777   4.188
33683W        W 5299  20.338  23.753   3.867
33684W        W 5300  40.377  13.926  13.455
33685W        W 5301  30.228  29.416   0.468
33686W        W 5302  44.397  23.042  11.193
33687W        W 5303  41.072  27.725  14.278
33688W        W 5304  40.355   4.388  11.749
33689W        W 5305  29.672  13.240  14.308
33690W        W 5306  33.869  32.467   3.706
33691W        W 5307  41.589  26.688  12.943
33692W        W 5308  44.568  18.705   1.192
33693W        W 5309  27.030  41.097   2.541
33694W        W 5310  19.992  20.130   0.712
33695W        W 5311  40.279  14.749  11.307
33696W        W 5312  35.350  38.734  14.055
33697W        W 5313  34.083   9.646  13.846
33698W        W 5314   8.971  40.288   0.728
33699W        W 5315  40.959  43.754  13.864
33700W        W 5316  26.235  34.009   2.295
33701W        W 5317  31.728  43.139  12.451
33702W        W 5318  34.108  21.710   1.938
33703W        W 5319  28.990  25.959   2.647
33704W        W 5320  16.153  24.207   1.550
33705W        W 5321  34.507  33.080   0.386
33706W        W 5322   6.248  10.157   4.568
33707W        W 5323  41.832  34.105  11.220
33708W        W 5324  10.326  40.099   0.256
33709W        W 5325  32.652  26.984   2.759
33710W        W 5326  32.970  37.494  11.353
33711W        W 5327  32.891   9.821  14.373
33712W        W 5328  20.794  43.054  13.897
33713W        W 5329  29.146  33.891  14.022
33714W        W 5330  22.085  38.175  11.422
33715W        W 5331  35.050  23.020  12.485
33716W        W 5332  44.975  42.712  14.615
33717W        W 5333  12.823   1.289  13.512
33718W        W 5334  39.012  34.409   2.862
33719W        W 5335  30.475  40.017   0.820
33720W        W 5336  40.816   9.779   2.734
33721W        W 5337  21.978  32.030   4.196
33722W        W 5338  32.045   3.527   0.375
33723W        W 5339  39.604  44.123   3.869
33724W        W 5340  18.218  38.413  11.877
33725W        W 5341  11.700   3.532   2.423
33726W        W 5342  27.022  29.463  14.979
33727W        W 5343  39.343  21.191   3.860
33728W        W 5344   9.148   6.793   4.335
33729W        W 5345   4.393  16.271  13.939
33730W        W 5346  41.909  36.136   3.738
33731W        W 5347  24.143  30.995  14.979
33732W        W 5348  26.906  30.192   3.158
33733W        W 5349  43.008   9.251   0.370
33734W        W 5350  38.846  24.507   1.839
33735W        W 5351  10.791  15.550  10.199
33736W        W 5352  22.718  32.022   1.906
33737W        W 5353  31.606  26.037  11.614
33738W        W 5354  28.709   5.642  12.509
33739W        W 5355  43.301  23.982  12.477
33740W        W 5356  30.735   9.474  12.051
33741W        W 5357  15.564  13.301   1.440
33742W        W 5358   0.799  28.343  11.154
33743W        W 5359  36.855  23.710  12.792
33744W        W 5360  23.073  20.012   4.564
33745W        W 5361  10.961  12.634   0.389
33746W        W 5362  43.184   1.923  13.589
33747W        W 5363  11.827  36.689  11.396
33748W        W 5364  24.500  25.572  11.996
33749W        W 5365   8.116  29.568   4.993
33750W        W 5366  39.328  30.943  11.075
33751W        W 5367  38.079  25.578  13.098
33752W        W 5368   6.989  29.518   3.701
33753W        W 5369  15.226  26.591  11.711
33754W        W 5370  10.065   2.770  10.789
33755W        W 5371  14.696  16.524   2.897
33756W        W 5372  25.016  19.574  14.717
33757W        W 5373  12.625  29.045  12.883
33758W        W 5374   8.246   9.693   4.191
33759W        W 5375  38.549  25.969   3.124
33760W        W 5376   7.404  20.354  11.168
33761W        W 5377  32.328  37.325  10.236
33762W        W 5378  19.227   0.312  10.576
33763W        W 5379  15.215  28.932  11.174
33764W        W 5380   0.578  16.516  14.909
33765W        W 5381  32.148  15.074   1.857
33766W        W 5382  25.197   4.224   0.380
33767W        W 5383  38.968   4.429   3.147
33768W        W 5384  41.537  36.126  12.426
33769W        W 5385  17.511  36.602   1.773
33770W        W 5386  34.323  16.367   2.798
33771W        W 5387  32.196  10.242   3.139
33772W        W 5388   8.112  32.876  12.558
33773W        W 5389  39.649  19.909   4.509
33774W        W 5390  40.934   5.372  12.988
33775W        W 5391   3.975   8.664  14.507
33776W        W 5392  20.123   7.819   2.905
33777W        W 5393  43.296  31.004  14.761
33778W        W 5394  43.281  14.670  13.486
33779W        W 5395  20.519  36.667  11.556
33780W        W 5396  15.568   9.348   1.144
33781W        W 5397  22.730  23.907   4.237
33782W        W 5398  32.948  31.614   1.449
33783W        W 5399   2.448  20.105   1.935
33784W        W 5400  20.145  28.291   4.720
33785W        W 5401  38.909  18.114  12.235
33786W        W 5402  32.899  44.461  11.458
33787W        W 5403  35.840  33.671   0.051
33788W        W 5404  31.730   9.422   3.134
33789W        W 5405  24.912  33.121   3.724
33790W        W 5406   9.180  13.168   0.917
33791W        W 5407   4.666  24.233  13.813
33792W        W 5408  40.195  44.917  12.761
33793W        W 5409  25.161  17.625  14.966
33794W        W 5410  25.298  29.961  11.018
33795W        W 5411   5.180   7.357  12.015
33796W        W 5412  13.204  40.155  12.456
33797W        W 5413  15.058   6.252   1.283
33798W        W 5414   1.903   7.734   2.625
33799W        W 5415  24.590  22.029   2.169
33800W        W 5416   3.681  22.458   5.275
33801W        W 5417   9.121  27.417  12.010
33802W        W 5418  18.315   8.652   0.403
33803W        W 5419  20.895  42.347   0.831
33804W        W 5420  31.088  13.261   1.913
33805W        W 5421  37.030  39.947  14.820
33806W        W 5422  39.600  19.789   3.999
33807W        W 5423  23.066  10.135   2.509
33808W        W 5424   1.241  26.805  11.713
33809W        W 5425  17.980  22.085   0.628
33810W        W 5426  20.143   4.153   0.357
33811W        W 5427  41.350  29.682  10.678
33812W        W 5428  18.797   1.342  14.476
33813W        W 5429  15.556  29.047  13.044
33814W        W 5430  32.168  34.551  10.668
33815W        W 5431  28.503   1.991  13.344
33816W        W 5432  24.533  12.909  14.919
33817W        W 5433  20.312  32.125  12.131
33818W        W 5434   4.489  12.288   4.742
33819W        W 5435  17.136   2.918  11.510
33820W        W 5436  23.525  18.648   2.725
33821W        W 5437   2.562   6.508  12.505
33822W        W 5438  16.556  21.203  12.956
33823W        W 5439  34.088  11.249  13.132
33824W        W 5440  17.138  27.888  14.245
33825W        W 5441  15.262  13.616  11.554
33826W        W 5442   6.225   5.820  11.914
33827W        W 5443  32.543  35.548  11.227
33828W        W 5444  17.182   5.180   0.278
33829W        W 5445   6.197  42.373  10.721
33830W        W 5446  10.751  17.494   4.894
33831W        W 5447  19.606   9.065   3.199
33832W        W 5448  10.193  41.584  13.862
33833W        W 5449   5.978  32.493  10.591
33834W        W 5450  44.350  41.623   4.759
33835W        W 5451  20.684  34.677  11.673
33836W        W 5452  30.705  34.069   2.151
33837W        W 5453   2.977  22.678   3.658
33838W        W 5454  23.926  22.168   2.793
33839W        W 5455  20.920  22.557  10.601
33840W        W 5456  38.518  22.242  10.654
33841W        W 5457  24.262  29.434   2.646
33842W        W 5458  13.119   7.663  11.539
33843W        W 5459  14.334  22.820  12.538
33844W        W 5460  28.901  17.208  13.361
33845W        W 5461  10.858   8.932   2.170
33846W        W 5462  31.439  34.896  12.449
33847W        W 5463   5.570  24.200   1.811
33848W        W 5464  37.935  32.714  12.539
33849W        W 5465  32.856  21.204  12.056
33850W        W 5466  29.899  29.158  13.455
33851W        W 5467  32.463  37.323  13.992
33852W        W 5468  34.438  37.418   0.821
33853W        W 5469   3.185  14.166  13.544
33854W        W 5470  41.622   4.040   2.693
33855W        W 5471  38.984  20.574   2.355
33856W        W 5472  39.085  26.288  13.309
33857W        W 5473  42.334   5.819   1.736
33858W        W 5474  42.343  20.094  14.787
33859W        W 5475  24.721  44.478   2.313
33860W        W 5476  40.757  27.524  12.067
33861W        W 5477   2.437  36.917  14.336
33862W        W 5478  22.028  44.962   4.524
33863W        W 5479  24.866   5.913   4.904
33864W        W 5480  25.098  30.227   2.847
33865W        W 5481  25.414   7.411   4.526
33866W        W 5482  30.498  23.537  10.681
33867W        W 5483  25.247  39.780   4.175
33868W        W 5484   0.811  23.176  14.946
33869W        W 5485  26.256  40.718   3.463
33870W        W 5486  15.679  16.176   1.941
33871W        W 5487   2.235  36.573   4.064
33872W        W 5488  26.106  10.542   1.951
33873W        W 5489  43.479  37.394   0.383
33874W        W 5490  22.135  18.008   1.510
33875W        W 5491  22.936   8.412   1.943
33876W        W 5492  25.007  18.177   0.934
33877W        W 5493  42.963  22.765   4.539
33878W        W 5494   9.794  28.682   2.563
33879W        W 5495  36.607  23.003   2.355
33880W        W 5496  17.691   1.182  11.593
33881W        W 5497   3.821  18.521   1.280
33882W        W 5498  40.983   4.799  10.818
33883W        W 5499  39.803  23.220   2.232
33884W        W 5500  21.360  23.828  11.609
33885W        W 5501  32.598  40.811  12.849
33886W        W 5502  31.561  27.602  10.897
33887W        W 5503  13.378  15.885  12.172
33888W        W 5504   0.571   5.944  14.555
33889W        W 5505   4.453  20.610  12.672
33890W        W 5506  33.953   2.508   2.229
33891W        W 5507   5.828  31.309  14.969
33892W        W 5508  20.548  38.534   1.234
33893W        W 5509  14.246  25.889   4.061
33894W        W 5510   9.810  17.732   2.782
33895W        W 5511  29.837   7.393   1.342
33896W        W 5512  23.335  24.990   2.727
33897W        W 5513  24.376  21.193  10.664
33898W        W 5514   5.493  12.720  12.429
33899W        W 5515  19.707  12.047   1.803
33900W        W 5516   4.423   2.641  13.547
33901W        W 5517  36.045  11.023  12.011
33902W        W 5518  12.150  19.801  14.363
33903W        W 5519  26.988  25.089  11.503
33904W        W 5520  14.924  27.167   0.143
33905W        W 5521  11.596  26.602   2.824
33906W        W 5522  12.678  16.341   3.882
33907W        W 5523   8.955  43.354   1.269
33908W        W 5524  41.578  43.001   2.311
33909W        W 5525  17.462  44.203   3.579
33910W        W 5526   2.979   1.986  14.906
33911W        W 5527  44.742   9.678   3.816
33912W        W 5528  44.395  16.196   1.721
33913W        W 5529  21.712  28.393  12.038
33914W        W 5530  23.811  23.311  14.294
33915W        W 5531  38.785  18.620  11.174
33916W        W 5532  33.957  17.312  11.611
33917W        W 5533  39.011  23.092   0.661
33918W        W 5534   7.332  33.195   1.223
33919W        W 5535   3.252  37.771   1.378
33920W        W 5536  20.672  10.735   3.799
33921W        W 5537  10.084  40.029   3.365
33922W        W 5538  27.020  14.380  13.795
33923W        W 5539  21.259  12.166   3.193
33924W        W 5540  24.409   2.293   1.400
33925W        W 5541   2.296  18.670   1.610
33926W        W 5542  25.553  36.383  11.294
33927W        W 5543   9.268  16.136   3.789
33928W        W 5544   8.202  10.424  14.393
33929W        W 5545  26.628  15.328   4.898
33930W        W 5546  30.120   8.930  13.428
33931W        W 5547   5.851  13.664  13.348
33932W        W 5548  13.670  17.154  11.591
33933W        W 5549  32.810  18.098  11.009
33934W        W 5550  32.797  29.630  11.643
33935W        W 5551  26.969  18.800  13.330
33936W        W 5552  37.303   3.959  11.532
33937W        W 5553  44.450  25.160   0.228
33938W        W 5554  35.961  25.427   0.887
33939W        W 5555   3.360  35.575  14.005
33940W        W 5556  20.290  31.883   1.381
33941W        W 5557  39.989  24.839  11.137
33942W        W 5558  13.081  38.485  14.388
33943W        W 5559   4.522  34.229   4.997
33944W        W 5560  30.833  14.402   4.311
33945W        W 5561  28.298   5.362   2.335
33946W        W 5562   1.282  13.362   1.417
33947W        W 5563  33.596  18.355   1.749
33948W        W 5564  39.173  24.326  11.309
33949W        W 5565  18.792  20.928  14.052
33950W        W 5566   5.489  29.002   3.716
33951W        W 5567  31.922  31.931   9.922
33952W        W 5568  31.663  40.846   4.180
33953W        W 5569   9.333   8.258   2.755
33954W        W 5570  27.520  34.647  13.356
33955W        W 5571  34.880   8.772   2.871
33956W        W 5572   1.463   2.693   3.871
33957W        W 5573  11.891  25.670   3.286
33958W        W 5574  16.852  38.594   1.744
33959W        W 5575  34.674  30.138   1.426
33960W        W 5576   7.629  40.986   3.858
33961W        W 5577  24.120  37.870  10.664
33962W        W 5578   4.945  38.408   4.371
33963W        W 5579  19.117  39.443  12.793
33964W        W 5580  15.736  11.857  10.774
33965W        W 5581  19.585  30.079   4.282
33966W        W 5582  25.463  20.062   1.166
33967W        W 5583  40.591  26.460   3.667
33968W        W 5584   8.886  19.579   0.484
33969W        W 5585   8.213  16.103  10.663
33970W        W 5586  12.519  38.036  13.473
33971W        W 5587  15.559  23.665   4.155
33972W        W 5588  24.560  12.373   4.619
33973W        W 5589   7.381   3.336   4.019
33974W        W 5590  39.352   1.709   2.514
33975W        W 5591  20.769   5.233  12.999
33976W        W 5592  11.090  34.101   1.409
33977W        W 5593  11.991  23.758  11.969
33978W        W 5594  27.704  20.264   1.769
33979W        W 5595  34.569  38.744  11.668
33980W        W 5596   9.262  31.485   4.620
33981W        W 5597  43.766  40.848  12.035
33982W        W 5598  32.889  29.107   2.856
33983W        W 5599   8.804   0.665  11.013
33984W        W 5600  40.744  30.710   0.860
33985W        W 5601  14.242  36.808   0.716
33986W        W 5602  23.460   1.156  12.597
33987W        W 5603  31.490  12.216   3.939
33988W        W 5604  28.683  43.943   2.260
33989W        W 5605   5.086  10.245   2.136
33990W        W 5606  34.902  17.047   0.403
33991W        W 5607  23.280  38.866  14.492
33992W        W 5608  26.869  43.506   0.465
33993W        W 5609  23.267  35.989   2.755
33994W        W 5610  17.945   6.201  11.451
33995W        W 5611  27.599  23.225   3.282
33996W        W 5612   0.873  31.581  13.073
33997W        W 5613  35.028  37.909  13.932
33998W        W 5614  25.575  25.844  11.862
33999W        W 5615  14.804  39.588   3.389
34000W        W 5616  20.178  20.579  14.760
34001W        W 5617  24.280  13.394  10.501
34002W        W 5618  15.257   3.370  13.371
34003W        W 5619  42.747   0.930   0.953
34004W        W 5620   3.793  18.178   0.472
34005W        W 5621  29.235  11.303   0.239
34006W        W 5622  38.955  10.980  12.083
34007W        W 5623  29.125  42.245   1.649
34008W        W 5624  30.168  33.534  11.538
34009W        W 5625  24.454  16.555   4.106
34010W        W 5626  35.898   7.645  12.840
34011W        W 5627   4.478  30.858   1.233
34012W        W 5628  33.981  29.671  13.260
34013W        W 5629  39.555  43.269   3.203
34014W        W 5630  10.398  43.287  14.324
34015W        W 5631   3.255  14.408   0.656
34016W        W 5632  20.192  17.808   3.979
34017W        W 5633  16.885  19.697  10.794
34018W        W 5634   3.558  15.721  13.075
34019W        W 5635   9.353  21.979  11.220
34020W        W 5636  22.007  31.522  10.830
34021W        W 5637  44.324  17.230   3.357
34022W        W 5638  13.298  15.072  13.744
34023W        W 5639  42.421  35.550   4.448
34024W        W 5640  17.250   8.918   2.172
34025W        W 5641   1.942  12.528  12.854
34026W        W 5642  44.765  14.170   1.417
34027W        W 5643  42.859  38.531  12.598
34028W        W 5644  38.449  24.972  13.852
34029W        W 5645   1.485  39.829   0.003
34030W        W 5646  32.732  39.100  10.751
34031W        W 5647  24.595   1.557  11.972
34032W        W 5648  11.892  11.791   1.727
34033W        W 5649  33.803  21.728   2.592
34034W        W 5650  29.145  37.095  11.349
34035W        W 5651   3.794  31.361   2.771
34036W        W 5652  38.406  31.337  11.122
34037W        W 5653  28.011   4.783  11.650
34038W        W 5654  24.910   6.926   0.935
34039W        W 5655  17.691  24.926   1.249
34040W        W 5656  43.842  22.579   3.950
34041W        W 5657  32.495  13.840  11.658
34042W        W 5658   3.452  27.810   3.443
34043W        W 5659  26.687   9.987   1.932
34044W        W 5660  15.646  24.051  11.102
34045W        W 5661  37.658  42.767  13.825
34046W        W 5662   1.320  25.635  13.527
34047W        W 5663   7.521  28.355  10.599
34048W        W 5664   3.824   4.478   2.677
34049W        W 5665   7.315  13.571   0.903
34050W        W 5666  12.835  43.133   2.186
34051W        W 5667  38.589  21.706  13.216
34052W        W 5668   0.967   6.338   3.697
34053W        W 5669  20.808  31.110   1.421
34054W        W 5670  26.479   8.655  14.436
34055W        W 5671  36.314  42.077  13.924
34056W        W 5672  23.547  11.898  12.302
34057W        W 5673  36.034   3.430   0.863
34058W        W 5674  42.775  14.252   0.027
34059W        W 5675  14.289  23.729  12.981
34060W        W 5676  13.392   1.007   0.293
34061W        W 5677  26.929  28.169   2.363
34062W        W 5678  15.873  31.014   4.706
34063W        W 5679   0.033  18.756   4.664
34064W        W 5680  10.690  21.326   1.187
34065W        W 5681   1.818  16.917  11.587
34066W        W 5682  44.263  18.763  12.085
34067W        W 5683  25.060   4.816   4.342
34068W        W 5684  25.213  33.891   3.309
34069W        W 5685  32.188  16.551   4.160
34070W        W 5686   9.167  37.134  10.996
34071W        W 5687  35.672   5.751   3.787
34072W        W 5688  33.588  32.504  10.677
34073W        W 5689  28.484  21.173   3.084
34074W        W 5690   6.222  20.645  13.055
34075W        W 5691  23.045  13.610  14.011
34076W        W 5692  40.421   5.478   1.848
34077W        W 5693   5.906  29.316  13.091
34078W        W 5694   2.789   4.638   1.181
34079W        W 5695  44.907  15.653  10.637
34080W        W 5696  12.944  22.619  11.071
34081W        W 5697  16.630  36.419   4.718
34082W        W 5698  42.882   8.265   1.417
34083W        W 5699  36.015  40.364   0.197
34084W        W 5700  29.524   7.584  14.872
34085W        W 5701  22.591  14.417   0.694
34086W        W 5702   2.354  44.096  14.757
34087W        W 5703  18.703  28.211  10.992
34088W        W 5704  18.679  38.584   4.742
34089W        W 5705  33.991   2.185  11.910
34090W        W 5706   8.800   1.846  14.253
34091W        W 5707   5.570  19.512  12.107
34092W        W 5708   0.615   7.311  12.921
34093W        W 5709  31.259   5.451  12.562
34094W        W 5710   8.991  37.802  10.564
34095W        W 5711  24.575  42.449  12.005
34096W        W 5712  30.888  11.200   2.759
34097W        W 5713  29.051   4.387  10.377
34098W        W 5714  27.219  15.384  14.980
34099W        W 5715   9.664   7.942  11.992
34100W        W 5716  15.650   4.886  10.675
34101W        W 5717  10.328  41.002   0.076
34102W        W 5718  28.515  44.557  11.467
34103W        W 5719  44.572  11.845  14.807
34104W        W 5720  43.974  34.024   1.496
34105W        W 5721  12.029  29.590  12.442
34106W        W 5722  13.518  15.416  12.039
34107W        W 5723  10.621  21.110   3.791
34108W        W 5724   4.764  10.111   1.749
34109W        W 5725  36.538  19.736  13.204
34110W        W 5726   6.786   2.406  14.287
34111W        W 5727  19.379   9.333   2.802
34112W        W 5728  34.450   9.654  13.453
34113W        W 5729  19.745  42.407   9.764
34114W        W 5730  32.656  34.036   4.067
34115W        W 5731  17.228  37.633   4.597
34116W        W 5732  32.852  33.153  12.868
34117W        W 5733  31.248  32.023   4.855
34118W        W 5734  42.923   8.623  12.069
34119W        W 5735  41.850  20.019  10.776
34120W        W 5736  42.425  12.050  14.423
34121W        W 5737  16.799  26.639   4.109
34122W        W 5738  41.833   0.570   0.467
34123W        W 5739  35.202  13.186   3.489
34124W        W 5740  11.091   7.774  11.509
34125W        W 5741   9.824  31.123   0.376
34126W        W 5742   6.134   0.042   3.719
34127W        W 5743  15.987  43.378   2.725
34128W        W 5744   8.925  37.909  14.824
34129W        W 5745   3.930  26.140   0.760
34130W        W 5746  40.367  11.171   0.389
34131W        W 5747  43.644   2.521  12.349
34132W        W 5748  44.843  39.127  12.957
34133W        W 5749  23.688  44.046   4.215
34134W        W 5750  23.552   0.890   4.358
34135W        W 5751  32.943  28.003  14.143
34136W        W 5752  12.606  38.018  11.956
34137W        W 5753  24.172   5.574  12.901
34138W        W 5754  41.010  41.328  12.878
34139W        W 5755   3.208  11.266   1.751
34140W        W 5756  31.038  34.196   0.859
34141W        W 5757  23.287  10.754  12.205
34142W        W 5758  16.333  21.212  14.310
34143W        W 5759  21.161  22.993  11.980
34144W        W 5760  38.432  32.443  14.378
34145W        W 5761  17.211  12.996  13.462
34146W        W 5762  16.274  12.583  11.611
34147W        W 5763  35.683  42.809  14.044
34148W        W 5764  22.061   0.729  11.242
34149W        W 5765   0.479  11.694   0.782
34150W        W 5766  39.302   3.213  14.341
34151W        W 5767  17.869  38.319   1.784
34152W        W 5768  11.913  16.651  13.025
34153W        W 5769  17.034   4.818  14.289
34154W        W 5770  12.334  27.346  13.200
34155W        W 5771  14.721  30.416   2.853
34156W        W 5772   3.851   8.665  10.688
34157W        W 5773  38.088  16.731  14.589
34158W        W 5774  35.035  21.269   2.884
34159W        W 5775  37.966  36.711  14.082
34160W        W 5776  26.544   8.155   2.449
34161W        W 5777  43.771  22.926  12.458
34162W        W 5778  34.072   9.369  11.545
34163W        W 5779  16.508  43.787   0.990
34164W        W 5780  15.537  20.345  12.535
34165W        W 5781  19.541  41.673   2.301
34166W        W 5782   4.907  37.020  14.311
34167W        W 5783  17.585  40.966  13.752
34168W        W 5784  23.229   0.178  14.000
34169W        W 5785  20.012   0.427   1.394
34170W        W 5786   0.209  22.014   4.409
34171W        W 5787  37.671  28.632   0.649
34172W        W 5788  19.078  44.242   1.445
34173W        W 5789  31.566  33.948   2.818
34174W        W 5790  10.282   0.358   0.769
34175W        W 5791  25.358  27.155  14.894
34176W        W 5792  39.191  24.232  12.783
34177W        W 5793  27.870  32.937  11.486
34178W        W 5794  13.645  11.687   0.780
34179W        W 5795  29.554  34.504   4.630
34180W        W 5796  11.856  42.311  13.008
34181W        W 5797   2.370  44.094   5.047
34182W        W 5798  21.381  14.590  11.223
34183W        W 5799  21.037  13.606   3.342
34184W        W 5800  29.030  19.743  12.028
34185W        W 5801  36.492  42.436  13.153
34186W        W 5802  17.802  12.270  14.867
34187W        W 5803  40.886   8.764   3.293
34188W        W 5804   8.838  10.600  12.113
34189W        W 5805  26.371   9.230   3.326
34190W        W 5806  15.291  41.156  12.631
34191W        W 5807   8.076  39.039  12.889
34192W        W 5808   8.711  39.987   4.707
34193W        W 5809   2.229   5.263  11.664
34194W        W 5810  40.753   9.279   0.268
34195W        W 5811  34.954  19.360  11.604
34196W        W 5812  10.323  39.364  12.071
34197W        W 5813  40.863  40.798  12.030
34198W        W 5814   9.928  26.639  10.299
34199W        W 5815   6.348   5.953   1.867
34200W        W 5816  44.532  13.598  14.373
34201W        W 5817  24.553  18.871   4.540
34202W        W 5818  28.344   9.238  12.444
34203W        W 5819   2.850  35.282  14.531
34204W        W 5820  42.194  38.456  10.170
34205W        W 5821  18.698  17.215   5.023
34206W        W 5822   4.079  11.058   3.280
34207W        W 5823   9.944  40.452  10.953
34208W        W 5824   1.959  44.890  11.488
34209W        W 5825  18.266   3.811  13.030
34210W        W 5826   6.411  11.502  12.458
34211W        W 5827   5.596  15.892  14.548
34212W        W 5828  32.215  44.257   2.159
34213W        W 5829  26.226  18.472   2.190
34214W        W 5830  19.031  43.822  13.755
34215W        W 5831  44.915   8.105  14.468
34216W        W 5832  21.304   8.820   1.239
34217W        W 5833  33.903  42.242   0.101
34218W        W 5834  15.771  24.808   4.167
34219W        W 5835  40.793   0.578  11.149
34220W        W 5836  31.500  25.286   0.034
34221W        W 5837   2.239   2.474   1.760
34222W        W 5838  42.057  12.809   2.607
34223W        W 5839  31.916  12.257  13.466
34224W        W 5840  35.229  12.711  10.828
34225W        W 5841  19.716  17.679   4.679
34226W        W 5842  43.910   9.668  13.371
34227W        W 5843  42.543  29.501   2.703
34228W        W 5844  10.141  40.881  11.641
34229W        W 5845   8.913  41.550  10.482
34230W        W 5846   9.692  16.230   2.173
34231W        W 5847   6.855  38.410   4.824
34232W        W 5848  35.795   1.423  14.268
34233W        W 5849  23.796  20.945   2.651
34234W        W 5850  41.489  33.977   4.195
34235W        W 5851  11.431   5.375  12.408
34236W        W 5852  29.114  37.406   4.146
34237W        W 5853  30.429  38.467   4.515
34238W        W 5854  11.727  24.423   4.646
34239W        W 5855  33.486  33.720  13.345
34240W        W 5856   2.416  30.613  12.147
34241W        W 5857  17.611   8.406   1.376
34242W        W 5858   5.045  11.138  12.559
34243W        W 5859   5.117  22.588   0.971
34244W        W 5860  14.601   7.938  12.525
34245W        W 5861  11.841  38.007   1.394
34246W        W 5862  39.870  18.949   0.839
34247W        W 5863  41.995  27.351   3.197
34248W        W 5864  17.553  44.505   2.714
34249W        W 5865   5.415  35.216   0.287
34250W        W 5866  38.335  39.993   4.535
34251W        W 5867  29.067  15.501  14.683
34252W        W 5868  40.009  19.647  12.938
34253W        W 5869  33.912  14.584   0.302
34254W        W 5870  43.746   5.812  11.158
34255W        W 5871  24.146  27.915  10.385
34256W        W 5872  30.139   6.001  11.674
34257W        W 5873  15.245  24.179   3.139
34258W        W 5874  23.311  11.805   4.334
34259W        W 5875  28.517  36.143   3.620
34260W        W 5876  44.360  37.625   2.318
34261W        W 5877  43.466  28.660   2.368
34262W        W 5878   2.969  12.314   2.893
34263W        W 5879  27.214  20.494  10.765
34264W        W 5880  12.140  24.586   0.439
34265W        W 5881   3.440  20.574   4.823
34266W        W 5882  27.031  37.519  11.432
34267W        W 5883  10.253  24.538   3.899
34268W        W 5884  22.806   7.813  11.498
34269W        W 5885  18.649   3.467   2.922
34270W        W 5886  12.334   4.673   5.132
34271W        W 5887  37.886  40.636   4.593
34272W        W 5888   2.471  30.538  14.066
34273W        W 5889  14.726   4.216  13.626
34274W        W 5890  34.098  28.443  11.599
34275W        W 5891  10.329   0.432   4.957
34276W        W 5892  43.852  21.312   1.333
34277W        W 5893   4.569   4.444  13.488
34278W        W 5894  44.040  15.388   2.149
34279W        W 5895   3.024  33.990   4.130
34280W        W 5896  41.821  30.393  13.036
34281W        W 5897  18.219  10.109   0.270
34282W        W 5898  28.004  39.516   4.085
34283W        W 5899   8.432  31.782  14.002
34284W        W 5900  43.915  20.759  13.312
34285W        W 5901  43.339  42.008   2.775
34286W        W 5902   2.189  29.150   4.558
34287W        W 5903   3.657  24.533   3.159
34288W        W 5904   7.777  21.982   1.380
34289W        W 5905  30.714  27.706  10.729
34290W        W 5906  28.856  13.807  14.340
34291W        W 5907   9.633  25.231  11.993
34292W        W 5908  25.878  12.257   0.904
34293W        W 5909   7.132   4.309   2.683
34294W        W 5910   2.450   5.018   4.507
34295W        W 5911  25.573  29.097  10.822
34296W        W 5912  16.144  43.727  14.550
34297W        W 5913  31.623   5.721  13.462
34298W        W 5914  25.681  43.977  12.021
34299W        W 5915   0.013   8.089  14.995
34300W        W 5916   1.351   3.103   0.814
34301W        W 5917  34.143  10.656  11.712
34302W        W 5918  29.964  11.893   2.369
34303W        W 5919  16.128   5.356  12.981
34304W        W 5920  44.187  32.463  13.589
34305W        W 5921  12.866  25.278  13.833
34306W        W 5922  33.867  35.579   0.884
34307W        W 5923  30.856   2.405   0.454
34308W        W 5924   4.786   7.342  13.523
34309W        W 5925   4.746  11.175   1.772
34310W        W 5926  27.768  33.464   0.739
34311W        W 5927  18.639  40.402  12.107
34312W        W 5928   1.903  38.614   1.303
34313W        W 5929  33.901  33.008   1.736
34314W        W 5930  18.770  37.496  10.776
34315W        W 5931  37.271   6.184  10.720
34316W        W 5932  18.575  27.234  12.010
34317W        W 5933  42.894  22.767  12.669
34318W        W 5934  40.081  10.209   2.899
34319W        W 5935   5.274  32.412   2.221
34320W        W 5936   7.393  15.185   1.640
34321W        W 5937   9.471  21.519  14.188
34322W        W 5938  15.611   5.659  13.349
34323W        W 5939   2.281   6.101  14.908
34324W        W 5940  17.051   6.632   4.201
34325W        W 5941  15.614  27.451  13.825
34326W        W 5942  41.609  24.567   0.281
34327W        W 5943  17.541  13.555  10.788
34328W        W 5944   7.331  43.682   4.437
34329W        W 5945  25.455  35.892  13.145
34330W        W 5946  13.890  11.319   3.437
34331W        W 5947  25.947  40.560   1.641
34332W        W 5948   5.306   6.903  10.685
34333W        W 5949  39.704  37.290   2.328
34334W        W 5950  13.345   6.899  11.091
34335W        W 5951  15.065   3.215   1.885
34336W        W 5952  24.704  14.021   4.953
34337W        W 5953  44.308  14.076  10.071
34338W        W 5954  33.788  15.106  13.547
34339W        W 5955  11.305  35.912   4.644
34340W        W 5956   3.764  41.192  12.139
34341W        W 5957  37.904   3.405  14.285
34342W        W 5958  27.364   1.235  11.553
34343W        W 5959  39.361  16.547   1.052
34344W        W 5960  17.043  12.638  12.110
34345W        W 5961  29.712  26.495   1.850
34346W        W 5962   4.734  10.190   0.831
34347W        W 5963  20.644  14.665  10.712
34348W        W 5964  30.600  36.524   4.497
34349W        W 5965  26.396  10.054  11.157
34350W        W 5966  24.688   4.238  12.557
34351W        W 5967  43.698  32.700   2.386
34352W        W 5968  31.565  17.643  12.861
34353W        W 5969  40.538  25.538  12.263
34354W        W 5970   7.322  11.407   3.815
34355W        W 5971  30.945  23.187   2.220
34356W        W 5972  30.413  38.999   0.909
34357W        W 5973  26.689  26.566  11.141
34358W        W 5974  17.324  16.412   2.786
34359W        W 5975   0.029  21.269  12.230
34360W        W 5976  23.799  16.409   0.113
34361W        W 5977   1.806  43.381  13.922
34362W        W 5978   5.979  30.160  12.199
34363W        W 5979  25.951  43.841   4.948
34364W        W 5980  31.961   6.012   4.076
34365W        W 5981   3.356  26.691   2.292
34366W        W 5982  11.395   0.348  12.719
34367W        W 5983  14.235  27.572   2.949
34368W        W 5984  12.619  12.693  12.602
34369W        W 5985   7.504  23.038  11.143
34370W        W 5986  14.544   8.772  10.798
34371W        W 5987  30.153  22.393  13.324
34372W        W 5988  24.900  30.077   1.183
34373W        W 5989  25.812  10.447  14.954
34374W        W 5990  14.808  28.502  10.534
34375W        W 5991  28.875  16.634   3.704
34376W        W 5992  30.885   7.120  12.037
34377W        W 5993  16.461  10.910   2.172
34378W        W 5994  34.386  24.097   0.855
34379W        W 5995  34.984  12.698   2.651
34380W        W 5996  33.512   8.858  12.704
34381W        W 5997  35.125  25.543  13.779
34382W        W 5998  32.088  18.237   3.484
34383W        W 5999   7.813  21.175   4.594
34384W        W 6000  41.293  35.530   4.352
34385W        W 6001   4.639  22.549   4.999
34386W        W 6002  21.049  40.977  13.422
34387W        W 6003  13.526   3.993  12.880
34388W        W 6004  32.305  18.165  11.109
34389W        W 6005  20.320  17.618   1.256
34390W        W 6006  36.090  20.713   0.108
34391W        W 6007  17.669  28.452  14.843
34392W        W 6008  11.513  20.703  11.031
34393W        W 6009   6.668  22.295  14.431
34394W        W 6010  43.446  12.826   3.212
34395W        W 6011   7.438  15.836   0.268
34396W        W 6012  28.661  38.332  14.914
34397W        W 6013   3.756  29.242  13.978
34398W        W 6014  36.493  24.146   4.861
34399W        W 6015  26.716   8.900   2.113
34400W        W 6016  36.778  39.914  11.025
34401W        W 6017  13.542  35.921  13.663
34402W        W 6018   5.375  12.849  14.946
34403W        W 6019   7.362  43.366  10.694
34404W        W 6020  23.319   7.991  13.415
34405W        W 6021  13.910  22.684  11.321
34406W        W 6022  21.088  37.259  11.758
34407W        W 6023   2.418  42.206   0.497
34408W        W 6024  39.058  38.974  10.483
34409W        W 6025  43.675  35.058  10.233
34410W        W 6026  43.479  26.347  10.697
34411W        W 6027   9.154  40.905  10.556
34412W        W 6028  24.997   8.863  14.391
34413W        W 6029  23.154  38.834  10.410
34414W        W 6030  17.990  22.297  11.986
34415W        W 6031  12.667  35.583   1.907
34416W        W 6032  24.976  13.069  11.608
34417W        W 6033  17.791  33.096  11.230
34418W        W 6034   3.903  12.121   2.351
34419W        W 6035  16.226  27.556  11.029
34420W        W 6036  18.292   6.952   3.808
34421W        W 6037  29.799  30.617   4.235
34422W        W 6038  11.003  22.552  13.308
34423W        W 6039  34.614  33.848  13.446
34424W        W 6040  40.868   1.726   4.676
34425W        W 6041   6.711   0.790   2.581
34426W        W 6042   8.808   9.822   2.296
34427W        W 6043  38.325  15.824   0.528
34428W        W 6044   7.685  35.284   5.193
34429W        W 6045  37.791  39.947  13.020
34430W        W 6046   4.678  32.155  10.780
34431W        W 6047   0.000  34.352   0.472
34432W        W 6048  34.084  18.144   1.812
34433W        W 6049  28.637  21.793  10.923
34434W        W 6050  34.870  27.825  12.826
34435W        W 6051   8.780  36.383   2.556
34436W        W 6052  17.167  22.840  12.036
34437W        W 6053  42.555  43.470   4.527
34438W        W 6054  38.485   1.225   2.327
34439W        W 6055  42.560  17.565   1.368
34440W        W 6056  39.285  16.736  11.136
34441W        W 6057  26.039  44.452   4.260
34442W        W 6058  25.634  18.206   3.219
34443W        W 6059   0.331  10.187   4.401
34444W        W 6060  34.934   7.831  10.891
34445W        W 6061   6.967  12.081   2.824
34446W        W 6062  35.347  35.515   1.214
34447W        W 6063  43.074  28.662   4.225
34448W        W 6064  32.782  30.623  14.438
34449W        W 6065  28.633   3.662   4.637
34450W        W 6066  15.132  31.700   1.710
34451W        W 6067  10.374  37.949   4.579
34452W        W 6068  28.815  29.733   5.042
34453W        W 6069  24.447   0.552   1.752
34454W        W 6070  24.983  37.388   4.444
34455W        W 6071  32.465   4.768   2.839
34456W        W 6072  38.341  29.803  12.957
34457W        W 6073  40.307  22.517  10.691
34458W        W 6074  24.634   2.769  13.827
34459W        W 6075  35.003  31.433   0.417
34460W        W 6076  42.855  25.932  13.374
34461W        W 6077  33.099   5.289   4.096
34462W        W 6078  18.689  17.295   0.084
34463W        W 6079  16.545   7.035   4.131
34464W        W 6080  18.245   9.170  11.070
34465W        W 6081  18.176  40.829  14.575
34466W        W 6082  11.740   7.776   4.410
34467W        W 6083  40.580   2.351  12.922
34468W        W 6084  23.925  31.071  13.511
34469W        W 6085   6.406  24.026  12.087
34470W        W 6086  41.303  10.307  13.912
34471W        W 6087  39.419   6.553   1.099
34472W        W 6088  30.905   6.683  14.293
34473W        W 6089  25.748  30.991   2.200
34474W        W 6090   3.033  36.502  13.885
34475W        W 6091  30.898  20.839  13.465
34476W        W 6092  25.521  35.369   4.144
34477W        W 6093  34.372  31.193  14.269
34478W        W 6094  41.479  14.729   2.686
34479W        W 6095  23.233  24.881  11.159
34480W        W 6096   4.421  30.487   3.759
34481W        W 6097  34.953  37.232   5.068
34482W        W 6098  24.938   4.369  12.119
34483W        W 6099   1.393   9.186   4.642
34484W        W 6100   4.897  42.080  13.997
34485W        W 6101   0.448  30.778  14.952
34486W        W 6102  36.462  27.112  12.102
34487W        W 6103  13.055  21.569   4.995
34488W        W 6104  21.562  31.971   4.516
34489W        W 6105  29.573  11.589   1.746
34490W        W 6106  16.094  38.545   3.357
34491W        W 6107  24.799  19.663   1.394
34492W        W 6108  31.308   8.192  13.781
34493W        W 6109  44.972  44.347  13.808
34494W        W 6110   8.462  15.751  13.074
34495W        W 6111  23.954  14.701   0.787
34496W        W 6112  35.520   0.357  11.064
34497W        W 6113   7.631  12.847   1.836
34498W        W 6114  10.452  14.284   2.157
34499W        W 6115   4.675  16.447   3.783
34500W        W 6116  30.522  37.859  14.637
34501W        W 6117   1.661  24.968   5.130
34502W        W 6118  22.217  12.747   2.396
34503W        W 6119   3.155  30.562   0.842
34504W        W 6120  37.328  37.797  12.625
34505W        W 6121  35.053  26.261  12.013
34506W        W 6122  15.033  17.117   2.744
34507W        W 6123  41.929  27.058   0.890
34508W        W 6124  44.788   4.913  12.839
34509W        W 6125  27.979  28.121  13.406
34510W        W 6126  30.630   6.867   1.235
34511W        W 6127  15.861  25.464   2.149
34512W        W 6128   2.980  38.986   3.301
34513W        W 6129  13.993  28.910  11.692
34514W        W 6130   3.702  10.748  12.501
34515W        W 6131   8.370  39.755  13.623
34516W        W 6132   2.939  27.604  13.562
34517W        W 6133  23.967  44.599   0.732
34518W        W 6134  38.879  41.150   2.809
34519W        W 6135  25.432  13.321   0.976
34520W        W 6136  39.871  29.905  10.660
34521W        W 6137  32.962  35.447  11.605
34522W        W 6138  43.281  30.001   0.781
34523W        W 6139   1.858  17.127   1.218
34524W        W 6140  18.757   4.803   4.228
34525W        W 6141  26.266  31.182  12.858
34526W        W 6142   8.043  10.334   2.395
34527W        W 6143   8.282  15.082   0.681
34528W        W 6144   7.255  21.538   3.707
34529W        W 6145   9.219  38.945   3.924
34530W        W 6146   2.631   0.958   4.744
34531W        W 6147  42.769  23.402   3.338
34532W        W 6148  14.757  16.688   4.775
34533W        W 6149  23.096   1.520  12.480
34534W        W 6150  19.695   5.501  14.319
34535W        W 6151  34.474  18.171   4.547
34536W        W 6152  26.834  30.151   1.184
34537W        W 6153  40.505  29.228   0.328
34538W        W 6154  16.675  19.478  10.142
34539W        W 6155  40.386  13.577   0.907
34540W        W 6156   3.431  40.038   2.251
34541W        W 6157  37.320  12.155  13.000
34542W        W 6158  33.696  17.510   0.752
34543W        W 6159  37.510   2.206   0.445
34544W        W 6160  39.378  34.948   2.215
34545W        W 6161  31.948   3.704   3.843
34546W        W 6162   4.852  27.872   2.404
34547W        W 6163  39.505  30.084   3.644
34548W        W 6164  19.147   1.547  12.495
34549W        W 6165  27.508   0.335   0.264
34550W        W 6166  29.436  24.728  12.548
34551W        W 6167  33.106  43.758   1.149
34552W        W 6168  41.818  40.824   3.927
34553W        W 6169   8.519  38.475  11.167
34554W        W 6170  21.136  33.031   4.825
34555W        W 6171  25.891  34.880   0.828
34556W        W 6172  15.470  26.037   0.061
34557W        W 6173  22.287   3.292  10.567
34558W        W 6174  34.800   7.469   2.396
34559W        W 6175  31.896   7.989   0.706
34560W        W 6176  25.208  31.977  11.119
34561W        W 6177   3.003  40.489  12.900
34562W        W 6178  37.154  31.498  11.439
34563W        W 6179  42.260  33.557  11.574
34564W        W 6180   1.377   5.891  10.672
34565W        W 6181  15.339  14.233   4.670
34566W        W 6182  41.250  12.368   1.285
34567W        W 6183   2.411  36.071   4.079
34568W        W 6184  29.626  44.613  14.916
34569W        W 6185   5.094  16.616   0.944
34570W        W 6186  32.042  40.337   4.483
34571W        W 6187  13.343  16.582  14.007
34572W        W 6188  36.795   6.739   4.829
34573W        W 6189  38.535  17.641  14.352
34574W        W 6190   1.736  29.574  12.169
34575W        W 6191   6.643   1.985  10.746
34576W        W 6192   7.150  26.855   4.176
34577W        W 6193  39.013  19.281  13.323
34578W        W 6194  25.001  34.983  13.800
34579W        W 6195  26.956  27.955   4.805
34580W        W 6196  43.183  17.045   1.747
34581W        W 6197   2.889   9.438   1.964
34582W        W 6198  27.944  17.726  14.435
34583W        W 6199   1.477  39.084  12.009
34584W        W 6200  23.548  41.946   1.256
34585W        W 6201  12.259  36.130  14.533
34586W        W 6202   3.889  43.993   2.137
34587W        W 6203   3.347   1.469   0.853
34588W        W 6204  28.603  33.545   0.941
34589W        W 6205  37.132  15.652   1.488
34590W        W 6206  38.886   5.637   0.734
34591W        W 6207  33.839  12.077   2.774
34592W        W 6208  11.131  36.539  12.090
34593W        W 6209   9.821   2.907  12.890
34594W        W 6210  39.636  15.294  14.278
34595W        W 6211   5.786  26.452  12.145
34596W        W 6212  25.133  38.117   0.846
34597W        W 6213  43.558  21.172  10.379
34598W        W 6214   4.256  22.442  11.808
34599W        W 6215  31.372  36.148  14.384
34600W        W 6216  37.697  24.126  12.586
34601W        W 6217   3.025  24.721  10.656
34602W        W 6218  25.933   8.381  11.514
34603W        W 6219  27.045  13.160  11.479
34604W        W 6220  38.526  15.903  14.350
34605W        W 6221  29.481  31.072   3.091
34606W        W 6222  44.836  32.618  14.897
34607W        W 6223  24.949   5.938  14.953
34608W        W 6224   4.214  18.197  13.837
34609W        W 6225  24.241   6.411   2.167
34610W        W 6226  28.703  19.622  14.089
34611W        W 6227  34.011  13.651   2.489
34612W        W 6228   6.187  16.148   1.346
34613W        W 6229  14.978  33.081  14.081
34614W        W 6230  42.468  44.270  10.761
34615W        W 6231  33.129   4.741   1.226
34616W        W 6232  39.865  29.542   2.444
34617W        W 6233   1.975  13.674  13.006
34618W        W 6234  15.543  14.142  14.467
34619W        W 6235   0.538  21.674   4.582
34620W        W 6236  32.980  13.162   3.409
34621W        W 6237  18.617  14.169   1.915
34622W        W 6238  44.656  20.732   2.751
34623W        W 6239  19.305  24.951  11.127
34624W        W 6240  29.957   0.734   1.873
34625W        W 6241  38.350   1.790   3.314
34626W        W 6242  27.154  23.295   0.284
34627W        W 6243  21.818  22.258  10.610
34628W        W 6244   5.809  13.365  11.549
34629W        W 6245  32.514  29.585   1.731
34630W        W 6246  44.248  27.031  12.092
34631W        W 6247  26.663   1.523  13.530
34632W        W 6248   1.680  22.597   3.154
34633W        W 6249  35.092  33.447   1.876
34634W        W 6250   2.740  37.995   2.747
34635W        W 6251  23.877  33.170   1.970
34636W        W 6252  24.675   0.746   1.307
34637W        W 6253  25.506  44.503   4.290
34638W        W 6254  16.313  20.104   2.837
34639W        W 6255   4.193  21.285  13.820
34640W        W 6256  39.722   6.476   3.917
34641W        W 6257   1.200  15.200   4.552
34642W        W 6258   8.347  26.938   1.643
34643W        W 6259  26.910   1.296   4.476
34644W        W 6260  25.288  33.571  13.281
34645W        W 6261  37.053  36.549  10.695
34646W        W 6262  25.024  26.976  12.605
34647W        W 6263  38.305  19.378   0.288
34648W        W 6264  41.564  26.199  10.531
34649W        W 6265  31.480  41.018  10.753
34650W        W 6266  40.379  15.978   2.374
34651W        W 6267  38.059  30.034  12.537
34652W        W 6268  25.724  27.151   2.318
34653W        W 6269   3.177  33.247  12.105
34654W        W 6270  10.152   4.433   0.902
34655W        W 6271  19.782  19.119  10.472
34656W        W 6272  14.660  33.524   2.390
34657W        W 6273   7.864  31.230  10.455
34658W        W 6274  23.955   4.021  11.640
34659W        W 6275  44.746  38.454  13.479
34660W        W 6276   4.717  18.031   4.364
34661W        W 6277  22.579  19.025  10.219
34662W        W 6278  40.407  22.041  12.556
34663W        W 6279  44.926  14.646   1.265
34664W        W 6280  38.983   6.755   1.849
34665W        W 6281  32.975  24.886  12.541
34666W        W 6282  30.872   3.295   3.251
34667W        W 6283  17.018  21.472   0.782
34668W        W 6284  35.795  18.331   3.559
34669W        W 6285  34.382   9.679  10.501
34670W        W 6286   4.214   2.284   1.772
34671W        W 6287  19.965  33.407   3.746
34672W        W 6288  16.996  44.920  11.621
34673W        W 6289  18.117  27.989   3.578
34674W        W 6290  26.478  19.072   4.797
34675W        W 6291  26.876   0.600  14.351
34676W        W 6292   8.208  34.641  11.535
34677W        W 6293   8.234  43.679   1.892
34678W        W 6294   4.691   7.890  14.449
34679W        W 6295  20.198  34.056  11.910
34680W        W 6296  37.569  12.824  10.650
34681W        W 6297  28.007  18.073   2.994
34682W        W 6298  16.806  17.097   0.003
34683W        W 6299   0.471  33.280   4.165
34684W        W 6300   4.730   6.228  10.783
34685W        W 6301  38.902  30.576   4.318
34686W        W 6302  14.725  33.985  11.527
34687W        W 6303  27.943  25.723  12.035
34688W        W 6304  42.904  43.008  11.968
34689W        W 6305  20.331  32.418   4.733
34690W        W 6306  35.324   4.187   0.731
34691W        W 6307  24.719  20.180   3.238
34692W        W 6308  34.922  19.198  12.551
34693W        W 6309   8.783  39.588  10.501
34694W        W 6310  25.254  19.342  11.916
34695W        W 6311   4.815  33.207   4.393
34696W        W 6312   4.290  14.659   4.401
34697W        W 6313  20.178  26.819   0.898
34698W        W 6314  29.671  42.475  11.731
34699W        W 6315  31.578  15.285  13.945
34700W        W 6316  19.150  21.003  10.867
34701W        W 6317   7.764  28.873  14.439
34702W        W 6318   9.873  42.406  13.158
34703W        W 6319  21.533   2.025   4.585
34704W        W 6320  40.256  42.380   0.794
34705W        W 6321   6.629  17.229   0.480
34706W        W 6322  32.215  17.132  13.568
34707W        W 6323  12.759   3.877   4.155
34708W        W 6324  10.614  31.917   2.930
34709W        W 6325  35.457  12.941  12.950
34710W        W 6326  40.484  37.122  11.572
34711W        W 6327   0.782  43.008   5.006
34712W        W 6328  41.121   9.876   1.378
34713W        W 6329  32.372   9.336  12.437
34714W        W 6330   9.759   7.218  12.536
34715W        W 6331  22.947   1.686   3.822
34716W        W 6332  38.508  38.894   4.230
34717W        W 6333  11.397  19.532   4.667
34718W        W 6334  21.124  28.646  14.411
34719W        W 6335   0.540  17.741  12.298
34720W        W 6336  33.680   9.361  13.966
34721W        W 6337   0.657  24.107  12.440
34722W        W 6338  27.948  18.222   5.072
34723W        W 6339   4.778   8.907  11.299
34724W        W 6340   7.235  13.629   3.195
34725W        W 6341  13.272  36.809  13.515
34726W        W 6342   9.327  43.296   4.439
34727W        W 6343  43.047  23.067   3.626
34728W        W 6344  43.646  16.655   0.002
34729W        W 6345  32.115  44.246  10.916
34730W        W 6346  13.566  20.650  12.552
34731W        W 6347  26.504  44.397  12.964
34732W        W 6348  34.529   4.617   0.860
34733W        W 6349  26.153  29.244   2.729
34734W        W 6350  43.549  25.255   2.510
34735W        W 6351   4.492  30.388   1.430
34736W        W 6352  32.063  23.468   4.371
34737W        W 6353  42.471   9.649   4.731
34738W        W 6354  42.457  30.516  12.441
34739W        W 6355  36.448  26.895   2.762
34740W        W 6356  11.081  19.238   0.403
34741W        W 6357   0.343  44.735   0.355
34742W        W 6358  43.539   1.297   0.867
34743W        W 6359  36.896  35.987  14.254
34744W        W 6360   3.979  32.232   4.611
34745W        W 6361   3.349  35.218  14.753
34746W        W 6362  19.896  12.839  13.805
34747W        W 6363  16.858   5.332  14.919
34748W        W 6364   8.997  15.012  14.955
34749W        W 6365  41.572  16.265  10.674
34750W        W 6366  24.052  42.688   1.238
34751W        W 6367  16.921  19.667   3.789
34752W        W 6368  25.934   1.140   2.081
34753W        W 6369  31.529  39.119  14.703
34754W        W 6370  18.603  29.681   4.486
34755W        W 6371  27.317  13.738  10.396
34756W        W 6372  15.834   4.773   0.319
34757W        W 6373   4.290  11.307   0.320
34758W        W 6374  17.296  10.644  12.045
34759W        W 6375  33.093  16.664   1.827
34760W        W 6376   9.404  25.971   2.568
34761W        W 6377   5.870  21.696   4.147
34762W        W 6378  42.544  21.576  13.919
34763W        W 6379  20.021  39.115  11.628
34764W        W 6380  32.441   7.486   1.889
34765W        W 6381   8.149  18.591   3.695
34766W        W 6382  28.283  19.305   2.147
34767W        W 6383  28.004  37.894   4.348
34768W        W 6384  33.417  12.265  12.390
34769W        W 6385  15.098  27.577   2.649
34770W        W 6386  35.547  15.424  14.741
34771W        W 6387  30.054   0.770  14.103
34772W        W 6388  12.004  43.798  12.189
34773W        W 6389  42.536  43.872   3.244
34774W        W 6390  14.272  39.412  12.382
34775W        W 6391  27.491   4.923   2.368
34776W        W 6392  20.225   5.850  11.337
34777W        W 6393  40.308  27.147  12.617
34778W        W 6394  40.029  14.211  13.703
34779W        W 6395  24.807  40.409  11.549
34780W        W 6396  11.380  24.563  13.954
34781W        W 6397  27.482  24.981  10.661
34782W        W 6398   3.199  27.842   0.377
34783W        W 6399  21.123  41.802   3.156
34784W        W 6400   8.739  23.306   3.720
34785W        W 6401   2.663  20.554   4.408
34786W        W 6402  33.934  13.642   2.993
34787W        W 6403  42.949  24.217   4.121
34788W        W 6404  38.394  23.938  12.948
34789W        W 6405  37.487   8.617  13.487
34790W        W 6406  29.993  14.627   1.466
34791W        W 6407   6.002  34.543  12.126
34792W        W 6408  10.655  22.478  14.916
34793W        W 6409   5.006   1.647  13.165
34794W        W 6410  15.117   5.623  13.164
34795W        W 6411   6.799  35.044   3.256
34796W        W 6412   9.753  10.807  12.880
34797W        W 6413  35.014  34.053  10.681
34798W        W 6414   9.653  30.998  12.966
34799W        W 6415  32.109  43.836  12.164
34800W        W 6416  39.564   0.873   4.633
34801W        W 6417  23.679  17.611   0.371
34802W        W 6418  36.270  28.146   3.314
34803W        W 6419   4.761  42.844   1.426
34804W        W 6420  23.218   5.770   0.225
34805W        W 6421  15.432  20.988   4.073
34806W        W 6422  34.056  10.246  12.579
34807W        W 6423  25.588  33.991  13.367
34808W        W 6424  40.899  29.776   1.085
34809W        W 6425  26.646  11.425   1.212
34810W        W 6426  36.947  41.942  12.671
34811W        W 6427  31.196  29.054   2.894
34812W        W 6428   6.522  15.209  10.735
34813W        W 6429  41.739   2.314   1.478
34814W        W 6430  22.111   9.810  13.681
34815W        W 6431  11.874  34.218  12.832
34816W        W 6432  34.718  20.093   0.254
34817W        W 6433   0.714  25.652   2.124
34818W        W 6434   0.562  25.936  13.459
34819W        W 6435  11.491  21.278   0.096
34820W        W 6436  29.183   4.002   3.678
34821W        W 6437  21.677  11.152  11.140
34822W        W 6438  16.502  35.382  14.861
34823W        W 6439  42.569  15.380   4.251
34824W        W 6440  38.372   8.860   1.404
34825W        W 6441   4.598  16.801   9.949
34826W        W 6442  10.759  24.984   4.448
34827W        W 6443  14.432  28.447   3.632
34828W        W 6444  32.442  10.693   3.247
34829W        W 6445  17.552   0.537  13.951
34830W        W 6446  20.342  39.654   1.910
34831W        W 6447   4.687  13.199  10.721
34832W        W 6448   2.274  19.102   2.347
34833W        W 6449  38.507  31.116   3.127
34834W        W 6450  34.519  26.016   4.431
34835W        W 6451  42.409  27.189   2.893
34836W        W 6452  25.047   9.354  13.487
34837W        W 6453  23.253  13.385   3.170
34838W        W 6454   2.489  17.043  11.600
34839W        W 6455  11.223  41.821  14.328
34840W        W 6456   6.681  25.763  13.483
34841W        W 6457  34.961   1.479   5.100
34842W        W 6458  32.597  30.670   3.832
34843W        W 6459  40.526   5.231   1.346
34844W        W 6460  42.900  28.262  14.044
34845W        W 6461   2.355  33.545  11.698
34846W        W 6462  35.045  28.867   3.841
34847W        W 6463  41.744  15.050   4.005
34848W        W 6464  15.328  13.724  12.921
34849W        W 6465  29.166   7.176   2.718
34850W        W 6466   1.951  44.526  10.233
34851W        W 6467  36.057  38.481   1.070
34852W        W 6468  38.045  25.270   2.363
34853W        W 6469  40.966  11.194   1.153
34854W        W 6470   5.405  44.079   3.270
34855W        W 6471  15.968   0.932   0.897
34856W        W 6472  16.313   3.075  10.820
34857W        W 6473  36.258  23.802  14.806
34858W        W 6474  44.075  17.566  14.887
34859W        W 6475  32.825  30.003   2.866
34860W        W 6476  29.709   3.818  12.789
34861W        W 6477  11.371   5.784  10.291
34862W        W 6478   4.899  19.060  13.554
34863W        W 6479   2.321   9.209   0.255
34864W        W 6480   9.280  13.060  13.847
34865W        W 6481  25.909   6.412   2.859
34866W        W 6482  11.644  18.231   2.179
34867W        W 6483  12.102  20.601  10.777
34868W        W 6484   2.630   8.479  11.101
34869W        W 6485  41.490  15.355  10.632
34870W        W 6486  34.576  13.043  12.746
34871W        W 6487  27.646  30.059  12.485
34872W        W 6488   2.792  43.954  10.004
34873W        W 6489  25.171  38.854  10.519
34874W        W 6490  29.813   7.294  12.080
34875W        W 6491  11.839   8.796  14.060
34876W        W 6492  25.070  19.756  11.574
34877W        W 6493   7.660  27.005  13.521
34878W        W 6494  41.769  17.074  14.937
34879W        W 6495   0.322  20.838   3.995
34880W        W 6496  33.196  10.323   2.127
34881W        W 6497  26.016  31.297  10.723
34882W        W 6498  16.837  36.920  13.241
34883W        W 6499  40.363  34.324  12.930
34884W        W 6500  42.328  40.754  13.642
34885W        W 6501  39.317  28.121  13.586
34886W        W 6502   7.637  37.974   2.770
34887W        W 6503  28.586  32.437  11.147
34888W        W 6504  25.043  15.177  10.675
34889W        W 6505  23.560  10.171   0.256
34890W        W 6506   7.297  31.605  11.122
34891W        W 6507  12.427  26.017  13.562
34892W        W 6508   0.936  39.478   1.006
34893W        W 6509  13.516  11.707   3.429
34894W        W 6510  22.008  18.584  11.973
34895W        W 6511   9.742  17.742  12.082
34896W        W 6512  20.534  10.099  12.834
34897W        W 6513  17.756  44.704  12.443
34898W        W 6514   4.746  43.514   9.757
34899W        W 6515  22.029   0.182   2.019
34900W        W 6516  40.938   3.839   1.712
34901W        W 6517  16.687  10.095   1.943
34902W        W 6518   7.380  12.530  10.385
34903W        W 6519   7.296   1.339   0.286
34904W        W 6520  34.062  34.653   4.222
34905W        W 6521   9.244   5.648  14.267
34906W        W 6522  25.519  30.393  10.811
34907W        W 6523  38.196  28.680   2.620
34908W        W 6524  42.878  24.265  10.738
34909W        W 6525  25.539  37.102  12.509
34910W        W 6526   9.568  32.411  12.513
34911W        W 6527  13.741   7.230  11.293
34912W        W 6528   8.707  11.004  13.444
34913W        W 6529  29.194  29.904   3.818
34914W        W 6530  33.562   8.884  14.588
34915W        W 6531  32.361  17.043  10.327
34916W        W 6532  13.558  31.711   3.683
34917W        W 6533   3.211  22.668  13.988
34918W        W 6534   9.420  11.300  12.456
34919W        W 6535  27.048  41.324   3.248
34920W        W 6536   2.884  39.023  14.519
34921W        W 6537  26.581  38.571   3.098
34922W        W 6538   7.685  21.367   5.075
34923W        W 6539  20.595  11.431   3.220
34924W        W 6540  32.093  30.821  11.101
34925W        W 6541  32.656   8.011   3.695
34926W        W 6542  12.376   6.587   5.297
34927W        W 6543   2.509  34.358   0.814
34928W        W 6544   6.944  31.134  11.561
34929W        W 6545   7.366  39.050  13.469
34930W        W 6546   5.447  25.304   4.120
34931W        W 6547  18.758  20.467  13.129
34932W        W 6548  34.930  15.026   1.993
34933W        W 6549  24.160  24.269  13.482
34934W        W 6550  14.950  36.048  12.106
34935W        W 6551  12.557   3.854   4.651
34936W        W 6552   5.511  22.124   1.311
34937W        W 6553   8.257  29.387  13.844
34938W        W 6554   8.373   3.695  11.095
34939W        W 6555   4.537  21.705   4.016
34940W        W 6556  33.473   5.744  13.065
34941W        W 6557  42.287  15.729  12.683
34942W        W 6558  35.729  32.193  14.454
34943W        W 6559  44.216   6.054  11.159
34944W        W 6560  24.825   2.287  11.452
34945W        W 6561  31.705  11.286  12.325
34946W        W 6562   1.093  34.840   0.248
34947W        W 6563  43.406  17.638  11.304
34948W        W 6564  36.456  38.741  13.851
34949W        W 6565  27.525  18.072   4.792
34950W        W 6566  30.683   8.735   0.835
34951W        W 6567  42.309  44.267   1.760
34952W        W 6568   8.881  32.896   2.851
34953W        W 6569  25.291   6.917   4.689
34954W        W 6570  20.649  27.495   1.742
34955W        W 6571  36.380  22.468  10.714
34956W        W 6572  42.961  13.789   0.973
34957W        W 6573  31.648  36.598  12.518
34958W        W 6574   6.170  42.805  13.831
34959W        W 6575  35.499  20.548  13.556
34960W        W 6576  12.166   3.892  13.274
34961W        W 6577  26.213  24.159  12.869
34962W        W 6578   7.401   5.436  14.385
34963W        W 6579  30.284  20.624   4.493
34964W        W 6580  24.645  29.324  11.411
34965W        W 6581  29.255  25.799  11.473
34966W        W 6582   7.281  27.877   4.180
34967W        W 6583  36.590  16.555  10.672
34968W        W 6584  29.415  11.876  14.299
34969W        W 6585  11.365  32.927  14.484
34970W        W 6586   9.283  23.670  14.539
34971W        W 6587  36.409  30.123  13.093
34972W        W 6588  25.556  39.479   3.250
34973W        W 6589  38.455  10.624   4.297
34974W        W 6590  37.078  31.019   2.392
34975W        W 6591  40.501  10.637  11.632
34976W        W 6592  28.549  26.480  14.847
34977W        W 6593  38.014   7.066  14.852
34978W        W 6594   7.184  33.104  13.461
34979W        W 6595  29.132  11.649   2.793
34980W        W 6596  40.601  32.867   0.378
34981W        W 6597  16.275  27.871   4.730
34982W        W 6598  18.069  28.013  14.211
34983W        W 6599  13.426   6.385   9.728
34984W        W 6600  28.445  28.017   1.811
34985W        W 6601   4.374  16.071   1.702
34986W        W 6602  22.666  16.123   4.299
34987W        W 6603  26.985   0.094  14.479
34988W        W 6604  34.240  44.374   3.104
34989W        W 6605  12.891  26.511  10.466
34990W        W 6606  17.741  41.105   5.122
34991W        W 6607  42.235  24.818  13.931
34992W        W 6608  17.298  14.597   0.777
34993W        W 6609   1.111  23.503   9.903
34994W        W 6610  14.664   1.330  10.410
34995W        W 6611  27.300  24.087  12.009
34996W        W 6612   5.836  27.929  14.713
34997W        W 6613   9.118  10.850   1.807
34998W        W 6614  39.663  26.920   9.875
34999W        W 6615  41.811  44.801   2.408
35000W        W 6616  20.691   6.690  11.957
35001W        W 6617  43.840  39.300   2.206
35002W        W 6618  29.568   5.605   0.936
35003W        W 6619  28.974  34.081  12.959
35004W        W 6620  19.681  19.623   0.529
35005W        W 6621  30.941  12.658  14.418
35006W        W 6622  40.178  35.030   4.674
35007W        W 6623  41.289   7.986   2.391
35008W        W 6624  24.718  11.011   3.290
35009W        W 6625   7.885  10.725  13.693
35010W        W 6626   1.277  38.494   2.746
35011W        W 6627  29.545   5.503  11.150
35012W        W 6628  18.194  27.019   0.066
35013W        W 6629   1.670  31.045   1.216
35014W        W 6630  16.713   3.353  14.175
35015W        W 6631  40.418  24.597  10.687
35016W        W 6632   3.924  39.998  10.731
35017W        W 6633   5.868  18.695   2.400
35018W        W 6634  24.036  21.257  13.976
35019W        W 6635  14.529  39.391  11.938
35020W        W 6636  41.482  34.046   0.251
35021W        W 6637  31.109  23.890   4.125
35022W        W 6638  17.211  13.355  12.490
35023W        W 6639  40.913  44.236  14.066
35024W        W 6640   6.221  28.028  12.031
35025W        W 6641  27.064   1.386  12.287
35026W        W 6642  40.274  13.139  12.830
35027W        W 6643  17.314  24.649  10.793
35028W        W 6644  38.411  24.298   0.781
35029W        W 6645  10.742  20.143  12.640
35030W        W 6646  10.356  19.646   2.755
35031W        W 6647  11.792  40.842   4.490
35032W        W 6648  44.597   8.182   4.558
35033W        W 6649  25.716  38.865  13.988
35034W        W 6650  33.416  38.373  10.716
35035W        W 6651  16.674  21.945   4.167
35036W        W 6652  43.270  24.029  11.113
35037W        W 6653  43.995  22.284  10.988
35038W        W 6654  23.475  11.174   2.218
35039W        W 6655  26.439  12.404  10.855
35040W        W 6656  30.987  19.094  14.842
35041W        W 6657  31.432  19.654   1.015
35042W        W 6658  41.552  42.434   1.424
35043W        W 6659  36.980  12.437   4.424
35044W        W 6660   5.314  39.244  14.821
35045W        W 6661  34.929  39.791  10.793
35046W        W 6662  17.457  12.179  14.483
35047W        W 6663   8.053  18.759   4.588
35048W        W 6664  29.646  34.772   4.182
35049W        W 6665   8.092  17.983   2.387
35050W        W 6666  40.625   1.439  10.758
35051W        W 6667   2.559  31.053   1.369
35052W        W 6668  13.654   2.668   1.010
35053W        W 6669  34.457  41.346   1.246
35054W        W 6670  34.085  23.681  10.701
35055W        W 6671  21.051  16.302  14.982
35056W        W 6672  16.844  32.226  14.328
35057W        W 6673  11.651  18.049  13.995
35058W        W 6674  39.510   9.115   0.002
35059W        W 6675  16.283   5.068  11.121
35060W        W 6676  37.143  21.207  11.688
35061W        W 6677  39.083   4.909  10.284
35062W        W 6678   2.483  31.229   0.743
35063W        W 6679   8.394  20.776   4.247
35064W        W 6680  38.626  12.495  14.976
35065W        W 6681  34.507  18.719   1.885
35066W        W 6682  32.161  16.729  12.858
35067W        W 6683  42.566  19.294   2.817
35068W        W 6684  24.897  14.252  12.272
35069W        W 6685   9.818   4.131   4.333
35070W        W 6686   1.712  12.302   1.033
35071W        W 6687  29.412   3.046   1.424
35072W        W 6688  32.136  43.258  13.388
35073W        W 6689  14.735   0.911   4.408
35074W        W 6690   0.957  42.390   5.046
35075W        W 6691  22.797   7.175  12.409
35076W        W 6692  31.645  40.956  13.455
35077W        W 6693  41.758  15.539  11.090
35078W        W 6694   2.849  41.472   1.268
35079W        W 6695  32.916  25.983   4.090
35080W        W 6696  14.266   6.739  10.760
35081W        W 6697  15.592  17.079  10.246
35082W        W 6698  28.070  14.370  10.682
35083W        W 6699  14.500  26.885  14.772
35084W        W 6700  13.192  11.601  13.407
35085W        W 6701  31.673  23.793  11.974
35086W        W 6702   5.833   5.134   0.843
35087W        W 6703  18.734  11.683  13.483
35088W        W 6704   1.120  13.258   0.426
35089W        W 6705  27.791   3.369  11.798
35090W        W 6706  23.790  21.582   3.569
35091W        W 6707   0.633   1.231   3.307
35092W        W 6708  36.093  44.224  13.321
35093W        W 6709  40.670  44.593  14.379
35094W        W 6710   3.744  32.168   0.459
35095W        W 6711  17.184  13.323  10.491
35096W        W 6712   3.234  25.695   3.648
35097W        W 6713   5.021   7.650   4.765
35098W        W 6714  20.035   1.487   0.225
35099W        W 6715   4.150   4.985   4.137
35100W        W 6716  19.989  37.513  13.265
35101W        W 6717  16.018  34.010   2.690
35102W        W 6718  27.116  42.063  13.386
35103W        W 6719  33.916  18.101   3.211
35104W        W 6720   5.848  30.022   0.364
35105W        W 6721  28.184  26.516   0.931
35106W        W 6722  21.438  41.333   0.865
35107W        W 6723  15.304  27.045   3.765
35108W        W 6724   2.815  43.001   5.310
35109W        W 6725  35.197  31.875  12.470
35110W        W 6726  42.869  18.604  10.937
35111W        W 6727   8.341   4.824   1.330
35112W        W 6728   5.077  19.972  14.377
35113W        W 6729  32.028   3.049   4.978
35114W        W 6730  25.585  38.222  11.943
35115W        W 6731   3.632  30.161   0.569
35116W        W 6732  22.032  28.196  13.744
35117W        W 6733  35.591  17.729   0.002
35118W        W 6734   8.801  36.370  13.944
35119W        W 6735  40.736  40.579   1.405
35120W        W 6736  28.283  27.319  11.498
35121W        W 6737  43.761  38.946   2.928
35122W        W 6738   2.278  21.098   2.826
35123W        W 6739   4.479   5.709   3.661
35124W        W 6740  37.555  18.518  14.747
35125W        W 6741  20.098  15.071   0.012
35126W        W 6742  28.292  16.789   5.414
35127W        W 6743  31.116  26.256   0.765
35128W        W 6744   7.427   3.671  14.710
35129W        W 6745   9.305  24.973  13.937
35130W        W 6746  32.764  30.772  12.577
35131W        W 6747  24.143  28.059   2.805
35132W        W 6748  30.129  33.349  13.838
35133W        W 6749  18.628  36.802  13.338
35134W        W 6750   1.052  31.097   0.258
35135W        W 6751   2.860   1.228  14.571
35136W        W 6752  19.082  43.929  12.398
35137W        W 6753  12.552  44.505  13.487
35138W        W 6754  34.682  17.240   3.040
35139W        W 6755   2.327  26.649   3.775
35140W        W 6756  41.950  19.748   2.663
35141W        W 6757  36.865  37.379  11.061
35142W        W 6758  16.181   9.676   2.265
35143W        W 6759  19.392  28.251  12.980
35144W        W 6760   1.551  17.534  14.715
35145W        W 6761  33.408   7.626   1.991
35146W        W 6762  26.700  41.330   2.861
35147W        W 6763  27.563  25.015   4.280
35148W        W 6764   5.360   2.736   0.046
35149W        W 6765  22.341  29.641   3.068
35150W        W 6766  20.683  31.935   1.711
35151W        W 6767  22.554  25.219   2.641
35152W        W 6768  33.825  35.454   3.586
35153W        W 6769   9.230   5.618  11.933
35154W        W 6770  32.310   6.316  11.792
35155W        W 6771   3.658  30.986  14.254
35156W        W 6772  21.693  20.936   4.090
35157W        W 6773  10.797   7.248  14.784
35158W        W 6774  26.619  37.587   0.423
35159W        W 6775  17.584  29.039  12.809
35160W        W 6776  34.610  30.117   3.608
35161W        W 6777  38.875  10.474  12.118
35162W        W 6778  23.064   0.345  13.015
35163W        W 6779  41.020   4.193   2.104
35164W        W 6780  31.051  23.614  13.861
35165W        W 6781   2.315  22.646  11.600
35166W        W 6782  18.761  22.543  11.626
35167W        W 6783   7.629  28.082   1.514
35168W        W 6784   3.659  37.388   1.476
35169W        W 6785  30.332  30.859  14.104
35170W        W 6786  12.340  20.236  12.970
35171W        W 6787  43.344  28.038   3.238
35172W        W 6788   2.280  16.244   3.592
35173W        W 6789  30.121  27.807  13.821
35174W        W 6790  38.297   1.231  11.524
35175W        W 6791  22.932   3.473   4.150
35176W        W 6792  14.141   9.741  12.503
35177W        W 6793  26.918  24.029   2.699
35178W        W 6794  14.557  18.821  13.673
35179W        W 6795   2.255  41.869   0.878
35180W        W 6796  35.944  35.628  10.704
35181W        W 6797  34.454  30.864  12.960
35182W        W 6798  12.344  11.782  14.435
35183W        W 6799   5.216   9.079  11.070
35184W        W 6800  40.953  13.730  14.242
35185W        W 6801  27.731   1.602  11.502
35186W        W 6802   4.495  33.155   3.158
35187W        W 6803   2.006  40.754  11.381
35188W        W 6804  39.576  26.495   4.594
35189W        W 6805  22.714  34.415  11.940
35190W        W 6806   7.356  19.342  11.148
35191W        W 6807  30.505  10.405  14.247
35192W        W 6808  40.070  43.909   0.485
35193W        W 6809   2.234   4.767  10.473
35194W        W 6810  42.269  37.840   2.731
35195W        W 6811   8.521  32.288  14.052
35196W        W 6812   0.803   4.733   3.198
35197W        W 6813  35.380  38.114   3.685
35198W        W 6814   1.488  27.473  10.648
35199W        W 6815   9.953  44.709   4.017
35200W        W 6816  22.658  42.277  10.228
35201W        W 6817  37.527  27.774   3.745
35202W        W 6818  38.102  18.063   2.771
35203W        W 6819  35.755  10.622  14.962
35204W        W 6820   9.649   5.728   1.546
35205W        W 6821  31.389  28.457   2.246
35206W        W 6822   2.871  15.862   0.396
35207W        W 6823   5.747   4.253   2.062
35208W        W 6824  12.496   5.716   3.782
35209W        W 6825  11.988  11.871   2.284
35210W        W 6826   6.279  27.574  13.478
35211W        W 6827  18.116  40.488   2.295
35212W        W 6828  24.757  10.657  14.472
35213W        W 6829  44.931   2.001  11.252
35214W        W 6830  21.096   2.873  13.299
35215W        W 6831  24.724  42.688   1.793
35216W        W 6832  26.981   6.261   1.364
35217W        W 6833  44.034  10.770  14.151
35218W        W 6834  16.244  10.619  13.493
35219W        W 6835  20.601  39.865  10.905
35220W        W 6836  10.337  15.663  13.742
35221W        W 6837   5.480  32.513   1.203
35222W        W 6838  30.855  18.909  13.784
35223W        W 6839  43.547  17.102  13.754
35224W        W 6840   7.228  39.961   4.799
35225W        W 6841   1.678  24.772  11.047
35226W        W 6842  15.102  36.648  13.043
35227W        W 6843  39.493   2.548   2.291
35228W        W 6844  25.267  10.055   0.312
35229W        W 6845  28.947   8.359  12.097
35230W        W 6846  10.656   3.700  12.541
35231W        W 6847  10.154   4.028  11.441
35232W        W 6848   3.164  16.378   3.261
35233W        W 6849   3.991  35.618  10.727
35234W        W 6850  44.813  12.229   1.914
35235W        W 6851  44.000  29.197  11.370
35236W        W 6852  14.169  43.378  12.567
35237W        W 6853   0.223  12.290  11.449
35238W        W 6854  25.166  16.609   4.540
35239W        W 6855   9.154   9.671  12.078
35240W        W 6856  10.270   2.420  13.036
35241W        W 6857  29.455  12.484  12.148
35242W        W 6858  40.281  24.017   2.449
35243W        W 6859  44.898  36.509   3.957
35244W        W 6860  42.033   3.822   2.877
35245W        W 6861  15.235  31.449   4.185
35246W        W 6862  18.755   5.463  13.914
35247W        W 6863  40.904  12.446   3.688
35248W        W 6864  34.731  32.157  13.247
35249W        W 6865  11.572   8.709  14.915
35250W        W 6866   1.762  43.440  14.469
35251W        W 6867  23.232  23.252   2.276
35252W        W 6868  10.837  29.483  12.448
35253W        W 6869  21.237  31.986  12.097
35254W        W 6870  32.408   0.645   2.299
35255W        W 6871  12.192   2.393  14.984
35256W        W 6872  34.304  33.631  12.439
35257W        W 6873  41.373  18.343   0.811
35258W        W 6874  16.349  13.428   0.355
35259W        W 6875   6.901  17.356   0.909
35260W        W 6876  14.179  32.464   4.157
35261W        W 6877  29.278   0.824  10.809
35262W        W 6878   8.837  32.849  13.423
35263W        W 6879  37.583  19.087  14.031
35264W        W 6880   0.210  21.219  11.418
35265W        W 6881  23.460  11.846  10.761
35266W        W 6882  27.256  10.184   4.498
35267W        W 6883  16.035  38.975  14.314
35268W        W 6884  34.338  10.230  10.644
35269W        W 6885  26.320  14.969  11.030
35270W        W 6886  41.925  18.962  12.556
35271W        W 6887  13.107   6.765  11.510
35272W        W 6888  43.852  44.303   1.078
35273W        W 6889  39.292  36.040   1.835
35274W        W 6890  42.667  11.804   3.087
35275W        W 6891   3.658   5.239   4.100
35276W        W 6892  32.465  37.447   3.360
35277W        W 6893  10.324  24.239   1.857
35278W        W 6894  34.979  17.635  10.584
35279W        W 6895  19.013  44.406   2.802
35280W        W 6896  43.459  34.986   0.904
35281W        W 6897   5.732  11.358  13.653
35282W        W 6898  22.913  27.919  12.556
35283W        W 6899  22.303  12.065  12.014
35284W        W 6900  22.705   9.911   3.617
35285W        W 6901  13.705  42.679   2.517
35286W        W 6902  40.344  27.613   3.826
35287W        W 6903  36.317   0.973  13.932
35288W        W 6904  16.638  17.199  12.090
35289W        W 6905  26.512  13.837   0.921
35290W        W 6906  17.283  35.328  11.708
35291W        W 6907   8.205  40.523   2.141
35292W        W 6908   9.121   5.905  14.721
35293W        W 6909  10.896  41.781   3.323
35294W        W 6910  43.905   4.224  13.916
35295W        W 6911   0.087  21.562  12.859
35296W        W 6912   2.764   6.342  12.962
35297W        W 6913  24.756   3.871  12.040
35298W        W 6914   1.629  35.331   2.911
35299W        W 6915   8.348  10.741   2.298
35300W        W 6916  23.707  32.570  11.586
35301W        W 6917   9.343  12.980   3.653
35302W        W 6918  30.374  11.860  11.445
35303W        W 6919   3.778  17.739   3.420
35304W        W 6920  31.854  19.291   2.698
35305W        W 6921  26.100  18.245   3.647
35306W        W 6922  14.282  42.398  14.442
35307W        W 6923  34.972   7.782   3.353
35308W        W 6924  17.077  37.173  10.755
35309W        W 6925  10.059  13.136  12.017
35310W        W 6926  33.385   6.255   4.891
35311W        W 6927   9.331  20.216   3.159
35312W        W 6928  14.609  23.166   3.300
35313W        W 6929  36.411  27.642  12.132
35314W        W 6930  40.758  37.591   0.343
35315W        W 6931  36.296  30.947  13.144
35316W        W 6932   3.797  41.352  14.379
35317W        W 6933  40.393  44.218  11.543
35318W        W 6934  14.859  36.865  11.165
35319W        W 6935  34.532  41.994  14.903
35320W        W 6936   7.267  31.446  10.620
35321W        W 6937   5.683  38.871   2.814
35322W        W 6938  25.880   8.819   5.028
35323W        W 6939  23.897  17.534   1.384
35324W        W 6940  27.377  27.273  14.085
35325W        W 6941  43.974   1.813  14.765
35326W        W 6942   0.692   1.194   2.371
35327W        W 6943  33.987   0.767   1.844
35328W        W 6944  29.468  28.689  11.681
35329W        W 6945  26.512  17.602   4.548
35330W        W 6946   9.633  23.284   0.345
35331W        W 6947   6.501  25.964   2.901
35332W        W 6948  27.897   3.778   2.454
35333W        W 6949  31.341   0.059   1.774
35334W        W 6950   6.706  36.309   4.493
35335W        W 6951  37.855  34.093  11.101
35336W        W 6952  17.085  11.573   0.928
35337W        W 6953   7.160  20.014  12.620
35338W        W 6954  11.751  40.499   0.329
35339W        W 6955   3.245  28.042   1.505
35340W        W 6956  19.105   7.261  11.942
35341W        W 6957  44.266  11.795   1.867
35342W        W 6958  25.813  29.215   2.341
35343W        W 6959  10.720  16.562   1.354
35344W        W 6960  13.713  14.407   3.725
35345W        W 6961   5.878  20.947   2.746
35346W        W 6962  36.491  42.491  13.665
35347W        W 6963   3.192  33.226   1.819
35348W        W 6964   2.700  20.816   2.988
35349W        W 6965  22.123  20.665  10.358
35350W        W 6966  41.302  23.222   3.325
35351W        W 6967  25.933  43.256   2.125
35352W        W 6968   8.309  33.463  12.795
35353W        W 6969  14.315  33.013  10.762
35354W        W 6970  15.054  16.880  13.322
35355W        W 6971  38.072   6.008   0.798
35356W        W 6972   5.133  38.451   0.965
35357W        W 6973  23.018  40.409  11.896
35358W        W 6974  16.101   4.804  14.280
35359W        W 6975  34.620  42.729  11.171
35360W        W 6976  33.095  28.436  10.740
35361W        W 6977  14.561  17.744   2.275
35362W        W 6978  34.621   6.763   2.245
35363W        W 6979   6.897  23.896  13.513
35364W        W 6980  12.739  37.726   4.420
35365W        W 6981  20.138  34.056  11.399
35366W        W 6982  19.177  38.555  13.308
35367W        W 6983  44.310   9.209  13.123
35368W        W 6984  31.970  23.660  13.874
35369W        W 6985  42.302  32.813   1.477
35370W        W 6986  22.724  38.138  10.727
35371W        W 6987  40.022   4.390  12.961
35372W        W 6988  44.210  32.121   4.836
35373W        W 6989   4.314  37.824   3.307
35374W        W 6990   1.229  17.068   2.676
35375W        W 6991  27.243   5.694   0.772
35376W        W 6992  44.012  28.090  12.638
35377W        W 6993   6.488   0.199   3.330
35378W        W 6994  35.899  14.858   2.091
35379W        W 6995   7.350   9.815   2.107
35380W        W 6996  43.652  20.573   2.908
35381W        W 6997  24.115  33.012   1.406
35382W        W 6998   5.022  32.151  11.196
35383W        W 6999  19.154  44.818   4.062
35384W        W 7000   4.421  35.931  10.692
35385W        W 7001  11.200  41.836   4.598
35386W        W 7002   8.388   4.287   4.193
35387W        W 7003  43.075  31.477   3.283
35388W        W 7004  12.166  27.414   3.513
35389W        W 7005  16.655  20.816  14.360
35390W        W 7006  12.616  26.778   2.700
35391W        W 7007  30.703  33.857   2.933
35392W        W 7008  43.443   5.263  10.704
35393W        W 7009  18.330  21.802  12.975
35394W        W 7010   1.653  39.795  14.491
35395W        W 7011  37.434  30.895  11.027
35396W        W 7012   8.687  20.977  10.410
35397W        W 7013   3.420  14.672  12.764
35398W        W 7014  39.011   2.771  14.311
35399W        W 7015  42.262  32.638   2.828
35400W        W 7016   6.116  26.758  12.378
35401W        W 7017  10.094  24.601  11.765
35402W        W 7018   8.264   1.317  12.062
35403W        W 7019  38.890  37.409  12.936
35404W        W 7020  25.544  17.152   2.449
35405W        W 7021   6.498  32.920  14.374
35406W        W 7022  16.567  40.097  11.257
35407W        W 7023  21.034  19.224   2.236
35408W        W 7024   0.564   9.820  11.932
35409W        W 7025  44.854  39.908   3.900
35410W        W 7026   0.401  41.728   2.584
35411W        W 7027  43.480   9.659  14.285
35412W        W 7028  28.591  41.157  12.374
35413W        W 7029   0.436  15.819   3.735
35414W        W 7030  17.752  23.885   4.603
35415W        W 7031  20.851  24.025   0.891
35416W        W 7032   1.594   0.124   0.208
35417W        W 7033  23.225  43.173   4.542
35418W        W 7034   3.891   3.629   3.105
35419W        W 7035  29.883  33.125  14.218
35420W        W 7036  34.416  36.814  14.869
35421W        W 7037  14.279  39.372   1.711
35422W        W 7038  26.657   5.277  11.888
35423W        W 7039  33.064  31.397   3.321
35424W        W 7040  13.913   4.656  12.487
35425W        W 7041  12.387  10.677   3.682
35426W        W 7042  38.989  26.591  14.934
35427W        W 7043  17.717  24.547  11.636
35428W        W 7044  13.228   5.703   2.363
35429W        W 7045  21.225  17.562  12.123
35430W        W 7046   0.315  10.331   0.885
35431W        W 7047  13.640  21.358  11.936
35432W        W 7048   2.738  36.538  13.478
35433W        W 7049  40.953  19.920  11.112
35434W        W 7050  43.276  36.981  13.594
35435W        W 7051  24.961  21.031   1.257
35436W        W 7052  20.118  24.674   4.355
35437W        W 7053  43.150   2.946  13.854
35438W        W 7054  20.261  31.347  13.990
35439W        W 7055  38.139   8.192  11.401
35440W        W 7056  17.619  26.537  11.494
35441W        W 7057  13.313  44.912   0.689
35442W        W 7058  13.682   3.847   0.463
35443W        W 7059  29.063   1.442  12.883
35444W        W 7060   9.855  43.393  12.141
35445W        W 7061  40.345  41.591  11.981
35446W        W 7062   6.770   2.008   3.313
35447W        W 7063   2.528  41.369  13.803
35448W        W 7064   1.466  15.785   3.775
35449W        W 7065  34.472  13.200   4.216
35450W        W 7066   9.954   4.925  12.464
35451W        W 7067   7.364  17.740   2.892
35452W        W 7068  19.957   3.805  12.046
35453W        W 7069  22.490  15.750  12.425
35454W        W 7070  38.259  14.610  14.030
35455W        W 7071   0.382  15.682  10.865
35456W        W 7072  31.630  27.573  14.198
35457W        W 7073  26.628  23.691   4.603
35458W        W 7074   1.778  34.405   3.748
35459W        W 7075  16.959  13.743   4.594
35460W        W 7076  29.072  39.776   0.750
35461W        W 7077  29.645  44.297   2.186
35462W        W 7078   4.751   7.656  12.273
35463W        W 7079   7.923  15.020   4.106
35464W        W 7080   3.687  38.293  13.292
35465W        W 7081  43.514  43.764  11.606
35466W        W 7082  22.859  13.280  12.613
35467W        W 7083  10.729  38.003  13.717
35468W        W 7084  25.484  15.811   5.042
35469W        W 7085  25.226   3.713   3.785
35470W        W 7086  33.884  29.132  14.773
35471W        W 7087  41.138  42.567   4.921
35472W        W 7088  43.780  28.089   0.653
35473W        W 7089  18.385  24.201   1.996
35474W        W 7090  14.645   7.275   3.778
35475W        W 7091   8.801  33.079   1.840
35476W        W 7092   4.233  32.974   1.175
35477W        W 7093   1.760   9.565   2.739
35478W        W 7094  15.333  34.475   1.693
35479W        W 7095  37.932   0.814   4.743
35480W        W 7096   2.845  36.825  10.515
35481W        W 7097  16.543  35.525  14.356
35482W        W 7098  22.108  26.111   4.625
35483W        W 7099  29.524  15.242  11.735
35484W        W 7100  40.271  29.911  11.036
35485W        W 7101  22.013  38.926  12.242
35486W        W 7102  18.251   3.940   0.248
35487W        W 7103  41.299   7.922   3.287
35488W        W 7104  12.440  43.657  14.074
35489W        W 7105   0.729  12.164  12.032
35490W        W 7106  40.018  23.450  13.245
35491W        W 7107  43.551  31.932  11.127
35492W        W 7108  37.127  23.811   4.237
35493W        W 7109   3.279  26.603   5.663
35494W        W 7110  16.122  13.794  13.362
35495W        W 7111  41.790  28.769   3.354
35496W        W 7112  21.153  12.905  13.514
35497W        W 7113  35.763   1.929  12.157
35498W        W 7114  18.110  30.573  14.967
35499W        W 7115  18.874  37.219   1.666
35500W        W 7116  30.634  21.131  14.236
35501W        W 7117   3.425  43.848   2.394
35502W        W 7118  31.520  23.374  13.883
35503W        W 7119  17.874  10.277   1.270
35504W        W 7120  42.768  19.302   1.660
35505W        W 7121  16.444  39.409   2.660
35506W        W 7122   4.788  37.950   4.184
35507W        W 7123  16.684  15.220   0.707
35508W        W 7124  28.853   9.407  11.585
35509W        W 7125  27.001  15.339   3.166
35510W        W 7126   7.441  14.066  10.305
35511W        W 7127  16.650  24.190  13.152
35512W        W 7128  15.142  29.910   4.100
35513W        W 7129  25.262   2.328  11.207
35514W        W 7130  42.263   6.296   2.753
35515W        W 7131  21.778  15.225   1.753
35516W        W 7132  17.706   6.497   3.142
35517W        W 7133  12.662  38.935   3.147
35518W        W 7134   3.862  33.465  14.424
35519W        W 7135  41.833  23.229  13.068
35520W        W 7136   8.019  24.180   5.035
35521W        W 7137   1.362  37.115   0.700
35522W        W 7138  41.095  44.389   4.083
35523W        W 7139  11.391  44.064  13.929
35524W        W 7140  14.168  19.426   3.385
35525W        W 7141  29.503   6.145  14.993
35526W        W 7142  17.275  41.804   2.635
35527W        W 7143  18.208  11.377   0.846
35528W        W 7144  40.965   9.030  14.464
35529W        W 7145  20.105   7.232  14.012
35530W        W 7146  31.179  18.108  13.389
35531W        W 7147   5.226   7.852   3.936
35532W        W 7148   4.215  10.868  14.920
35533W        W 7149  40.469  17.406   4.444
35534W        W 7150  22.130  32.585  13.382
35535W        W 7151  25.433  33.220   1.852
35536W        W 7152   2.965  24.279   0.770
35537W        W 7153  15.594   6.233   2.595
35538W        W 7154  25.052  30.349   4.188
35539W        W 7155   0.242  18.547   3.159
35540W        W 7156  12.640  17.237   2.392
35541W        W 7157  12.372  17.017  11.209
35542W        W 7158  15.192   3.735   3.381
35543W        W 7159  33.427   8.740   3.584
35544W        W 7160  20.602  24.656   1.453
35545W        W 7161  43.076  32.431  10.545
35546W        W 7162   8.209   7.242  14.905
35547W        W 7163  21.379  32.598   0.434
35548W        W 7164  13.640  31.585  13.621
35549W        W 7165  13.271   6.183   4.135
35550W        W 7166   3.196   4.887   0.934
35551W        W 7167  18.563   7.344   0.204
35552W        W 7168   4.211  12.766   4.469
35553W        W 7169   7.754  26.362   4.542
35554W        W 7170   1.346   9.216  11.146
35555W        W 7171   7.615  22.840  11.615
35556W        W 7172   6.921   6.022  12.481
35557W        W 7173  25.721  16.329  12.981
35558W        W 7174  34.413   2.794   2.090
35559W        W 7175  32.918   0.866  10.953
35560W        W 7176  21.081  40.061  11.048
35561W        W 7177  31.199  26.547  14.522
35562W        W 7178  15.575  22.628   4.677
35563W        W 7179   8.077  33.656   1.431
35564W        W 7180  36.359   4.959   2.740
35565W        W 7181  44.917   5.636  11.550
35566W        W 7182  17.125   2.407  12.200
35567W        W 7183   1.271  27.059   2.282
35568W        W 7184  13.216  22.197  11.071
35569W        W 7185  36.040  16.319  13.072
35570W        W 7186   8.339   3.741  12.142
35571W        W 7187  40.478  25.465   2.845
35572W        W 7188  27.978  12.220   3.575
35573W        W 7189  35.024  18.823   1.873
35574W        W 7190   4.724  29.532  12.626
35575W        W 7191   5.414   7.209  14.352
35576W        W 7192   2.615  38.769   1.952
35577W        W 7193  26.943   3.540  11.374
35578W        W 7194  44.372  14.831   3.749
35579W        W 7195   8.371  27.784  12.605
35580W        W 7196  21.130  40.044   4.693
35581W        W 7197  26.524  24.288   0.038
35582W        W 7198  11.724  30.268  12.004
35583W        W 7199  12.161   5.414   0.977
35584W        W 7200   9.872  18.552  13.844
35585W        W 7201  17.495   8.895  11.035
35586W        W 7202  12.724   5.796  11.105
35587W        W 7203  43.764  32.096  12.437
35588W        W 7204   4.491  30.919   3.137
35589W        W 7205  35.382  41.118  14.121
35590W        W 7206   2.881  22.272   3.329
35591W        W 7207  14.294  10.289   4.596
35592W        W 7208  11.963   0.856  12.510
35593W        W 7209   4.421   7.531   3.560
35594W        W 7210  40.297  29.937  14.899
35595W        W 7211  12.351  30.318   3.370
35596W        W 7212  14.268   7.619   4.100
35597W        W 7213  10.463   9.400  11.160
35598W        W 7214  15.819  14.121   0.780
35599W        W 7215  33.076  35.029  13.035
35600W        W 7216  12.441  39.811   0.780
35601W        W 7217  39.777  41.832   3.973
35602W        W 7218   5.467   3.729   0.918
35603W        W 7219   5.920  44.520  11.192
35604W        W 7220  10.577  15.102  11.596
35605W        W 7221  12.879  30.570  10.729
35606W        W 7222  40.501  22.690  14.948
35607W        W 7223  15.419  20.764   4.553
35608W        W 7224  35.881   2.793   3.341
35609W        W 7225  15.772  32.528   0.011
35610W        W 7226  34.132  18.102   0.878
35611W        W 7227   8.714  31.061  11.390
35612W        W 7228  40.014  13.351   5.223
35613W        W 7229  22.089  27.529   1.922
35614W        W 7230  26.235   6.701   2.561
35615W        W 7231   3.156  19.992   5.161
35616W        W 7232  41.413  41.694   0.888
35617W        W 7233   9.732  43.422   1.647
35618W        W 7234   6.815  19.119  13.514
35619W        W 7235  43.338  30.643  11.168
35620W        W 7236  41.023  16.720  14.771
35621W        W 7237  30.185  38.574   2.309
35622W        W 7238  42.063  15.755  11.990
35623W        W 7239  36.678  29.551   3.730
35624W        W 7240  34.399   9.616   3.109
35625W        W 7241  14.211  32.961  13.027
35626W        W 7242  28.093  24.732   2.867
35627W        W 7243  33.111   8.331   3.673
35628W        W 7244  30.508  20.101   3.397
35629W        W 7245  37.796  16.985  11.060
35630W        W 7246  13.381  14.365   2.691
35631W        W 7247  31.614  20.077  11.569
35632W        W 7248  36.909  10.681   3.363
35633W        W 7249   5.320  14.824  11.610
35634W        W 7250  35.472  23.493  13.035
35635W        W 7251  37.557  35.848   2.831
35636W        W 7252   8.422   7.365  13.572
35637W        W 7253  41.235  10.435   2.184
35638W        W 7254  32.165  41.757   4.280
35639W        W 7255  38.797   9.414   3.724
35640W        W 7256  31.482  42.360   2.242
35641W        W 7257  21.675  35.763   3.264
35642W        W 7258   8.359  38.545   2.397
35643W        W 7259  37.426   2.330   4.113
35644W        W 7260  23.538  12.818   0.939
35645W        W 7261  26.489  30.493   0.817
35646W        W 7262  40.810  37.166  13.185
35647W        W 7263  20.095  28.753  13.613
35648W        W 7264  41.785   8.677   2.035
35649W        W 7265  17.764   9.285  11.277
35650W        W 7266  19.268  35.121   2.238
35651W        W 7267  11.288  37.618  12.956
35652W        W 7268  22.306   9.332  13.859
35653W        W 7269  12.299  25.901  11.201
35654W        W 7270  16.810  26.417   0.756
35655W        W 7271  28.744   5.286  11.604
35656W        W 7272  31.173  21.197   4.767
35657W        W 7273   2.895  20.265   3.804
35658W        W 7274   0.886  16.308   0.547
35659W        W 7275   2.922  41.275  12.547
35660W        W 7276  36.592   9.258  12.351
35661W        W 7277  40.055   7.446   3.340
35662W        W 7278  15.029  34.380   0.795
35663W        W 7279  31.608   3.564  14.718
35664W        W 7280  12.847  31.843   1.500
35665W        W 7281  44.117  29.495  13.693
35666W        W 7282  39.418  19.501   3.164
35667W        W 7283  19.549  44.938  13.815
35668W        W 7284  40.787  24.895   1.891
35669W        W 7285  24.284  40.836   0.707
35670W        W 7286  22.958  14.599  14.818
35671W        W 7287  41.202  31.105   2.125
35672W        W 7288  40.467   2.030   1.683
35673W        W 7289  36.246  33.603   5.105
35674W        W 7290  15.843  10.236  14.803
35675W        W 7291   4.742  44.602  12.088
35676W        W 7292  40.458  31.843  12.386
35677W        W 7293  40.788  35.697   4.223
35678W        W 7294  34.554  16.127   3.190
35679W        W 7295  43.033  15.704  13.871
35680W        W 7296  43.987  10.897  12.846
35681W        W 7297   8.589  43.281  10.433
35682W        W 7298  10.961  30.166   3.186
35683W        W 7299  43.681   8.819  14.711
35684W        W 7300  38.126  20.691   1.351
35685W        W 7301  23.097  38.892  10.945
35686W        W 7302  21.691  25.131   5.010
35687W        W 7303  33.206  40.997  10.292
35688W        W 7304  14.702  10.247   0.535
35689W        W 7305  44.557  36.432  10.574
35690W        W 7306  13.375   0.984  10.391
35691W        W 7307  42.024  25.022  14.922
35692W        W 7308  23.480  40.980  12.953
35693W        W 7309  25.639  31.719   0.342
35694W        W 7310  23.982  22.741  12.015
35695W        W 7311  44.401  17.572  13.502
35696W        W 7312  31.082  42.928   3.343
35697W        W 7313  13.619   6.113  14.727
35698W        W 7314   5.399  18.633   2.138
35699W        W 7315  28.419  21.388  14.364
35700W        W 7316  41.607  35.406  11.978
35701W        W 7317   4.914  13.072  14.925
35702W        W 7318  28.552  34.911   0.410
35703W        W 7319  14.745  22.202   3.660
35704W        W 7320  33.290  12.180   1.783
35705W        W 7321  43.522  24.659  14.026
35706W        W 7322   7.530  33.577   2.161
35707W        W 7323   2.504  27.470  14.330
35708W        W 7324  38.070  32.589  10.673
35709W        W 7325  20.676  30.614   1.462
35710W        W 7326  27.616  20.728   4.257
35711W        W 7327   6.340  11.875  13.884
35712W        W 7328  12.776   4.403  11.564
35713W        W 7329  24.190  29.595  10.675
35714W        W 7330  18.334  32.565   3.272
35715W        W 7331  39.853  19.872  14.716
35716W        W 7332  37.579  36.821   1.112
35717W        W 7333  24.129  36.268  14.880
35718W        W 7334  43.226  27.833  11.466
35719W        W 7335  41.035   2.755  11.495
35720W        W 7336  23.924   9.565  12.919
35721W        W 7337  24.139  27.563   1.249
35722W        W 7338   1.368  14.214   2.809
35723W        W 7339   3.409   7.706  12.105
35724W        W 7340  42.747  37.355  12.202
35725W        W 7341  22.305  27.548  10.559
35726W        W 7342  36.323  34.079  11.197
35727W        W 7343  36.663  33.202   1.846
35728W        W 7344  11.351  39.812  11.094
35729W        W 7345   8.899  23.366  14.769
35730W        W 7346  17.505  15.886  10.753
35731W        W 7347  38.382   1.005  11.072
35732W        W 7348  13.811   7.106   4.585
35733W        W 7349  26.037  35.126   1.360
35734W        W 7350  44.375  23.628  14.502
35735W        W 7351  30.432  21.923   2.462
35736W        W 7352  18.676  25.082  14.171
35737W        W 7353  24.641  29.454  11.881
35738W        W 7354  34.955  44.333  11.621
35739W        W 7355  25.119  25.480  10.708
35740W        W 7356  33.418  22.752  12.386
35741W        W 7357  39.084  40.128  13.573
35742W        W 7358  41.421  24.149  14.336
35743W        W 7359  12.353   4.530   2.826
35744W        W 7360  36.928  19.363  11.701
35745W        W 7361  35.858  12.749   2.145
35746W        W 7362  12.853  18.174  14.223
35747W        W 7363  43.450  44.885   4.613
35748W        W 7364  41.053  16.253  11.562
35749W        W 7365   4.715  29.313  11.138
35750W        W 7366  31.428  44.893   0.987
35751W        W 7367  25.208   8.251   2.314
35752W        W 7368  37.064   9.812  11.798
35753W        W 7369  23.926   9.491   0.793
35754W        W 7370  19.002   2.317  14.941
35755W        W 7371  18.710   5.365   0.822
35756W        W 7372  25.258  23.221   0.455
35757W        W 7373  33.136  43.406  14.756
35758W        W 7374   3.020  21.981  12.902
35759W        W 7375   6.826   0.329   3.793
35760W        W 7376  37.559  24.108   2.852
35761W        W 7377  29.650  21.033   3.179
35762W        W 7378   4.467  43.756   3.334
35763W        W 7379  30.391  44.289   0.323
35764W        W 7380   1.926  42.509   1.180
35765W        W 7381   7.848  42.084  13.153
35766W        W 7382   1.403  42.355  12.025
35767W        W 7383   5.375  16.902   2.847
35768W        W 7384  40.543  12.317   0.924
35769W        W 7385  31.509  30.980   2.683
35770W        W 7386  40.264  30.696   3.623
35771W        W 7387  22.807   2.016   4.211
35772W        W 7388  29.910  28.873   1.291
35773W        W 7389  16.080  10.360  10.401
35774W        W 7390   7.172  16.569  13.413
35775W        W 7391  43.861  28.603   4.558
35776W        W 7392  11.887  23.358  13.550
35777W        W 7393  38.889  23.184   4.885
35778W        W 7394  26.908   1.831   1.648
35779W        W 7395   0.320  33.453  13.473
35780W        W 7396  20.779  30.099   4.529
35781W        W 7397   1.206  31.534   3.695
35782W        W 7398  40.248  30.702  11.545
35783W        W 7399  36.882   8.738  12.923
35784W        W 7400  24.704  42.085   2.766
35785W        W 7401   1.722  17.539   3.389
35786W        W 7402  44.038  13.395   3.686
35787W        W 7403  11.124  16.833   4.083
35788W        W 7404  16.257  21.702  12.610
35789W        W 7405  19.604   7.749  14.888
35790W        W 7406  30.144  23.069  12.990
35791W        W 7407   7.113  35.770   1.733
35792W        W 7408  39.318  44.628  11.495
35793W        W 7409  21.180  21.557   4.425
35794W        W 7410  24.585  38.479  11.978
35795W        W 7411  16.222  20.706  12.384
35796W        W 7412   5.390  43.967   4.989
35797W        W 7413   0.143   3.275   0.216
35798W        W 7414  34.958   1.813   3.213
35799W        W 7415  27.608   1.831  14.455
35800W        W 7416   9.931  35.946  11.092
35801W        W 7417  17.271  33.820   2.330
35802W        W 7418  16.318  37.040   0.438
35803W        W 7419  16.562  41.281  10.760
35804W        W 7420  39.972  18.308   0.426
35805W        W 7421   2.407  42.305  14.976
35806W        W 7422  17.135   3.461   1.384
35807W        W 7423  28.193  28.127  11.187
35808W        W 7424  27.602  19.802   3.304
35809W        W 7425  23.235  29.449   4.184
35810W        W 7426  25.572  40.138   2.463
35811W        W 7427  42.152  13.263  13.147
35812W        W 7428  30.430  23.726   3.112
35813W        W 7429  39.461  44.370   9.989
35814W        W 7430  13.848  23.040   1.218
35815W        W 7431  34.471  29.275   1.330
35816W        W 7432  14.868  24.507   2.083
35817W        W 7433   5.740   7.852   4.165
35818W        W 7434  12.352  13.503   4.509
35819W        W 7435  41.439   4.319  12.065
35820W        W 7436  32.170   1.595  10.206
35821W        W 7437   5.088  34.877  11.139
35822W        W 7438  43.532  11.708  11.189
35823W        W 7439  13.942  39.747  11.582
35824W        W 7440   7.137  39.407  11.506
35825W        W 7441  27.116  39.437   2.181
35826W        W 7442  11.951  39.120   5.080
35827W        W 7443  18.782   0.522  10.414
35828W        W 7444  29.964  33.498  12.001
35829W        W 7445   0.280   4.902  13.833
35830W        W 7446  39.675  30.363   2.552
35831W        W 7447  27.539   2.852  15.000
35832W        W 7448  19.587  42.173   2.366
35833W        W 7449  15.092  38.391  12.969
35834W        W 7450  10.324  10.669   3.071
35835W        W 7451  41.005  25.642   2.686
35836W        W 7452  23.803  39.938   3.745
35837W        W 7453   4.213  15.626  10.612
35838W        W 7454  33.099  15.300  13.036
35839W        W 7455  26.624  14.415  13.204
35840W        W 7456  11.610  28.168   3.098
35841W        W 7457   2.927  25.875   2.294
35842W        W 7458  29.359  44.484   1.789
35843W        W 7459  20.520  29.971   4.095
35844W        W 7460  10.408  43.988   1.441
35845W        W 7461  38.905  26.085  13.990
35846W        W 7462  35.593  36.098   2.544
35847W        W 7463   5.685  43.554  14.802
35848W        W 7464   3.964  41.956  13.605
35849W        W 7465   2.764  41.730  10.944
35850W        W 7466  28.642  36.446  13.757
35851W        W 7467  18.753  27.871   1.253
35852W        W 7468  20.857  14.807   3.615
35853W        W 7469  32.673  31.487   2.682
35854W        W 7470  29.423  25.505   3.221
35855W        W 7471  29.880  34.406   3.867
35856W        W 7472  43.309  28.492   0.981
35857W        W 7473  33.617  15.594   4.615
35858W        W 7474  43.436  43.465   0.274
35859W        W 7475  12.980   0.530   4.890
35860W        W 7476   1.376  22.067  13.593
35861W        W 7477  20.470  33.943  14.468
35862W        W 7478   8.590  14.715   2.708
35863W        W 7479  43.290  30.490  12.420
35864W        W 7480  11.709  30.642   1.632
35865W        W 7481   8.803  15.829  14.762
35866W        W 7482  33.294  40.473   1.184
35867W        W 7483  44.356  22.405  13.487
35868W        W 7484   0.996   6.286  12.598
35869W        W 7485   8.389  25.722   0.227
35870W        W 7486  31.489  25.515  14.555
35871W        W 7487  15.766  35.384  13.855
35872W        W 7488  41.042   0.004   3.150
35873W        W 7489  16.812  33.573   2.239
35874W        W 7490   4.963   0.545   9.782
35875W        W 7491  11.206  17.772  12.139
35876W        W 7492  26.722  25.174  11.936
35877W        W 7493  17.176  16.276  12.124
35878W        W 7494  25.265   5.116   2.721
35879W        W 7495  34.343  31.721  10.760
35880W        W 7496   4.869  38.947   3.260
35881W        W 7497  23.236  44.525  13.505
35882W        W 7498  15.704  10.687  10.597
35883W        W 7499  17.064  42.816  12.049
35884W        W 7500  36.376  21.075  10.364
35885W        W 7501  26.756  26.772   2.818
35886W        W 7502  23.559  24.083   0.371
35887W        W 7503  15.624   0.891  11.602
35888W        W 7504  20.050  26.205  13.358
35889W        W 7505  22.214   1.717  14.842
35890W        W 7506  12.392  12.803   0.010
35891W        W 7507  27.658  23.776   1.873
35892W        W 7508  18.151  14.279   5.041
35893W        W 7509  42.360  37.046   3.805
35894W        W 7510  19.859  19.110   2.426
35895W        W 7511  23.727   3.690   1.780
35896W        W 7512   0.746  36.070   4.477
35897W        W 7513  42.439  33.927  14.290
35898W        W 7514  11.744   6.977  14.107
35899W        W 7515  36.842  15.849  13.463
35900W        W 7516  29.025   6.960   0.524
35901W        W 7517  11.674   3.867   4.194
35902W        W 7518   9.866  32.585  12.918
35903W        W 7519  41.961  43.185  13.576
35904W        W 7520   8.030   7.449   2.782
35905W        W 7521  20.389  43.763   5.295
35906W        W 7522  10.738  24.220  11.314
35907W        W 7523  40.004   2.320  12.242
35908W        W 7524  30.473  22.124   4.132
35909W        W 7525  31.885   7.899  11.550
35910W        W 7526  23.842  10.282   2.343
35911W        W 7527  35.607  20.196  10.937
35912W        W 7528  27.421   5.325   1.430
35913W        W 7529  15.180  38.609   0.615
35914W        W 7530  23.643  17.511   4.569
35915W        W 7531  25.825  37.266  12.134
35916W        W 7532  36.790   8.506  10.645
35917W        W 7533  11.788  30.395  13.344
35918W        W 7534  42.402  26.223  13.376
35919W        W 7535  10.720   5.182   1.791
35920W        W 7536   9.881  21.246  11.111
35921W        W 7537  14.106  28.083   1.465
35922W        W 7538  24.843  37.501  10.009
35923W        W 7539  43.245  24.743  12.531
35924W        W 7540  42.040  43.538  14.940
35925W        W 7541   4.916  37.801   1.634
35926W        W 7542  26.879   8.747  11.020
35927W        W 7543  43.395   9.780   3.734
35928W        W 7544  19.365  43.549  11.008
35929W        W 7545  25.965  15.782   3.397
35930W        W 7546   2.747   8.930   2.208
35931W        W 7547  44.572  13.412   0.364
35932W        W 7548   2.946  25.634   4.108
35933W        W 7549   3.733  16.846   1.749
35934W        W 7550  27.762   5.925  10.552
35935W        W 7551  39.842   9.245  12.597
35936W        W 7552  10.761  41.584  14.032
35937W        W 7553  19.132  39.296  11.540
35938W        W 7554   5.470  29.560  13.232
35939W        W 7555   7.189  34.498   1.968
35940W        W 7556   3.228  24.919   4.467
35941W        W 7557  10.898  16.066   4.757
35942W        W 7558  24.475   0.504  12.920
35943W        W 7559  42.278  26.822   0.070
35944W        W 7560  22.694  17.062   3.555
35945W        W 7561  21.200  28.596  10.762
35946W        W 7562  10.095  44.902   2.290
35947W        W 7563   9.609  36.869  11.061
35948W        W 7564   9.316   1.415   2.971
35949W        W 7565  13.790  15.066  12.587
35950W        W 7566  19.947  16.567  14.391
35951W        W 7567  11.172  43.462   0.366
35952W        W 7568  14.096  36.610   2.145
35953W        W 7569  28.659  39.505   0.639
35954W        W 7570   4.709   5.400  13.902
35955W        W 7571  29.509  35.343  12.530
35956W        W 7572   0.674  22.838  12.567
35957W        W 7573   7.761  16.721   3.726
35958W        W 7574   4.969  25.635   1.777
35959W        W 7575  29.029  19.142  13.210
35960W        W 7576  32.652  39.815   4.312
35961W        W 7577  37.917  10.952   4.901
35962W        W 7578  36.130  39.860   3.696
35963W        W 7579  22.058  16.088  11.551
35964W        W 7580  17.055  30.182   3.697
35965W        W 7581  30.679  39.391  12.898
35966W        W 7582  41.927  38.048  12.394
35967W        W 7583  14.046   2.476   2.297
35968W        W 7584  44.498  41.330  13.656
35969W        W 7585   4.707  22.625   4.005
35970W        W 7586  35.568  18.184   0.290
35971W        W 7587  13.714  26.328  14.111
35972W        W 7588  22.509  23.157   4.571
35973W        W 7589  26.748  16.246   1.876
35974W        W 7590  26.017   2.147   2.489
35975W        W 7591  43.128  38.005   1.786
35976W        W 7592  40.586  33.096  13.362
35977W        W 7593  38.854  33.625   1.909
35978W        W 7594  15.106  44.333  10.650
35979W        W 7595  23.218  31.241  12.996
35980W        W 7596  24.129  14.640  11.010
35981W        W 7597  34.259   6.335  12.480
35982W        W 7598   8.755  32.336  12.432
35983W        W 7599  34.166   9.078   4.649
35984W        W 7600  36.390  14.519  10.360
35985W        W 7601  28.418   3.765   2.432
35986W        W 7602  18.041  34.098  14.011
35987W        W 7603  10.985   4.089  11.596
35988W        W 7604   0.464   5.918   2.302
35989W        W 7605  42.821  12.271  13.900
35990W        W 7606   9.652  40.077   3.750
35991W        W 7607  25.400  18.426  10.563
35992W        W 7608  37.670  43.602   0.819
35993W        W 7609  40.529   6.175   3.632
35994W        W 7610  40.304  34.204   3.544
35995W        W 7611  43.022  19.459  10.475
35996W        W 7612  27.286  20.301   0.866
35997W        W 7613   0.847  30.608   2.127
35998W        W 7614  42.490   6.258   1.975
35999W        W 7615  35.615  42.082  13.226
36000W        W 7616  37.911  27.060   0.455
36001W        W 7617  28.377  30.471   1.468
36002W        W 7618  13.421  31.601   2.331
36003W        W 7619  14.399  17.507   2.722
36004W        W 7620  16.436  22.147   0.175
36005W        W 7621  17.743  16.447   9.425
36006W        W 7622  20.522   0.622  14.940
36007W        W 7623  41.633  10.248  14.305
36008W        W 7624  16.211  37.513  12.992
36009W        W 7625  37.332  43.927  13.873
36010W        W 7626   1.779   3.146   4.046
36011W        W 7627  16.221  32.028   2.617
36012W        W 7628   4.564  22.601   1.428
36013W        W 7629  35.058  33.496  12.144
36014W        W 7630  14.936  10.227  14.544
36015W        W 7631  32.648  16.607   3.242
36016W        W 7632  15.046   0.973  13.655
36017W        W 7633  10.170  37.103   2.273
36018W        W 7634  11.231  42.850   2.693
36019W        W 7635  26.117  20.126   3.829
36020W        W 7636  19.671  13.464   5.116
36021W        W 7637   9.162  39.545  14.240
36022W        W 7638  17.214   2.514   4.597
36023W        W 7639  36.544  12.315   4.729
36024W        W 7640  24.487  29.400   4.347
36025W        W 7641   4.968  15.446   4.565
36026W        W 7642  32.524  32.104  12.479
36027W        W 7643  27.109   3.066   0.284
36028W        W 7644  43.342  19.212   4.040
36029W        W 7645  19.669   0.487   4.517
36030W        W 7646  16.367  28.413  12.432
36031W        W 7647  42.303  13.597   3.306
36032W        W 7648  42.439  12.682   2.975
36033W        W 7649  29.548  11.440  12.951
36034W        W 7650  41.222  38.505   0.647
36035W        W 7651  38.857  21.217  10.686
36036W        W 7652  20.929   0.097  11.563
36037W        W 7653  43.427  29.196   2.285
36038W        W 7654  27.219  30.451  14.466
36039W        W 7655  22.148  38.303   0.009
36040W        W 7656  24.446  32.521   2.298
36041W        W 7657  19.337  29.708  12.516
36042W        W 7658  12.710  28.619   1.451
36043W        W 7659  38.196  24.743  12.434
36044W        W 7660  22.839  14.226   1.665
36045W        W 7661  36.417  35.772  14.231
36046W        W 7662  34.459  12.142  12.916
36047W        W 7663  39.297  22.649   3.719
36048W        W 7664  41.029  38.432  12.577
36049W        W 7665  25.088   0.379   0.317
36050W        W 7666  17.052   8.423   0.379
36051W        W 7667   6.980  30.690  11.214
36052W        W 7668   8.000  32.875  13.375
36053W        W 7669   2.566  22.026   4.659
36054W        W 7670   2.241   6.612  14.834
36055W        W 7671  29.106  42.319   0.722
36056W        W 7672  42.420  15.133   0.961
36057W        W 7673  31.641  42.151  14.555
36058W        W 7674  22.083   5.690   2.207
36059W        W 7675  33.643  10.695   1.922
36060W        W 7676  40.502  24.713  11.172
36061W        W 7677  39.035   5.787  11.182
36062W        W 7678  44.467  11.647   0.845
36063W        W 7679   1.596  21.027  11.623
36064W        W 7680  14.089  16.577   0.693
36065W        W 7681  32.681  44.230   3.287
36066W        W 7682  13.168  25.241   2.897
36067W        W 7683  30.089  29.706   3.680
36068W        W 7684   0.864  32.412   1.248
36069W        W 7685  19.868  25.216   4.608
36070W        W 7686  43.892  29.139  10.873
36071W        W 7687  15.646  15.611  10.278
36072W        W 7688  36.350  11.259  14.855
36073W        W 7689  16.654  13.667   2.675
36074W        W 7690  30.410  37.391  11.152
36075W        W 7691   9.597  32.045   3.198
36076W        W 7692   4.903   3.035  12.512
36077W        W 7693  39.219  41.774  11.421
36078W        W 7694   1.465  43.969   2.124
36079W        W 7695  20.577  18.447  11.491
36080W        W 7696  38.348   3.895   1.366
36081W        W 7697  19.824  44.950   1.273
36082W        W 7698  34.090   5.194  12.957
36083W        W 7699  26.232  14.751  10.004
36084W        W 7700  39.941  20.532  13.888
36085W        W 7701   7.326  44.043   4.086
36086W        W 7702  18.702   2.792  10.678
36087W        W 7703  28.189  39.340  14.369
36088W        W 7704  32.104   9.118   4.672
36089W        W 7705   0.583  36.945   4.460
36090W        W 7706  20.931  44.208   1.821
36091W        W 7707   7.746   9.586  11.211
36092W        W 7708  15.646  12.912   3.791
36093W        W 7709  18.232  31.855  10.881
36094W        W 7710  28.744  20.205   4.198
36095W        W 7711  44.665  42.689   5.054
36096W        W 7712  12.780   9.349  13.336
36097W        W 7713  21.059  41.081  12.892
36098W        W 7714  29.898   8.292  11.545
36099W        W 7715  38.874  11.096  11.588
36100W        W 7716   5.833  42.848   3.230
36101W        W 7717  27.656  22.561  12.611
36102W        W 7718  37.026  26.009  14.527
36103W        W 7719  17.177  33.903  11.098
36104W        W 7720   4.687  24.736  13.916
36105W        W 7721   0.223  20.126  10.626
36106W        W 7722  42.740  26.193  12.947
36107W        W 7723  33.913  17.011   3.234
36108W        W 7724  22.810  10.749  14.896
36109W        W 7725  26.965   0.097  13.446
36110W        W 7726  31.497  39.447  10.747
36111W        W 7727  24.601  32.917  13.353
36112W        W 7728   0.005  39.439   4.143
36113W        W 7729  38.647   1.371   0.350
36114W        W 7730   6.827  13.746  11.419
36115W        W 7731  29.528  35.530  11.328
36116W        W 7732  26.229  20.019   2.322
36117W        W 7733  23.607  44.452  10.546
36118W        W 7734  36.201  20.650   2.801
36119W        W 7735  17.114  34.036  10.451
36120W        W 7736  36.104   1.756   1.799
36121W        W 7737   1.786  26.468   3.261
36122W        W 7738   1.364  26.710   0.392
36123W        W 7739   1.770  38.514  10.696
36124W        W 7740  24.113  18.248   3.492
36125W        W 7741  25.033  27.514   1.270
36126W        W 7742   9.410  34.652  12.467
36127W        W 7743   1.005   9.388   0.406
36128W        W 7744  19.724   8.831  12.355
36129W        W 7745  33.930  41.987   0.542
36130W        W 7746  20.602  28.189   2.736
36131W        W 7747  17.579   7.376  13.611
36132W        W 7748  44.739  28.587  12.464
36133W        W 7749  36.662   9.933   2.243
36134W        W 7750  38.410  40.199  10.641
36135W        W 7751  41.254  28.713  13.539
36136W        W 7752  13.836  13.345  13.458
36137W        W 7753  35.860  20.180  12.539
36138W        W 7754   7.328  18.069  10.961
36139W        W 7755   4.931  31.832   0.016
36140W        W 7756   0.978  37.200   4.165
36141W        W 7757   3.751  41.473   1.308
36142W        W 7758  29.993  37.802   1.853
36143W        W 7759  44.856  21.310  14.099
36144W        W 7760  33.895  38.778   2.835
36145W        W 7761  29.956  17.724  12.038
36146W        W 7762  36.804  20.111   1.312
36147W        W 7763  36.860  23.467  13.770
36148W        W 7764  22.153  38.708  10.005
36149W        W 7765  24.135  38.992  10.715
36150W        W 7766  22.907  36.228   0.948
36151W        W 7767  16.584  17.259   2.807
36152W        W 7768   9.724  13.365   2.901
36153W        W 7769   5.718  10.387  11.774
36154W        W 7770  15.235  25.229   0.196
36155W        W 7771  21.290  27.705  12.970
36156W        W 7772  28.232  41.335  11.551
36157W        W 7773  13.420  35.807   4.605
36158W        W 7774  26.195  14.181   0.705
36159W        W 7775  41.936  23.389   0.545
36160W        W 7776  25.543  25.717  10.875
36161W        W 7777  32.824  19.214  14.357
36162W        W 7778  29.233   6.406  13.769
36163W        W 7779  19.771  33.145   4.260
36164W        W 7780  34.459  24.980   3.500
36165W        W 7781  28.436  31.233   0.288
36166W        W 7782  38.926   1.626  12.681
36167W        W 7783  24.904  39.980  11.253
36168W        W 7784   0.785  25.225  14.726
36169W        W 7785   3.211  24.548  13.930
36170W        W 7786  40.019  11.314   2.108
36171W        W 7787   6.243  43.251  11.455
36172W        W 7788  33.461   0.569  12.381
36173W        W 7789   8.648  12.519  12.356
36174W        W 7790  37.112   8.358   4.598
36175W        W 7791  30.547  17.547   4.137
36176W        W 7792  11.168  29.185  12.207
36177W        W 7793  37.446  18.066   0.947
36178W        W 7794  14.735   4.083   9.836
36179W        W 7795  43.329  27.412   1.265
36180W        W 7796  23.214  34.564  11.681
36181W        W 7797  24.830  25.495   1.340
36182W        W 7798  23.054  39.513   0.906
36183W        W 7799  39.857  30.160  13.629
36184W        W 7800  26.104  37.843   4.862
36185W        W 7801  28.946  24.224   2.648
36186W        W 7802  35.706  44.936   1.827
36187W        W 7803   4.314  11.714  14.285
36188W        W 7804  37.910   5.452  13.770
36189W        W 7805  23.009  24.755  14.441
36190W        W 7806  43.815   5.131   1.222
36191W        W 7807  24.920   0.214  12.939
36192W        W 7808   9.717  44.437   4.411
36193W        W 7809  26.417  24.109   2.595
36194W        W 7810  26.098  12.821   0.501
36195W        W 7811  35.706  33.569  14.539
36196W        W 7812  39.245  17.845   2.143
36197W        W 7813  15.521  22.047  11.118
36198W        W 7814  11.576  32.439  13.411
36199W        W 7815  24.809   5.776  10.609
36200W        W 7816   5.162   1.712  12.649
36201W        W 7817  15.013  24.837  13.898
36202W        W 7818  30.454  37.778   2.618
36203W        W 7819  27.665  13.382  13.563
36204W        W 7820  29.696  35.170  12.071
36205W        W 7821  16.467  29.581   2.771
36206W        W 7822   4.752   8.657  14.939
36207W        W 7823  21.202   1.954  14.734
36208W        W 7824   0.996  32.897   4.108
36209W        W 7825   2.083  44.948   4.927
36210W        W 7826  20.681  21.724  12.463
36211W        W 7827  10.709   1.323   4.811
36212W        W 7828  37.763  21.087   1.403
36213W        W 7829  17.640  36.712   0.381
36214W        W 7830  44.918  22.955  14.849
36215W        W 7831  40.273  18.775   2.726
36216W        W 7832   2.829  33.164   2.210
36217W        W 7833   9.534  19.583  12.223
36218W        W 7834  43.783  17.314  13.299
36219W        W 7835   5.239  26.913  10.513
36220W        W 7836  11.235  20.159   2.178
36221W        W 7837  20.498  25.064   1.775
36222W        W 7838  32.602  34.562   0.780
36223W        W 7839  34.458  31.913   0.962
36224W        W 7840  41.269  34.204   1.482
36225W        W 7841   6.753  14.070   1.606
36226W        W 7842  23.155  12.156  13.017
36227W        W 7843  23.191   1.710   4.687
36228W        W 7844   2.361   6.670  12.964
36229W        W 7845   4.693  20.245  10.641
36230W        W 7846  13.548  16.616  13.433
36231W        W 7847  31.548   2.466  13.561
36232W        W 7848   8.724   6.262   4.295
36233W        W 7849  14.224  39.484   2.225
36234W        W 7850  25.702   8.355  10.598
36235W        W 7851  35.402  19.002  12.432
36236W        W 7852  28.080  23.989   3.137
36237W        W 7853  34.394  30.870   2.334
36238W        W 7854   2.203   4.571  13.423
36239W        W 7855  25.623  11.491  14.289
36240W        W 7856  35.324  41.551   1.649
36241W        W 7857  11.826   6.327  12.294
36242W        W 7858  14.616   3.313  14.104
36243W        W 7859  10.629  39.240   3.283
36244W        W 7860  14.135  19.968  11.035
36245W        W 7861   1.593  44.366   5.535
36246W        W 7862  42.170   7.575   1.435
36247W        W 7863   3.833  18.085   0.989
36248W        W 7864  43.967  24.377   2.756
36249W        W 7865  28.181  13.114  12.352
36250W        W 7866  27.431  13.628   1.214
36251W        W 7867  19.197   2.987   3.751
36252W        W 7868   9.159  20.740  10.323
36253W        W 7869   6.353  39.461   3.340
36254W        W 7870   8.933   3.594   0.840
36255W        W 7871   6.050  28.441   4.066
36256W        W 7872   3.162  44.293   2.379
36257W        W 7873  32.916  19.181  13.019
36258W        W 7874  23.934  42.399  12.941
36259W        W 7875   6.446  17.235  14.975
36260W        W 7876  14.908  43.296  12.986
36261W        W 7877   3.732  14.851   1.354
36262W        W 7878  34.466  24.400   2.263
36263W        W 7879  35.836  28.834  11.118
36264W        W 7880  30.578  18.685   2.643
36265W        W 7881  31.578   8.740  10.647
36266W        W 7882  38.227  40.753   4.216
36267W        W 7883  25.922  14.843  11.346
36268W        W 7884  36.005  42.774   1.737
36269W        W 7885  35.365  10.724  13.314
36270W        W 7886  37.252  44.908   1.605
36271W        W 7887  19.395   3.897   3.881
36272W        W 7888  30.800  28.326   4.750
36273W        W 7889  15.570  11.535  14.739
36274W        W 7890  26.497   9.705   2.366
36275W        W 7891  11.203  33.526   3.833
36276W        W 7892  43.850  43.846   0.771
36277W        W 7893  44.505  28.021  14.401
36278W        W 7894  14.930   7.395  14.807
36279W        W 7895  44.318  34.057  11.029
36280W        W 7896  15.654  36.388   1.413
36281W        W 7897  10.656  17.326   2.543
36282W        W 7898  42.320  12.200   3.144
36283W        W 7899  18.701   2.326  12.888
36284W        W 7900  13.309  29.450   4.174
36285W        W 7901   2.793  16.259   2.223
36286W        W 7902   7.349   5.924   3.846
36287W        W 7903  31.565  12.673   0.400
36288W        W 7904  27.637  11.825  13.388
36289W        W 7905  32.382   0.701   1.730
36290W        W 7906  14.165  20.580  11.550
36291W        W 7907   4.029   0.850   4.200
36292W        W 7908  41.737   0.995   0.780
36293W        W 7909  25.693   9.300   2.677
36294W        W 7910  39.587   6.017   4.141
36295W        W 7911  15.422  23.011  14.006
36296W        W 7912  18.304  16.950   4.798
36297W        W 7913  20.576  18.159   2.740
36298W        W 7914  19.279  24.218   2.503
36299W        W 7915   8.888  25.972   4.089
36300W        W 7916  21.740  38.427   0.290
36301W        W 7917  14.225   5.794   1.301
36302W        W 7918  20.729  44.170   0.852
36303W        W 7919  44.075   9.611  12.902
36304W        W 7920  19.205  23.518  12.583
36305W        W 7921  31.259   0.988   3.365
36306W        W 7922  18.607  32.100   1.927
36307W        W 7923  30.185  27.386   2.266
36308W        W 7924  17.205   0.675   1.461
36309W        W 7925   1.604   7.847  12.446
36310W        W 7926  17.514   0.255   3.704
36311W        W 7927  43.873  25.761  13.135
36312W        W 7928  16.607  33.620   1.768
36313W        W 7929  28.881  42.871  11.574
36314W        W 7930  42.813   8.905  12.467
36315W        W 7931  43.378  30.928   4.451
36316W        W 7932  30.824  25.907  13.916
36317W        W 7933  30.222  11.129  10.615
36318W        W 7934  24.198  44.811  11.883
36319W        W 7935  30.737   1.856   2.170
36320W        W 7936  22.568   5.247   4.151
36321W        W 7937   2.457   4.182   2.387
36322W        W 7938  43.114  13.927  14.426
36323W        W 7939  36.077  38.310   2.891
36324W        W 7940   8.850  37.741   2.974
36325W        W 7941   4.838  37.008  11.084
36326W        W 7942   9.783  17.538   3.302
36327W        W 7943  22.942  20.500   4.709
36328W        W 7944  15.820  26.986   3.798
36329W        W 7945  38.779  30.843  14.832
36330W        W 7946  26.167  35.094  11.126
36331W        W 7947   8.199  37.915   3.605
36332W        W 7948  18.676  43.840  13.359
36333W        W 7949  26.203  42.946  10.902
36334W        W 7950   0.340  23.018   0.819
36335W        W 7951   9.678  26.797   2.446
36336W        W 7952  22.231   9.230   2.340
36337W        W 7953  27.274  40.845  13.809
36338W        W 7954  17.152  19.511   3.332
36339W        W 7955  29.819  34.855  11.666
36340W        W 7956  20.219   6.839  11.751
36341W        W 7957  13.775  16.529  10.355
36342W        W 7958  13.843   3.171   2.771
36343W        W 7959  41.650  42.357   3.210
36344W        W 7960  14.355  31.061   4.403
36345W        W 7961  38.502   5.730  10.423
36346W        W 7962  41.116  37.597   1.659
36347W        W 7963  12.394  14.196  14.327
36348W        W 7964  43.920  19.474   1.442
36349W        W 7965  19.185   1.009  11.504
36350W        W 7966  35.353  38.081   4.182
36351W        W 7967  31.085  29.148   3.814
36352W        W 7968  23.263  15.669   1.478
36353W        W 7969  20.110  16.477  10.423
36354W        W 7970  12.195  36.934   0.075
36355W        W 7971  29.886  24.653  13.818
36356W        W 7972   6.859  30.141   0.368
36357W        W 7973  25.467  35.915   4.074
36358W        W 7974  26.659  10.101  14.555
36359W        W 7975   5.899  24.716  11.026
36360W        W 7976  12.800  26.687  10.946
36361W        W 7977  42.953  19.414  12.954
36362W        W 7978  34.537  18.132  14.861
36363W        W 7979  19.347   8.480  13.341
36364W        W 7980  11.872  25.051   3.629
36365W        W 7981  41.832  31.595   2.772
36366W        W 7982  22.221  36.523   1.447
36367W        W 7983  39.420  13.292   0.439
36368W        W 7984   3.226   2.249  10.423
36369W        W 7985  23.547  43.016   0.421
36370W        W 7986  43.304  38.002  14.618
36371W        W 7987  24.956   1.621  14.515
36372W        W 7988  30.504  35.987  13.456
36373W        W 7989  10.356   6.792   2.846
36374W        W 7990  22.149  25.998  13.084
36375W        W 7991  15.641  25.472   2.612
36376W        W 7992  44.453  16.738   1.727
36377W        W 7993   4.860  23.072  11.936
36378W        W 7994  25.166  22.743  12.423
36379W        W 7995  38.120   1.913  14.538
36380W        W 7996  18.118  33.170   1.890
36381W        W 7997   2.714  29.151   4.538
36382W        W 7998   5.298  31.446  14.372
36383W        W 7999  36.271  39.979  12.579
36384W        W 8000  20.206  30.489   1.230
36385W        W 8001   7.947  25.076  12.937
36386W        W 8002  44.897   5.723   0.943
36387W        W 8003   9.198   3.892  14.546
36388W        W 8004  37.113  14.342   4.613
36389W        W 8005  27.623  26.362   2.201
36390W        W 8006  32.962   3.720  10.994
36391W        W 8007   1.390  27.739   1.674
36392W        W 8008  23.063  25.512   0.997
36393W        W 8009  21.295  13.204  12.009
36394W        W 8010  24.864   6.753  14.527
36395W        W 8011   9.725   8.766   1.249
36396W        W 8012  26.715  13.081  13.402
36397W        W 8013  12.669   1.190   0.787
36398W        W 8014   9.619  15.984  11.860
36399W        W 8015   7.224  32.837  13.921
36400W        W 8016  21.712  18.654   2.196
36401W        W 8017  24.024  43.465   3.398
36402W        W 8018  24.956  10.652  13.933
36403W        W 8019   5.722  21.357  12.868
36404W        W 8020  25.166  14.357  10.673
36405W        W 8021  43.083  20.201   4.348
36406W        W 8022  20.190  41.028   3.592
36407W        W 8023  34.913   7.315   4.590
36408W        W 8024  30.821  14.025  12.537
36409W        W 8025  18.450  23.917  12.593
36410W        W 8026  39.908  24.261   2.723
36411W        W 8027   3.190  26.144   4.147
36412W        W 8028   1.276  16.895  11.577
36413W        W 8029  32.505  23.526  14.290
36414W        W 8030  19.153   5.832   2.686
36415W        W 8031  18.698  26.077  12.825
36416W        W 8032   6.231  14.145   3.373
36417W        W 8033  25.156   2.245   3.423
36418W        W 8034   9.720  41.546  13.611
36419W        W 8035  44.486  26.105  14.808
36420W        W 8036  12.142  43.836   4.848
36421W        W 8037  36.039  34.834  13.537
36422W        W 8038  34.978  10.690  12.109
36423W        W 8039  23.573  29.071  10.678
36424W        W 8040  18.748  10.881   0.364
36425W        W 8041  38.777  17.224   1.302
36426W        W 8042   9.802  18.686   4.593
36427W        W 8043   7.041  29.190   1.824
36428W        W 8044  19.184  23.755   2.314
36429W        W 8045   1.915  36.030   0.157
36430W        W 8046  28.559  38.011   3.493
36431W        W 8047   2.517   6.394   3.271
36432W        W 8048  28.980   1.124  14.335
36433W        W 8049  26.177  37.263  12.554
36434W        W 8050  40.568  24.944   9.938
36435W        W 8051  30.608  13.850   0.370
36436W        W 8052  23.295  28.639  10.771
36437W        W 8053   1.669  43.227  12.081
36438W        W 8054  26.628   9.507   0.268
36439W        W 8055  14.335  43.034  12.070
36440W        W 8056   6.906   4.724  13.492
36441W        W 8057  21.577   6.093   0.995
36442W        W 8058  37.283  25.570   3.881
36443W        W 8059  36.606  36.276  10.652
36444W        W 8060  21.006  23.767  13.481
36445W        W 8061  23.975   8.921  10.183
36446W        W 8062  34.589  27.368   2.196
36447W        W 8063  22.060  10.757  13.716
36448W        W 8064  36.374  15.649   0.684
36449W        W 8065  22.549  28.361   3.231
36450W        W 8066   4.967   9.777   2.661
36451W        W 8067  44.937   9.238  12.935
36452W        W 8068  34.409  19.972   2.718
36453W        W 8069  41.490  44.649  10.741
36454W        W 8070   0.348  16.400  12.646
36455W        W 8071  22.078  21.503  13.835
36456W        W 8072  15.975   3.977  11.033
36457W        W 8073   9.445  39.033  11.021
36458W        W 8074  26.102  14.380   5.472
36459W        W 8075  37.616  12.813  11.306
36460W        W 8076  29.439  15.539  12.472
36461W        W 8077   4.318  40.749  11.127
36462W        W 8078  19.712  39.818   3.855
36463W        W 8079   1.268  29.524   3.148
36464W        W 8080  15.146  19.284  13.420
36465W        W 8081  34.343   9.299   0.892
36466W        W 8082  37.107  19.817   3.272
36467W        W 8083  27.251  43.061   4.296
36468W        W 8084  13.123  24.173   4.590
36469W        W 8085  28.737  13.104  14.047
36470W        W 8086  38.322  16.339   0.471
36471W        W 8087  11.710  13.566   4.229
36472W        W 8088  41.630   0.513   0.944
36473W        W 8089   9.836  27.311  12.828
36474W        W 8090  10.921   1.712   2.712
36475W        W 8091  26.354  21.186  11.425
36476W        W 8092   3.214   8.742   0.285
36477W        W 8093   6.476  16.182   1.780
36478W        W 8094  28.056  21.853   4.834
36479W        W 8095  18.525   2.578  11.993
36480W        W 8096  23.520   9.386   1.396
36481W        W 8097  16.016  24.344   4.116
36482W        W 8098  24.495  38.368   1.784
36483W        W 8099  16.157  12.761   3.664
36484W        W 8100   0.751   3.173  12.017
36485W        W 8101  11.267  25.783  14.797
36486W        W 8102  23.459   3.160   3.679
36487W        W 8103  23.050  33.159  12.308
36488W        W 8104  39.976  35.429   2.897
36489W        W 8105   2.797  30.062  12.711
36490W        W 8106   2.848  37.985  13.050
36491W        W 8107  18.137   8.431  12.997
36492W        W 8108  23.786  26.241  14.972
36493W        W 8109  17.480  22.153   0.422
36494W        W 8110  16.627   8.937  14.557
36495W        W 8111  30.820   5.296  13.627
36496W        W 8112  40.832  26.496   0.331
36497W        W 8113  38.949  19.833  10.449
36498W        W 8114  38.047  23.046  12.022
36499W        W 8115   2.758   0.346   1.841
36500W        W 8116   6.382  28.194   0.756
36501W        W 8117  24.718  36.491   4.922
36502W        W 8118  31.426  11.765  13.026
36503W        W 8119  31.405  21.046   0.284
36504W        W 8120  41.742  26.518   2.131
36505W        W 8121  27.676   7.263   2.767
36506W        W 8122  23.339  21.489  11.929
36507W        W 8123  31.112  29.560   2.787
36508W        W 8124  20.722  38.490  13.083
36509W        W 8125   7.363  23.725   0.425
36510W        W 8126  21.234  13.781   2.858
36511W        W 8127   3.153  14.366   0.148
36512W        W 8128  42.910  41.716   2.663
36513W        W 8129  24.785  26.964   3.749
36514W        W 8130  16.795  35.576  11.719
36515W        W 8131  33.745  39.821  11.883
36516W        W 8132  15.577   9.046   4.953
36517W        W 8133  33.559  29.483  13.510
36518W        W 8134  35.617  22.645  12.850
36519W        W 8135   6.696  18.039   2.276
36520W        W 8136  37.029  27.895  12.401
36521W        W 8137  38.287  32.391   4.224
36522W        W 8138  10.912  13.977   3.705
36523W        W 8139   7.286   6.515   2.417
36524W        W 8140  17.369   2.911   4.249
36525W        W 8141  42.455   2.756  13.006
36526W        W 8142  29.274  36.606   3.368
36527W        W 8143   2.408  43.227   0.167
36528W        W 8144  17.315  39.149   1.189
36529W        W 8145   7.435  33.070   0.256
36530W        W 8146  11.375  30.230   1.502
36531W        W 8147  17.044  37.568   1.862
36532W        W 8148  39.601  27.719  13.453
36533W        W 8149  24.349  24.113  11.057
36534W        W 8150   1.487  22.657   4.471
36535W        W 8151   8.190  12.296  11.955
36536W        W 8152  36.564  25.250  10.881
36537W        W 8153  19.220  32.384  13.351
36538W        W 8154  30.569  39.241  11.325
36539W        W 8155  35.353  28.080   2.748
36540W        W 8156  37.299  28.576   4.229
36541W        W 8157   3.346  12.528  13.058
36542W        W 8158  36.393   5.142  10.500
36543W        W 8159  40.262   0.109  11.919
36544W        W 8160   6.777  23.073  12.609
36545W        W 8161  35.399  18.143  12.295
36546W        W 8162   4.496  33.170   0.601
36547W        W 8163  28.350  39.500  13.873
36548W        W 8164  31.155  38.325   1.657
36549W        W 8165   9.667  30.369   1.629
36550W        W 8166  33.646   5.011  12.455
36551W        W 8167   6.122  12.983  10.266
36552W        W 8168   8.315   7.402  11.149
36553W        W 8169  17.043   5.647   2.819
36554W        W 8170  19.765  24.779  13.187
36555W        W 8171  29.547  37.519   1.942
36556W        W 8172  37.662  21.130   3.248
36557W        W 8173  44.092  16.755   0.932
36558W        W 8174  24.955  22.977   0.796
36559W        W 8175  35.505  41.913   1.977
36560W        W 8176  21.574  15.643   2.480
36561W        W 8177  38.997  41.284  11.339
36562W        W 8178   9.266  36.041   3.110
36563W        W 8179  32.605  20.719   1.030
36564W        W 8180   0.496   0.458  11.347
36565W        W 8181  43.691   5.900  12.008
36566W        W 8182  39.931   8.941  13.426
36567W        W 8183  40.795   3.984   3.293
36568W        W 8184  39.533  32.617   1.398
36569W        W 8185  33.912  32.600   0.855
36570W        W 8186  40.757  38.983   1.963
36571W        W 8187   0.651  38.795   4.281
36572W        W 8188  40.487  14.463  13.388
36573W        W 8189  39.262  37.345  14.808
36574W        W 8190  12.853  19.452   0.754
36575W        W 8191  36.908   6.759   4.330
36576W        W 8192  16.539  26.010   3.342
36577W        W 8193  23.361  26.388   0.259
36578W        W 8194  23.511   7.828   1.344
36579W        W 8195   3.079  24.192  10.689
36580W        W 8196  30.962  33.239  13.113
36581W        W 8197   6.186   4.379  14.892
36582W        W 8198  24.594  23.086   1.171
36583W        W 8199  15.993  43.437  13.489
36584W        W 8200  20.371  31.578  10.782
36585W        W 8201  37.465  21.510   3.960
36586W        W 8202  40.271  10.691   2.721
36587W        W 8203  10.323  16.892  11.701
36588W        W 8204  26.035  11.845   2.403
36589W        W 8205  26.131  39.885  11.536
36590W        W 8206  22.546  34.471   3.318
36591W        W 8207   3.211  18.026  10.682
36592W        W 8208  32.196  42.058  11.601
36593W        W 8209  24.700  40.611   2.748
36594W        W 8210  17.265   7.310   0.758
36595W        W 8211  43.750  28.720  13.998
36596W        W 8212  41.919  39.553  11.568
36597W        W 8213  36.001  44.586   3.640
36598W        W 8214   0.271  20.333  11.519
36599W        W 8215  28.950  16.305  10.528
36600W        W 8216  19.725   1.753  10.752
36601W        W 8217  21.091  19.474  11.874
36602W        W 8218  17.813  29.006  11.920
36603W        W 8219  32.131   0.441   3.186
36604W        W 8220  28.655   8.170   1.348
36605W        W 8221  12.212  44.178  13.106
36606W        W 8222  13.150   6.321  14.831
36607W        W 8223  13.759  23.581  11.663
36608W        W 8224  40.045  32.004   2.096
36609W        W 8225  20.651  12.131  12.376
36610W        W 8226  30.682  40.715   2.168
36611W        W 8227  32.861   7.202  11.897
36612W        W 8228  31.223  41.070   0.936
36613W        W 8229  39.453  42.974  14.501
36614W        W 8230  21.492  19.275   0.747
36615W        W 8231  21.278  35.926   3.580
36616W        W 8232  24.008  27.852   5.144
36617W        W 8233  35.792  39.357  11.508
36618W        W 8234  21.694  31.280   4.902
36619W        W 8235   8.657  18.058  11.631
36620W        W 8236   4.685  24.020   0.256
36621W        W 8237  36.492  16.519   0.013
36622W        W 8238  34.175  31.982  12.458
36623W        W 8239  28.047  36.062  13.538
36624W        W 8240   8.296  38.678   0.502
36625W        W 8241  38.369  43.346   1.422
36626W        W 8242  10.738   7.372  11.560
36627W        W 8243  31.912   7.723   4.545
36628W        W 8244   8.614  31.687  14.469
36629W        W 8245  33.438  11.160   2.740
36630W        W 8246  12.426  42.806   4.644
36631W        W 8247  13.354  24.211  13.943
36632W        W 8248  15.356  33.055   2.181
36633W        W 8249  37.128   1.840  13.155
36634W        W 8250  23.025  44.406   3.104
36635W        W 8251   6.846  28.047   4.638
36636W        W 8252  34.920  34.975  12.501
36637W        W 8253  16.624   4.470  11.169
36638W        W 8254   0.437   2.796  14.581
36639W        W 8255   6.233  31.425   0.310
36640W        W 8256  41.475  26.453  14.716
36641W        W 8257  31.359  12.278   1.198
36642W        W 8258  41.694  21.997   0.202
36643W        W 8259  27.558   8.853   1.863
36644W        W 8260  15.710   7.388   4.413
36645W        W 8261  19.568  14.233  14.905
36646W        W 8262  30.675  13.868   1.269
36647W        W 8263  33.465   2.227  12.979
36648W        W 8264  17.086  40.491   3.800
36649W        W 8265  10.555   4.252   4.692
36650W        W 8266  43.908  17.773  13.524
36651W        W 8267  31.399   9.774   2.409
36652W        W 8268  24.099   1.234  14.700
36653W        W 8269  26.182  26.566  11.430
36654W        W 8270  31.639  37.357   1.844
36655W        W 8271  19.864   4.447  13.438
36656W        W 8272   5.166  12.917   1.820
36657W        W 8273  40.304  43.448   0.001
36658W        W 8274  25.227   7.962   2.735
36659W        W 8275  42.351  38.737   1.613
36660W        W 8276  19.230  18.036   1.650
36661W        W 8277  40.091  32.095   1.178
36662W        W 8278  41.487  10.621  12.312
36663W        W 8279  38.468  14.042  13.415
36664W        W 8280  44.033   9.070   1.289
36665W        W 8281  11.491  16.483   4.828
36666W        W 8282  31.402  16.032  12.495
36667W        W 8283  11.141   7.852  13.973
36668W        W 8284  34.012  17.130   1.654
36669W        W 8285  36.619  13.225   0.972
36670W        W 8286  18.956  26.485   0.184
36671W        W 8287  36.566   9.504  11.917
36672W        W 8288  43.297  31.000  10.603
36673W        W 8289  40.709  37.441   4.072
36674W        W 8290  32.518  28.337   1.392
36675W        W 8291  19.097   7.225  12.455
36676W        W 8292  10.557  28.727   4.516
36677W        W 8293  15.141   2.244   1.652
36678W        W 8294  19.650  24.592  11.506
36679W        W 8295   1.780  24.766   0.614
36680W        W 8296  19.118  44.687   2.221
36681W        W 8297   4.519   0.052  12.036
36682W        W 8298  16.531  21.258   0.869
36683W        W 8299   9.254  18.251   0.470
36684W        W 8300  20.658   3.408  14.450
36685W        W 8301  21.282  15.399   1.824
36686W        W 8302  36.688  16.094   2.738
36687W        W 8303  44.812  26.182   4.491
36688W        W 8304  17.881  35.152   1.733
36689W        W 8305  34.012  20.246  12.946
36690W        W 8306  43.370  15.126  14.792
36691W        W 8307  21.726   0.491  14.237
36692W        W 8308  10.487   0.969  13.443
36693W        W 8309  44.270  32.972   1.210
36694W        W 8310  19.661  28.506   4.566
36695W        W 8311  10.410  44.586   3.186
36696W        W 8312   4.308  41.849   2.419
36697W        W 8313  22.162  29.272   3.647
36698W        W 8314  16.315  44.213   1.251
36699W        W 8315  40.501  12.758   4.148
36700W        W 8316  20.708   9.608   2.509
36701W        W 8317  40.888  44.360   3.623
36702W        W 8318  17.352  22.694   1.019
36703W        W 8319  15.770  23.897   1.393
36704W        W 8320  11.791  13.315  13.637
36705W        W 8321   7.256  19.865  11.052
36706W        W 8322  22.883  26.699   4.072
36707W        W 8323  12.586  18.024  12.278
36708W        W 8324  34.537  34.607  12.559
36709W        W 8325   4.440   1.262  12.871
36710W        W 8326  21.626  24.265   1.250
36711W        W 8327  37.306  29.021  11.553
36712W        W 8328  37.914  32.535  14.566
36713W        W 8329  28.124   3.084  14.963
36714W        W 8330   3.788  14.778   2.727
36715W        W 8331  31.617  13.772   0.363
36716W        W 8332   7.708  43.750  10.647
36717W        W 8333  36.444  30.064   0.505
36718W        W 8334  35.641  37.866   0.392
36719W        W 8335  33.538  19.000   2.824
36720W        W 8336  40.984   8.299   3.575
36721W        W 8337  12.610  35.560   4.801
36722W        W 8338  26.053  14.514   2.919
36723W        W 8339  21.270  15.463  14.989
36724W        W 8340  29.381  37.904   4.113
36725W        W 8341  33.827  22.121   0.144
36726W        W 8342  22.170  29.113  13.370
36727W        W 8343  10.670  36.852  14.810
36728W        W 8344  38.566  19.239   4.200
36729W        W 8345  31.162   1.610   5.507
36730W        W 8346   6.967  41.391   4.211
36731W        W 8347  19.498  19.301   0.966
36732W        W 8348  25.992   3.795   4.971
36733W        W 8349  33.033  10.957  13.362
36734W        W 8350  17.778  40.006   4.351
36735W        W 8351   4.396  31.673  14.979
36736W        W 8352   0.869  19.825  12.924
36737W        W 8353  43.065  19.597  14.839
36738W        W 8354  39.485   5.202  14.766
36739W        W 8355  22.755  13.798  13.622
36740W        W 8356  39.811  36.317  12.449
36741W        W 8357   7.970  24.540   1.363
36742W        W 8358  21.529  21.092  13.231
36743W        W 8359  23.345  19.674  14.202
36744W        W 8360  39.998   3.165   2.137
36745W        W 8361   5.457  16.814  14.893
36746W        W 8362  35.253  44.962  14.830
36747W        W 8363  31.408  17.937   0.448
36748W        W 8364  34.522  38.440  14.892
36749W        W 8365   9.677  27.103  11.980
36750W        W 8366  18.189  30.643   4.767
36751W        W 8367  27.231  21.184   1.729
36752W        W 8368  36.311  19.264   0.401
36753W        W 8369  26.082  31.406  13.971
36754W        W 8370  35.087   1.090   3.823
36755W        W 8371  25.466   3.698   2.735
36756W        W 8372   3.382  22.978  10.438
36757W        W 8373  27.171  37.434  12.571
36758W        W 8374  37.080  38.179   0.312
36759W        W 8375  41.613  16.377   4.169
36760W        W 8376  16.795   0.342  10.926
36761W        W 8377  38.498  17.637   0.897
36762W        W 8378  35.079   0.331  10.450
36763W        W 8379  36.802   2.288   1.800
36764W        W 8380   3.882   6.310   1.279
36765W        W 8381  42.266  10.673  11.681
36766W        W 8382  38.237  17.749   2.359
36767W        W 8383  25.516   9.586  13.556
36768W        W 8384  33.374  40.592  10.660
36769W        W 8385  25.522  20.692   4.727
36770W        W 8386  23.490  12.353  11.455
36771W        W 8387  10.482  11.299   1.656
36772W        W 8388   5.954   8.753  13.941
36773W        W 8389  19.643  32.913  14.408
36774W        W 8390  42.247  12.164   0.343
36775W        W 8391  11.997  14.038   5.102
36776W        W 8392   0.461  36.893   2.685
36777W        W 8393  42.136  13.536  11.254
36778W        W 8394   1.226  26.044  12.795
36779W        W 8395  13.274  16.684   2.683
36780W        W 8396  29.983  36.922  11.837
36781W        W 8397  24.052  12.153   2.277
36782W        W 8398  12.713  20.411   1.167
36783W        W 8399  42.752  41.616  13.755
36784W        W 8400  34.616  35.053   2.156
36785W        W 8401  23.299  12.249  13.940
36786W        W 8402  14.774  41.880   1.400
36787W        W 8403  12.860  17.105   1.927
36788W        W 8404  33.383  28.165   4.509
36789W        W 8405  35.034   6.266   0.415
36790W        W 8406  23.547   1.776  12.953
36791W        W 8407  35.694  40.080   1.238
36792W        W 8408  38.810   7.165  11.854
36793W        W 8409  20.201  37.616   3.335
36794W        W 8410  35.206  36.524  11.180
36795W        W 8411  34.865   7.727  12.235
36796W        W 8412  17.202  28.252   1.432
36797W        W 8413  16.814  42.077   1.743
36798W        W 8414  42.055  23.900  11.657
36799W        W 8415   1.517  13.784   1.191
36800W        W 8416  37.397  16.265  11.624
36801W        W 8417  12.831   9.954   0.542
36802W        W 8418  14.117  38.080   3.384
36803W        W 8419   3.870  16.696   2.640
36804W        W 8420   4.171  36.814  12.629
36805W        W 8421   0.509  43.626  11.686
36806W        W 8422  40.237  42.839  11.940
36807W        W 8423   0.817  41.985  14.957
36808W        W 8424  32.221  20.945   5.090
36809W        W 8425  41.704  13.864  13.491
36810W        W 8426  13.129  20.850  10.639
36811W        W 8427  28.812  23.410   3.916
36812W        W 8428   2.267  10.443  11.958
36813W        W 8429  29.976  43.993  14.233
36814W        W 8430  40.346  17.264   1.795
36815W        W 8431  41.996  31.130  11.300
36816W        W 8432  36.475  38.514   4.691
36817W        W 8433   7.346  14.093   0.833
36818W        W 8434   8.939  14.328   2.690
36819W        W 8435   4.983   0.254   2.018
36820W        W 8436  11.619  35.578  10.217
36821W        W 8437  28.569  42.683   0.505
36822W        W 8438  32.568  10.147  13.553
36823W        W 8439   4.305  13.335   3.204
36824W        W 8440  20.195  21.838   0.570
36825W        W 8441   3.697   3.326   3.880
36826W        W 8442  35.996  24.319  12.025
36827W        W 8443  18.233  16.414  11.047
36828W        W 8444  11.682  13.243   1.923
36829W        W 8445   6.301  28.602  13.399
36830W        W 8446  31.230   8.785  12.409
36831W        W 8447  43.836  17.538  12.019
36832W        W 8448   5.364  44.117  13.861
36833W        W 8449  15.816  11.324   2.266
36834W        W 8450  33.473  16.164  14.893
36835W        W 8451  31.053  42.919  13.829
36836W        W 8452  20.199   3.505  13.844
36837W        W 8453  30.064  11.874   3.273
36838W        W 8454  23.213  10.363   1.655
36839W        W 8455  25.383  40.017  14.126
36840W        W 8456  32.455  38.915   0.077
36841W        W 8457  29.682  28.862   2.632
36842W        W 8458  28.052   1.897   2.638
36843W        W 8459  16.626  16.656  12.533
36844W        W 8460   6.211  43.320  12.904
36845W        W 8461  12.863  17.164   4.632
36846W        W 8462  28.958  10.191   2.781
36847W        W 8463  19.726  38.723   2.649
36848W        W 8464  21.628   4.676  11.285
36849W        W 8465  12.606  31.008  10.670
36850W        W 8466  36.063  39.750  12.186
36851W        W 8467  10.127   8.918  13.052
36852W        W 8468  31.362  13.294   4.021
36853W        W 8469   7.483  32.672  13.498
36854W        W 8470  20.743  44.684   0.908
36855W        W 8471  31.454  28.087  12.180
36856W        W 8472   5.699  43.861  12.392
36857W        W 8473  40.458  19.397   4.081
36858W        W 8474  17.111  29.974  14.864
36859W        W 8475   6.195  22.442  10.137
36860W        W 8476  13.078  22.325   4.045
36861W        W 8477  20.677   9.252  12.496
36862W        W 8478  13.537  19.513  12.944
36863W        W 8479   7.791  28.615  12.376
36864W        W 8480  19.253  21.206  11.660
36865W        W 8481  30.824   5.176   3.308
36866W        W 8482  29.780  19.719   4.513
36867W        W 8483  31.112   0.473   2.203
36868W        W 8484  27.671  25.352   0.852
36869W        W 8485  13.224  40.001   4.199
36870W        W 8486  14.788   2.847  11.188
36871W        W 8487   4.940  30.371  11.057
36872W        W 8488  14.729  37.344  10.257
36873W        W 8489  42.989  29.889  12.282
36874W        W 8490  41.379  31.374  12.953
36875W        W 8491  13.672  13.178  11.944
36876W        W 8492   9.056  16.275   3.331
36877W        W 8493  29.601  31.186   0.298
36878W        W 8494  16.343  22.121  14.284
36879W        W 8495   7.583  28.036  12.633
36880W        W 8496  18.674  10.814   1.779
36881W        W 8497  11.834  42.870  13.808
36882W        W 8498  22.486  21.268  14.358
36883W        W 8499  39.515  12.346   0.947
36884W        W 8500  19.642  40.331  13.236
36885W        W 8501  35.684   6.795  12.391
36886W        W 8502  21.708  21.260   4.516
36887W        W 8503   5.052  40.908   2.943
36888W        W 8504  30.638   4.691  12.448
36889W        W 8505  20.786  26.759   5.005
36890W        W 8506  33.863   7.451  11.487
36891W        W 8507  22.084  29.204  11.070
36892W        W 8508  10.430  20.047   3.213
36893W        W 8509  24.711  38.917  12.209
36894W        W 8510   4.371  42.089  13.283
36895W        W 8511  39.428   4.636  14.353
36896W        W 8512  15.084  15.278  13.329
36897W        W 8513  15.001  30.402   4.107
36898W        W 8514  43.809   3.727   0.828
36899W        W 8515  32.140  43.478   1.927
36900W        W 8516  10.848  39.898   2.886
36901W        W 8517  14.087   0.919   0.717
36902W        W 8518  17.383  43.394  10.730
36903W        W 8519  15.090  35.672  14.534
36904W        W 8520  38.293  42.528   2.266
36905W        W 8521  36.427  10.907  14.465
36906W        W 8522  20.629   6.016   4.584
36907W        W 8523  19.842  16.461   0.783
36908W        W 8524   3.013  18.199  11.107
36909W        W 8525  34.657  32.789   1.217
36910W        W 8526   2.016   3.354  12.664
36911W        W 8527  14.556  28.947   1.844
36912W        W 8528  39.409  32.157   2.658
36913W        W 8529  43.023  25.566   3.598
36914W        W 8530  41.421  10.207   4.026
36915W        W 8531  30.619  42.024  12.442
36916W        W 8532   7.368  35.401   2.021
36917W        W 8533   3.053  37.589  12.797
36918W        W 8534  27.592  38.281   2.827
36919W        W 8535  15.681  18.240  14.076
36920W        W 8536  38.489  43.810   1.217
36921W        W 8537  38.378  28.972   0.857
36922W        W 8538  13.926  22.461  14.315
36923W        W 8539  34.377  12.565  12.513
36924W        W 8540  19.684  38.042   0.822
36925W        W 8541  34.064  22.336   1.302
36926W        W 8542  12.587  44.378   2.915
36927W        W 8543  40.367  31.985  11.901
36928W        W 8544   9.220   2.330  10.860
36929W        W 8545  24.064  22.556   3.306
36930W        W 8546   8.247  33.279   4.549
36931W        W 8547   5.265  44.046   5.489
36932W        W 8548  22.957  15.153  10.953
36933W        W 8549  36.610  14.519  13.345
36934W        W 8550  34.296   0.658  11.073
36935W        W 8551   7.408  30.656   4.725
36936W        W 8552  16.747   7.344   2.314
36937W        W 8553  37.652  22.945  11.515
36938W        W 8554  20.631  24.266  13.453
36939W        W 8555  32.011   8.721   3.070
36940W        W 8556  34.569  35.598   0.480
36941W        W 8557  15.012  21.975   1.745
36942W        W 8558  27.165  35.850   0.630
36943W        W 8559  29.178  28.057  14.458
36944W        W 8560  39.298  33.973   3.179
36945W        W 8561   4.830  25.697   2.283
36946W        W 8562  24.072  29.342   3.763
36947W        W 8563   5.204  28.000  13.998
36948W        W 8564   6.234   8.832  13.527
36949W        W 8565  24.074  36.259   1.029
36950W        W 8566  31.406  37.404   0.209
36951W        W 8567   1.384  32.319  13.971
36952W        W 8568  41.702  11.959   5.109
36953W        W 8569   5.032   9.318   4.593
36954W        W 8570  25.722   1.746  13.591
36955W        W 8571  30.910  34.017   1.675
36956W        W 8572  14.342   3.313   3.021
36957W        W 8573  17.124   6.136  11.578
36958W        W 8574  14.629   4.808  10.631
36959W        W 8575   7.946  37.965   3.173
36960W        W 8576  18.572  34.325   4.481
36961W        W 8577  34.556  43.115  14.074
36962W        W 8578   0.878  27.065   4.582
36963W        W 8579  17.148  14.988   1.865
36964W        W 8580  32.472  10.276  10.084
36965W        W 8581  16.095  10.225   3.796
36966W        W 8582   6.801  34.329   0.537
36967W        W 8583  16.632  31.826  11.932
36968W        W 8584  26.530  15.613   4.219
36969W        W 8585  30.872  17.164   0.871
36970W        W 8586   4.351  11.858   1.883
36971W        W 8587  11.880  23.969  10.972
36972W        W 8588  34.566   2.261   1.381
36973W        W 8589  26.455  43.021   4.650
36974W        W 8590  11.261  14.805   3.617
36975W        W 8591   9.170  24.591  14.251
36976W        W 8592   4.871  38.537   3.871
36977W        W 8593  39.063  12.752  11.912
36978W        W 8594  16.153  20.697  13.348
36979W        W 8595   1.371  38.099  12.115
36980W        W 8596  37.826  43.192  13.528
36981W        W 8597  24.236  29.954   2.300
36982W        W 8598  16.561  19.100   1.425
36983W        W 8599   7.510   6.314  10.305
36984W        W 8600  25.590  15.820   4.150
36985W        W 8601  44.034  10.644  13.656
36986W        W 8602  35.844   0.919   4.835
36987W        W 8603  17.435  28.220  10.769
36988W        W 8604  33.571  33.981   2.499
36989W        W 8605  22.151  42.153  13.263
36990W        W 8606  39.359  12.831  11.520
36991W        W 8607   6.105  29.778  10.855
36992W        W 8608   0.510  14.787   4.558
36993W        W 8609  19.072  39.690   0.853
36994W        W 8610  19.580  11.464   4.128
36995W        W 8611  42.296  28.474   4.767
36996W        W 8612  18.519   1.255  12.847
36997W        W 8613  41.540  22.443  11.688
36998W        W 8614   2.316   7.179  13.937
36999W        W 8615  24.461  23.306   2.729
37000W        W 8616   0.033  37.002  12.304
37001W        W 8617  22.514  34.851  14.706
37002W        W 8618  29.530  14.659   2.799
37003W        W 8619   5.888  32.531  14.435
37004W        W 8620  29.519   9.913   0.370
37005W        W 8621   3.431  18.593   0.401
37006W        W 8622  38.751  34.598   2.400
37007W        W 8623  42.894  31.196  14.452
37008W        W 8624  28.994  35.783   0.461
37009W        W 8625   7.037   2.491   3.224
37010W        W 8626  43.554   5.909   0.909
37011W        W 8627  20.217  42.816   4.913
37012W        W 8628  12.882  43.300   0.918
37013W        W 8629  16.705   4.976   4.137
37014W        W 8630  28.262  12.839   3.170
37015W        W 8631   0.880  27.888   3.770
37016W        W 8632  23.060   2.533   1.518
37017W        W 8633  31.538  39.041   0.247
37018W        W 8634   2.457  33.474   2.810
37019W        W 8635  14.877   7.290  12.471
37020W        W 8636  26.934  14.587   0.532
37021W        W 8637  23.469  39.831   1.160
37022W        W 8638   4.371   8.205   4.075
37023W        W 8639  23.533  33.406   3.152
37024W        W 8640  19.105  10.850   1.434
37025W        W 8641   4.463  43.358  11.229
37026W        W 8642  20.017  31.441  11.677
37027W        W 8643  42.081   4.148   4.331
37028W        W 8644  44.257  38.628  13.532
37029W        W 8645  31.984  39.682  12.205
37030W        W 8646  34.179  16.590   4.721
37031W        W 8647  26.462  14.811   1.758
37032W        W 8648  23.164  17.564  13.940
37033W        W 8649   3.246  41.876  11.068
37034W        W 8650  21.783   9.358  13.935
37035W        W 8651  20.338  40.934  13.999
37036W        W 8652  15.369  32.100   0.420
37037W        W 8653  23.769  19.162   3.401
37038W        W 8654   6.324  24.477  11.515
37039W        W 8655  37.618  24.647  13.313
37040W        W 8656  29.619  36.583   4.707
37041W        W 8657   9.682  26.953  12.469
37042W        W 8658  21.052  30.957  14.846
37043W        W 8659  37.499  35.711   4.067
37044W        W 8660  26.437  25.763   0.402
37045W        W 8661  37.884  17.962   4.591
37046W        W 8662  25.955  13.354   9.569
37047W        W 8663  44.718  38.284   0.305
37048W        W 8664  30.337  29.836   0.093
37049W        W 8665  12.119  26.903   3.627
37050W        W 8666   1.906  18.743   2.432
37051W        W 8667   2.961  13.199  14.912
37052W        W 8668  39.865  11.890  14.601
37053W        W 8669  13.745  43.563  13.478
37054W        W 8670  38.031   7.729   1.314
37055W        W 8671  11.215  44.369   1.705
37056W        W 8672  26.111  25.212  13.297
37057W        W 8673  43.116  22.554   2.915
37058W        W 8674  18.647  18.083   4.097
37059W        W 8675   8.647  12.322   3.104
37060W        W 8676  39.717  19.310   1.643
37061W        W 8677  42.488  19.760   0.738
37062W        W 8678  37.851   9.302   4.090
37063W        W 8679   7.224  39.540   3.723
37064W        W 8680  11.888  22.066  13.046
37065W        W 8681  12.189  20.965   4.740
37066W        W 8682  20.460   7.912  13.484
37067W        W 8683  42.172  15.519  13.562
37068W        W 8684  17.642  37.832   1.110
37069W        W 8685  24.302  10.925  11.930
37070W        W 8686  38.282  34.134   2.305
37071W        W 8687  11.566  30.057   3.706
37072W        W 8688  36.569  19.131   4.425
37073W        W 8689  16.341   6.713  12.090
37074W        W 8690  38.961  23.498   1.536
37075W        W 8691  30.900  40.197  12.052
37076W        W 8692  44.760  41.321   0.409
37077W        W 8693  43.823  42.921  10.493
37078W        W 8694   4.662  23.125  10.526
37079W        W 8695   8.141  30.166   3.753
37080W        W 8696  12.664  41.017   1.173
37081W        W 8697  10.645  27.760  13.053
37082W        W 8698  44.705  14.637  13.229
37083W        W 8699  10.636  35.357  12.726
37084W        W 8700  30.008  30.764  12.969
37085W        W 8701  38.867  23.457   3.034
37086W        W 8702  11.623   3.946  14.511
37087W        W 8703  25.688   3.049  11.672
37088W        W 8704  20.297  16.205  14.279
37089W        W 8705  43.981  33.612  12.786
37090W        W 8706   0.271  14.308   3.679
37091W        W 8707  12.448   2.019  12.618
37092W        W 8708  12.094  35.627   0.297
37093W        W 8709  27.417  39.230  11.410
37094W        W 8710   2.020  41.351  13.851
37095W        W 8711  36.320   1.036   2.333
37096W        W 8712  30.041   4.998  12.583
37097W        W 8713  14.153  36.918  14.366
37098W        W 8714  13.161  13.674  12.940
37099W        W 8715  23.931   2.869   4.832
37100W        W 8716  19.286  44.202   0.962
37101W        W 8717  21.180   4.843  14.830
37102W        W 8718  42.769   1.927   1.205
37103W        W 8719  19.564   1.906  13.365
37104W        W 8720  44.533  29.126  13.545
37105W        W 8721  21.958  27.828   1.435
37106W        W 8722   5.428  44.421   3.857
37107W        W 8723  41.424  11.636  12.455
37108W        W 8724  25.576  23.204   3.935
37109W        W 8725  36.018  12.381  14.095
37110W        W 8726   3.722  40.446  10.969
37111W        W 8727  41.423  16.967  14.539
37112W        W 8728  26.510  38.321   0.886
37113W        W 8729  29.485  16.811   2.234
37114W        W 8730  26.501  35.460  14.554
37115W        W 8731  16.742  12.244   3.484
37116W        W 8732   0.743  41.240  11.523
37117W        W 8733  36.456   8.717   0.536
37118W        W 8734   0.985   3.179  10.594
37119W        W 8735   0.782  21.886  12.451
37120W        W 8736   5.562   8.714  12.035
37121W        W 8737  12.505  16.850   1.629
37122W        W 8738  15.523  31.558  10.683
37123W        W 8739  14.821  14.741   3.462
37124W        W 8740   8.753   7.587   0.550
37125W        W 8741  18.097  29.722  12.992
37126W        W 8742  16.574  20.376  13.489
37127W        W 8743  23.676   8.262   4.758
37128W        W 8744  31.444  29.164  13.192
37129W        W 8745   8.732  33.307   4.780
37130W        W 8746  26.559   9.193   1.691
37131W        W 8747   4.243  25.423  10.963
37132W        W 8748  22.081  34.942   1.980
37133W        W 8749  30.587  23.706   0.241
37134W        W 8750  44.350  20.059   3.762
37135W        W 8751  12.323   1.230  13.887
37136W        W 8752  19.060  17.236  11.043
37137W        W 8753  29.652  29.445  12.978
37138W        W 8754  27.690  41.457  10.432
37139W        W 8755  40.333  31.458  12.851
37140W        W 8756  21.782  22.928   2.282
37141W        W 8757  36.303   0.362  13.548
37142W        W 8758  40.836  37.557  12.835
37143W        W 8759   5.751  20.920   4.012
37144W        W 8760  42.308  44.440  11.640
37145W        W 8761  29.970   3.039   1.222
37146W        W 8762  10.041  17.284  13.117
37147W        W 8763  21.268  22.967   1.401
37148W        W 8764  14.210  11.846   1.796
37149W        W 8765  42.268  16.599   2.319
37150W        W 8766  20.596  20.830  13.824
37151W        W 8767  44.844  40.886   1.835
37152W        W 8768  23.552  30.312   1.781
37153W        W 8769  22.418  17.317   2.183
37154W        W 8770  28.914  40.168  11.829
37155W        W 8771  25.913   9.833  11.101
37156W        W 8772  26.337  43.301  13.349
37157W        W 8773  25.364  14.734   5.015
37158W        W 8774   8.738  37.511  13.094
37159W        W 8775  32.796  15.202  13.428
37160W        W 8776  16.773   1.389   3.228
37161W        W 8777   4.197   7.319   4.438
37162W        W 8778  12.634   4.341  12.094
37163W        W 8779   8.229   9.119  10.459
37164W        W 8780   9.861  35.428  11.222
37165W        W 8781   1.182  29.886  12.928
37166W        W 8782   2.330  28.540   3.373
37167W        W 8783   7.844  44.057   3.183
37168W        W 8784  11.791  10.807   2.858
37169W        W 8785   5.258   5.947  13.858
37170W        W 8786  30.926  28.196   4.208
37171W        W 8787  36.618   9.104   1.222
37172W        W 8788  22.068  33.556   0.796
37173W        W 8789  28.522  24.980   1.779
37174W        W 8790  28.380  21.775   1.354
37175W        W 8791  30.586   3.430   0.810
37176W        W 8792  16.595  44.890  13.418
37177W        W 8793   1.528   2.889  13.577
37178W        W 8794  15.567  10.921   3.697
37179W        W 8795  34.028  38.412   3.179
37180W        W 8796  12.698  16.748   0.935
37181W        W 8797  22.382   5.525  11.153
37182W        W 8798  16.285  38.097  11.965
37183W        W 8799  36.341  33.132   0.608
37184W        W 8800  36.334  26.650  12.822
37185W        W 8801  24.077  28.351  12.630
37186W        W 8802  10.726  41.772  13.521
37187W        W 8803  33.922   1.004   1.392
37188W        W 8804   0.345  41.025   1.973
37189W        W 8805  10.057   7.194   3.615
37190W        W 8806   0.475   7.696  10.837
37191W        W 8807   1.985   5.793  13.986
37192W        W 8808  35.740  40.529   3.216
37193W        W 8809  20.749  15.471   2.826
37194W        W 8810  38.370  33.445   4.092
37195W        W 8811  44.938   7.172   1.240
37196W        W 8812  13.247  36.154   1.322
37197W        W 8813  19.707   2.293   2.431
37198W        W 8814  28.168  21.985  10.756
37199W        W 8815  31.488  22.657  13.009
37200W        W 8816   8.120  38.970   0.901
37201W        W 8817  12.409   8.629  14.441
37202W        W 8818  30.884  31.885  10.223
37203W        W 8819  23.514   4.026   3.444
37204W        W 8820  16.835   6.795  12.625
37205W        W 8821   9.679  40.840  11.926
37206W        W 8822   9.979   9.179  11.128
37207W        W 8823   6.163   3.704  12.024
37208W        W 8824  16.681  19.571  11.913
37209W        W 8825  34.332   5.354   4.472
37210W        W 8826  13.072  26.690   0.395
37211W        W 8827  34.788  34.796  12.982
37212W        W 8828  27.640  38.971   1.747
37213W        W 8829   6.416  38.195   1.015
37214W        W 8830  37.470  18.284   2.450
37215W        W 8831  13.866  25.711   4.378
37216W        W 8832  40.793   4.549   1.832
37217W        W 8833  18.609  13.369  12.553
37218W        W 8834  43.951  13.834   2.666
37219W        W 8835  30.105   6.708   1.967
37220W        W 8836  26.565   8.423   3.739
37221W        W 8837  20.072  17.658  14.707
37222W        W 8838   8.010  27.136  13.891
37223W        W 8839   7.947  18.266   0.887
37224W        W 8840  19.153  25.177  14.341
37225W        W 8841  32.084   8.416   2.663
37226W        W 8842   8.229  35.311  14.378
37227W        W 8843  24.552  14.568   2.693
37228W        W 8844  12.457   2.545   1.544
37229W        W 8845  22.882  24.011   2.777
37230W        W 8846  40.359  30.192  13.890
37231W        W 8847  42.445  33.843   1.407
37232W        W 8848  29.518  23.554   4.661
37233W        W 8849   2.215   0.873   3.262
37234W        W 8850   8.687  44.396  12.004
37235W        W 8851  23.697  32.388  13.951
37236W        W 8852  42.563  44.493   4.715
37237W        W 8853   9.893   6.279  12.354
37238W        W 8854  37.982  42.617  14.351
37239W        W 8855  41.190  21.852   3.375
37240W        W 8856  10.400  23.832  11.182
37241W        W 8857  24.526  10.404   3.901
37242W        W 8858   5.204   5.466  14.080
37243W        W 8859  39.290  31.967  10.964
37244W        W 8860  22.949  38.854   0.393
37245W        W 8861   5.945  33.171   3.310
37246W        W 8862   2.377  37.877   4.260
37247W        W 8863  20.662  14.982  11.692
37248W        W 8864  31.043   7.911   3.612
37249W        W 8865  41.844   9.420   1.710
37250W        W 8866  38.804   1.244  12.368
37251W        W 8867   0.387  25.378   0.680
37252W        W 8868  13.819  26.190   4.191
37253W        W 8869  14.781  30.483   3.649
37254W        W 8870  10.850  32.841  12.667
37255W        W 8871   2.824  17.136   1.641
37256W        W 8872   3.239  40.627   0.879
37257W        W 8873  36.183  16.207   2.791
37258W        W 8874  30.702  10.613  11.232
37259W        W 8875  19.891   6.458   0.667
37260W        W 8876  31.876  39.490   1.370
37261W        W 8877  24.591  11.498   3.333
37262W        W 8878  21.752  17.347   0.390
37263W        W 8879  20.664  25.072  12.983
37264W        W 8880   1.055  21.575   1.848
37265W        W 8881   9.698  34.513   1.334
37266W        W 8882  34.607  36.340  11.511
37267W        W 8883   0.863   9.354  11.031
37268W        W 8884  16.297  34.368   1.929
37269W        W 8885   1.382   6.793  14.261
37270W        W 8886   8.118  31.797   4.662
37271W        W 8887  25.449   5.202   0.490
37272W        W 8888  32.440  41.700  14.425
37273W        W 8889  28.047  30.450   2.435
37274W        W 8890   1.939  33.965   3.182
37275W        W 8891   8.914  23.038  11.593
37276W        W 8892  19.420  31.473   4.294
37277W        W 8893  25.543  29.946  10.560
37278W        W 8894  19.544  14.746  13.037
37279W        W 8895  27.319   6.825  11.133
37280W        W 8896  23.562  33.442  12.956
37281W        W 8897  13.624  33.959  11.532
37282W        W 8898   3.955  13.041   2.350
37283W        W 8899  27.548  34.266   4.544
37284W        W 8900   8.849  30.062  11.667
37285W        W 8901  11.797  12.841   2.237
37286W        W 8902   6.657   1.168   4.351
37287W        W 8903   6.565  23.705  11.466
37288W        W 8904  22.342  44.919  10.570
37289W        W 8905  11.800  21.312   3.254
37290W        W 8906   1.474  27.725   1.168
37291W        W 8907   7.618  10.248   3.679
37292W        W 8908  33.817   2.677   2.856
37293W        W 8909   8.257  34.403   3.617
37294W        W 8910  24.719  18.069  13.861
37295W        W 8911   0.863   5.404   2.766
37296W        W 8912  12.660   6.304   1.862
37297W        W 8913  13.162  15.041   3.741
37298W        W 8914  26.466  44.031   3.005
37299W        W 8915  12.613  42.903   1.156
37300W        W 8916  34.754  41.122   0.877
37301W        W 8917  10.275  24.698  10.647
37302W        W 8918   4.780  32.474   0.819
37303W        W 8919   5.456   8.616  11.005
37304W        W 8920  31.160  27.227   5.551
37305W        W 8921  32.610  21.216  13.874
37306W        W 8922   7.708   2.444  14.524
37307W        W 8923  38.869   8.756  13.323
37308W        W 8924   6.772  15.228   0.445
37309W        W 8925  16.141  40.444  11.168
37310W        W 8926  26.220   1.842  10.343
37311W        W 8927  15.810  28.992   2.350
37312W        W 8928  41.766  25.144  11.031
37313W        W 8929   5.579  19.715  14.463
37314W        W 8930   2.638  10.217  12.902
37315W        W 8931  29.725  16.096  13.032
37316W        W 8932  44.811  40.232   0.595
37317W        W 8933  14.266   1.512   4.039
37318W        W 8934  10.646  15.935   3.623
37319W        W 8935  42.838  12.391  14.490
37320W        W 8936  24.849  43.886   1.499
37321W        W 8937  18.884  25.144   2.827
37322W        W 8938  19.801  43.862  10.359
37323W        W 8939  24.185  24.717  11.957
37324W        W 8940  26.358  23.762   3.327
37325W        W 8941  35.582  26.666   1.201
37326W        W 8942  42.653  10.131  14.386
37327W        W 8943   9.627  18.554  12.882
37328W        W 8944   6.090  40.613  14.608
37329W        W 8945  16.836  37.766  13.458
37330W        W 8946  35.159  15.515  10.665
37331W        W 8947  15.320  15.234   2.224
37332W        W 8948  40.027  23.555   4.504
37333W        W 8949  29.533  20.304   0.762
37334W        W 8950  10.231  29.552   3.677
37335W        W 8951  42.870  15.057   0.472
37336W        W 8952  15.363  27.010  12.068
37337W        W 8953  19.258  11.363   4.546
37338W        W 8954  21.141  37.991  11.417
37339W        W 8955  43.218  25.105  13.080
37340W        W 8956   1.748  32.297  11.125
37341W        W 8957  36.205  42.457   1.378
37342W        W 8958   5.244  32.571  11.012
37343W        W 8959   5.912  16.799  14.419
37344W        W 8960  38.529   6.318   2.782
37345W        W 8961  24.228  35.499   1.074
37346W        W 8962  41.664   6.669   2.267
37347W        W 8963  36.797  17.774   4.049
37348W        W 8964  33.149  15.783   4.558
37349W        W 8965  27.630  37.063  11.587
37350W        W 8966  25.985  29.984   3.429
37351W        W 8967  31.859  12.669  11.718
37352W        W 8968  17.895  36.885   3.995
37353W        W 8969  30.059  10.410  12.361
37354W        W 8970  37.951  33.541   0.907
37355W        W 8971   6.282  41.001   0.748
37356W        W 8972  20.570   5.976  13.519
37357W        W 8973   6.404  26.621  10.055
37358W        W 8974   7.819   9.900   3.350
37359W        W 8975   6.365  22.525   1.796
37360W        W 8976  38.118  44.563  12.030
37361W        W 8977  28.405  37.561  12.833
37362W        W 8978   1.399  38.142  13.843
37363W        W 8979  24.243  34.136   1.768
37364W        W 8980  40.412  21.004   1.005
37365W        W 8981  27.705  25.522  12.478
37366W        W 8982  20.314  12.651   1.293
37367W        W 8983  42.509  26.202  11.625
37368W        W 8984  43.463  36.092  14.895
37369W        W 8985  12.826  18.154  14.735
37370W        W 8986  37.950  11.082  14.528
37371W        W 8987  23.496   4.945  11.586
37372W        W 8988   1.991  15.109  14.854
37373W        W 8989  11.953  13.539   2.855
37374W        W 8990  35.434   3.247  11.683
37375W        W 8991  43.316  38.830  10.056
37376W        W 8992  31.441  40.854   0.515
37377W        W 8993  25.990  26.976  12.685
37378W        W 8994  29.711  32.549   0.938
37379W        W 8995   9.258   0.441  11.112
37380W        W 8996  22.517   6.443   2.807
37381W        W 8997  13.135  13.188   2.169
37382W        W 8998   3.787  19.520   1.367
37383W        W 8999  27.848  13.885  13.608
37384W        W 9000  36.138  36.485  10.712
37385W        W 9001   2.040  43.620  11.137
37386W        W 9002  10.184   6.391   0.930
37387W        W 9003  35.023  37.344   1.735
37388W        W 9004  36.348  22.115  11.565
37389W        W 9005  34.063  31.158   4.146
37390W        W 9006  21.445  24.724   0.353
37391W        W 9007  20.600   6.711   0.058
37392W        W 9008  24.827   1.575   4.262
37393W        W 9009  10.695   1.239  10.461
37394W        W 9010   3.799  13.655  11.221
37395W        W 9011  26.725  26.450   3.227
37396W        W 9012  20.462  28.014  13.930
37397W        W 9013  41.992  12.354   3.528
37398W        W 9014  38.073   6.731   4.755
37399W        W 9015  38.872  26.271   2.855
37400W        W 9016  29.916  27.846   9.718
37401W        W 9017   4.741  42.808   0.263
37402W        W 9018  41.559  31.947   2.422
37403W        W 9019  28.425  44.232  14.900
37404W        W 9020   1.473  39.161  11.240
37405W        W 9021  44.240  15.885   0.345
37406W        W 9022  10.138   4.004   3.457
37407W        W 9023  37.522   0.017  14.746
37408W        W 9024   5.492  34.422  10.386
37409W        W 9025  25.623  34.262   2.836
37410W        W 9026  15.521  17.013   2.636
37411W        W 9027  25.558  34.693  10.168
37412W        W 9028  18.073   3.642  10.674
37413W        W 9029  20.290  33.820  12.508
37414W        W 9030  36.028  42.956  13.174
37415W        W 9031  38.610  40.320  11.097
37416W        W 9032  10.606  28.972  13.860
37417W        W 9033  30.655  14.871   2.714
37418W        W 9034   1.545  40.072  13.411
37419W        W 9035   4.811  23.579   4.211
37420W        W 9036  28.154  42.255  11.487
37421W        W 9037  41.332  13.178   1.681
37422W        W 9038  11.728   1.259  10.656
37423W        W 9039  16.209  22.645  11.738
37424W        W 9040   8.164  13.051   4.239
37425W        W 9041   3.624   1.873  14.497
37426W        W 9042  43.838  36.984   1.322
37427W        W 9043  17.162   6.224  10.221
37428W        W 9044  43.070  36.570   0.458
37429W        W 9045  37.626  39.029  13.043
37430W        W 9046  16.350  10.840   2.673
37431W        W 9047  12.832  11.443   3.893
37432W        W 9048  43.857  14.444   1.901
37433W        W 9049  12.492   3.572   1.966
37434W        W 9050  29.959   1.321  13.276
37435W        W 9051   6.909   5.603  14.552
37436W        W 9052   0.885   5.773  14.980
37437W        W 9053   9.170  10.888   0.389
37438W        W 9054  24.004  37.313   1.816
37439W        W 9055   6.933  18.814   0.375
37440W        W 9056  37.900   4.796   2.817
37441W        W 9057  40.574  19.774   2.477
37442W        W 9058  37.477  21.653   4.869
37443W        W 9059   2.604   3.809   1.476
37444W        W 9060   4.268  35.820  11.556
37445W        W 9061  15.639   5.491  12.854
37446W        W 9062  44.659   3.882   2.721
37447W        W 9063  20.078   3.371   3.714
37448W        W 9064   9.891   7.207  14.003
37449W        W 9065  25.424  22.066   2.726
37450W        W 9066  19.967  41.970  10.624
37451W        W 9067  33.686  10.128   4.099
37452W        W 9068  44.688  18.534   0.173
37453W        W 9069  21.098  27.753   1.753
37454W        W 9070  31.316   6.370   1.964
37455W        W 9071  30.729  36.554  12.593
37456W        W 9072   5.252  31.158   0.678
37457W        W 9073  12.624  15.685   0.778
37458W        W 9074  18.055  12.413   1.753
37459W        W 9075   3.764  36.779   0.423
37460W        W 9076  10.163  43.426  13.892
37461W        W 9077  36.992   0.818   4.603
37462W        W 9078   6.432  40.559  12.594
37463W        W 9079  21.201  20.804  12.457
37464W        W 9080  39.071  19.979  14.309
37465W        W 9081  18.475  12.900  12.391
37466W        W 9082  41.337   1.892  14.838
37467W        W 9083  27.595   1.341  12.027
37468W        W 9084  21.838  15.130   3.579
37469W        W 9085  34.535  41.313  13.533
37470W        W 9086   9.655   1.068   0.424
37471W        W 9087  35.316  36.922  14.064
37472W        W 9088  10.763   2.400  11.055
37473W        W 9089  42.309  27.616   1.448
37474W        W 9090  42.604  28.628   3.313
37475W        W 9091  29.965  27.906   2.262
37476W        W 9092  32.551  23.047   1.171
37477W        W 9093  41.988   3.511  12.880
37478W        W 9094  44.014   3.265   3.139
37479W        W 9095  43.905  19.699   1.896
37480W        W 9096  28.963  20.596  12.221
37481W        W 9097  35.832  33.571  12.587
37482W        W 9098  19.593  12.028   2.755
37483W        W 9099  28.199  21.153  11.156
37484W        W 9100  22.405  39.910   4.150
37485W        W 9101   6.215   9.846  13.536
37486W        W 9102  22.241   7.473  13.958
37487W        W 9103  28.241  13.575   0.825
37488W        W 9104  26.179  34.741  13.305
37489W        W 9105  21.096  25.269  10.611
37490W        W 9106   7.151  22.940  13.233
37491W        W 9107  38.420   7.239   3.803
37492W        W 9108  41.277   1.385  11.541
37493W        W 9109  30.082  25.147   0.747
37494W        W 9110  43.749  25.693  14.039
37495W        W 9111  42.233  25.359  11.544
37496W        W 9112  39.979   5.176   2.306
37497W        W 9113  40.304  19.520  13.320
37498W        W 9114   7.221  25.093  13.615
37499W        W 9115  14.451  21.210   0.339
37500W        W 9116  17.212   6.141  12.108
37501W        W 9117  33.035  42.779   1.769
37502W        W 9118   2.955   2.144   1.371
37503W        W 9119  29.192  38.437  11.098
37504W        W 9120   1.794  30.457   0.196
37505W        W 9121  34.494  21.058   3.676
37506W        W 9122   1.733  33.008   3.672
37507W        W 9123  41.345   1.920  11.449
37508W        W 9124  11.951  10.729  12.887
37509W        W 9125   4.378   2.337  12.366
37510W        W 9126  14.844  14.366   2.561
37511W        W 9127  16.271  36.029   4.111
37512W        W 9128  34.013  28.939  14.305
37513W        W 9129   1.258  41.681   0.752
37514W        W 9130   9.799  39.348  13.579
37515W        W 9131  41.237  15.819  13.277
37516W        W 9132  27.401  29.596  12.453
37517W        W 9133   3.318  30.059   2.489
37518W        W 9134  36.839  31.431   0.765
37519W        W 9135   3.026  39.421   0.675
37520W        W 9136   0.842  12.586  10.724
37521W        W 9137  27.671   2.237  13.181
37522W        W 9138  27.564  39.320   0.023
37523W        W 9139  34.832  44.869  10.538
37524W        W 9140  39.692   5.094   1.650
37525W        W 9141  10.377  23.250  13.499
37526W        W 9142   5.870   5.381   1.311
37527W        W 9143  16.812  23.373  13.320
37528W        W 9144  43.157  23.636   4.860
37529W        W 9145  22.500  22.737   5.140
37530W        W 9146  37.302  27.379  12.153
37531W        W 9147   0.820  31.971   0.024
37532W        W 9148   3.642  18.037   4.399
37533W        W 9149  20.951  34.527  12.122
37534W        W 9150  15.457   3.325   3.287
37535W        W 9151  11.739  44.776  11.088
37536W        W 9152  27.104  29.468  10.419
37537W        W 9153   0.604  42.899   1.338
37538W        W 9154  14.299  16.277   1.460
37539W        W 9155  21.472  17.592   2.158
37540W        W 9156  12.119   6.445   2.810
37541W        W 9157   6.647   8.776  11.870
37542W        W 9158  19.570  11.383  12.924
37543W        W 9159  29.125   1.947  12.918
37544W        W 9160  34.367   5.978   2.661
37545W        W 9161   4.248  34.374   4.580
37546W        W 9162   9.116  43.270  14.759
37547W        W 9163   2.491  26.148   0.889
37548W        W 9164   1.522  43.503  14.990
37549W        W 9165  24.132  32.912   2.763
37550W        W 9166   6.238  15.279   1.337
37551W        W 9167   7.326  38.380   2.662
37552W        W 9168  14.677  15.222   3.311
37553W        W 9169  35.371  19.546   0.482
37554W        W 9170  42.448  11.039   3.269
37555W        W 9171  40.500   4.271   2.835
37556W        W 9172  17.556  31.652   4.579
37557W        W 9173  23.468   9.189   0.836
37558W        W 9174  36.097  23.541   1.976
37559W        W 9175  21.832   0.561   3.290
37560W        W 9176  25.849   3.569   0.016
37561W        W 9177  32.150  30.536  10.688
37562W        W 9178  25.225  20.970  14.909
37563W        W 9179   2.894  37.105   2.791
37564W        W 9180  34.289  17.137  11.945
37565W        W 9181  40.984  10.670  12.509
37566W        W 9182   3.359  15.922   3.800
37567W        W 9183  42.509   4.381  14.744
37568W        W 9184  38.055  28.602   1.759
37569W        W 9185  18.568  11.654  12.966
37570W        W 9186  35.611  36.596  13.782
37571W        W 9187  32.659  29.684   0.363
37572W        W 9188   4.636  19.811  14.731
37573W        W 9189  30.813  42.199   3.171
37574W        W 9190  18.339  29.996  11.117
37575W        W 9191   0.439  14.381   2.840
37576W        W 9192  32.667  13.569   4.159
37577W        W 9193  25.174   1.404   3.657
37578W        W 9194   8.639  34.456  14.348
37579W        W 9195  42.081  31.407  13.279
37580W        W 9196  32.681  17.604  11.119
37581W        W 9197  44.867  27.068   4.644
37582W        W 9198  23.198  20.911   3.333
37583W        W 9199  18.835  42.532  10.289
37584W        W 9200  31.273  31.163  13.872
37585W        W 9201  37.493   1.937   0.887
37586W        W 9202   1.928  43.607  10.175
37587W        W 9203  36.138   7.194   2.695
37588W        W 9204  26.809   2.345  12.012
37589W        W 9205   9.821  12.918  14.772
37590W        W 9206  22.785  38.529  11.127
37591W        W 9207  38.094   2.851  12.011
37592W        W 9208   9.197  15.667  11.905
37593W        W 9209  15.713   2.695   3.640
37594W        W 9210  19.110  17.650   1.994
37595W        W 9211  39.117   1.569  14.011
37596W        W 9212  37.236   9.253   1.042
37597W        W 9213  34.124  34.280  12.216
37598W        W 9214  19.701  37.912   4.632
37599W        W 9215  15.512  41.810   0.794
37600W        W 9216  15.287  32.806   4.600
37601W        W 9217   9.163  19.669   1.390
37602W        W 9218   6.912  20.311  11.083
37603W        W 9219  25.542  25.582  10.379
37604W        W 9220  10.614  17.532   0.796
37605W        W 9221  10.200   4.914  11.575
37606W        W 9222   3.770  15.333   4.846
37607W        W 9223   4.498  35.398   4.698
37608W        W 9224   5.732  22.129   1.778
37609W        W 9225   6.228  28.553   1.535
37610W        W 9226  35.959   0.277   1.278
37611W        W 9227  35.440  34.002   4.627
37612W        W 9228  12.766  18.617  14.531
37613W        W 9229  23.133  24.631  10.702
37614W        W 9230  30.130  35.577   1.189
37615W        W 9231  23.920   9.183   1.792
37616W        W 9232  40.658  36.049  14.341
37617W        W 9233  23.556  28.317   2.830
37618W        W 9234  17.216   9.208   0.908
37619W        W 9235   8.827  25.892  14.436
37620W        W 9236  21.310  26.507   4.650
37621W        W 9237  39.271  15.628  10.520
37622W        W 9238  17.663  35.525  14.039
37623W        W 9239  14.835  14.343   3.090
37624W        W 9240  37.457   6.103   3.255
37625W        W 9241  16.658  21.283   1.820
37626W        W 9242  44.036  23.517  14.912
37627W        W 9243   4.908  44.415   0.103
37628W        W 9244  44.842  22.441   1.990
37629W        W 9245   2.551   7.326  14.429
37630W        W 9246  42.805  13.260  11.475
37631W        W 9247  44.816  26.699   2.310
37632W        W 9248   2.262  41.394  13.346
37633W        W 9249  38.605  34.699   0.411
37634W        W 9250  27.578   3.755   1.040
37635W        W 9251  18.153  44.230  11.128
37636W        W 9252   8.134  12.729   2.963
37637W        W 9253  27.118  42.287  11.549
37638W        W 9254  37.050  16.302  10.728
37639W        W 9255   3.350   6.958   1.738
37640W        W 9256  42.720  33.561  14.840
37641W        W 9257  30.281  21.253  13.872
37642W        W 9258  30.012   0.053  10.570
37643W        W 9259  33.790  11.727  12.490
37644W        W 9260  26.270  30.165   4.763
37645W        W 9261  29.100  11.481   4.893
37646W        W 9262   5.964  34.604  13.918
37647W        W 9263  35.656  14.412   2.243
37648W        W 9264   8.409  38.924  14.508
37649W        W 9265  13.202  36.025  12.083
37650W        W 9266   7.151  22.681  11.111
37651W        W 9267  30.450  27.439   2.729
37652W        W 9268   8.336  36.870  10.890
37653W        W 9269  16.184  25.499  10.699
37654W        W 9270  19.319  40.788   1.767
37655W        W 9271  41.991  33.178  12.937
37656W        W 9272  25.314  20.082  10.732
37657W        W 9273  37.541  27.226  11.054
37658W        W 9274  23.644  18.449   3.683
37659W        W 9275  26.838  19.590   3.765
37660W        W 9276  44.890  11.937  14.416
37661W        W 9277   5.719  42.887   0.307
37662W        W 9278   9.731  36.117  13.716
37663W        W 9279  16.605  36.807  10.690
37664W        W 9280  17.177  44.441  14.871
37665W        W 9281  10.761  23.009   2.255
37666W        W 9282  37.846   9.230  14.506
37667W        W 9283  43.546  21.663   2.300
37668W        W 9284  25.582  28.268   3.644
37669W        W 9285  13.451  40.796   2.165
37670W        W 9286   7.292  19.094   2.671
37671W        W 9287   2.408  36.767  14.850
37672W        W 9288  14.180   6.078   3.203
37673W        W 9289   4.729  15.196  13.399
37674W        W 9290   6.505   8.443   4.111
37675W        W 9291  44.251  20.398   3.356
37676W        W 9292   3.580   1.895   3.277
37677W        W 9293  16.136  17.581  12.538
37678W        W 9294   7.185  28.434   0.669
37679W        W 9295  32.986   8.198  13.815
37680W        W 9296   8.250  25.461  10.996
37681W        W 9297  12.337   2.809  10.942
37682W        W 9298  43.929   1.395   3.567
37683W        W 9299  15.756   8.563   2.858
37684W        W 9300   9.846  44.986   1.366
37685W        W 9301  21.905   5.200  13.285
37686W        W 9302  29.615  12.570   1.268
37687W        W 9303  35.365   1.727  11.910
37688W        W 9304  12.391  41.983   0.369
37689W        W 9305  38.248   1.518  11.069
37690W        W 9306  27.223  28.303  10.538
37691W        W 9307  38.395  33.007  11.940
37692W        W 9308  20.964  23.134   0.709
37693W        W 9309  13.072  39.223  11.516
37694W        W 9310   4.436  33.386  11.948
37695W        W 9311  28.144  37.335   5.373
37696W        W 9312  32.647  10.517   2.788
37697W        W 9313  37.832  32.109  10.494
37698W        W 9314  36.887  43.281  12.876
37699W        W 9315   8.309  25.520   3.793
37700W        W 9316  21.955  35.730  12.369
37701W        W 9317  37.834   8.943   3.689
37702W        W 9318   0.378   3.727   0.262
37703W        W 9319  41.612  31.553  13.396
37704W        W 9320  25.009  24.630   4.874
37705W        W 9321  37.067   2.940   4.695
37706W        W 9322  33.601  10.538  11.098
37707W        W 9323  37.920   7.351   2.466
37708W        W 9324  28.018  42.596   4.165
37709W        W 9325   1.873  21.372   1.720
37710W        W 9326  19.760  10.115   3.915
37711W        W 9327  19.755  29.346  12.462
37712W        W 9328  11.466  36.024  10.463
37713W        W 9329  29.020  31.604  10.330
37714W        W 9330  39.303  37.853   4.655
37715W        W 9331  31.014  18.048  10.625
37716W        W 9332  22.296   2.713   1.770
37717W        W 9333  27.735   4.739  12.462
37718W        W 9334  39.511   6.310   2.877
37719W        W 9335  33.228  43.420   0.255
37720W        W 9336  43.473  13.641   3.439
37721W        W 9337  16.776  24.903   1.249
37722W        W 9338  23.038  28.133  13.909
37723W        W 9339   5.927   8.904   1.322
37724W        W 9340  20.573  43.498  14.678
37725W        W 9341  25.685   0.086   1.265
37726W        W 9342  21.768  22.123   0.105
37727W        W 9343  41.834   0.840  11.580
37728W        W 9344  32.007  42.078   3.864
37729W        W 9345  42.556  16.712  12.608
37730W        W 9346  41.264  21.804  14.271
37731W        W 9347   2.791  18.240   3.787
37732W        W 9348  13.141   3.126  12.750
37733W        W 9349  35.408  38.341  12.572
37734W        W 9350   8.050  43.000   2.778
37735W        W 9351  29.158  19.314   0.551
37736W        W 9352  42.944  42.129   3.589
37737W        W 9353  27.034  40.468   4.142
37738W        W 9354  41.986   4.025  13.769
37739W        W 9355  40.878  40.854  11.189
37740W        W 9356  29.962  39.127   3.001
37741W        W 9357   8.123  35.902   0.790
37742W        W 9358  16.543  13.069   1.461
37743W        W 9359  35.475  31.139   4.122
37744W        W 9360  30.603   9.900   2.877
37745W        W 9361   4.510   9.433   4.672
37746W        W 9362  17.793  35.792  12.854
37747W        W 9363  18.652  31.983   9.985
37748W        W 9364  17.366   6.350   5.105
37749W        W 9365  30.173   6.935  11.278
37750W        W 9366   7.454  14.738  14.491
37751W        W 9367   1.924  35.828   0.631
37752W        W 9368   2.867  40.140  14.792
37753W        W 9369   3.722  19.708   3.371
37754W        W 9370   9.211   6.344  10.708
37755W        W 9371  13.091  12.570   0.738
37756W        W 9372  12.248   8.188  11.656
37757W        W 9373   5.410  31.366  11.541
37758W        W 9374  41.312  29.017   2.642
37759W        W 9375  20.770  34.086  12.968
37760W        W 9376  11.398   5.384   3.158
37761W        W 9377  28.658  40.680   2.849
37762W        W 9378  41.310  26.015  12.796
37763W        W 9379  31.424  43.441  14.194
37764W        W 9380   8.858  30.649  11.089
37765W        W 9381   9.442  17.377   0.579
37766W        W 9382  34.423  11.665  13.194
37767W        W 9383   9.152  21.729   3.111
37768W        W 9384  13.072  39.636  12.861
37769W        W 9385  14.651  11.337   1.565
37770W        W 9386  42.940   3.371   4.226
37771W        W 9387  23.175  19.466   0.230
37772W        W 9388  13.256  32.410  12.594
37773W        W 9389  21.378   4.209  11.091
37774W        W 9390  22.798  13.171   0.470
37775W        W 9391  16.486  17.795  13.099
37776W        W 9392   4.610   8.673   4.124
37777W        W 9393  36.803  18.765   4.131
37778W        W 9394  19.335  36.890   1.457
37779W        W 9395  23.935  28.479   3.536
37780W        W 9396   0.727  42.224  12.775
37781W        W 9397  39.115  16.827   1.424
37782W        W 9398   8.410  22.056   2.907
37783W        W 9399  41.754  30.540   5.045
37784W        W 9400  10.190  26.997  11.910
37785W        W 9401   1.289  30.905   4.829
37786W        W 9402  23.358  21.886   3.996
37787W        W 9403  39.473  35.607   2.869
37788W        W 9404  16.134  25.667   3.395
37789W        W 9405  36.808  43.415  10.706
37790W        W 9406  18.111  43.039   2.333
37791W        W 9407  12.331  23.965   1.212
37792W        W 9408  39.472  19.090  12.372
37793W        W 9409  42.579  14.663  11.702
37794W        W 9410  11.360  39.192   4.083
37795W        W 9411  34.147  29.304   4.863
37796W        W 9412   1.832  37.156  12.172
37797W        W 9413  10.268  20.928  13.583
37798W        W 9414  22.730  25.358  14.747
37799W        W 9415  30.970  39.204  10.962
37800W        W 9416  22.238   0.997   3.685
37801W        W 9417  41.837  16.700  10.618
37802W        W 9418  10.411  11.761   0.291
37803W        W 9419   7.329  14.660   1.832
37804W        W 9420  12.397  34.126  12.833
37805W        W 9421  42.231   9.900  12.108
37806W        W 9422  13.197  25.445   4.583
37807W        W 9423  11.858  39.269   3.743
37808W        W 9424   8.326  32.755   4.664
37809W        W 9425  11.883  18.121  14.481
37810W        W 9426  28.249  24.092  14.996
37811W        W 9427  38.350   2.396  12.839
37812W        W 9428   8.324  27.137  14.302
37813W        W 9429  35.777  29.447   1.974
37814W        W 9430  32.391  13.269   2.160
37815W        W 9431   8.460  24.188  12.034
37816W        W 9432  36.466  21.164  12.673
37817W        W 9433  29.613  40.146   3.840
37818W        W 9434  23.237  42.456   0.177
37819W        W 9435  11.627   2.264   3.181
37820W        W 9436  35.435  18.600   4.755
37821W        W 9437  37.859   3.250   3.287
37822W        W 9438  31.404  30.594   0.469
37823W        W 9439  21.074  20.527  14.978
37824W        W 9440  23.664  18.562   1.262
37825W        W 9441  25.763  20.856   2.291
37826W        W 9442  23.257  42.836   2.290
37827W        W 9443  29.915  11.632  11.416
37828W        W 9444  44.469  16.704  12.430
37829W        W 9445   2.980  11.812   3.636
37830W        W 9446  36.308  17.286   4.083
37831W        W 9447  11.340   4.825   4.443
37832W        W 9448  40.351  21.654  10.795
37833W        W 9449   4.528  19.325   2.354
37834W        W 9450   8.160   8.505   1.684
37835W        W 9451  25.065   6.709   4.274
37836W        W 9452  31.379  37.708   5.052
37837W        W 9453  33.418  32.555  13.596
37838W        W 9454  44.507   9.343   1.294
37839W        W 9455  42.774  20.581   0.782
37840W        W 9456  23.976  44.091   4.682
37841W        W 9457  21.255  20.602   3.175
37842W        W 9458  29.056  41.320   4.328
37843W        W 9459  33.664  15.610  13.806
37844W        W 9460  26.105  20.221  13.768
37845W        W 9461  41.428  12.198   1.740
37846W        W 9462  10.568   7.912   3.350
37847W        W 9463  28.695  29.493  11.536
37848W        W 9464  15.813   0.983   0.398
37849W        W 9465   1.209  24.230   4.203
37850W        W 9466   5.728  38.986   4.793
37851W        W 9467   4.244  24.850  13.020
37852W        W 9468  43.514  44.821   1.479
37853W        W 9469  16.324  33.599  13.035
37854W        W 9470  28.590  40.935   4.825
37855W        W 9471  28.611  35.168   1.805
37856W        W 9472  17.774   7.841  14.537
37857W        W 9473  34.584  26.129  11.854
37858W        W 9474   5.780  33.639  11.664
37859W        W 9475   6.970   8.800   0.456
37860W        W 9476  20.566  38.827   1.689
37861W        W 9477  29.164   4.429  12.718
37862W        W 9478  41.918  37.319  14.403
37863W        W 9479  17.010  31.463   0.759
37864W        W 9480  20.278  33.741   3.263
37865W        W 9481  11.224  20.271  10.914
37866W        W 9482  37.445  39.328   2.769
37867W        W 9483  36.372  21.740  14.601
37868W        W 9484  33.235  44.225  14.524
37869W        W 9485  41.428  29.937   3.722
37870W        W 9486  18.763   7.187   1.241
37871W        W 9487  29.031  41.556   0.250
37872W        W 9488   1.448  23.548  10.315
37873W        W 9489  20.230  35.815  14.874
37874W        W 9490  39.798   7.261   3.729
37875W        W 9491  39.024  32.981   4.572
37876W        W 9492   0.945  20.566   0.643
37877W        W 9493  30.677  33.085  12.691
37878W        W 9494  22.989  17.220  11.504
37879W        W 9495  23.291  11.386   1.781
37880W        W 9496  28.181  13.456  12.785
37881W        W 9497  16.014  17.726  14.935
37882W        W 9498   7.604  11.387  11.007
37883W        W 9499  24.901  15.614  11.488
37884W        W 9500  12.301  44.117   3.263
37885W        W 9501  20.368  35.980  10.216
37886W        W 9502  26.507  21.921   1.330
37887W        W 9503  15.503  26.936   0.990
37888W        W 9504  39.304  31.107   2.754
37889W        W 9505   1.737  20.017   0.972
37890W        W 9506  18.535  15.088  12.175
37891W        W 9507   6.250  29.242   2.746
37892W        W 9508  24.485  13.442  14.794
37893W        W 9509  30.135   3.007  14.932
37894W        W 9510  24.263  28.234  12.170
37895W        W 9511  13.815  35.491  13.021
37896W        W 9512   8.940  35.335  14.043
37897W        W 9513  39.443  13.798  10.577
37898W        W 9514  13.335  36.410  12.414
37899W        W 9515  40.097  31.881  14.017
37900W        W 9516   7.942  43.088  12.948
37901W        W 9517  23.041   1.432   4.271
37902W        W 9518  40.451  33.145  12.417
37903W        W 9519  37.142   3.875   4.135
37904W        W 9520  35.965   2.656  14.697
37905W        W 9521  41.944  28.984   4.606
37906W        W 9522  24.493  34.605   1.785
37907W        W 9523  30.507   0.684  14.892
37908W        W 9524  20.032  40.477   2.354
37909W        W 9525   3.864  26.764   0.025
37910W        W 9526  41.925  38.841   1.908
37911W        W 9527  43.812  43.764   3.737
37912W        W 9528  40.285  41.493   4.688
37913W        W 9529  30.008   3.010   3.597
37914W        W 9530  30.597   0.588  11.689
37915W        W 9531  29.584  33.818  10.495
37916W        W 9532   6.348  22.053   2.889
37917W        W 9533  22.447  32.488  11.152
37918W        W 9534  42.543  39.840  10.726
37919W        W 9535  30.792  43.733   4.145
37920W        W 9536   6.741   4.266   1.175
37921W        W 9537  34.503  26.728  14.646
37922W        W 9538   9.620  11.679   2.789
37923W        W 9539  37.945  43.724   2.773
37924W        W 9540   5.477  27.013  14.984
37925W        W 9541  25.737  24.617   0.319
37926W        W 9542  13.402  23.895  13.520
37927W        W 9543  34.225  22.152  10.707
37928W        W 9544   9.834  41.414  13.126
37929W        W 9545  26.111   1.223   2.577
37930W        W 9546  36.060   9.650  11.843
37931W        W 9547  14.131   2.475  14.841
37932W        W 9548  13.812   7.754  13.753
37933W        W 9549  29.561   1.518  11.646
37934W        W 9550  40.835   0.778   1.280
37935W        W 9551  38.583  13.848   1.460
37936W        W 9552   1.644   3.907  10.791
37937W        W 9553  32.994  42.777   4.234
37938W        W 9554  14.850   3.326   0.671
37939W        W 9555  39.407  40.460   3.532
37940W        W 9556  39.941  11.477  14.297
37941W        W 9557  31.014   6.505   2.350
37942W        W 9558  15.214   4.737  11.999
37943W        W 9559  25.323  30.137  12.123
37944W        W 9560  21.235   4.466   2.704
37945W        W 9561  13.846  22.350  13.062
37946W        W 9562  25.132  44.816  11.996
37947W        W 9563  28.163  13.340   3.103
37948W        W 9564  34.426   0.465   1.908
37949W        W 9565  20.175  35.783  14.349
37950W        W 9566  25.459  32.325  14.039
37951W        W 9567  37.613  23.902  13.766
37952W        W 9568  43.761   6.244   0.008
37953W        W 9569  29.791  16.019   2.406
37954W        W 9570  19.583  31.207   1.690
37955W        W 9571  36.826  41.027  14.836
37956W        W 9572   1.822  28.371   1.810
37957W        W 9573   7.139  35.796  12.918
37958W        W 9574  35.030   0.348   1.486
37959W        W 9575  24.206   8.189   2.836
37960W        W 9576  18.933  44.521  10.225
37961W        W 9577  11.117  29.516  10.627
37962W        W 9578  34.029   8.490  12.100
37963W        W 9579  41.913  23.564  14.538
37964W        W 9580  26.778  28.518   1.924
37965W        W 9581   8.626   0.255  13.454
37966W        W 9582  26.419  44.936   1.783
37967W        W 9583  37.719  25.495   0.671
37968W        W 9584  44.400  42.549  12.441
37969W        W 9585  10.389  33.255  11.425
37970W        W 9586  17.190  15.731  14.472
37971W        W 9587   6.753  41.743   3.113
37972W        W 9588  19.234  44.232   4.522
37973W        W 9589   7.622   6.513  12.142
37974W        W 9590  23.045  12.736  10.458
37975W        W 9591   1.563   4.540   3.509
37976W        W 9592  27.505  30.184   0.405
37977W        W 9593  44.599  12.855  10.018
37978W        W 9594  31.389  18.638  12.920
37979W        W 9595  14.066  17.248  11.930
37980W        W 9596  37.312  22.554  10.235
37981W        W 9597  25.572  37.880   4.674
37982W        W 9598  25.518  42.199  12.412
37983W        W 9599  21.766  34.825   2.979
37984W        W 9600  18.562   2.008  11.958
37985W        W 9601  25.722  25.141  12.972
37986W        W 9602   0.835  38.061  14.920
37987W        W 9603  38.876  32.528  11.646
37988W        W 9604  44.921   6.449   2.851
37989W        W 9605  43.203  11.378   4.652
37990W        W 9606  15.808  14.069  10.241
37991W        W 9607   3.113  23.549   4.857
37992W        W 9608  40.136  42.297   4.666
37993W        W 9609  14.882  18.550  13.975
37994W        W 9610   9.032   4.662  12.788
37995W        W 9611  42.153  31.378  11.860
37996W        W 9612  28.966  11.300   1.248
37997W        W 9613  23.156  42.128  14.797
37998W        W 9614   6.205  21.240  10.313
37999W        W 9615   5.271  29.416   4.568
38000W        W 9616   3.397  38.986  11.891
38001W        W 9617  28.507  38.886   2.381
38002W        W 9618   9.112  35.116  12.501
38003W        W 9619  41.185  35.838  14.173
38004W        W 9620   6.692  11.573  14.866
38005W        W 9621   5.029  41.333   2.315
38006W        W 9622  36.502  18.658   2.800
38007W        W 9623  16.142  30.557   4.688
38008W        W 9624  20.110   0.746   4.713
38009W        W 9625  37.379  26.536   4.654
38010W        W 9626   5.443  13.812   1.777
38011W        W 9627  43.878  11.099   0.448
38012W        W 9628  30.932   9.650   0.382
38013W        W 9629  12.220  20.251   0.777
38014W        W 9630  24.722  24.220  14.551
38015W        W 9631  11.903  26.597  13.098
38016W        W 9632   8.496   4.052  10.723
38017W        W 9633  27.011  20.962  10.763
38018W        W 9634   6.771  38.382  10.671
38019W        W 9635  39.511  31.133   0.924
38020W        W 9636  25.015  34.557  12.006
38021W        W 9637  42.434  25.133  13.529
38022W        W 9638  16.371  20.566   3.123
38023W        W 9639  20.618   6.194   3.716
38024W        W 9640  38.284  26.712   0.451
38025W        W 9641   5.606  33.111  12.563
38026W        W 9642   3.413  15.227  13.050
38027W        W 9643  25.107   9.900  12.148
38028W        W 9644   4.433   2.280  14.870
38029W        W 9645   3.200  40.487   2.635
38030W        W 9646   2.970  19.677   4.014
38031W        W 9647  35.486  13.564   1.299
38032W        W 9648   4.083  27.876   0.998
38033W        W 9649  43.955  32.224  11.021
38034W        W 9650  14.631  14.824  12.856
38035W        W 9651  41.243   4.313   3.598
38036W        W 9652  24.242  19.049   1.871
38037W        W 9653  42.937  43.372   0.153
38038W        W 9654  30.555  19.508   1.406
38039W        W 9655  16.164  16.055  14.080
38040W        W 9656  43.486  18.896   4.995
38041W        W 9657  25.023  11.241   4.104
38042W        W 9658  25.981   1.222   4.372
38043W        W 9659  41.271  33.464   4.064
38044W        W 9660  10.899  16.486   4.425
38045W        W 9661  11.306  42.950   1.189
38046W        W 9662  28.161  31.155  13.442
38047W        W 9663   7.405  38.495  12.516
38048W        W 9664  14.487  16.743  10.641
38049W        W 9665  44.848  27.907  10.803
38050W        W 9666   7.917  36.114   2.628
38051W        W 9667  24.743  14.708  13.033
38052W        W 9668  38.318   4.831   1.409
38053W        W 9669   7.639  12.555   1.370
38054W        W 9670  15.767  27.993  13.030
38055W        W 9671  38.426   3.661  11.119
38056W        W 9672  30.341   4.974  12.139
38057W        W 9673  24.006  10.319   0.479
38058W        W 9674   5.890  29.513   0.210
38059W        W 9675   8.694  28.911  12.897
38060W        W 9676  19.509  15.302   1.414
38061W        W 9677  10.219  10.447  10.465
38062W        W 9678   6.432   2.706  11.982
38063W        W 9679  13.633  22.726   0.158
38064W        W 9680  23.285  20.096   3.636
38065W        W 9681   0.386  41.344  12.780
38066W        W 9682  43.965   6.657   1.285
38067W        W 9683  12.822  23.362  13.890
38068W        W 9684   2.467   2.225   0.809
38069W        W 9685  23.000  15.382   0.483
38070W        W 9686  31.690  36.551  14.455
38071W        W 9687  34.812   0.327  14.334
38072W        W 9688   4.270  18.321   2.277
38073W        W 9689   3.321  44.107  14.799
38074W        W 9690  15.160  31.883  14.653
38075W        W 9691   4.667  21.155   3.853
38076W        W 9692   6.415  31.896   0.157
38077W        W 9693  16.223   5.687  11.896
38078W        W 9694   3.456   9.719  11.131
38079W        W 9695  37.159  40.483  14.094
38080W        W 9696  38.327  28.990  11.300
38081W        W 9697   3.484   4.953  14.506
38082W        W 9698   3.726  22.728  13.919
38083W        W 9699  27.004  16.629  12.524
38084W        W 9700  11.950  27.068  12.365
38085W        W 9701   8.594  43.496  14.603
38086W        W 9702   2.677  43.761   0.898
38087W        W 9703  43.785   8.133  11.982
38088W        W 9704  29.293  33.541   3.638
38089W        W 9705  41.554  10.346   2.596
38090W        W 9706  36.970  25.344   4.842
38091W        W 9707  16.247   9.129  11.978
38092W        W 9708  11.622  10.344  13.963
38093W        W 9709  24.008  26.643  14.715
38094W        W 9710  10.847  10.205   1.583
38095W        W 9711  20.760  44.518  13.599
38096W        W 9712  22.719  39.019   4.989
38097W        W 9713  40.831  10.259  12.816
38098W        W 9714  22.081  21.532   0.780
38099W        W 9715  28.177  14.050   4.634
38100W        W 9716  33.264  17.801   4.838
38101W        W 9717  13.364  43.098   0.684
38102W        W 9718  29.613   7.774  11.985
38103W        W 9719   3.286   7.503  14.824
38104W        W 9720   5.306  25.978   2.090
38105W        W 9721  41.343  44.024  14.401
38106W        W 9722  15.623  18.083   0.077
38107W        W 9723   5.702  11.946   4.868
38108W        W 9724   3.317  18.273   2.351
38109W        W 9725  28.478  18.174  10.872
38110W        W 9726  38.033  35.614   4.028
38111W        W 9727  41.360   6.687  14.351
38112W        W 9728  28.459   5.868  12.126
38113W        W 9729   5.630   2.297  12.097
38114W        W 9730  13.851  38.516   3.371
38115W        W 9731  14.719  12.200   2.176
38116W        W 9732  28.257  21.845  11.684
38117W        W 9733  37.828   2.281  11.434
38118W        W 9734  15.841   7.729   3.280
38119W        W 9735  42.484  25.062   1.955
38120W        W 9736  44.523  14.729   2.824
38121W        W 9737  31.302  36.633   4.297
38122W        W 9738   2.798  17.749   2.826
38123W        W 9739  29.956  14.844   0.375
38124W        W 9740  33.740   1.479  11.524
38125W        W 9741  29.017  22.504  10.509
38126W        W 9742  12.059   0.385   2.334
38127W        W 9743  14.103  27.494  14.852
38128W        W 9744  38.777  24.019  11.512
38129W        W 9745  19.271   5.877   0.171
38130W        W 9746   6.221  16.070  11.924
38131W        W 9747  32.005  27.625  11.144
38132W        W 9748  43.414  19.938  12.386
38133W        W 9749  21.588  42.006  11.163
38134W        W 9750  34.010   1.306   1.835
38135W        W 9751  34.490  42.327   4.498
38136W        W 9752  13.183  41.185  13.759
38137W        W 9753  41.709   9.109  13.151
38138W        W 9754  44.994  20.743  11.467
38139W        W 9755   9.606  40.838  12.466
38140W        W 9756  41.368  10.625  10.390
38141W        W 9757  42.571   0.340  14.053
38142W        W 9758  24.790  39.460  11.178
38143W        W 9759  24.662   8.872  13.959
38144W        W 9760  30.985   4.677  14.481
38145W        W 9761  20.407  12.081   2.717
38146W        W 9762  23.984  24.968  11.547
38147W        W 9763  16.169   0.140   3.416
38148W        W 9764  25.949  31.027   2.668
38149W        W 9765   0.237  29.622  12.068
38150W        W 9766   6.242   0.202  11.575
38151W        W 9767  21.722  12.175  13.343
38152W        W 9768  18.306   4.755  12.655
38153W        W 9769  35.025  37.934  12.890
38154W        W 9770  18.026   4.643  13.586
38155W        W 9771  37.319  36.563   3.602
38156W        W 9772   7.443  20.765  11.915
38157W        W 9773  36.954  39.807  10.509
38158W        W 9774  27.658   7.893   2.165
38159W        W 9775   2.320  12.462  11.144
38160W        W 9776  28.666  42.082   1.926
38161W        W 9777   8.350  14.604   3.175
38162W        W 9778  39.898  12.094  10.664
38163W        W 9779  38.836   3.615  10.572
38164W        W 9780  14.296  41.471  14.907
38165W        W 9781   8.756  28.998   4.336
38166W        W 9782  32.100  13.780  14.385
38167W        W 9783  43.070  29.639  14.497
38168W        W 9784  22.668  33.170   0.144
38169W        W 9785   8.181  41.887   1.283
38170W        W 9786   2.029  25.903   5.081
38171W        W 9787  18.575  42.458  14.317
38172W        W 9788  12.260  37.358   2.158
38173W        W 9789  25.330  17.235   4.240
38174W        W 9790  38.095  33.460   1.424
38175W        W 9791  21.938  31.492   1.749
38176W        W 9792   7.425  39.352  12.279
38177W        W 9793   5.803  40.973  14.866
38178W        W 9794  28.820  44.053  13.107
38179W        W 9795   4.764  38.062   3.638
38180W        W 9796   1.541  42.047   1.078
38181W        W 9797  26.761  22.077  14.722
38182W        W 9798  22.062  27.147   2.292
38183W        W 9799   8.155   9.673   2.794
38184W        W 9800  25.780   8.627   3.167
38185W        W 9801  38.507   2.010   2.820
38186W        W 9802  22.809  28.647  12.578
38187W        W 9803   6.926  11.928  10.378
38188W        W 9804   0.858  34.856   2.219
38189W        W 9805  23.951  35.135  14.112
38190W        W 9806  42.974   9.253   4.107
38191W        W 9807  38.956  39.274  10.043
38192W        W 9808   7.807  27.433   4.739
38193W        W 9809  13.150   7.238  10.271
38194W        W 9810  20.847  42.288   3.224
38195W        W 9811  31.475  16.631   3.132
38196W        W 9812  16.444  32.440   4.518
38197W        W 9813  13.316  35.043  10.276
38198W        W 9814  42.232  31.141   2.390
38199W        W 9815  25.311   2.019  13.408
38200W        W 9816   9.657  13.733  14.400
38201W        W 9817  15.772  41.936   4.933
38202W        W 9818  23.694  22.049  14.943
38203W        W 9819  17.455  28.541   1.934
38204W        W 9820  42.522  43.513  12.558
38205W        W 9821   8.762  41.718  12.775
38206W        W 9822  41.945   7.535  10.238
38207W        W 9823  30.499  36.308  12.996
38208W        W 9824  15.565   9.885  13.983
38209W        W 9825  34.455  38.571  11.189
38210W        W 9826   9.102  31.006   1.380
38211W        W 9827  14.896  14.383   4.424
38212W        W 9828  22.764   5.329   3.657
38213W        W 9829  36.344  31.352   0.839
38214W        W 9830   0.976  39.021   0.177
38215W        W 9831  25.988  35.306  14.508
38216W        W 9832  39.543   5.722   2.301
38217W        W 9833  17.861  13.036   3.343
38218W        W 9834  13.801   3.686   9.720
38219W        W 9835   5.891   9.647   4.245
38220W        W 9836  18.618  42.296   2.201
38221W        W 9837  23.120  36.455  13.617
38222W        W 9838   7.480   1.327   4.554
38223W        W 9839   9.781  37.876   0.263
38224W        W 9840  42.967  38.048   5.082
38225W        W 9841  18.834   0.794   2.694
38226W        W 9842   8.646  40.342  11.518
38227W        W 9843  31.011   0.901  14.948
38228W        W 9844   0.858  36.929  10.397
38229W        W 9845   4.496  21.583   1.714
38230W        W 9846  41.544   8.350   2.696
38231W        W 9847  25.654  30.918  10.794
38232W        W 9848  39.431   3.427  12.842
38233W        W 9849  20.488  21.260  12.127
38234W        W 9850  31.058  42.693   4.813
38235W        W 9851  43.351  42.995  13.488
38236W        W 9852  40.336  20.637   4.768
38237W        W 9853  12.606  44.027  14.394
38238W        W 9854  29.228  42.252  14.821
38239W        W 9855   7.293  28.408  13.532
38240W        W 9856   1.481   2.292   2.223
38241W        W 9857  21.604  11.335   3.340
38242W        W 9858   4.291  26.752  11.003
38243W        W 9859  27.222  41.918   1.220
38244W        W 9860  43.925   1.732  13.366
38245W        W 9861  32.031  27.811   0.575
38246W        W 9862  16.136   3.874   2.804
38247W        W 9863   1.554  42.544  13.052
38248W        W 9864  42.828  39.067   3.457
38249W        W 9865  39.971  16.126   0.371
38250W        W 9866  12.712  44.940  14.854
38251W        W 9867  38.621  41.322   1.652
38252W        W 9868  23.266   4.800   4.223
38253W        W 9869  14.875  41.793  12.259
38254W        W 9870  35.453  17.234   2.360
38255W        W 9871  12.185   9.178   0.951
38256W        W 9872  32.892  25.501   1.859
38257W        W 9873  42.197  28.521   0.968
38258W        W 9874  36.609   0.830   1.926
38259W        W 9875  42.072  14.636   0.490
38260W        W 9876  43.828  29.164   4.518
38261W        W 9877  41.408  27.045  12.115
38262W        W 9878  44.413  27.953   2.354
38263W        W 9879  12.728  37.253   2.836
38264W        W 9880   5.212   4.182  14.744
38265W        W 9881  44.697  42.384  10.503
38266W        W 9882  19.199   5.701  14.160
38267W        W 9883  15.185  15.324   1.741
38268W        W 9884   7.371   2.968  14.001
38269W        W 9885   5.666  12.601   0.331
38270W        W 9886  25.496  11.945  10.728
38271W        W 9887   2.428  38.511  11.701
38272W        W 9888   9.570  43.741   2.428
38273W        W 9889  38.952  19.068  10.233
38274W        W 9890  39.364  34.688  14.042
38275W        W 9891  13.666   2.429   0.030
38276W        W 9892   6.178   8.676  10.425
38277W        W 9893  38.414   8.832   0.522
38278W        W 9894  14.103  34.404  12.957
38279W        W 9895   2.859  13.160  10.813
38280W        W 9896  25.580  25.992   3.416
38281W        W 9897   0.944  22.235   1.341
38282W        W 9898  15.859  17.674  12.089
38283W        W 9899  19.277  37.697   0.433
38284W        W 9900  42.930  44.528  13.943
38285W        W 9901  28.478  23.525   0.933
38286W        W 9902  13.448  40.074   2.716
38287W        W 9903  10.715  37.621   2.692
38288W        W 9904  43.082  22.617  11.487
38289W        W 9905  22.406   1.997   3.294
38290W        W 9906  27.624  10.268   1.484
38291W        W 9907  22.489   2.713   0.443
38292W        W 9908  15.746  25.012   2.373
38293W        W 9909  13.756  20.084   0.388
38294W        W 9910   3.635  17.152  10.342
38295W        W 9911  40.195  15.707  14.821
38296W        W 9912   9.899  18.662   2.282
38297W        W 9913  20.722  31.383  11.102
38298W        W 9914  26.302  39.536  10.724
38299W        W 9915  41.362   5.968  11.966
38300W        W 9916   3.237  42.716  13.497
38301W        W 9917  43.408  27.708   4.208
38302W        W 9918  43.766  39.477   4.638
38303W        W 9919  28.796  20.959   0.777
38304W        W 9920  33.998   8.573   2.597
38305W        W 9921  12.175  34.402   1.337
38306W        W 9922   4.702   0.224   3.839
38307W        W 9923   1.463  43.691   9.944
38308W        W 9924  17.256  11.834  12.146
38309W        W 9925  34.379  15.728  11.688
38310W        W 9926  39.343  30.736   2.388
38311W        W 9927  12.637  40.514  11.414
38312W        W 9928   8.474  44.882  11.902
38313W        W 9929  37.418  38.467   4.829
38314W        W 9930  10.835   1.213  11.516
38315W        W 9931  44.438  39.220  12.436
38316W        W 9932  15.598  40.545   1.392
38317W        W 9933  21.562  12.053   0.711
38318W        W 9934  31.187  17.061   3.726
38319W        W 9935   7.230  39.370  14.948
38320W        W 9936  41.771   2.947  12.042
38321W        W 9937  43.325   5.521  11.995
38322W        W 9938  43.993   9.650   4.527
38323W        W 9939  38.973  36.142  10.747
38324W        W 9940  29.399  10.490   0.965
38325W        W 9941  43.367  43.826   3.482
38326W        W 9942  22.276  10.380  11.092
38327W        W 9943  26.960  34.051  14.705
38328W        W 9944  35.842  38.120  12.365
38329W        W 9945  13.703  14.098  11.873
38330W        W 9946  15.200  34.847  11.206
38331W        W 9947  31.108  27.679   0.655
38332W        W 9948  29.078  31.575  12.507
38333W        W 9949   1.959  12.845  11.162
38334W        W 9950  15.163  17.720  14.261
38335W        W 9951   1.541  21.754   1.803
38336W        W 9952  15.193  37.584   4.709
38337W        W 9953  18.641   3.174   1.450
38338W        W 9954  43.930  32.501   2.797
38339W        W 9955  30.141   6.769  11.800
38340W        W 9956  39.168  15.891  14.989
38341W        W 9957  22.504   7.628  11.855
38342W        W 9958  36.106  12.448   1.503
38343W        W 9959  16.650   6.298  10.349
38344W        W 9960  10.868  15.752  11.113
38345W        W 9961  21.533  30.939  14.586
38346W        W 9962   4.681  44.760   4.626
38347W        W 9963   5.722  44.324   2.951
38348W        W 9964  20.843  40.483   2.925
38349W        W 9965   2.166  44.701  11.923
38350W        W 9966  18.627  10.095  14.927
38351W        W 9967  15.493  32.396   4.963
38352W        W 9968  16.526  25.101  14.201
38353W        W 9969  42.011   2.492  12.956
38354W        W 9970   4.646  32.506  12.989
38355W        W 9971  33.574  43.949   5.078
38356W        W 9972  17.674  39.208  14.769
38357W        W 9973   7.540  29.903   0.868
38358W        W 9974  39.582  16.561   3.142
38359W        W 9975   4.544  24.945   4.182
38360W        W 9976  14.270  22.035  13.489
38361W        W 9977   3.040  16.187   1.742
38362W        W 9978   2.666  34.409  11.070
38363W        W 9979   6.499   3.954  12.948
38364W        W 9980  15.332  12.701   4.792
38365W        W 9981  25.942   3.533  11.633
38366W        W 9982  31.975  30.134   1.187
38367W        W 9983  24.111   4.984   2.972
38368W        W 9984  27.607  25.691  14.979
38369W        W 9985  15.569  18.944   2.297
38370W        W 9986  28.062  15.138   4.381
38371W        W 9987   4.771  16.750   0.499
38372W        W 9988  16.546  17.311  12.916
38373W        W 9989  13.969   2.063  11.108
38374W        W 9990  15.848  13.367   4.566
38375W        W 9991  21.932  19.156   0.978
38376W        W 9992   1.169  16.588  13.531
38377W        W 9993  18.489  33.903   1.599
38378W        W 9994  42.579  42.054   0.389
38379W        W 9995   8.144  31.627   0.711
38380W        W 9996  44.588  32.965  12.546
38381W        W 9997  27.190   3.727  13.280
38382W        W 9998  26.219   3.799   3.236
38383W        W 9999   4.732  31.496   4.583
38384W        W10000  40.931   4.704   2.312
38385W        W10001  20.979  24.958   0.317
38386W        W10002  42.424  27.941   3.921
38387W        W10003   2.346  16.007   2.222
38388W        W10004  29.972  41.328   2.213
38389W        W10005  26.968  39.381  11.833
38390W        W10006   0.365  14.721  11.834
38391W        W10007  39.979  21.202  12.066
38392W        W10008  24.620  29.898  14.595
38393W        W10009  20.364  25.495  14.916
38394W        W10010   0.063  42.334   0.558
38395W        W10011  33.126  21.819  13.903
38396W        W10012  37.152  27.892   0.298
38397W        W10013  29.366  19.752  14.374
38398W        W10014   3.223  17.812   1.433
38399W        W10015  22.064   7.573  12.121
38400W        W10016  13.672  14.759  14.596
38401W        W10017  36.844  37.607  11.514
38402W        W10018  19.328  17.770  10.707
38403W        W10019  40.525  10.987   1.317
38404W        W10020  14.164  17.545   5.165
38405W        W10021   4.354  33.978   2.765
38406W        W10022  34.897  42.820   4.467
38407W        W10023  39.902  38.421   2.887
38408W        W10024  38.821  15.298   0.923
38409W        W10025  24.425  37.892  12.459
38410W        W10026   8.206   4.873  13.035
38411W        W10027  35.396  35.714   1.773
38412W        W10028  24.821  18.087  12.039
38413W        W10029  25.444   0.729  14.303
38414W        W10030  20.648  32.666  11.999
38415W        W10031  22.288  15.890  10.603
38416W        W10032  34.521  30.035   4.120
38417W        W10033   8.699   4.937  11.362
38418W        W10034  25.925  13.733   1.397
38419W        W10035  29.519  10.191   2.004
38420W        W10036  23.056   5.271   0.291
38421W        W10037  42.535  24.054   2.385
38422W        W10038   9.099  44.342  14.281
38423W        W10039  43.785  19.082  12.082
38424W        W10040   4.158  21.987   0.901
38425W        W10041  39.699  25.097  14.265
38426W        W10042  22.635  13.746   1.719
38427W        W10043  15.265  14.116  13.970
38428W        W10044  22.076  24.052  14.583
38429W        W10045  10.276  19.106   2.532
38430W        W10046  32.900  23.072   4.583
38431W        W10047  15.714  19.813  12.427
38432W        W10048  33.323  27.000  11.489
38433W        W10049  23.105   9.422  13.501
38434W        W10050  20.975  26.388  11.629
38435W        W10051  25.782  13.154   3.674
38436W        W10052  36.285   2.542  14.312
38437W        W10053  29.709   1.909   2.405
38438W        W10054   4.361  33.259  14.380
38439W        W10055  33.393  32.569   3.900
38440W        W10056  13.937  25.046   3.545
38441W        W10057  10.652  42.528  14.093
38442W        W10058  21.229  35.612  11.086
38443W        W10059  34.506  16.615   1.225
38444W        W10060  24.510  30.063  12.980
38445W        W10061  23.220  27.222  10.596
38446W        W10062  25.393   8.799   4.069
38447W        W10063  13.048  20.656   2.746
38448W        W10064  13.598  25.954   2.886
38449W        W10065  19.257  21.125  13.969
38450W        W10066  22.630   8.392   3.635
38451W        W10067   2.522   7.774  11.488
38452W        W10068   4.784  37.484  11.348
38453W        W10069  35.004  30.647   0.881
38454W        W10070  13.682  24.283  14.361
38455W        W10071   9.828  12.759   1.717
38456W        W10072  33.859   9.293  10.548
38457W        W10073  37.835   4.228   1.786
38458W        W10074  22.679  10.778  12.958
38459W        W10075   3.025  39.921  14.364
38460W        W10076  44.649  11.650   4.030
38461W        W10077  22.284  14.615   4.635
38462W        W10078  26.226  14.884  13.028
38463W        W10079  24.101  12.794   2.631
38464W        W10080  40.924  31.176   4.203
38465W        W10081   3.449   4.291  11.622
38466W        W10082  41.692   0.193   0.091
38467W        W10083  24.196  37.018  12.193
38468W        W10084  36.975   9.894   0.671
38469W        W10085  22.732  22.705  14.611
38470W        W10086  33.572  18.273   0.485
38471W        W10087  19.340  11.601  11.925
38472W        W10088  13.830  40.118   1.249
38473W        W10089  23.364  35.519  12.724
38474W        W10090  26.420  32.631  10.756
38475W        W10091  38.489  10.428   0.413
38476W        W10092  43.938  32.516  12.989
38477W        W10093  22.325  11.330  13.520
38478W        W10094   5.617   7.369   0.479
38479W        W10095   4.462  14.277  12.453
38480W        W10096  11.798   6.619   0.070
38481W        W10097  22.480  18.653   0.754
38482W        W10098  29.241  32.968   3.648
38483W        W10099  26.055   0.194   2.432
38484W        W10100  35.149  44.901   1.756
38485W        W10101   3.130  44.064   4.678
38486W        W10102  27.685  19.978   0.683
38487W        W10103  24.547  41.757  13.911
38488W        W10104  23.141  22.138  12.173
38489W        W10105  31.006  39.557   3.747
38490W        W10106  24.504  35.086  11.543
38491W        W10107  21.070  11.853   0.697
38492W        W10108  21.676  42.283   2.863
38493W        W10109  22.536  25.603   0.957
38494W        W10110  30.685  17.022  12.000
38495W        W10111  22.122  16.218  13.598
38496W        W10112  27.473  41.601   3.277
38497W        W10113  33.874  26.607   3.146
38498W        W10114  28.274  13.283   0.401
38499W        W10115  39.419  26.995   2.838
38500W        W10116  31.502   8.336   4.670
38501W        W10117   2.323  39.436   3.220
38502W        W10118   2.223  33.798   4.159
38503W        W10119  12.821   4.683  14.431
38504W        W10120  16.042  16.562   3.345
38505W        W10121   0.785   2.022   2.731
38506W        W10122  43.914   0.442  12.911
38507W        W10123  33.674  11.597   2.851
38508W        W10124   4.638  30.970   4.436
38509W        W10125  30.994  33.512  12.159
38510W        W10126  23.498  11.440   3.019
38511W        W10127   5.503  18.723   1.634
38512W        W10128  28.409  38.048   2.501
38513W        W10129  19.230  12.205   1.624
38514W        W10130  14.279  17.765   0.424
38515W        W10131  38.383  18.088   1.999
38516W        W10132  20.594  14.844   3.161
38517W        W10133  17.148   9.769  13.087
38518W        W10134  41.200  11.136   0.256
38519W        W10135  10.234  27.337  13.146
38520W        W10136  21.555  36.267   0.812
38521W        W10137  38.277  24.194   1.280
38522W        W10138   2.647  21.223  10.762
38523W        W10139  42.843  20.094   0.528
38524W        W10140  23.208   5.829  11.100
38525W        W10141  17.997   2.639  14.394
38526W        W10142  33.253  12.054  11.942
38527W        W10143  38.308   3.824   2.833
38528W        W10144  12.235  26.516  13.511
38529W        W10145  43.753   6.737  14.799
38530W        W10146   7.788  33.970  14.037
38531W        W10147   7.931  27.977  10.648
38532W        W10148   1.259  16.274   3.846
38533W        W10149  30.564  13.180   1.889
38534W        W10150  41.847   6.176  12.682
38535W        W10151  42.844  43.852   3.675
38536W        W10152  20.471  20.077  10.736
38537W        W10153  10.225  39.612   1.644
38538W        W10154  10.136  21.535   2.797
38539W        W10155  17.053  20.139   0.650
38540W        W10156  32.418  33.621   3.189
38541W        W10157  44.740   9.342   1.757
38542W        W10158  43.783  34.841   3.516
38543W        W10159  14.101  17.867   5.565
38544W        W10160   7.692  38.078  12.673
38545W        W10161  35.007  23.619   1.917
38546W        W10162  32.102  19.756  12.997
38547W        W10163  20.615  20.306  14.883
38548W        W10164  41.131  14.779   0.371
38549W        W10165  42.234  33.493  13.459
38550W        W10166  31.553  35.359  11.628
38551W        W10167  25.052  16.249  13.588
38552W        W10168   4.164  23.182   2.849
38553W        W10169  18.741  37.090  14.840
38554W        W10170  32.912  20.601  10.983
38555W        W10171  19.572  42.422   4.668
38556W        W10172  20.680  31.879  11.065
38557W        W10173  24.143  15.648   4.547
38558W        W10174   5.410  20.525   2.246
38559W        W10175  40.491  38.797   2.580
38560W        W10176  30.961   9.083   2.757
38561W        W10177   9.864  41.394   3.733
38562W        W10178   6.780  20.823   4.650
38563W        W10179  10.144   7.229   0.100
38564W        W10180  15.627   5.956  14.944
38565W        W10181  33.464  32.351   0.979
38566W        W10182  24.174  16.552   1.206
38567W        W10183  28.062  39.770  13.520
38568W        W10184  27.918   0.926  10.378
38569W        W10185   1.679  27.965   4.249
38570W        W10186  35.444  40.839  10.754
38571W        W10187   8.341  12.366   2.681
38572W        W10188  16.085  38.970  11.576
38573W        W10189  18.663  22.971  13.457
38574W        W10190   7.847  16.928  12.044
38575W        W10191  34.962  41.312  14.462
38576W        W10192  21.824   2.898   2.594
38577W        W10193  40.807  10.535  13.409
38578W        W10194   6.422  26.017  10.723
38579W        W10195  25.889  27.443  11.512
38580W        W10196  32.591  40.501  13.473
38581W        W10197  18.102  11.840   2.776
38582W        W10198  26.526  17.530  11.633
38583W        W10199  20.542  17.270   3.375
38584W        W10200  34.549  38.015  13.112
38585W        W10201  37.354  23.824  12.931
38586W        W10202   3.160  31.670   3.856
38587W        W10203  40.341   8.620  13.371
38588W        W10204   1.499  26.436   4.344
38589W        W10205   1.414  13.082  14.998
38590W        W10206  12.338   1.164   1.367
38591W        W10207  39.046  25.530   0.691
38592W        W10208  12.212  22.004   3.689
38593W        W10209   3.450   4.939  11.192
38594W        W10210  39.948  43.374  13.295
38595W        W10211  17.014  40.242  13.081
38596W        W10212  34.650   6.427  11.589
38597W        W10213  14.686  14.084   2.143
38598W        W10214  17.765   3.934   1.864
38599W        W10215  31.385  28.123  13.623
38600W        W10216  30.555   5.654   1.002
38601W        W10217  43.824   0.244   3.241
38602W        W10218  12.408  23.968  14.699
38603W        W10219  33.819  23.493  12.445
38604W        W10220  38.306  29.391   4.785
38605W        W10221  33.858  11.130   1.301
38606W        W10222  20.497  17.281   4.673
38607W        W10223  23.650  13.814   0.735
38608W        W10224  30.446  12.302   1.409
38609W        W10225   5.745  14.698  13.327
38610W        W10226  21.083  20.033  13.843
38611W        W10227  28.590   8.912  10.951
38612W        W10228   3.002   8.874  11.084
38613W        W10229   6.302  39.423  13.057
38614W        W10230  29.572  29.980  10.428
38615W        W10231  26.511  21.140  12.322
38616W        W10232   5.885  40.794   4.135
38617W        W10233  29.905  37.430  11.935
38618W        W10234   9.090  19.061   2.191
38619W        W10235  21.145  21.303  14.311
38620W        W10236  12.844  23.650   0.350
38621W        W10237  32.558  43.374  14.768
38622W        W10238   5.275  21.596  12.824
38623W        W10239  39.780  34.855   0.761
38624W        W10240  35.508  33.091  14.519
38625W        W10241   5.371  43.097   0.953
38626W        W10242   6.367  35.155   2.380
38627W        W10243  25.947  27.165   0.903
38628W        W10244  41.884  37.017  12.404
38629W        W10245  19.624  39.768   0.733
38630W        W10246  40.766  34.996  13.786
38631W        W10247  40.035   8.760   1.316
38632W        W10248  25.063  26.486  12.812
38633W        W10249  13.591   1.291   4.413
38634W        W10250  42.771  33.595  12.572
38635W        W10251  14.627  42.297   4.543
38636W        W10252  33.542  37.478   3.329
38637W        W10253  30.540   8.783  13.664
38638W        W10254  21.499  40.454  11.774
38639W        W10255   1.662   4.043  12.175
38640W        W10256   3.441   1.149  13.734
38641W        W10257  30.011   7.823  13.638
38642W        W10258  42.416   0.543   2.345
38643W        W10259  36.025  21.185  12.958
38644W        W10260  37.532  28.251   0.324
38645W        W10261  33.889   2.310   0.937
38646W        W10262  26.433  17.723  11.166
38647W        W10263  10.729  17.064  12.580
38648W        W10264  41.466  31.180   4.311
38649W        W10265  21.250  23.778   0.008
38650W        W10266  27.730  42.927   2.219
38651W        W10267  10.282  44.711  10.930
38652W        W10268   1.717  34.779  11.389
38653W        W10269   2.980  25.614   3.179
38654W        W10270  29.292  27.118   2.204
38655W        W10271  24.724  35.363  11.145
38656W        W10272   8.361   1.051   1.102
38657W        W10273   2.281  30.106  12.038
38658W        W10274  17.679  13.540   0.207
38659W        W10275  34.399  10.690  14.464
38660W        W10276  16.774  35.356   4.676
38661W        W10277   1.624   4.545   0.770
38662W        W10278  12.620   1.935  11.073
38663W        W10279   2.183  11.827  13.518
38664W        W10280  33.087  21.215   2.359
38665W        W10281  11.052  42.064  13.229
38666W        W10282  18.014  37.085  10.699
38667W        W10283  40.877  32.021  12.075
38668W        W10284   5.996   3.687  13.845
38669W        W10285  11.638  41.654  12.103
38670W        W10286   2.999  36.531   2.832
38671W        W10287   7.701   3.776   0.665
38672W        W10288  13.395  25.914  14.300
38673W        W10289  16.999  43.404   2.693
38674W        W10290  25.055  31.945   1.725
38675W        W10291  42.063  39.534   0.328
38676W        W10292  40.990  10.926   2.482
38677W        W10293   9.736  39.063  11.778
38678W        W10294  44.197  25.985   3.227
38679W        W10295  21.701   4.777  14.940
38680W        W10296  33.350   3.703  11.398
38681W        W10297  44.776  43.906   3.909
38682W        W10298  29.147  28.851  14.928
38683W        W10299   6.429   6.367  11.632
38684W        W10300  43.983   9.437   2.434
38685W        W10301   0.310  24.614   5.283
38686W        W10302  14.901  24.032   1.834
38687W        W10303  26.984  11.827   3.645
38688W        W10304  18.770  17.783   3.618
38689W        W10305  30.243  12.485   0.391
38690W        W10306  36.080  32.970  11.444
38691W        W10307  20.120  22.541   9.972
38692W        W10308   2.973   4.817  13.727
38693W        W10309  39.074   9.539   4.691
38694W        W10310  21.971  14.837   2.724
38695W        W10311  24.580   3.909   3.620
38696W        W10312  16.551  44.507  10.533
38697W        W10313  28.258  26.925   3.570
38698W        W10314   2.271  14.212  13.107
38699W        W10315  32.365  21.215   1.696
38700W        W10316  16.701   2.572   1.404
38701W        W10317  41.210  40.365   2.309
38702W        W10318  42.915  44.470  10.910
38703W        W10319  33.085  34.587  12.764
38704W        W10320  12.191  29.747   4.658
38705W        W10321  31.111   7.288   3.381
38706W        W10322  37.450  10.718   2.801
38707W        W10323  19.805   2.648   0.868
38708W        W10324   6.335  11.012  11.601
38709W        W10325  13.847  16.329  11.176
38710W        W10326  35.628  13.251   0.564
38711W        W10327  34.767  39.888   3.796
38712W        W10328   2.663  24.193  12.511
38713W        W10329  16.072   2.193  11.958
38714W        W10330  42.283  15.334   2.871
38715W        W10331  35.886  28.203   2.810
38716W        W10332  39.484  43.449  13.832
38717W        W10333  44.555   3.343   4.074
38718W        W10334  27.603   0.857   3.252
38719W        W10335  26.898  23.671   2.309
38720W        W10336  36.932   4.719   3.262
38721W        W10337  29.410   3.697  12.378
38722W        W10338  14.172  29.161   0.737
38723W        W10339  33.337  43.774   4.068
38724W        W10340  21.625  31.473  14.501
38725W        W10341  39.440  14.575  14.807
38726W        W10342  38.500  28.701   4.286
38727W        W10343  41.149  20.636   3.719
38728W        W10344   0.484  14.913   2.881
38729W        W10345  40.645  15.531  14.546
38730W        W10346   9.886  44.550   4.899
38731W        W10347  16.564  19.987  12.195
38732W        W10348  36.975  17.443  13.207
38733W        W10349   0.935   1.395   0.741
38734W        W10350   3.346  17.803  13.590
38735W        W10351  17.654  31.526   2.445
38736W        W10352  40.562  39.160  12.612
38737W        W10353  37.925  40.978  10.499
38738W        W10354  23.492  30.581   0.500
38739W        W10355  15.557  33.602  10.920
38740W        W10356   8.099  21.041  12.874
38741W        W10357  32.642  12.217  12.884
38742W        W10358  40.417  26.226   1.529
38743W        W10359  10.091  17.990   4.659
38744W        W10360  37.492  38.196  11.363
38745W        W10361  13.121   9.696   3.201
38746W        W10362   0.822  12.771  11.185
38747W        W10363  23.195  33.939   3.588
38748W        W10364   5.184   0.156   4.616
38749W        W10365  38.272  36.184  11.054
38750W        W10366  23.730   0.436  10.621
38751W        W10367  32.655  42.348  13.434
38752W        W10368  37.053  17.399   3.021
38753W        W10369  14.845  40.224   3.878
38754W        W10370  24.727  17.636   1.259
38755W        W10371  29.366   0.362  13.506
38756W        W10372  23.212  35.366   0.750
38757W        W10373  11.808  17.314   0.771
38758W        W10374  20.189   6.809  13.244
38759W        W10375   5.293  39.600  13.386
38760W        W10376  28.238  10.807   0.963
38761W        W10377  35.070  26.699  14.880
38762W        W10378   5.120  13.593  12.192
38763W        W10379  33.294  17.173   1.368
38764W        W10380  34.094   1.863  11.517
38765W        W10381   0.785  29.629   0.258
38766W        W10382  34.149   3.489   0.499
38767W        W10383  38.331  43.696  11.153
38768W        W10384  44.937  41.512  12.104
38769W        W10385   2.464  21.497   3.598
38770W        W10386  17.632  39.010   0.784
38771W        W10387  41.308  25.886  14.067
38772W        W10388  30.968  41.382  13.030
38773W        W10389  21.320  15.937   1.838
38774W        W10390  26.156  29.897  11.239
38775W        W10391  43.771  44.725   3.293
38776W        W10392  28.712  41.161   3.828
38777W        W10393   3.394  22.968  13.331
38778W        W10394  23.196  37.866  11.553
38779W        W10395   9.136   7.292   0.806
38780W        W10396  18.968  23.181   3.548
38781W        W10397  26.022   2.759   4.018
38782W        W10398  16.346  11.835  14.363
38783W        W10399  32.433  40.383  14.464
38784W        W10400   4.320  25.502  12.245
38785W        W10401  20.751  44.238  10.492
38786W        W10402  24.659  37.997  14.985
38787W        W10403   5.883  20.070   2.269
38788W        W10404  35.899  10.911  12.500
38789W        W10405   7.690  27.863  14.492
38790W        W10406  16.676  16.749  14.622
38791W        W10407  33.380  20.002  11.437
38792W        W10408  31.803   0.233  11.675
38793W        W10409  41.758   8.646   3.354
38794W        W10410  24.205  20.648  10.382
38795W        W10411  14.081  10.743  13.324
38796W        W10412  27.541  18.301   4.324
38797W        W10413  30.981  25.740   2.320
38798W        W10414  17.324   0.432  11.014
38799W        W10415   8.931  31.511  13.155
38800W        W10416  41.018   1.797   0.375
38801W        W10417  37.377   8.478  10.767
38802W        W10418  29.313  16.215   5.162
38803W        W10419  43.404  44.810  14.886
38804W        W10420  35.048  38.917  11.506
38805W        W10421   0.958  24.239  12.005
38806W        W10422   8.192  18.248  10.956
38807W        W10423  40.514  23.293  13.970
38808W        W10424   1.980  36.557  14.010
38809W        W10425  34.995  44.719   3.657
38810W        W10426  29.790  30.728   0.469
38811W        W10427  18.987  24.615   1.800
38812W        W10428  24.691  12.555  12.207
38813W        W10429   9.892   4.480  10.699
38814W        W10430  35.157   3.409   0.323
38815W        W10431   3.936   9.894   1.716
38816W        W10432  42.521  22.158  11.959
38817W        W10433  26.196  29.894  14.850
38818W        W10434  42.990  40.609   0.431
38819W        W10435  29.433  41.565   3.252
38820W        W10436  21.625  15.559  14.012
38821W        W10437  36.111  32.746  12.374
38822W        W10438  15.952  41.113  11.633
38823W        W10439   2.949  10.927   3.712
38824W        W10440  35.906  20.674  11.997
38825W        W10441  38.314  26.693   2.132
38826W        W10442   4.956  36.972   1.359
38827W        W10443   5.547  12.551  11.911
38828W        W10444  32.767   1.677  11.476
38829W        W10445  36.789  15.640   1.886
38830W        W10446  21.626  14.797   1.312
38831W        W10447  13.520   4.746  13.346
38832W        W10448  31.171  23.748   4.612
38833W        W10449  40.448  16.725  13.843
38834W        W10450   9.689  38.292  13.422
38835W        W10451  39.837   2.423  13.744
38836W        W10452  42.001  34.551  10.552
38837W        W10453   1.810  38.723  13.328
38838W        W10454   4.126  23.421   2.367
38839W        W10455  31.197  10.487  10.435
38840W        W10456  33.587  30.910  14.332
38841W        W10457   3.034   3.501  10.766
38842W        W10458   5.167  23.059  12.626
38843W        W10459  41.903   4.145   2.053
38844W        W10460  44.784  41.822  13.450
38845W        W10461  15.668  26.185  13.574
38846W        W10462  30.405   7.233  14.521
38847W        W10463  30.016  27.889  11.070
38848W        W10464  40.376  27.041   4.532
38849W        W10465   3.828  31.113   1.423
38850W        W10466  30.017   5.861   3.595
38851W        W10467  44.226   7.367  14.466
38852W        W10468   8.940  18.227   4.560
38853W        W10469  29.079  39.268   0.827
38854W        W10470  38.029  19.410   5.017
38855W        W10471   9.109  24.201   4.308
38856W        W10472  23.033  12.130   2.184
38857W        W10473  33.715   2.729   3.555
38858W        W10474   2.345  25.924   3.210
38859W        W10475  42.479  39.748   1.710
38860W        W10476  31.726  23.300   3.758
38861W        W10477  44.883  21.915   3.235
38862W        W10478  11.375  36.386   2.241
38863W        W10479  31.867   8.983   3.487
38864W        W10480  18.301   5.383  12.964
38865W        W10481  25.181  33.113  14.760
38866W        W10482  19.656  43.213   0.785
38867W        W10483  19.725  16.115  13.208
38868W        W10484   0.422  37.699  12.888
38869W        W10485   2.879  31.457   0.419
38870W        W10486  37.366   9.028   0.116
38871W        W10487   1.137  19.762   5.001
38872W        W10488  44.769  25.403   4.013
38873W        W10489  17.345  39.556  12.577
38874W        W10490  13.203   5.707   3.295
38875W        W10491  33.505  18.117  13.621
38876W        W10492   8.431   4.565  10.766
38877W        W10493   6.340  44.943   2.869
38878W        W10494  28.136  43.602  13.487
38879W        W10495  29.528  27.520   3.338
38880W        W10496  22.773  31.633  12.403
38881W        W10497  38.825  17.523  11.153
38882W        W10498  20.761   3.754   1.783
38883W        W10499  23.287   4.709   3.440
38884W        W10500  22.787  27.911   2.379
38885W        W10501  35.019  34.155  13.409
38886W        W10502  21.938  44.787  13.364
38887W        W10503   8.244  16.170  12.872
38888W        W10504   3.144  16.252  11.731
38889W        W10505   5.812  41.203  13.555
38890W        W10506  19.743  43.345   1.277
38891W        W10507  23.015  27.188  12.377
38892W        W10508   5.820  18.730   2.917
38893W        W10509  42.472  33.194   2.960
38894W        W10510   8.682  41.296   0.465
38895W        W10511   4.924   5.301  10.245
38896W        W10512   8.810  33.029  12.127
38897W        W10513   8.212   0.967   1.582
38898W        W10514  23.990  15.689   2.757
38899W        W10515   4.752   7.634  13.965
38900W        W10516  10.652   9.195  14.924
38901W        W10517  10.139  34.660   0.241
38902W        W10518  29.440  43.790  13.628
38903W        W10519   7.550  34.476   2.335
38904W        W10520  32.514  19.342   2.117
38905W        W10521  25.566   3.779   2.208
38906W        W10522  33.865  42.960   4.398
38907W        W10523  34.374   5.693  14.563
38908W        W10524  25.589  40.853  13.948
38909W        W10525   5.593  37.308  14.346
38910W        W10526  20.903   5.358  13.541
38911W        W10527  18.722   7.362  13.853
38912W        W10528  33.413  12.748  12.726
38913W        W10529  41.354   8.483   2.229
38914W        W10530   5.233  16.653  10.669
38915W        W10531  30.875  13.823  14.919
38916W        W10532  37.734   6.839  12.265
38917W        W10533  32.646  12.751   3.571
38918W        W10534  42.134   5.892   1.268
38919W        W10535  27.537  42.814   1.369
38920W        W10536  13.684  27.908   3.657
38921W        W10537  33.208   2.656   2.746
38922W        W10538   9.127  34.209   3.663
38923W        W10539  24.022  33.673  10.224
38924W        W10540  39.936   4.234   4.062
38925W        W10541   1.532  36.742   0.368
38926W        W10542  13.859  33.080   4.495
38927W        W10543   4.937  23.070  14.884
38928W        W10544  12.355  34.247   2.258
38929W        W10545  16.465  26.972  14.021
38930W        W10546  25.978  21.265  12.870
38931W        W10547  42.849  20.712  11.693
38932W        W10548  14.019  39.919   4.897
38933W        W10549   9.005  30.729  10.170
38934W        W10550  38.721  18.173   0.999
38935W        W10551  29.921   3.394  10.684
38936W        W10552   2.770  30.388   1.245
38937W        W10553  24.044  28.848  14.358
38938W        W10554  35.434  31.556   1.962
38939W        W10555  33.918  23.669  13.841
38940W        W10556  25.542  28.280   1.176
38941W        W10557  41.329   2.670   2.347
38942W        W10558  29.252  11.762   5.401
38943W        W10559  10.943   4.342   3.461
38944W        W10560  21.642  14.995  12.775
38945W        W10561  24.099  43.609   3.881
38946W        W10562  12.219  30.114   1.244
38947W        W10563   4.943  15.275   0.988
38948W        W10564  37.585  24.658   0.950
38949W        W10565   4.756  26.112  10.657
38950W        W10566  44.200   3.771   4.774
38951W        W10567  32.630  24.002   1.255
38952W        W10568   1.307  42.754   5.054
38953W        W10569  37.324   4.921  11.626
38954W        W10570  30.451  29.554  14.057
38955W        W10571  22.743  12.194   0.361
38956W        W10572  19.485  38.433   1.096
38957W        W10573   5.242  37.800   0.158
38958W        W10574  13.742  40.755   0.412
38959W        W10575  15.116  29.528   2.660
38960W        W10576  39.896  16.983   0.090
38961W        W10577  12.920  29.459   1.253
38962W        W10578   2.769  38.774   3.744
38963W        W10579  18.595   3.881   3.836
38964W        W10580   8.873  34.018   3.152
38965W        W10581  28.121  22.885   4.606
38966W        W10582   8.393  30.892   0.153
38967W        W10583  37.577  40.263   2.702
38968W        W10584  37.928  28.703  13.591
38969W        W10585  14.541  16.143  13.255
38970W        W10586   1.466  14.073  13.906
38971W        W10587   2.805   7.306  14.923
38972W        W10588  40.403  19.535  12.059
38973W        W10589  39.525  13.445   0.950
38974W        W10590  34.472  35.924   0.866
38975W        W10591  16.125  28.250   1.893
38976W        W10592  36.318  29.940  12.612
38977W        W10593  17.778  21.969  13.540
38978W        W10594   4.154  43.840  10.541
38979W        W10595  20.727   1.475   4.856
38980W        W10596  21.722   0.545   0.210
38981W        W10597  15.016  23.963  13.553
38982W        W10598  19.236  29.595  13.020
38983W        W10599  25.693   0.822   2.400
38984W        W10600  11.645   9.073  13.657
38985W        W10601   3.723  34.098  12.989
38986W        W10602   8.968  16.869  11.522
38987W        W10603  39.981  33.278   4.470
38988W        W10604  14.732   4.573  12.114
38989W        W10605  28.803   1.889  12.498
38990W        W10606  33.606  29.508  11.265
38991W        W10607  13.681   0.852  11.678
38992W        W10608  37.404  24.393  13.745
38993W        W10609   8.711  26.580  12.537
38994W        W10610  34.500  24.625  11.033
38995W        W10611  43.929  20.064  10.902
38996W        W10612  43.029  34.052  11.887
38997W        W10613  10.088  24.078   4.080
38998W        W10614  16.754  42.119  13.022
38999W        W10615  18.203   1.491  12.516
39000W        W10616  14.026  38.863  11.636
39001W        W10617  33.997  24.550   4.689
39002W        W10618  41.617  27.635  11.477
39003W        W10619   2.165  30.987  11.750
39004W        W10620  15.740   5.297   2.140
39005W        W10621   0.345  27.661  11.614
39006W        W10622  27.385  12.588  12.097
39007W        W10623   9.076  35.117  11.639
39008W        W10624   9.247   2.469  14.834
39009W        W10625   8.521  13.237   0.252
39010W        W10626  14.216  44.018  13.964
39011W        W10627  15.649  13.514   2.858
39012W        W10628   1.795   6.848   1.798
39013W        W10629   7.858  22.483   4.184
39014W        W10630   3.717  28.563   3.409
39015W        W10631   4.477  33.400   4.026
39016W        W10632  29.916  13.777   4.895
39017W        W10633  19.814  11.236  10.167
39018W        W10634  23.840  16.249  12.839
39019W        W10635  37.583  24.702   4.620
39020W        W10636  37.911  33.694   4.631
39021W        W10637  16.333  17.248   0.300
39022W        W10638  32.962  41.367   3.457
39023W        W10639  40.949   1.912  14.018
39024W        W10640  10.401   8.790   4.551
39025W        W10641   9.141  23.049  12.111
39026W        W10642  39.537  18.064  11.530
39027W        W10643  10.592  14.687  11.283
39028W        W10644  28.866  33.274  12.019
39029W        W10645   3.260  42.012  13.931
39030W        W10646  16.851  39.366  11.370
39031W        W10647  32.696  23.192  12.965
39032W        W10648  43.931   4.189   2.134
39033W        W10649  41.204   0.977   1.607
39034W        W10650  21.052   5.905  14.007
39035W        W10651   5.498   4.852   3.296
39036W        W10652  20.528  10.336   4.140
39037W        W10653   7.525  22.232   2.382
39038W        W10654  16.243  35.807  14.727
39039W        W10655  29.835  16.013   0.943
39040W        W10656  36.022   8.125   3.999
39041W        W10657  41.119   3.477   0.418
39042W        W10658   1.532  36.500  12.220
39043W        W10659  12.833   4.931  12.326
39044W        W10660  37.835  20.621   2.293
39045W        W10661   6.386  15.492  11.140
39046W        W10662   5.563  36.324  11.573
39047W        W10663  14.978  36.187  10.458
39048W        W10664  34.697  33.401  11.164
39049W        W10665  28.957  24.698   2.396
39050W        W10666   0.641  42.824   2.331
39051W        W10667  43.685  28.659   1.286
39052W        W10668  28.182  24.675  12.080
39053W        W10669  35.841  18.123  13.430
39054W        W10670   7.949  24.147  11.155
39055W        W10671   9.365  16.530  11.572
39056W        W10672  23.230   2.721  11.087
39057W        W10673  43.953  43.444   0.421
39058W        W10674   0.379  11.805  12.219
39059W        W10675  22.564  43.987   4.756
39060W        W10676  43.964  43.785  10.370
39061W        W10677  15.882  27.564  14.260
39062W        W10678  20.043  24.418   2.938
39063W        W10679  15.577  15.715  12.537
39064W        W10680  24.661  21.281  13.004
39065W        W10681  29.579  15.674  14.856
39066W        W10682  23.620  24.441  10.652
39067W        W10683  39.556  34.522  11.464
39068W        W10684  42.887  25.684   1.407
39069W        W10685  27.299  17.784  12.449
39070W        W10686  32.852   5.321   0.046
39071W        W10687  28.883  41.981  11.695
39072W        W10688  41.418  13.637   1.938
39073W        W10689   2.946   8.342  12.453
39074W        W10690  15.741  37.772   2.623
39075W        W10691  24.990  29.432  12.603
39076W        W10692  41.775   5.644  11.882
39077W        W10693   7.350  30.324   1.144
39078W        W10694   0.538  23.833  11.450
39079W        W10695  27.980  34.863  10.569
39080W        W10696  20.129   8.296   4.698
39081W        W10697   5.393  34.419  14.850
39082W        W10698   7.424   5.363  11.490
39083W        W10699  35.796   2.785   2.381
39084W        W10700  39.479  41.554  12.125
39085W        W10701  10.769   8.371  10.742
39086W        W10702  35.881  34.361   2.279
39087W        W10703  12.052  19.830   0.386
39088W        W10704  42.713  39.696  11.241
39089W        W10705  39.630  33.474   2.384
39090W        W10706  14.719  36.460   1.721
39091W        W10707  14.803  25.349   3.664
39092W        W10708  43.984  33.146   2.368
39093W        W10709   5.226   1.821  13.579
39094W        W10710  16.911  42.275   3.798
39095W        W10711  18.615  10.237   4.499
39096W        W10712  21.223  10.153  13.911
39097W        W10713   4.721  16.440   4.597
39098W        W10714  29.045   0.494  12.906
39099W        W10715  26.161  21.731   0.434
39100W        W10716   5.982   3.585   0.941
39101W        W10717  23.226  18.646   2.302
39102W        W10718  20.192   0.729  12.469
39103W        W10719   1.678  29.117   1.442
39104W        W10720  25.105  38.414   2.289
39105W        W10721  33.135  21.641  11.035
39106W        W10722  44.918  32.564   0.870
39107W        W10723   2.789  20.222  10.693
39108W        W10724   9.901  27.249  11.534
39109W        W10725  41.392  35.302   0.148
39110W        W10726  10.262  21.464  13.544
39111W        W10727   1.253  11.671   0.302
39112W        W10728  38.742   5.383   1.693
39113W        W10729  39.523  12.697   2.814
39114W        W10730  40.948  10.875  11.528
39115W        W10731  28.710   4.235   0.367
39116W        W10732   0.029  33.442   1.013
39117W        W10733  11.774  10.657   1.912
39118W        W10734   7.798  40.550   2.873
39119W        W10735  11.809  36.908   1.468
39120W        W10736  32.507  12.593   2.714
39121W        W10737  43.823  29.180   3.993
39122W        W10738  31.788  42.426  12.997
39123W        W10739  36.872  43.353   0.763
39124W        W10740  26.214   4.793  14.891
39125W        W10741   0.598  22.113   5.252
39126W        W10742  14.143  41.015   0.164
39127W        W10743  34.905  29.953  14.482
39128W        W10744  24.034  23.531  14.970
39129W        W10745  15.837  15.816   9.830
39130W        W10746  32.859  43.808   9.979
39131W        W10747  38.860  31.447   4.859
39132W        W10748   3.245  13.278   2.585
39133W        W10749  11.198  15.692   1.897
39134W        W10750  24.921   0.615   3.718
39135W        W10751   7.497  21.730  12.220
39136W        W10752  33.118  43.100   2.160
39137W        W10753  34.526  34.959   1.171
39138W        W10754  12.253   8.590   3.386
39139W        W10755  14.558  44.908   1.315
39140W        W10756  11.424  14.127   1.308
39141W        W10757  10.199  34.031  11.627
39142W        W10758   5.746   6.150  11.825
39143W        W10759  37.513  40.279   2.173
39144W        W10760  24.249  16.067  14.426
39145W        W10761   1.731  42.102  13.246
39146W        W10762  33.590   6.225  13.290
39147W        W10763   8.343  22.766  14.802
39148W        W10764  12.685  24.029   4.366
39149W        W10765  13.577  18.590  11.261
39150W        W10766  31.495  21.579   1.487
39151W        W10767   8.154  44.896   3.705
39152W        W10768  25.427  44.863  12.807
39153W        W10769  27.777  20.738   0.244
39154W        W10770  22.751   2.237  11.764
39155W        W10771   8.157  14.822  14.075
39156W        W10772   4.938  22.237  14.224
39157W        W10773  25.641  24.122   0.583
39158W        W10774  12.632   6.018   9.783
39159W        W10775  23.421  20.457  12.882
39160W        W10776  39.041  29.194   0.376
39161W        W10777  25.415  34.939   2.436
39162W        W10778  42.305   5.699   3.584
39163W        W10779   4.875  22.547   0.124
39164W        W10780  30.481   1.433  13.300
39165W        W10781  26.891   7.680  14.345
39166W        W10782  29.150  30.060  12.396
39167W        W10783  39.795   1.406   2.519
39168W        W10784  30.698  21.630  14.091
39169W        W10785   0.188   6.755   0.961
39170W        W10786  42.957  19.589   3.672
39171W        W10787   6.957  22.010  14.825
39172W        W10788  22.436  21.772  14.724
39173W        W10789  20.737  35.912   2.745
39174W        W10790   0.847  26.543  10.989
39175W        W10791  44.367  24.006   3.470
39176W        W10792  20.724  32.885  11.123
39177W        W10793  24.759   8.619  13.510
39178W        W10794  44.962  20.219   1.455
39179W        W10795  34.441  41.953  12.872
39180W        W10796  40.957  30.705  12.161
39181W        W10797   8.064  34.055   1.002
39182W        W10798   9.360  13.695   3.134
39183W        W10799  28.924  34.055   0.410
39184W        W10800  20.753  40.330   0.299
39185W        W10801  33.902  21.028  12.084
39186W        W10802  35.292   2.808   4.463
39187W        W10803  21.061  16.233   4.080
39188W        W10804  34.165  15.875  14.985
39189W        W10805   5.821  28.315   0.052
39190W        W10806  42.915  15.750   1.425
39191W        W10807   6.198   7.226   0.986
39192W        W10808  19.758   3.966  11.582
39193W        W10809  31.518  11.221  11.326
39194W        W10810  31.521  20.020  12.484
39195W        W10811  33.119  40.584   0.690
39196W        W10812  25.732  28.517  10.988
39197W        W10813  33.111  31.719   2.889
39198W        W10814  28.957   5.382   1.182
39199W        W10815   5.887  19.821  13.006
39200W        W10816  13.775   5.821   0.345
39201W        W10817  31.145  10.378  13.006
39202W        W10818  18.819  12.044  11.152
39203W        W10819  32.110  33.367  14.834
39204W        W10820  30.983  27.207   0.049
39205W        W10821   2.506  20.103   2.849
39206W        W10822  15.274  26.115  13.908
39207W        W10823  43.730  34.343   3.664
39208W        W10824   8.210  28.929  10.899
39209W        W10825  24.464  11.036   2.317
39210W        W10826  37.396  43.601  12.097
39211W        W10827  40.012  26.920  11.039
39212W        W10828  18.435   2.674   1.481
39213W        W10829  43.869  16.814  13.388
39214W        W10830  30.163  19.396  11.363
39215W        W10831   9.376  39.152  13.294
39216W        W10832   4.924  43.792  14.263
39217W        W10833   1.041  36.525  10.691
39218W        W10834  18.309   4.242   2.155
39219W        W10835  38.943  21.112  12.451
39220W        W10836  44.019   7.975   1.954
39221W        W10837  37.987  20.319  13.418
39222W        W10838  30.737  18.586   4.473
39223W        W10839  27.631  32.199   3.761
39224W        W10840  15.682  38.062   4.178
39225W        W10841  40.804   5.532   4.102
39226W        W10842  18.568  27.523  11.523
39227W        W10843  18.804  16.812  11.099
39228W        W10844  26.277  32.049  13.794
39229W        W10845  30.662  23.125  12.004
39230W        W10846  25.624  17.344   3.352
39231W        W10847  19.576  28.937  13.547
39232W        W10848  34.607   3.675   0.811
39233W        W10849   5.587  19.977   2.879
39234W        W10850  17.114  32.600   0.339
39235W        W10851  37.626   5.562   3.139
39236W        W10852   7.423   9.139   2.724
39237W        W10853  40.345  21.909   2.662
39238W        W10854  23.700  27.459  10.524
39239W        W10855  19.486  44.567   2.676
39240W        W10856  29.570   3.921   1.456
39241W        W10857  20.602   9.712  10.739
39242W        W10858  11.188  29.321  12.812
39243W        W10859  23.018  14.909   0.247
39244W        W10860  14.504   4.143   3.519
39245W        W10861  28.336  19.720   4.647
39246W        W10862  44.837  43.509   2.006
39247W        W10863  26.467   5.920  12.514
39248W        W10864  33.115  36.945   3.795
39249W        W10865  25.578  10.354   1.307
39250W        W10866  36.640   7.387  12.649
39251W        W10867  26.947  22.539   0.658
39252W        W10868   0.337  24.939   0.297
39253W        W10869  41.809   7.332   1.753
39254W        W10870  27.963  41.305  12.424
39255W        W10871  15.213  28.423   1.409
39256W        W10872   4.895  20.407  12.880
39257W        W10873  22.609  26.859  14.987
39258W        W10874  28.804  30.650  11.398
39259W        W10875  26.509  33.654  11.978
39260W        W10876  31.610   6.916  11.136
39261W        W10877  14.681  16.267  14.199
39262W        W10878  20.628  31.864  14.730
39263W        W10879  28.190  36.032  10.920
39264W        W10880  18.141  21.632   0.834
39265W        W10881  21.979  17.815   3.969
39266W        W10882  43.062  14.807  12.517
39267W        W10883   8.108  14.700  11.528
39268W        W10884  13.941  42.398  11.627
39269W        W10885  19.660  20.545  14.069
39270W        W10886  14.169   4.864  14.384
39271W        W10887  21.692  22.542   0.984
39272W        W10888  43.891   4.731   4.326
39273W        W10889   4.978  12.025  13.925
39274W        W10890  24.410  37.580   3.376
39275W        W10891  14.677  29.652   0.324
39276W        W10892  30.151   1.749  14.195
39277W        W10893  24.855  37.146   4.024
39278W        W10894  26.541  35.125   1.416
39279W        W10895  39.190   7.126   2.723
39280W        W10896  20.351  14.037  13.276
39281W        W10897  10.752  40.354  12.551
39282W        W10898   8.066  22.116  14.249
39283W        W10899   7.808  44.332   0.903
39284W        W10900  42.980  41.693  12.334
39285W        W10901  19.675   6.425  14.735
39286W        W10902  19.654  10.616   1.637
39287W        W10903  24.874  39.070   0.032
39288W        W10904  10.806  17.059   3.256
39289W        W10905  26.061  10.882  13.342
39290W        W10906   9.327  16.391  12.458
39291W        W10907  27.578  21.084   4.653
39292W        W10908   0.961  19.588   2.995
39293W        W10909  20.398   3.850   3.661
39294W        W10910  24.627  30.533  12.770
39295W        W10911  21.776  41.470  11.457
39296W        W10912   7.529  36.887  10.445
39297W        W10913  40.405  28.158   0.637
39298W        W10914  13.690  30.005  12.864
39299W        W10915  24.093  11.810   0.394
39300W        W10916  23.472  30.169   1.281
39301W        W10917  23.548  33.406  11.898
39302W        W10918  15.041  39.936  10.659
39303W        W10919  21.372  26.115  12.958
39304W        W10920  40.098   0.638  13.564
39305W        W10921  39.611  25.252   3.988
39306W        W10922  38.113  26.202   2.105
39307W        W10923  27.380  38.983   2.381
39308W        W10924  41.396   6.676  14.870
39309W        W10925   4.051  14.345   2.689
39310W        W10926  43.917  28.759   5.059
39311W        W10927  33.392  31.093  13.896
39312W        W10928   7.157  23.488   4.853
39313W        W10929  35.302  23.093   0.391
39314W        W10930  28.496  17.259   4.609
39315W        W10931  16.062  37.126   1.401
39316W        W10932  18.209  22.031  10.642
39317W        W10933  20.658  25.521  10.424
39318W        W10934  27.699   1.563   1.772
39319W        W10935  24.111  31.334   0.939
39320W        W10936   3.950  31.435  14.327
39321W        W10937  43.328  44.416   1.223
39322W        W10938  13.103  19.582   4.176
39323W        W10939   7.160  39.662   0.404
39324W        W10940  41.834  32.288  14.913
39325W        W10941  23.027  13.357  13.102
39326W        W10942  23.551  29.008   4.160
39327W        W10943  14.123  29.293   3.688
39328W        W10944  25.426  38.412  13.969
39329W        W10945   8.399  33.862  11.079
39330W        W10946  10.417  17.118   4.641
39331W        W10947  18.876  36.016   1.903
39332W        W10948  25.713  43.476  14.772
39333W        W10949  19.347  39.547  12.337
39334W        W10950  26.683   7.240   4.614
39335W        W10951  44.984  12.736  14.820
39336W        W10952  40.394  28.998  11.274
39337W        W10953  40.483   2.787   0.468
39338W        W10954  40.924  24.387  13.129
39339W        W10955  42.029  41.342   3.213
39340W        W10956  13.359  34.121   3.569
39341W        W10957  39.133  19.547  14.041
39342W        W10958  19.818  44.294  11.134
39343W        W10959   8.420  19.229   0.826
39344W        W10960   2.611  13.637   0.309
39345W        W10961  44.518  10.877   4.601
39346W        W10962  25.722  21.481   0.349
39347W        W10963  41.777  39.257  12.926
39348W        W10964  13.627  33.461  11.422
39349W        W10965  30.024  16.506   0.939
39350W        W10966  37.915  42.456  11.146
39351W        W10967  31.504   8.812   1.090
39352W        W10968  32.066  10.094  13.267
39353W        W10969  16.716  13.672   2.112
39354W        W10970  26.117  16.353  11.178
39355W        W10971  42.374   8.884   1.133
39356W        W10972  12.701  40.885  13.024
39357W        W10973  32.500   2.508   4.110
39358W        W10974   5.641  29.498  12.671
39359W        W10975  40.320  27.399  13.876
39360W        W10976   1.647  23.289  13.467
39361W        W10977   2.252  39.720   1.604
39362W        W10978  29.462  10.419   0.451
39363W        W10979  42.321  13.063   2.172
39364W        W10980  39.213   6.398   4.123
39365W        W10981   9.666  32.360   4.951
39366W        W10982  21.097  18.099  11.883
39367W        W10983  30.988  40.789   3.009
39368W        W10984  43.056  29.449   5.097
39369W        W10985  11.811  17.195   1.280
39370W        W10986  29.451  34.502  10.582
39371W        W10987  44.421  18.107  12.836
39372W        W10988  32.945   6.619  11.266
39373W        W10989   1.388   5.406  13.433
39374W        W10990  19.503  38.954   4.603
39375W        W10991  36.477   2.696   1.688
39376W        W10992  24.993  31.691   2.806
39377W        W10993  23.925  41.818   0.198
39378W        W10994   3.173  44.390  12.777
39379W        W10995  23.671  14.881  11.165
39380W        W10996   0.681  15.614   4.193
39381W        W10997  18.052  29.177   2.760
39382W        W10998  25.003  20.126   1.429
39383W        W10999  39.547  12.796   0.364
39384W        W11000  36.087  10.108   3.393
39385W        W11001   8.059   5.166   3.089
39386W        W11002  21.605  38.763  10.097
39387W        W11003  20.896  11.650  13.219
39388W        W11004  14.354  31.234   4.898
39389W        W11005  24.628  12.404  12.726
39390W        W11006  39.044  27.919   1.891
39391W        W11007  29.932   5.357   2.740
39392W        W11008  41.853   1.629   2.680
39393W        W11009  21.916   3.914  12.107
39394W        W11010  19.661  23.618  11.480
39395W        W11011  23.571  13.345   0.943
39396W        W11012  27.593   7.237  12.382
39397W        W11013   4.364  24.241   1.642
39398W        W11014  38.379  41.286  14.007
39399W        W11015  41.536   2.253   4.165
39400W        W11016  21.519  26.248   0.507
39401W        W11017  16.886  34.991   5.031
39402W        W11018  11.360  30.544  10.732
39403W        W11019  31.310  42.648  10.207
39404W        W11020  26.183  13.124  13.353
39405W        W11021   3.912  22.764  12.053
39406W        W11022  39.087  12.910  12.402
39407W        W11023   1.253  11.062   1.929
39408W        W11024  28.823  26.042  14.014
39409W        W11025  32.632  29.443   4.205
39410W        W11026  11.436  22.606  11.014
39411W        W11027  42.735  42.373  14.029
39412W        W11028   2.737   1.389   1.996
39413W        W11029   5.379   0.743  12.317
39414W        W11030   5.683   6.701  12.104
39415W        W11031   9.239  30.028  12.602
39416W        W11032  36.854  21.458  12.804
39417W        W11033  32.945   8.111   1.341
39418W        W11034  24.600  40.602  12.025
39419W        W11035  17.521  26.081  10.779
39420W        W11036  42.278   1.836   0.923
39421W        W11037  36.810   7.871  12.454
39422W        W11038  19.848   0.334   3.197
39423W        W11039  31.870   1.990   1.366
39424W        W11040  33.968  31.126   3.237
39425W        W11041  32.183  24.889  10.667
39426W        W11042   3.016   6.332  13.427
39427W        W11043  19.568  42.468  11.630
39428W        W11044   4.231  26.268   4.207
39429W        W11045  12.510  11.695   3.220
39430W        W11046  37.547  43.723  13.014
39431W        W11047  36.644  31.521  10.730
39432W        W11048  14.321   4.012  10.143
39433W        W11049  28.948  24.210   3.169
39434W        W11050  23.258  34.592   2.918
39435W        W11051  23.213  21.320   0.848
39436W        W11052  12.284  38.815  12.375
39437W        W11053   8.356   7.106  11.593
39438W        W11054  15.479  36.386  13.841
39439W        W11055  39.378   1.315   4.874
39440W        W11056   7.708  16.874   0.738
39441W        W11057  33.241  40.532  14.813
39442W        W11058   4.370   6.119  14.325
39443W        W11059  10.610  39.425   0.305
39444W        W11060  15.699  12.843  14.496
39445W        W11061  20.123  27.773  13.552
39446W        W11062   2.493  23.027  10.279
39447W        W11063  39.306   3.661  12.185
39448W        W11064  34.330  41.230   0.241
39449W        W11065   6.079  44.513   2.635
39450W        W11066  30.395  43.545  10.936
39451W        W11067  18.633  13.333  14.072
39452W        W11068  33.872  43.409  12.192
39453W        W11069  20.721  14.375   1.372
39454W        W11070  25.931  17.138   4.660
39455W        W11071  32.616  21.200   1.244
39456W        W11072   3.185  14.244   2.449
39457W        W11073   2.543  44.450   2.785
39458W        W11074  37.515  10.229   0.684
39459W        W11075  29.561  40.580  10.937
39460W        W11076  13.626  32.369   0.396
39461W        W11077  21.945  22.599  11.995
39462W        W11078  39.550   0.815  11.836
39463W        W11079  14.274  13.750   1.206
39464W        W11080  34.299  31.961   1.825
39465W        W11081  33.142   6.062   1.329
39466W        W11082  14.092   5.862  11.199
39467W        W11083  38.628  20.823   4.255
39468W        W11084  10.831  39.042  14.553
39469W        W11085  32.604  19.819   4.570
39470W        W11086  16.691   5.734  11.594
39471W        W11087  23.727  25.500   0.322
39472W        W11088  44.964   9.742   2.862
39473W        W11089  31.961   3.216  14.860
39474W        W11090   4.409  16.521   2.980
39475W        W11091  18.886  11.641  10.832
39476W        W11092   5.961  11.001  12.907
39477W        W11093  43.825  32.991  14.916
39478W        W11094  15.826  21.709  12.982
39479W        W11095  36.783   1.267  10.899
39480W        W11096  29.482   9.506   2.436
39481W        W11097  23.603  22.026   1.788
39482W        W11098  39.202  43.897  13.260
39483W        W11099   3.987  42.295  12.809
39484W        W11100  17.793   7.989  13.004
39485W        W11101  13.288   9.832  12.850
39486W        W11102  22.271  44.485   4.522
39487W        W11103  18.045   7.281   0.233
39488W        W11104  34.571  35.623   3.441
39489W        W11105  19.615   2.854  14.353
39490W        W11106  44.869   0.834   0.670
39491W        W11107  29.977  38.535  12.434
39492W        W11108  13.813  16.536   3.381
39493W        W11109   5.635  26.940  12.501
39494W        W11110  20.151  22.791  12.342
39495W        W11111   9.189  23.029   3.638
39496W        W11112   3.876  40.321  11.875
39497W        W11113   3.020  33.218  14.973
39498W        W11114   4.508  19.597  12.877
39499W        W11115  16.893  20.066   5.104
39500W        W11116  20.689   8.918  14.362
39501W        W11117  20.307  37.523  13.835
39502W        W11118   8.826  18.680  12.172
39503W        W11119   8.288  28.682   1.474
39504W        W11120  25.312  43.342  13.418
39505W        W11121   1.782  26.849   3.633
39506W        W11122  21.630   0.610  11.003
39507W        W11123   5.162  41.588  11.014
39508W        W11124  22.152   0.251   3.031
39509W        W11125  21.277  15.353  12.968
39510W        W11126  19.379  14.441   4.003
39511W        W11127   2.886   9.199   3.985
39512W        W11128  34.086  18.161   0.343
39513W        W11129  19.996  21.051   3.182
39514W        W11130   8.071  31.725  14.379
39515W        W11131   4.091   6.201   2.774
39516W        W11132  19.505  29.378  11.260
39517W        W11133  30.483  28.113   0.733
39518W        W11134  36.476   8.910   5.301
39519W        W11135  42.593   0.442   0.972
39520W        W11136   6.495  30.525   0.561
39521W        W11137  28.337   5.408  10.698
39522W        W11138  12.241  13.531  10.662
39523W        W11139  34.070  15.980   3.098
39524W        W11140   8.250   6.721  14.822
39525W        W11141   7.871   6.210  11.217
39526W        W11142  41.826  44.360  11.534
39527W        W11143  42.276  39.423   4.196
39528W        W11144  16.797   6.222   0.969
39529W        W11145  39.354  11.331  11.540
39530W        W11146   5.126  36.394  10.149
39531W        W11147  21.494  18.209   4.950
39532W        W11148  44.534  41.076  12.786
39533W        W11149  18.676  41.480   1.744
39534W        W11150  39.371  13.326  10.379
39535W        W11151  12.873   8.728  12.039
39536W        W11152  41.311  30.489   4.579
39537W        W11153  13.232  25.878   4.870
39538W        W11154  41.028  17.328  12.449
39539W        W11155  28.969  24.662   4.390
39540W        W11156  12.613  38.393  14.588
39541W        W11157  35.334  35.276  12.407
39542W        W11158  29.675  12.032  12.120
39543W        W11159   1.539   0.354   3.699
39544W        W11160   9.029  43.761  14.686
39545W        W11161  34.835  33.580  10.701
39546W        W11162  37.118  15.108  14.717
39547W        W11163   3.674  14.488   2.327
39548W        W11164   8.374   9.911  11.888
39549W        W11165  10.088  23.917  14.850
39550W        W11166  27.983  35.946  13.000
39551W        W11167  22.290  32.399   0.494
39552W        W11168   0.899   0.986  13.482
39553W        W11169  13.750  15.852   4.609
39554W        W11170   6.263   7.389  10.752
39555W        W11171  18.737  24.971  11.483
39556W        W11172  39.639  24.789   0.878
39557W        W11173  16.921  28.466  11.337
39558W        W11174   0.428  38.371  11.529
39559W        W11175  40.662  41.886  11.624
39560W        W11176  22.342   1.924  13.907
39561W        W11177  37.147  34.816   4.812
39562W        W11178  21.700  16.856   3.068
39563W        W11179  41.616  22.016  13.061
39564W        W11180  20.170  43.316   2.348
39565W        W11181   0.418  15.763  12.806
39566W        W11182  11.740  17.820   0.823
39567W        W11183  23.241  38.866  13.474
39568W        W11184  11.162  39.128   3.227
39569W        W11185  19.670  26.657   4.289
39570W        W11186  16.099   6.700  13.080
39571W        W11187  34.121  14.497  11.956
39572W        W11188  37.802  38.609  14.468
39573W        W11189  37.360  40.828  11.053
39574W        W11190   4.298  13.056  11.453
39575W        W11191  11.870  20.504  13.071
39576W        W11192  42.521  14.608  14.727
39577W        W11193  24.317  34.894   2.863
39578W        W11194   4.318  29.551  10.928
39579W        W11195  22.315  16.485   4.435
39580W        W11196  29.729  10.682  11.254
39581W        W11197  23.709   7.417  14.560
39582W        W11198  35.634  43.532  11.539
39583W        W11199  20.745  36.492   3.399
39584W        W11200  37.572  20.843  10.791
39585W        W11201  27.735  28.573  13.277
39586W        W11202   3.611   6.614   2.066
39587W        W11203   2.688   9.837  11.622
39588W        W11204  31.396   7.401  12.189
39589W        W11205  19.811  33.046   3.345
39590W        W11206   5.885  30.449   1.810
39591W        W11207   3.764  33.939  11.647
39592W        W11208   4.323  25.331   3.932
39593W        W11209   7.421  12.117   3.049
39594W        W11210  27.036  29.418   4.776
39595W        W11211  11.885  36.128   0.526
39596W        W11212  39.943   8.351   3.578
39597W        W11213  27.063  44.520   0.155
39598W        W11214   7.157  14.817   1.373
39599W        W11215  12.807  27.546  11.259
39600W        W11216  32.415  17.631   2.400
39601W        W11217  21.393  34.818   4.079
39602W        W11218   2.925  44.740   1.060
39603W        W11219  28.009   4.878  14.316
39604W        W11220  17.451   8.631  11.966
39605W        W11221  11.607  38.500   1.881
39606W        W11222  25.230  33.393  13.795
39607W        W11223  42.415   7.851   2.308
39608W        W11224  26.175  29.236  13.909
39609W        W11225   0.624  26.535  14.130
39610W        W11226  32.017   9.588  14.967
39611W        W11227  24.695  28.926  11.765
39612W        W11228   9.072  13.002   1.416
39613W        W11229   6.663  32.885  11.047
39614W        W11230   8.096  39.876  12.654
39615W        W11231   4.786   2.373   4.443
39616W        W11232  25.466   7.159  13.331
39617W        W11233   3.950  32.486   1.019
39618W        W11234  38.472  26.520  15.000
39619W        W11235  43.211  28.090  14.989
39620W        W11236  39.305  14.864  12.913
39621W        W11237  37.509   3.171  13.515
39622W        W11238  30.152  24.056  12.758
39623W        W11239  27.310  23.703   2.642
39624W        W11240  34.084  31.044  13.444
39625W        W11241  21.581  23.837   0.444
39626W        W11242  16.774  15.709  13.547
39627W        W11243  14.230  16.831  10.194
39628W        W11244  30.871  23.239  13.469
39629W        W11245  31.933   5.894   1.219
39630W        W11246   8.316  40.296  14.834
39631W        W11247   8.714  23.899   1.132
39632W        W11248  42.535  43.885   4.131
39633W        W11249  16.566  31.969   3.370
39634W        W11250   8.794  12.242   3.683
39635W        W11251  27.028  37.862   0.343
39636W        W11252  43.406  33.616   0.322
39637W        W11253   9.336  22.528   3.663
39638W        W11254  19.391  29.611  13.870
39639W        W11255  11.817  43.451  10.723
39640W        W11256  20.083  44.570   3.608
39641W        W11257   4.515   9.595   2.405
39642W        W11258  33.169  31.349  14.862
39643W        W11259  32.052  22.682  10.819
39644W        W11260   4.798   6.363   2.295
39645W        W11261  43.964  28.927   0.325
39646W        W11262  41.779  33.017   4.677
39647W        W11263  41.341  16.795   4.333
39648W        W11264  30.323  29.534   4.111
39649W        W11265  10.173  10.877   1.791
39650W        W11266  23.655  40.407  12.192
39651W        W11267  12.768   8.680   4.383
39652W        W11268   5.473  21.639   2.426
39653W        W11269  40.401  33.163  13.849
39654W        W11270  29.216  35.393  13.078
39655W        W11271  25.184  17.629   0.483
39656W        W11272  31.387   3.354   1.941
39657W        W11273  33.211  13.942   1.390
39658W        W11274  10.920  30.095   4.498
39659W        W11275  15.604  15.782   3.103
39660W        W11276   3.136   6.812  10.271
39661W        W11277   7.102  31.128   0.176
39662W        W11278   7.179  21.534   0.988
39663W        W11279  24.076  44.481  10.743
39664W        W11280   3.399  23.579  14.379
39665W        W11281   1.224  31.487  13.460
39666W        W11282  36.237   2.846  12.104
39667W        W11283  17.662  38.022  10.924
39668W        W11284  14.797  38.746  14.278
39669W        W11285  15.593  39.091   4.093
39670W        W11286  24.975  13.379  12.042
39671W        W11287   3.817  24.038   3.771
39672W        W11288  38.447  30.866  13.059
39673W        W11289  40.264  15.676   0.344
39674W        W11290   1.218  16.591  12.416
39675W        W11291  28.988  25.645   1.371
39676W        W11292  43.246  25.600  14.827
39677W        W11293  30.432  10.581  10.154
39678W        W11294   5.503  39.625   3.231
39679W        W11295  37.485  21.019  11.291
39680W        W11296  10.351  27.527  13.952
39681W        W11297  28.426   6.662   4.882
39682W        W11298  27.654  14.029  12.440
39683W        W11299   1.856  16.101  13.022
39684W        W11300   5.409  42.124   4.741
39685W        W11301   0.877  11.183  11.747
39686W        W11302  43.243   8.471   5.063
39687W        W11303  27.634  14.195  13.993
39688W        W11304  16.512   3.988  10.998
39689W        W11305  42.423  19.348   4.364
39690W        W11306  24.554  41.447   2.136
39691W        W11307  22.037   5.248   3.163
39692W        W11308  38.056  28.618   4.516
39693W        W11309  33.562  18.819  10.818
39694W        W11310  19.139  16.085   3.163
39695W        W11311  17.612  21.717  12.623
39696W        W11312  23.479  35.133  10.740
39697W        W11313   6.953  43.325  13.803
39698W        W11314  32.046  13.362  10.662
39699W        W11315  21.703  22.705  14.595
39700W        W11316  37.785  20.085  13.000
39701W        W11317  40.371  11.472   3.017
39702W        W11318  26.021  29.453   3.610
39703W        W11319  11.219  33.485   2.840
39704W        W11320  41.983  18.613  14.013
39705W        W11321  21.739  12.852  14.504
39706W        W11322  15.227   2.643   2.836
39707W        W11323  44.221  20.158   1.982
39708W        W11324  33.104   5.239  13.497
39709W        W11325   1.045   3.112  11.604
39710W        W11326  15.418  13.201   4.785
39711W        W11327  33.497   8.169  13.862
39712W        W11328  27.471  14.139  10.986
39713W        W11329  38.787  15.595  10.711
39714W        W11330  40.634   5.461  14.515
39715W        W11331   7.714  37.571  12.514
39716W        W11332  21.598  29.593  12.652
39717W        W11333  16.440  14.521   5.019
39718W        W11334  22.871  16.272  11.158
39719W        W11335  37.301  31.960   1.768
39720W        W11336  32.409   7.207  11.626
39721W        W11337   4.792  23.580  10.735
39722W        W11338  32.169  35.346   4.528
39723W        W11339  40.726  14.777   1.386
39724W        W11340  42.792  17.795  14.466
39725W        W11341  26.603  26.056   9.994
39726W        W11342   2.314  32.661   3.208
39727W        W11343  21.020  33.859  13.549
39728W        W11344  33.671  18.757  12.060
39729W        W11345   2.229  42.483  14.468
39730W        W11346  10.918  11.684   0.229
39731W        W11347   9.371  19.125   4.239
39732W        W11348  43.658  32.085  12.945
39733W        W11349  28.912  29.530  12.500
39734W        W11350   4.256  26.920   1.841
39735W        W11351  27.482  20.987   2.160
39736W        W11352  23.707  30.222   2.688
39737W        W11353  38.591   6.866  11.500
39738W        W11354   7.488   5.031   3.238
39739W        W11355  17.493  25.561  11.097
39740W        W11356  39.332   9.153   2.288
39741W        W11357  38.823  21.770   3.789
39742W        W11358  40.559  16.207   4.614
39743W        W11359  35.363  38.272  11.636
39744W        W11360  33.319  32.236  12.060
39745W        W11361  28.904  39.372  10.711
39746W        W11362  15.657  16.051   2.450
39747W        W11363  39.456  14.137   3.704
39748W        W11364  41.918  33.716  13.793
39749W        W11365  20.319  14.392  12.774
39750W        W11366  19.286  29.164   0.248
39751W        W11367  20.542   5.144  13.872
39752W        W11368  25.984  42.819   3.250
39753W        W11369  34.070   8.804  14.766
39754W        W11370  25.470   1.429  13.251
39755W        W11371  10.280   5.863   3.901
39756W        W11372   0.988   0.554   4.240
39757W        W11373  17.629  24.195  13.935
39758W        W11374  16.013  28.781   1.925
39759W        W11375   3.560  37.090  11.655
39760W        W11376  14.503   7.419   0.082
39761W        W11377  16.099  25.569   1.699
39762W        W11378  42.860  27.651  14.888
39763W        W11379  23.218  16.317   2.070
39764W        W11380   1.269   4.741  14.830
39765W        W11381  32.368   0.381  14.886
39766W        W11382  14.776  37.539   4.382
39767W        W11383  27.213  40.435   3.164
39768W        W11384   6.928  33.193   0.149
39769W        W11385  15.832  40.299  12.573
39770W        W11386  40.252  25.129   0.190
39771W        W11387   6.726   8.482   0.838
39772W        W11388  16.654  36.517  14.301
39773W        W11389  37.936  15.784   0.873
39774W        W11390  21.225  16.471  14.026
39775W        W11391  42.891  19.967  13.569
39776W        W11392  35.124  44.207   2.002
39777W        W11393   3.922  42.345   0.252
39778W        W11394  16.876  43.896   0.003
39779W        W11395   5.658  35.844   1.274
39780W        W11396   9.813  42.893  13.881
39781W        W11397  27.885   9.406  13.774
39782W        W11398  30.537  21.628  12.042
39783W        W11399  17.568  24.506   2.760
39784W        W11400   6.707   7.159  11.037
39785W        W11401  40.444  29.682  14.052
39786W        W11402  34.594   2.741   1.100
39787W        W11403  37.918  16.004  11.028
39788W        W11404  38.977  36.406  13.376
39789W        W11405  24.052  15.210  11.111
39790W        W11406  12.173  37.203   5.094
39791W        W11407  20.563  14.682  11.224
39792W        W11408  16.538  26.532  14.322
39793W        W11409  43.221  43.718  13.891
39794W        W11410  44.940  27.053  13.378
39795W        W11411   7.683   6.890   4.158
39796W        W11412  28.658  35.090   2.735
39797W        W11413  38.413   4.779  13.380
39798W        W11414  31.917  15.679  11.815
39799W        W11415   2.219   9.535  11.665
39800W        W11416  32.032  20.704   2.276
39801W        W11417  31.384   9.671   0.648
39802W        W11418  18.169   0.457  13.361
39803W        W11419  11.676  41.994   2.932
39804W        W11420   3.073  16.819  11.180
39805W        W11421  32.083   1.373  12.468
39806W        W11422  32.534  20.032  11.416
39807W        W11423  15.838  39.839   3.738
39808W        W11424  28.429  38.466   3.257
39809W        W11425  15.421  32.053  11.125
39810W        W11426  25.486  33.470   2.325
39811W        W11427  11.101  32.059  10.679
39812W        W11428  28.318  28.992   9.931
39813W        W11429  20.736  20.590   3.184
39814W        W11430  32.461  31.500   3.868
39815W        W11431  26.910  14.531   2.427
39816W        W11432  16.716  11.873   2.173
39817W        W11433  33.754  16.851   5.008
39818W        W11434  41.405  33.975   2.813
39819W        W11435  12.835  17.315   3.290
39820W        W11436   9.330  18.846  12.562
39821W        W11437  26.129   7.725   1.106
39822W        W11438  38.336  33.003   1.329
39823W        W11439  28.104   9.130   3.822
39824W        W11440  14.799  34.795  10.881
39825W        W11441  34.495  13.869   5.086
39826W        W11442  20.241   7.741  13.936
39827W        W11443  44.464  39.935   3.103
39828W        W11444  34.261  29.015  11.208
39829W        W11445   4.303  26.002  13.046
39830W        W11446  18.277   9.291  13.882
39831W        W11447   8.719  27.433   3.625
39832W        W11448  19.249  23.243   2.369
39833W        W11449   8.910  21.044   1.845
39834W        W11450  23.477  13.463   4.065
39835W        W11451  24.690  32.711   1.877
39836W        W11452  22.056  26.522  13.628
39837W        W11453  29.662  42.230  12.722
39838W        W11454  16.334   1.916  12.990
39839W        W11455  26.453  40.056   3.124
39840W        W11456  36.362  11.253  13.950
39841W        W11457  11.618  16.062  11.918
39842W        W11458  11.914  22.126  12.231
39843W        W11459  20.161  21.738   3.915
39844W        W11460  12.432  35.863  10.699
39845W        W11461  14.255  43.880   3.589
39846W        W11462   3.899   9.431  11.128
39847W        W11463  30.665   4.725  14.888
39848W        W11464  18.549  13.840   2.330
39849W        W11465  18.167   9.325  14.778
39850W        W11466  35.911  37.855  13.385
39851W        W11467  14.788  38.101   2.909
39852W        W11468  23.445  32.645  14.914
39853W        W11469  24.401   7.010   0.938
39854W        W11470  13.866  41.258  12.890
39855W        W11471  21.276   5.647   3.310
39856W        W11472   1.189  14.242   1.323
39857W        W11473  31.239  14.072   4.111
39858W        W11474  39.254  13.661   3.148
39859W        W11475  31.045  21.865   0.314
39860W        W11476  19.221   8.127  12.388
39861W        W11477  34.242  41.238  11.980
39862W        W11478  40.416  10.290   1.624
39863W        W11479  44.108  23.903  11.513
39864W        W11480   9.883  35.639   0.904
39865W        W11481  30.771  19.502   3.095
39866W        W11482   2.167  15.389  13.386
39867W        W11483  18.604   7.660   3.444
39868W        W11484  40.430  36.602  13.322
39869W        W11485  27.664  34.932  12.468
39870W        W11486  27.448  30.804   4.712
39871W        W11487  22.131  37.774  14.263
39872W        W11488  38.520  25.666   1.297
39873W        W11489  44.028  21.075   0.912
39874W        W11490   6.345  20.031  13.879
39875W        W11491  34.260  33.542   3.773
39876W        W11492  30.151   0.972  10.998
39877W        W11493  20.497  12.225  13.916
39878W        W11494  15.738  44.536  11.910
39879W        W11495   3.691  38.460  13.787
39880W        W11496  35.646  16.366  11.545
39881W        W11497   8.712   5.655   1.923
39882W        W11498  25.625   7.456   3.941
39883W        W11499  15.873  20.484  13.908
39884W        W11500  39.948   6.542  12.661
39885W        W11501  43.551  34.628   5.455
39886W        W11502   7.920  11.186  11.970
39887W        W11503   8.889   5.524   2.773
39888W        W11504  25.430  21.708  13.568
39889W        W11505  11.331  12.828  13.042
39890W        W11506   1.748   9.276  12.547
39891W        W11507   1.724  15.209   4.583
39892W        W11508  15.157   3.815  13.115
39893W        W11509  44.379  13.584   3.181
39894W        W11510  25.232  12.809   0.483
39895W        W11511  20.577  10.880   2.239
39896W        W11512   3.723  33.515   2.355
39897W        W11513  17.630  44.017   0.199
39898W        W11514  19.601  34.012   4.849
39899W        W11515   4.637  40.767  13.466
39900W        W11516  15.584  42.889  14.836
39901W        W11517  36.415   0.323   1.014
39902W        W11518  42.296  23.031   0.927
39903W        W11519  44.062  18.544   1.252
39904W        W11520   5.820  38.054   2.394
39905W        W11521  14.104  23.052  11.662
39906W        W11522  34.397  35.588  12.310
39907W        W11523  11.457  32.455   4.775
39908W        W11524  11.636   9.227   1.864
39909W        W11525  10.728  23.821  11.882
39910W        W11526  15.062  44.408  14.908
39911W        W11527  24.186  29.392  13.369
39912W        W11528  41.094  20.962  12.107
39913W        W11529  18.488  15.526  11.098
39914W        W11530  30.606  34.059  10.723
39915W        W11531  32.892  19.057   3.404
39916W        W11532   6.208   6.442   1.954
39917W        W11533  20.481   5.302   4.148
39918W        W11534  26.192  20.002   3.313
39919W        W11535  17.099  38.962   4.643
39920W        W11536   5.769  32.806   3.646
39921W        W11537  15.429   6.847   2.830
39922W        W11538   5.173   1.388   3.043
39923W        W11539  21.205  15.586   4.201
39924W        W11540  25.959  43.911  13.322
39925W        W11541  32.876  16.573   0.291
39926W        W11542   1.051   7.317   4.011
39927W        W11543   3.424   8.944  13.973
39928W        W11544  34.246  41.037   1.607
39929W        W11545  35.488   7.775  13.990
39930W        W11546   5.225  28.133   2.702
39931W        W11547  31.978   3.255   3.064
39932W        W11548  40.934  32.099  13.486
39933W        W11549   9.745  22.468  14.330
39934W        W11550  13.742   7.618  12.756
39935W        W11551   3.652  21.231  13.864
39936W        W11552   3.967  12.920  12.569
39937W        W11553  17.097  39.837  10.938
39938W        W11554   6.926  38.320  13.037
39939W        W11555  14.913  34.367  12.435
39940W        W11556  43.203  35.023   5.393
39941W        W11557  12.849   2.934  13.911
39942W        W11558   8.167   3.727   0.407
39943W        W11559  44.795   1.940  12.370
39944W        W11560  39.224  43.423   1.833
39945W        W11561  16.569   6.484   4.190
39946W        W11562   2.576  31.165  11.491
39947W        W11563   9.278  27.936  11.107
39948W        W11564   7.989  33.531   0.941
39949W        W11565  17.792  30.070   1.925
39950W        W11566  23.475  25.149  12.053
39951W        W11567   3.977  10.757   4.548
39952W        W11568  10.115  27.823  12.987
39953W        W11569  22.992  24.985  12.917
39954W        W11570  11.361  12.601  13.836
39955W        W11571  20.163  20.097   1.244
39956W        W11572   0.210  15.111   1.483
39957W        W11573  17.265  41.067   3.234
39958W        W11574  17.655   5.373   0.285
39959W        W11575  25.249  19.947  12.990
39960W        W11576  42.737  11.833   3.769
39961W        W11577  14.320  40.531   3.725
39962W        W11578  26.977  17.242  10.627
39963W        W11579  10.101  32.154   0.048
39964W        W11580   9.625  43.329  10.755
39965W        W11581  17.990  11.832   3.715
39966W        W11582  25.592  31.462   0.793
39967W        W11583  44.753  26.181   1.382
39968W        W11584  25.568   6.865  10.487
39969W        W11585  37.491   2.661  13.711
39970W        W11586  27.995  31.462   1.465
39971W        W11587  30.501  24.080  13.757
39972W        W11588  35.665  24.325  12.510
39973W        W11589  22.188  23.697  12.871
39974W        W11590  32.515  13.975  10.760
39975W        W11591  39.945   1.187  11.651
39976W        W11592  25.194   8.087   3.615
39977W        W11593  35.961  35.028   1.263
39978W        W11594   6.941  21.167   2.809
39979W        W11595   7.337  40.746   1.242
39980W        W11596  14.217   2.457   0.862
39981W        W11597  32.603  22.100   1.624
39982W        W11598  25.675  21.172   3.634
39983W        W11599   2.152  42.227  13.501
39984W        W11600  44.252  44.965   3.264
39985W        W11601  32.991  23.864  12.850
39986W        W11602  27.952  30.712  12.507
39987W        W11603  33.566  33.398  14.089
39988W        W11604  34.949  44.409  13.041
39989W        W11605  34.751   1.670  10.439
39990W        W11606   3.847  34.551  13.553
39991W        W11607   6.043  25.889  14.348
39992W        W11608  39.700   3.057   3.121
39993W        W11609  39.359   2.386  11.622
39994W        W11610   9.463  24.464  13.838
39995W        W11611  17.060  29.297  13.959
39996W        W11612  43.055  44.325   4.613
39997W        W11613  38.519  34.616  13.043
39998W        W11614   9.416  15.652   0.417
39999W        W11615   4.860  37.021  13.805
40000W        W11616  23.213  38.469   3.838
40001W        W11617  33.418  12.351   0.869
40002W        W11618  36.146  24.888   3.235
40003W        W11619  26.667  21.198   3.177
40004W        W11620  25.477  31.566  12.342
40005W        W11621  16.876   6.117   2.784
40006W        W11622  32.938  17.607   0.378
40007W        W11623   9.742   9.663  13.983
40008W        W11624  31.736   0.392   4.513
40009W        W11625   9.781  19.121   2.700
40010W        W11626  23.129  11.508  13.450
40011W        W11627   4.739  37.178   4.732
40012W        W11628  17.225  18.725  11.901
40013W        W11629  35.915  29.746   2.356
40014W        W11630  37.610  39.009  10.768
40015W        W11631  30.516  36.846  12.081
40016W        W11632   4.476   7.197  11.009
40017W        W11633   4.918  12.738  10.654
40018W        W11634   0.752  38.640   1.888
40019W        W11635   3.848  35.383  11.203
40020W        W11636  22.651   3.271   1.283
40021W        W11637   1.849  21.754  14.727
40022W        W11638  30.023  44.045   3.820
40023W        W11639  11.367  27.200   3.809
40024W        W11640  10.653  26.120   1.980
40025W        W11641  12.246   0.993  12.914
40026W        W11642  20.856   4.679  14.241
40027W        W11643  43.960  44.808   4.550
40028W        W11644  25.633  31.918  14.378
40029W        W11645  18.092  34.186   1.805
40030W        W11646   4.931  31.155  11.427
40031W        W11647   6.440  27.707   0.919
40032W        W11648  18.009  44.029  10.177
40033W        W11649   3.383  18.675   3.731
40034W        W11650   0.353  24.380   0.950
40035W        W11651  20.730  31.161  10.625
40036W        W11652  30.828  19.468   4.558
40037W        W11653  12.212   3.145   4.147
40038W        W11654  31.378  38.567   3.090
40039W        W11655  44.952  30.953   1.835
40040W        W11656  38.810  23.158   1.938
40041W        W11657  19.217   1.018  12.363
40042W        W11658   7.625  11.321  11.508
40043W        W11659  30.090   4.077   2.143
40044W        W11660  30.053  13.164  11.897
40045W        W11661   4.453  29.642  13.506
40046W        W11662  41.956   6.916   3.804
40047W        W11663  14.828  17.249  10.687
40048W        W11664  12.734  42.971  12.020
40049W        W11665  44.036  22.959   2.774
40050W        W11666  27.712  17.400   4.164
40051W        W11667  10.732   3.503   4.010
40052W        W11668  16.104  30.397   1.288
40053W        W11669  40.422  31.361   1.431
40054W        W11670  25.148  12.732   2.148
40055W        W11671  34.104  10.206   1.203
40056W        W11672  26.575  18.062  12.513
40057W        W11673  19.682   6.834  10.687
40058W        W11674  23.973  18.697  14.904
40059W        W11675  29.004  41.299   4.872
40060W        W11676   0.351  33.978  10.897
40061W        W11677  42.333  17.346   4.944
40062W        W11678   3.351  42.224   1.272
40063W        W11679  22.747  30.087   3.822
40064W        W11680  42.175   0.053  11.902
40065W        W11681  19.570  37.053   2.186
40066W        W11682  35.015  39.870  12.984
40067W        W11683  31.335  25.557   2.766
40068W        W11684  14.881  39.024   0.718
40069W        W11685  44.407  13.080   3.133
40070W        W11686  39.369   6.258  11.614
40071W        W11687  16.393  29.971  12.011
40072W        W11688  15.118  17.208   4.113
40073W        W11689  30.982   4.997   2.472
40074W        W11690  10.151  42.175   1.407
40075W        W11691  16.219   1.003   4.001
40076W        W11692  22.779  40.580   3.265
40077W        W11693  10.844  37.571   4.664
40078W        W11694  11.696  39.897   4.680
40079W        W11695  10.358  39.984   1.974
40080W        W11696  22.460  16.748  11.108
40081W        W11697  23.778   9.081  12.905
40082W        W11698  36.888  16.361  14.317
40083W        W11699   0.826  22.500  10.579
40084W        W11700  42.286  42.466  13.055
40085W        W11701   8.892  17.229  14.892
40086W        W11702  21.007  21.060   3.187
40087W        W11703  13.383   0.255  13.542
40088W        W11704  41.742  14.783   3.490
40089W        W11705  30.004   9.364  13.759
40090W        W11706  26.879  36.505  11.576
40091W        W11707  17.252  28.461   2.422
40092W        W11708  42.358   3.164   1.854
40093W        W11709   7.356  31.068  14.045
40094W        W11710   5.417  34.873  14.588
40095W        W11711   5.476  20.674  14.032
40096W        W11712  11.360  15.806  11.014
40097W        W11713  38.335  18.484   1.247
40098W        W11714  14.435  13.125   2.418
40099W        W11715  25.544  11.336   3.790
40100W        W11716  37.608   7.382   2.895
40101W        W11717  15.370  26.737   2.132
40102W        W11718  29.103  18.883  13.941
40103W        W11719  34.228  19.674  14.021
40104W        W11720  44.136  10.596  12.016
40105W        W11721  26.695  13.613  12.646
40106W        W11722  10.185  35.800   2.515
40107W        W11723  25.619   2.057   0.172
40108W        W11724  24.032  19.020   0.405
40109W        W11725  40.862  23.974   2.811
40110W        W11726  37.682  35.626  11.156
40111W        W11727  12.762  14.898   3.430
40112W        W11728  41.970  31.604  14.273
40113W        W11729  43.331   2.752  14.839
40114W        W11730  28.921  32.312  12.984
40115W        W11731  13.868  12.087  12.162
40116W        W11732  36.001  37.621   2.185
40117W        W11733   4.807  43.892   0.217
40118W        W11734  20.385  16.826  11.230
40119W        W11735  37.133  31.014   0.653
40120W        W11736  40.146   4.095  13.394
40121W        W11737  32.435  26.691   1.821
40122W        W11738  16.338  44.235   4.774
40123W        W11739   5.843  13.802   3.147
40124W        W11740   6.360   2.131  14.237
40125W        W11741   4.136  33.433  12.359
40126W        W11742  34.061  12.572   2.727
40127W        W11743  23.553  13.604  11.715
40128W        W11744   6.939  33.831   4.214
40129W        W11745   0.584  20.066  13.969
40130W        W11746  24.632  35.103   1.969
40131W        W11747   9.371  34.931   0.475
40132W        W11748  40.210  43.280   4.295
40133W        W11749  15.380  41.474   3.111
40134W        W11750  14.940  10.437  13.330
40135W        W11751  35.415  12.626   4.344
40136W        W11752  14.437  39.152   0.412
40137W        W11753  44.944   0.736   1.215
40138W        W11754  16.734  27.671  11.181
40139W        W11755  13.652  38.858   1.344
40140W        W11756  16.974  30.469   0.687
40141W        W11757  38.340  32.594   4.696
40142W        W11758  22.200  35.777   1.279
40143W        W11759  13.013   3.457   1.855
40144W        W11760  44.838  30.059   0.860
40145W        W11761  35.324  42.308   2.811
40146W        W11762  17.103  11.850  10.480
40147W        W11763   1.952  44.351   2.105
40148W        W11764   8.893   9.596  14.407
40149W        W11765   7.603  27.658   1.854
40150W        W11766  16.252  42.264  13.656
40151W        W11767  38.525  13.107  13.388
40152W        W11768  41.899   3.285  13.358
40153W        W11769   8.259  44.064  10.688
40154W        W11770  36.989  36.869   2.930
40155W        W11771  31.227  33.162   3.127
40156W        W11772  23.564  28.270  10.964
40157W        W11773  26.005   5.719  10.818
40158W        W11774  44.982  18.006  11.141
40159W        W11775  18.324  19.791   0.188
40160W        W11776  36.874  33.016   3.235
40161W        W11777  16.779  44.073  12.248
40162W        W11778  42.003  31.943   1.266
40163W        W11779  16.545  29.298  14.085
40164W        W11780  10.809  39.927  13.816
40165W        W11781  44.718  39.779  10.419
40166W        W11782   8.714  34.606  12.984
40167W        W11783  24.255  35.463   3.822
40168W        W11784  43.851  41.841   1.696
40169W        W11785  17.194  21.350  14.772
40170W        W11786  22.309  26.976   1.343
40171W        W11787  44.700  36.892   3.154
40172W        W11788  11.355  41.862  12.456
40173W        W11789  20.543  33.921   0.801
40174W        W11790  34.729  32.142  11.583
40175W        W11791  11.071  11.033  11.213
40176W        W11792  10.834  36.539   3.346
40177W        W11793   5.382  29.490  11.349
40178W        W11794  28.046   8.796   3.458
40179W        W11795   4.008  24.682   4.613
40180W        W11796  43.299  16.452   0.328
40181W        W11797  14.765   3.416   2.687
40182W        W11798   5.221  27.119  14.012
40183W        W11799  42.043  40.598  12.370
40184W        W11800  26.984   9.658   2.207
40185W        W11801  11.788  32.821  12.263
40186W        W11802   6.859   1.457   2.026
40187W        W11803  32.516   8.328  13.983
40188W        W11804  16.107  35.547   2.333
40189W        W11805  19.440  44.433  10.183
40190W        W11806  13.293  38.910  13.987
40191W        W11807  21.789  38.908  14.319
40192W        W11808  36.304  39.410  11.521
40193W        W11809  35.906  27.818   1.852
40194W        W11810  24.071  12.805  14.442
40195W        W11811   4.007  11.743   0.211
40196W        W11812  42.979  41.440   1.776
40197W        W11813  17.827  41.512   4.271
40198W        W11814   7.870   4.678   3.078
40199W        W11815  21.256  38.133   1.820
40200W        W11816  13.993  39.891   3.629
40201W        W11817   7.190   6.911  13.586
40202W        W11818  29.700  30.902  12.369
40203W        W11819   1.368  32.803  13.811
40204W        W11820  28.712   4.695   2.883
40205W        W11821   1.414  33.124  13.383
40206W        W11822   4.663  25.179  11.548
40207W        W11823   0.284  12.389  11.940
40208W        W11824  18.840  23.572  12.985
40209W        W11825  17.582  44.461  11.991
40210W        W11826  41.861   6.181  10.703
40211W        W11827  40.520  44.953   2.686
40212W        W11828  42.531  31.463   3.293
40213W        W11829  26.112  22.967   2.237
40214W        W11830   3.158  31.625  13.988
40215W        W11831  33.701  12.251  12.798
40216W        W11832  30.437  14.684  11.634
40217W        W11833  16.655  39.813  14.355
40218W        W11834  41.567  21.087  11.371
40219W        W11835  42.697  44.930   4.070
40220W        W11836  37.408  34.358   0.762
40221W        W11837   3.010  28.972  14.995
40222W        W11838  10.904   0.917   0.367
40223W        W11839   1.244  25.209   2.965
40224W        W11840  37.311  30.986   2.875
40225W        W11841  37.436  16.290   0.324
40226W        W11842  14.063  17.852   2.287
40227W        W11843  33.154   4.266   0.942
40228W        W11844  30.654   2.277  13.376
40229W        W11845   0.998  30.428  14.053
40230W        W11846  42.182   2.506   2.334
40231W        W11847   7.782  31.111  12.879
40232W        W11848   1.900  24.259  14.000
40233W        W11849  35.722  22.343  14.797
40234W        W11850  24.521   4.674   2.184
40235W        W11851   6.711  25.074   2.179
40236W        W11852   5.858   0.600   0.454
40237W        W11853  16.160  42.559  11.194
40238W        W11854   2.404  39.802   4.411
40239W        W11855  33.032   2.832  10.984
40240W        W11856   5.481  23.795  14.812
40241W        W11857  25.288  33.895  14.537
40242W        W11858   4.238  23.004  12.369
40243W        W11859  38.773  34.007   3.049
40244W        W11860  11.644  37.393  14.029
40245W        W11861   8.376  25.523   1.441
40246W        W11862  16.145  27.332  13.805
40247W        W11863   7.676  20.982  14.589
40248W        W11864  10.551  21.897  14.514
40249W        W11865   3.071  12.141  13.553
40250W        W11866  42.361   2.299  14.023
40251W        W11867  36.916  14.123   2.797
40252W        W11868   0.345  39.094   2.067
40253W        W11869  23.982   2.235  14.931
40254W        W11870   7.970  12.185  14.003
40255W        W11871  27.358  36.908  12.879
40256W        W11872  15.191  25.281  14.222
40257W        W11873  10.771  24.588   4.101
40258W        W11874   4.786  40.062   3.823
40259W        W11875  17.680  23.960  13.450
40260W        W11876   8.123  13.955   4.374
40261W        W11877   6.675  29.554  11.623
40262W        W11878  26.364  25.363   9.962
40263W        W11879  33.806  32.082   1.773
40264W        W11880   0.728  14.577  10.631
40265W        W11881   2.421  26.795  14.065
40266W        W11882  15.882  23.451   3.801
40267W        W11883  37.645  29.021   4.305
40268W        W11884  33.293  10.129  10.740
40269W        W11885  29.698  32.703   3.659
40270W        W11886  40.742   2.016   0.784
40271W        W11887  24.567  17.931  12.860
40272W        W11888  40.379  16.275   3.863
40273W        W11889  19.482   8.315   2.492
40274W        W11890  28.594  23.056  13.547
40275W        W11891  28.221  40.006  13.958
40276W        W11892  23.092  24.479  12.988
40277W        W11893   9.105   1.965  14.855
40278W        W11894   5.079  29.641   2.175
40279W        W11895   4.840  16.958   3.842
40280W        W11896  28.689  28.204  14.440
40281W        W11897  41.497  33.563   4.521
40282W        W11898  13.589  23.653  10.688
40283W        W11899   7.819  26.196   3.927
40284W        W11900  28.022  24.913   1.025
40285W        W11901  16.232  30.836  12.125
40286W        W11902  37.803   8.189   2.428
40287W        W11903   6.213   6.947   3.626
40288W        W11904  13.293  30.558   2.711
40289W        W11905  41.887   1.656  12.600
40290W        W11906  27.391   4.307   2.706
40291W        W11907   4.779  44.746  11.222
40292W        W11908   9.754  27.441   3.655
40293W        W11909  12.832  16.316  14.632
40294W        W11910  43.078  39.112  11.928
40295W        W11911  33.395  27.156  10.753
40296W        W11912  35.118  19.142  12.035
40297W        W11913  41.879  22.941   4.797
40298W        W11914  14.837  33.612  11.881
40299W        W11915  25.526  18.721  14.863
40300W        W11916  32.424  42.544  11.610
40301W        W11917   0.991  21.304  13.013
40302W        W11918  28.558  43.043   4.931
40303W        W11919   7.315  24.729   2.600
40304W        W11920  16.662  44.795   2.126
40305W        W11921   7.545  20.811  11.331
40306W        W11922   8.801  44.544   3.231
40307W        W11923   6.704  24.162  11.669
40308W        W11924  26.641  15.755   3.220
40309W        W11925  41.967  13.430  13.625
40310W        W11926  16.503   8.242  11.650
40311W        W11927  36.806  14.136  11.452
40312W        W11928  14.547  28.058  13.374
40313W        W11929   2.705  34.001   4.586
40314W        W11930  20.817  19.045   3.794
40315W        W11931  33.671  10.814  12.528
40316W        W11932  36.906   5.576  13.921
40317W        W11933   9.934  39.640  11.657
40318W        W11934   0.372  33.852   2.785
40319W        W11935  25.514  15.420  14.891
40320W        W11936  21.343  22.064  14.790
40321W        W11937  16.927   6.204  13.949
40322W        W11938  17.844  23.215   0.271
40323W        W11939  33.805   7.329   2.305
40324W        W11940  31.388  23.037   4.655
40325W        W11941   1.704  32.883   4.618
40326W        W11942  36.100  23.826   3.435
40327W        W11943  14.794  39.825  12.066
40328W        W11944   5.345  38.061   4.140
40329W        W11945  43.025  30.091   2.111
40330W        W11946  22.440   7.113   2.313
40331W        W11947  38.492  14.181  13.911
40332W        W11948   2.445  18.155   1.919
40333W        W11949  21.700   2.917  12.671
40334W        W11950  37.414  19.028  10.440
40335W        W11951  43.046  26.923  12.397
40336W        W11952  40.822  33.456   1.726
40337W        W11953  23.494  23.993  13.859
40338W        W11954  28.438  31.970  14.278
40339W        W11955   5.785  16.107   3.616
40340W        W11956  44.894   4.091  10.717
40341W        W11957  20.198  36.964   4.958
40342W        W11958  42.992  29.589   1.822
40343W        W11959  11.702  26.550  13.571
40344W        W11960  16.553  35.034  11.042
40345W        W11961   0.806  44.538   2.679
40346W        W11962  42.022   2.039   3.680
40347W        W11963  14.831  42.762  12.000
40348W        W11964  33.552  42.505   3.715
40349W        W11965  36.457   5.073   4.163
40350W        W11966  42.349   5.298   1.796
40351W        W11967   1.706  32.101  10.640
40352W        W11968  10.789   6.742  13.886
40353W        W11969  33.919  34.311  11.746
40354W        W11970  22.495  11.554  10.639
40355W        W11971  19.146  23.557  15.000
40356W        W11972  15.619  42.768   2.096
40357W        W11973   2.880  30.256   3.751
40358W        W11974  33.168  13.528  11.072
40359W        W11975  37.916  38.353  12.077
40360W        W11976   5.789  26.637  13.492
40361W        W11977  36.241  11.543   5.284
40362W        W11978   7.925   9.102   4.604
40363W        W11979  21.039  17.652   3.396
40364W        W11980  18.781  38.948  10.718
40365W        W11981  20.259  21.036   0.069
40366W        W11982   4.308  27.610  11.660
40367W        W11983  16.972  22.761   1.386
40368W        W11984   5.949  31.405   3.418
40369W        W11985  29.472  32.999  14.536
40370W        W11986  37.047  36.176   0.964
40371W        W11987  13.093   0.968   3.672
40372W        W11988  16.832   6.128  13.041
40373W        W11989  25.663  16.258  12.462
40374W        W11990  26.972  29.337   1.008
40375W        W11991  31.733  29.642  11.077
40376W        W11992  33.117  27.051  12.067
40377W        W11993  34.560  43.548   0.001
40378W        W11994  28.026  42.807   0.533
40379W        W11995  13.259  11.805  14.473
40380W        W11996  31.690  18.024  13.460
40381W        W11997   6.423  24.010   4.439
40382W        W11998  22.934   4.524   1.736
40383W        W11999  39.471  14.618  12.502
40384W        W12000  19.714  11.964  13.624
40385W        W12001  27.022  44.008   4.080
40386W        W12002  35.124   6.214   5.005
40387W        W12003  30.954  39.395  11.627
40388W        W12004  10.274  29.685  10.699
40389W        W12005  18.224   0.225   0.767
40390W        W12006  20.068   4.752  10.505
40391W        W12007  27.416  20.720  14.823
40392W        W12008  27.593  23.290   4.360
40393W        W12009  29.345  25.550   2.678
40394W        W12010   6.470  13.248  13.809
40395W        W12011   8.538  14.300   1.203
40396W        W12012   7.432  43.838  11.976
40397W        W12013  29.557  38.088  12.185
40398W        W12014  13.576   6.827  13.452
40399W        W12015  23.761  19.025  13.684
40400W        W12016  17.051  23.211   4.476
40401W        W12017  14.113  22.887  14.988
40402W        W12018  37.412   3.769   0.220
40403W        W12019   1.011  16.010   4.235
40404W        W12020  18.510  16.080  14.321
40405W        W12021  20.069  43.982  13.357
40406W        W12022  24.480  38.031  13.337
40407W        W12023  17.802  13.728  12.027
40408W        W12024   4.315  43.897   1.802
40409W        W12025  27.824  18.789  14.652
40410W        W12026  12.094  21.662   0.390
40411W        W12027  42.639  30.182   3.620
40412W        W12028  13.205  43.031   4.135
40413W        W12029  11.374  44.764   2.866
40414W        W12030  29.090  43.391  13.526
40415W        W12031   0.380   7.882  14.057
40416W        W12032  21.817   3.091   5.017
40417W        W12033  22.989  10.300  13.561
40418W        W12034  23.520   4.413  13.393
40419W        W12035   4.511  32.824  13.399
40420W        W12036  34.911  29.998   4.706
40421W        W12037   6.802  31.307   2.262
40422W        W12038   1.674  41.457  12.471
40423W        W12039  38.693   2.476  11.133
40424W        W12040  28.530  16.240   1.242
40425W        W12041  34.783  11.320   1.495
40426W        W12042  27.346  10.854  14.386
40427W        W12043  42.426  36.997  13.987
40428W        W12044  23.585  37.004   2.384
40429W        W12045   8.500  14.137  12.012
40430W        W12046  24.699  13.667  10.945
40431W        W12047  21.077   4.222   3.183
40432W        W12048  24.569  17.285  14.959
40433W        W12049  34.813  40.141   0.540
40434W        W12050  39.765  31.060  12.431
40435W        W12051  39.712  28.670   2.736
40436W        W12052  19.588  16.414   3.291
40437W        W12053   5.218  36.680   2.835
40438W        W12054   6.348  17.633  13.537
40439W        W12055  14.756  19.037  11.937
40440W        W12056   4.641  44.210   3.671
40441W        W12057  30.101  41.368  12.006
40442W        W12058  23.083   7.878  11.072
40443W        W12059  35.874   1.386  12.396
40444W        W12060  38.067  13.865   1.380
40445W        W12061  35.938  15.474  12.639
40446W        W12062  13.386  42.376  11.659
40447W        W12063  36.933  29.013  13.514
40448W        W12064  24.702   5.634  14.527
40449W        W12065  12.720  35.846  14.334
40450W        W12066  18.078   5.479   3.616
40451W        W12067  42.201  35.930  11.172
40452W        W12068  43.441  31.643   1.249
40453W        W12069  26.275  31.458  13.462
40454W        W12070  44.202  20.639  12.103
40455W        W12071   8.845  20.189   3.973
40456W        W12072   2.397  20.097   3.767
40457W        W12073  28.180  41.987   2.813
40458W        W12074  41.845  42.479   1.840
40459W        W12075  42.934  15.212   1.401
40460W        W12076   2.262  14.460   3.791
40461W        W12077  29.593  12.409   3.782
40462W        W12078  12.817  40.410  13.284
40463W        W12079  15.947  36.533   0.808
40464W        W12080  23.535   3.647  11.631
40465W        W12081  28.536  27.027  12.016
40466W        W12082   7.009  28.825   0.360
40467W        W12083   2.954   5.218  10.423
40468W        W12084  12.277   6.207  10.675
40469W        W12085  14.375  18.660   1.463
40470W        W12086  40.421  32.904   1.256
40471W        W12087  22.641  35.344  11.326
40472W        W12088  31.661  12.316  11.065
40473W        W12089   6.762  18.773   4.889
40474W        W12090  13.069  41.894  14.779
40475W        W12091  18.257   8.263   0.786
40476W        W12092  36.069  40.382  13.258
40477W        W12093   4.181  44.703  14.035
40478W        W12094  18.042  22.241  12.853
40479W        W12095   8.641  12.557  14.467
40480W        W12096  39.223   4.878   3.371
40481W        W12097  25.201  23.681  13.891
40482W        W12098   5.144  16.589   3.185
40483W        W12099  42.981  32.011   1.324
40484W        W12100   2.692  37.658  14.469
40485W        W12101  30.521  20.794  13.850
40486W        W12102  12.530  14.780   0.272
40487W        W12103  18.867  26.629   4.995
40488W        W12104  14.848  41.837   4.474
40489W        W12105  23.528  17.968  14.488
40490W        W12106   5.002  12.425  12.896
40491W        W12107  23.517   7.850  12.597
40492W        W12108  26.964  18.869  14.388
40493W        W12109  38.455  26.548   2.672
40494W        W12110  24.335  38.333  11.514
40495W        W12111   9.821   3.678  12.376
40496W        W12112  38.367  15.520   0.935
40497W        W12113   6.738   4.139   0.687
40498W        W12114   9.829  40.319   0.240
40499W        W12115  31.535  20.058  11.050
40500W        W12116   7.186  14.159   1.896
40501W        W12117   7.933  23.152   0.022
40502W        W12118  37.890  32.659  11.155
40503W        W12119  31.852  36.309  11.177
40504W        W12120  19.819  13.808  14.836
40505W        W12121  14.008   2.727  11.727
40506W        W12122  15.802  12.424   3.846
40507W        W12123  11.416  15.608  12.030
40508W        W12124  40.362  30.458   9.883
40509W        W12125  23.107  43.810   3.551
40510W        W12126   1.483   1.342  11.302
40511W        W12127  32.299  29.120   1.673
40512W        W12128   3.856  20.031   0.325
40513W        W12129  37.338  43.059  13.506
40514W        W12130  28.975   6.073  12.276
40515W        W12131  20.798  12.878   1.264
40516W        W12132   5.999  33.034  14.408
40517W        W12133  23.132   3.527   1.374
40518W        W12134  23.458   3.252  12.110
40519W        W12135  38.540  28.269   1.198
40520W        W12136  23.699  33.844   1.407
40521W        W12137  34.898  12.313  13.706
40522W        W12138  44.269  22.799   4.166
40523W        W12139  14.352  44.880   0.837
40524W        W12140  21.735  19.210   1.448
40525W        W12141  29.511  22.421  11.728
40526W        W12142  25.619   7.821   4.317
40527W        W12143   3.713  42.477  12.411
40528W        W12144  13.817  21.962   3.567
40529W        W12145  34.258  30.647   4.121
40530W        W12146   9.862  42.991   0.355
40531W        W12147   0.821  34.596  14.846
40532W        W12148  21.582  14.756  12.115
40533W        W12149  42.004  10.698   4.157
40534W        W12150  21.254  29.532   3.183
40535W        W12151  14.046  28.943  10.539
40536W        W12152  39.728  21.154  14.336
40537W        W12153   0.317   0.904  14.099
40538W        W12154  11.786  35.488   2.376
40539W        W12155  22.506  12.123   4.328
40540W        W12156   6.336  37.292   4.585
40541W        W12157   0.712   2.991   3.684
40542W        W12158  39.702  35.345   0.933
40543W        W12159  25.971  16.811  11.381
40544W        W12160  10.907  43.889   4.126
40545W        W12161  21.799   6.890  14.382
40546W        W12162  44.939   3.286  11.241
40547W        W12163  23.015  25.125  10.750
40548W        W12164   0.939  14.483   2.786
40549W        W12165  28.866   5.542   0.244
40550W        W12166   1.682  19.239  11.665
40551W        W12167   6.681  42.878   1.260
40552W        W12168  17.538  19.645  13.292
40553W        W12169  42.815  18.931  12.906
40554W        W12170  14.314  28.507   4.601
40555W        W12171  27.873   7.148   0.136
40556W        W12172  21.450   7.362  14.309
40557W        W12173  37.019  40.395  12.542
40558W        W12174  27.437  42.276  10.977
40559W        W12175  22.497  12.904   2.818
40560W        W12176  20.743  34.343   4.310
40561W        W12177  17.318  16.131   3.381
40562W        W12178   6.147   0.675  14.308
40563W        W12179   7.350   6.312  14.909
40564W        W12180  26.794  13.076   3.469
40565W        W12181  16.065   9.761  14.909
40566W        W12182   0.765  20.568   0.162
40567W        W12183  29.774  40.304   3.374
40568W        W12184  14.898  34.671  11.599
40569W        W12185  43.150  40.141   2.899
40570W        W12186  34.915  42.350   1.979
40571W        W12187   9.191   0.946  11.180
40572W        W12188  18.568  10.368  14.475
40573W        W12189  32.431  38.980   0.594
40574W        W12190  17.480   4.671   3.649
40575W        W12191  41.057  30.968  13.879
40576W        W12192  16.266  13.997   4.093
40577W        W12193  26.497   7.325  13.279
40578W        W12194  15.707  44.100  11.540
40579W        W12195  37.902   4.974  14.466
40580W        W12196   6.079   1.357  12.170
40581W        W12197  36.033  25.488  11.601
40582W        W12198   1.489  32.334  14.521
40583W        W12199  35.072  11.543   3.482
40584W        W12200  41.606   9.744   3.223
40585W        W12201  32.945  27.074   2.130
40586W        W12202  24.029  26.148   3.220
40587W        W12203  15.121  40.544  14.265
40588W        W12204  22.383  34.689   2.343
40589W        W12205  22.225   1.773  12.522
40590W        W12206  12.395  40.122  14.944
40591W        W12207  43.309  36.874   1.367
40592W        W12208  31.513   9.062  14.277
40593W        W12209  12.300  42.712  13.902
40594W        W12210  30.810  33.586  10.605
40595W        W12211   6.001  13.092   2.076
40596W        W12212  31.434  24.483   1.169
40597W        W12213  23.295  39.934   3.674
40598W        W12214  30.156  35.142   4.944
40599W        W12215  35.369  29.439   1.093
40600W        W12216  10.692  35.106   4.665
40601W        W12217  31.541  23.214  11.976
40602W        W12218  23.151  39.808  14.174
40603W        W12219   4.745  12.325  10.367
40604W        W12220   2.735  32.968  13.874
40605W        W12221  18.512  43.771  13.875
40606W        W12222  10.898  15.254  13.306
40607W        W12223  15.138  33.936   2.387
40608W        W12224  11.615  20.008   0.103
40609W        W12225  44.333  32.834  14.862
40610W        W12226   7.446  27.497   0.959
40611W        W12227  32.086  20.173   3.561
40612W        W12228  35.025  10.412   4.901
40613W        W12229  26.290  28.684   1.873
40614W        W12230  36.437  42.526   3.772
40615W        W12231   2.271  25.500  10.616
40616W        W12232   3.780  18.084   2.185
40617W        W12233   0.178  17.149  11.063
40618W        W12234  24.116  24.598   2.664
40619W        W12235  10.388  32.642   2.788
40620W        W12236   1.119  14.921  10.676
40621W        W12237  42.170   2.907   2.688
40622W        W12238   7.211  43.232  14.324
40623W        W12239   9.356  42.638  13.813
40624W        W12240   6.893  28.606  11.867
40625W        W12241  18.843  43.357  13.951
40626W        W12242  19.177  30.977   2.431
40627W        W12243  17.519   4.681  14.369
40628W        W12244  26.428   9.397  13.524
40629W        W12245  19.230  17.312  12.070
40630W        W12246  32.664  24.404   2.080
40631W        W12247   6.113  30.886   3.340
40632W        W12248  38.294  38.038  14.439
40633W        W12249   3.474  23.199  14.832
40634W        W12250  26.756   3.973  13.341
40635W        W12251   6.298  43.682   1.109
40636W        W12252  28.501  28.085   0.847
40637W        W12253  33.151   5.214   0.988
40638W        W12254  21.038  39.447  11.569
40639W        W12255  18.129  23.244  11.952
40640W        W12256  36.591  43.455   3.202
40641W        W12257  38.932  32.950   1.473
40642W        W12258   0.881   7.136  13.929
40643W        W12259  28.042   6.449   0.868
40644W        W12260   4.746  26.734   2.405
40645W        W12261   9.340  19.535  13.047
40646W        W12262  44.729  20.519  13.478
40647W        W12263  28.670  42.215   2.856
40648W        W12264   0.816   3.156   4.996
40649W        W12265   8.702  26.992  13.380
40650W        W12266  32.657  14.556  12.382
40651W        W12267   8.008   7.916  13.299
40652W        W12268  36.839  17.252   3.954
40653W        W12269  14.193  16.875   5.509
40654W        W12270  14.843  12.797  10.741
40655W        W12271  16.717   9.050  11.620
40656W        W12272  25.206   3.868  12.956
40657W        W12273  12.610   5.497  11.526
40658W        W12274  23.574   8.133   0.391
40659W        W12275  44.482  12.171   2.400
40660W        W12276   2.831  35.296  10.641
40661W        W12277  33.284  30.526  14.492
40662W        W12278  33.102   6.761   1.856
40663W        W12279  15.135  15.617   3.323
40664W        W12280   4.297  25.187  14.348
40665W        W12281  10.869  21.482   0.733
40666W        W12282   4.958  41.959   4.506
40667W        W12283  24.574  22.770   2.695
40668W        W12284  33.078  21.549   4.824
40669W        W12285  41.445   5.661  13.321
40670W        W12286  17.674  22.005   4.519
40671W        W12287  22.669  24.970  12.474
40672W        W12288  12.072   5.874  12.195
40673W        W12289  11.609  40.793  14.913
40674W        W12290  33.928  29.203  12.105
40675W        W12291  32.325  27.932   2.819
40676W        W12292  19.243  30.499  12.985
40677W        W12293  30.472  39.183  14.211
40678W        W12294  18.886  19.665   2.828
40679W        W12295   4.780  37.775  14.918
40680W        W12296  18.573  21.855   0.655
40681W        W12297  23.212  10.382  14.005
40682W        W12298  15.518  20.714  13.604
40683W        W12299  10.284  44.566  11.966
40684W        W12300  37.649   4.882   5.142
40685W        W12301  11.693  17.185   4.581
40686W        W12302   9.105  34.580   0.210
40687W        W12303   1.958  31.385  11.352
40688W        W12304  25.896  29.504   4.636
40689W        W12305  11.699  34.717  12.925
40690W        W12306  17.261  35.798  14.734
40691W        W12307  23.005   0.453   1.791
40692W        W12308   4.317  22.253  10.605
40693W        W12309  32.383  23.700  10.941
40694W        W12310   7.832  29.200  10.648
40695W        W12311  35.314   2.998  13.357
40696W        W12312  12.708  25.177   2.647
40697W        W12313   4.768  21.002  13.673
40698W        W12314  33.289  26.033  12.107
40699W        W12315  35.556  42.310   4.288
40700W        W12316  22.250   1.035   4.567
40701W        W12317  17.968  34.412  11.253
40702W        W12318  24.715  40.434  14.430
40703W        W12319   6.652  43.889   3.643
40704W        W12320  10.780  28.657   0.277
40705W        W12321  28.010  44.250   1.995
40706W        W12322  21.536  14.602  14.958
40707W        W12323  18.558  13.106   3.910
40708W        W12324  22.569  29.681  14.073
40709W        W12325  36.821  15.301   2.270
40710W        W12326  18.352  31.072  13.870
40711W        W12327   1.008  42.386   1.747
40712W        W12328  39.888  19.677   2.998
40713W        W12329   0.860  19.678  14.399
40714W        W12330  21.258   6.178   0.555
40715W        W12331  40.686  28.210  10.196
40716W        W12332  11.708  20.285   0.861
40717W        W12333  19.920   3.470  10.773
40718W        W12334  18.245  13.466  11.843
40719W        W12335  39.393  43.368  13.272
40720W        W12336  28.130   5.836  10.941
40721W        W12337  42.427   4.842   3.545
40722W        W12338  41.607  12.544  14.300
40723W        W12339  28.922  13.051  14.762
40724W        W12340  33.322  19.157   4.661
40725W        W12341  28.629  43.571  13.354
40726W        W12342  42.084  14.369  12.617
40727W        W12343  31.963  42.442   1.457
40728W        W12344  40.932  13.903  11.654
40729W        W12345  29.658  14.694  13.995
40730W        W12346  29.731  37.981   4.493
40731W        W12347  29.697  41.810  13.798
40732W        W12348  24.102  24.988  12.547
40733W        W12349   2.066  21.247  14.468
40734W        W12350  36.121  24.582  14.894
40735W        W12351   3.732   1.863   4.108
40736W        W12352  23.212   6.970  12.151
40737W        W12353   8.821  43.805   1.449
40738W        W12354  38.848  27.157  11.524
40739W        W12355  40.911  38.415   4.742
40740W        W12356  35.960  15.643  14.943
40741W        W12357  22.723  39.928   0.904
40742W        W12358  43.033  34.260   3.538
40743W        W12359  19.978   9.754   0.503
40744W        W12360  18.751  29.058   3.689
40745W        W12361  27.351  29.598   0.801
40746W        W12362   8.314  24.678   1.007
40747W        W12363  44.806  29.985  12.871
40748W        W12364  20.679  40.177   4.441
40749W        W12365   6.103  33.597  13.067
40750W        W12366  31.739   8.521  13.064
40751W        W12367  33.036  34.026   4.694
40752W        W12368  36.098  13.361   2.841
40753W        W12369  32.603  22.146   2.161
40754W        W12370  22.492  10.162  12.209
40755W        W12371  18.787  11.282   1.379
40756W        W12372  34.521  37.940  12.596
40757W        W12373  25.862   1.755  13.111
40758W        W12374  14.629  26.313   4.818
40759W        W12375  34.131  40.936  14.772
40760W        W12376   8.812  30.758   4.716
40761W        W12377  41.817  28.527   1.337
40762W        W12378  19.586   8.219   0.997
40763W        W12379  20.332   2.788  12.122
40764W        W12380  34.057  12.745   2.211
40765W        W12381   4.333  41.602  13.459
40766W        W12382  10.636  36.366   1.844
40767W        W12383   0.308  11.161   4.511
40768W        W12384  15.786  41.913   1.225
40769W        W12385  33.379  38.882   0.038
40770W        W12386  38.102  26.448   3.670
40771W        W12387  18.740  26.732  12.037
40772W        W12388  25.061   6.324   4.629
40773W        W12389  44.026  12.866   0.966
40774W        W12390  41.774  11.317  13.928
40775W        W12391  34.940  30.880  13.616
40776W        W12392  40.606   3.459   1.868
40777W        W12393   3.290  31.411  13.005
40778W        W12394  33.668  23.649   4.516
40779W        W12395  12.826  20.965  11.074
40780W        W12396  40.240  17.264   2.733
40781W        W12397  41.797  12.886   0.347
40782W        W12398   9.538  15.031   1.429
40783W        W12399   7.724  33.447   0.499
40784W        W12400  23.127  21.784   1.773
40785W        W12401  35.426  18.601  13.037
40786W        W12402  36.600  16.751  14.543
40787W        W12403  17.396  18.233   2.780
40788W        W12404  42.687  21.708  11.776
40789W        W12405  16.643  25.530  14.964
40790W        W12406  17.054   6.657  11.506
40791W        W12407  39.734  19.290  13.605
40792W        W12408  40.830   2.747   2.839
40793W        W12409  32.473   2.425   2.124
40794W        W12410   1.956  21.894   5.274
40795W        W12411  38.577  23.251  12.213
40796W        W12412  24.715  29.853  11.533
40797W        W12413  26.774  20.610  14.023
40798W        W12414   3.581  20.498   3.201
40799W        W12415   6.893   4.138  12.090
40800W        W12416  26.253  44.858   4.583
40801W        W12417  33.993   8.380   4.750
40802W        W12418   3.785   0.371   0.082
40803W        W12419   4.175  24.432  13.885
40804W        W12420  36.917   3.482   0.216
40805W        W12421  33.200  43.473  13.988
40806W        W12422  44.726  31.224  12.291
40807W        W12423  32.532  42.071   4.513
40808W        W12424  25.029  30.210  14.483
40809W        W12425  15.573  21.693   4.559
40810W        W12426   7.253  28.154  14.489
40811W        W12427  12.648   4.758  10.186
40812W        W12428  18.119  38.581  11.370
40813W        W12429  34.491  44.372   4.740
40814W        W12430   7.041  16.919   0.644
40815W        W12431  12.169  36.612  10.545
40816W        W12432  36.386  28.653  10.484
40817W        W12433  42.885  24.618  14.701
40818W        W12434  22.148  19.199   4.251
40819W        W12435  25.294  29.519  10.762
40820W        W12436   9.329   5.398  13.306
40821W        W12437  17.257   1.198  14.356
40822W        W12438  16.490  33.332   2.618
40823W        W12439  33.039  33.491  10.666
40824W        W12440  34.462  15.610   3.171
40825W        W12441  33.057  31.345  11.805
40826W        W12442  28.852  16.670  14.440
40827W        W12443  42.392  15.810   1.925
40828W        W12444  16.321  38.255   0.840
40829W        W12445  30.892  33.811  11.079
40830W        W12446  22.376  36.091  14.045
40831W        W12447   0.931  36.632   2.751
40832W        W12448  31.132   2.038   0.757
40833W        W12449  33.337  42.067   2.185
40834W        W12450  14.023  38.425  11.921
40835W        W12451  35.016   9.799  11.764
40836W        W12452  41.855  17.791   3.286
40837W        W12453  36.499  43.698   0.883
40838W        W12454   1.539  44.920  13.827
40839W        W12455  37.124   2.449  11.092
40840W        W12456  15.763  22.610  14.028
40841W        W12457  19.513  40.094   3.062
40842W        W12458  27.877  13.633   5.459
40843W        W12459  14.823   7.418   0.915
40844W        W12460  29.408  35.787  12.781
40845W        W12461  33.457   2.373   2.206
40846W        W12462   9.718   7.107   1.497
40847W        W12463  18.542  33.710  11.946
40848W        W12464   5.262  23.508  10.887
40849W        W12465  39.565   0.602  14.228
40850W        W12466  14.243  15.281   0.362
40851W        W12467  30.056   1.521   1.405
40852W        W12468  21.311  12.684   3.217
40853W        W12469  44.547  10.309   1.647
40854W        W12470  28.481  37.484   1.808
40855W        W12471   9.591  43.314   2.129
40856W        W12472  10.438  30.208  14.235
40857W        W12473  35.166  34.517   3.106
40858W        W12474  37.311  16.070  14.891
40859W        W12475  16.458  36.308  13.824
40860W        W12476   8.709   4.882  13.122
40861W        W12477  10.195  16.589   4.062
40862W        W12478  11.198  21.144  10.893
40863W        W12479  31.011  20.694  14.434
40864W        W12480  10.097  15.609   1.790
40865W        W12481  21.096   2.757   0.389
40866W        W12482  22.594  22.673  13.074
40867W        W12483  26.933  41.930   4.245
40868W        W12484  39.386   5.815  10.332
40869W        W12485  41.115  23.470   4.547
40870W        W12486  13.429  15.330   3.366
40871W        W12487  33.401  29.193   3.678
40872W        W12488  42.042   2.998  11.602
40873W        W12489  34.882   9.217  10.953
40874W        W12490  11.381  33.048  13.555
40875W        W12491  20.473  38.873   4.368
40876W        W12492  41.934  27.533  14.726
40877W        W12493  13.771  44.769   1.652
40878W        W12494  36.476  10.242   5.017
40879W        W12495   5.810  10.312  11.280
40880W        W12496  39.367   1.167   2.358
40881W        W12497  30.122  25.070   4.062
40882W        W12498  27.192   4.559  10.294
40883W        W12499  17.611  34.175   1.097
40884W        W12500   2.022  32.500   4.833
40885W        W12501  18.705   9.823  13.057
40886W        W12502   4.199  36.332  11.646
40887W        W12503  28.715  42.370  13.358
40888W        W12504  31.544  27.162  10.590
40889W        W12505  28.067  15.134   3.852
40890W        W12506  29.970  14.754  13.564
40891W        W12507  38.369  15.291  11.158
40892W        W12508  10.138  35.228   3.058
40893W        W12509  29.409  43.073   4.233
40894W        W12510  23.252  30.785  12.799
40895W        W12511  44.498  34.422   2.379
40896W        W12512  27.118  37.332   0.286
40897W        W12513  36.388  10.941   2.355
40898W        W12514  28.674  14.020   2.867
40899W        W12515  28.929  26.637   1.362
40900W        W12516   5.407  43.783   4.132
40901W        W12517  23.683  20.015   3.935
40902W        W12518  41.603  27.774  13.295
40903W        W12519  28.207  19.454  10.788
40904W        W12520  33.880   4.479  13.880
40905W        W12521  19.101   7.390   1.631
40906W        W12522  13.266  31.985  12.886
40907W        W12523  31.813   4.035  13.824
40908W        W12524  33.012   6.829  12.239
40909W        W12525  22.277  22.513   3.748
40910W        W12526  40.445  41.044   2.916
40911W        W12527   6.833  20.525   0.245
40912W        W12528   9.156  36.551   2.940
40913W        W12529  38.094  34.402  12.851
40914W        W12530  12.953  22.594  14.291
40915W        W12531  32.380  27.405   2.839
40916W        W12532   6.714   0.742  12.070
40917W        W12533   8.874  11.922  13.436
40918W        W12534   2.667  10.441  11.107
40919W        W12535  15.184  11.579  13.782
40920W        W12536  17.517  21.310   1.904
40921W        W12537  25.037   1.883   3.889
40922W        W12538  34.682  16.234  14.994
40923W        W12539  43.503  30.081   3.846
40924W        W12540  23.743  23.306   2.292
40925W        W12541  22.569  25.171   3.839
40926W        W12542  39.643  33.923  10.683
40927W        W12543   0.766  22.668  14.314
40928W        W12544  20.014  27.850   5.042
40929W        W12545  20.606  22.050  14.455
40930W        W12546   6.916  37.783  13.361
40931W        W12547   0.724  15.347   3.755
40932W        W12548  35.083  11.370  11.589
40933W        W12549  15.088  32.167  12.441
40934W        W12550  35.153  11.690   1.685
40935W        W12551  43.440  20.783  14.299
40936W        W12552  13.143  33.687   3.747
40937W        W12553  28.092  24.565  14.820
40938W        W12554  37.031  39.421   4.401
40939W        W12555  43.731  29.667   1.415
40940W        W12556  18.536   3.349   3.730
40941W        W12557  36.665   9.158   0.391
40942W        W12558  42.300   1.035   5.030
40943W        W12559  14.462   4.692  13.438
40944W        W12560  14.300   3.832  12.519
40945W        W12561  41.947   0.140   0.748
40946W        W12562  22.045  37.835  11.057
40947W        W12563  15.376  19.625   1.179
40948W        W12564   0.897  35.173   4.565
40949W        W12565  43.483  26.600   2.678
40950W        W12566   8.257  37.527  10.740
40951W        W12567  37.998  32.937  13.040
40952W        W12568  18.850   9.364  12.626
40953W        W12569   2.663  16.284   3.180
40954W        W12570   3.439  42.394  11.922
40955W        W12571  16.923  23.132  11.034
40956W        W12572  15.525  38.053  10.909
40957W        W12573  26.506  29.633   3.531
40958W        W12574  43.478  35.742   3.395
40959W        W12575  16.365  12.887   0.447
40960W        W12576  28.634  10.307  14.816
40961W        W12577  37.879   1.201  13.524
40962W        W12578  27.136  26.408  11.588
40963W        W12579  12.309  13.287  11.096
40964W        W12580  42.613  12.255  14.963
40965W        W12581  21.990  22.515   4.169
40966W        W12582  30.893  34.363  14.495
40967W        W12583  31.881   8.178   4.310
40968W        W12584   9.158  14.809   2.680
40969W        W12585   2.484  18.690  12.450
40970W        W12586  26.141  21.386   0.041
40971W        W12587  23.615  16.633   0.542
40972W        W12588  19.569  34.094  12.063
40973W        W12589   5.734  19.589  14.931
40974W        W12590  12.680   8.210   3.666
40975W        W12591  44.792  28.489   0.688
40976W        W12592  38.321  19.592  13.646
40977W        W12593  36.396  10.872  11.633
40978W        W12594   2.766   3.339   1.564
40979W        W12595  18.156  28.434   3.278
40980W        W12596  27.748   9.957   0.257
40981W        W12597  37.607   5.357   4.907
40982W        W12598   6.991  33.342   4.141
40983W        W12599  33.365  15.139   0.945
40984W        W12600  29.619  13.505  12.042
40985W        W12601  35.469  42.052  14.896
40986W        W12602   5.700  41.254  12.089
40987W        W12603  42.400   5.705   4.096
40988W        W12604  14.895  31.800  13.371
40989W        W12605  29.606  44.287  14.497
40990W        W12606  15.326  22.515   2.688
40991W        W12607  41.829  25.551   3.159
40992W        W12608  16.630   2.701   1.921
40993W        W12609  22.050  18.982  13.388
40994W        W12610  35.894  22.075   0.714
40995W        W12611   9.363  30.447  12.336
40996W        W12612  42.076   1.479   3.787
40997W        W12613   1.359  11.200   3.464
40998W        W12614  40.404  32.395   2.608
40999W        W12615   4.028   1.992   4.514
41000W        W12616  39.907  39.759   3.746
41001W        W12617  29.423  24.577   4.119
41002W        W12618  35.065  20.633  11.504
41003W        W12619  33.330   8.610  13.662
41004W        W12620   1.131  35.450  13.504
41005W        W12621  41.025   4.304   2.609
41006W        W12622   9.228   4.564   3.774
41007W        W12623  16.013  37.639  12.081
41008W        W12624  29.100  22.190   0.702
41009W        W12625  12.236  43.054   4.226
41010W        W12626   2.972  12.687   3.691
41011W        W12627   1.787  16.284  12.121
41012W        W12628  24.985  14.754   0.687
41013W        W12629  25.816  17.415  13.858
41014W        W12630  33.677  42.596  13.496
41015W        W12631  38.589   4.906  11.211
41016W        W12632  30.488   2.633  11.271
41017W        W12633  13.234  19.512  11.060
41018W        W12634   9.811  32.476   0.879
41019W        W12635  36.538   3.963   0.714
41020W        W12636   6.132  39.854  12.128
41021W        W12637  31.383  30.148   1.805
41022W        W12638  38.349  11.880  11.587
41023W        W12639  15.097  23.143  10.563
41024W        W12640   8.477  20.117  12.906
41025W        W12641  34.918  41.779   3.670
41026W        W12642  40.761   6.959   3.200
41027W        W12643  22.021   7.768   1.230
41028W        W12644  14.007  40.049   0.734
41029W        W12645  31.912  21.241   3.001
41030W        W12646  34.632  23.621   4.164
41031W        W12647   6.941  34.890  14.915
41032W        W12648  22.506  32.104  15.000
41033W        W12649   1.068  24.779  12.768
41034W        W12650  40.974  25.562   0.284
41035W        W12651  29.915   3.641   4.685
41036W        W12652   1.027   9.705   3.120
41037W        W12653  11.732  25.954   2.282
41038W        W12654  11.048   0.467   3.132
41039W        W12655  38.860  27.648  13.936
41040W        W12656  38.507  27.198   2.179
41041W        W12657  35.918   3.482  12.855
41042W        W12658   3.552  22.691   1.372
41043W        W12659  28.897  43.004  14.433
41044W        W12660  27.965  41.042   4.201
41045W        W12661   0.924  26.169   4.557
41046W        W12662  27.248  28.684  13.384
41047W        W12663  10.681   1.196   1.682
41048W        W12664  26.715   4.775   2.858
41049W        W12665  21.975  32.576  12.889
41050W        W12666  17.810  25.165   3.712
41051W        W12667  28.148  25.351  14.344
41052W        W12668  10.159   2.112   3.089
41053W        W12669   6.151  35.076  14.056
41054W        W12670  14.822  14.587  12.437
41055W        W12671   4.317   8.083  11.443
41056W        W12672   5.875  43.162   2.133
41057W        W12673  33.464   7.250  14.818
41058W        W12674  17.678  37.826  12.891
41059W        W12675  16.628  25.024   3.853
41060W        W12676   7.698  17.242   3.721
41061W        W12677  10.355  31.668  12.022
41062W        W12678   1.026   4.655   1.439
41063W        W12679   3.538   1.407   5.100
41064W        W12680  13.250  25.348   0.616
41065W        W12681  40.834  11.771  12.127
41066W        W12682  43.494  29.377  11.176
41067W        W12683  44.328  36.059   0.906
41068W        W12684   1.668  23.783   2.469
41069W        W12685   5.283  33.895   1.022
41070W        W12686  28.130  24.221   2.206
41071W        W12687   6.198   6.179   0.008
41072W        W12688  42.355  28.524   0.088
41073W        W12689  29.813  30.827  10.952
41074W        W12690  24.508  19.717   0.961
41075W        W12691  28.502   3.807  12.433
41076W        W12692   3.524  19.136  11.135
41077W        W12693   5.722  18.209   2.289
41078W        W12694  44.812  29.777  10.672
41079W        W12695  34.352  21.309  12.111
41080W        W12696  21.668  14.858   3.186
41081W        W12697  32.974   5.677   3.637
41082W        W12698  28.720  18.763  14.960
41083W        W12699   4.995   4.473   0.776
41084W        W12700  21.603  14.062   2.285
41085W        W12701   1.683  17.026   4.250
41086W        W12702   7.324  42.961   0.648
41087W        W12703  25.718  30.082   2.140
41088W        W12704  16.736  41.784  11.660
41089W        W12705  13.677  20.437   0.041
41090W        W12706  15.604  27.496   4.831
41091W        W12707  21.953  38.578   1.378
41092W        W12708   0.352   9.663   4.307
41093W        W12709  20.124  42.283   5.542
41094W        W12710   2.889  11.326   0.954
41095W        W12711   0.956  22.474   3.523
41096W        W12712  31.954  21.736   2.142
41097W        W12713  10.676  17.173  10.879
41098W        W12714   5.545  13.661  14.242
41099W        W12715  24.344   2.499  12.161
41100W        W12716  35.137  23.918  11.619
41101W        W12717  29.160  22.706   4.585
41102W        W12718  21.118  18.046  12.940
41103W        W12719  17.599  32.691  10.741
41104W        W12720  34.553  10.193  14.397
41105W        W12721   4.581  14.101   5.033
41106W        W12722  34.109  22.733   0.257
41107W        W12723  43.387  13.688   3.942
41108W        W12724  13.947  10.888  12.815
41109W        W12725  20.843  40.099  13.018
41110W        W12726  22.956  16.609   3.614
41111W        W12727   0.572   2.397  11.558
41112W        W12728  17.283  20.284  13.820
41113W        W12729   3.508  21.088  13.071
41114W        W12730  34.375  28.246   1.377
41115W        W12731  26.416  16.626   2.109
41116W        W12732  18.547  23.001   4.357
41117W        W12733  13.844   5.300   2.475
41118W        W12734  35.586  42.919  13.533
41119W        W12735  30.403  30.490   5.032
41120W        W12736   7.331   8.760   0.833
41121W        W12737  37.943  13.410   9.668
41122W        W12738  42.229  19.785   4.528
41123W        W12739  33.319  25.712  12.858
41124W        W12740  17.224  23.579   4.184
41125W        W12741  29.065  21.854   1.808
41126W        W12742  37.884  41.259   0.446
41127W        W12743   3.411  29.959  10.673
41128W        W12744  25.940  30.412  10.525
41129W        W12745  36.459  38.617  13.339
41130W        W12746  28.190  38.129  14.011
41131W        W12747  35.930  25.295  12.130
41132W        W12748  15.779  32.511  12.602
41133W        W12749  36.010  26.179   4.582
41134W        W12750  40.654  38.922  10.259
41135W        W12751   1.704  26.918   4.144
41136W        W12752   7.482  24.996  14.994
41137W        W12753   0.024  12.211  14.904
41138W        W12754  37.465  37.309   0.283
41139W        W12755  30.691   6.003  10.769
41140W        W12756  33.060  28.001   4.167
41141W        W12757   1.525  13.711  11.981
41142W        W12758   6.149   4.732  12.098
41143W        W12759  13.377   3.973   4.969
41144W        W12760  12.869   7.934   4.488
41145W        W12761  30.612  29.849   3.656
41146W        W12762  14.234  34.197   3.772
41147W        W12763  23.450  14.566   3.305
41148W        W12764   0.402  43.253  13.934
41149W        W12765  11.773  32.913   4.527
41150W        W12766  34.014  19.650  11.619
41151W        W12767  11.627  12.882  12.633
41152W        W12768   8.493  31.087   2.221
41153W        W12769  31.922   3.087  14.023
41154W        W12770  36.939  18.392   2.719
41155W        W12771  24.112   5.489  14.791
41156W        W12772  39.963   7.785   0.994
41157W        W12773  23.108  26.612  14.356
41158W        W12774  39.060  40.395  10.139
41159W        W12775  37.362  13.727  13.945
41160W        W12776  27.156  21.675  14.543
41161W        W12777  38.475  17.161  11.545
41162W        W12778  22.733  37.539  11.384
41163W        W12779   0.580   2.910  11.576
41164W        W12780  41.052  14.739   3.451
41165W        W12781  36.899  40.404  14.528
41166W        W12782  31.711  25.033   3.440
41167W        W12783   1.641  28.226  12.377
41168W        W12784  21.658  29.456  11.179
41169W        W12785  27.853   1.299   3.186
41170W        W12786  10.098  14.721  11.484
41171W        W12787  39.943   4.755   0.710
41172W        W12788   4.306  22.643  13.902
41173W        W12789   4.862  23.201   3.147
41174W        W12790  38.349  34.175  14.912
41175W        W12791  16.634  41.326  13.456
41176W        W12792  43.662  43.406   2.771
41177W        W12793  34.512  30.624  13.422
41178W        W12794   9.358  21.162  10.578
41179W        W12795   8.358   0.105  14.465
41180W        W12796  38.967  14.174  11.243
41181W        W12797  33.558  41.853  11.346
41182W        W12798   3.881   3.477  10.996
41183W        W12799  26.678  16.389   9.925
41184W        W12800  22.863  19.066  13.929
41185W        W12801  11.586  20.816  11.541
41186W        W12802  12.022  16.731   4.639
41187W        W12803  34.396  30.129  12.513
41188W        W12804  35.587  42.382  10.755
41189W        W12805  15.631  35.011   0.937
41190W        W12806   8.808  36.866  12.211
41191W        W12807  25.262  44.529   2.192
41192W        W12808   0.863  11.800  12.405
41193W        W12809  25.983  26.162  13.800
41194W        W12810   1.444  16.125  13.815
41195W        W12811  25.525   5.980   4.090
41196W        W12812  40.296  16.372  11.915
41197W        W12813  17.685  37.337   4.063
41198W        W12814  19.149  14.078   0.656
41199W        W12815  20.143  25.379  12.523
41200W        W12816  35.853  36.907  10.720
41201W        W12817  22.540   9.854  13.984
41202W        W12818  25.495  10.513   0.354
41203W        W12819  19.330   7.289  12.951
41204W        W12820  23.457   1.085  11.622
41205W        W12821  33.499   0.238   2.545
41206W        W12822   5.260  35.938   3.450
41207W        W12823  41.100  41.825   2.667
41208W        W12824  39.371  23.728  14.984
41209W        W12825   3.921  26.009   2.335
41210W        W12826  43.025  39.344   1.645
41211W        W12827  44.796  30.121  14.300
41212W        W12828  24.153   2.926   0.681
41213W        W12829  35.859  29.554   3.253
41214W        W12830  12.399  38.148   1.484
41215W        W12831  25.819   3.328   0.495
41216W        W12832  43.885  23.539  13.247
41217W        W12833  26.129  16.047   0.718
41218W        W12834  39.536  11.061   3.165
41219W        W12835  19.012  11.333   3.105
41220W        W12836  13.277  44.304   3.710
41221W        W12837   6.434  22.239   1.339
41222W        W12838  35.445  37.611  13.455
41223W        W12839  20.662  40.266  12.027
41224W        W12840  31.764  33.439   5.029
41225W        W12841   7.583  38.958  12.995
41226W        W12842  30.531  42.544  10.369
41227W        W12843  39.312  16.693   3.577
41228W        W12844  30.255  24.693  11.131
41229W        W12845  21.794  17.035  11.999
41230W        W12846   6.794  11.784  11.365
41231W        W12847  28.185  37.554  14.978
41232W        W12848  41.441  25.567  11.196
41233W        W12849   2.231   8.584  11.425
41234W        W12850  39.411  44.351  13.474
41235W        W12851  29.457  36.551  11.057
41236W        W12852   6.725  11.369   1.437
41237W        W12853  27.140  30.036  12.545
41238W        W12854  32.653  13.860   1.415
41239W        W12855  19.570   2.918  14.890
41240W        W12856  27.231   8.173   2.409
41241W        W12857  44.413   8.867   3.660
41242W        W12858  31.095  29.507   0.282
41243W        W12859  38.527  33.307  12.551
41244W        W12860  31.477  44.871  14.128
41245W        W12861  19.492   4.165  13.159
41246W        W12862  37.928   0.835  12.634
41247W        W12863  38.465  40.366  12.953
41248W        W12864  12.672  33.194  12.543
41249W        W12865   1.683   6.408   4.502
41250W        W12866  42.461  35.470  11.196
41251W        W12867  14.486  25.221  13.297
41252W        W12868  34.510   1.816   2.297
41253W        W12869  38.304  30.298   1.871
41254W        W12870  14.214  17.545   4.017
41255W        W12871  14.792  29.490   0.830
41256W        W12872  37.042   3.315  11.307
41257W        W12873  37.155  11.324   4.473
41258W        W12874  38.027  38.320  13.504
41259W        W12875  28.408  44.412   3.853
41260W        W12876  11.261  17.636   4.613
41261W        W12877   2.817  43.821   5.022
41262W        W12878  14.856  15.890  11.983
41263W        W12879   0.356  29.413   2.277
41264W        W12880  41.356  33.353  11.532
41265W        W12881  28.790  10.824   1.035
41266W        W12882   7.583   0.996  11.969
41267W        W12883   9.283  22.054   0.959
41268W        W12884  42.858  32.449  12.065
41269W        W12885  12.783  26.502   1.207
41270W        W12886  28.565  38.009  12.986
41271W        W12887  30.485  15.863   1.276
41272W        W12888   4.439  27.298   4.085
41273W        W12889  11.897  15.252   3.388
41274W        W12890  30.937   1.397   3.733
41275W        W12891   2.728   3.235  11.140
41276W        W12892  23.057  33.865  14.504
41277W        W12893  20.618   3.775  14.058
41278W        W12894   0.026   0.560   2.142
41279W        W12895  10.850  38.002   4.360
41280W        W12896  27.514   2.635  11.516
41281W        W12897   4.492  33.447  14.876
41282W        W12898  26.152  13.164  13.939
41283W        W12899   4.868  24.216  14.816
41284W        W12900  17.684  20.170  14.120
41285W        W12901   9.690  14.823   4.700
41286W        W12902  14.238   6.657  12.692
41287W        W12903  33.965  12.794  11.406
41288W        W12904  29.689  37.592   4.914
41289W        W12905  37.913  34.156   2.763
41290W        W12906  29.625  19.324   0.028
41291W        W12907   3.269   3.308  11.195
41292W        W12908  31.635   0.702   4.100
41293W        W12909  14.184  34.609   0.034
41294W        W12910  15.769   4.470   0.779
41295W        W12911  11.993  21.702   1.864
41296W        W12912  35.129  42.767  12.887
41297W        W12913  33.969  20.118  13.826
41298W        W12914  19.508  21.778  11.185
41299W        W12915   4.963  32.569  13.403
41300W        W12916  11.210  19.951  13.377
41301W        W12917  31.134  34.081   3.108
41302W        W12918  22.131   5.489  14.350
41303W        W12919  15.431  44.457   0.278
41304W        W12920  32.263  12.320  11.948
41305W        W12921  15.564   2.392  10.657
41306W        W12922  41.459  18.756  12.394
41307W        W12923  43.663  19.217   1.799
41308W        W12924   8.153   8.710   2.343
41309W        W12925  21.055  43.949   4.602
41310W        W12926  36.188   6.776  12.195
41311W        W12927  32.443  37.470   0.351
41312W        W12928  41.318  40.083  12.027
41313W        W12929   5.672   9.645  12.630
41314W        W12930  24.094  33.752  11.616
41315W        W12931  40.284  29.561  10.634
41316W        W12932   8.223  20.937  13.701
41317W        W12933  33.551  35.969   4.262
41318W        W12934  39.976  25.436  11.051
41319W        W12935   4.198  21.059   3.352
41320W        W12936  27.202  19.039  11.500
41321W        W12937  25.132  36.167   2.958
41322W        W12938  27.947   9.485   4.166
41323W        W12939  28.064  23.471   1.724
41324W        W12940  13.184   1.979   0.920
41325W        W12941  43.866   3.829  12.025
41326W        W12942  35.137   3.394   2.188
41327W        W12943  30.361   3.831  12.597
41328W        W12944  35.505   7.319   1.257
41329W        W12945  15.623  38.415  13.015
41330W        W12946  43.695  12.044   4.184
41331W        W12947  33.988  31.078  12.908
41332W        W12948  11.500   1.161  13.215
41333W        W12949  37.882   7.738  11.489
41334W        W12950  14.979  26.139   1.364
41335W        W12951  21.667  23.531  14.834
41336W        W12952  10.781  15.110   1.248
41337W        W12953  38.951  16.344  12.807
41338W        W12954  42.460  41.882   2.414
41339W        W12955  18.629  16.540  10.711
41340W        W12956  27.119  39.374   2.690
41341W        W12957  19.087  31.396  13.059
41342W        W12958  30.395  12.308   3.248
41343W        W12959   2.901   3.720  11.209
41344W        W12960  40.899  32.446  13.879
41345W        W12961  37.451  31.463   3.031
41346W        W12962  27.538  14.626   3.493
41347W        W12963  14.650  35.091  14.328
41348W        W12964   9.122  18.639  10.809
41349W        W12965  21.391  44.796  11.549
41350W        W12966  24.550  12.187  10.983
41351W        W12967  32.064  25.224   2.178
41352W        W12968  41.557  24.644  14.377
41353W        W12969   3.815  37.357   1.974
41354W        W12970  25.231  26.491   2.756
41355W        W12971  21.631  16.396  11.549
41356W        W12972  26.072  41.811  11.621
41357W        W12973  44.005  21.552  14.233
41358W        W12974  40.289  33.033   0.763
41359W        W12975  13.934  35.871   1.758
41360W        W12976  31.728  40.732  11.103
41361W        W12977   0.582   6.984  14.551
41362W        W12978  22.518   9.444  14.341
41363W        W12979  21.080  41.340   0.238
41364W        W12980  35.751   0.502  11.493
41365W        W12981  13.296  19.717  13.348
41366W        W12982  25.370  38.842  12.834
41367W        W12983  26.281  20.305  10.951
41368W        W12984  44.167  41.153   4.904
41369W        W12985  23.078  22.265   1.062
41370W        W12986  33.600  24.120   3.651
41371W        W12987  34.804  20.671  11.061
41372W        W12988   7.807  20.008  12.014
41373W        W12989  25.651  16.277  11.928
41374W        W12990  12.803  37.631   3.166
41375W        W12991   1.468  18.922   3.643
41376W        W12992   9.224  33.612  12.427
41377W        W12993  17.871  18.208   4.597
41378W        W12994  18.189  37.861  11.995
41379W        W12995  20.589  34.640   0.681
41380W        W12996  19.081  42.428  14.480
41381W        W12997  10.764   5.923   4.135
41382W        W12998  22.214  10.724   4.409
41383W        W12999  44.912  34.827  13.779
41384W        W13000  39.106  17.211   4.850
41385W        W13001   2.971   6.631   1.488
41386W        W13002  38.942  37.371  12.082
41387W        W13003  10.192  15.659   3.706
41388W        W13004  14.645  35.482   0.251
41389W        W13005  27.640   2.105  11.501
41390W        W13006  38.506  20.868  13.124
41391W        W13007  10.304   2.017   4.991
41392W        W13008   7.438  23.107   0.873
41393W        W13009  31.608  40.387  14.790
41394W        W13010   0.857  44.320  13.249
41395W        W13011  24.729  41.657   1.669
41396W        W13012   2.985  35.537  14.973
41397W        W13013  26.113  17.664   1.965
41398W        W13014   2.458   7.450  12.401
41399W        W13015   9.405  28.449   0.908
41400W        W13016  31.952  18.563   5.098
41401W        W13017   9.598   8.578   4.129
41402W        W13018  20.665  37.848   2.635
41403W        W13019   1.247   6.984  12.069
41404W        W13020  26.468   3.323  11.987
41405W        W13021   6.077  33.518  11.271
41406W        W13022  33.480  43.443  12.514
41407W        W13023  34.874  16.045   2.007
41408W        W13024   5.788  28.790  13.135
41409W        W13025  11.333  28.928   1.259
41410W        W13026  42.460  35.947   2.335
41411W        W13027  13.930  40.807   0.964
41412W        W13028  25.106   5.131   3.944
41413W        W13029  20.357  27.385  12.493
41414W        W13030  41.931  21.222   4.137
41415W        W13031  26.032   2.977   2.577
41416W        W13032   5.970   6.645   4.015
41417W        W13033  42.446  39.102   3.823
41418W        W13034  35.049  28.426  10.633
41419W        W13035  10.473  31.090  13.728
41420W        W13036  44.814  40.231   4.724
41421W        W13037  22.835  11.729  13.088
41422W        W13038  34.424  23.965   3.165
41423W        W13039   6.696  18.608  11.993
41424W        W13040   0.166  27.521  13.366
41425W        W13041  38.515   4.337  14.975
41426W        W13042  17.470  11.205  11.910
41427W        W13043  26.693  22.166  13.426
41428W        W13044  20.601  41.472  10.783
41429W        W13045  14.192  17.803   4.739
41430W        W13046  22.502  31.938  13.928
41431W        W13047  17.500  36.049   1.324
41432W        W13048  27.923  34.523   3.608
41433W        W13049  28.233  35.410   0.347
41434W        W13050  18.952  37.337  11.222
41435W        W13051  44.226  19.883   3.314
41436W        W13052  20.023  29.041  10.610
41437W        W13053  36.638   0.410  10.663
41438W        W13054   8.625  33.491  11.976
41439W        W13055  44.211  15.632   0.817
41440W        W13056  12.389  28.418  11.961
41441W        W13057   3.732   1.295   1.845
41442W        W13058  32.134  20.583   3.266
41443W        W13059  32.649   9.320   3.930
41444W        W13060  33.586  25.724  12.429
41445W        W13061  16.643   4.673   3.722
41446W        W13062   4.394  22.031   2.453
41447W        W13063  43.386  40.775   4.498
41448W        W13064  31.485  33.679   2.389
41449W        W13065  31.411   6.896   3.192
41450W        W13066   5.271  11.161   4.650
41451W        W13067  12.841  22.293   0.730
41452W        W13068  35.526  28.678  12.780
41453W        W13069  36.635  33.948  12.472
41454W        W13070  37.024  12.857   0.880
41455W        W13071  39.229  10.893  14.764
41456W        W13072  33.378   6.049  11.924
41457W        W13073  17.477  20.544   4.871
41458W        W13074  30.176  19.998   3.792
41459W        W13075  10.146  11.695  13.292
41460W        W13076   2.721  11.714  12.387
41461W        W13077  12.787  27.810  12.265
41462W        W13078  27.213   5.985  12.888
41463W        W13079  24.211  12.317   2.795
41464W        W13080   3.862  18.779   2.796
41465W        W13081  42.860  22.511  12.128
41466W        W13082  21.969  17.659   2.479
41467W        W13083   6.556  16.704   0.507
41468W        W13084  35.324  14.225  12.416
41469W        W13085  32.493   8.794   3.213
41470W        W13086  19.395  30.550   2.183
41471W        W13087  39.461  34.868  13.002
41472W        W13088   3.142  35.641   2.696
41473W        W13089  39.826  40.276   1.916
41474W        W13090   1.261  19.751   1.138
41475W        W13091   2.552  13.035  12.596
41476W        W13092  35.740  17.522   3.192
41477W        W13093  32.813  23.234  13.949
41478W        W13094  44.971  11.772   0.770
41479W        W13095  24.416  28.965   0.610
41480W        W13096  16.556  24.093  12.648
41481W        W13097  31.834  23.189   0.217
41482W        W13098  41.425   1.404  14.961
41483W        W13099  36.993   5.291   4.401
41484W        W13100  41.777  14.058   3.817
41485W        W13101  24.362  19.463  11.963
41486W        W13102  36.978  23.482  14.265
41487W        W13103  15.235  17.884   3.654
41488W        W13104  23.066  23.996  13.199
41489W        W13105  37.396  20.964  14.020
41490W        W13106  41.375  19.987  12.863
41491W        W13107  22.683   5.812   4.590
41492W        W13108  15.539  33.348  12.944
41493W        W13109  11.642  35.604   3.756
41494W        W13110  36.978  32.963  13.319
41495W        W13111  14.719  24.476   3.654
41496W        W13112  41.572   0.879  12.338
41497W        W13113  10.108   5.668   1.338
41498W        W13114  14.212  10.948   3.211
41499W        W13115  23.470   4.306   4.111
41500W        W13116  23.484  25.279  14.228
41501W        W13117   6.822  22.079   2.627
41502W        W13118  38.304  38.421  10.710
41503W        W13119  34.999  19.503  10.590
41504W        W13120   2.833  31.348  10.770
41505W        W13121   8.326  15.094   2.215
41506W        W13122   6.762  37.340   1.740
41507W        W13123  37.195   1.956   1.949
41508W        W13124  18.544   3.027  11.193
41509W        W13125  36.523  28.414  12.583
41510W        W13126  35.795   1.239  11.057
41511W        W13127   0.553  15.340  11.211
41512W        W13128  38.665   4.233  12.503
41513W        W13129  21.190  19.220  13.511
41514W        W13130  31.192  15.319  11.984
41515W        W13131  27.514  26.949  14.493
41516W        W13132  29.223  43.564  12.040
41517W        W13133   2.278  34.070  11.086
41518W        W13134  12.923   1.921  14.951
41519W        W13135  10.278   9.423  12.024
41520W        W13136  33.424  36.880  13.900
41521W        W13137  20.991   8.598   2.123
41522W        W13138  37.500  23.278   4.291
41523W        W13139  10.850  40.487  10.540
41524W        W13140   2.238  25.065  11.211
41525W        W13141   4.385  36.126  11.169
41526W        W13142  15.189  19.125  11.397
41527W        W13143  38.987  24.837   1.453
41528W        W13144   7.690  21.124  10.631
41529W        W13145   7.300  34.371   0.405
41530W        W13146  32.163  38.131  14.371
41531W        W13147  31.712  42.819   2.272
41532W        W13148   5.159   8.401  11.864
41533W        W13149  31.437  22.001   1.162
41534W        W13150  34.706  37.518  12.913
41535W        W13151  20.870  40.615  13.104
41536W        W13152  12.757  41.554   0.511
41537W        W13153  20.516  42.711  13.032
41538W        W13154   2.413  30.650  13.562
41539W        W13155  33.922   5.213   2.834
41540W        W13156   6.310  37.398   9.846
41541W        W13157  36.272  13.683   2.337
41542W        W13158   2.196  38.683   4.625
41543W        W13159  28.625  42.480  12.420
41544W        W13160  39.743   0.037   3.793
41545W        W13161  38.988  11.608   1.493
41546W        W13162  38.099  42.536  12.487
41547W        W13163  20.714  26.053   0.742
41548W        W13164   0.467  23.559   3.093
41549W        W13165  26.914  30.993  11.185
41550W        W13166  33.507  25.072   0.854
41551W        W13167  29.444  16.453  13.290
41552W        W13168  36.147   9.135  11.970
41553W        W13169  33.109  28.776   3.757
41554W        W13170  14.651  27.167  10.965
41555W        W13171  27.878  27.712  11.105
41556W        W13172  44.727  25.579  13.409
41557W        W13173  15.665   9.405   3.713
41558W        W13174   9.605  26.797   0.275
41559W        W13175   5.168  39.013   2.677
41560W        W13176  39.825  16.944   3.416
41561W        W13177  27.164  34.743   1.978
41562W        W13178  12.021  16.157   1.434
41563W        W13179  22.775   6.435   0.536
41564W        W13180  25.094  11.797   3.372
41565W        W13181  20.116  15.641   2.679
41566W        W13182  20.779   7.644  13.803
41567W        W13183  33.465  35.312   4.854
41568W        W13184  44.935  38.144   3.159
41569W        W13185  11.919  29.430  13.351
41570W        W13186  34.296  30.548   2.731
41571W        W13187  14.474  42.868   5.019
41572W        W13188  39.962  34.483   1.077
41573W        W13189  14.501   0.950  12.495
41574W        W13190  31.445  31.575  11.958
41575W        W13191  19.309  14.042   3.677
41576W        W13192  43.873   6.678  13.317
41577W        W13193  22.397  15.105  13.068
41578W        W13194  17.332  24.646   4.221
41579W        W13195  42.284  14.959  14.423
41580W        W13196  20.589   5.880  10.684
41581W        W13197  34.627  30.238  10.670
41582W        W13198  22.167  13.081  13.414
41583W        W13199  35.772  29.156   0.747
41584W        W13200   4.017   2.795   2.662
41585W        W13201   0.505   2.293   3.602
41586W        W13202   7.863  36.627   2.698
41587W        W13203  32.874   0.240   0.877
41588W        W13204  37.105  30.344  10.686
41589W        W13205   1.825  14.333   2.596
41590W        W13206  36.585  36.467   1.701
41591W        W13207   3.971  39.848  14.288
41592W        W13208  27.481  39.972   3.841
41593W        W13209   7.312  36.090   2.093
41594W        W13210  21.476   9.158   3.272
41595W        W13211  42.306   9.123   1.639
41596W        W13212  27.176  10.100  10.739
41597W        W13213  11.194  31.411   1.657
41598W        W13214  37.226  24.366   4.957
41599W        W13215  27.142  26.540   0.189
41600W        W13216  34.872  25.366   3.680
41601W        W13217  22.619  35.554   0.435
41602W        W13218  16.174   6.201  14.060
41603W        W13219  42.409  25.509  12.061
41604W        W13220  17.305  43.837   2.668
41605W        W13221  40.988   5.923  13.336
41606W        W13222  41.979  13.377   0.288
41607W        W13223  42.050  39.111   4.541
41608W        W13224  31.349   9.804   1.500
41609W        W13225  22.545   1.963  10.798
41610W        W13226  23.082  16.970  11.966
41611W        W13227  28.036  21.763   2.322
41612W        W13228  23.718  14.498   2.412
41613W        W13229  32.034  20.294   1.189
41614W        W13230  15.806   5.682   0.353
41615W        W13231  35.119  44.362   4.546
41616W        W13232  34.724   1.452  13.897
41617W        W13233   5.238   0.727  10.557
41618W        W13234   3.053  21.832   4.645
41619W        W13235  39.113  41.727   1.598
41620W        W13236  44.404  43.923  10.091
41621W        W13237  14.857   0.050   0.896
41622W        W13238   8.760  34.721   0.634
41623W        W13239  20.088  35.535   2.195
41624W        W13240  16.938  33.165   3.740
41625W        W13241  20.333   7.405   1.046
41626W        W13242  21.945   8.493  12.818
41627W        W13243  36.258  16.930   1.277
41628W        W13244  10.014  12.091  13.973
41629W        W13245   8.837   9.933   3.406
41630W        W13246   0.861  41.963   0.482
41631W        W13247  27.179  10.004   1.698
41632W        W13248  19.663  30.637  11.953
41633W        W13249  22.875  17.814   4.244
41634W        W13250  35.933  26.667   4.461
41635W        W13251  25.180  17.989  10.685
41636W        W13252  21.758  34.593  11.015
41637W        W13253  43.489  34.081  12.101
41638W        W13254  11.661  24.586   3.651
41639W        W13255  38.023  11.505   2.659
41640W        W13256  36.399   6.704  10.757
41641W        W13257  22.462  11.267  11.577
41642W        W13258  32.359  33.140   0.856
41643W        W13259  33.291  30.779  12.466
41644W        W13260   5.406  37.374  11.642
41645W        W13261   3.919  21.066   1.820
41646W        W13262  24.523  16.779  11.729
41647W        W13263  34.300  25.491  12.931
41648W        W13264  17.094   7.908   2.710
41649W        W13265  16.230   7.056   4.566
41650W        W13266   0.430  41.595   1.521
41651W        W13267  29.607  40.359  13.979
41652W        W13268  24.557  16.834   0.248
41653W        W13269  21.973  14.406  14.620
41654W        W13270  24.124  36.449  10.784
41655W        W13271  10.891  35.411  14.308
41656W        W13272   2.202  14.720   0.883
41657W        W13273   3.314  38.324  10.761
41658W        W13274   8.310  35.087  12.047
41659W        W13275   6.608  40.799   3.907
41660W        W13276  37.848  37.332  14.936
41661W        W13277  16.625   5.781  13.374
41662W        W13278   9.616  22.467   4.810
41663W        W13279  14.322  31.638  11.670
41664W        W13280  14.871  19.694  13.557
41665W        W13281  43.894  36.840  14.805
41666W        W13282   5.434  11.868   1.784
41667W        W13283  40.823  31.129   2.480
41668W        W13284  36.990  16.565   4.281
41669W        W13285  15.443  37.948   2.247
41670W        W13286  11.704  29.222   2.111
41671W        W13287   9.958   8.691  12.438
41672W        W13288  33.166   2.924   3.389
41673W        W13289   1.629  16.806  13.555
41674W        W13290  25.096  24.151   4.669
41675W        W13291  23.322   9.506  14.087
41676W        W13292  32.187  12.689  13.577
41677W        W13293   7.860  17.770   1.702
41678W        W13294  32.124  33.366   4.592
41679W        W13295  34.335  17.693   2.622
41680W        W13296   1.811  40.853   1.920
41681W        W13297  21.979   2.665  11.061
41682W        W13298  12.099  14.280   3.194
41683W        W13299   8.336  23.563  14.010
41684W        W13300  33.384  23.222  14.480
41685W        W13301  12.650   2.265   2.401
41686W        W13302   7.968  39.186  11.608
41687W        W13303  25.539  43.387   0.290
41688W        W13304  17.165  29.724  13.060
41689W        W13305  27.570  28.925  11.124
41690W        W13306   1.773  23.772  13.457
41691W        W13307  12.815  20.097   2.837
41692W        W13308  10.333   3.970  13.812
41693W        W13309   9.246  24.192  11.579
41694W        W13310  17.693  33.620  11.103
41695W        W13311   5.310   7.910   4.446
41696W        W13312   1.752  25.200  11.329
41697W        W13313   4.488  15.603   4.554
41698W        W13314   4.462  17.240  10.859
41699W        W13315  39.529  26.966   1.171
41700W        W13316  37.908  11.110   1.648
41701W        W13317  39.584   3.868  12.605
41702W        W13318   5.412  24.582  12.001
41703W        W13319  44.922  15.871  11.095
41704W        W13320   6.165  33.530   2.071
41705W        W13321  20.653  26.197  14.085
41706W        W13322   5.747  22.708   4.127
41707W        W13323  40.036   0.503   3.085
41708W        W13324  22.921  11.623   0.823
41709W        W13325  12.162  13.120  13.293
41710W        W13326   2.969   8.471   2.401
41711W        W13327  14.088   9.805  14.971
41712W        W13328  39.247  26.942  11.221
41713W        W13329  34.165  39.222   2.931
41714W        W13330  18.925   2.923  12.102
41715W        W13331  42.083  24.084   4.194
41716W        W13332  26.722  27.281   1.332
41717W        W13333  33.307   6.909  14.454
41718W        W13334  12.832   2.378   1.222
41719W        W13335  22.718  24.001   0.478
41720W        W13336  35.398  36.947  10.451
41721W        W13337  20.037  43.557  12.126
41722W        W13338  27.002  40.499  13.375
41723W        W13339   7.237  23.271  12.799
41724W        W13340  29.827  20.933  12.121
41725W        W13341  41.516  41.323  13.420
41726W        W13342   1.290  41.896   1.577
41727W        W13343  43.215   6.203   0.241
41728W        W13344  42.701  29.015   2.943
41729W        W13345  33.513  27.632   5.298
41730W        W13346  12.205  38.877   3.671
41731W        W13347  39.560  10.272   3.626
41732W        W13348  21.729  33.478  12.363
41733W        W13349  24.929  40.937   0.602
41734W        W13350   2.672  13.951  14.233
41735W        W13351  17.030  23.654   0.758
41736W        W13352  38.301  19.173   3.348
41737W        W13353   3.840  30.846   2.790
41738W        W13354  24.676  20.930   1.713
41739W        W13355   1.998  36.492   0.439
41740W        W13356  40.031  22.163  13.503
41741W        W13357   4.700  26.383  11.120
41742W        W13358  13.328  22.991  13.539
41743W        W13359   4.363  30.938   1.711
41744W        W13360   3.523  29.274  13.340
41745W        W13361  23.579  39.947   2.823
41746W        W13362  29.195  16.688   2.803
41747W        W13363   0.349   0.406   3.749
41748W        W13364  21.069  41.675   4.068
41749W        W13365  31.935  31.424   4.695
41750W        W13366  12.428  37.494  14.967
41751W        W13367  44.873   7.886  13.985
41752W        W13368  38.295  18.827  11.344
41753W        W13369   8.593  12.309   0.440
41754W        W13370  10.643  30.400  10.420
41755W        W13371  14.599  37.989   4.240
41756W        W13372  28.883  17.241   4.960
41757W        W13373  26.012  44.845  12.176
41758W        W13374  11.142  24.044  11.019
41759W        W13375  24.773  40.476   4.133
41760W        W13376   5.992  40.563  12.350
41761W        W13377  32.064   7.732   1.642
41762W        W13378  15.429   3.260  11.368
41763W        W13379  35.869  31.156   0.748
41764W        W13380   5.735  30.557  14.480
41765W        W13381  39.947  15.779   0.791
41766W        W13382  41.508   5.566   4.292
41767W        W13383  14.223  43.060   1.295
41768W        W13384  24.076   6.879  13.399
41769W        W13385  31.534   1.951  10.927
41770W        W13386  16.629  32.351  11.940
41771W        W13387  22.614   3.770  11.612
41772W        W13388  43.104  19.071  14.336
41773W        W13389  28.625  24.288   4.918
41774W        W13390  42.144  15.841   0.842
41775W        W13391  42.095  37.941   1.910
41776W        W13392  33.522  21.921   3.029
41777W        W13393   3.752   1.831  11.258
41778W        W13394  24.675  41.373   1.237
41779W        W13395   0.758   0.519  13.692
41780W        W13396  19.681  35.275  11.387
41781W        W13397  11.720  12.254  11.009
41782W        W13398  28.382  12.159  12.461
41783W        W13399  18.266  36.264   2.275
41784W        W13400   0.541   8.837   1.772
41785W        W13401  28.105  44.402  12.018
41786W        W13402  38.496  26.205  14.556
41787W        W13403  34.396   6.762   1.777
41788W        W13404  24.824   6.248  13.310
41789W        W13405  27.415   9.771   4.039
41790W        W13406  21.772  18.223   0.924
41791W        W13407   4.429  44.425  12.440
41792W        W13408   2.273   1.324   4.604
41793W        W13409   0.987  33.607   4.618
41794W        W13410  28.474  20.592   4.966
41795W        W13411   6.341  32.732   4.704
41796W        W13412  17.357  44.314  13.556
41797W        W13413  15.093  33.444  11.236
41798W        W13414  38.474  41.409   3.180
41799W        W13415  36.054  43.211   4.774
41800W        W13416  15.194  20.808   2.353
41801W        W13417  17.035  33.320   1.840
41802W        W13418  15.173   7.128  13.921
41803W        W13419   3.717  30.072   1.391
41804W        W13420  33.341   4.855  14.252
41805W        W13421  32.794   0.834   2.015
41806W        W13422  31.893  34.370   1.372
41807W        W13423  14.062  35.521   1.344
41808W        W13424  23.037  28.976   2.883
41809W        W13425  24.606  25.488   0.861
41810W        W13426  23.011  15.961  12.338
41811W        W13427  15.972  35.360  14.700
41812W        W13428  35.898  10.286  10.680
41813W        W13429   3.323  22.762   4.553
41814W        W13430   7.966  10.413   3.311
41815W        W13431  33.362  27.084   4.482
41816W        W13432  17.599  44.761  13.428
41817W        W13433   8.924  11.919   1.347
41818W        W13434  22.167  26.377   5.098
41819W        W13435  28.010  37.131  13.819
41820W        W13436  36.830   6.345   1.650
41821W        W13437  35.607  33.584  12.128
41822W        W13438  12.022  39.973  10.575
41823W        W13439  23.086  43.355   0.428
41824W        W13440  24.613  16.762  14.294
41825W        W13441  30.579  35.609   1.989
41826W        W13442  23.262  31.239   4.236
41827W        W13443  33.855   6.959   0.383
41828W        W13444  24.299  30.207   0.264
41829W        W13445  43.056   7.441   1.776
41830W        W13446   6.857  31.942   4.872
41831W        W13447  38.106  35.524  14.584
41832W        W13448  40.829  42.941   4.628
41833W        W13449   6.257  15.710  14.771
41834W        W13450  22.235  25.482  14.832
41835W        W13451   7.180   0.845  12.837
41836W        W13452   3.457  26.738  12.659
41837W        W13453  36.332  31.172   1.880
41838W        W13454   8.884  18.451   1.930
41839W        W13455  13.239  12.340   2.250
41840W        W13456  29.578  20.578  11.822
41841W        W13457  42.373   7.838   4.342
41842W        W13458  26.399   2.415  13.686
41843W        W13459  38.078  30.828  14.042
41844W        W13460  35.761  13.612   2.305
41845W        W13461  28.837  32.657   2.796
41846W        W13462   9.711  29.774   3.633
41847W        W13463  21.507  36.061  12.143
41848W        W13464   7.029   7.501   0.767
41849W        W13465  10.276  28.550   0.334
41850W        W13466  34.515  40.013   2.853
41851W        W13467   8.464  28.420  14.107
41852W        W13468  29.550   0.666  14.921
41853W        W13469  44.820  22.129  13.442
41854W        W13470   6.835  17.914  13.264
41855W        W13471  14.657  21.344   5.093
41856W        W13472  23.716  33.082  14.668
41857W        W13473  39.839   1.406  14.561
41858W        W13474  29.400  12.085  12.584
41859W        W13475  11.632  25.684   3.755
41860W        W13476  34.693  18.524   4.234
41861W        W13477  37.302  21.097  10.420
41862W        W13478  44.802  43.000   3.738
41863W        W13479  25.930  37.721  10.485
41864W        W13480   1.130  14.955  12.879
41865W        W13481  27.453  12.832  14.346
41866W        W13482  38.495  32.835   2.675
41867W        W13483  21.550  18.307  12.079
41868W        W13484  19.581   8.740  13.981
41869W        W13485  31.463  10.414   2.693
41870W        W13486  38.875  17.116  14.299
41871W        W13487  12.718  10.905  10.704
41872W        W13488  10.903   9.997   2.423
41873W        W13489   4.875  43.320   0.218
41874W        W13490  32.521   8.987   1.678
41875W        W13491  18.841  19.002  14.434
41876W        W13492  18.848  21.796  12.855
41877W        W13493  27.123   7.208  14.362
41878W        W13494  27.926  44.338   4.002
41879W        W13495   5.390  29.217   2.233
41880W        W13496   4.027  42.808  12.934
41881W        W13497  10.801   6.839   3.114
41882W        W13498  33.367   0.063  12.527
41883W        W13499  32.513  38.955   3.720
41884W        W13500  22.955  15.671  13.695
41885W        W13501  23.680  35.955  14.914
41886W        W13502  19.259  19.194   1.733
41887W        W13503  13.533  29.441   2.825
41888W        W13504  20.619   3.114   1.129
41889W        W13505   7.953   3.304   0.593
41890W        W13506  35.632  26.654  14.431
41891W        W13507  42.055   1.861   3.184
41892W        W13508   6.907  11.805   1.685
41893W        W13509  29.625  42.573  14.910
41894W        W13510  11.632  13.748   2.139
41895W        W13511   2.550  33.838   5.070
41896W        W13512  18.292  42.523  10.247
41897W        W13513  25.745  40.966   2.180
41898W        W13514  20.960  28.696   3.679
41899W        W13515   0.416   6.304   2.742
41900W        W13516  15.929  25.111  12.014
41901W        W13517  33.065  11.235   3.137
41902W        W13518   2.614  40.023   3.620
41903W        W13519   6.877  42.570  14.852
41904W        W13520  38.554  43.501  14.411
41905W        W13521  42.844  36.226  14.380
41906W        W13522   5.213   2.758  14.529
41907W        W13523  18.374   1.354  13.351
41908W        W13524   5.481  34.029  14.522
41909W        W13525  44.959  35.380  12.094
41910W        W13526  29.442  35.984   0.276
41911W        W13527   7.677  33.586   2.879
41912W        W13528  35.013   4.277   1.819
41913W        W13529  32.064  27.703   1.092
41914W        W13530  23.979  12.659   3.998
41915W        W13531  15.847  30.693  14.482
41916W        W13532  28.212  31.532   3.295
41917W        W13533  43.056  15.733   5.077
41918W        W13534  15.356  25.454  13.291
41919W        W13535   0.545  39.950  12.082
41920W        W13536  43.105  32.908  10.775
41921W        W13537  23.345  13.943  13.699
41922W        W13538  39.501  43.673  14.838
41923W        W13539  41.260  38.541  13.885
41924W        W13540  19.471  33.162  10.731
41925W        W13541   2.427  43.530   4.580
41926W        W13542  19.522  32.935  13.441
41927W        W13543  16.137  18.104  13.841
41928W        W13544   1.894  24.689   4.336
41929W        W13545  32.806  21.475   1.670
41930W        W13546  37.238  17.810  13.487
41931W        W13547  26.097   0.122  11.644
41932W        W13548  30.665  25.128  13.762
41933W        W13549  43.020   5.357  10.391
41934W        W13550   3.905  10.602  14.517
41935W        W13551  43.438  10.872  11.532
41936W        W13552  13.356  11.934  11.985
41937W        W13553  22.287  40.435   0.358
41938W        W13554  12.345   9.819  13.831
41939W        W13555  30.907  43.244   2.621
41940W        W13556  36.888   6.655   2.830
41941W        W13557  15.541   3.429  13.821
41942W        W13558  20.644  12.166   1.873
41943W        W13559   6.314  13.602  11.500
41944W        W13560   8.164  17.587   4.390
41945W        W13561  17.425  41.244  11.099
41946W        W13562  22.698  33.358   5.137
41947W        W13563  38.334  18.316  11.252
41948W        W13564  38.112  11.712   0.180
41949W        W13565  10.369  27.739   3.097
41950W        W13566  34.087  16.255   0.800
41951W        W13567  14.269   4.169   5.109
41952W        W13568  26.762  40.048   1.189
41953W        W13569   7.692   4.425   0.927
41954W        W13570  24.676  37.161  12.047
41955W        W13571  26.167  13.666  11.595
41956W        W13572  29.712   5.898   4.879
41957W        W13573  15.686  25.065  14.915
41958W        W13574  18.662   8.281   4.507
41959W        W13575   7.806  39.246   2.354
41960W        W13576  37.861   3.777  12.330
41961W        W13577   4.040  25.243  13.501
41962W        W13578  11.700  20.166   1.926
41963W        W13579  41.195   0.944  14.317
41964W        W13580  32.992  32.306  11.520
41965W        W13581  34.519  40.295   4.547
41966W        W13582  31.093  16.995   4.940
41967W        W13583  12.464  16.269   1.713
41968W        W13584  12.419  22.617   0.806
41969W        W13585  36.150  16.110   0.811
41970W        W13586  42.219   2.317  11.234
41971W        W13587  42.897  42.172  14.484
41972W        W13588   3.746  18.227  14.045
41973W        W13589  43.163  36.813  10.725
41974W        W13590  30.034  21.031   0.513
41975W        W13591  28.666   8.468  13.594
41976W        W13592   1.850  11.802  14.666
41977W        W13593  11.412  18.343  11.087
41978W        W13594  25.428  10.227  10.286
41979W        W13595  29.063  17.063  11.019
41980W        W13596   4.143   2.844   1.818
41981W        W13597  10.179  12.499   1.996
41982W        W13598   3.388  11.898  10.568
41983W        W13599  27.650  43.999   4.492
41984W        W13600  24.407   9.282   1.763
41985W        W13601  10.360  22.785  12.577
41986W        W13602  32.856  40.989   2.761
41987W        W13603  30.953  34.526   2.299
41988W        W13604  43.262  18.393   4.228
41989W        W13605   7.031  29.388  13.545
41990W        W13606  11.322  28.756   0.372
41991W        W13607  20.369   2.377   3.622
41992W        W13608  17.586   1.787   3.181
41993W        W13609  42.612  30.326   0.087
41994W        W13610  35.314  36.873  12.894
41995W        W13611  16.733  33.923   3.087
41996W        W13612  36.984   7.069   3.240
41997W        W13613  22.694  30.375   2.359
41998W        W13614   5.094  28.134  14.521
41999W        W13615  12.633   0.767   4.599
42000W        W13616  25.957  44.536   1.762
42001W        W13617   5.360  43.298  11.304
42002W        W13618  34.900   1.263   1.383
42003W        W13619  17.171  10.930  14.893
42004W        W13620  25.634   9.892  13.971
42005W        W13621  33.985  34.056   2.174
42006W        W13622  28.636  22.193  14.079
42007W        W13623  27.125  10.452  13.033
42008W        W13624  28.366  12.099  14.082
42009W        W13625   9.751   0.239  12.636
42010W        W13626  14.913  37.134   4.668
42011W        W13627  32.308  13.166  13.391
42012W        W13628   0.917   8.358   4.617
42013W        W13629  37.547  43.012   2.160
42014W        W13630   8.904   6.862   0.974
42015W        W13631   7.395  15.199   1.111
42016W        W13632  19.035  26.550   3.587
42017W        W13633  27.384  32.429  11.115
42018W        W13634  36.541  36.638  11.457
42019W        W13635  33.611  38.365   4.500
42020W        W13636  27.745  38.022   1.950
42021W        W13637   1.524  43.465   2.279
42022W        W13638  33.407   4.289  12.047
42023W        W13639  13.139  29.032   1.424
42024W        W13640  19.159  34.958   3.466
42025W        W13641   9.763  12.273   4.301
42026W        W13642  25.546   7.744  12.852
42027W        W13643  15.253  29.437  11.882
42028W        W13644  26.607   3.880  13.820
42029W        W13645  26.118  29.468  13.380
42030W        W13646   8.914   7.834  14.617
42031W        W13647  38.917  40.891  14.025
42032W        W13648  38.139  32.093   2.250
42033W        W13649   9.152  43.636  13.767
42034W        W13650  28.689  41.589   4.573
42035W        W13651  36.891  30.943  13.254
42036W        W13652  29.405  44.388  11.050
42037W        W13653  14.708  19.540  11.954
42038W        W13654   9.623  33.979  10.801
42039W        W13655   5.710  40.908  11.541
42040W        W13656  43.445   4.167  10.808
42041W        W13657  27.467  31.419   0.683
42042W        W13658  42.409  41.930  11.120
42043W        W13659  20.742  14.621   4.939
42044W        W13660  11.849  11.393   0.234
42045W        W13661  40.673  36.349   2.023
42046W        W13662   2.630  10.804   2.278
42047W        W13663   2.542   8.548   2.812
42048W        W13664  14.695  19.261   1.692
42049W        W13665  35.802  27.457   3.164
42050W        W13666  22.896  13.768  12.789
42051W        W13667   8.492  22.027   2.404
42052W        W13668  12.160  30.195  11.727
42053W        W13669   2.326   6.836   4.597
42054W        W13670  32.590  28.109  12.424
42055W        W13671  33.473   7.165   5.468
42056W        W13672  30.246  14.825  11.169
42057W        W13673  20.171  23.268   3.840
42058W        W13674  19.870   7.206   3.239
42059W        W13675  37.871  32.093  11.009
42060W        W13676  24.843  32.195   4.090
42061W        W13677  33.055  38.587   1.928
42062W        W13678   4.217  20.963   4.666
42063W        W13679  24.469  34.591  13.000
42064W        W13680  14.657  16.660   1.902
42065W        W13681  22.662  33.590   0.494
42066W        W13682  27.492  42.892  11.749
42067W        W13683  41.283  30.237   4.119
42068W        W13684  28.152   5.170  14.800
42069W        W13685   9.982  43.731  10.863
42070W        W13686  29.730   3.195  11.558
42071W        W13687  44.753  29.410   2.732
42072W        W13688  27.837  42.171   0.002
42073W        W13689  36.929  42.572  10.969
42074W        W13690  44.411   2.192  12.578
42075W        W13691  29.513   8.814   4.929
42076W        W13692  41.440  10.258  10.729
42077W        W13693  41.490  41.936   2.311
42078W        W13694  28.629  16.400  14.835
42079W        W13695  25.677  17.244   9.928
42080W        W13696   3.332  34.427   0.400
42081W        W13697  31.835  15.472   4.159
42082W        W13698  38.923  42.880  11.025
42083W        W13699  37.045  41.436  12.515
42084W        W13700  27.896  11.753   2.701
42085W        W13701  36.719  12.653  14.804
42086W        W13702  13.854   1.003  12.169
42087W        W13703  42.193   4.441   3.885
42088W        W13704  21.041  17.772   2.901
42089W        W13705  34.984  31.063  12.003
42090W        W13706  14.043  31.494   3.689
42091W        W13707  41.970  33.098   1.764
42092W        W13708  15.716   8.975  13.014
42093W        W13709  43.783   4.930  12.928
42094W        W13710  18.018  42.585  10.685
42095W        W13711  41.620   4.445  14.694
42096W        W13712  39.297  33.394   4.828
42097W        W13713  30.926  41.532  10.279
42098W        W13714  24.964  36.934  12.873
42099W        W13715  18.477   9.654  11.022
42100W        W13716  41.511  37.075   2.911
42101W        W13717  20.472  33.610  12.961
42102W        W13718   2.792   0.032  13.426
42103W        W13719   0.752  16.768   0.328
42104W        W13720  14.494  21.092  12.093
42105W        W13721   1.225  33.427   1.170
42106W        W13722  13.626  22.719   1.800
42107W        W13723  24.396   9.222   0.788
42108W        W13724  24.211  40.351  14.505
42109W        W13725  19.866  36.007   0.807
42110W        W13726  28.253  19.001  14.860
42111W        W13727  29.053  43.883   3.213
42112W        W13728   1.774  32.619   3.139
42113W        W13729  35.002  32.585  11.472
42114W        W13730   4.262  19.733  12.443
42115W        W13731  13.847  19.288  13.824
42116W        W13732  22.972  14.126  14.008
42117W        W13733  43.401  20.484   4.751
42118W        W13734   1.968   3.478  10.701
42119W        W13735  33.581  23.635  14.242
42120W        W13736  24.142   7.414   3.911
42121W        W13737  31.069  15.141  11.046
42122W        W13738  17.512  44.586   5.391
42123W        W13739  18.327  23.031  12.510
42124W        W13740  14.216  23.573   1.942
42125W        W13741  40.377   1.805   0.392
42126W        W13742  40.159  33.827  10.700
42127W        W13743  32.613   4.346   2.500
42128W        W13744  15.340   4.179   0.757
42129W        W13745  10.172  25.696  12.532
42130W        W13746  25.073  30.606   2.486
42131W        W13747  24.640  35.614  13.086
42132W        W13748  14.822   5.106   3.848
42133W        W13749  18.279  34.158   0.055
42134W        W13750  23.606  35.600   2.835
42135W        W13751  34.160  35.135  11.559
42136W        W13752  28.013   3.054  11.059
42137W        W13753   8.863  34.859   3.175
42138W        W13754  24.972  35.101   4.769
42139W        W13755   4.468  11.260  13.311
42140W        W13756  31.600   8.035   3.687
42141W        W13757  31.965   5.231   1.883
42142W        W13758  35.408   2.517   3.236
42143W        W13759  39.878  23.978  14.983
42144W        W13760  14.623   8.908  13.402
42145W        W13761  24.456  21.225   0.342
42146W        W13762  30.011  43.575   3.605
42147W        W13763  42.532  12.835  13.167
42148W        W13764   2.921  33.557   4.767
42149W        W13765  19.159  25.284  11.503
42150W        W13766  40.510  13.921  12.532
42151W        W13767  36.441  21.080   9.794
42152W        W13768  15.227  11.284   2.284
42153W        W13769  21.047   0.378   1.266
42154W        W13770  15.371  44.555   3.244
42155W        W13771   5.709  16.561  11.511
42156W        W13772  10.616   7.590  12.923
42157W        W13773  31.044  11.637  10.304
42158W        W13774   4.956   8.652  10.894
42159W        W13775  30.769  29.596   2.378
42160W        W13776  33.970   0.270  14.031
42161W        W13777   7.296  41.419  14.770
42162W        W13778   8.736  31.137  10.383
42163W        W13779  28.972  43.056   2.623
42164W        W13780  13.888  34.619  12.520
42165W        W13781  12.071  30.314  11.198
42166W        W13782  19.144  25.535   3.707
42167W        W13783  29.860  23.517   3.758
42168W        W13784  40.971   2.257  11.615
42169W        W13785  23.785  43.724   3.021
42170W        W13786  37.361  21.463  13.833
42171W        W13787  27.047  21.576   2.018
42172W        W13788  44.434  35.585  14.954
42173W        W13789  43.883   9.150   4.285
42174W        W13790  44.438  44.428  13.488
42175W        W13791  25.194  25.101   0.829
42176W        W13792  38.940  44.038   1.377
42177W        W13793  42.503  31.103   0.339
42178W        W13794  27.199  26.582   3.394
42179W        W13795  10.005  41.191   5.468
42180W        W13796  23.146  33.362   0.416
42181W        W13797  35.482  41.012  13.630
42182W        W13798  17.068   7.245  13.036
42183W        W13799  19.069  15.023   1.320
42184W        W13800  38.582  36.280   4.584
42185W        W13801  27.439  41.367  11.435
42186W        W13802  36.550  37.468   3.906
42187W        W13803  44.955  11.111   3.340
42188W        W13804   6.026  30.342   0.797
42189W        W13805  34.053  43.330   4.082
42190W        W13806   1.754  20.548   4.196
42191W        W13807   1.424  41.526   1.944
42192W        W13808   0.190  18.386   1.909
42193W        W13809  24.927  27.601   0.394
42194W        W13810  15.284   7.598   1.696
42195W        W13811  14.641  41.869   0.464
42196W        W13812  11.818  39.075  11.511
42197W        W13813  30.571   7.210   4.758
42198W        W13814  40.328  12.581  14.721
42199W        W13815  25.254  44.188  14.938
42200W        W13816  36.500  10.946   0.791
42201W        W13817   2.249  28.668   3.870
42202W        W13818  39.328  36.944  10.783
42203W        W13819  38.393  36.590   2.621
42204W        W13820   0.483   7.899   1.742
42205W        W13821   5.391   7.179  11.101
42206W        W13822  17.431  44.040   4.238
42207W        W13823  42.786  27.924   0.442
42208W        W13824  31.040  32.492   1.404
42209W        W13825  34.183  17.102  11.033
42210W        W13826   4.482  18.747  10.655
42211W        W13827  34.177  17.562   0.878
42212W        W13828  37.254  27.635   4.241
42213W        W13829   9.347  10.225  13.241
42214W        W13830  36.179  33.475   9.773
42215W        W13831  10.895  35.895  14.097
42216W        W13832  42.387  31.838  13.114
42217W        W13833  23.446  44.191  14.091
42218W        W13834   6.892  31.549   3.716
42219W        W13835  24.500  12.421   0.671
42220W        W13836   2.367  37.072  12.933
42221W        W13837  13.617  34.030   4.442
42222W        W13838   9.177  28.107  10.226
42223W        W13839  39.856  22.148  10.719
42224W        W13840   9.332  19.345   2.577
42225W        W13841  18.824  26.141   4.761
42226W        W13842   1.163  31.907   3.315
42227W        W13843   2.368  36.041   0.435
42228W        W13844  32.650  32.156   0.923
42229W        W13845  24.265  19.149  14.960
42230W        W13846  38.362  10.181   0.865
42231W        W13847  12.360  11.667   1.452
42232W        W13848  15.140   1.938   3.586
42233W        W13849  37.074  12.588  10.290
42234W        W13850   0.522   6.043   4.076
42235W        W13851  13.023  19.395   3.264
42236W        W13852  25.758  38.251   4.103
42237W        W13853  11.326  28.528   0.913
42238W        W13854  16.708  41.891   5.059
42239W        W13855  21.664  12.257   0.222
42240W        W13856  22.620  21.673   2.684
42241W        W13857  14.623  37.735   3.395
42242W        W13858  24.101  32.889   0.400
42243W        W13859  20.157  41.713  14.727
42244W        W13860  36.118  31.487  13.799
42245W        W13861  19.675  23.714   1.417
42246W        W13862   7.673  19.682  14.903
42247W        W13863   8.149  26.656   2.647
42248W        W13864   3.426  26.449  14.961
42249W        W13865  19.038  21.052  14.489
42250W        W13866  15.585  37.139  13.517
42251W        W13867   0.681   5.614   0.476
42252W        W13868  33.495   0.245  14.301
42253W        W13869  27.625  25.211  13.556
42254W        W13870  33.473  21.849   4.987
42255W        W13871  16.066  29.143  13.948
42256W        W13872  34.723  24.549  13.315
42257W        W13873  35.933  12.600   2.650
42258W        W13874  32.301  29.004  13.673
42259W        W13875  42.980  42.508   2.160
42260W        W13876  35.048   1.520  11.539
42261W        W13877  22.533  15.941  13.889
42262W        W13878  43.309  37.940   0.133
42263W        W13879  33.471  12.673   1.725
42264W        W13880  23.935  36.821   3.223
42265W        W13881   9.554   2.666   0.636
42266W        W13882  34.234  13.298   3.220
42267W        W13883   2.196  22.466   3.176
42268W        W13884  24.727  33.692  13.833
42269W        W13885  24.122   5.824  13.889
42270W        W13886  44.218  23.290   4.099
42271W        W13887  12.552  28.928   4.629
42272W        W13888  24.693   3.302   1.492
42273W        W13889  38.996  13.117  14.398
42274W        W13890  13.103   3.624   2.352
42275W        W13891  36.890  38.404   4.366
42276W        W13892  30.503  19.486   0.025
42277W        W13893  18.863  44.388   4.140
42278W        W13894  26.865  39.501  13.925
42279W        W13895  28.180  41.820   1.864
42280W        W13896  29.355  40.901  14.807
42281W        W13897  37.037   8.803   1.322
42282W        W13898  13.199   3.600  12.941
42283W        W13899  19.472  34.332  12.871
42284W        W13900  33.766  30.492   4.984
42285W        W13901  33.140  12.327   3.163
42286W        W13902  35.652  21.023  12.315
42287W        W13903  29.966  40.931   4.818
42288W        W13904   4.874  35.836  13.018
42289W        W13905  22.197  33.717   2.226
42290W        W13906  22.317  22.094  10.571
42291W        W13907  10.604  32.429  13.408
42292W        W13908  30.541  32.956   0.072
42293W        W13909  27.715  32.388  11.572
42294W        W13910   8.257   4.481   0.905
42295W        W13911  40.465  20.175  10.877
42296W        W13912  39.934  24.337  13.970
42297W        W13913  25.661  33.680  12.346
42298W        W13914  18.283  13.329  14.909
42299W        W13915  15.210  19.368   3.310
42300W        W13916  28.204  10.234  12.145
42301W        W13917  11.370   8.631  14.441
42302W        W13918  15.701   7.809   9.887
42303W        W13919   2.291  16.266  10.938
42304W        W13920  42.381  28.962  14.284
42305W        W13921  16.583  13.305  14.265
42306W        W13922  13.952  26.891   0.549
42307W        W13923  17.507  11.732  13.038
42308W        W13924  17.710  15.756  14.498
42309W        W13925  11.431  25.143   1.400
42310W        W13926  42.050  22.583  11.561
42311W        W13927  33.413   5.877   1.722
42312W        W13928  38.007   5.272   3.673
42313W        W13929  37.367  25.213   0.950
42314W        W13930  30.613  15.693  10.545
42315W        W13931  17.721   1.717  12.467
42316W        W13932  15.896  26.765   1.917
42317W        W13933  32.127  31.056   0.307
42318W        W13934  39.025  19.211   1.451
42319W        W13935  33.460  11.324   3.825
42320W        W13936  29.656  21.158  11.133
42321W        W13937  37.976  32.633   1.455
42322W        W13938  38.734  12.631   3.715
42323W        W13939  31.849  28.942   4.244
42324W        W13940  35.893   4.250   4.115
42325W        W13941  43.487  37.899   9.850
42326W        W13942  26.001  38.262   3.649
42327W        W13943  25.545   7.654  11.920
42328W        W13944  19.063  43.757   0.745
42329W        W13945  42.000   5.204   0.419
42330W        W13946  39.077  39.054   1.373
42331W        W13947  42.409  44.506  12.519
42332W        W13948  17.232  26.982  13.544
42333W        W13949  13.858  33.953  11.992
42334W        W13950   5.796  23.227   3.245
42335W        W13951  11.383  11.160   4.484
42336W        W13952  28.400  29.406  10.294
42337W        W13953  19.527  33.113   3.787
42338W        W13954  42.056  33.061   4.115
42339W        W13955  18.683  38.504   0.083
42340W        W13956   5.882  21.473   0.575
42341W        W13957  33.590  13.414   2.685
42342W        W13958  21.274  17.365  11.196
42343W        W13959  31.943   5.523   0.623
42344W        W13960  33.783   1.813   0.043
42345W        W13961   6.448  42.840  14.412
42346W        W13962  31.048  42.811   2.842
42347W        W13963  44.533  33.807  11.453
42348W        W13964  35.080  23.546  10.575
42349W        W13965  42.300  44.980  13.279
42350W        W13966  36.134  19.461  11.897
42351W        W13967  41.979  21.310  11.164
42352W        W13968  29.055  16.348   3.309
42353W        W13969  38.244  16.291  11.641
42354W        W13970  38.431  11.285  14.268
42355W        W13971  32.907   7.581  13.007
42356W        W13972   8.691  33.390  14.873
42357W        W13973  15.760  24.109   2.360
42358W        W13974  16.846  44.875  14.784
42359W        W13975   3.726  41.020  14.782
42360W        W13976  15.409   3.909  14.035
42361W        W13977  41.762  16.558  11.129
42362W        W13978  22.997  38.836   4.127
42363W        W13979  42.104  16.651  14.792
42364W        W13980  13.905  13.706  14.924
42365W        W13981  18.620  20.284   3.906
42366W        W13982   8.120  36.056  13.036
42367W        W13983   1.129  37.487  14.363
42368W        W13984  44.372  24.125  11.022
42369W        W13985  39.276  37.568  11.630
42370W        W13986   9.926   3.697  11.119
42371W        W13987   7.134  37.896   2.691
42372W        W13988   8.957   1.430  13.287
42373W        W13989  22.243  37.974  10.607
42374W        W13990  15.072  12.822   0.839
42375W        W13991  35.879  19.153  11.114
42376W        W13992  28.189  39.276  13.414
42377W        W13993  16.072   3.311  13.895
42378W        W13994  24.199  38.308  12.270
42379W        W13995  44.711  14.819   0.828
42380W        W13996  43.515  13.398  14.382
42381W        W13997   1.638   4.265   3.059
42382W        W13998  12.150   2.853  12.783
42383W        W13999  12.015  43.819   2.469
42384W        W14000  35.022  11.357   2.887
42385W        W14001   9.715  32.859  12.260
42386W        W14002  14.498  39.830  11.648
42387W        W14003  13.898  10.755  14.954
42388W        W14004  15.267  41.326   1.743
42389W        W14005   9.724  36.347   0.437
42390W        W14006   6.696  22.764   4.554
42391W        W14007  24.315   4.592   4.337
42392W        W14008  21.290  41.770  11.506
42393W        W14009   9.807  22.266  12.049
42394W        W14010  27.146   2.326  14.345
42395W        W14011  41.489   6.789  10.684
42396W        W14012  16.220   4.703   3.319
42397W        W14013   6.403  22.780   1.356
42398W        W14014  22.299   1.057   2.238
42399W        W14015  36.801  33.953   4.791
42400W        W14016  24.924  40.646   1.835
42401W        W14017  41.885   0.090   4.496
42402W        W14018  41.958  36.439  10.619
42403W        W14019  42.452  28.222   4.343
42404W        W14020  28.223  36.468   3.239
42405W        W14021  32.530  37.509   2.420
42406W        W14022  38.065  24.099  14.053
42407W        W14023   1.815   8.844  11.543
42408W        W14024  16.122  41.231   2.718
42409W        W14025   0.964  20.095   3.822
42410W        W14026  43.878  28.004  13.560
42411W        W14027  37.806  21.135  12.501
42412W        W14028  28.582   9.278   1.867
42413W        W14029   9.098  25.969   4.585
42414W        W14030   7.864   5.087   4.332
42415W        W14031  12.296  26.901  14.901
42416W        W14032  17.971   5.155  12.607
42417W        W14033  23.611   9.671  14.552
42418W        W14034  42.714  25.206  11.472
42419W        W14035   4.822  14.764  11.712
42420W        W14036  10.853  30.444   2.771
42421W        W14037   2.749  12.647  11.411
42422W        W14038  17.250  13.706   0.027
42423W        W14039  22.796  16.642  14.937
42424W        W14040  10.381  26.174  11.043
42425W        W14041  34.473  25.053   0.639
42426W        W14042   4.158   0.477  13.449
42427W        W14043   0.509  30.051  12.345
42428W        W14044  18.340  15.170  13.299
42429W        W14045  31.015  16.260   4.210
42430W        W14046  16.857  26.921   0.555
42431W        W14047   8.849  19.939   3.039
42432W        W14048  38.350   0.735   1.244
42433W        W14049  21.087  23.495   4.817
42434W        W14050  20.792  35.901   2.196
42435W        W14051  17.955   9.387   1.333
42436W        W14052  26.739  26.791   0.456
42437W        W14053   9.955  40.353   0.769
42438W        W14054  10.321  31.970  14.572
42439W        W14055  14.630  40.247   1.280
42440W        W14056   6.119   4.480   2.882
42441W        W14057   9.325  38.071  11.242
42442W        W14058   0.728  25.982  12.900
42443W        W14059  16.091  23.142   0.416
42444W        W14060  36.942   3.524   1.368
42445W        W14061  21.811   1.694   0.879
42446W        W14062  22.687  36.434   0.329
42447W        W14063  32.274  34.075  11.368
42448W        W14064   8.840   3.944   1.223
42449W        W14065   0.812  23.002   4.623
42450W        W14066  22.229  22.088  11.513
42451W        W14067  17.191  26.650  14.794
42452W        W14068  40.358  11.890  12.307
42453W        W14069  11.473  36.430  11.697
42454W        W14070  27.511   7.901  13.007
42455W        W14071  37.095  22.770   4.031
42456W        W14072  18.780  15.654  14.458
42457W        W14073  36.366  41.448  12.801
42458W        W14074  24.583   7.866   3.229
42459W        W14075  11.859  34.415  14.474
42460W        W14076  22.167   7.716  10.696
42461W        W14077   9.357  33.969  14.193
42462W        W14078  40.468  37.447  11.984
42463W        W14079   3.800  37.567  11.714
42464W        W14080  29.000  31.923   0.162
42465W        W14081   0.972  20.974  11.619
42466W        W14082   4.875  33.893   2.777
42467W        W14083  43.551  26.953   0.391
42468W        W14084  35.209  16.847  13.441
42469W        W14085  27.956  14.294   4.215
42470W        W14086  25.231  37.844  12.819
42471W        W14087   1.046  42.042  11.124
42472W        W14088  28.485  16.885   2.407
42473W        W14089  23.320  19.280  13.790
42474W        W14090  22.290  26.153   0.720
42475W        W14091  35.580   6.893   0.984
42476W        W14092  28.690  35.061  12.482
42477W        W14093  34.638  17.280  13.278
42478W        W14094  17.178  44.441  11.016
42479W        W14095  39.427  23.819   1.017
42480W        W14096  28.727   0.918  13.924
42481W        W14097  38.876  20.989  11.161
42482W        W14098  28.932  31.403   0.242
42483W        W14099  20.174  16.105   4.262
42484W        W14100  15.725   6.767  10.963
42485W        W14101  34.941   0.623   3.542
42486W        W14102  37.537  32.354  11.299
42487W        W14103  39.815   8.389  12.603
42488W        W14104  32.884  29.407  14.958
42489W        W14105   8.418   8.300   0.306
42490W        W14106  26.464   4.397   3.867
42491W        W14107  38.874  26.998   4.404
42492W        W14108  22.739  15.609  14.546
42493W        W14109  29.622  42.328  12.234
42494W        W14110   9.899  10.822   2.280
42495W        W14111  34.223   0.448   5.413
42496W        W14112  42.942  37.406  11.714
42497W        W14113   0.132  27.998   2.638
42498W        W14114  43.278  32.154   1.743
42499W        W14115  27.602   2.493  12.424
42500W        W14116  44.801  15.890  12.023
42501W        W14117   1.256  42.837  12.281
42502W        W14118   5.975  29.808   3.359
42503W        W14119  34.667   7.270  11.120
42504W        W14120  23.685  27.644  12.803
42505W        W14121  23.916  20.983  14.435
42506W        W14122  34.634  22.661   4.285
42507W        W14123  38.898  43.555   3.681
42508W        W14124   2.987   9.777  13.804
42509W        W14125  26.577   1.534   1.359
42510W        W14126  18.289  24.137   1.478
42511W        W14127  43.481   1.279  11.218
42512W        W14128  17.766   1.215  12.524
42513W        W14129  20.530   1.294   4.370
42514W        W14130  18.587  37.640   1.561
42515W        W14131   4.865   6.850   2.437
42516W        W14132   0.049  40.457   3.247
42517W        W14133   6.912   7.557   4.282
42518W        W14134  13.313  14.303  11.604
42519W        W14135  43.742  17.793   3.284
42520W        W14136   7.109  27.492   1.840
42521W        W14137  10.471  35.717  14.391
42522W        W14138  20.440  20.553   1.270
42523W        W14139   8.797  33.355  12.561
42524W        W14140  34.907  41.240   4.338
42525W        W14141  37.011  14.207   1.291
42526W        W14142   8.722  17.119  11.116
42527W        W14143   0.090   8.249  10.913
42528W        W14144  32.887  39.308  13.593
42529W        W14145  16.360  35.567  12.096
42530W        W14146  14.828  33.115   4.525
42531W        W14147  18.298  26.751   3.331
42532W        W14148   4.687  15.191   0.545
42533W        W14149   0.932   7.771  10.604
42534W        W14150  42.753  12.225  10.751
42535W        W14151  26.107  36.578   3.122
42536W        W14152  33.634  24.076  12.956
42537W        W14153  11.721  44.774  14.333
42538W        W14154  29.593   7.168  14.082
42539W        W14155  25.012  35.989   3.834
42540W        W14156  15.942   1.908   3.686
42541W        W14157  10.474  39.626  11.641
42542W        W14158  35.680   0.772   0.909
42543W        W14159  37.569   0.872   0.730
42544W        W14160  20.039   6.389  11.535
42545W        W14161  17.982  12.805  12.405
42546W        W14162  34.686  11.322   3.717
42547W        W14163  32.473  39.817   0.161
42548W        W14164  24.277   1.373  12.970
42549W        W14165  30.088  39.967  11.557
42550W        W14166  32.857  26.862  11.653
42551W        W14167  30.549   7.822  10.856
42552W        W14168  33.963   4.709  14.764
42553W        W14169   3.756  33.534  10.836
42554W        W14170  38.062  32.638  14.056
42555W        W14171  27.363   6.587  13.806
42556W        W14172  27.018  32.541  11.479
42557W        W14173  11.787  14.857   4.299
42558W        W14174  26.633  22.538  12.472
42559W        W14175  44.120   8.741  12.925
42560W        W14176  23.221  23.151  13.613
42561W        W14177  13.235  13.581   1.822
42562W        W14178   1.746  31.507  13.366
42563W        W14179  41.002  31.732  11.154
42564W        W14180  14.632  15.593  12.353
42565W        W14181  40.187  30.417   4.073
42566W        W14182  24.447   4.441  14.937
42567W        W14183  31.921  30.601  11.531
42568W        W14184  13.631   9.619  12.501
42569W        W14185   0.751  17.673  11.192
42570W        W14186  37.960   1.245   2.838
42571W        W14187   7.378  12.296  14.858
42572W        W14188  12.424   5.683  12.512
42573W        W14189  26.466  44.774  11.946
42574W        W14190  12.421   8.440  13.466
42575W        W14191  41.443   9.191   1.959
42576W        W14192  43.028  36.568  13.437
42577W        W14193  38.338   9.389   1.410
42578W        W14194   9.614  43.202  12.573
42579W        W14195  43.874  38.667  11.621
42580W        W14196   6.745  14.322   4.421
42581W        W14197   1.710  18.185   0.342
42582W        W14198  31.477  35.915   0.865
42583W        W14199  22.105  11.183   4.630
42584W        W14200  25.319  16.666  10.730
42585W        W14201  11.178  41.314  14.416
42586W        W14202   8.137   4.359   2.795
42587W        W14203   6.215   6.354   5.469
42588W        W14204   1.763   9.386  14.314
42589W        W14205  14.535  25.907  11.118
42590W        W14206  21.579   5.398  12.358
42591W        W14207  14.867  32.989  13.571
42592W        W14208  29.008  11.857   4.508
42593W        W14209   4.245  22.774  11.406
42594W        W14210  37.542   3.795  14.218
42595W        W14211  16.110  39.409   3.092
42596W        W14212   7.345  37.477  14.983
42597W        W14213  22.293  18.094   3.259
42598W        W14214  44.438  32.412   4.195
42599W        W14215  17.997  38.399  10.350
42600W        W14216  33.393  14.384   1.615
42601W        W14217  40.973  24.826  12.850
42602W        W14218   9.265  39.022  11.516
42603W        W14219  26.972  18.019   3.670
42604W        W14220  16.292   4.315  12.543
42605W        W14221  12.277   9.367  13.488
42606W        W14222   3.248  44.292   4.227
42607W        W14223  37.621  31.496   3.518
42608W        W14224  36.635   5.850  12.421
42609W        W14225  23.086  15.437   3.164
42610W        W14226  22.174  23.611  14.830
42611W        W14227  31.457  19.501  12.447
42612W        W14228  40.975  30.608  10.856
42613W        W14229   5.505   1.801   4.823
42614W        W14230   1.238   1.293  14.737
42615W        W14231  18.474   4.222   1.663
42616W        W14232   5.233  30.540  12.842
42617W        W14233  17.720  34.034   2.154
42618W        W14234  14.909  17.631   2.667
42619W        W14235  12.915  33.651   4.225
42620W        W14236  12.120  31.616  13.119
42621W        W14237  43.470  28.527  14.799
42622W        W14238  42.259   9.852  11.112
42623W        W14239  24.661  34.096   2.886
42624W        W14240  29.937   7.128   0.499
42625W        W14241   4.495  37.043  10.689
42626W        W14242  17.795  17.058  12.175
42627W        W14243  16.300  33.876   0.794
42628W        W14244  42.210  43.387  11.124
42629W        W14245  24.237  15.154  13.401
42630W        W14246  29.937  16.147  14.023
42631W        W14247  40.689  38.511   0.758
42632W        W14248  39.694  31.564  14.148
42633W        W14249  26.243  44.292  14.328
42634W        W14250  32.564  16.694  11.518
42635W        W14251  18.697  27.913  12.579
42636W        W14252   8.183  25.198  13.406
42637W        W14253  39.329   6.150   3.714
42638W        W14254   7.670  12.896   3.140
42639W        W14255   6.372  25.629  11.990
42640W        W14256  33.741  43.059   1.247
42641W        W14257  12.795  42.452   0.977
42642W        W14258  13.035  41.861  13.357
42643W        W14259  40.977  13.436   0.500
42644W        W14260  35.847  42.795  11.561
42645W        W14261  29.071  22.760   1.871
42646W        W14262  10.228  19.788  12.796
42647W        W14263  16.476   4.276   1.956
42648W        W14264  14.318  14.419   0.382
42649W        W14265  37.292   2.950  11.095
42650W        W14266   3.130  37.403   4.938
42651W        W14267  26.056  41.219   1.263
42652W        W14268  23.973  41.277   4.062
42653W        W14269  12.409  18.149   0.829
42654W        W14270  42.822  10.395  11.135
42655W        W14271  30.587   0.245   1.346
42656W        W14272  25.009  41.359  13.013
42657W        W14273  22.781   9.866  14.447
42658W        W14274  12.640  31.891  10.689
42659W        W14275   6.176  43.736  13.920
42660W        W14276   0.919  44.995   1.010
42661W        W14277  34.421  43.542  10.371
42662W        W14278   4.959  36.736  13.372
42663W        W14279  39.891  15.596  13.844
42664W        W14280   0.534  18.598  12.596
42665W        W14281  23.203  40.553   2.811
42666W        W14282  32.294   5.869  12.048
42667W        W14283  32.657  17.328  10.663
42668W        W14284   9.864   0.962   1.371
42669W        W14285  20.556  44.743  11.658
42670W        W14286  21.727  29.388  13.512
42671W        W14287  42.886   3.565  12.976
42672W        W14288  37.816  29.067   1.742
42673W        W14289  28.963  44.415  12.469
42674W        W14290  14.663   0.772  14.004
42675W        W14291  20.271  18.814   2.560
42676W        W14292   2.016  23.140   4.990
42677W        W14293  19.495  31.435  12.394
42678W        W14294  34.428  28.069  14.737
42679W        W14295  24.182  27.073   1.673
42680W        W14296   1.496   4.498   4.030
42681W        W14297  40.838  35.537  14.428
42682W        W14298  32.558  14.118   2.150
42683W        W14299  27.263  26.918   2.751
42684W        W14300  10.313  31.147   2.775
42685W        W14301  18.162  37.355  12.044
42686W        W14302  15.874  34.179   0.738
42687W        W14303  32.187  34.168  12.215
42688W        W14304   2.759  44.108  11.007
42689W        W14305  10.912   3.680  12.993
42690W        W14306  12.900  35.064   0.017
42691W        W14307  42.397   0.227   1.936
42692W        W14308  18.817  38.383   3.733
42693W        W14309  16.294  22.646  11.237
42694W        W14310  30.403  40.818  11.650
42695W        W14311  35.032  15.030  10.815
42696W        W14312  14.793  38.599   3.017
42697W        W14313  18.770  33.019  11.212
42698W        W14314  27.489  24.518  10.838
42699W        W14315  28.723  33.581   2.748
42700W        W14316  10.173  10.718   4.621
42701W        W14317   8.208  18.087  13.452
42702W        W14318  19.235  20.270  12.914
42703W        W14319  20.523  40.207   2.616
42704W        W14320  15.293   6.185   1.750
42705W        W14321  37.422  13.567  13.017
42706W        W14322  17.072   5.314   1.624
42707W        W14323  23.516  34.919   3.230
42708W        W14324  39.785   4.516  10.683
42709W        W14325  32.236   1.912  11.520
42710W        W14326   2.277   9.654   3.908
42711W        W14327  21.548  14.894   4.076
42712W        W14328  19.457  33.376   1.480
42713W        W14329  17.157   5.383   2.391
42714W        W14330  13.443  32.563  14.932
42715W        W14331  19.128  14.130   0.134
42716W        W14332   2.273  22.204  13.409
42717W        W14333  26.728  14.144   1.326
42718W        W14334  14.744  42.324   1.819
42719W        W14335  35.144  10.794   0.751
42720W        W14336   6.917  40.307   1.659
42721W        W14337  40.841  26.600   5.161
42722W        W14338  23.248  24.244  10.317
42723W        W14339  22.097  27.483  12.097
42724W        W14340  28.034  22.290  14.760
42725W        W14341  44.864  37.862   0.660
42726W        W14342  13.687  42.997  10.209
42727W        W14343  19.716   5.257   0.931
42728W        W14344  43.826   8.699  11.444
42729W        W14345  43.155  33.273  12.402
42730W        W14346   1.305  10.295   0.760
42731W        W14347   5.523  13.157   2.897
42732W        W14348   4.016  18.399   3.123
42733W        W14349   6.232  33.586   2.594
42734W        W14350  36.325   9.633  13.137
42735W        W14351   0.028   1.320  13.902
42736W        W14352  10.736  26.201   1.478
42737W        W14353   0.791  10.797  12.082
42738W        W14354   7.360  32.439  14.490
42739W        W14355  20.490  26.475   3.269
42740W        W14356  14.776  17.340   3.132
42741W        W14357   7.207  14.080  12.454
42742W        W14358  23.554  28.227   1.344
42743W        W14359  30.112  26.468   0.935
42744W        W14360  38.271  13.582   0.980
42745W        W14361  32.808  16.147   1.118
42746W        W14362  33.687   8.242   0.998
42747W        W14363   9.842  37.509   2.366
42748W        W14364  15.180  20.871   3.224
42749W        W14365  26.916  26.856  11.487
42750W        W14366  18.398  25.133  12.637
42751W        W14367  39.414  16.617   2.677
42752W        W14368  40.275  10.167   9.942
42753W        W14369  20.709  36.154   4.189
42754W        W14370   7.326  36.993   4.712
42755W        W14371  37.799  39.119  14.440
42756W        W14372  11.788  38.870  12.335
42757W        W14373   3.328  42.539   1.747
42758W        W14374  10.263   2.388  11.061
42759W        W14375   7.099  17.994  14.522
42760W        W14376  14.145  17.952   2.803
42761W        W14377   5.891  20.793  12.013
42762W        W14378   4.563  36.613  14.321
42763W        W14379  30.072  41.835  11.144
42764W        W14380  15.165  32.516   1.382
42765W        W14381  31.321  15.394   4.158
42766W        W14382   8.763  16.986   4.206
42767W        W14383  43.542   3.842  13.074
42768W        W14384  29.639  42.703   1.400
42769W        W14385  33.393  37.936  11.519
42770W        W14386  34.008  41.114   1.047
42771W        W14387   4.769   1.547  13.660
42772W        W14388  23.609  40.715   3.268
42773W        W14389  37.372  16.609  13.451
42774W        W14390  38.998  12.766   2.682
42775W        W14391  44.258  44.453  14.314
42776W        W14392  35.544  40.567  11.943
42777W        W14393  37.446   0.308  14.275
42778W        W14394  18.827  20.316   1.293
42779W        W14395  33.577  16.607  12.571
42780W        W14396  17.688  44.924  12.926
42781W        W14397  13.260  37.066   3.157
42782W        W14398   2.380  35.290  14.051
42783W        W14399  42.853  16.637   4.708
42784W        W14400  40.877  22.976  14.194
42785W        W14401  33.336  42.078   3.853
42786W        W14402  21.186  25.789   4.934
42787W        W14403   2.165   9.248   4.226
42788W        W14404  30.058  30.473  11.539
42789W        W14405  22.398  42.759   4.181
42790W        W14406  25.348  25.077   4.520
42791W        W14407   5.423  35.488  13.378
42792W        W14408  27.049  30.864   0.340
42793W        W14409   9.666  14.316  13.084
42794W        W14410  31.035  16.043  10.628
42795W        W14411  13.348  18.540  13.890
42796W        W14412   1.295  21.794   2.723
42797W        W14413   9.369  20.440  12.783
42798W        W14414  39.992   6.781   2.986
42799W        W14415   3.366  12.858   3.995
42800W        W14416   4.890   1.752  12.024
42801W        W14417   5.862  16.771   2.691
42802W        W14418  33.476   9.777   0.889
42803W        W14419  40.731  28.480   4.618
42804W        W14420   1.468  25.131   3.910
42805W        W14421  26.424   5.418  11.024
42806W        W14422  18.425  35.714   1.278
42807W        W14423   5.740  12.210   2.694
42808W        W14424  32.843  28.569   3.365
42809W        W14425   2.442   5.379   1.437
42810W        W14426  22.124  12.507   3.824
42811W        W14427  25.777  31.194   0.382
42812W        W14428  26.167   6.913  11.597
42813W        W14429   0.470  20.998  12.369
42814W        W14430  25.490   3.172  13.062
42815W        W14431  21.088  12.333  12.130
42816W        W14432  33.371  33.594   1.296
42817W        W14433  10.322   7.125   2.083
42818W        W14434  14.723  18.054   0.467
42819W        W14435  22.658  24.389  13.697
42820W        W14436  41.722  27.623   4.594
42821W        W14437  33.348   5.453  14.891
42822W        W14438   8.881  21.062   1.304
42823W        W14439  40.894   4.518  12.362
42824W        W14440  21.243  34.648   0.928
42825W        W14441  36.005  42.533  12.392
42826W        W14442   9.676   2.467  10.537
42827W        W14443  18.004  25.140   0.435
42828W        W14444  33.570   1.899  11.035
42829W        W14445  30.559  39.803   3.647
42830W        W14446  21.095  34.715   1.870
42831W        W14447  26.239  21.956   3.278
42832W        W14448  28.914   8.929   0.893
42833W        W14449  28.759  12.127  13.700
42834W        W14450  21.695  38.314  12.067
42835W        W14451  22.510  32.070  12.518
42836W        W14452   3.282   1.753  11.467
42837W        W14453   8.654   3.449   1.247
42838W        W14454  29.916  20.211  14.814
42839W        W14455  13.684   8.915   0.216
42840W        W14456  37.402  15.756   0.337
42841W        W14457  33.926   3.256   0.927
42842W        W14458  33.944  35.640  11.545
42843W        W14459   1.276  32.129   4.174
42844W        W14460  30.639  31.426   2.231
42845W        W14461   6.331  41.081  11.052
42846W        W14462  35.045  16.585  14.470
42847W        W14463  23.488  17.798  10.559
42848W        W14464  11.781  30.687  13.850
42849W        W14465   2.205  16.745   3.775
42850W        W14466  42.928  12.892  14.463
42851W        W14467   3.846   3.370   2.666
42852W        W14468  24.589  32.280   1.050
42853W        W14469  13.345   2.962   4.704
42854W        W14470   1.037  14.230   1.894
42855W        W14471  43.284   4.489  11.218
42856W        W14472  41.934  38.777  11.097
42857W        W14473   9.255  36.119  13.886
42858W        W14474   2.226  33.753  13.924
42859W        W14475  26.085   0.817  12.017
42860W        W14476  33.061  22.147   3.192
42861W        W14477   2.189  23.685   2.367
42862W        W14478  14.658  21.270  11.631
42863W        W14479  44.479   2.904  14.245
42864W        W14480  37.453  25.614   1.755
42865W        W14481  24.966  41.351  10.664
42866W        W14482  44.925  24.865  12.075
42867W        W14483  37.618  21.562  14.831
42868W        W14484  22.174  30.413   0.919
42869W        W14485  30.949   9.721   3.295
42870W        W14486  28.141  34.349  10.650
42871W        W14487  13.253  43.378  14.490
42872W        W14488   4.671  30.925   3.925
42873W        W14489  42.194  43.920  10.520
42874W        W14490   0.736  42.532   4.230
42875W        W14491   5.326   1.999   3.697
42876W        W14492  25.628  23.311  11.149
42877W        W14493   0.362  33.890   5.006
42878W        W14494  19.213   9.955   1.212
42879W        W14495   9.378   8.889  10.753
42880W        W14496  10.966  28.204  14.414
42881W        W14497   0.460  37.244   3.064
42882W        W14498  20.358  25.065   4.621
42883W        W14499   1.349  17.975  12.883
42884W        W14500  44.444   8.251  14.653
42885W        W14501  19.808  17.693   1.423
42886W        W14502  14.809  29.946   1.972
42887W        W14503  31.116  14.957   3.651
42888W        W14504   2.384  31.607  10.931
42889W        W14505  30.441  15.171  13.343
42890W        W14506  10.517  37.643  13.343
42891W        W14507  18.191  11.324   2.779
42892W        W14508  27.647  44.666  10.667
42893W        W14509  35.220  31.035   1.318
42894W        W14510  44.412  33.486  11.067
42895W        W14511  37.896  13.844   4.245
42896W        W14512   7.455  39.006  10.680
42897W        W14513  25.850  43.757   0.981
42898W        W14514  18.163   6.852  10.775
42899W        W14515  29.904  16.681   4.787
42900W        W14516   2.231  25.471   4.694
42901W        W14517  15.887  40.070  13.502
42902W        W14518  18.811   4.390  12.347
42903W        W14519   8.340  43.976   2.920
42904W        W14520   1.686  40.346   0.673
42905W        W14521  27.971   0.369  12.921
42906W        W14522   0.763   3.381  13.554
42907W        W14523  36.985  19.676  14.457
42908W        W14524  44.583   6.296  14.381
42909W        W14525  28.911  26.013   4.595
42910W        W14526  17.209  22.259   4.956
42911W        W14527  20.210  15.888  12.595
42912W        W14528  30.572  30.836   3.629
42913W        W14529   6.964   6.795  14.037
42914W        W14530  12.490  26.614   4.804
42915W        W14531   3.956  19.603  13.448
42916W        W14532  10.758  16.638  11.670
42917W        W14533  16.195  22.073   0.993
42918W        W14534  23.851  28.975  13.378
42919W        W14535  14.580  33.016   2.596
42920W        W14536  20.588  18.669   1.531
42921W        W14537  13.610  17.839   3.513
42922W        W14538  25.991  21.426   3.281
42923W        W14539   3.259   9.008   2.341
42924W        W14540  11.791  33.947   0.665
42925W        W14541  15.420  29.043  11.638
42926W        W14542  35.425  13.829  11.054
42927W        W14543  28.126  41.390   0.397
42928W        W14544   9.045  12.901  14.335
42929W        W14545  18.574   5.756  10.667
42930W        W14546  29.448  30.387  10.142
42931W        W14547   9.715  41.828   3.529
42932W        W14548  38.641  40.702  11.940
42933W        W14549  29.529  29.697  14.002
42934W        W14550  24.022  39.444  13.967
42935W        W14551  13.279  25.937  13.277
42936W        W14552  16.057  36.387  11.809
42937W        W14553   3.300  23.479   1.969
42938W        W14554  15.790  44.796   4.195
42939W        W14555  38.009   7.380  13.432
42940W        W14556  24.251  11.107  13.667
42941W        W14557  29.474   2.317   2.155
42942W        W14558  18.821   4.772   0.466
42943W        W14559  20.192  29.900   4.495
42944W        W14560  36.542  15.216   0.947
42945W        W14561   5.125  12.347  12.384
42946W        W14562  23.426   7.493  13.361
42947W        W14563  13.839  23.615  12.611
42948W        W14564  19.580  36.394   3.820
42949W        W14565  44.668  17.004   3.682
42950W        W14566  30.598  42.425   3.628
42951W        W14567   5.825  41.432  14.040
42952W        W14568  40.616  42.555   1.491
42953W        W14569  15.595   6.793  14.321
42954W        W14570  17.733  14.726   3.289
42955W        W14571  22.306  44.246   1.787
42956W        W14572   3.413  44.005   1.909
42957W        W14573  30.188  20.039   2.224
42958W        W14574  30.112  13.552  11.134
42959W        W14575   9.248  34.569   4.073
42960W        W14576  36.666  43.917  10.785
42961W        W14577  12.858  25.282   0.245
42962W        W14578  15.183   7.329  12.909
42963W        W14579  17.774   4.528   2.724
42964W        W14580  24.083  21.245   4.480
42965W        W14581   5.357  33.147   0.036
42966W        W14582  42.364   7.079  13.035
42967W        W14583  42.114  11.635  11.711
42968W        W14584   1.279  26.640  11.227
42969W        W14585  37.041  20.136   2.295
42970W        W14586  12.567  28.919   0.604
42971W        W14587  11.840  22.950   1.013
42972W        W14588  16.017   9.526   0.367
42973W        W14589   2.415  33.962  14.377
42974W        W14590  13.289  19.605  13.900
42975W        W14591  10.322   4.663   2.646
42976W        W14592  38.011   4.105  12.959
42977W        W14593   5.213  40.456  12.072
42978W        W14594  28.167   4.522   4.567
42979W        W14595  13.365  36.308  13.342
42980W        W14596  36.960  40.445   0.035
42981W        W14597  25.306  10.877   3.853
42982W        W14598   1.253  30.003  13.466
42983W        W14599   2.457   6.245   0.447
42984W        W14600  16.783  37.068   3.297
42985W        W14601   9.669  27.146   1.202
42986W        W14602  42.338  25.479   3.134
42987W        W14603  20.553   5.225   2.818
42988W        W14604   6.449  33.947  14.240
42989W        W14605  20.660   7.325  14.795
42990W        W14606   6.496  11.784   4.097
42991W        W14607  32.926  15.718   4.028
42992W        W14608  38.478  42.593  14.494
42993W        W14609  17.578  10.156  10.743
42994W        W14610  13.647  34.154  12.434
42995W        W14611  43.433  42.954  12.580
42996W        W14612   2.357   2.490  13.479
42997W        W14613  20.567   6.174   2.951
42998W        W14614   0.991  10.693  14.341
42999W        W14615  30.859  31.067  12.975
43000W        W14616  34.945  39.468   1.334
43001W        W14617   4.246  27.844  12.861
43002W        W14618  25.484  18.187  14.339
43003W        W14619   2.347   3.227  13.947
43004W        W14620   5.023  41.765   2.869
43005W        W14621  43.365  31.352   0.802
43006W        W14622  19.149  18.638  12.046
43007W        W14623  18.770  32.819   4.183
43008W        W14624  42.730   1.664   0.740
43009W        W14625  10.214  43.518   1.507
43010W        W14626  38.219  13.261  10.082
43011W        W14627  10.576  20.560  13.376
43012W        W14628   2.513  19.205   2.813
43013W        W14629  44.991   8.163   3.702
43014W        W14630  22.561   8.155   4.101
43015W        W14631  27.153  20.267   1.834
43016W        W14632  33.843   3.426   1.408
43017W        W14633  41.017   0.126  12.393
43018W        W14634  41.219  42.307  14.099
43019W        W14635  12.586  40.515   1.278
43020W        W14636  17.839  23.604  14.433
43021W        W14637  34.296  25.779  11.143
43022W        W14638  11.724  26.667  12.612
43023W        W14639  32.951  14.121   1.787
43024W        W14640   4.243  37.310   3.261
43025W        W14641  33.985   2.249   5.521
43026W        W14642  40.886   2.869  10.434
43027W        W14643  13.792  27.031  11.126
43028W        W14644  21.218   3.919  14.240
43029W        W14645   0.420  40.860  10.654
43030W        W14646  11.646  22.754   4.673
43031W        W14647  26.146  32.110   4.586
43032W        W14648  37.203   3.154  10.410
43033W        W14649  36.444   8.406   2.390
43034W        W14650  32.398  40.414   1.414
43035W        W14651  38.995   5.537   4.933
43036W        W14652  11.932  17.041  12.009
43037W        W14653  11.727   0.822  11.593
43038W        W14654  27.859  13.274  11.968
43039W        W14655  16.604   9.097   1.826
43040W        W14656  43.305  27.594  12.859
43041W        W14657  11.508   3.830   0.025
43042W        W14658  39.142   9.729  14.472
43043W        W14659   5.155  28.548   0.451
43044W        W14660  15.137  33.869  12.209
43045W        W14661  19.500  30.649  13.955
43046W        W14662  20.578  15.343   3.314
43047W        W14663  17.062  40.572  13.488
43048W        W14664  37.835   0.504   2.457
43049W        W14665  16.534  10.289  12.509
43050W        W14666   6.849   0.410   4.878
43051W        W14667   9.337   5.272   2.580
43052W        W14668  37.865  31.470  12.646
43053W        W14669  40.837  35.108  14.719
43054W        W14670  32.835  36.519  11.530
43055W        W14671  36.845  23.241  13.004
43056W        W14672  23.125  23.621   0.977
43057W        W14673  11.317  25.796  13.050
43058W        W14674  39.055  24.404  14.354
43059W        W14675  35.902   5.537   3.096
43060W        W14676  30.705  38.804  10.663
43061W        W14677  44.230  23.114  13.270
43062W        W14678  26.223  40.994  12.148
43063W        W14679  18.111  38.092  12.447
43064W        W14680  39.204  34.422   4.709
43065W        W14681   0.598  39.466   3.273
43066W        W14682  12.855  44.607   3.705
43067W        W14683  27.374  14.678   1.742
43068W        W14684  39.841  39.838  12.945
43069W        W14685  16.249  14.769   3.706
43070W        W14686   2.720   8.771   3.687
43071W        W14687  44.022  44.466  13.115
43072W        W14688   9.394  23.244  13.140
43073W        W14689  27.676  25.549  14.473
43074W        W14690  34.992  18.873  13.137
43075W        W14691   9.701   3.978   3.171
43076W        W14692  39.630   1.323  11.167
43077W        W14693  12.664  11.227   0.454
43078W        W14694   2.769  44.441   4.031
43079W        W14695  33.487  11.889   0.629
43080W        W14696  25.101  27.942   2.779
43081W        W14697  19.775  23.861  13.298
43082W        W14698  33.153  30.627  12.950
43083W        W14699   5.378   1.824  12.177
43084W        W14700  36.010  35.845   2.377
43085W        W14701  29.116  41.801   1.908
43086W        W14702  11.167  12.061  12.921
43087W        W14703  32.486   3.678  11.653
43088W        W14704  21.520  16.691   1.255
43089W        W14705   3.003  34.776   0.591
43090W        W14706  26.573   5.187   3.176
43091W        W14707  30.948  14.603  14.412
43092W        W14708  28.269  17.148   5.047
43093W        W14709  17.764   9.543   4.808
43094W        W14710  42.557  38.117   5.433
43095W        W14711   5.670  32.397  12.951
43096W        W14712  38.338   9.353  13.965
43097W        W14713  43.767  29.987   0.949
43098W        W14714  37.116  32.925   3.876
43099W        W14715  17.246  33.351  14.604
43100W        W14716   7.633  15.181  12.103
43101W        W14717   2.120  38.950  10.703
43102W        W14718   4.233   2.551   1.315
43103W        W14719   4.398  25.397  14.796
43104W        W14720  25.056  28.074   1.257
43105W        W14721   5.230  18.166  11.669
43106W        W14722   7.362  12.568  14.282
43107W        W14723  25.387  18.090   2.279
43108W        W14724   3.429  19.709   0.589
43109W        W14725   0.212  41.812   3.260
43110W        W14726   0.800  23.231  10.270
43111W        W14727  18.635  28.515   0.233
43112W        W14728  12.152  11.232   0.640
43113W        W14729  21.222  12.200   4.063
43114W        W14730  18.220  31.116   1.861
43115W        W14731   1.416  24.177  13.468
43116W        W14732  44.899   1.467  11.050
43117W        W14733  43.185  25.070  11.656
43118W        W14734  38.910  32.614   1.876
43119W        W14735  41.356  10.240   3.096
43120W        W14736  20.533  36.557   1.133
43121W        W14737  13.733  39.692   0.990
43122W        W14738  26.282  25.690  14.460
43123W        W14739  14.552  15.150   3.814
43124W        W14740  37.612  11.882  14.473
43125W        W14741  29.347  33.072   1.742
43126W        W14742  38.501  10.815  13.479
43127W        W14743  15.428  32.617  10.179
43128W        W14744   7.289   1.399   1.716
43129W        W14745   3.290  41.236  14.321
43130W        W14746  43.474  40.741   0.326
43131W        W14747  13.206  28.014  14.744
43132W        W14748  33.976  41.466   1.437
43133W        W14749  14.290  43.384  14.468
43134W        W14750   3.891  15.523   2.186
43135W        W14751   2.269  31.565  13.480
43136W        W14752  32.958   7.289   2.786
43137W        W14753  16.632  21.758   0.967
43138W        W14754   2.471  29.269  12.549
43139W        W14755  15.874  29.733   2.832
43140W        W14756  22.918   2.993  10.066
43141W        W14757  11.199   6.540   0.914
43142W        W14758   2.388  31.331   2.333
43143W        W14759   4.360  14.622  11.530
43144W        W14760  21.683   0.081   3.236
43145W        W14761  40.530  30.982  12.040
43146W        W14762  15.894  14.423  11.579
43147W        W14763   0.263   0.899   3.643
43148W        W14764  15.885  20.061  11.623
43149W        W14765  44.717  44.357  11.629
43150W        W14766  35.578  19.992   0.274
43151W        W14767  21.987  38.803  10.839
43152W        W14768  41.594  36.031  11.530
43153W        W14769  29.595  28.748  13.292
43154W        W14770   0.613  11.958  10.219
43155W        W14771  18.657  19.845   1.528
43156W        W14772  35.952  11.170   0.682
43157W        W14773   4.413   0.681  14.776
43158W        W14774  36.938  19.177  12.708
43159W        W14775  17.570  38.808   3.798
43160W        W14776  13.058   5.708  11.946
43161W        W14777  11.927  16.288  12.416
43162W        W14778  31.903  43.777   1.145
43163W        W14779  29.467  22.759   3.123
43164W        W14780  40.385  35.116   3.031
43165W        W14781  17.222  43.487   2.226
43166W        W14782  36.810  29.967   2.075
43167W        W14783  35.087  30.584   2.339
43168W        W14784  23.438   8.802   4.068
43169W        W14785  34.965  16.977   2.210
43170W        W14786  28.556   5.832  13.535
43171W        W14787  32.086  35.123  10.560
43172W        W14788  13.858   7.285  12.355
43173W        W14789  29.458  19.831   2.684
43174W        W14790   4.292  24.375  14.853
43175W        W14791   0.654  36.873  11.380
43176W        W14792  12.744   5.303  11.989
43177W        W14793  36.272   6.332   3.292
43178W        W14794  20.513  43.425  11.487
43179W        W14795   8.669  44.161   1.124
43180W        W14796  24.429   7.273  13.417
43181W        W14797   5.355   0.832  11.793
43182W        W14798   1.858  26.536   1.720
43183W        W14799  22.646  28.917  11.192
43184W        W14800  25.197  40.805   4.158
43185W        W14801  36.171  27.758   2.976
43186W        W14802  24.816  35.859   1.481
43187W        W14803   4.201  28.058   2.809
43188W        W14804  33.006  15.969   3.168
43189W        W14805  18.167  19.703   1.335
43190W        W14806  36.922  18.276  10.911
43191W        W14807   5.195  40.227  11.169
43192W        W14808  40.772  26.242  11.624
43193W        W14809   7.260  18.075  11.457
43194W        W14810   0.419  12.484  12.882
43195W        W14811  44.594  16.723  14.806
43196W        W14812  30.173  43.835  14.681
43197W        W14813  30.372  13.202   3.881
43198W        W14814  22.532  18.272   2.749
43199W        W14815   6.639   8.003   2.979
43200W        W14816  15.834  31.616  14.315
43201W        W14817   0.042   1.210   1.015
43202W        W14818  20.026   9.377   3.930
43203W        W14819  19.973  24.331  13.950
43204W        W14820   7.099  31.685  12.460
43205W        W14821  26.602  31.546  14.787
43206W        W14822  18.075  43.839  11.452
43207W        W14823  34.147  33.125  12.407
43208W        W14824   0.284   2.537  12.926
43209W        W14825   1.407  21.220   1.873
43210W        W14826   3.489  41.850  12.001
43211W        W14827  17.085  13.866   2.893
43212W        W14828  21.271   2.049   2.729
43213W        W14829  37.627  24.901   2.318
43214W        W14830  28.433  20.937   3.546
43215W        W14831  18.599   1.914   2.624
43216W        W14832  17.011  24.245   4.239
43217W        W14833  38.778  43.773   1.811
43218W        W14834   4.867  40.377   0.822
43219W        W14835   5.305  39.993  11.799
43220W        W14836  25.649  19.240   1.457
43221W        W14837  17.627   4.504  14.887
43222W        W14838  28.108  22.994  10.637
43223W        W14839  30.037  37.189  10.376
43224W        W14840  40.334   3.831   0.516
43225W        W14841  29.968  38.691   0.892
43226W        W14842  41.729  33.945   1.449
43227W        W14843   9.573   7.718  12.461
43228W        W14844   1.824  37.055  10.748
43229W        W14845  20.122  17.287   0.043
43230W        W14846  14.943  40.302   2.767
43231W        W14847  43.950   9.948   2.701
43232W        W14848  14.901  25.324   4.565
43233W        W14849  44.787  24.068  12.781
43234W        W14850  29.616   2.401   2.634
43235W        W14851   0.020  18.571  12.619
43236W        W14852  15.831   5.759   1.218
43237W        W14853   5.291  27.744   1.774
43238W        W14854  30.982  26.541  11.743
43239W        W14855  25.968  16.733   2.416
43240W        W14856  23.501  44.766   2.242
43241W        W14857  38.363  27.496   0.761
43242W        W14858   1.925  21.806  13.314
43243W        W14859  17.498  40.004   0.252
43244W        W14860  14.008  34.944  13.072
43245W        W14861   8.417  14.204   2.670
43246W        W14862   6.319  32.130  10.692
43247W        W14863  37.557  27.964  12.085
43248W        W14864  16.433  36.133   2.325
43249W        W14865  39.131  17.007   0.324
43250W        W14866  39.248  29.936  11.119
43251W        W14867  33.497  27.255   0.275
43252W        W14868  22.587  18.726  13.441
43253W        W14869  43.133  31.486  11.606
43254W        W14870  23.799  39.030   3.613
43255W        W14871  30.116   0.009   1.308
43256W        W14872  35.144  13.154  12.171
43257W        W14873  31.724  30.165   4.968
43258W        W14874  37.038   2.423  13.071
43259W        W14875   2.311  44.618   3.725
43260W        W14876   2.755  36.961   0.632
43261W        W14877  29.003   8.915   1.819
43262W        W14878  13.366   0.911   4.109
43263W        W14879   7.799   5.174  11.157
43264W        W14880   4.021  31.568  11.245
43265W        W14881  15.358  26.456   0.784
43266W        W14882   6.455  12.276  12.017
43267W        W14883  17.317  26.674   3.203
43268W        W14884   0.584   9.900   0.051
43269W        W14885  44.919  12.094  13.582
43270W        W14886   9.387  26.424  14.472
43271W        W14887  26.924  41.392  12.338
43272W        W14888  34.354  36.304  14.897
43273W        W14889  26.592  34.377   2.512
43274W        W14890  41.290  38.938   3.735
43275W        W14891  22.055  21.975  13.607
43276W        W14892  11.333   1.254   0.438
43277W        W14893  35.821  32.405   2.383
43278W        W14894  42.938   8.348   3.583
43279W        W14895  18.314  10.030  13.366
43280W        W14896  39.855   5.835  14.767
43281W        W14897  20.365  15.515   0.014
43282W        W14898  39.304  26.066   0.004
43283W        W14899  11.215  33.563   4.755
43284W        W14900  29.589  15.163   3.279
43285W        W14901  28.387  27.927  14.970
43286W        W14902  38.957   8.123  11.131
43287W        W14903   2.183   1.725   4.265
43288W        W14904   9.890   6.446   1.661
43289W        W14905  18.280   0.470   3.178
43290W        W14906   7.335  16.578   0.928
43291W        W14907  21.961  13.718  13.987
43292W        W14908   5.926  13.420   4.221
43293W        W14909  29.890  16.371  12.000
43294W        W14910   5.455  31.019   2.118
43295W        W14911   3.335  40.285  14.564
43296W        W14912  21.050  38.514  13.963
43297W        W14913   8.760  21.711   2.740
43298W        W14914  12.727  43.474  14.503
43299W        W14915  26.949   7.515   1.691
43300W        W14916  18.818  24.739  11.035
43301W        W14917   7.199  37.061   2.283
43302W        W14918  26.278  26.918  13.107
43303W        W14919  36.044   2.465  13.002
43304W        W14920  34.517  29.611   0.284
43305W        W14921   6.570  10.271   2.117
43306W        W14922   4.990   6.619  14.922
43307W        W14923  20.007   8.823  13.041
43308W        W14924  18.664  33.485  13.300
43309W        W14925  11.254  34.090  13.815
43310W        W14926  12.406  26.741  13.966
43311W        W14927  21.966  30.548  11.659
43312W        W14928   6.891   4.784   3.521
43313W        W14929  31.745  34.215   3.852
43314W        W14930  44.377  16.750  11.105
43315W        W14931  36.959   3.406   3.899
43316W        W14932  30.892  18.105  13.849
43317W        W14933   2.508  11.050   0.758
43318W        W14934  27.243  36.809   1.313
43319W        W14935  44.975  33.573  14.605
43320W        W14936  15.862  29.857  11.950
43321W        W14937  42.727  39.891   2.747
43322W        W14938  14.343   2.835  12.137
43323W        W14939  27.779   3.511  11.060
43324W        W14940  10.607  23.209   2.748
43325W        W14941  18.726   0.771  12.639
43326W        W14942   5.304  17.266  11.453
43327W        W14943   0.200  14.561   0.824
43328W        W14944  17.885  27.650   3.199
43329W        W14945  35.492  33.109  14.025
43330W        W14946   4.831  17.595  11.392
43331W        W14947  30.547  20.056   1.449
43332W        W14948  20.807  17.087  11.086
43333W        W14949  30.771  36.913   2.372
43334W        W14950  36.123  37.143  12.427
43335W        W14951  11.892  27.086  12.924
43336W        W14952  33.478   1.747   4.561
43337W        W14953  42.478  17.668  11.021
43338W        W14954   3.463  35.124   1.822
43339W        W14955   0.921   8.863  13.272
43340W        W14956   9.266   8.393  10.718
43341W        W14957  39.977  34.165  14.216
43342W        W14958  35.486  21.304   1.286
43343W        W14959  11.053  30.980  10.598
43344W        W14960  36.945  30.361   1.774
43345W        W14961  29.933  15.173   4.577
43346W        W14962  14.636  42.012  13.237
43347W        W14963  27.633  37.568   0.822
43348W        W14964  38.684  41.245   4.503
43349W        W14965  11.006   6.365   4.730
43350W        W14966  21.607  21.769  10.530
43351W        W14967  27.554  18.095  14.319
43352W        W14968  21.845  41.083   5.248
43353W        W14969  18.750   3.983  10.959
43354W        W14970   0.547   4.697  11.999
43355W        W14971  19.863  17.032  13.906
43356W        W14972   1.984  25.002   1.553
43357W        W14973   6.445  16.090   3.525
43358W        W14974  27.141  17.329   3.311
43359W        W14975   0.791  23.231  11.008
43360W        W14976  10.154  11.750  14.810
43361W        W14977  12.387   9.623   2.717
43362W        W14978   7.725  11.866  10.875
43363W        W14979  19.516  16.922   4.176
43364W        W14980  34.424  12.805  11.121
43365W        W14981  11.285  35.782  13.347
43366W        W14982  42.283  29.863  11.878
43367W        W14983  40.416  14.701   4.858
43368W        W14984  18.714   6.755   1.828
43369W        W14985  27.656   7.909  10.605
43370W        W14986  36.782  29.074  11.122
43371W        W14987  41.320  29.429  13.953
43372W        W14988  33.146   3.675  10.496
43373W        W14989  23.248  19.206  14.780
43374W        W14990   2.304  19.212   1.556
43375W        W14991  17.587  31.109  14.473
43376W        W14992  24.484   3.322   4.041
43377W        W14993  16.099  40.248  14.431
43378W        W14994  39.139  32.159  10.508
43379W        W14995   8.629   1.736  14.731
43380W        W14996  10.576  25.661   0.187
43381W        W14997  11.426  34.850  13.358
43382W        W14998  22.322  13.538  14.855
43383W        W14999  30.562  32.450  14.876
43384W        W15000   4.773  15.926   3.697
43385W        W15001  21.226  16.107   3.190
43386W        W15002  29.463  22.458   2.149
43387W        W15003  39.352  24.308   4.083
43388W        W15004  34.123  37.214  12.574
43389W        W15005  35.016  14.106   4.403
43390W        W15006  15.076  19.545   2.836
43391W        W15007  36.133  19.057  14.924
43392W        W15008  44.634  23.071   0.306
43393W        W15009  24.323   3.946  13.388
43394W        W15010  15.285  22.078  13.387
43395W        W15011  19.189  41.353   2.698
43396W        W15012  36.089  32.352   1.446
43397W        W15013  21.002  39.006   4.523
43398W        W15014  35.424  12.681   1.838
43399W        W15015  38.417   1.506   2.846
43400W        W15016  31.904  31.059  14.836
43401W        W15017  32.393   6.792  14.438
43402W        W15018   5.853   4.093   0.898
43403W        W15019  29.133  18.674   4.065
43404W        W15020  28.726  12.572   1.026
43405W        W15021  13.194   5.282  12.505
43406W        W15022  41.364  42.722   1.859
43407W        W15023  14.102  29.215  13.816
43408W        W15024  37.351  39.404   3.639
43409W        W15025   3.957  20.791  12.988
43410W        W15026  14.583  38.978   4.993
43411W        W15027  44.722  16.882  13.695
43412W        W15028  23.104  16.876   4.281
43413W        W15029  21.094  20.778  14.531
43414W        W15030  36.234  34.586  11.917
43415W        W15031  20.259  27.646  10.492
43416W        W15032  43.873   4.101  13.413
43417W        W15033  22.533  39.745  11.996
43418W        W15034  12.950  43.426  14.957
43419W        W15035  21.087  14.132   3.220
43420W        W15036  20.650   8.182  13.085
43421W        W15037  38.152  23.730   1.045
43422W        W15038  38.161  14.133  12.403
43423W        W15039  18.003  32.629   4.583
43424W        W15040  29.672   6.874   1.333
43425W        W15041  17.120  35.388   1.681
43426W        W15042  22.894  29.030  12.043
43427W        W15043  40.973  15.592   4.402
43428W        W15044  12.872   7.729  12.844
43429W        W15045   1.002  35.928  14.287
43430W        W15046  36.943  31.014  14.767
43431W        W15047  17.154   2.025   4.394
43432W        W15048  28.586  41.022  11.865
43433W        W15049  16.361  36.068  14.284
43434W        W15050  31.029   3.212   3.757
43435W        W15051  29.529  23.766   1.387
43436W        W15052   6.666  31.939   3.443
43437W        W15053  30.188  18.497   4.159
43438W        W15054  41.500  40.127   3.882
43439W        W15055   3.981  37.808   2.172
43440W        W15056   6.895  28.144  13.806
43441W        W15057  15.977  41.858  13.490
43442W        W15058  40.759  11.353   2.638
43443W        W15059  15.196  23.748   2.321
43444W        W15060   7.670  42.942   2.416
43445W        W15061  35.676  36.931  14.429
43446W        W15062  26.593  17.652  14.610
43447W        W15063  30.099  33.538   4.718
43448W        W15064  36.737   6.782  11.995
43449W        W15065   4.687   3.427  14.294
43450W        W15066  22.099   0.621  12.128
43451W        W15067  15.214  34.505   3.121
43452W        W15068   2.403  26.478  12.426
43453W        W15069   9.845  22.965  12.404
43454W        W15070   7.351  35.956  12.477
43455W        W15071  10.329  35.333  14.078
43456W        W15072  13.318  27.677   1.639
43457W        W15073   4.840  40.117  12.070
43458W        W15074  36.879   9.738   4.666
43459W        W15075  42.023  25.475   4.108
43460W        W15076  27.972  12.564  14.319
43461W        W15077  19.789  29.557   3.096
43462W        W15078   4.845  42.650  12.129
43463W        W15079  36.896  21.429   2.813
43464W        W15080  33.030  40.444  12.042
43465W        W15081  25.465  32.702  12.129
43466W        W15082   0.645  35.537   1.826
43467W        W15083  40.568  24.523  12.446
43468W        W15084  36.328  33.820   4.632
43469W        W15085  20.039  13.683  14.375
43470W        W15086  35.062  29.474  11.569
43471W        W15087  21.459  22.534   1.723
43472W        W15088   3.385  17.807  14.093
43473W        W15089   5.448  17.487   1.324
43474W        W15090  23.328  25.237   4.090
43475W        W15091  24.701  39.865   3.492
43476W        W15092  17.112  36.893   2.635
43477W        W15093  35.678  11.077  14.229
43478W        W15094  42.525  23.658   4.601
43479W        W15095   1.150  13.168   2.492
43480W        W15096  41.576  19.268  12.390
43481W        W15097  22.029  15.360   2.296
43482W        W15098  39.070  32.237   2.250
43483W        W15099  32.837  17.467   2.158
43484W        W15100  44.575  33.291  14.375
43485W        W15101  11.538  37.840   0.753
43486W        W15102  21.731  13.525   0.718
43487W        W15103   2.474  21.993  12.951
43488W        W15104   4.401  39.068   3.461
43489W        W15105  28.982  26.237   2.217
43490W        W15106  16.634   4.244  13.830
43491W        W15107  37.848  17.098   3.712
43492W        W15108  26.894   5.779   1.568
43493W        W15109  37.788  42.569   0.728
43494W        W15110   7.603   2.901  10.954
43495W        W15111  38.958  21.917  14.463
43496W        W15112  12.599   1.508   4.149
43497W        W15113   2.968  22.265  11.595
43498W        W15114  41.960  39.820   5.125
43499W        W15115  38.231   2.426   1.842
43500W        W15116  21.055  34.925  10.509
43501W        W15117  36.029  10.153   0.606
43502W        W15118  28.139   0.956   4.621
43503W        W15119   0.361  34.846  11.422
43504W        W15120  16.711  31.195   4.418
43505W        W15121  44.259  40.955  11.956
43506W        W15122  27.761  11.821  12.814
43507W        W15123  15.558  20.571  10.840
43508W        W15124   3.563  14.268   2.804
43509W        W15125   9.340   9.869   0.187
43510W        W15126  14.064   0.455   2.339
43511W        W15127  15.322  14.627  11.084
43512W        W15128  43.096   5.124   2.467
43513W        W15129  13.166  33.486  10.752
43514W        W15130  34.512  30.636   3.624
43515W        W15131  18.318  20.739  12.979
43516W        W15132  23.775  19.544   3.077
43517W        W15133  10.366  18.468   4.987
43518W        W15134  11.808  33.411   0.866
43519W        W15135   5.637  44.898   3.725
43520W        W15136   9.713   4.330  14.916
43521W        W15137  36.275  44.062  14.959
43522W        W15138   2.301  24.988  10.704
43523W        W15139  41.357  36.852   1.566
43524W        W15140  36.333  12.789   2.363
43525W        W15141  33.786  42.514   4.691
43526W        W15142  41.322  25.689   1.891
43527W        W15143  38.074  36.547   0.454
43528W        W15144  30.974  13.053  13.618
43529W        W15145  19.133  10.106   4.516
43530W        W15146  40.933  28.957  13.885
43531W        W15147  23.049  30.779   4.362
43532W        W15148  41.597  19.777  12.424
43533W        W15149  22.320   7.247  12.621
43534W        W15150  11.187  31.472  12.597
43535W        W15151   0.916   7.555   4.470
43536W        W15152  20.146  23.511   0.944
43537W        W15153  29.843  26.987   2.091
43538W        W15154  40.468  25.452   0.533
43539W        W15155  40.531  35.036  13.350
43540W        W15156   6.192   5.947  10.959
43541W        W15157  30.382  16.111  13.796
43542W        W15158  29.387  27.645  11.950
43543W        W15159  11.338   4.948  11.557
43544W        W15160  11.253   1.456  10.561
43545W        W15161   8.799   3.958  12.376
43546W        W15162  37.432  37.545   3.721
43547W        W15163  34.482  16.666  11.841
43548W        W15164  13.639  43.849   4.639
43549W        W15165  21.700  31.722  14.948
43550W        W15166  17.290  31.691  10.271
43551W        W15167  28.087  23.390   4.497
43552W        W15168   0.323  36.696   0.803
43553W        W15169  25.918  40.442   4.786
43554W        W15170  30.424   9.777   0.323
43555W        W15171  32.974   9.598   0.834
43556W        W15172   3.027   9.288  13.938
43557W        W15173  30.215  40.996   3.740
43558W        W15174   0.019   5.137  11.479
43559W        W15175  37.540  44.366  11.178
43560W        W15176  21.362  35.500   1.051
43561W        W15177  32.464   4.898   3.657
43562W        W15178   3.461  33.668   2.802
43563W        W15179   0.988  32.637   2.204
43564W        W15180  41.423  14.395   3.642
43565W        W15181   0.012  20.602   1.823
43566W        W15182  12.895  18.905   3.138
43567W        W15183  35.610  19.515   1.857
43568W        W15184   4.757  22.013   0.206
43569W        W15185  36.413  23.090  11.645
43570W        W15186  20.901  21.042  11.226
43571W        W15187  25.879  14.611   5.060
43572W        W15188  39.805  35.344  11.507
43573W        W15189  34.961  12.720   3.614
43574W        W15190   2.858  36.911  14.647
43575W        W15191  20.828   9.632   4.917
43576W        W15192   4.675  16.248   1.327
43577W        W15193  19.057  33.265   1.959
43578W        W15194   3.671  18.663  13.351
43579W        W15195  20.218   0.372   0.906
43580W        W15196  42.190  16.827  10.974
43581W        W15197  10.455  37.384   1.831
43582W        W15198  43.843   0.879   4.342
43583W        W15199  25.654  42.996  14.967
43584W        W15200  22.654  12.645  13.097
43585W        W15201  28.385  17.568   1.625
43586W        W15202  21.265   5.250   0.190
43587W        W15203  29.638   8.950  14.482
43588W        W15204   2.961  34.506  11.895
43589W        W15205  38.860  31.693  11.149
43590W        W15206   0.308  38.156  12.012
43591W        W15207  12.670  13.227   1.906
43592W        W15208  26.045  41.757   1.249
43593W        W15209  17.564  17.630   1.792
43594W        W15210  10.887   8.396   1.435
43595W        W15211  42.686  12.207  12.499
43596W        W15212  10.477  26.717   3.699
43597W        W15213  34.562  12.751   4.933
43598W        W15214  35.426  43.431  13.453
43599W        W15215  10.222   8.790   1.404
43600W        W15216  33.829  25.460  12.078
43601W        W15217   0.452   1.437  11.508
43602W        W15218   0.422  24.296   4.570
43603W        W15219  33.914  25.741   3.344
43604W        W15220  17.068  16.568   3.208
43605W        W15221  14.620  31.099  11.478
43606W        W15222  20.334  18.268  10.680
43607W        W15223  17.115  24.211   0.769
43608W        W15224  17.582  14.745  13.774
43609W        W15225  43.856  41.842  12.769
43610W        W15226  25.050   5.326   4.447
43611W        W15227  43.686  17.554  14.018
43612W        W15228  33.367  41.100  10.780
43613W        W15229  30.474  43.834  12.000
43614W        W15230  44.472  26.188  14.278
43615W        W15231  27.240  29.002  14.767
43616W        W15232  30.590  26.713  10.488
43617W        W15233  23.664  33.074   0.167
43618W        W15234  35.980  30.652   2.508
43619W        W15235  20.754  21.243   2.754
43620W        W15236  39.266  37.819  11.196
43621W        W15237  15.395  26.197  11.996
43622W        W15238  42.860   1.809  10.650
43623W        W15239  13.885  17.079   4.694
43624W        W15240  39.389  43.198  11.123
43625W        W15241   0.470   0.939   0.865
43626W        W15242  18.758  23.547   1.352
43627W        W15243  16.610  42.563  12.027
43628W        W15244  39.051   6.201   1.082
43629W        W15245  44.900  12.263  10.488
43630W        W15246  39.546  29.925  11.565
43631W        W15247   4.186  19.654  14.529
43632W        W15248  13.704  11.332  12.907
43633W        W15249  44.759  34.588   4.663
43634W        W15250   2.751  12.661  10.910
43635W        W15251  33.862   3.808   4.131
43636W        W15252  33.109  42.768   3.156
43637W        W15253  18.148  10.447  11.597
43638W        W15254  33.566  13.678  11.590
43639W        W15255  24.716  11.128   2.764
43640W        W15256  14.186   2.012  13.008
43641W        W15257  34.385   1.267  11.220
43642W        W15258  40.710  11.157  13.922
43643W        W15259  11.631  14.065   4.086
43644W        W15260  29.254  17.609   5.003
43645W        W15261  17.400  12.605  13.762
43646W        W15262   5.362  24.190   0.669
43647W        W15263  16.672   3.213   2.572
43648W        W15264  31.634  29.820   1.446
43649W        W15265  40.549  15.179   4.571
43650W        W15266   2.001   1.037   1.464
43651W        W15267  25.134  41.392   1.478
43652W        W15268   4.421  28.450  13.998
43653W        W15269  18.286   9.911  10.517
43654W        W15270  12.794  18.455   1.056
43655W        W15271  10.211  27.657   3.591
43656W        W15272   1.822  41.851   1.835
43657W        W15273  44.425  11.020  11.979
43658W        W15274  14.122  41.275   1.005
43659W        W15275  41.634  22.207   3.753
43660W        W15276  34.366  12.553  11.606
43661W        W15277   9.878  44.925  14.915
43662W        W15278  44.003  30.514   1.794
43663W        W15279  39.083  27.614   4.592
43664W        W15280  26.487   7.838  12.927
43665W        W15281  11.356  36.026  14.805
43666W        W15282  22.827  44.778   3.417
43667W        W15283  26.868  14.294  10.979
43668W        W15284   4.452   0.731   5.061
43669W        W15285   3.661  44.112  14.415
43670W        W15286  43.295  39.619  14.974
43671W        W15287   5.358  17.071   1.611
43672W        W15288  26.196  44.230   2.185
43673W        W15289  38.145  43.491   0.967
43674W        W15290   7.740   8.751  12.077
43675W        W15291  17.799  38.896   4.260
43676W        W15292   0.408   0.729  12.593
43677W        W15293  23.789  39.080  13.396
43678W        W15294  32.351  42.804   0.065
43679W        W15295  39.542  14.658   0.318
43680W        W15296   3.520  20.320  14.949
43681W        W15297  15.190  33.364  13.633
43682W        W15298  33.476  30.063  10.039
43683W        W15299   2.044  35.433   4.705
43684W        W15300  35.595  11.402   2.183
43685W        W15301  26.411  34.481   3.518
43686W        W15302  42.897  30.117   1.116
43687W        W15303  20.052  26.021  12.873
43688W        W15304  30.845  15.313  13.066
43689W        W15305  25.195  43.301   4.591
43690W        W15306  30.351  22.509   2.595
43691W        W15307  28.945  41.520  12.503
43692W        W15308   1.020  25.670   3.341
43693W        W15309  41.570  19.584  13.844
43694W        W15310  20.415   5.026  10.205
43695W        W15311  32.851  29.794  13.912
43696W        W15312  41.091  38.020   1.989
43697W        W15313  38.551  29.913  13.470
43698W        W15314  24.607  17.522   3.752
43699W        W15315  23.988   2.533  13.422
43700W        W15316  26.014  41.305   4.175
43701W        W15317   9.880  23.755  11.116
43702W        W15318   0.451  21.071   2.292
43703W        W15319  29.478   5.928  14.523
43704W        W15320  20.574  43.692   0.683
43705W        W15321  21.355   1.692  13.966
43706W        W15322  38.110  37.151  11.430
43707W        W15323   8.280  33.002  10.883
43708W        W15324  27.879  32.921   0.686
43709W        W15325   5.923  12.775   2.946
43710W        W15326  36.472  23.758  11.219
43711W        W15327   5.273  11.018   0.755
43712W        W15328   8.730   6.910  14.478
43713W        W15329  35.354  21.871  13.898
43714W        W15330   2.714  11.251  13.104
43715W        W15331  34.303  44.187   4.291
43716W        W15332   6.809  21.530   3.424
43717W        W15333   6.633  44.302  12.052
43718W        W15334  25.500  34.608  10.694
43719W        W15335   4.381  18.059   4.731
43720W        W15336   6.958  34.441  13.973
43721W        W15337  31.925  15.886  13.371
43722W        W15338  29.697   6.104   0.918
43723W        W15339  42.760  36.556  12.625
43724W        W15340  35.983  35.076  13.092
43725W        W15341  16.238   9.372   2.713
43726W        W15342   2.949  28.563  10.754
43727W        W15343  43.038  12.594  11.968
43728W        W15344  24.933  30.982   1.163
43729W        W15345  34.528   0.351   3.715
43730W        W15346   8.421  19.734   0.638
43731W        W15347   8.936   8.182  14.236
43732W        W15348  33.467  11.593  12.078
43733W        W15349  42.574  14.409   1.729
43734W        W15350   1.967  24.491  10.096
43735W        W15351   8.767  39.448   0.594
43736W        W15352   2.279  25.469  13.458
43737W        W15353   1.458  43.232  12.562
43738W        W15354  10.177   4.025  13.319
43739W        W15355   2.042  38.196   4.507
43740W        W15356  21.693  38.024   2.803
43741W        W15357  30.651  10.410   2.905
43742W        W15358  13.167   4.221  12.092
43743W        W15359  21.011   6.360  11.686
43744W        W15360  20.393  26.446  12.932
43745W        W15361  14.310   7.681  13.961
43746W        W15362  18.646  14.880  10.877
43747W        W15363  24.622  10.674  11.023
43748W        W15364  37.698  15.342   3.366
43749W        W15365  18.136  39.426  11.732
43750W        W15366  30.113  27.370  14.130
43751W        W15367  28.097  38.363   4.769
43752W        W15368  31.543   8.913   3.081
43753W        W15369  41.004  20.425   0.983
43754W        W15370  23.676  11.485  12.040
43755W        W15371  29.537  27.610   1.383
43756W        W15372   8.590  29.011   1.747
43757W        W15373  41.551  17.333   1.363
43758W        W15374   6.647   3.776  14.269
43759W        W15375  37.865  11.301   4.147
43760W        W15376   6.294  28.906  14.064
43761W        W15377  16.810   1.083   0.418
43762W        W15378  21.487  32.726  12.889
43763W        W15379   4.852  15.062  10.296
43764W        W15380  40.532  11.650   9.974
43765W        W15381  30.389  28.956   0.270
43766W        W15382   3.794  16.246   3.934
43767W        W15383  30.464  22.993  13.790
43768W        W15384  20.188   8.928  12.556
43769W        W15385  30.598  32.030   4.174
43770W        W15386   6.044  13.500  10.212
43771W        W15387  28.134  40.503   2.847
43772W        W15388  15.589   0.825   4.512
43773W        W15389   7.320  31.072  11.134
43774W        W15390  30.510  43.220  11.322
43775W        W15391  30.620  16.879  11.467
43776W        W15392   5.468  25.177  13.883
43777W        W15393  14.635  23.655  12.166
43778W        W15394  34.642  25.282  14.657
43779W        W15395   6.829  20.557   0.778
43780W        W15396  15.022   5.462  12.388
43781W        W15397  25.862  44.018   1.845
43782W        W15398   7.789  42.623   3.705
43783W        W15399  20.302  41.842   0.223
43784W        W15400  21.482  43.773  12.177
43785W        W15401   5.958  21.057   1.875
43786W        W15402  23.247  43.554  13.582
43787W        W15403  22.589  28.146   2.778
43788W        W15404  21.882  15.342  13.086
43789W        W15405  27.422  16.781   2.901
43790W        W15406  11.401  37.777  12.422
43791W        W15407  41.482  23.013   0.439
43792W        W15408  27.305  17.822   3.353
43793W        W15409  40.938  44.748   4.877
43794W        W15410  30.711  28.475  14.591
43795W        W15411  33.549  19.447  14.931
43796W        W15412  15.737  16.789   3.882
43797W        W15413  34.924  43.530  13.376
43798W        W15414   9.578  14.763  13.609
43799W        W15415  17.655   2.479  12.014
43800W        W15416  12.150  25.688   4.511
43801W        W15417   2.409  11.775   1.823
43802W        W15418  23.767   5.945   1.365
43803W        W15419  44.221  18.037  14.388
43804W        W15420  29.224  14.712   2.220
43805W        W15421   4.750   5.364  13.387
43806W        W15422  25.010  15.783  14.880
43807W        W15423  42.457  35.882  12.044
43808W        W15424  31.117   6.863  13.834
43809W        W15425   1.136  40.096   4.129
43810W        W15426  12.185  26.850  10.859
43811W        W15427  43.774  33.656  13.274
43812W        W15428  29.784   6.341   2.952
43813W        W15429  22.327  20.366   1.445
43814W        W15430  44.193   3.825   1.815
43815W        W15431  13.670  42.968  10.730
43816W        W15432  37.804  40.564  12.464
43817W        W15433  26.661  17.644   0.754
43818W        W15434  20.038  15.120   2.303
43819W        W15435   1.917   2.009   0.054
43820W        W15436   7.088  28.687   4.157
43821W        W15437   7.893  28.194  14.842
43822W        W15438  31.637   4.245   1.885
43823W        W15439  29.543  17.661   4.135
43824W        W15440   8.076  33.446  11.098
43825W        W15441  14.304   8.830  13.011
43826W        W15442  33.507  27.736  11.585
43827W        W15443  16.404   0.038  10.740
43828W        W15444  14.886  36.571   4.027
43829W        W15445  16.742  10.618  10.403
43830W        W15446   7.338  32.539  12.627
43831W        W15447  34.427   4.852  14.272
43832W        W15448  32.638  38.126  13.301
43833W        W15449  12.679  41.892  12.943
43834W        W15450  35.493  39.052   4.902
43835W        W15451  27.419  15.547  10.429
43836W        W15452   4.507   2.982   1.199
43837W        W15453  26.178   9.403   4.113
43838W        W15454  31.936  37.049  12.901
43839W        W15455  40.999   5.091   0.234
43840W        W15456  21.146  44.721  13.895
43841W        W15457  29.878   0.532   3.587
43842W        W15458  40.309   1.028   1.932
43843W        W15459  18.553  32.692   3.730
43844W        W15460  21.701  23.205   4.137
43845W        W15461   4.316  32.713   0.734
43846W        W15462   8.755  40.386   0.237
43847W        W15463   8.592  41.407   4.427
43848W        W15464  30.516   7.984   4.414
43849W        W15465  28.093  39.096  14.847
43850W        W15466  38.336  31.572   2.196
43851W        W15467  24.211  34.003   4.099
43852W        W15468   0.169  19.530  12.138
43853W        W15469  39.532  10.927   0.461
43854W        W15470  39.033  24.749  14.703
43855W        W15471  26.197  14.228   9.882
43856W        W15472  20.080  11.284  11.012
43857W        W15473  12.283  18.142   1.827
43858W        W15474   2.171  30.656   2.812
43859W        W15475  42.316  32.027  14.439
43860W        W15476  43.275  11.678  13.093
43861W        W15477  37.393  30.125   1.937
43862W        W15478   6.510  27.991  11.158
43863W        W15479  11.246  38.825  10.752
43864W        W15480  20.785   7.239   1.288
43865W        W15481  36.920  18.272  10.352
43866W        W15482  13.189  11.412  11.112
43867W        W15483  35.339  38.884   0.376
43868W        W15484  24.192  30.547  13.366
43869W        W15485  31.095  13.602   2.361
43870W        W15486   0.507  13.818   3.712
43871W        W15487  39.062  43.130  14.181
43872W        W15488  30.302  38.318  14.271
43873W        W15489  15.245  36.944   3.904
43874W        W15490  23.745   5.502   2.233
43875W        W15491   0.072   6.130  14.520
43876W        W15492  11.689  30.639   4.539
43877W        W15493  31.524  29.418  10.110
43878W        W15494  15.071  29.620   1.654
43879W        W15495  36.083   2.989  13.923
43880W        W15496  13.256  12.279   1.176
43881W        W15497   3.239  17.801  11.449
43882W        W15498   0.333  40.901   3.253
43883W        W15499  43.337   6.418  14.750
43884W        W15500  35.491  31.144  11.986
43885W        W15501  13.772  26.175   1.337
43886W        W15502  31.961  27.965  12.866
43887W        W15503   4.770  26.841   1.520
43888W        W15504  37.286   1.212  14.331
43889W        W15505   2.381  33.544   4.653
43890W        W15506   5.137   1.652  10.618
43891W        W15507  38.857  31.652  12.158
43892W        W15508  19.569  40.382   2.645
43893W        W15509  17.433  31.421   4.131
43894W        W15510   2.343  16.742   1.423
43895W        W15511  32.886   0.799  11.443
43896W        W15512  21.498  23.272  11.661
43897W        W15513  42.801  40.362  11.731
43898W        W15514   3.430  11.148  10.978
43899W        W15515  19.082  42.365  12.528
43900W        W15516   2.862  31.691   2.441
43901W        W15517  20.646   3.848   0.547
43902W        W15518  24.979  41.464  12.060
43903W        W15519  42.219  18.781   0.868
43904W        W15520  33.427   3.565   3.268
43905W        W15521  20.566  15.785  14.412
43906W        W15522  41.217  43.976   3.724
43907W        W15523   4.298  34.314   1.357
43908W        W15524  35.043   8.749   0.985
43909W        W15525   1.018  42.783   4.596
43910W        W15526  18.016  40.945  12.756
43911W        W15527  35.396  39.345  14.378
43912W        W15528   9.628  31.524   4.266
43913W        W15529  29.601  33.408  10.169
43914W        W15530  30.660  23.451  11.157
43915W        W15531  43.796  38.114  14.335
43916W        W15532  40.905  16.711  10.568
43917W        W15533  30.483  24.208  11.886
43918W        W15534  21.736  36.104   2.727
43919W        W15535  33.338  33.831  13.837
43920W        W15536  14.129  12.978  12.035
43921W        W15537   1.950  32.663   2.116
43922W        W15538  21.510   9.157  11.619
43923W        W15539   6.752  22.240  12.888
43924W        W15540  19.244   5.966  13.720
43925W        W15541   2.426  31.768   4.610
43926W        W15542   0.770  20.203  14.448
43927W        W15543   0.466  37.431   9.755
43928W        W15544  31.474  29.865   0.956
43929W        W15545  25.808  18.192  12.086
43930W        W15546  19.476  27.289   0.820
43931W        W15547   7.772  17.306   4.210
43932W        W15548  39.015   5.443  14.209
43933W        W15549   3.866  42.386   2.909
43934W        W15550  37.073   9.241   4.721
43935W        W15551  33.190  21.413   2.842
43936W        W15552   1.013  18.119  11.923
43937W        W15553  22.527  23.686   2.943
43938W        W15554  19.252  10.060  11.138
43939W        W15555   0.628  37.850  12.390
43940W        W15556   7.890  26.519  13.587
43941W        W15557   8.148  32.316   1.288
43942W        W15558  43.368  18.143  13.248
43943W        W15559  38.357  37.861   3.238
43944W        W15560  25.496  21.735   2.304
43945W        W15561  41.487  21.604  13.848
43946W        W15562  25.952  13.077   1.838
43947W        W15563   9.738  15.823  13.062
43948W        W15564  26.746  21.239   3.662
43949W        W15565  26.532   3.834   4.087
43950W        W15566  29.502  20.804  14.343
43951W        W15567   3.208   3.917  13.512
43952W        W15568  25.037   4.849   1.392
43953W        W15569   5.895  20.591   0.560
43954W        W15570  32.670  15.853  12.993
43955W        W15571   0.456  36.378   2.747
43956W        W15572  11.737  44.514   3.517
43957W        W15573  26.529  28.363  12.086
43958W        W15574  12.350  20.182   3.162
43959W        W15575   3.445  21.628   1.831
43960W        W15576  38.966  36.089   0.528
43961W        W15577  15.357  16.351  10.562
43962W        W15578  13.370  10.381   3.558
43963W        W15579   8.740  23.776  12.395
43964W        W15580  38.516  22.230  13.133
43965W        W15581  17.491   9.535   3.969
43966W        W15582  20.765  25.761   1.246
43967W        W15583  22.294   6.249   0.478
43968W        W15584  15.740  12.779  13.457
43969W        W15585  26.000  31.652   4.773
43970W        W15586  22.819  27.145   1.291
43971W        W15587  36.676  31.452  13.984
43972W        W15588   1.147  40.317  14.245
43973W        W15589   0.229  21.578   4.132
43974W        W15590  42.792  37.048   2.179
43975W        W15591  42.427  39.502  14.238
43976W        W15592   9.574  35.565   3.616
43977W        W15593  17.847  30.461  13.410
43978W        W15594  24.243  29.078  12.975
43979W        W15595   5.188  41.992  14.444
43980W        W15596  10.471  43.709  11.039
43981W        W15597  42.830  33.379  10.711
43982W        W15598  29.392  23.101   3.900
43983W        W15599  12.740  11.431  14.411
43984W        W15600  40.689  43.450   4.333
43985W        W15601  40.524  42.058   3.616
43986W        W15602  25.907  38.587   1.716
43987W        W15603  26.780  39.724   2.872
43988W        W15604  12.624   4.663  13.545
43989W        W15605   1.493  39.003   4.287
43990W        W15606  36.844   6.723  11.075
43991W        W15607  15.541  23.154  12.982
43992W        W15608  27.996  25.060  10.641
43993W        W15609  44.851  41.425   2.771
43994W        W15610  34.164  37.114  14.515
43995W        W15611  19.811  24.594  14.355
43996W        W15612  35.710  27.918  10.986
43997W        W15613  26.016  18.821  12.390
43998W        W15614  32.954   5.094  10.405
43999W        W15615  27.173  27.223   2.242
44000W        W15616  37.083  12.409   1.840
44001W        W15617  28.084  16.626  10.111
44002W        W15618  43.372  44.341  14.408
44003W        W15619  28.394   9.163   3.309
44004W        W15620   6.520  12.248  11.091
44005W        W15621  29.071  31.243  13.446
44006W        W15622  12.899   6.560   4.036
44007W        W15623  13.070  40.747   1.389
44008W        W15624  40.751  29.747   3.877
44009W        W15625  38.774  44.005   2.300
44010W        W15626  22.547  33.077  12.434
44011W        W15627  37.925  27.437   3.772
44012W        W15628  11.806  14.733  11.205
44013W        W15629  24.731   3.288  12.515
44014W        W15630  15.810  40.028   4.234
44015W        W15631   1.744   0.020   2.820
44016W        W15632  13.039  18.128  12.582
44017W        W15633  39.460   0.711  12.844
44018W        W15634  19.870  36.824   1.228
44019W        W15635  33.519  44.967   2.985
44020W        W15636  13.137  29.905   0.511
44021W        W15637   0.607  29.945   1.315
44022W        W15638  32.594   3.513   1.857
44023W        W15639  26.988  12.351  13.828
44024W        W15640  41.834  26.440   4.007
44025W        W15641  32.583   2.069   2.515
44026W        W15642  13.037  17.109   3.718
44027W        W15643  33.409  21.230   4.551
44028W        W15644  30.588  34.022   0.685
44029W        W15645  31.984  28.102   2.404
44030W        W15646  44.878   2.506   0.267
44031W        W15647  34.633  43.372  14.516
44032W        W15648  11.436  37.009   0.252
44033W        W15649  44.490  23.675  13.050
44034W        W15650   1.344   7.770  14.515
44035W        W15651   8.371  10.115   9.843
44036W        W15652  19.033  29.562  11.284
44037W        W15653  35.497  29.875   3.507
44038W        W15654  16.234  22.437  13.891
44039W        W15655  39.185  22.795   5.108
44040W        W15656   5.797  24.703  13.574
44041W        W15657  27.206   2.899  12.886
44042W        W15658  41.234  21.231   4.537
44043W        W15659   1.453  21.543  10.660
44044W        W15660   8.096   2.785   3.126
44045W        W15661  27.062  34.633   4.595
44046W        W15662  10.424  24.188   3.109
44047W        W15663  15.964  15.323  11.745
44048W        W15664  44.556  27.265   1.702
44049W        W15665  26.074   8.259   3.750
44050W        W15666  37.077  41.374  14.556
44051W        W15667  10.354   0.378   1.656
44052W        W15668  37.865  41.622  10.714
44053W        W15669  31.596  10.893   1.796
44054W        W15670  14.270  40.844  12.901
44055W        W15671   1.713  15.048  14.017
44056W        W15672  31.713  27.438   5.075
44057W        W15673  22.505  20.086   2.435
44058W        W15674  15.632  24.937  14.415
44059W        W15675   6.897  14.731   0.428
44060W        W15676  38.445  16.028  12.495
44061W        W15677  31.008  19.268  14.324
44062W        W15678  22.690  27.708   0.139
44063W        W15679  33.153  12.010   0.239
44064W        W15680  39.590   2.167   4.593
44065W        W15681   7.377   7.838   1.929
44066W        W15682  39.247  44.081   0.822
44067W        W15683  12.072  34.638   4.138
44068W        W15684  15.313  34.348   3.596
44069W        W15685  36.975  22.113   4.430
44070W        W15686  24.931  10.185  14.497
44071W        W15687  28.754  13.851   4.050
44072W        W15688  39.567  43.523  12.401
44073W        W15689  21.877  40.509  13.097
44074W        W15690  14.827  35.199  10.554
44075W        W15691  33.073  22.735   1.298
44076W        W15692  29.375   9.360  11.593
44077W        W15693  33.149   1.322  10.842
44078W        W15694  32.909  23.037  14.409
44079W        W15695  15.094  26.999  11.208
44080W        W15696  41.508  22.601   4.112
44081W        W15697   1.369   1.257  12.347
44082W        W15698  31.050  34.059   2.576
44083W        W15699  37.411   0.345   1.243
44084W        W15700  39.341  22.555   2.737
44085W        W15701  22.885  21.111   3.736
44086W        W15702  19.763   3.733  12.952
44087W        W15703  20.027  34.513   0.235
44088W        W15704  36.891   9.877  10.867
44089W        W15705   1.441  37.861   3.903
44090W        W15706   3.373  12.538   5.003
44091W        W15707  26.552  36.845   3.047
44092W        W15708  15.083  27.056  10.686
44093W        W15709  10.652  44.317  13.474
44094W        W15710  34.405  15.154   1.229
44095W        W15711  37.853  10.652  10.335
44096W        W15712   4.188  34.892   2.364
44097W        W15713  37.108  38.325   3.455
44098W        W15714  18.874  20.190   4.623
44099W        W15715  35.621  34.796  11.467
44100W        W15716  28.083  14.753   1.630
44101W        W15717  29.143  11.831  11.242
44102W        W15718   2.530   7.738  13.709
44103W        W15719  18.235  25.568  12.381
44104W        W15720  37.822  13.201  13.800
44105W        W15721  33.732  43.456  14.026
44106W        W15722  19.352  10.874   4.426
44107W        W15723  33.457   7.307   2.971
44108W        W15724  19.159   4.819   1.452
44109W        W15725  27.771   4.369   0.426
44110W        W15726  14.342  13.199   0.533
44111W        W15727   3.737  42.003  13.144
44112W        W15728   9.301  19.780   2.850
44113W        W15729  34.456  20.151  14.007
44114W        W15730  42.070  37.641  11.225
44115W        W15731  36.035   4.807   1.030
44116W        W15732   5.244  37.365  12.564
44117W        W15733  40.864  38.311  11.085
44118W        W15734  28.018  16.031   1.815
44119W        W15735  30.819  11.624   0.412
44120W        W15736  19.637  33.766  14.776
44121W        W15737   0.046  20.221  13.177
44122W        W15738  26.416   6.908  11.151
44123W        W15739  19.021   8.235   3.181
44124W        W15740   3.868  27.034   0.482
44125W        W15741  29.099  36.143   3.255
44126W        W15742  38.600  42.258  14.875
44127W        W15743  23.061  31.568   3.864
44128W        W15744   2.159   3.880  10.963
44129W        W15745  20.563  37.045  13.895
44130W        W15746  34.395  29.062  14.945
44131W        W15747  31.129   8.766   3.339
44132W        W15748  38.108  10.766  12.589
44133W        W15749  24.065   1.827  12.760
44134W        W15750  16.195  15.100   0.810
44135W        W15751  35.908   8.499   3.074
44136W        W15752  18.333  30.651   4.273
44137W        W15753   4.890   0.430   4.994
44138W        W15754  37.647   2.591  11.093
44139W        W15755   2.678  23.836   2.241
44140W        W15756  28.606  26.886   2.612
44141W        W15757   9.055  28.239   1.317
44142W        W15758  43.984  13.289  14.779
44143W        W15759  40.961  15.183   3.721
44144W        W15760   3.534  11.787   4.962
44145W        W15761  15.285  26.525   4.124
44146W        W15762   6.828  23.289  11.597
44147W        W15763  14.638  26.176   1.823
44148W        W15764  13.750   8.755   3.079
44149W        W15765  20.299  33.207   3.410
44150W        W15766  13.863  34.045  11.094
44151W        W15767  35.785  42.558   2.740
44152W        W15768  34.605  35.675  13.331
44153W        W15769   3.597   1.923   0.539
44154W        W15770  17.388  26.469  10.234
44155W        W15771  19.761  39.963  10.926
44156W        W15772  10.187  39.583   0.671
44157W        W15773  30.926  28.645  12.484
44158W        W15774  15.115  21.675  14.364
44159W        W15775  11.701  18.671   1.924
44160W        W15776  34.436   4.349  12.186
44161W        W15777   6.853  13.181   4.253
44162W        W15778  40.518   3.857   4.089
44163W        W15779  31.575  25.107   2.934
44164W        W15780  24.126  22.206   4.068
44165W        W15781  37.825   6.814  12.786
44166W        W15782  29.683  23.163  12.818
44167W        W15783  44.456   0.534  13.560
44168W        W15784  24.445  27.743   0.490
44169W        W15785   5.643   0.722  14.446
44170W        W15786  31.550  44.384  11.674
44171W        W15787  31.766   4.974   4.119
44172W        W15788  22.452   0.236  12.038
44173W        W15789  43.239  36.051   4.637
44174W        W15790  32.039  35.163   2.265
44175W        W15791  34.783  30.680   4.062
44176W        W15792   5.804   6.658   1.671
44177W        W15793  39.589  42.989  11.539
44178W        W15794  37.557  39.155   0.818
44179W        W15795  37.300   2.462   1.847
44180W        W15796  38.789  39.309   3.356
44181W        W15797  11.378   6.274   0.510
44182W        W15798   5.131   5.313  12.575
44183W        W15799  19.236  18.519   1.423
44184W        W15800  25.490  37.013   2.163
44185W        W15801  15.467   1.509   2.377
44186W        W15802  35.636  43.215  14.418
44187W        W15803  32.836  29.122   1.650
44188W        W15804  42.247   5.817  12.001
44189W        W15805  22.070  43.381   2.338
44190W        W15806   7.551  31.913   9.804
44191W        W15807  28.762  31.292  12.840
44192W        W15808   9.730  22.998  10.607
44193W        W15809  29.037   7.918  13.943
44194W        W15810  37.372  11.813  11.560
44195W        W15811  39.320   7.191  11.781
44196W        W15812   9.443  44.859   3.199
44197W        W15813   4.970   7.453  11.161
44198W        W15814  23.066  42.875   3.120
44199W        W15815  19.951  30.455   3.641
44200W        W15816  28.456   0.568   0.431
44201W        W15817   1.118  36.030   0.828
44202W        W15818  37.309   8.714   9.946
44203W        W15819   5.235  24.650  13.028
44204W        W15820  23.306  16.316  14.419
44205W        W15821  26.071  30.417  11.058
44206W        W15822   1.096  39.361   2.378
44207W        W15823  29.866  44.273   1.686
44208W        W15824  33.079  18.636  10.955
44209W        W15825   2.971  17.588   1.851
44210W        W15826  27.460   3.335   2.366
44211W        W15827   5.764  17.748   2.059
44212W        W15828  35.901  40.804   0.498
44213W        W15829   5.640  26.420  12.634
44214W        W15830  37.529  40.980   2.604
44215W        W15831   1.243  34.612  12.534
44216W        W15832  21.124  29.595   2.235
44217W        W15833   0.367  42.174  14.785
44218W        W15834  40.979  36.711  11.754
44219W        W15835   4.331  14.219   3.525
44220W        W15836  38.517   7.852   3.142
44221W        W15837  16.062  41.204  14.647
44222W        W15838   7.347  43.303   1.211
44223W        W15839  19.702  13.365   1.071
44224W        W15840  15.659  24.376  13.336
44225W        W15841  16.340  40.335  12.581
44226W        W15842   9.337  28.167   1.745
44227W        W15843  32.111  20.176  11.692
44228W        W15844  10.387  27.000  11.446
44229W        W15845  38.056  34.450   0.303
44230W        W15846   9.175  21.184  14.429
44231W        W15847  44.714  32.461  13.559
44232W        W15848  25.396  11.372  14.801
44233W        W15849   9.391   5.097   1.705
44234W        W15850   1.729  14.270   1.264
44235W        W15851  27.878  25.624   2.166
44236W        W15852  34.393   8.555  14.121
44237W        W15853  30.295   9.953   4.165
44238W        W15854  33.543  39.515  12.289
44239W        W15855  22.773  14.874   3.764
44240W        W15856   4.925  26.222   2.331
44241W        W15857   7.342  44.459  11.626
44242W        W15858   4.175  12.901  10.979
44243W        W15859  12.916   8.194  12.645
44244W        W15860  13.816  14.176  11.390
44245W        W15861  20.042   6.199  10.599
44246W        W15862  20.619  12.041  11.490
44247W        W15863   2.264   8.733  13.405
44248W        W15864   3.493  26.876  13.672
44249W        W15865  14.305  20.459   3.411
44250W        W15866   0.670  19.604  11.206
44251W        W15867  10.548  27.145   1.489
44252W        W15868  15.855  33.055   1.372
44253W        W15869   8.699   1.347  12.333
44254W        W15870  37.531  28.653   1.901
44255W        W15871  33.919   5.215   3.681
44256W        W15872  35.510  12.129  11.389
44257W        W15873  40.844   5.517   0.003
44258W        W15874  10.095  28.826   4.233
44259W        W15875  15.388  10.674  13.301
44260W        W15876  16.840  36.040  13.525
44261W        W15877  23.036  27.710  13.583
44262W        W15878   3.208  30.199  11.075
44263W        W15879  44.199  14.026  14.378
44264W        W15880  44.446  23.630   4.514
44265W        W15881  14.112   4.503   1.690
44266W        W15882   5.418   6.099   4.333
44267W        W15883  37.876  26.105  11.719
44268W        W15884  12.704  21.562   1.248
44269W        W15885  31.432   0.540   3.649
44270W        W15886   2.599  27.650   1.931
44271W        W15887  40.094   6.867   3.853
44272W        W15888  36.459   6.342  12.114
44273W        W15889  21.821  38.303   2.335
44274W        W15890  44.050  33.971  11.512
44275W        W15891  10.688  37.479  13.830
44276W        W15892  18.534  42.728   3.243
44277W        W15893   7.763  32.163  12.858
44278W        W15894  35.323  33.706   0.479
44279W        W15895  14.856   6.453  14.933
44280W        W15896   8.077  44.369  14.478
44281W        W15897  24.177  17.067   1.368
44282W        W15898  23.605   9.591   1.869
44283W        W15899  23.484   4.737  12.913
44284W        W15900  30.402  27.213   1.038
44285W        W15901  36.558  26.214   2.364
44286W        W15902  13.838  29.436   4.122
44287W        W15903  19.612   2.282   0.542
44288W        W15904  27.508  17.029  13.355
44289W        W15905  17.090   5.226  13.923
44290W        W15906  12.382  38.451   4.725
44291W        W15907  16.439  37.671  11.206
44292W        W15908  39.359  35.418   2.423
44293W        W15909  40.702  40.687   3.211
44294W        W15910  11.698   2.293  13.751
44295W        W15911  11.974  11.380   2.751
44296W        W15912  30.982  31.597   3.703
44297W        W15913   7.278  28.318   4.460
44298W        W15914  19.931  38.289   3.647
44299W        W15915   3.367  39.309  11.395
44300W        W15916  15.655  23.661   2.598
44301W        W15917  14.032  10.343  10.762
44302W        W15918  24.242  22.285   1.402
44303W        W15919  30.260  21.011   0.997
44304W        W15920   0.978  15.999   1.527
44305W        W15921   9.419  38.292   3.150
44306W        W15922  16.831  14.202  13.172
44307W        W15923  27.989  16.354   1.371
44308W        W15924   8.120  38.417  14.831
44309W        W15925  24.259  31.068   0.507
44310W        W15926  30.123   6.189   4.599
44311W        W15927  25.031  31.716  12.999
44312W        W15928  17.064  43.769   9.910
44313W        W15929  18.611   3.900  12.334
44314W        W15930  26.226  40.675   2.073
44315W        W15931  19.528  38.390  14.842
44316W        W15932  26.939  42.307   1.022
44317W        W15933  40.426  43.979  13.898
44318W        W15934  16.468  27.432  13.372
44319W        W15935  38.323  38.968   4.715
44320W        W15936  10.161  19.210   3.030
44321W        W15937  20.714  10.504   3.148
44322W        W15938  29.054  44.486   4.397
44323W        W15939  40.840  27.293   4.551
44324W        W15940  41.722  15.598  10.163
44325W        W15941  32.020  40.013  11.784
44326W        W15942  29.776   0.383   3.109
44327W        W15943  18.629   1.749  12.416
44328W        W15944   2.807   1.993   3.892
44329W        W15945   3.944  36.418  11.193
44330W        W15946  26.031   1.365  12.064
44331W        W15947   5.070  34.651   4.260
44332W        W15948  36.340  35.469   1.678
44333W        W15949  37.581  44.484  14.694
44334W        W15950  10.530  19.506  11.144
44335W        W15951  23.904  25.957  11.511
44336W        W15952  20.047  14.367   4.716
44337W        W15953   9.086  38.417  14.781
44338W        W15954  12.339  11.989  11.608
44339W        W15955  38.061  19.229  14.846
44340W        W15956  42.310  22.638  14.070
44341W        W15957   3.659  44.995   4.588
44342W        W15958   4.226  38.806   1.266
44343W        W15959  36.917  20.715   3.571
44344W        W15960  13.843  44.717   3.083
44345W        W15961  14.413  33.841  14.023
44346W        W15962  31.555  26.116  10.659
44347W        W15963  26.349   3.863   4.574
44348W        W15964  24.206  30.408  12.486
44349W        W15965  16.148  25.590  12.047
44350W        W15966  18.007  11.358  13.863
44351W        W15967   6.884  25.947   0.578
44352W        W15968   5.771  27.095   2.459
44353W        W15969  24.394  17.851  10.488
44354W        W15970  38.354  44.773   0.448
44355W        W15971  13.760  14.670   0.930
44356W        W15972  32.094  27.597  14.549
44357W        W15973  20.947  39.007   3.531
44358W        W15974   9.651  19.091  12.054
44359W        W15975   8.146  35.389  14.891
44360W        W15976  28.766  44.722  14.053
44361W        W15977   3.639  41.293  10.344
44362W        W15978  24.538  42.578   0.100
44363W        W15979  32.668  32.972   3.407
44364W        W15980  28.451  17.144  10.511
44365W        W15981   4.949  20.946   1.828
44366W        W15982   1.927   0.292   4.560
44367W        W15983   2.846  14.395   4.742
44368W        W15984  30.161  23.118   0.351
44369W        W15985   7.482  18.960   0.319
44370W        W15986   7.918  20.747  11.667
44371W        W15987  21.461  28.053   9.890
44372W        W15988   1.337  27.538  12.447
44373W        W15989  30.121  20.520   3.936
44374W        W15990  31.879  19.701  14.711
44375W        W15991  21.081  17.884   1.894
44376W        W15992  17.708   0.738   1.297
44377W        W15993  18.086  19.161   4.370
44378W        W15994  30.088  28.521   0.382
44379W        W15995  27.927  29.541   1.797
44380W        W15996  17.217  33.926   4.159
44381W        W15997  35.326  38.404  13.094
44382W        W15998  13.657  40.408   0.810
44383W        W15999  20.225  24.651   3.374
44384W        W16000  24.900  26.197   3.039
44385W        W16001   9.639  10.929  14.400
44386W        W16002  42.741  21.216   3.544
44387W        W16003   4.370  17.085  11.864
44388W        W16004  35.976  19.134   3.199
44389W        W16005   3.443   9.282  13.592
44390W        W16006  35.128  39.568  12.113
44391W        W16007  41.336   7.464   2.568
44392W        W16008  34.796  23.423  14.752
44393W        W16009  39.531   0.986  14.553
44394W        W16010  18.914  16.899  12.609
44395W        W16011  28.964  15.146   2.465
44396W        W16012   0.309  19.005   1.237
44397W        W16013  13.363  15.809   4.126
44398W        W16014  38.824  21.761   4.802
44399W        W16015  43.667  40.253   2.978
44400W        W16016   6.532  26.422  12.403
44401W        W16017  22.074  18.569   2.652
44402W        W16018  29.602  10.241  14.962
44403W        W16019  34.897  11.251   0.768
44404W        W16020  15.291  13.048   3.419
44405W        W16021   3.195  10.316   4.637
44406W        W16022  39.500  44.841  13.724
44407W        W16023  14.807   6.389   0.838
44408W        W16024  41.035  19.638  13.858
44409W        W16025  26.622  31.968   2.247
44410W        W16026  37.493  36.120   4.985
44411W        W16027  21.863  30.563  12.322
44412W        W16028  36.856  10.236  10.479
44413W        W16029  16.275  19.830   5.143
44414W        W16030  17.781  15.566  13.665
44415W        W16031   1.972  41.812  11.596
44416W        W16032   0.523   3.413  10.447
44417W        W16033   4.653  30.710   5.189
44418W        W16034  42.755  37.035  11.377
44419W        W16035  28.779  28.036  10.330
44420W        W16036  17.830   2.464   3.002
44421W        W16037  10.815  10.366   2.077
44422W        W16038  10.645  16.942   3.725
44423W        W16039   8.331  10.055   3.245
44424W        W16040  40.836  21.013   1.903
44425W        W16041  20.535  22.569  14.341
44426W        W16042   2.388  42.891  14.136
44427W        W16043  22.801  11.078  13.435
44428W        W16044  20.746  16.219   4.902
44429W        W16045  21.215  13.145   1.463
44430W        W16046  44.369  12.614   0.404
44431W        W16047  44.453  33.111  10.014
44432W        W16048  15.044  15.119   1.250
44433W        W16049  18.327  15.506   3.685
44434W        W16050   1.277   0.762  13.822
44435W        W16051   8.935  37.133  14.155
44436W        W16052  23.348   1.769  11.126
44437W        W16053   9.312   4.084   4.001
44438W        W16054  44.028   2.191   1.848
44439W        W16055   9.827  38.679   2.377
44440W        W16056  15.303  37.040  12.145
44441W        W16057  28.638  10.910   0.559
44442W        W16058   7.118  30.266  14.005
44443W        W16059  37.516  31.313   2.530
44444W        W16060  26.156  36.926  13.854
44445W        W16061  13.043  17.822   2.323
44446W        W16062  29.433  31.440  10.598
44447W        W16063  22.110   7.414   4.010
44448W        W16064  44.871  40.009   3.401
44449W        W16065  18.631  38.332   3.262
44450W        W16066  37.993  18.763   3.285
44451W        W16067  32.879  39.208   3.449
44452W        W16068  44.166  26.039   0.239
44453W        W16069  39.536   8.241  13.071
44454W        W16070  43.362   7.169  14.490
44455W        W16071  34.450  21.855   0.073
44456W        W16072   2.560  34.380  12.159
44457W        W16073  31.473  35.885  11.980
44458W        W16074  37.607  17.294   4.177
44459W        W16075  23.448  21.991   2.674
44460W        W16076  30.040  23.365   0.865
44461W        W16077   1.774  21.721   3.456
44462W        W16078  10.794  22.020  10.617
44463W        W16079   0.236  26.703   2.658
44464W        W16080  20.169   8.815  12.023
44465W        W16081  18.174  13.229   2.949
44466W        W16082   2.783  38.066   1.463
44467W        W16083  21.275  11.198   1.186
44468W        W16084  26.144  29.408  10.755
44469W        W16085  32.014  16.891   4.522
44470W        W16086  17.243  17.174  10.349
44471W        W16087  41.476  38.954  10.894
44472W        W16088  44.013  29.699   4.521
44473W        W16089  33.596  19.059   4.086
44474W        W16090  29.706  27.182   0.448
44475W        W16091  11.522  22.485  10.250
44476W        W16092   9.658  16.382   1.674
44477W        W16093  38.972   5.856   1.693
44478W        W16094   6.256  28.946  12.997
44479W        W16095  38.812   3.295   3.270
44480W        W16096   9.802   9.914   1.931
44481W        W16097  41.350  37.871   1.262
44482W        W16098   5.130  36.045   4.360
44483W        W16099  43.364  14.158   1.756
44484W        W16100  37.805  14.070   5.802
44485W        W16101   7.617   2.388   2.769
44486W        W16102  44.304  12.315   1.893
44487W        W16103  12.645  14.603   3.827
44488W        W16104   9.702  19.666   2.305
44489W        W16105  33.659  25.849   1.529
44490W        W16106  21.121   7.698   4.707
44491W        W16107  44.418  39.875  11.163
44492W        W16108  17.799  30.970  14.931
44493W        W16109  12.434  38.324  13.034
44494W        W16110   7.358  16.798   0.251
44495W        W16111  43.914  14.052   4.997
44496W        W16112  14.784  42.579   0.950
44497W        W16113  26.006  38.500  11.981
44498W        W16114  39.300  13.418   4.167
44499W        W16115  30.074  38.556  13.843
44500W        W16116   5.842  26.880  11.847
44501W        W16117  17.318  37.539   1.409
44502W        W16118  27.226  18.593  14.036
44503W        W16119   5.493   3.923   3.252
44504W        W16120   3.754  30.026  12.574
44505W        W16121  17.309  12.837  10.608
44506W        W16122   1.027  40.736  12.468
44507W        W16123  36.611  22.449  12.830
44508W        W16124  15.891  41.800  11.144
44509W        W16125  10.871  14.581  13.001
44510W        W16126  21.186   3.587  11.807
44511W        W16127  32.979  32.871   0.801
44512W        W16128  11.652  34.632   2.602
44513W        W16129   0.390   9.561  11.099
44514W        W16130  25.090   8.598  13.928
44515W        W16131  10.758  27.457   0.705
44516W        W16132  22.571  11.114   1.326
44517W        W16133  16.104   9.846  13.946
44518W        W16134  44.877   7.593   3.664
44519W        W16135  22.285   5.317   1.425
44520W        W16136   1.951  24.582   4.827
44521W        W16137  15.322  30.059   1.967
44522W        W16138   5.088  19.703  12.040
44523W        W16139   4.693  37.921  11.973
44524W        W16140  42.389   5.410  12.522
44525W        W16141  12.363  41.127  11.107
44526W        W16142  26.452   7.473  11.909
44527W        W16143  44.959  41.985   4.558
44528W        W16144  44.337  25.591   1.408
44529W        W16145  31.689  11.889   4.456
44530W        W16146  22.754  31.177  11.682
44531W        W16147  38.576  15.487  12.505
44532W        W16148  16.701  28.253   1.583
44533W        W16149  27.620  22.061  14.456
44534W        W16150  25.743  29.185  13.116
44535W        W16151  18.672  18.548   5.044
44536W        W16152   1.713  39.786   3.745
44537W        W16153   3.897   1.742  13.582
44538W        W16154  10.282   2.338  12.509
44539W        W16155  30.972  34.514   2.839
44540W        W16156  10.248  15.624  14.757
44541W        W16157  35.269  31.692   3.394
44542W        W16158  43.402  30.045   1.298
44543W        W16159  14.812  13.146   3.244
44544W        W16160   1.402  28.900   2.418
44545W        W16161  31.990   2.386   4.244
44546W        W16162  10.096  25.298  14.003
44547W        W16163  30.173  12.714  10.961
44548W        W16164  23.992  34.855   0.387
44549W        W16165  23.745  31.023   4.266
44550W        W16166   6.327   3.721   3.437
44551W        W16167  36.792  12.181  13.046
44552W        W16168  33.034   0.543   1.683
44553W        W16169   5.811  29.996  11.230
44554W        W16170  22.585   5.979   1.861
44555W        W16171  37.994  13.641   0.537
44556W        W16172  16.269   7.308   1.910
44557W        W16173  25.762  17.353  13.367
44558W        W16174  31.390  37.858   3.738
44559W        W16175  42.312   0.133   3.186
44560W        W16176  31.095  36.054  13.939
44561W        W16177   8.795  29.971   4.572
44562W        W16178   7.262  20.198   2.285
44563W        W16179  27.973  35.041  11.833
44564W        W16180  19.790  14.665   0.838
44565W        W16181   1.982   5.222  10.646
44566W        W16182  26.444  30.501   3.250
44567W        W16183  27.253   9.734   0.774
44568W        W16184   4.296  14.791   2.750
44569W        W16185  27.143  34.464   0.980
44570W        W16186  24.239  22.029  11.600
44571W        W16187   6.211  17.589   3.825
44572W        W16188  10.383  25.443  12.951
44573W        W16189  28.122  18.586   2.630
44574W        W16190  20.094  33.643   2.675
44575W        W16191  28.013  25.078   0.550
44576W        W16192  32.014   0.533  10.186
44577W        W16193  17.502  27.491   3.568
44578W        W16194  11.375  36.425   4.563
44579W        W16195   8.346  22.511   3.719
44580W        W16196  28.475  30.412  14.947
44581W        W16197  28.518  36.389   0.268
44582W        W16198  11.615  31.294   4.273
44583W        W16199  10.811   8.450  11.251
44584W        W16200  14.882   0.872   0.364
44585W        W16201  23.628  32.399  12.552
44586W        W16202  19.045  32.623  14.309
44587W        W16203  10.794  23.999   2.131
44588W        W16204  43.385  43.521   1.500
44589W        W16205  31.836  24.174  12.642
44590W        W16206  24.683  31.397  11.268
44591W        W16207  12.743  23.088  13.409
44592W        W16208  11.317  38.006   4.100
44593W        W16209  38.626   3.931   1.808
44594W        W16210   2.215  40.761   1.366
44595W        W16211  44.344  26.449   2.113
44596W        W16212  24.735  15.781  14.420
44597W        W16213   8.749  28.511   4.555
44598W        W16214  28.467  33.608  13.507
44599W        W16215  15.139  31.564  11.065
44600W        W16216  34.598  42.538  11.646
44601W        W16217   6.166   1.985   1.238
44602W        W16218  23.786  23.688   4.722
44603W        W16219   9.882  28.390   4.047
44604W        W16220  43.294  16.520   1.260
44605W        W16221  28.633  11.693  13.943
44606W        W16222  37.077  30.362   4.076
44607W        W16223  38.991  31.660   3.842
44608W        W16224  43.498  20.590   2.383
44609W        W16225   1.165  14.273  12.116
44610W        W16226  42.851   1.099   5.039
44611W        W16227  34.151  18.444  14.663
44612W        W16228  35.297  32.455   2.522
44613W        W16229  16.381  31.035   4.791
44614W        W16230  19.789  18.974   4.632
44615W        W16231   7.321  38.603   4.117
44616W        W16232  17.095  10.695  11.169
44617W        W16233  12.356  34.544   0.444
44618W        W16234  32.084   1.006   3.997
44619W        W16235  22.746  36.951   0.414
44620W        W16236  26.927  13.654   2.635
44621W        W16237  29.444  32.420  13.036
44622W        W16238  22.838   0.852   9.981
44623W        W16239  35.359   9.695  13.489
44624W        W16240  28.573  31.705  13.840
44625W        W16241  43.441  34.653   1.316
44626W        W16242  10.750   0.242   3.728
44627W        W16243  25.013  37.713   4.041
44628W        W16244  30.107   4.910  11.660
44629W        W16245  41.470   5.675  13.910
44630W        W16246   6.650   9.460  11.771
44631W        W16247  38.797  29.923  12.088
44632W        W16248  14.142  44.236  10.622
44633W        W16249  43.512  29.392  14.549
44634W        W16250  19.756   2.742   4.211
44635W        W16251  19.491  21.078   3.260
44636W        W16252   9.130  22.258   1.845
44637W        W16253  12.680  27.810  14.975
44638W        W16254  19.804  20.813  12.932
44639W        W16255  15.292  38.397   4.214
44640W        W16256  20.160   6.450   3.733
44641W        W16257  35.962  26.594   4.953
44642W        W16258  42.897   2.498  13.926
44643W        W16259  25.776  32.030   5.046
44644W        W16260  25.728  41.417  11.574
44645W        W16261   7.842  40.342  12.320
44646W        W16262  36.625  31.361  13.089
44647W        W16263  20.279  37.111   1.814
44648W        W16264  22.223  25.988   4.137
44649W        W16265  28.505  33.333   3.375
44650W        W16266   1.856  12.153  11.099
44651W        W16267  19.232   2.860  10.638
44652W        W16268   3.943  42.314  14.727
44653W        W16269   9.183  43.509  12.415
44654W        W16270  24.174   7.297   1.950
44655W        W16271  16.982   8.316   1.965
44656W        W16272   9.786  31.508  13.677
44657W        W16273  43.693  25.519  13.554
44658W        W16274   6.132  26.561   0.644
44659W        W16275  26.076  36.291  13.432
44660W        W16276  29.045  36.638  11.678
44661W        W16277  13.225  19.030   2.160
44662W        W16278  19.052  32.008  10.330
44663W        W16279  23.782   5.392   1.408
44664W        W16280  20.539  37.945   0.449
44665W        W16281  37.880  36.518   2.313
44666W        W16282  26.571  42.304   1.944
44667W        W16283  38.563  30.761   1.837
44668W        W16284  27.637  42.261  11.469
44669W        W16285  36.557  32.056  12.604
44670W        W16286   4.756  42.409   3.281
44671W        W16287  19.162  39.614   4.381
44672W        W16288  16.423  28.259   0.269
44673W        W16289   2.542  28.428   2.928
44674W        W16290  15.301   1.021   2.339
44675W        W16291  40.003  44.350   0.733
44676W        W16292  26.093  11.309   4.637
44677W        W16293  26.450  25.433  14.050
44678W        W16294   4.653   2.239   0.425
44679W        W16295  12.385  16.671   2.105
44680W        W16296   1.427  42.533   1.374
44681W        W16297  35.440   7.194   4.579
44682W        W16298  42.251  39.041   1.194
44683W        W16299   6.508  44.579  10.270
44684W        W16300   2.115  19.448   0.220
44685W        W16301  38.512  11.287   0.839
44686W        W16302   2.459  34.859  12.275
44687W        W16303  41.017   4.320  13.893
44688W        W16304  36.823  14.826  11.654
44689W        W16305  16.388  34.100   4.181
44690W        W16306  32.551  24.739   0.765
44691W        W16307   8.843   3.313   0.314
44692W        W16308  16.615  25.068  12.912
44693W        W16309  32.025  25.821  14.436
44694W        W16310  44.502  38.559   3.277
44695W        W16311  30.926   1.355   0.274
44696W        W16312   4.278  33.515   2.317
44697W        W16313  36.125  33.851  11.609
44698W        W16314  14.594  35.883  11.142
44699W        W16315  21.033   9.522   3.922
44700W        W16316  17.689  27.956  11.133
44701W        W16317  33.889   9.285  14.451
44702W        W16318   1.000  31.575  12.146
44703W        W16319  40.459  23.349  12.955
44704W        W16320  21.170  26.057   3.362
44705W        W16321  14.253   4.949   1.935
44706W        W16322  32.376  10.685  14.430
44707W        W16323  21.903   1.485   1.376
44708W        W16324  43.925   4.595  13.291
44709W        W16325  30.536  32.704   0.852
44710W        W16326  27.238  13.188  13.355
44711W        W16327   7.886  14.002  11.197
44712W        W16328  43.984  21.743  10.997
44713W        W16329   4.310  38.517   1.724
44714W        W16330  36.033   9.551   1.213
44715W        W16331  28.514   1.848   2.405
44716W        W16332  28.608  11.634   2.216
44717W        W16333  29.185  26.503   1.787
44718W        W16334   6.591  38.842  12.935
44719W        W16335   5.822  39.815  14.475
44720W        W16336  21.424   4.015  13.766
44721W        W16337  42.615  43.676   2.722
44722W        W16338  26.032  26.983  11.663
44723W        W16339  42.380  28.976  11.978
44724W        W16340  22.431  20.614  13.024
44725W        W16341  26.492  36.736   3.594
44726W        W16342  28.017  33.534   3.379
44727W        W16343  27.365  15.721   2.351
44728W        W16344  17.321  29.893   4.114
44729W        W16345  21.480   5.108   1.932
44730W        W16346  24.712  30.971  13.982
44731W        W16347  32.764  30.080   5.025
44732W        W16348  19.731   9.662   0.999
44733W        W16349  44.424  38.397  12.321
44734W        W16350  30.684  33.952   0.188
44735W        W16351  16.741   6.824   4.567
44736W        W16352  14.388   6.886  13.122
44737W        W16353  37.332   0.409   0.695
44738W        W16354  42.319  12.686   1.294
44739W        W16355  21.574  18.375   2.607
44740W        W16356  10.798   9.697   3.725
44741W        W16357   1.633   7.381  13.056
44742W        W16358   5.819  30.789  14.966
44743W        W16359   3.473  32.368   0.861
44744W        W16360  29.034  29.483   4.639
44745W        W16361  10.392  15.218   0.047
44746W        W16362  15.792  26.212   4.918
44747W        W16363  41.137   3.976  14.456
44748W        W16364  11.214   5.995   4.384
44749W        W16365  31.617  29.422   4.192
44750W        W16366   0.066  20.160  13.838
44751W        W16367  23.834  28.557  10.621
44752W        W16368  12.209  32.566   1.789
44753W        W16369  11.751  24.693  12.426
44754W        W16370  11.173  17.183  13.744
44755W        W16371  34.074  32.890  14.803
44756W        W16372  38.342  40.222  11.999
44757W        W16373  28.960  24.686   3.886
44758W        W16374  38.955  44.966  14.723
44759W        W16375  27.487   7.218  14.806
44760W        W16376  26.020  36.104   3.361
44761W        W16377  30.343  15.572   1.738
44762W        W16378  30.069  14.292  14.832
44763W        W16379  40.792   1.267  14.414
44764W        W16380  32.075  16.884   3.742
44765W        W16381  39.487   1.737   3.525
44766W        W16382  19.255   9.212  11.172
44767W        W16383  17.110  40.492   2.392
44768W        W16384   3.027  44.387   1.889
44769W        W16385  36.902   4.282   4.342
44770W        W16386  16.277  30.152  11.539
44771W        W16387  28.477  15.630  14.311
44772W        W16388   4.359  42.878  12.009
44773W        W16389  14.823  24.968  14.395
44774W        W16390  32.424   1.407  14.841
44775W        W16391  40.256  16.207   0.815
44776W        W16392  33.963   8.344  14.565
44777W        W16393  23.741  17.138   0.578
44778W        W16394  33.596  19.740   3.316
44779W        W16395   6.353  18.038   3.678
44780W        W16396  28.891  25.425  13.256
44781W        W16397  26.985  32.383   2.367
44782W        W16398  13.292  20.401  11.395
44783W        W16399  25.977  18.328  14.308
44784W        W16400  42.789  17.357  13.360
44785W        W16401  33.299  34.839   5.048
44786W        W16402  16.690  15.196   2.051
44787W        W16403  26.481  21.735   0.840
44788W        W16404  20.741  22.140  13.409
44789W        W16405  16.232   5.566  10.997
44790W        W16406   0.394  18.632  11.658
44791W        W16407  18.866  29.660  13.927
44792W        W16408   5.336  14.169   3.790
44793W        W16409  10.501  37.478   5.019
44794W        W16410   5.230  13.573   4.455
44795W        W16411  40.841  39.332   2.411
44796W        W16412  27.773  19.474   5.146
44797W        W16413  24.227  10.600   2.160
44798W        W16414  14.825  22.530   4.071
44799W        W16415  22.609  19.309   2.849
44800W        W16416  31.927  30.622   0.502
44801W        W16417  34.616  25.172   1.474
44802W        W16418  28.898  24.417  13.336
44803W        W16419   1.129  31.675   1.745
44804W        W16420  40.417  34.422  14.390
44805W        W16421  25.574  27.045  11.887
44806W        W16422   6.416  13.726  14.056
44807W        W16423   0.546   1.527   3.750
44808W        W16424  43.499  44.261  13.079
44809W        W16425  24.989   4.706   2.929
44810W        W16426  22.626  39.583   3.242
44811W        W16427  23.326  36.552   2.216
44812W        W16428   1.680  10.627   3.656
44813W        W16429  29.970   5.225  13.587
44814W        W16430  29.116  34.869  13.888
44815W        W16431   4.450  17.230  11.365
44816W        W16432   3.835  32.614   2.231
44817W        W16433   8.435  17.384  13.702
44818W        W16434  35.034  31.406  12.422
44819W        W16435  30.598   8.232   0.795
44820W        W16436  30.604  44.489  14.346
44821W        W16437  24.690  43.345   4.698
44822W        W16438  21.281   1.406  14.815
44823W        W16439  32.326   7.210   1.444
44824W        W16440  19.034  24.780   4.528
44825W        W16441  35.651  16.781  12.962
44826W        W16442  20.479   3.223   0.269
44827W        W16443  23.051  34.849  10.672
44828W        W16444  16.546  15.179   1.207
44829W        W16445  13.820  34.982  13.600
44830W        W16446  34.256  42.157  11.635
44831W        W16447  41.899  23.618   0.060
44832W        W16448  16.719  30.190   2.092
44833W        W16449  32.135   9.718   4.729
44834W        W16450  34.447  43.509   3.308
44835W        W16451  32.729  36.103   0.255
44836W        W16452  38.458  43.788   2.690
44837W        W16453   2.757  11.330   1.462
44838W        W16454  16.758  27.138   2.381
44839W        W16455   5.407  14.139  14.479
44840W        W16456  29.469   7.643   4.120
44841W        W16457  30.347  27.129  12.114
44842W        W16458  25.533  26.644  14.860
44843W        W16459  27.348  24.484  14.551
44844W        W16460  28.414  15.342  13.510
44845W        W16461  31.570   5.821   4.390
44846W        W16462   1.826  15.103   0.756
44847W        W16463  12.748  29.537  13.068
44848W        W16464  29.222  28.300   5.443
44849W        W16465   3.083   5.185   1.759
44850W        W16466  28.991  35.955   4.559
44851W        W16467   0.418  34.044   0.272
44852W        W16468  15.266  20.166  14.390
44853W        W16469  30.151  37.498  13.169
44854W        W16470  17.453  41.285   4.629
44855W        W16471  32.637  41.977   1.298
44856W        W16472  24.537  37.347   1.704
44857W        W16473  12.504  20.527  12.533
44858W        W16474  34.483  24.184  13.574
44859W        W16475  14.261  10.658  14.346
44860W        W16476  39.004   7.958   3.786
44861W        W16477  20.512  28.002  10.880
44862W        W16478  27.465  31.146  14.446
44863W        W16479  28.588   1.272   2.715
44864W        W16480  32.396   1.010  13.514
44865W        W16481  24.310  44.475   3.665
44866W        W16482   9.737   4.643  13.840
44867W        W16483  19.116  37.313   2.223
44868W        W16484  19.686  18.073   2.756
44869W        W16485  24.683  41.538   0.309
44870W        W16486  34.470  25.665  14.975
44871W        W16487  24.711   1.193  13.810
44872W        W16488  39.345  27.168   4.582
44873W        W16489  18.637   9.825   0.407
44874W        W16490  38.537  43.959  11.542
44875W        W16491  10.905  19.567   1.887
44876W        W16492   3.393  25.033   3.076
44877W        W16493  10.228  37.340  13.640
44878W        W16494  27.981  31.903   4.089
44879W        W16495  10.321  15.146  12.053
44880W        W16496  29.085  10.876   2.341
44881W        W16497   5.019  34.929   2.755
44882W        W16498  19.770  10.821   4.134
44883W        W16499  20.688   2.925   0.650
44884W        W16500  17.547  32.969  10.305
44885W        W16501  42.628  23.443  11.093
44886W        W16502  27.456  30.516  10.993
44887W        W16503  26.015  39.910  13.395
44888W        W16504  16.767  28.870   3.251
44889W        W16505  16.840  39.115  12.848
44890W        W16506  38.427   7.285   2.353
44891W        W16507  38.588   4.684   0.906
44892W        W16508  21.531  21.559  14.549
44893W        W16509   4.864  36.436   4.518
44894W        W16510  10.883  22.283   2.990
44895W        W16511  25.863   3.808  13.481
44896W        W16512  15.109  44.985   2.303
44897W        W16513  25.379  41.014  14.418
44898W        W16514  18.155   3.009   4.790
44899W        W16515  38.372  24.478   2.025
44900W        W16516  13.916  20.141   4.294
44901W        W16517   0.954  30.332  13.027
44902W        W16518   4.772  35.461   3.873
44903W        W16519  21.068  18.994  12.074
44904W        W16520  27.583   6.630  11.543
44905W        W16521   1.178   6.809   3.736
44906W        W16522  12.320   7.966   4.528
44907W        W16523  17.825  30.635   3.409
44908W        W16524  36.604  10.284   2.636
44909W        W16525  16.359  37.319   2.622
44910W        W16526  36.582  30.508   4.034
44911W        W16527  14.509  33.081  14.339
44912W        W16528   6.942  16.146  14.508
44913W        W16529  15.813  42.800   0.334
44914W        W16530  12.292  20.718   4.294
44915W        W16531  32.300  26.669  10.029
44916W        W16532  38.785  33.577   2.774
44917W        W16533  11.254  23.327  14.872
44918W        W16534  13.174  30.418  13.741
44919W        W16535  43.205  14.803   3.162
44920W        W16536   9.263  25.569   0.680
44921W        W16537  15.100  11.166  14.615
44922W        W16538  36.859  33.179  12.009
44923W        W16539  22.506  28.180   0.298
44924W        W16540  14.222   7.793  14.879
44925W        W16541  35.087  20.577  14.899
44926W        W16542  44.197  16.521  10.285
44927W        W16543   6.526  27.179   0.840
44928W        W16544   6.393   4.629   1.901
44929W        W16545   8.280  21.975  13.364
44930W        W16546  32.228  11.111   2.408
44931W        W16547  24.251   1.298   3.779
44932W        W16548  34.340   7.237   2.330
44933W        W16549  18.106  26.064  13.548
44934W        W16550  11.341  15.564  14.876
44935W        W16551   2.671  27.093   4.427
44936W        W16552   9.283  35.986   3.629
44937W        W16553  43.763  18.562  12.097
44938W        W16554  23.526  39.234  14.791
44939W        W16555  40.388  27.653   0.883
44940W        W16556  37.106  26.017  10.751
44941W        W16557  26.528   7.544   1.400
44942W        W16558   1.943  11.584  11.146
44943W        W16559  25.147  11.133   0.205
44944W        W16560   8.648   4.171  14.930
44945W        W16561  44.294   4.909  13.443
44946W        W16562  32.618  14.342  12.902
44947W        W16563  25.045  40.484   4.573
44948W        W16564  43.169  28.992   2.693
44949W        W16565  37.463  33.677   4.247
44950W        W16566  39.491  28.985   1.394
44951W        W16567  21.712  31.753   0.752
44952W        W16568  36.317   7.365  13.486
44953W        W16569   0.356   2.143   4.610
44954W        W16570   4.938  10.856  12.986
44955W        W16571  24.658  34.377   4.680
44956W        W16572   7.515  32.102   1.772
44957W        W16573  17.266  24.585  14.000
44958W        W16574  42.426  37.648   9.789
44959W        W16575  26.495  33.959  13.985
44960W        W16576  29.148  35.099  14.763
44961W        W16577  18.048  30.059   0.075
44962W        W16578  12.513   5.113   0.315
44963W        W16579  20.466  44.234   9.976
44964W        W16580  20.156  11.987  14.796
44965W        W16581   6.482  34.026  10.747
44966W        W16582  42.515  15.818   2.791
44967W        W16583  11.380  23.229   4.098
44968W        W16584  24.577  37.556   2.908
44969W        W16585   0.674  21.719   0.878
44970W        W16586  38.652  37.472  12.500
44971W        W16587  10.593  35.096  13.489
44972W        W16588  22.116  28.376   1.299
44973W        W16589  21.546  28.048  10.777
44974W        W16590   1.538  40.636  12.525
44975W        W16591  10.740  42.530   2.297
44976W        W16592  35.306   4.564  12.516
44977W        W16593  10.156  37.412  11.895
44978W        W16594   9.660  14.284   3.202
44979W        W16595  17.798   5.577   4.138
44980W        W16596  15.436  17.273   1.688
44981W        W16597  35.780  14.259   0.287
44982W        W16598  34.116  35.411  11.125
44983W        W16599  16.748  19.256   2.897
44984W        W16600  19.686  35.382  12.957
44985W        W16601  15.824   6.021   1.648
44986W        W16602   2.980  17.471  13.330
44987W        W16603   8.442  29.124   1.231
44988W        W16604  44.869  32.139   4.177
44989W        W16605  42.873  38.787  11.013
44990W        W16606  30.610  21.001  14.734
44991W        W16607  44.551  12.136   1.483
44992W        W16608   2.078  28.597   0.917
44993W        W16609  22.734   4.083  12.900
44994W        W16610  17.701  18.101   1.050
44995W        W16611  39.852  39.378  10.640
44996W        W16612  22.748  39.563  14.929
44997W        W16613  26.630   4.265   4.377
44998W        W16614  41.084   1.248   3.769
44999W        W16615  27.773  35.132   4.478
45000W        W16616  34.682  30.554   0.508
45001W        W16617  39.526  37.790   2.266
45002W        W16618  43.856   1.270  14.686
45003W        W16619  20.076  32.907   2.913
45004W        W16620  30.807   1.759   3.116
45005W        W16621   7.195  12.551   4.508
45006W        W16622  33.039  36.809  13.489
45007W        W16623   7.976   5.441   0.874
45008W        W16624   9.176  12.688   2.868
45009W        W16625  44.215  30.937  13.166
45010W        W16626  31.959  41.685   0.882
45011W        W16627  17.560  16.138   2.296
45012W        W16628  41.038  44.894   1.164
45013W        W16629   0.773  42.784  10.636
45014W        W16630   2.551  30.403  14.588
45015W        W16631  11.765   1.123   2.638
45016W        W16632   1.418   6.135   0.360
45017W        W16633   6.809  30.790   2.233
45018W        W16634  19.351  35.891   0.106
45019W        W16635  33.583  16.219  12.998
45020W        W16636  27.089   0.834   3.204
45021W        W16637  24.483  10.822  14.051
45022W        W16638   1.068  22.018   0.309
45023W        W16639   6.840   0.635   3.362
45024W        W16640  25.715  29.454  10.472
45025W        W16641  18.517  15.210   2.488
45026W        W16642  11.304  14.312   3.552
45027W        W16643  11.960  32.418   4.606
45028W        W16644  42.090  36.639  13.768
45029W        W16645  27.985  30.020  11.527
45030W        W16646  44.257  26.774   0.865
45031W        W16647  12.851  19.013   4.498
45032W        W16648   6.927  22.023  13.346
45033W        W16649  39.797  16.334  13.488
45034W        W16650  42.226  34.419  11.052
45035W        W16651  22.239  36.411   0.032
45036W        W16652  24.249   4.277  11.237
45037W        W16653  15.252  15.061   4.208
45038W        W16654  43.088  23.416  10.321
45039W        W16655  30.174   8.149  10.704
45040W        W16656  15.791  29.988   4.186
45041W        W16657  44.216  19.282  11.182
45042W        W16658  36.952  41.822  11.674
45043W        W16659  27.147   5.463   3.867
45044W        W16660  43.626  15.634  11.018
45045W        W16661  11.227  41.137   2.903
45046W        W16662  23.198  34.626  13.548
45047W        W16663  36.861  15.015  12.452
45048W        W16664  15.649  23.222   0.710
45049W        W16665   0.426  44.164  12.991
45050W        W16666   9.650   4.748  14.346
45051W        W16667  26.977  11.879   4.552
45052W        W16668  27.442  33.746  10.573
45053W        W16669   5.202  36.454  13.001
45054W        W16670  28.546   1.444   4.023
45055W        W16671   4.125  44.286  12.887
45056W        W16672   8.241  22.222   0.238
45057W        W16673  28.198   2.461   4.419
45058W        W16674  39.319  30.633  14.092
45059W        W16675   5.362  40.730  11.199
45060W        W16676  25.627  13.034   4.616
45061W        W16677   4.754  13.995   3.321
45062W        W16678   4.373   9.543  10.387
45063W        W16679  30.550  23.942  12.397
45064W        W16680   3.175  40.808   0.242
45065W        W16681  31.599  29.688  11.956
45066W        W16682  33.440  37.927  14.387
45067W        W16683  28.584  31.203  13.735
45068W        W16684  30.962   6.398  10.539
45069W        W16685  15.848   5.931  13.734
45070W        W16686  30.668  12.630  11.026
45071W        W16687  43.302  13.456   2.579
45072W        W16688  13.157   3.928  12.508
45073W        W16689  24.449  43.037  14.335
45074W        W16690   9.330  39.328  11.949
45075W        W16691  37.261   3.732   3.084
45076W        W16692  34.146  36.791   3.830
45077W        W16693  38.846  27.377   0.943
45078W        W16694  44.431  22.169   1.364
45079W        W16695  30.244  44.410   0.798
45080W        W16696  17.785  27.454  10.390
45081W        W16697  23.849  29.424   1.670
45082W        W16698  26.180   9.379  14.355
45083W        W16699   0.379  27.960   2.187
45084W        W16700  13.255  27.645  13.604
45085W        W16701  25.853  40.268   1.225
45086W        W16702  12.749  24.015   3.285
45087W        W16703  22.983  30.454   0.429
45088W        W16704  18.521  28.916   2.709
45089W        W16705  30.160  34.941   2.322
45090W        W16706  13.664  24.529  12.161
45091W        W16707  37.496  16.243  12.835
45092W        W16708  12.940  36.051   2.439
45093W        W16709  17.697  26.005   2.825
45094W        W16710  17.658  14.614  14.922
45095W        W16711  30.318  22.254   4.608
45096W        W16712  34.390  22.691   0.672
45097W        W16713  22.769  22.610   3.763
45098W        W16714  42.797  20.496  12.177
45099W        W16715  44.865  22.389  12.979
45100W        W16716  14.742  11.833   3.355
45101W        W16717  41.784  30.869   3.715
45102W        W16718  14.831  25.609  13.380
45103W        W16719  24.463  27.442   4.532
45104W        W16720   7.365  22.309   4.234
45105W        W16721  24.881  38.527  14.931
45106W        W16722  25.004  43.081   5.025
45107W        W16723  38.853  37.026   2.147
45108W        W16724  11.290  17.821  14.865
45109W        W16725  17.624  28.013  11.633
45110W        W16726  36.757   5.836  13.444
45111W        W16727   3.143  22.802  12.562
45112W        W16728   1.807   4.854   0.408
45113W        W16729  19.738  32.720   1.037
45114W        W16730  18.576  41.780   2.180
45115W        W16731  36.500  21.536  10.577
45116W        W16732  24.572  23.629   3.570
45117W        W16733  24.604  40.257   1.745
45118W        W16734  27.458  13.421  11.640
45119W        W16735  20.218  36.511  12.562
45120W        W16736  23.338   1.762  13.876
45121W        W16737  28.117  35.163  13.812
45122W        W16738  20.947  23.565  10.928
45123W        W16739  15.336  37.582  12.800
45124W        W16740  17.141  25.627   0.751
45125W        W16741  43.502  17.529   1.273
45126W        W16742   1.273  41.421   2.867
45127W        W16743  13.742  19.883  12.166
45128W        W16744  16.667   3.790  14.462
45129W        W16745  42.803   1.338  11.981
45130W        W16746  16.046  42.352   1.275
45131W        W16747  33.446   2.521   3.184
45132W        W16748  25.437  33.135   3.709
45133W        W16749  25.707  33.375   1.018
45134W        W16750  23.765  30.150   0.361
45135W        W16751  33.206  10.108   1.333
45136W        W16752   9.191  21.063  11.643
45137W        W16753  22.240  11.347  11.047
45138W        W16754  28.552  43.587   0.265
45139W        W16755   3.832  21.698  13.791
45140W        W16756  37.270   8.331   1.216
45141W        W16757  15.309   0.273   0.797
45142W        W16758   8.924  15.673   0.639
45143W        W16759  19.710  18.394  14.350
45144W        W16760   3.914  15.339  13.823
45145W        W16761   7.902  41.078  13.035
45146W        W16762  35.432   2.008   3.255
45147W        W16763   2.141   0.851   4.850
45148W        W16764   6.690  15.085  11.358
45149W        W16765  22.376   7.389  14.737
45150W        W16766  25.365   3.481   3.210
45151W        W16767  31.346  32.053  13.574
45152W        W16768  39.842   7.755   4.364
45153W        W16769  41.304   5.171  13.327
45154W        W16770  23.532  26.127   3.448
45155W        W16771  27.146  42.936   1.704
45156W        W16772  36.558   5.353  12.613
45157W        W16773  15.737  36.107   3.880
45158W        W16774  43.037  20.202  12.631
45159W        W16775   0.508   8.112  12.553
45160W        W16776  24.994  30.235  12.990
45161W        W16777  15.222  40.457  14.765
45162W        W16778  28.284  37.496   9.808
45163W        W16779   7.016   4.271   3.604
45164W        W16780  40.692   5.147  13.962
45165W        W16781  39.916  30.019  13.051
45166W        W16782  39.141  17.557  14.225
45167W        W16783   5.090  34.110  10.200
45168W        W16784  17.551  29.338   3.658
45169W        W16785   3.762   3.278  11.987
45170W        W16786  27.944  31.900  13.061
45171W        W16787  34.990  36.567  12.443
45172W        W16788   4.919  44.288  11.015
45173W        W16789   2.080  14.293   3.049
45174W        W16790  22.134  37.375   0.021
45175W        W16791  15.245   4.489   1.425
45176W        W16792  42.276   5.597   3.082
45177W        W16793  39.300  25.599  11.144
45178W        W16794  43.371  42.899   3.844
45179W        W16795  23.119   8.888  11.053
45180W        W16796  36.449  36.068   3.674
45181W        W16797  28.702  39.822   1.786
45182W        W16798  36.853  16.516  12.454
45183W        W16799  10.243  44.509   5.309
45184W        W16800   9.777  18.803   3.138
45185W        W16801  24.450  31.422  13.950
45186W        W16802  15.705  40.852   3.903
45187W        W16803   5.830  13.100   0.053
45188W        W16804   1.921  30.024  11.108
45189W        W16805  16.031  27.502   2.614
45190W        W16806  29.442  33.645  12.807
45191W        W16807  44.756   5.134  13.469
45192W        W16808  28.404  28.620  12.463
45193W        W16809  30.034  19.093  14.757
45194W        W16810  25.311  27.576   4.630
45195W        W16811  37.890  44.283  11.661
45196W        W16812  16.736  10.110   2.798
45197W        W16813  28.689  34.249   4.168
45198W        W16814   1.181   9.738  12.905
45199W        W16815   9.896  19.685   3.752
45200W        W16816  26.150  39.280  11.605
45201W        W16817  40.691  12.240   5.039
45202W        W16818  42.910  30.013   2.611
45203W        W16819  13.717  36.751   4.644
45204W        W16820  40.657  15.054  11.112
45205W        W16821  27.545  27.539   3.879
45206W        W16822  17.160  19.589  10.343
45207W        W16823  40.485   1.174   1.083
45208W        W16824   4.688  32.663  12.507
45209W        W16825   5.985   9.639  13.077
45210W        W16826   8.080  20.261   1.861
45211W        W16827   2.654   6.720   3.764
45212W        W16828  43.416   8.742   2.917
45213W        W16829  26.007  43.737   2.861
45214W        W16830  28.177   5.252   3.201
45215W        W16831  34.595  42.744   0.445
45216W        W16832  18.222   8.336  13.855
45217W        W16833   9.790  23.768   2.404
45218W        W16834   4.828   6.825   4.488
45219W        W16835  16.225  31.984   4.591
45220W        W16836  30.643   7.581  14.225
45221W        W16837  10.459  26.700  11.023
45222W        W16838  22.613   9.669  12.939
45223W        W16839   6.870  40.514  13.947
45224W        W16840  12.251  39.878   4.640
45225W        W16841   9.767  39.360  12.613
45226W        W16842  24.703   9.387   3.949
45227W        W16843  11.543  29.871  13.353
45228W        W16844  33.499   6.716   3.053
45229W        W16845  29.305   3.824   4.135
45230W        W16846  35.826  32.926   2.352
45231W        W16847  22.999  43.752   4.554
45232W        W16848   0.649  41.451   4.275
45233W        W16849  13.265   6.406   2.700
45234W        W16850   3.472  12.048   1.250
45235W        W16851  14.741   7.862  14.972
45236W        W16852  38.217  26.895  13.246
45237W        W16853  28.790   7.222   0.154
45238W        W16854   0.530   2.252  13.894
45239W        W16855  14.577  16.324  11.904
45240W        W16856  15.249  42.477  14.940
45241W        W16857  17.630   1.456  11.109
45242W        W16858   3.809  25.493  11.251
45243W        W16859   0.834  24.812   0.972
45244W        W16860  37.990  37.846  12.014
45245W        W16861  38.099   6.423   3.149
45246W        W16862  42.911  32.421   3.163
45247W        W16863  33.093  39.036   0.855
45248W        W16864   9.264  17.738   2.028
45249W        W16865  18.821  39.826  14.837
45250W        W16866  17.180  28.988  13.556
45251W        W16867  36.888   0.538   2.265
45252W        W16868  32.393  16.694  13.317
45253W        W16869  32.139  42.941  11.800
45254W        W16870  40.557  29.101  12.632
45255W        W16871  14.288   9.857  10.759
45256W        W16872  11.237  26.643   2.422
45257W        W16873   6.953  41.001  14.134
45258W        W16874  44.335   0.974  14.492
45259W        W16875  33.530  39.539   1.656
45260W        W16876  20.302  42.796   1.979
45261W        W16877   6.842  21.041   3.301
45262W        W16878  19.291  31.525   3.336
45263W        W16879  20.859  28.654   0.280
45264W        W16880   3.816  44.270   3.029
45265W        W16881  10.397  13.823  13.845
45266W        W16882  44.758  22.142  13.951
45267W        W16883  28.439  35.303   4.070
45268W        W16884   6.812  23.293   3.312
45269W        W16885  11.199  32.728  11.209
45270W        W16886  13.052  23.506  13.433
45271W        W16887  41.390  17.060  13.127
45272W        W16888  16.979   4.355   1.927
45273W        W16889   8.512  22.069  11.522
45274W        W16890  34.070  44.027   0.470
45275W        W16891  35.079   8.394   2.095
45276W        W16892  29.210   0.332   0.180
45277W        W16893  30.428  22.883   3.534
45278W        W16894  21.834  42.379  14.785
45279W        W16895  41.756  41.503   2.330
45280W        W16896  14.396  43.399  11.659
45281W        W16897  43.202   5.760  10.680
45282W        W16898  25.599  33.186  12.246
45283W        W16899  21.065  24.769  10.731
45284W        W16900  32.631  28.178   5.638
45285W        W16901  38.741  27.735  10.694
45286W        W16902  23.234  40.727   9.881
45287W        W16903  44.329  14.549  10.312
45288W        W16904  28.082   4.136  13.566
45289W        W16905  23.488  25.674   3.733
45290W        W16906  10.785  13.136   4.345
45291W        W16907  27.168  11.437   1.321
45292W        W16908  14.750  11.366   4.680
45293W        W16909  33.952  40.008  13.850
45294W        W16910  24.345  40.216  11.540
45295W        W16911  40.604  36.135  12.421
45296W        W16912  14.059  23.392  14.266
45297W        W16913  44.682  23.134   4.246
45298W        W16914  31.446  44.830   3.671
45299W        W16915  35.046  37.472  10.876
45300W        W16916  28.569  41.966  10.697
45301W        W16917  17.132  40.204   1.600
45302W        W16918  23.489   3.054  12.667
45303W        W16919  19.059   5.771   3.574
45304W        W16920  40.382   0.802  12.731
45305W        W16921  29.592  30.668   0.007
45306W        W16922  38.983  34.482   9.948
45307W        W16923  18.838  37.919   3.505
45308W        W16924  13.683  38.079  11.693
45309W        W16925  43.901  13.818  11.174
45310W        W16926  40.372  33.829  13.014
45311W        W16927  14.843  43.779  12.871
45312W        W16928  35.521   3.127  12.841
45313W        W16929  37.301   7.466   4.562
45314W        W16930   2.902  31.685   0.884
45315W        W16931  21.021  15.774  12.767
45316W        W16932   3.569  17.144   5.063
45317W        W16933   1.722  15.643   1.765
45318W        W16934  12.662  35.237   4.003
45319W        W16935   2.230  41.866  13.907
45320W        W16936  18.134  24.579   1.214
45321W        W16937  13.718  34.006  13.376
45322W        W16938  23.943  13.352  14.499
45323W        W16939  24.603  23.583  12.386
45324W        W16940  25.397  18.555   3.529
45325W        W16941   7.870  39.018   5.072
45326W        W16942  16.875  17.331   3.737
45327W        W16943   7.278  31.071  14.587
45328W        W16944  33.557   8.330  11.917
45329W        W16945  23.453  25.399  13.384
45330W        W16946  10.846   5.480  14.884
45331W        W16947  14.789  16.606  11.042
45332W        W16948   2.542  27.622  10.660
45333W        W16949  33.080  16.098  11.033
45334W        W16950   6.917   5.438   2.729
45335W        W16951  14.823  12.344   0.870
45336W        W16952  33.992  17.118   0.627
45337W        W16953   8.606   7.822  11.161
45338W        W16954  36.084  18.056  11.133
45339W        W16955  31.587  38.563  11.483
45340W        W16956  11.229  44.985   3.873
45341W        W16957  42.881  30.783  12.560
45342W        W16958   7.406   2.662   4.482
45343W        W16959  40.787  15.052  13.565
45344W        W16960  25.229  44.015   4.439
45345W        W16961  23.140   1.564  14.320
45346W        W16962  31.010  23.539   0.849
45347W        W16963  28.139  12.622   1.735
45348W        W16964   8.437  32.434   0.363
45349W        W16965  38.046  23.474   0.616
45350W        W16966  13.722   6.840   3.233
45351W        W16967  25.873  16.786   9.749
45352W        W16968  41.298  16.296   2.743
45353W        W16969  19.573  26.018   0.704
45354W        W16970  24.965  19.256   3.742
45355W        W16971  43.875  41.853  14.719
45356W        W16972  33.511   7.638   4.691
45357W        W16973  32.854   2.170  10.529
45358W        W16974  27.039  12.058  14.229
45359W        W16975   8.270  16.489   0.785
45360W        W16976  19.411  31.701   3.813
45361W        W16977  36.994  30.925  12.745
45362W        W16978  38.998  38.319  13.917
45363W        W16979  11.293   1.024   2.834
45364W        W16980   7.785  32.076  11.006
45365W        W16981  14.787  11.635  10.511
45366W        W16982  12.161   3.393  10.295
45367W        W16983  28.108  34.135  11.117
45368W        W16984  20.290  27.511   4.141
45369W        W16985  26.710   3.716  14.728
45370W        W16986   2.799  38.550  14.250
45371W        W16987  39.038  43.662   4.527
45372W        W16988  25.088  10.922  11.029
45373W        W16989  24.282  15.269   1.899
45374W        W16990  37.091  14.333  13.511
45375W        W16991   1.484  26.459  14.125
45376W        W16992   4.385  17.732   3.131
45377W        W16993  31.587  40.064   4.605
45378W        W16994  25.901  30.120   1.244
45379W        W16995   1.825  39.963   1.352
45380W        W16996  20.399   0.190  12.505
45381W        W16997   2.702  13.854  12.321
45382W        W16998   7.963   2.828  14.882
45383W        W16999  30.545  10.421  13.741
45384W        W17000  30.021  44.501  12.876
45385W        W17001  13.690  16.817  14.939
45386W        W17002   9.182  25.624   1.687
45387W        W17003  28.645  20.300  14.867
45388W        W17004  20.232   3.464   2.404
45389W        W17005  11.674  10.000  14.855
45390W        W17006  36.864  32.110  14.344
45391W        W17007  17.811  18.215  10.779
45392W        W17008  38.060   1.258  14.892
45393W        W17009   6.195  43.056  13.368
45394W        W17010  19.135  33.061  11.678
45395W        W17011  14.395  29.434   4.089
45396W        W17012  31.670   4.387  11.158
45397W        W17013  18.694  25.972   0.396
45398W        W17014  22.018  13.115  14.845
45399W        W17015  33.418  21.191  14.423
45400W        W17016  18.913   0.728   0.573
45401W        W17017  11.039  36.113   2.867
45402W        W17018   2.896  11.218   4.199
45403W        W17019   6.492  44.932  14.771
45404W        W17020  18.080  38.286   2.360
45405W        W17021   4.334  20.065   1.934
45406W        W17022  22.114   5.088  11.502
45407W        W17023  31.975  26.172   4.309
45408W        W17024  21.266  35.149   4.575
45409W        W17025  12.011  41.376  12.992
45410W        W17026   7.237  14.423  11.611
45411W        W17027  32.549  32.422  14.027
45412W        W17028  31.111  32.033   3.965
45413W        W17029  26.184  32.650  14.480
45414W        W17030  18.738  24.047   1.213
45415W        W17031   5.233  38.176   2.953
45416W        W17032  12.504  29.664  12.634
45417W        W17033  27.813  20.524   2.823
45418W        W17034  24.286   7.277   0.389
45419W        W17035  36.123  12.117   4.448
45420W        W17036  15.394  42.651  10.694
45421W        W17037   3.920  35.887  11.163
45422W        W17038  42.987   1.255   3.896
45423W        W17039  29.231  19.320  11.200
45424W        W17040  15.927   6.537   2.831
45425W        W17041  14.111  16.309  12.097
45426W        W17042  14.670  15.291  13.880
45427W        W17043  22.150  23.762  13.867
45428W        W17044   4.238  31.403   0.403
45429W        W17045  37.559  29.883  11.687
45430W        W17046  15.838   9.242  12.270
45431W        W17047  43.393  26.189   5.012
45432W        W17048   0.408  28.154   1.706
45433W        W17049  40.960  35.472  13.884
45434W        W17050  44.155  24.909  11.750
45435W        W17051  15.502   1.834  13.546
45436W        W17052  33.444  29.225  10.645
45437W        W17053  36.998  28.671  14.859
45438W        W17054  31.353  37.041   4.603
45439W        W17055  19.021   6.066  12.419
45440W        W17056   1.439  30.525  13.712
45441W        W17057  12.258  20.040  11.093
45442W        W17058  42.332  43.404   4.086
45443W        W17059  19.999   8.324  11.943
45444W        W17060  39.429   7.650   3.114
45445W        W17061  33.812  33.545  12.519
45446W        W17062  22.012  22.071   0.966
45447W        W17063  44.168  22.454   2.674
45448W        W17064  20.138  20.765  13.345
45449W        W17065  14.628  27.445  14.833
45450W        W17066  30.024  31.901  10.465
45451W        W17067   3.218  24.506  11.982
45452W        W17068  44.803  15.141  10.773
45453W        W17069   3.704  26.618   0.792
45454W        W17070  15.129  19.252   2.383
45455W        W17071   8.199  22.102   4.176
45456W        W17072   2.395  24.196  13.809
45457W        W17073  37.961   5.942   3.229
45458W        W17074   4.144   9.242   1.280
45459W        W17075   8.741  32.473   4.859
45460W        W17076  12.318  37.096  13.109
45461W        W17077  18.133   8.981  11.539
45462W        W17078  14.552  27.050  13.418
45463W        W17079  39.150   3.827   1.741
45464W        W17080  22.097  30.391  13.805
45465W        W17081  26.064  10.379  14.247
45466W        W17082  31.672   0.707   3.213
45467W        W17083  24.053  40.921   1.744
45468W        W17084  36.027   8.645  11.135
45469W        W17085  31.386  14.563  12.119
45470W        W17086  19.173  34.717  13.603
45471W        W17087  18.641  28.912   1.298
45472W        W17088   9.854  18.296   4.243
45473W        W17089  31.076  39.783  10.748
45474W        W17090  41.535  32.965  11.234
45475W        W17091   4.098  22.063  12.640
45476W        W17092  40.614  15.442   3.230
45477W        W17093   2.211  10.929  12.050
45478W        W17094  15.786  35.473   4.593
45479W        W17095  35.272  31.536   4.849
45480W        W17096  14.164  27.573   1.568
45481W        W17097  25.575   7.478   1.299
45482W        W17098  16.327  38.506  11.606
45483W        W17099  17.798  36.457   1.334
45484W        W17100  31.343  26.564   2.529
45485W        W17101  38.811   0.045  12.968
45486W        W17102  41.066   3.733  11.997
45487W        W17103  44.573  31.489  14.489
45488W        W17104  11.781  32.906   0.396
45489W        W17105  15.283  35.364  11.256
45490W        W17106  22.630  24.694   2.911
45491W        W17107  11.245   2.395   2.612
45492W        W17108  40.092  18.090   3.091
45493W        W17109  30.100   7.270  11.657
45494W        W17110  42.014   0.840  12.990
45495W        W17111   0.392  19.082   0.326
45496W        W17112  30.438  23.308  11.589
45497W        W17113  27.733   0.842  13.648
45498W        W17114  27.663   6.379  13.422
45499W        W17115   5.996  27.149  12.780
45500W        W17116  10.127  37.989  13.419
45501W        W17117  39.896   3.383  13.088
45502W        W17118  13.672   2.838   2.423
45503W        W17119  30.442  24.795  11.639
45504W        W17120  31.484   9.414  11.195
45505W        W17121  35.849  11.284  10.673
45506W        W17122  23.968  28.549   1.270
45507W        W17123  39.311  32.820  13.004
45508W        W17124   8.706  37.838   1.306
45509W        W17125  38.439  15.131  12.929
45510W        W17126  31.112  14.067   2.642
45511W        W17127   8.803   4.922  10.844
45512W        W17128   8.360  23.499  12.663
45513W        W17129  26.954   9.747  14.891
45514W        W17130  23.270   5.991   1.138
45515W        W17131  43.356   0.931   2.348
45516W        W17132  41.351  18.687   0.351
45517W        W17133  29.088   7.944   3.953
45518W        W17134   9.676   1.032  11.213
45519W        W17135  26.011  37.909   1.955
45520W        W17136  24.805  13.309   0.183
45521W        W17137  19.534   1.392  13.969
45522W        W17138  19.098   6.548  11.155
45523W        W17139  16.808  42.531  10.621
45524W        W17140  24.161  43.960   2.696
45525W        W17141   3.786  12.700   1.079
45526W        W17142  29.628   9.817   2.848
45527W        W17143  28.523  39.016  13.959
45528W        W17144  27.416  40.064  12.066
45529W        W17145  40.918  39.071   1.473
45530W        W17146  38.420   0.996   2.771
45531W        W17147   0.503  42.342   3.403
45532W        W17148  20.080  13.903  12.532
45533W        W17149  22.190  25.614  11.963
45534W        W17150  32.910   4.471   4.287
45535W        W17151   9.199   2.940   4.893
45536W        W17152  12.960  39.548   1.365
45537W        W17153   6.259  26.760  14.746
45538W        W17154  26.481  39.266  11.124
45539W        W17155  18.587   2.004  13.313
45540W        W17156   3.774  22.457   1.878
45541W        W17157  26.253  21.146  13.310
45542W        W17158  15.915  27.095   2.897
45543W        W17159  40.675  21.372  12.451
45544W        W17160  39.979  20.788  13.460
45545W        W17161  14.652  39.742  14.332
45546W        W17162  20.110  34.942  10.932
45547W        W17163   2.630   6.425   1.929
45548W        W17164  17.083  18.241  13.087
45549W        W17165  42.036  12.712  13.045
45550W        W17166  10.248  40.432  13.750
45551W        W17167   3.464  25.691  14.282
45552W        W17168   7.840   1.399   0.440
45553W        W17169  11.548  29.010  14.241
45554W        W17170  34.219  42.607  13.424
45555W        W17171   8.417  24.790   2.773
45556W        W17172  39.206  16.130   4.289
45557W        W17173  21.694  31.827  11.121
45558W        W17174  18.264  40.068  12.005
45559W        W17175  17.035  36.978   1.361
45560W        W17176  28.946  24.173   3.687
45561W        W17177  19.652   6.035   0.482
45562W        W17178  30.423  43.411   3.890
45563W        W17179  38.489  42.930   4.791
45564W        W17180  13.311  19.560   0.982
45565W        W17181  40.607  24.394   4.473
45566W        W17182   3.893  27.655   1.428
45567W        W17183   3.831   8.983   3.805
45568W        W17184  26.910   6.774   1.336
45569W        W17185   2.339   1.182  11.879
45570W        W17186   5.382  14.784   0.192
45571W        W17187   8.895   5.360  13.983
45572W        W17188   4.832  23.509  11.675
45573W        W17189  27.873   4.935  13.806
45574W        W17190  23.991  31.487  11.016
45575W        W17191  41.595   9.805  10.531
45576W        W17192   1.472  40.789   0.427
45577W        W17193  27.584  28.880  11.990
45578W        W17194  31.263  38.362   1.124
45579W        W17195  24.393  29.211   3.110
45580W        W17196  16.265   5.926   2.409
45581W        W17197  21.146  28.484  11.273
45582W        W17198   9.886  24.373  12.183
45583W        W17199  11.298   9.958  11.434
45584W        W17200   5.969  40.387  11.315
45585W        W17201  30.170  11.388  11.052
45586W        W17202  29.768  41.753   0.284
45587W        W17203  43.747  15.748  10.497
45588W        W17204  32.987  27.477  14.034
45589W        W17205  21.728  10.148   0.740
45590W        W17206  17.382  13.186   2.450
45591W        W17207  35.514   5.875   1.371
45592W        W17208   7.676  18.669  14.021
45593W        W17209  31.175  33.096  11.892
45594W        W17210  10.005   8.974   5.072
45595W        W17211   9.634  25.276   3.774
45596W        W17212   8.355   2.244  13.277
45597W        W17213  34.682   8.441   0.755
45598W        W17214  35.341   7.158  12.127
45599W        W17215  34.021  34.912  13.886
45600W        W17216  16.769  40.522   1.770
45601W        W17217  16.892  37.571   3.142
45602W        W17218   8.537  41.529   9.990
45603W        W17219  28.385  30.864  11.120
45604W        W17220  10.213  29.924   0.205
45605W        W17221  21.075  19.855  11.517
45606W        W17222  41.420  24.433   3.813
45607W        W17223  18.227  21.056  10.735
45608W        W17224  19.207  44.211   3.245
45609W        W17225   0.487  26.252   4.298
45610W        W17226  32.191   3.802  12.060
45611W        W17227   9.479  23.763   0.675
45612W        W17228  32.052  33.356  13.792
45613W        W17229   6.149  13.776   0.465
45614W        W17230  32.854  18.719  14.644
45615W        W17231  28.644  42.778  10.186
45616W        W17232  14.360  31.527   0.742
45617W        W17233   3.546  33.009  13.622
45618W        W17234  27.226  12.723   1.690
45619W        W17235  36.561   3.782  12.469
45620W        W17236  38.275  27.054   1.740
45621W        W17237  28.147  18.338  12.659
45622W        W17238  29.175  35.465   4.574
45623W        W17239  35.299   9.774   3.572
45624W        W17240  43.827  37.081  12.917
45625W        W17241  40.592  42.442  11.126
45626W        W17242  40.153  23.730  11.991
45627W        W17243  27.862  32.882  13.876
45628W        W17244  28.673  13.243   1.739
45629W        W17245  30.181  25.649  13.549
45630W        W17246  14.622  33.606   0.736
45631W        W17247  28.743   6.646  13.895
45632W        W17248   1.861  26.674  14.708
45633W        W17249   9.918   3.249   4.357
45634W        W17250   2.772  18.046  11.527
45635W        W17251  36.894  22.836  12.655
45636W        W17252  39.775  14.547   1.361
45637W        W17253  35.165  41.562   2.288
45638W        W17254   8.243  13.217  13.406
45639W        W17255   9.798  34.646  13.987
45640W        W17256   3.322  31.757   1.475
45641W        W17257  39.842   5.999  10.660
45642W        W17258  30.540  18.053  14.652
45643W        W17259  25.167   2.748  13.104
45644W        W17260  41.470   6.852   0.859
45645W        W17261  36.268  44.771   0.057
45646W        W17262  15.309  17.558  10.406
45647W        W17263  40.052  41.600   0.718
45648W        W17264   4.301  16.774  13.934
45649W        W17265  40.732   2.084  12.052
45650W        W17266   2.544  27.453  11.973
45651W        W17267   5.657  37.964  14.902
45652W        W17268  31.108  29.955   1.323
45653W        W17269   8.970  31.393   1.775
45654W        W17270   1.036  22.967  10.631
45655W        W17271  11.156  38.109  13.068
45656W        W17272   3.190  13.344  14.432
45657W        W17273  35.446  10.610  14.339
45658W        W17274   5.648   9.613  14.882
45659W        W17275  23.099  36.902  11.662
45660W        W17276   7.259   4.084   3.141
45661W        W17277  41.384  24.627   0.765
45662W        W17278  26.924  35.458  13.476
45663W        W17279  31.145  35.017  13.813
45664W        W17280  38.548  30.903  10.730
45665W        W17281   1.359  34.898   2.895
45666W        W17282  36.308  29.799   1.967
45667W        W17283  32.697  16.377  12.466
45668W        W17284  36.105  34.500   0.428
45669W        W17285  21.041  42.032   3.662
45670W        W17286  35.002   0.438  14.798
45671W        W17287  22.726  22.249  13.368
45672W        W17288  31.481   8.163   1.948
45673W        W17289   5.705   3.632   4.608
45674W        W17290  13.385  27.535  11.078
45675W        W17291  41.481  44.303  13.979
45676W        W17292   0.444  32.230  14.715
45677W        W17293  27.710  14.738   4.500
45678W        W17294  29.508  23.712  13.506
45679W        W17295  39.352  12.232   1.726
45680W        W17296   4.439  23.569   5.004
45681W        W17297  25.126   8.457   2.780
45682W        W17298  34.140   0.380  13.017
45683W        W17299   6.273  15.861  12.917
45684W        W17300  14.222  34.131  13.473
45685W        W17301  25.054   6.186   4.113
45686W        W17302  19.358   6.203  14.328
45687W        W17303  12.193  44.891  13.551
45688W        W17304  42.152  28.568  11.278
45689W        W17305  38.567  39.497   0.576
45690W        W17306  21.597  44.358   0.156
45691W        W17307   0.755   7.952  13.408
45692W        W17308  31.054  33.321   4.543
45693W        W17309  35.727  41.541  11.959
45694W        W17310  14.784  24.398  14.336
45695W        W17311  11.395   4.417  11.572
45696W        W17312  38.868  18.839  10.715
45697W        W17313  27.634  26.490  14.320
45698W        W17314  43.213  11.874   0.499
45699W        W17315  12.294  40.071   2.565
45700W        W17316   4.846  20.684   2.819
45701W        W17317  35.228  10.467   1.834
45702W        W17318  11.233  29.711  11.544
45703W        W17319   9.882  26.643  12.101
45704W        W17320  33.365  43.051  13.494
45705W        W17321  33.622  35.739  12.947
45706W        W17322  44.514  25.147   1.614
45707W        W17323  31.423   1.760  14.221
45708W        W17324  19.202  29.850  14.288
45709W        W17325  25.646  14.009   2.912
45710W        W17326  14.938   7.669   3.505
45711W        W17327  17.755  27.160   1.411
45712W        W17328  12.174  24.639   3.736
45713W        W17329  22.310  14.319  12.174
45714W        W17330  28.425  29.968   4.133
45715W        W17331  40.310   7.840   3.612
45716W        W17332   8.142  13.673   2.947
45717W        W17333  28.591  22.335   0.517
45718W        W17334  31.229  31.305  11.073
45719W        W17335  33.986  40.034   2.248
45720W        W17336  16.635   3.903  11.947
45721W        W17337  34.618  26.616   0.135
45722W        W17338  43.063  37.469  13.525
45723W        W17339   0.010  14.386   4.558
45724W        W17340   7.460  40.964   2.233
45725W        W17341  36.777  25.629  11.996
45726W        W17342  36.117  32.465  11.586
45727W        W17343  43.342  18.996   4.506
45728W        W17344  26.704   1.283  12.640
45729W        W17345  21.552   0.245   1.171
45730W        W17346   4.711  21.154  10.666
45731W        W17347   2.945  43.601   4.559
45732W        W17348  41.417  15.214   0.408
45733W        W17349   6.172  33.660   3.636
45734W        W17350  22.641  42.822   1.274
45735W        W17351   4.201  10.868  13.563
45736W        W17352  19.741  43.406  10.606
45737W        W17353  21.247  30.594  13.530
45738W        W17354   4.815  27.332   2.428
45739W        W17355  42.563   2.192   4.129
45740W        W17356  29.047  31.488   4.624
45741W        W17357  29.174  12.899  11.642
45742W        W17358  15.442  15.303  11.596
45743W        W17359  41.143  24.253  11.628
45744W        W17360  42.627  27.079  11.495
45745W        W17361  37.254  16.192  12.371
45746W        W17362  33.734  22.794   4.848
45747W        W17363  14.674  36.913  12.868
45748W        W17364  23.051  31.701   4.368
45749W        W17365  14.107   8.188  13.874
45750W        W17366   4.699  17.956  14.457
45751W        W17367  24.898  42.855   4.580
45752W        W17368  33.651  43.699   0.437
45753W        W17369   9.401   2.343  13.529
45754W        W17370  24.085  18.240  12.788
45755W        W17371   0.626   5.547   4.132
45756W        W17372  26.100  34.342   2.688
45757W        W17373  44.047   2.716  14.763
45758W        W17374  39.934   4.360  12.044
45759W        W17375  21.503  22.255  14.301
45760W        W17376   2.087  24.077  14.447
45761W        W17377  42.962  21.533   3.881
45762W        W17378  11.214  44.973  12.993
45763W        W17379  44.380  18.558  14.341
45764W        W17380  32.329  36.553  11.164
45765W        W17381  29.355  32.495   3.309
45766W        W17382   1.349  21.259   2.795
45767W        W17383  15.768  26.284   1.745
45768W        W17384  26.675  25.030   5.044
45769W        W17385  35.349  15.294   2.292
45770W        W17386  36.847  37.892   3.159
45771W        W17387  15.917  12.507   1.314
45772W        W17388   2.573  28.401   4.182
45773W        W17389  33.993  34.802   2.832
45774W        W17390  29.011  13.543  12.422
45775W        W17391  18.376  44.264  11.600
45776W        W17392  23.556  31.042  14.833
45777W        W17393   0.475  25.556  14.426
45778W        W17394   8.008   0.684  13.010
45779W        W17395  10.751  13.734   1.902
45780W        W17396  40.920  39.742   4.585
45781W        W17397  16.530  12.660   3.248
45782W        W17398  13.858  24.749   0.029
45783W        W17399   3.870  28.035  12.155
45784W        W17400  14.643  19.644   3.305
45785W        W17401  41.266   4.402  11.170
45786W        W17402  37.490  36.136  11.848
45787W        W17403  10.882  41.815  11.033
45788W        W17404   3.859  14.127   1.812
45789W        W17405  17.261  39.270  14.058
45790W        W17406  14.433  32.216   3.786
45791W        W17407   6.477  20.287  10.820
45792W        W17408  25.414  14.814  10.636
45793W        W17409  29.891  31.078  13.947
45794W        W17410  18.080  15.247   0.983
45795W        W17411  29.923  36.089   0.498
45796W        W17412  23.506  18.742   3.253
45797W        W17413   1.944  39.552   4.347
45798W        W17414  34.640   6.742   0.021
45799W        W17415  37.471  28.416  14.839
45800W        W17416  15.696   7.232   2.317
45801W        W17417  40.737  29.200   3.805
45802W        W17418   7.801  16.599   2.682
45803W        W17419   8.413  21.009  10.993
45804W        W17420  10.260  25.160   4.541
45805W        W17421  30.246  13.195  13.089
45806W        W17422  34.912   5.396   0.971
45807W        W17423  30.179  29.903  11.530
45808W        W17424  29.822  24.197   4.203
45809W        W17425   7.382   7.887   0.760
45810W        W17426  36.860   6.986  11.523
45811W        W17427   8.644   5.827  11.399
45812W        W17428  33.543  20.527  10.617
45813W        W17429  34.569  15.115  13.888
45814W        W17430  43.918  18.113  12.855
45815W        W17431   1.886  39.829  10.806
45816W        W17432   9.248   4.699   2.445
45817W        W17433  15.661  43.370  12.165
45818W        W17434  23.665  20.283  13.342
45819W        W17435   0.442  43.206  12.497
45820W        W17436   3.742  40.014  11.485
45821W        W17437  38.089  21.639  13.114
45822W        W17438  18.638   1.335   1.026
45823W        W17439   3.113  30.553   2.414
45824W        W17440  32.907  22.878  10.782
45825W        W17441   1.754  32.773  14.535
45826W        W17442  17.774  42.309   3.269
45827W        W17443  16.282  15.054  12.656
45828W        W17444  42.376  28.022   5.017
45829W        W17445  11.848  38.332  14.944
45830W        W17446  16.022  20.500  14.792
45831W        W17447  37.628  32.140   2.201
45832W        W17448  15.045  30.419   0.281
45833W        W17449  39.079  22.409  14.364
45834W        W17450  32.895   2.219   0.809
45835W        W17451  40.011  32.047   5.086
45836W        W17452  11.232  15.122   1.000
45837W        W17453  37.527   0.821   5.075
45838W        W17454  36.461   5.371   1.296
45839W        W17455  17.630   0.972  13.037
45840W        W17456   2.311  33.062   3.661
45841W        W17457  20.329   0.842  11.996
45842W        W17458  32.826  22.068  14.298
45843W        W17459  40.819  12.959   0.383
45844W        W17460  17.246  43.829  10.382
45845W        W17461  43.724   5.881  12.877
45846W        W17462  23.977  20.259   0.438
45847W        W17463   0.335   8.403   2.663
45848W        W17464  43.267  30.637   0.201
45849W        W17465  29.453  29.501  10.233
45850W        W17466   4.116  38.015  11.651
45851W        W17467  33.005  31.661  10.755
45852W        W17468   5.007  37.329  14.952
45853W        W17469  31.131  36.804  13.473
45854W        W17470  15.707  14.185   4.057
45855W        W17471  24.639  18.185  14.887
45856W        W17472   1.284  28.394   2.336
45857W        W17473  13.923  38.823   1.928
45858W        W17474  36.371  33.069   3.288
45859W        W17475  19.902  23.336   3.144
45860W        W17476  16.675  31.876   2.848
45861W        W17477  37.932  36.545   1.336
45862W        W17478  12.612  39.429  11.414
45863W        W17479  39.339  40.402  14.335
45864W        W17480  38.741  10.795  10.164
45865W        W17481   5.738  15.691  10.669
45866W        W17482  13.105  37.228   0.378
45867W        W17483   3.414  24.619  13.437
45868W        W17484  44.568  23.183  12.883
45869W        W17485  16.835  30.614  13.412
45870W        W17486  41.220  27.095   3.800
45871W        W17487  10.251  25.746   0.879
45872W        W17488  26.211  21.228   1.724
45873W        W17489   2.762  14.832   1.850
45874W        W17490  40.609  30.501  14.691
45875W        W17491  31.710  15.359   1.845
45876W        W17492  18.366   9.307   2.689
45877W        W17493  22.622  40.580  12.605
45878W        W17494  29.720   9.342   3.024
45879W        W17495   6.861  18.604  13.440
45880W        W17496  33.465  30.920   3.044
45881W        W17497  40.025  38.314  11.653
45882W        W17498  44.883  19.021   3.009
45883W        W17499   5.669  16.364   4.063
45884W        W17500  43.811  43.460   1.116
45885W        W17501   8.378  23.848   2.831
45886W        W17502   6.490   2.922   1.413
45887W        W17503  13.935  19.100   3.075
45888W        W17504  32.884  14.986   3.125
45889W        W17505   0.004  32.019  14.376
45890W        W17506  14.155  36.140  11.061
45891W        W17507  36.092  18.878  10.698
45892W        W17508  40.843  40.882   1.825
45893W        W17509  44.756  40.857   3.347
45894W        W17510  43.961  27.938  14.410
45895W        W17511   5.467  24.665   4.288
45896W        W17512  26.451  22.625  13.312
45897W        W17513  29.541  23.220   1.403
45898W        W17514  31.207  18.473  11.618
45899W        W17515  44.822   2.712  13.768
45900W        W17516   8.662  42.571   1.702
45901W        W17517  17.306  13.689   1.507
45902W        W17518  25.759  10.882   3.588
45903W        W17519  20.617  39.358   3.719
45904W        W17520  43.052   6.680   1.335
45905W        W17521  19.353   1.375   2.656
45906W        W17522  29.356  23.999   2.866
45907W        W17523  13.352   1.298   2.869
45908W        W17524  31.437   2.906  13.867
45909W        W17525  12.867   9.146   4.538
45910W        W17526  39.817  30.087   0.044
45911W        W17527  22.525  13.517   4.162
45912W        W17528   3.201  12.832  14.367
45913W        W17529  28.589  10.589   1.456
45914W        W17530  19.256  24.227  11.610
45915W        W17531  13.706  30.293   3.072
45916W        W17532   7.687  21.215  11.633
45917W        W17533  30.914  15.074  11.631
45918W        W17534  22.314  18.301  11.279
45919W        W17535   4.829   4.902  14.406
45920W        W17536   7.800   6.279  13.431
45921W        W17537  33.434  30.184  12.899
45922W        W17538  26.571   3.712  12.956
45923W        W17539  17.037  19.192   1.589
45924W        W17540  17.809   7.771   1.787
45925W        W17541  37.668   2.861   4.041
45926W        W17542  34.577  33.053   4.752
45927W        W17543  15.132   4.514  14.865
45928W        W17544  30.476  14.846   1.327
45929W        W17545  14.095  17.580   0.864
45930W        W17546  27.612  13.518  12.411
45931W        W17547  42.432  22.619   3.680
45932W        W17548   8.405  25.212  10.566
45933W        W17549  37.613   7.979  14.300
45934W        W17550  35.995  16.038   3.351
45935W        W17551   3.196  10.291   1.895
45936W        W17552  19.083  30.963   2.925
45937W        W17553  10.174  38.859  11.982
45938W        W17554  21.177  15.333   5.036
45939W        W17555  12.935  17.193  12.182
45940W        W17556  29.904   6.353   5.038
45941W        W17557  10.291  18.451   4.463
45942W        W17558  17.584  31.932   3.226
45943W        W17559  17.114  23.583   0.104
45944W        W17560  16.690   1.095  11.894
45945W        W17561  38.095   7.884   0.452
45946W        W17562  12.217  31.799  14.071
45947W        W17563  15.878   2.302   1.181
45948W        W17564   7.775  26.004  13.634
45949W        W17565  43.388  14.781  10.518
45950W        W17566  32.977  42.734  12.660
45951W        W17567  29.091  30.504   0.875
45952W        W17568  10.739  20.634  12.891
45953W        W17569  43.467  19.626   3.736
45954W        W17570  26.174  22.686  13.954
45955W        W17571  40.832  24.213   0.433
45956W        W17572  37.364   4.373  10.880
45957W        W17573   1.390  30.492   1.413
45958W        W17574  28.023  27.843  10.637
45959W        W17575  34.281  39.936  12.065
45960W        W17576  14.811  11.391  12.421
45961W        W17577   6.926  25.112  13.178
45962W        W17578   4.631  37.374  14.579
45963W        W17579  19.506  28.969  14.060
45964W        W17580   8.323  33.633   0.188
45965W        W17581  16.540  31.443   1.500
45966W        W17582  10.660  18.497   0.120
45967W        W17583  12.561  42.595  13.463
45968W        W17584  19.808   7.296  14.721
45969W        W17585  41.042  38.853   0.989
45970W        W17586  18.819  17.088  13.152
45971W        W17587  34.837  43.022   3.990
45972W        W17588  35.107  22.503  11.169
45973W        W17589   1.888   6.948   0.079
45974W        W17590  36.357   7.371   0.359
45975W        W17591   0.370  12.883  12.046
45976W        W17592  24.157  19.790   3.922
45977W        W17593   5.691  16.069   3.117
45978W        W17594  31.377  37.456  12.144
45979W        W17595  12.330   9.002   3.714
45980W        W17596   7.314   7.360   2.222
45981W        W17597   2.967  19.777  12.918
45982W        W17598  24.461  24.549   3.651
45983W        W17599  23.016  20.558  13.854
45984W        W17600   5.103   6.014  11.069
45985W        W17601  41.959  11.883  11.272
45986W        W17602   6.838  33.446  11.707
45987W        W17603  33.318  31.764   1.817
45988W        W17604  10.776  20.035  10.763
45989W        W17605  40.791  18.192  12.324
45990W        W17606  16.382  25.506  13.447
45991W        W17607  24.296  36.849   4.779
45992W        W17608  17.284  10.743  14.388
45993W        W17609  40.475   7.259   4.660
45994W        W17610  38.340  32.872  11.063
45995W        W17611  26.476  32.662  12.095
45996W        W17612   0.510  24.742   4.297
45997W        W17613  23.316   6.968  10.570
45998W        W17614  22.090   2.341  14.420
45999W        W17615   2.369   5.878   1.678
46000W        W17616  14.738  25.249  13.753
46001W        W17617  11.921  11.166   1.918
46002W        W17618  32.588  20.498   2.898
46003W        W17619  38.594  37.956   2.778
46004W        W17620  33.646  34.410  10.251
46005W        W17621  30.938  25.963   0.342
46006W        W17622  39.353  40.766   0.300
46007W        W17623  21.546  14.132  11.398
46008W        W17624  29.228  10.704  14.120
46009W        W17625  43.584  40.292  12.646
46010W        W17626   4.779  44.995  10.277
46011W        W17627  28.489  44.945   3.113
46012W        W17628  22.400  10.891   0.301
46013W        W17629  19.634  15.331   3.317
46014W        W17630   8.892  12.833  11.975
46015W        W17631  41.254  23.011   0.909
46016W        W17632  10.526  14.758  13.359
46017W        W17633   9.517   7.132   3.619
46018W        W17634   2.811  44.528  10.219
46019W        W17635   4.711  16.095   2.812
46020W        W17636  42.104  17.338  10.934
46021W        W17637  13.915  23.152   1.759
46022W        W17638  20.071  31.094   1.876
46023W        W17639  33.501  23.797   1.769
46024W        W17640  16.790  17.592   4.174
46025W        W17641  23.724   1.361  14.012
46026W        W17642  15.835  38.142  13.503
46027W        W17643  30.479  32.936  14.047
46028W        W17644  28.577   5.218   3.801
46029W        W17645  11.631   9.277   4.595
46030W        W17646  35.988  12.151   2.416
46031W        W17647  15.538  16.320  13.428
46032W        W17648  36.791  35.285  13.428
46033W        W17649  39.413  38.698   1.167
46034W        W17650   8.668  37.349   4.698
46035W        W17651  15.793  34.031   3.629
46036W        W17652  28.087  34.486  11.673
46037W        W17653  24.947  12.571   0.856
46038W        W17654  21.935  36.552   2.911
46039W        W17655   9.325  34.648   2.247
46040W        W17656  42.512  41.691  12.070
46041W        W17657  42.476  23.923  10.742
46042W        W17658   9.595  18.302  11.597
46043W        W17659  27.072   3.018   2.455
46044W        W17660  39.749  31.593   1.904
46045W        W17661  12.639  15.988  14.972
46046W        W17662   2.267   8.116  11.161
46047W        W17663  13.098  32.684   1.334
46048W        W17664  16.544  14.785   0.218
46049W        W17665  44.752  30.155  11.015
46050W        W17666   0.314   5.415   2.166
46051W        W17667  43.232  36.789   4.264
46052W        W17668   9.321   3.204  10.864
46053W        W17669   9.993  18.655  10.893
46054W        W17670  15.055  28.611   3.458
46055W        W17671  40.544  15.376  12.431
46056W        W17672  27.703  22.511   0.250
46057W        W17673  25.940  31.710   3.709
46058W        W17674  34.995   2.386  14.974
46059W        W17675  37.354  36.986   2.066
46060W        W17676  23.568   8.624  11.093
46061W        W17677   7.153   2.143   2.783
46062W        W17678  32.889   9.349  11.170
46063W        W17679  14.219  33.475  13.114
46064W        W17680  36.443  22.844   4.552
46065W        W17681   6.441  39.901  14.933
46066W        W17682  43.264  23.976   1.834
46067W        W17683  28.857  28.048   5.133
46068W        W17684  12.113   1.852  12.281
46069W        W17685  32.994  29.443   4.575
46070W        W17686  18.819  25.623  13.998
46071W        W17687  24.124  11.329   1.321
46072W        W17688  36.269  41.727   2.466
46073W        W17689  34.925   8.855  11.843
46074W        W17690  18.271  19.141  13.318
46075W        W17691  13.382  22.757   0.621
46076W        W17692  23.742  32.498   0.323
46077W        W17693   0.248  33.583  12.498
46078W        W17694  18.832  30.154  14.019
46079W        W17695  20.536  14.331   4.570
46080W        W17696  31.572  22.567  14.069
46081W        W17697  43.064  42.957   2.399
46082W        W17698  16.057  27.413   4.022
46083W        W17699  44.767  32.165  12.053
46084W        W17700  30.157  36.989   0.260
46085W        W17701   1.872   7.383   1.699
46086W        W17702   7.099  13.269  14.457
46087W        W17703  40.314   5.786  10.621
46088W        W17704   2.395  41.961  11.192
46089W        W17705  26.600  22.506   2.711
46090W        W17706  19.575   0.465   2.201
46091W        W17707   5.983  20.110  10.788
46092W        W17708  33.632   3.967   1.085
46093W        W17709  14.174   4.786  12.983
46094W        W17710  32.651  40.241   0.540
46095W        W17711   9.409  18.600   4.945
46096W        W17712  37.012  19.868  11.840
46097W        W17713  15.286   6.311   5.062
46098W        W17714  23.966  38.456  11.856
46099W        W17715  44.004  43.774   4.627
46100W        W17716   8.650  41.903   2.284
46101W        W17717  25.114   9.618  11.551
46102W        W17718  34.557  34.038   1.471
46103W        W17719   7.871  15.652  12.979
46104W        W17720  17.694  18.359  10.273
46105W        W17721  32.355  21.971   4.164
46106W        W17722  28.985  19.198   3.304
46107W        W17723  37.219  17.296  13.629
46108W        W17724  30.131  17.587  13.591
46109W        W17725  17.409  28.972  14.902
46110W        W17726   2.746   6.178  13.834
46111W        W17727  37.819  21.576   0.345
46112W        W17728  29.239  27.038  11.559
46113W        W17729  31.491  24.515  12.398
46114W        W17730   2.316  37.385   1.533
46115W        W17731  36.388  26.191   3.317
46116W        W17732  12.191  31.475   1.731
46117W        W17733  27.966  19.264   0.830
46118W        W17734  35.356  29.681   4.715
46119W        W17735  17.781  11.462  12.679
46120W        W17736  29.734  14.694   2.325
46121W        W17737  34.061   3.745  11.016
46122W        W17738  12.697   2.048  11.573
46123W        W17739  36.115  17.659  13.432
46124W        W17740  10.371   9.409   3.717
46125W        W17741  15.512  42.376   0.401
46126W        W17742  31.102   7.639   1.684
46127W        W17743   7.809  28.908   1.260
46128W        W17744  25.192  36.815   3.236
46129W        W17745  14.068  20.669  12.417
46130W        W17746  18.600   7.722   0.893
46131W        W17747  44.046   2.746  13.350
46132W        W17748  36.994   5.295  13.485
46133W        W17749  36.105  28.275   1.753
46134W        W17750  12.738  40.004   4.847
46135W        W17751  19.111  20.768   1.240
46136W        W17752  38.460  16.158   3.684
46137W        W17753   8.101  25.979  14.073
46138W        W17754  44.108  12.764  12.473
46139W        W17755   4.220  21.872   3.502
46140W        W17756  26.218  34.474   4.001
46141W        W17757  38.427  32.839   3.577
46142W        W17758   9.645  17.242   2.746
46143W        W17759  29.240  33.571   2.767
46144W        W17760  12.999  12.651  10.276
46145W        W17761  41.992  35.338   0.909
46146W        W17762   3.092   9.521  13.303
46147W        W17763  32.120  31.950  14.819
46148W        W17764   8.985   9.262  13.203
46149W        W17765   4.437  17.091  10.369
46150W        W17766  25.928  26.215  14.756
46151W        W17767  27.020  16.284  13.450
46152W        W17768  15.234  10.092  13.088
46153W        W17769  39.407  24.580  13.994
46154W        W17770  11.049  34.711  14.307
46155W        W17771  39.659  42.247  11.167
46156W        W17772   4.742   5.550   4.249
46157W        W17773   8.733   2.055   4.155
46158W        W17774  43.427  16.111  10.900
46159W        W17775  40.652   9.888  10.629
46160W        W17776   4.428   7.761  14.981
46161W        W17777  30.069  24.007   1.604
46162W        W17778  18.931  35.612   1.276
46163W        W17779  31.082  38.783   1.417
46164W        W17780  36.736  11.288  12.581
46165W        W17781   6.243  26.252  14.054
46166W        W17782  25.601  22.984  12.620
46167W        W17783  32.319   1.472  10.691
46168W        W17784   8.839  13.945  14.690
46169W        W17785  14.730  16.009   1.255
46170W        W17786  42.761   3.987   1.643
46171W        W17787  18.203  17.165   0.315
46172W        W17788  27.548  30.285   2.468
46173W        W17789  42.514  34.708   0.042
46174W        W17790  34.961  14.059  11.066
46175W        W17791  27.630   7.237   4.384
46176W        W17792  19.232  44.720  14.989
46177W        W17793  21.697  19.348  13.548
46178W        W17794  22.439  31.135   2.763
46179W        W17795  32.628  21.289   2.146
46180W        W17796  43.685  34.964   2.201
46181W        W17797  23.518  44.072  13.600
46182W        W17798  24.005   7.400  12.535
46183W        W17799   3.883  28.315   0.776
46184W        W17800  22.131  35.955   4.042
46185W        W17801  12.735  29.586  10.763
46186W        W17802  25.605  31.508   4.023
46187W        W17803  22.039   7.582   4.520
46188W        W17804   0.015  12.554   3.686
46189W        W17805  43.926  24.718  11.132
46190W        W17806  19.455   6.761  14.095
46191W        W17807  22.803  16.541   1.793
46192W        W17808  18.747  36.017  12.425
46193W        W17809   3.873  38.802   0.877
46194W        W17810  26.478  40.584   0.325
46195W        W17811  44.335  35.195   1.260
46196W        W17812  43.504   1.864   3.463
46197W        W17813  17.720   3.812   3.266
46198W        W17814  20.025  12.462   0.917
46199W        W17815  33.534  35.421   0.503
46200W        W17816  14.352  25.597  11.534
46201W        W17817  17.597  26.181   3.310
46202W        W17818   8.596  42.440   0.379
46203W        W17819  12.219  13.006  11.520
46204W        W17820   7.252  26.100   4.683
46205W        W17821   6.623   5.281  14.863
46206W        W17822   4.852   2.653  11.705
46207W        W17823  14.357  20.729  13.783
46208W        W17824  31.383  44.047   1.786
46209W        W17825  26.848  12.263  14.997
46210W        W17826  33.025   1.969  11.074
46211W        W17827  27.084  33.436   3.902
46212W        W17828  24.272  24.752   2.188
46213W        W17829  10.956  35.152   2.761
46214W        W17830   8.363  12.683  11.122
46215W        W17831   8.333  34.668  12.429
46216W        W17832  44.747  21.415   3.275
46217W        W17833  19.262  24.182   1.964
46218W        W17834  33.619  41.367  14.021
46219W        W17835  37.037  32.336   0.041
46220W        W17836  44.402  28.543   2.858
46221W        W17837  35.955  11.180  11.532
46222W        W17838  28.141  34.674   0.057
46223W        W17839  29.184  32.540   0.922
46224W        W17840  30.129   9.700   2.920
46225W        W17841  37.840  20.689  14.448
46226W        W17842  40.675   0.512  12.435
46227W        W17843  33.227  34.164  11.022
46228W        W17844  10.661  26.513  11.493
46229W        W17845  32.006  35.903   3.286
46230W        W17846  34.392  32.247   3.542
46231W        W17847  41.734  37.383   3.264
46232W        W17848   8.192   7.041   4.130
46233W        W17849   0.996  23.254  11.860
46234W        W17850  24.493  42.071  13.438
46235W        W17851  40.102  19.264   2.773
46236W        W17852  18.462  28.471  11.369
46237W        W17853   3.004  17.759   3.796
46238W        W17854  42.299  43.084  10.374
46239W        W17855  19.875  21.908   1.469
46240W        W17856  24.637  31.114   3.184
46241W        W17857  41.113  28.448   1.651
46242W        W17858   6.977  36.835   0.525
46243W        W17859  44.042  40.681  14.663
46244W        W17860  24.404   7.191   4.650
46245W        W17861   2.160  21.005   1.497
46246W        W17862   5.358  38.564   4.062
46247W        W17863  32.630   8.538   3.659
46248W        W17864   8.071   3.902  11.478
46249W        W17865   0.694   9.907  12.798
46250W        W17866   2.881  23.926  10.256
46251W        W17867  38.914   7.662  11.951
46252W        W17868  41.068  39.004  10.567
46253W        W17869  41.102   3.884   2.875
46254W        W17870  39.570  38.915  11.248
46255W        W17871  16.973  36.602   1.707
46256W        W17872  44.284  44.659   3.710
46257W        W17873  32.446  43.898   3.682
46258W        W17874  40.442  16.267   3.362
46259W        W17875  19.710  29.997   3.751
46260W        W17876  41.284  10.487  11.484
46261W        W17877  42.692   6.206   0.948
46262W        W17878  40.372   8.721   3.095
46263W        W17879  16.641   0.842   2.216
46264W        W17880  19.335  22.561  12.244
46265W        W17881  10.792   3.320   5.000
46266W        W17882  30.885  25.670  12.783
46267W        W17883  34.942  12.688   4.126
46268W        W17884  37.132  11.666  13.994
46269W        W17885  33.807  15.161   3.634
46270W        W17886  42.396  22.378   2.344
46271W        W17887   3.879  44.737   2.653
46272W        W17888  16.725  33.051   0.878
46273W        W17889   3.800  24.347  11.951
46274W        W17890  30.688  20.326  11.165
46275W        W17891  42.711  39.739   4.224
46276W        W17892  29.699  24.209  10.720
46277W        W17893  20.940  35.906  11.840
46278W        W17894  11.679  39.820   1.392
46279W        W17895  13.398  12.705  14.298
46280W        W17896  12.480  40.228   4.019
46281W        W17897  17.337  38.352   0.849
46282W        W17898  20.482  19.155  11.143
46283W        W17899   1.002   0.307   2.298
46284W        W17900  32.978  36.266  13.495
46285W        W17901  29.645  32.397  12.525
46286W        W17902  26.506  25.560   2.233
46287W        W17903  25.455  20.102  13.941
46288W        W17904  43.038  34.336   2.264
46289W        W17905   8.595  35.115  12.491
46290W        W17906  40.033   7.932  11.240
46291W        W17907  14.195   9.118   0.260
46292W        W17908  37.962  15.574   2.681
46293W        W17909  15.237   8.011  14.257
46294W        W17910  42.507   9.055  13.340
46295W        W17911  33.201   8.684  12.015
46296W        W17912  14.246  16.620   2.615
46297W        W17913  12.638  12.378  10.946
46298W        W17914  24.702  38.199   4.160
46299W        W17915  15.277  21.137  13.393
46300W        W17916  26.401  11.812   2.784
46301W        W17917  42.266  10.188   1.725
46302W        W17918  37.074  34.994  12.050
46303W        W17919  33.487   4.410   3.714
46304W        W17920  27.711  34.916  10.988
46305W        W17921  26.058  44.204   0.773
46306W        W17922   8.116  16.245  13.778
46307W        W17923  29.998  26.132   2.628
46308W        W17924   6.403   9.167   2.655
46309W        W17925   1.429  41.777   0.263
46310W        W17926  37.901  26.527   1.136
46311W        W17927  26.721  10.018   0.277
46312W        W17928  43.907  33.212  14.045
46313W        W17929  13.168  17.217   2.366
46314W        W17930  41.450  14.385  11.977
46315W        W17931  19.880  25.626   0.815
46316W        W17932  15.127  44.247   2.920
46317W        W17933  20.760  42.451  13.952
46318W        W17934  10.177  24.706   0.919
46319W        W17935  37.240  43.365   1.938
46320W        W17936   9.609  27.765  12.750
46321W        W17937  23.110  31.455   1.037
46322W        W17938  29.719  44.688   3.692
46323W        W17939   0.026  10.418  14.414
46324W        W17940  23.570   5.274   0.424
46325W        W17941  32.488  14.742   3.815
46326W        W17942  21.900  11.591   1.766
46327W        W17943  30.912  17.993   0.352
46328W        W17944  39.350  38.339   0.171
46329W        W17945  26.492   0.218  14.369
46330W        W17946  28.635  36.485   0.874
46331W        W17947   6.393  36.536   0.043
46332W        W17948  20.677   2.773  10.740
46333W        W17949  17.018  10.167  10.295
46334W        W17950  34.860   9.284   2.672
46335W        W17951  39.965  44.209  13.750
46336W        W17952  38.037  19.236   4.193
46337W        W17953  39.523  21.620   2.426
46338W        W17954   9.651  23.143   2.694
46339W        W17955  37.059  33.506   3.067
46340W        W17956  14.594   2.262   0.163
46341W        W17957   1.203  20.405   2.376
46342W        W17958  14.614  21.205  13.921
46343W        W17959  33.741  10.292   3.233
46344W        W17960   3.499   5.307   0.920
46345W        W17961  33.399   3.415  12.009
46346W        W17962  39.620  16.636  14.431
46347W        W17963  17.160  15.902   5.216
46348W        W17964   4.920  19.073  12.456
46349W        W17965   7.352  21.184   3.345
46350W        W17966  40.373  32.949   4.490
46351W        W17967  39.537   6.564   1.888
46352W        W17968  16.613   2.706   2.457
46353W        W17969  15.745  16.183  14.933
46354W        W17970  17.770   6.854   0.459
46355W        W17971  35.497  34.850   2.896
46356W        W17972   5.968   5.970  13.172
46357W        W17973  12.347  37.317  11.731
46358W        W17974  29.457  29.057  13.879
46359W        W17975  36.604   3.710  10.684
46360W        W17976  22.235  24.618  12.409
46361W        W17977  18.799  21.512   2.228
46362W        W17978   6.669  25.187  11.975
46363W        W17979   9.497  26.955  11.178
46364W        W17980  34.344  16.158  11.360
46365W        W17981  23.448   3.933  12.512
46366W        W17982  32.139   8.744  13.325
46367W        W17983  44.812  24.952  14.332
46368W        W17984   3.329  36.775  12.994
46369W        W17985  37.981  19.255   0.733
46370W        W17986  12.255   5.763  10.069
46371W        W17987  26.762   8.225  11.213
46372W        W17988  24.674  24.633  11.547
46373W        W17989  25.442   3.251   5.065
46374W        W17990  19.714  36.035  14.264
46375W        W17991  10.625   7.887  11.337
46376W        W17992  15.351  38.268   0.987
46377W        W17993   5.225  44.727  10.322
46378W        W17994  11.852  34.723  10.730
46379W        W17995   4.651  41.621  11.177
46380W        W17996  41.171  13.896   0.411
46381W        W17997  43.314  23.573  14.366
46382W        W17998  34.618   2.903  11.845
46383W        W17999  16.819   3.916   0.876
46384W        W18000  19.205   0.440   1.810
46385W        W18001   1.758  29.295   3.275
46386W        W18002  28.472  20.115  13.467
46387W        W18003  24.244  13.071  13.566
46388W        W18004   5.988  17.875   3.085
46389W        W18005  28.714  28.199   0.375
46390W        W18006   0.863  13.768   2.044
46391W        W18007   0.951  44.328   3.723
46392W        W18008  29.444   0.018   3.372
46393W        W18009  12.032  16.025  11.129
46394W        W18010  39.440  17.991   3.214
46395W        W18011   5.233  42.694   1.881
46396W        W18012  20.818  11.190  13.429
46397W        W18013  11.105  14.175  14.972
46398W        W18014  15.313  38.972  12.056
46399W        W18015   6.946   9.887  12.992
46400W        W18016   0.389  24.214  14.727
46401W        W18017  44.621  28.980   0.886
46402W        W18018  36.987   8.621   3.217
46403W        W18019  11.719  14.261   4.560
46404W        W18020  33.102  18.303   4.880
46405W        W18021  43.166  34.018  12.926
46406W        W18022  23.749   3.223   0.557
46407W        W18023  24.361  37.127   3.141
46408W        W18024  25.667  36.844   4.642
46409W        W18025   5.832   0.002  13.800
46410W        W18026  11.657   2.390  10.727
46411W        W18027   7.582  29.089   1.837
46412W        W18028  10.259  42.530  11.827
46413W        W18029  12.881  36.490  13.324
46414W        W18030  23.437  43.565   4.259
46415W        W18031  21.733  19.111  11.448
46416W        W18032  29.703   8.617   2.215
46417W        W18033  18.946  19.808  11.575
46418W        W18034  24.277  19.042  12.228
46419W        W18035   2.871  24.947  10.190
46420W        W18036  18.289  10.006  11.373
46421W        W18037   7.273  14.383   4.389
46422W        W18038  28.906   8.748   5.006
46423W        W18039   0.855   8.340   2.515
46424W        W18040  25.901  12.757  13.579
46425W        W18041  26.584  22.297   4.193
46426W        W18042  19.050  12.203  11.927
46427W        W18043  34.662   0.000   0.813
46428W        W18044  12.304   4.764  14.388
46429W        W18045  37.004  18.763   3.156
46430W        W18046   0.931  11.749   2.228
46431W        W18047   7.834   6.306  11.716
46432W        W18048   4.709  42.328  12.524
46433W        W18049   9.120  29.598   4.354
46434W        W18050  17.753  39.470  11.188
46435W        W18051   4.262  35.208  14.682
46436W        W18052  24.528  22.543  10.775
46437W        W18053  30.397  15.293   4.388
46438W        W18054   1.328  15.234  12.490
46439W        W18055  39.053  41.881   4.040
46440W        W18056  20.602  41.232   4.632
46441W        W18057  24.255  25.611   1.208
46442W        W18058  23.299   0.300  14.829
46443W        W18059  32.048  38.816   3.442
46444W        W18060  16.624  29.701  12.422
46445W        W18061  12.014   8.343  11.188
46446W        W18062   1.359   2.457  12.048
46447W        W18063  20.211  39.219   4.055
46448W        W18064  41.444   2.995  12.466
46449W        W18065   7.732   9.896   2.449
46450W        W18066  18.036  40.268  11.596
46451W        W18067  12.767  12.419   3.691
46452W        W18068  15.039  23.081  11.599
46453W        W18069  43.606   0.155   1.107
46454W        W18070   0.677  43.432  12.968
46455W        W18071  26.170  44.346   1.250
46456W        W18072  32.947  14.600   0.482
46457W        W18073   5.692  25.510   0.476
46458W        W18074  33.477   0.301  13.780
46459W        W18075  16.571  28.122  12.036
46460W        W18076  18.802  33.366   4.721
46461W        W18077  34.675   3.815   4.139
46462W        W18078  30.123  21.881  13.352
46463W        W18079  36.733  18.966   0.371
46464W        W18080  27.181  15.189   1.696
46465W        W18081  30.424  27.958   4.898
46466W        W18082  43.557  33.543  13.895
46467W        W18083  30.947  34.772  12.563
46468W        W18084  43.474  36.612  13.059
46469W        W18085  32.843  37.482   1.334
46470W        W18086  34.926  41.314   1.863
46471W        W18087  22.736  13.260  14.966
46472W        W18088  33.508  21.724  12.485
46473W        W18089  23.583   5.392   4.712
46474W        W18090  41.808  12.069   3.148
46475W        W18091  23.411  13.798   1.201
46476W        W18092   8.379  27.261  11.549
46477W        W18093  24.052  36.476  12.113
46478W        W18094   5.280  23.770   1.967
46479W        W18095  38.192  24.063  10.238
46480W        W18096  15.102  24.889   1.807
46481W        W18097  34.466  31.857  12.910
46482W        W18098  43.222  17.038  10.178
46483W        W18099  34.976  27.963  11.453
46484W        W18100  10.683   3.842  14.467
46485W        W18101  33.486  39.809  14.015
46486W        W18102  11.374  16.707  10.870
46487W        W18103  33.261  41.848  14.532
46488W        W18104  15.362  24.439  10.950
46489W        W18105  25.735  41.391  14.824
46490W        W18106  18.732  21.206   1.320
46491W        W18107  28.412  32.636   1.693
46492W        W18108  42.999  26.210  10.636
46493W        W18109   1.238  41.979   2.117
46494W        W18110  44.932   4.316   4.277
46495W        W18111  34.756   6.277   0.899
46496W        W18112  13.168  31.834  13.917
46497W        W18113   3.366  44.310   3.306
46498W        W18114  12.971  11.254   0.888
46499W        W18115  11.139  12.880  14.271
46500W        W18116  33.303  20.571   1.803
46501W        W18117  43.486  10.214  10.756
46502W        W18118  28.624   9.124   3.771
46503W        W18119  30.899  22.443   4.150
46504W        W18120   7.729   8.811   1.678
46505W        W18121   3.423  28.202   3.767
46506W        W18122   1.416   0.970   9.962
46507W        W18123  35.789  35.472   4.075
46508W        W18124   2.718   5.155  14.877
46509W        W18125   2.634  38.834  10.699
46510W        W18126  43.023  12.270   3.710
46511W        W18127  36.110  26.152   3.752
46512W        W18128  11.115  20.764   1.353
46513W        W18129   4.789  29.501   4.336
46514W        W18130   1.407  31.427  13.984
46515W        W18131  12.265   0.388  10.526
46516W        W18132  35.156   8.901   4.912
46517W        W18133   0.493   9.947  11.452
46518W        W18134  27.546  21.569  14.238
46519W        W18135  44.501  37.931   1.678
46520W        W18136  17.411  44.467  13.017
46521W        W18137  13.380  11.995  10.318
46522W        W18138  33.481   6.272   3.354
46523W        W18139  15.327  31.561  14.202
46524W        W18140  38.628  33.801  12.594
46525W        W18141  21.502  30.567  11.912
46526W        W18142  38.509  23.362   1.235
46527W        W18143   4.532  11.160  12.470
46528W        W18144  20.538   1.394   0.241
46529W        W18145   9.627  31.388  14.158
46530W        W18146   2.863  23.419  14.370
46531W        W18147  39.519  22.696   2.234
46532W        W18148  21.298  23.069  12.482
46533W        W18149  24.255  20.332  10.791
46534W        W18150  23.958  39.850  10.928
46535W        W18151  34.477  13.677   2.297
46536W        W18152  35.708  30.444   0.238
46537W        W18153  30.430  17.662  13.035
46538W        W18154  25.588  30.125   2.642
46539W        W18155  19.438   8.125   3.513
46540W        W18156  34.400  24.811  14.807
46541W        W18157  39.347  15.649  12.533
46542W        W18158  25.641  17.214  12.907
46543W        W18159  24.235  11.497   2.174
46544W        W18160   6.684  12.337   1.912
46545W        W18161  19.136  42.922   0.979
46546W        W18162  36.538  18.818   3.352
46547W        W18163  18.944   8.376   4.947
46548W        W18164  15.754   6.895  14.889
46549W        W18165  30.022   4.417   4.613
46550W        W18166   3.260  20.708   0.211
46551W        W18167  17.519  14.536   3.882
46552W        W18168  11.783   5.227  11.617
46553W        W18169  18.200  14.714   4.217
46554W        W18170   3.392  10.281  13.366
46555W        W18171  32.434  39.026   2.330
46556W        W18172  26.685   2.810  10.752
46557W        W18173  11.616  27.644   1.830
46558W        W18174  13.452   3.988   2.836
46559W        W18175  34.661  28.241  13.750
46560W        W18176  24.937  41.577   0.796
46561W        W18177  29.374  29.201  13.364
46562W        W18178   0.374  22.977   9.770
46563W        W18179  41.836   7.345   0.867
46564W        W18180  10.768  33.665  14.925
46565W        W18181  11.724  15.380  11.584
46566W        W18182  27.906  21.471   4.509
46567W        W18183   0.844  15.074  12.458
46568W        W18184  14.204  44.531   1.283
46569W        W18185   9.672  39.116   3.720
46570W        W18186  27.461  20.716   1.726
46571W        W18187  38.697  27.661  11.555
46572W        W18188   8.754  38.885  12.445
46573W        W18189   2.490  40.795   4.128
46574W        W18190  17.821  40.944  13.245
46575W        W18191   4.682   1.599  14.205
46576W        W18192  22.700   5.920   0.543
46577W        W18193  38.693  35.846  11.068
46578W        W18194  24.514  27.187  12.808
46579W        W18195  25.700  42.797  11.566
46580W        W18196  33.183  14.288   3.573
46581W        W18197  27.058  16.565  10.252
46582W        W18198  31.713  31.136  11.118
46583W        W18199  42.717  10.784  14.743
46584W        W18200  38.605  21.007  12.059
46585W        W18201  13.223   5.865  10.435
46586W        W18202  32.279   3.502   5.059
46587W        W18203  28.763  23.534  13.870
46588W        W18204  19.703  39.931   1.287
46589W        W18205  28.089  38.605  13.892
46590W        W18206  12.253  18.602  12.376
46591W        W18207   7.216  31.129   4.876
46592W        W18208   0.644  18.841  10.253
46593W        W18209  14.854  41.942  12.765
46594W        W18210  10.172  28.538   1.900
46595W        W18211  33.839  35.422   2.307
46596W        W18212  11.485  40.524  13.036
46597W        W18213   3.556   3.318  10.138
46598W        W18214  28.453  33.049  10.407
46599W        W18215  38.852  19.843   2.817
46600W        W18216  31.914  43.015   1.848
46601W        W18217   9.341  21.071   2.524
46602W        W18218  11.317  36.133  14.287
46603W        W18219   0.788  39.375  13.993
46604W        W18220  11.275   0.889   1.333
46605W        W18221  28.255  21.635   0.852
46606W        W18222  12.101   4.393  10.959
46607W        W18223   6.662  20.638   1.842
46608W        W18224  28.722  11.252  13.349
46609W        W18225   9.915  42.932   2.291
46610W        W18226  25.196   5.178  11.581
46611W        W18227   4.767  13.226  12.210
46612W        W18228  18.952  10.098   2.571
46613W        W18229   5.002  43.097  14.775
46614W        W18230  10.484  11.682  10.316
46615W        W18231  16.256   1.090  14.530
46616W        W18232  14.204   2.806   4.684
46617W        W18233  26.613  22.040   0.417
46618W        W18234   3.848  13.239  12.209
46619W        W18235  12.111  35.645  10.353
46620W        W18236   3.828  13.151  11.245
46621W        W18237  25.279  19.524   4.852
46622W        W18238  20.730  42.558   1.761
46623W        W18239  21.613  31.847  12.466
46624W        W18240  15.739   5.231   1.236
46625W        W18241  17.228   1.167  10.355
46626W        W18242  15.594  15.851   1.176
46627W        W18243  24.923   4.654   3.851
46628W        W18244  10.217  33.096   0.418
46629W        W18245  34.408  21.243   2.303
46630W        W18246  37.081  18.387  14.267
46631W        W18247  17.307  42.098   3.083
46632W        W18248   6.260  30.235   2.803
46633W        W18249  27.087  20.218   0.403
46634W        W18250  44.600  44.263   3.563
46635W        W18251  31.518   3.415  13.169
46636W        W18252   8.730  19.604  14.061
46637W        W18253  29.932   8.713  10.596
46638W        W18254  11.007  17.465  12.984
46639W        W18255   1.055  36.531  13.067
46640W        W18256  39.647   6.217  12.919
46641W        W18257  28.447  34.977  12.015
46642W        W18258   8.097  35.002   2.758
46643W        W18259  33.320  35.373   2.354
46644W        W18260  41.678  19.360   1.722
46645W        W18261  16.775  29.563  13.328
46646W        W18262   9.865  35.607  11.719
46647W        W18263  23.630  37.761  13.876
46648W        W18264  34.735  21.459  13.359
46649W        W18265  14.214  43.842   0.858
46650W        W18266  30.658  35.568  10.715
46651W        W18267  44.051   1.362   0.882
46652W        W18268  10.584   8.278   0.972
46653W        W18269  22.156  29.884  11.869
46654W        W18270  28.027   3.406   1.334
46655W        W18271  27.465  13.269  10.571
46656W        W18272  32.436  43.803  10.268
46657W        W18273  20.249  29.481   1.891
46658W        W18274  42.555   5.045  13.334
46659W        W18275  39.298   7.696   1.674
46660W        W18276  21.753  42.235  12.923
46661W        W18277  34.508  17.729   1.689
46662W        W18278  41.225  14.108   3.248
46663W        W18279  23.018  41.913   1.308
46664W        W18280  35.277   1.937   0.012
46665W        W18281  13.325   2.211   1.338
46666W        W18282   1.866   1.315   4.275
46667W        W18283  34.837  20.631   0.802
46668W        W18284  18.947  43.796   1.243
46669W        W18285  26.114  11.775   3.874
46670W        W18286   9.428  40.958   1.939
46671W        W18287  42.336  22.821   0.094
46672W        W18288  20.798   1.622  14.841
46673W        W18289   6.696  11.366   0.394
46674W        W18290   7.820  30.427  14.402
46675W        W18291  42.374  22.713  12.640
46676W        W18292   7.397  29.646   1.808
46677W        W18293  12.591  25.739   0.274
46678W        W18294  10.201  39.883  12.061
46679W        W18295  44.340  31.608   0.849
46680W        W18296   7.702  26.723  12.584
46681W        W18297  31.949  21.819   3.895
46682W        W18298  13.536  10.885   1.001
46683W        W18299  21.050   0.709  11.649
46684W        W18300  19.159  42.506   0.367
46685W        W18301   4.423   7.810   1.794
46686W        W18302  23.001   0.837   0.599
46687W        W18303  14.673  29.442   1.940
46688W        W18304  36.275  10.727  14.962
46689W        W18305  39.495  18.499   3.135
46690W        W18306   9.891  10.225   1.486
46691W        W18307  13.132  23.120  13.087
46692W        W18308  36.342   1.961   2.323
46693W        W18309  13.615  39.815   0.485
46694W        W18310  40.904  25.744  11.709
46695W        W18311  40.054  37.846  11.849
46696W        W18312  43.865   9.192  13.552
46697W        W18313   5.897  24.934  14.022
46698W        W18314  22.052  13.290   4.365
46699W        W18315   9.261   8.949  12.928
46700W        W18316   8.748  36.837  13.722
46701W        W18317   5.682   5.117   4.158
46702W        W18318  25.686  15.351  12.401
46703W        W18319   7.149  23.420   2.701
46704W        W18320   6.939  43.681  11.169
46705W        W18321  28.881  34.918  11.635
46706W        W18322   8.690  41.834   1.364
46707W        W18323  17.152  36.817   2.127
46708W        W18324   9.969   6.145   5.082
46709W        W18325  19.759  36.597  12.277
46710W        W18326  38.357  36.345   2.167
46711W        W18327  19.821  14.891   4.579
46712W        W18328  24.035  33.556   3.917
46713W        W18329  44.463   6.347   4.646
46714W        W18330  13.279  39.339  10.604
46715W        W18331   2.857  14.171  11.894
46716W        W18332   6.761  15.620  10.502
46717W        W18333  28.433   3.924   3.316
46718W        W18334  35.527  35.661  13.777
46719W        W18335  31.968   0.811   0.329
46720W        W18336  43.442  37.724  11.061
46721W        W18337   8.689  32.890  14.886
46722W        W18338  32.426  41.028   2.426
46723W        W18339   0.535  14.118   3.265
46724W        W18340   1.723  18.704   0.186
46725W        W18341  24.564  37.656   4.269
46726W        W18342  38.069  30.382   4.192
46727W        W18343  29.431  34.465  13.754
46728W        W18344  27.550   7.418  13.327
46729W        W18345  12.940  44.289   3.298
46730W        W18346  19.695  38.980  13.045
46731W        W18347   2.551  41.445  12.892
46732W        W18348   9.769   2.367  14.838
46733W        W18349  43.302  22.602  12.376
46734W        W18350  44.382  20.073   4.668
46735W        W18351  42.333   6.125   3.272
46736W        W18352  10.226   1.397  13.316
46737W        W18353  17.874  38.355  14.633
46738W        W18354  34.664  44.225   2.311
46739W        W18355  25.196  43.901  11.701
46740W        W18356  43.783  32.926  11.547
46741W        W18357  10.703  26.580  14.783
46742W        W18358  18.171  33.378  13.256
46743W        W18359   8.711   4.444   1.200
46744W        W18360  39.128   0.463   4.312
46745W        W18361   3.363  27.196  11.232
46746W        W18362  41.823  14.543  11.116
46747W        W18363  38.774  18.041  11.217
46748W        W18364   6.828   7.784  11.798
46749W        W18365   2.321  17.401   5.081
46750W        W18366   3.946  16.810  11.970
46751W        W18367  14.883  30.442   1.870
46752W        W18368   2.619  26.692   2.330
46753W        W18369  31.070  42.310   2.716
46754W        W18370   8.519  25.607   4.239
46755W        W18371  13.680  18.587  10.765
46756W        W18372  38.997  37.080  12.544
46757W        W18373  29.222   8.932   2.324
46758W        W18374  17.200  16.026   1.938
46759W        W18375  14.261  24.240  11.607
46760W        W18376  40.743   7.373   1.940
46761W        W18377  15.007  22.168   3.211
46762W        W18378  42.139  34.292   1.367
46763W        W18379  24.072  29.444   2.152
46764W        W18380  33.029  11.118  12.095
46765W        W18381  17.937  29.548   0.241
46766W        W18382  15.292   7.872  10.617
46767W        W18383  41.387  35.987   1.178
46768W        W18384  20.132  23.443   1.475
46769W        W18385  25.380  37.204  11.160
46770W        W18386  16.866  44.913   5.016
46771W        W18387  34.546   7.244  14.923
46772W        W18388  29.988  18.959  12.141
46773W        W18389  10.255  28.345   4.381
46774W        W18390  24.219  22.073   3.201
46775W        W18391  13.506  20.784   1.778
46776W        W18392  10.113  44.142   3.259
46777W        W18393  17.251  17.333   2.417
46778W        W18394  35.833   8.837   4.502
46779W        W18395   7.372  12.002   2.527
46780W        W18396  18.092  37.756   2.401
46781W        W18397  20.152  44.538  11.893
46782W        W18398  23.441  28.502  11.407
46783W        W18399  37.508   7.497  13.524
46784W        W18400  29.917  26.920  11.231
46785W        W18401  24.507  27.705   2.596
46786W        W18402  18.127   3.162   0.819
46787W        W18403  16.581  38.110   2.260
46788W        W18404  14.592  26.870  12.458
46789W        W18405  40.517  18.573  10.523
46790W        W18406  40.364   7.273  14.024
46791W        W18407  36.431  41.450   4.068
46792W        W18408  25.984  23.995   3.021
46793W        W18409  16.310  14.721   1.192
46794W        W18410  38.551  11.845  10.691
46795W        W18411  29.118  26.196  11.762
46796W        W18412  25.698   7.829  10.688
46797W        W18413  41.331  17.813   0.705
46798W        W18414  28.003  39.768   4.570
46799W        W18415  37.457  12.344  11.508
46800W        W18416   2.288  43.289  13.735
46801W        W18417   9.082  18.159   2.340
46802W        W18418  35.572   2.335   0.857
46803W        W18419  38.843  38.803  12.018
46804W        W18420  15.579  16.688  12.527
46805W        W18421  11.802  22.096   2.717
46806W        W18422  31.664  22.155   2.096
46807W        W18423  21.569  38.763  11.127
46808W        W18424  15.338   1.696  11.887
46809W        W18425  35.654  25.334   4.752
46810W        W18426   1.516  18.591   2.733
46811W        W18427   0.550  23.494  10.627
46812W        W18428  25.740  42.042   2.415
46813W        W18429  35.956  33.035  10.946
46814W        W18430  38.795   5.740   1.228
46815W        W18431   2.239  32.818  11.885
46816W        W18432   1.710   0.803   3.369
46817W        W18433   2.400  38.949   2.393
46818W        W18434  37.491  39.211  11.211
46819W        W18435  17.282  28.416   3.266
46820W        W18436   2.363  25.121   3.652
46821W        W18437  35.860   3.464   4.617
46822W        W18438   1.692  36.174  13.799
46823W        W18439  21.018  22.052  11.110
46824W        W18440   1.871  16.534   3.398
46825W        W18441   8.904  38.557  10.257
46826W        W18442  34.449  29.882  12.069
46827W        W18443   3.819  34.403   1.128
46828W        W18444  38.032  30.524  14.460
46829W        W18445   6.101  42.864  10.526
46830W        W18446   4.794  24.022  12.802
46831W        W18447  16.312  26.071   1.642
46832W        W18448   6.201  15.783   2.501
46833W        W18449   8.215  23.681   1.463
46834W        W18450  31.970  28.708   0.990
46835W        W18451  25.517  27.098  11.376
46836W        W18452   2.263  41.578  14.334
46837W        W18453  44.795  24.554  11.250
46838W        W18454  18.115  37.182   2.630
46839W        W18455  32.164  27.616   2.437
46840W        W18456  42.918  22.573   3.540
46841W        W18457  18.571  28.174  10.139
46842W        W18458  10.251  42.627   1.650
46843W        W18459  20.170  24.051  13.562
46844W        W18460  13.292   4.478   5.078
46845W        W18461  25.919   7.673  11.143
46846W        W18462   4.818  28.793  10.935
46847W        W18463  31.686  24.406  11.119
46848W        W18464  17.253  30.103  11.420
46849W        W18465   3.867  40.583  13.871
46850W        W18466  41.451  40.824  13.568
46851W        W18467  14.267  32.143  11.641
46852W        W18468  39.418  41.444  11.085
46853W        W18469  28.530  39.371  14.767
46854W        W18470   3.816  17.593  13.381
46855W        W18471  28.219  38.327  13.247
46856W        W18472   3.849  19.432  12.592
46857W        W18473  37.400   0.924  13.523
46858W        W18474  33.134  33.076   3.671
46859W        W18475  24.717  11.511   2.354
46860W        W18476   8.575   9.739  10.147
46861W        W18477  39.500  20.710  14.620
46862W        W18478  12.892  37.238   4.503
46863W        W18479  41.426  27.211  13.036
46864W        W18480  16.352  34.310  11.588
46865W        W18481  15.685  34.466   0.281
46866W        W18482  41.969  28.397   0.485
46867W        W18483  44.499   6.461   4.143
46868W        W18484   4.975  35.365  13.943
46869W        W18485  27.161   3.513  14.560
46870W        W18486  32.433  36.611   4.252
46871W        W18487  41.977   7.185  11.621
46872W        W18488  44.557  24.041  13.437
46873W        W18489  41.592   9.674   1.333
46874W        W18490  27.089  29.757  13.780
46875W        W18491   4.855  19.829   0.856
46876W        W18492  36.811   1.003  14.127
46877W        W18493  17.192   2.697  11.019
46878W        W18494  26.959  10.966   0.347
46879W        W18495   2.170  21.083  10.939
46880W        W18496  20.299   1.772  14.833
46881W        W18497  28.437   9.369   2.780
46882W        W18498  10.682  13.356   0.862
46883W        W18499  30.481  14.263   3.395
46884W        W18500   0.303  22.033   3.899
46885W        W18501   7.624  44.523   0.449
46886W        W18502  26.193  23.941  13.358
46887W        W18503  20.841   1.703  13.912
46888W        W18504  25.205  42.298  11.156
46889W        W18505  27.720  10.820   0.697
46890W        W18506  41.999  33.095   2.723
46891W        W18507  32.057  29.464   4.857
46892W        W18508  12.814  24.736  10.727
46893W        W18509  27.040  42.981   2.772
46894W        W18510  10.855  41.546   4.337
46895W        W18511  29.904  18.119   1.339
46896W        W18512  39.998   8.734   3.949
46897W        W18513  25.920  16.285   4.213
46898W        W18514  28.498  25.013   3.812
46899W        W18515   0.842   6.307   3.148
46900W        W18516  13.622   0.947   3.670
46901W        W18517  22.757  27.084  10.812
46902W        W18518  26.635  40.986  12.470
46903W        W18519  16.044  24.071  10.179
46904W        W18520  19.209  32.347   0.758
46905W        W18521  11.217  14.193   2.747
46906W        W18522   6.882  24.194   2.054
46907W        W18523   9.692  15.067   3.377
46908W        W18524  31.677  43.780   3.374
46909W        W18525  18.018  23.812  12.051
46910W        W18526  13.079  28.668  11.341
46911W        W18527  36.656  42.237  14.417
46912W        W18528  36.930  10.491   3.874
46913W        W18529  29.113   2.867   4.210
46914W        W18530  28.123  14.384   1.238
46915W        W18531   3.812  43.323   0.800
46916W        W18532  37.996  37.586   0.363
46917W        W18533  42.784  30.099   4.246
46918W        W18534  13.402   0.058   1.890
46919W        W18535  42.320  17.238   2.673
46920W        W18536  42.853   2.951   1.889
46921W        W18537  43.713   9.798  13.830
46922W        W18538  15.342  14.130  10.983
46923W        W18539  28.382  18.814  12.658
46924W        W18540  27.614  34.905  14.816
46925W        W18541  23.190  26.149  14.110
46926W        W18542  16.559  23.789  13.477
46927W        W18543  42.047   8.795   2.469
46928W        W18544  29.411  34.422  12.383
46929W        W18545  22.091  40.187  11.101
46930W        W18546  32.002  34.573  11.924
46931W        W18547  16.915   0.626   0.216
46932W        W18548  15.664   5.579  14.577
46933W        W18549   9.269  31.814  14.346
46934W        W18550  18.117   3.038   3.825
46935W        W18551  17.590  35.517   1.987
46936W        W18552  40.109  24.433   4.562
46937W        W18553  21.813  26.532   4.687
46938W        W18554  24.961  40.891  11.441
46939W        W18555  39.823  31.943  13.154
46940W        W18556  41.560  43.532   3.484
46941W        W18557  43.348   6.683   1.785
46942W        W18558  33.203  33.455   4.629
46943W        W18559  11.165  40.764  12.578
46944W        W18560  15.816  33.476   4.402
46945W        W18561   1.602  44.886   4.688
46946W        W18562  35.059  27.488  13.808
46947W        W18563  27.007  38.633   3.371
46948W        W18564  12.675  24.212  12.418
46949W        W18565   0.774  33.782   3.165
46950W        W18566   3.083   4.917  13.222
46951W        W18567  31.306   1.735  12.926
46952W        W18568  28.124  20.954  10.702
46953W        W18569  14.235  19.028   1.823
46954W        W18570  35.774   8.168   0.023
46955W        W18571  14.839  26.056   0.881
46956W        W18572  33.916  20.482  13.403
46957W        W18573  38.799  20.335   3.646
46958W        W18574  16.333  14.119  11.728
46959W        W18575   3.379  12.265  12.609
46960W        W18576   3.834  43.853  12.052
46961W        W18577  24.089  24.105   4.971
46962W        W18578   8.945  17.731   1.306
46963W        W18579  13.409  38.406  12.824
46964W        W18580  43.188   6.443   3.121
46965W        W18581  35.341   2.178  11.637
46966W        W18582  36.925  41.205   4.013
46967W        W18583  42.562  14.972  12.391
46968W        W18584  30.680  27.475   4.958
46969W        W18585  40.999   6.794   2.730
46970W        W18586  28.085  43.256   0.836
46971W        W18587  10.952  14.255   2.091
46972W        W18588  30.480  38.791  11.123
46973W        W18589  12.395  26.112  12.187
46974W        W18590  41.527  21.502   3.248
46975W        W18591   2.224   7.590  11.086
46976W        W18592  33.197   8.278   0.814
46977W        W18593   6.935  11.268   4.673
46978W        W18594  25.563  42.168  14.362
46979W        W18595  22.093   9.146  14.299
46980W        W18596   3.931  11.208  12.439
46981W        W18597  17.131  29.935   3.256
46982W        W18598  25.726  37.017  14.484
46983W        W18599  40.830   2.480   2.377
46984W        W18600  20.105  40.028   4.665
46985W        W18601  26.392  23.805   4.146
46986W        W18602  19.476   9.822   1.981
46987W        W18603   7.980   6.726   3.770
46988W        W18604   7.456  27.922  10.858
46989W        W18605  15.835  38.900  12.941
46990W        W18606   7.977  42.878  11.165
46991W        W18607   1.963  12.729   1.230
46992W        W18608   5.381  10.895  14.820
46993W        W18609  16.682  23.759   2.812
46994W        W18610  34.850  44.788   2.643
46995W        W18611  39.910   9.798   0.367
46996W        W18612  33.267  34.345  14.261
46997W        W18613  18.828  35.080   3.836
46998W        W18614  37.177  12.171  13.985
46999W        W18615  12.794   6.557   0.540
47000W        W18616  26.457   4.830   0.404
47001W        W18617  31.638  36.429  10.484
47002W        W18618  40.813  13.124   1.723
47003W        W18619  43.432  30.382  14.369
47004W        W18620  28.738   6.135  13.902
47005W        W18621  20.098  29.465   0.929
47006W        W18622  19.647  29.039   4.817
47007W        W18623  28.143   6.301  13.147
47008W        W18624  22.098   3.978   1.829
47009W        W18625  44.106  34.981  14.491
47010W        W18626  16.331   2.242  13.520
47011W        W18627  28.425   9.092  11.563
47012W        W18628  44.741   3.233  13.438
47013W        W18629  23.716   4.512   2.217
47014W        W18630  37.294  29.665   1.192
47015W        W18631  12.619  10.373  11.587
47016W        W18632  31.957   1.321   2.763
47017W        W18633  16.237  39.751  13.279
47018W        W18634  38.208  13.855   1.906
47019W        W18635   8.695  18.762   0.957
47020W        W18636  23.101  13.060   4.156
47021W        W18637  26.832  23.690  14.176
47022W        W18638  17.252  26.860  11.933
47023W        W18639  16.502   0.208   3.860
47024W        W18640  43.118  36.405   1.352
47025W        W18641  34.225  37.293   3.909
47026W        W18642  22.129   7.797   0.730
47027W        W18643  11.016  38.400   4.047
47028W        W18644   2.830  27.258   4.896
47029W        W18645  23.564  34.068  11.594
47030W        W18646  36.485   5.861   1.441
47031W        W18647   5.790  30.420  12.874
47032W        W18648   0.500  42.267  12.284
47033W        W18649  13.930  11.793  12.862
47034W        W18650  17.688  20.276   1.825
47035W        W18651  24.528  17.920   3.350
47036W        W18652  20.083  37.913  13.578
47037W        W18653  34.811  36.222   2.779
47038W        W18654  41.137  35.155   5.060
47039W        W18655   3.357  28.461  13.157
47040W        W18656   7.905   9.742  11.687
47041W        W18657  21.742  37.430  14.436
47042W        W18658  32.407  32.689  14.440
47043W        W18659  32.104  43.064  14.702
47044W        W18660  25.076  15.291  13.780
47045W        W18661  20.085  30.044   0.450
47046W        W18662  32.069  27.496   1.594
47047W        W18663  22.079  16.670  11.650
47048W        W18664  23.601   5.718  12.009
47049W        W18665   5.980  34.690   2.964
47050W        W18666   0.285  22.296   1.790
47051W        W18667   0.457  33.474   0.716
47052W        W18668   5.393   8.311  12.292
47053W        W18669  27.341   5.670   1.812
47054W        W18670  16.311  23.443  13.180
47055W        W18671  41.459  31.255   3.391
47056W        W18672  12.715   6.229   0.961
47057W        W18673  39.443  18.761  11.168
47058W        W18674  33.611  19.221  11.156
47059W        W18675  11.706  30.812  11.979
47060W        W18676  33.855  41.143  12.944
47061W        W18677   4.094   8.619   0.419
47062W        W18678  22.261  34.688  12.190
47063W        W18679  25.454  12.857  13.301
47064W        W18680  44.347  35.847  12.549
47065W        W18681   5.227   4.238   2.106
47066W        W18682  26.514  42.769   3.825
47067W        W18683   5.902  21.679   2.157
47068W        W18684   2.953  43.671   3.668
47069W        W18685  21.070   6.506  14.887
47070W        W18686  23.143  24.019  12.698
47071W        W18687  27.132   2.308   0.530
47072W        W18688   3.968  39.477  10.713
47073W        W18689  16.665  29.679  10.650
47074W        W18690   3.912  26.232  14.899
47075W        W18691  40.835  30.033  14.720
47076W        W18692  40.135  36.110  14.368
47077W        W18693   9.687   7.919  12.958
47078W        W18694  39.594   2.203  12.550
47079W        W18695  23.629   5.414   3.638
47080W        W18696  30.998  24.107   0.040
47081W        W18697  44.200  15.672   2.606
47082W        W18698  38.497  12.941   1.712
47083W        W18699  18.072   0.347   1.269
47084W        W18700   9.198  35.625  12.488
47085W        W18701  16.831  44.326   1.324
47086W        W18702  43.882  21.236  14.610
47087W        W18703  43.005   7.850  13.003
47088W        W18704  28.981   3.482  10.492
47089W        W18705   3.276  44.802   2.369
47090W        W18706  23.562  36.169   4.662
47091W        W18707  34.999   3.402   3.180
47092W        W18708  22.776  43.365  14.978
47093W        W18709  25.597  44.290  11.584
47094W        W18710  24.119  37.906   4.155
47095W        W18711  39.506  33.887   1.640
47096W        W18712  43.992  36.362  13.361
47097W        W18713  10.127   2.885   1.955
47098W        W18714  34.436  44.805   1.249
47099W        W18715   6.204  38.799  11.075
47100W        W18716  14.067  41.553  14.085
47101W        W18717  13.344   2.802  11.080
47102W        W18718  28.450  32.950  14.710
47103W        W18719  11.842  35.899   1.417
47104W        W18720  26.848   7.268  13.694
47105W        W18721  16.704   5.874  11.085
47106W        W18722  39.324  12.255  14.530
47107W        W18723  12.570  41.940  14.887
47108W        W18724   0.879  13.381  13.937
47109W        W18725   4.950  22.246  13.268
47110W        W18726  32.654   6.814   2.264
47111W        W18727  19.618  14.297  11.163
47112W        W18728  44.346   8.022   2.379
47113W        W18729  25.585  10.910  14.982
47114W        W18730  12.898  43.456  12.043
47115W        W18731  43.706  35.522   3.840
47116W        W18732  40.754  18.717   1.392
47117W        W18733  30.877  41.031  12.621
47118W        W18734   2.316  43.235   5.474
47119W        W18735  19.510  11.107   1.742
47120W        W18736  44.361   4.395   1.027
47121W        W18737   7.219   3.729  13.480
47122W        W18738  35.557  32.992  11.570
47123W        W18739  28.506  36.368  12.398
47124W        W18740  14.713  23.905  11.433
47125W        W18741  38.560  22.133  11.159
47126W        W18742   6.755  30.400  12.126
47127W        W18743  40.125  25.124  12.080
47128W        W18744   4.905   1.761  11.079
47129W        W18745  24.067   9.877  11.034
47130W        W18746  19.976   8.129   3.288
47131W        W18747  27.320  27.324  12.820
47132W        W18748  13.794  16.793  11.941
47133W        W18749  13.636  44.850  13.805
47134W        W18750  27.438  36.667   1.788
47135W        W18751   3.034  41.572  13.768
47136W        W18752  14.187   9.253   3.883
47137W        W18753   8.189  24.269  11.602
47138W        W18754  18.479  19.659   2.508
47139W        W18755  33.099  15.189   1.829
47140W        W18756  12.168  10.227   2.009
47141W        W18757   2.391  28.727  11.468
47142W        W18758   0.336  26.164  12.364
47143W        W18759  28.500   1.457   0.465
47144W        W18760  22.852  42.473   4.274
47145W        W18761   3.844  43.950   1.602
47146W        W18762  36.563   7.966  14.530
47147W        W18763   3.936  39.311  12.612
47148W        W18764  21.114  27.074  14.983
47149W        W18765  13.138  31.013  10.916
47150W        W18766   7.818  27.445  11.416
47151W        W18767   6.303  44.881   0.725
47152W        W18768  17.769  16.830   4.601
47153W        W18769  12.662  43.138  13.396
47154W        W18770  24.325  44.945  11.397
47155W        W18771  24.433  35.069   0.460
47156W        W18772   6.600  15.286  12.362
47157W        W18773  29.493   2.876  13.754
47158W        W18774  30.561  22.703   3.044
47159W        W18775  42.776  37.896   2.676
47160W        W18776   2.763  33.759  13.199
47161W        W18777  41.963  43.822  11.468
47162W        W18778  44.247  25.196   4.096
47163W        W18779  42.990  15.122  13.511
47164W        W18780  26.923  30.382   0.553
47165W        W18781  31.034  22.592  14.898
47166W        W18782  16.616  40.368  14.372
47167W        W18783  22.366  19.656   4.508
47168W        W18784  10.191  26.618   3.228
47169W        W18785   4.283   6.705   0.362
47170W        W18786   1.300  37.069   3.149
47171W        W18787  28.041  19.125  12.016
47172W        W18788  28.140  15.081   4.885
47173W        W18789  28.527  44.249   1.248
47174W        W18790   3.400  10.980   3.413
47175W        W18791  25.955  15.373   0.355
47176W        W18792  16.362   8.812   4.235
47177W        W18793  28.639  15.243   5.063
47178W        W18794  24.609  13.154   3.341
47179W        W18795  21.014  30.186   0.305
47180W        W18796   6.793  21.253  11.060
47181W        W18797   2.414  18.174  13.331
47182W        W18798  20.184  17.733   4.909
47183W        W18799  41.123   4.770   4.629
47184W        W18800  23.640  40.898  10.511
47185W        W18801  12.274   2.334   3.497
47186W        W18802  43.519  39.266  13.511
47187W        W18803  14.531  39.518  11.031
47188W        W18804  30.880  17.457   2.329
47189W        W18805  34.404  39.864  13.566
47190W        W18806  39.856   9.121   2.369
47191W        W18807  44.028   4.268   4.152
47192W        W18808  27.973  31.491   3.753
47193W        W18809  10.427   3.237  12.384
47194W        W18810   2.550  22.213   2.900
47195W        W18811  41.348   7.206  14.992
47196W        W18812  33.173  38.072   2.778
47197W        W18813  44.634  21.605   1.583
47198W        W18814  32.933  21.757   1.255
47199W        W18815  21.338  26.672   3.735
47200W        W18816  28.405  38.816   4.384
47201W        W18817  33.979  44.557   1.311
47202W        W18818   4.749  15.616   5.015
47203W        W18819  34.999  28.951  10.552
47204W        W18820  29.947  10.693  10.509
47205W        W18821  28.489  11.572  12.953
47206W        W18822  32.643   0.233  12.173
47207W        W18823   4.970  15.586   0.289
47208W        W18824  22.538  22.646  13.617
47209W        W18825  43.534  30.116   0.345
47210W        W18826  12.084  30.993  10.590
47211W        W18827   9.135  28.977  10.308
47212W        W18828   9.184  19.774  11.287
47213W        W18829  32.960   0.970  12.834
47214W        W18830  35.851  41.345  12.816
47215W        W18831   5.744  16.716  10.655
47216W        W18832  21.160  35.056  13.166
47217W        W18833  36.769  36.517   0.666
47218W        W18834  20.148  41.061   0.759
47219W        W18835  15.783   6.131  10.398
47220W        W18836   5.679  11.471   4.635
47221W        W18837  16.535  27.185  11.229
47222W        W18838  41.954   1.155  12.568
47223W        W18839   6.625   6.485  12.466
47224W        W18840  14.765  44.741  13.976
47225W        W18841  18.549  35.990  11.552
47226W        W18842  32.541  19.640   1.273
47227W        W18843  22.110  20.534   0.458
47228W        W18844  32.196   2.218   1.715
47229W        W18845  36.754  32.878  13.767
47230W        W18846  22.748  27.715  13.137
47231W        W18847   3.251  33.104   3.869
47232W        W18848   6.444  32.016  11.193
47233W        W18849   4.947  29.645   3.343
47234W        W18850  24.300  14.237   4.579
47235W        W18851  42.963  15.586   0.427
47236W        W18852  39.007  21.881  13.462
47237W        W18853  20.509  28.938  11.287
47238W        W18854  35.527  28.964   1.242
47239W        W18855   6.250  21.232   1.335
47240W        W18856  42.265  36.913  14.502
47241W        W18857  18.048  37.214  14.950
47242W        W18858  16.750  26.130   2.423
47243W        W18859  35.909  12.655   1.082
47244W        W18860  20.563  43.285   3.233
47245W        W18861  24.489  41.573  12.103
47246W        W18862   2.466  32.359  14.230
47247W        W18863  15.647  44.388   0.799
47248W        W18864   0.478  38.386  14.015
47249W        W18865  27.459  19.848   1.606
47250W        W18866  17.712  21.129   4.181
47251W        W18867  35.533  25.400   0.008
47252W        W18868  28.823  33.918   2.255
47253W        W18869  40.001  37.489  12.203
47254W        W18870  19.088  16.727  14.496
47255W        W18871  43.805   6.855  11.161
47256W        W18872   0.505  21.011   3.150
47257W        W18873  12.933   6.127   0.246
47258W        W18874  18.229  33.414  10.423
47259W        W18875  40.992  32.388   4.836
47260W        W18876  19.135  21.746  13.356
47261W        W18877  14.864  32.613   4.341
47262W        W18878  33.165   1.792   1.868
47263W        W18879  17.839  40.297  12.900
47264W        W18880  18.837   5.407  10.318
47265W        W18881   5.317  17.139   3.827
47266W        W18882   6.311  36.980   2.752
47267W        W18883  40.375  30.392   3.168
47268W        W18884  32.139  15.906   3.648
47269W        W18885   8.519   3.460  13.919
47270W        W18886  36.108   8.830  14.677
47271W        W18887  11.761  43.762   0.389
47272W        W18888  32.963   9.935   2.887
47273W        W18889  33.208  26.675   1.403
47274W        W18890  23.558  16.596   2.339
47275W        W18891  21.517  17.767  14.337
47276W        W18892  27.456   9.129  11.596
47277W        W18893   1.193  28.707  14.017
47278W        W18894   7.456   3.448  13.822
47279W        W18895  19.559  31.550  11.921
47280W        W18896  22.303  28.196   4.543
47281W        W18897  41.496   0.015   0.959
47282W        W18898  10.120  36.902  11.520
47283W        W18899  42.450  19.422   3.764
47284W        W18900   9.067   8.339  11.547
47285W        W18901  17.482  22.441  12.081
47286W        W18902  37.120  25.689   2.187
47287W        W18903  24.593  42.059   0.272
47288W        W18904  20.602   3.387  11.576
47289W        W18905   0.335  15.213  10.683
47290W        W18906  28.181  37.594  10.443
47291W        W18907  35.109  26.638   0.920
47292W        W18908  23.448  26.518   4.636
47293W        W18909  14.424  12.115  11.112
47294W        W18910  27.861  23.819  13.918
47295W        W18911  33.109   2.023  11.604
47296W        W18912   0.559  30.428  12.709
47297W        W18913  16.713  22.255   2.738
47298W        W18914  26.721  34.887  12.643
47299W        W18915  29.456  21.217   4.536
47300W        W18916  35.480  25.924   3.077
47301W        W18917   2.748  39.899   1.630
47302W        W18918   0.893   4.372   1.856
47303W        W18919  34.878  27.862  14.524
47304W        W18920  36.823   4.717   4.082
47305W        W18921  19.146  36.033  11.607
47306W        W18922  44.256  29.156   5.106
47307W        W18923  16.315   0.018   0.955
47308W        W18924  28.388  40.398  14.983
47309W        W18925  11.096  22.830   5.068
47310W        W18926  22.978  31.581   1.860
47311W        W18927  33.548  12.066   2.277
47312W        W18928  44.634  34.570   5.175
47313W        W18929  39.012  21.235   2.549
47314W        W18930   9.726   5.361  11.914
47315W        W18931  35.548   4.169   3.155
47316W        W18932  42.821  42.240  11.502
47317W        W18933  32.597  44.675   2.483
47318W        W18934  10.916  33.968   0.918
47319W        W18935  15.615  30.226  14.390
47320W        W18936  36.217  25.694   0.306
47321W        W18937   5.853  33.396   2.875
47322W        W18938  36.999  38.679   1.926
47323W        W18939  41.750   7.073  12.607
47324W        W18940  23.549  28.199  13.957
47325W        W18941  22.027  20.671   2.703
47326W        W18942  14.217  12.283   3.906
47327W        W18943  26.944  25.474  13.061
47328W        W18944   6.454  34.315  11.186
47329W        W18945  21.301   5.969  10.052
47330W        W18946  31.208  10.546  13.485
47331W        W18947  22.927  43.095  12.352
47332W        W18948  32.877  26.084   0.309
47333W        W18949   1.774   7.171  13.956
47334W        W18950  35.905   4.243  12.101
47335W        W18951  11.255  20.011  10.477
47336W        W18952  30.068  37.129  10.889
47337W        W18953  23.643  25.212  11.187
47338W        W18954  20.211   8.443  12.394
47339W        W18955  17.354  41.451   5.128
47340W        W18956  10.868   4.535   0.101
47341W        W18957   1.400  12.045  14.959
47342W        W18958  15.101   3.221  11.803
47343W        W18959  19.506  23.004  13.681
47344W        W18960   2.663  22.626   0.945
47345W        W18961  37.895  19.728   1.510
47346W        W18962  10.583  40.284   3.157
47347W        W18963   8.349  18.274  12.027
47348W        W18964   3.714  29.484   1.907
47349W        W18965  26.580  38.515  12.635
47350W        W18966   5.009  39.986   2.749
47351W        W18967   8.810  40.912   4.492
47352W        W18968   5.807  30.332  14.006
47353W        W18969  42.326   2.649   0.576
47354W        W18970  44.895  10.427   4.260
47355W        W18971  25.091   3.955   2.052
47356W        W18972  32.368  43.289  14.294
47357W        W18973  13.075  18.294   1.489
47358W        W18974   6.953  22.186  11.284
47359W        W18975  23.859   1.827  13.824
47360W        W18976  26.202  15.314   1.718
47361W        W18977  42.240  37.650  12.918
47362W        W18978  38.533  40.158  14.262
47363W        W18979  16.413  32.121  11.522
47364W        W18980  33.860  21.082  11.169
47365W        W18981  24.391  10.783  11.453
47366W        W18982  41.556  27.475  14.379
47367W        W18983  16.245   8.480   4.805
47368W        W18984   5.213  23.263   1.864
47369W        W18985  13.749  39.479   4.821
47370W        W18986   6.640  13.407  12.426
47371W        W18987   2.303  14.685  14.902
47372W        W18988  14.785  36.056  11.604
47373W        W18989  20.798  38.504  10.712
47374W        W18990  37.752  24.722  11.644
47375W        W18991  32.131  38.493  14.982
47376W        W18992  41.745  34.379  14.418
47377W        W18993   3.542  41.527   0.797
47378W        W18994   1.510  25.705  13.031
47379W        W18995  37.312  31.434   4.942
47380W        W18996  15.281  15.926  14.748
47381W        W18997   2.989  31.214  14.673
47382W        W18998  10.590  43.287  14.977
47383W        W18999  42.850  24.797   0.952
47384W        W19000   5.025  39.069   0.233
47385W        W19001  32.108  33.894   0.380
47386W        W19002  14.629  33.387  13.874
47387W        W19003  19.771   0.197   1.793
47388W        W19004  42.061  11.289  12.111
47389W        W19005  15.876   6.235  13.141
47390W        W19006  24.129  37.984   0.046
47391W        W19007  15.135  13.069   3.901
47392W        W19008  27.717  41.589   1.984
47393W        W19009  30.590  32.730  11.557
47394W        W19010  23.491  40.393  11.698
47395W        W19011   0.739  11.618   0.336
47396W        W19012  16.412  24.575  10.988
47397W        W19013  32.012   8.141  12.772
47398W        W19014   3.690   2.555  13.884
47399W        W19015  19.754  16.974   0.886
47400W        W19016  31.471  23.966   1.192
47401W        W19017  23.760  44.486  14.395
47402W        W19018  22.553  12.776  13.637
47403W        W19019  16.310  33.602   1.243
47404W        W19020  34.944  44.904  12.829
47405W        W19021   5.100  14.324  11.543
47406W        W19022  35.378  35.191  11.143
47407W        W19023  28.924   2.238  11.622
47408W        W19024   0.874   0.912  12.409
47409W        W19025  20.024   1.741   2.326
47410W        W19026  36.016  28.093   3.769
47411W        W19027   5.297   0.290  12.521
47412W        W19028  10.705  18.530   0.632
47413W        W19029  43.002   4.082   4.677
47414W        W19030  16.780  10.092   3.304
47415W        W19031  41.270   5.892   0.898
47416W        W19032  34.012  24.998  13.893
47417W        W19033  43.674   7.260   4.092
47418W        W19034   9.949  31.046  13.862
47419W        W19035   9.286   2.718   2.350
47420W        W19036  33.728   0.629   4.189
47421W        W19037   4.881  43.441  12.447
47422W        W19038  18.776  44.348   2.364
47423W        W19039  26.419  39.763  12.042
47424W        W19040   1.119   9.638   0.865
47425W        W19041  36.127  15.211   1.272
47426W        W19042  44.595  15.337   0.312
47427W        W19043  26.864  13.925  10.320
47428W        W19044  39.536   3.862   4.193
47429W        W19045  11.801  13.325  12.404
47430W        W19046   3.201   6.623  13.043
47431W        W19047  33.168   6.197  14.534
47432W        W19048  26.248  26.747  10.952
47433W        W19049  32.335   5.437  13.976
47434W        W19050   5.626  33.346   3.686
47435W        W19051  23.616  35.039   1.234
47436W        W19052  43.266  43.894   4.850
47437W        W19053   2.831  32.134   2.163
47438W        W19054   4.957  26.190  11.558
47439W        W19055  36.361  41.242   1.878
47440W        W19056  20.128  41.571  10.927
47441W        W19057   9.323  29.693   1.738
47442W        W19058  24.031  39.028  11.219
47443W        W19059  16.869  37.349   2.693
47444W        W19060  25.240   1.277   4.166
47445W        W19061   9.606  43.110  14.859
47446W        W19062  30.074   7.435   0.895
47447W        W19063  13.782  39.363   1.962
47448W        W19064  44.874  19.515  14.483
47449W        W19065  39.428  35.604  13.878
47450W        W19066  20.361  30.942   0.493
47451W        W19067  16.829  16.152   1.276
47452W        W19068  15.234  40.087   4.251
47453W        W19069  42.975  42.753  13.778
47454W        W19070  41.795  29.080   2.470
47455W        W19071  24.320  13.941  10.143
47456W        W19072  14.370  41.987  14.989
47457W        W19073  22.091  35.599   4.919
47458W        W19074  25.654  27.580  14.339
47459W        W19075  23.726  28.525  12.278
47460W        W19076  33.390  40.754   0.287
47461W        W19077   6.475  34.892   2.810
47462W        W19078  25.180  34.899   1.552
47463W        W19079   0.882  27.906   2.879
47464W        W19080  36.500   3.463   2.733
47465W        W19081  21.099  35.447  12.506
47466W        W19082  23.497  22.368   0.390
47467W        W19083  16.203   0.775   1.370
47468W        W19084  11.379  21.174   2.355
47469W        W19085  13.397  29.415   2.219
47470W        W19086  12.256  14.711   1.153
47471W        W19087  36.922   9.772  13.325
47472W        W19088  40.502  17.485   0.622
47473W        W19089   7.409  43.411   1.725
47474W        W19090   6.983   9.107  11.630
47475W        W19091  20.482  29.911   1.745
47476W        W19092  17.482   9.774   4.440
47477W        W19093  34.186  12.342   3.201
47478W        W19094   9.067  22.211  14.578
47479W        W19095   1.278  39.498  14.261
47480W        W19096  17.136   4.830   1.817
47481W        W19097  24.974   2.819  12.551
47482W        W19098   0.309   9.478  11.608
47483W        W19099  11.331  20.274   1.213
47484W        W19100   5.165  12.012   0.795
47485W        W19101  35.093  38.331  14.222
47486W        W19102  40.039  28.449  12.869
47487W        W19103   2.877  30.463  11.368
47488W        W19104  14.290  11.854   3.615
47489W        W19105   7.907  12.677   5.045
47490W        W19106  28.705   8.592   4.476
47491W        W19107  41.357  28.582   3.591
47492W        W19108  27.442   7.298   0.945
47493W        W19109  27.165  30.538  11.904
47494W        W19110  15.600   8.188   3.319
47495W        W19111  10.611  24.104   4.031
47496W        W19112  15.548  19.774  11.399
47497W        W19113  39.570  42.754   4.042
47498W        W19114  19.193  20.498   4.367
47499W        W19115  42.337   9.617   2.583
47500W        W19116  35.783  33.434   3.702
47501W        W19117  39.846  41.913  12.110
47502W        W19118  39.029   0.490   3.332
47503W        W19119   3.921  28.627   2.414
47504W        W19120   5.399  43.772  11.475
47505W        W19121  25.948  31.543  13.051
47506W        W19122  29.124   5.965   3.501
47507W        W19123  21.186   0.511  13.036
47508W        W19124  36.517   1.593  11.173
47509W        W19125  35.423  11.281  13.068
47510W        W19126   0.249  30.143  11.172
47511W        W19127   6.671  42.408  12.178
47512W        W19128  26.165   6.715  10.726
47513W        W19129  10.111   7.829  11.244
47514W        W19130  39.057  41.876  14.048
47515W        W19131  37.338   5.331  10.894
47516W        W19132  34.983   8.812   2.374
47517W        W19133  36.105  25.307  10.682
47518W        W19134  42.425  10.121   3.386
47519W        W19135  10.638  23.539  12.632
47520W        W19136  21.165  30.108   2.140
47521W        W19137   5.479   1.033  10.900
47522W        W19138  37.803  32.504   2.958
47523W        W19139  11.619  40.341  13.979
47524W        W19140  31.954   5.020  13.090
47525W        W19141   0.367  28.450  14.306
47526W        W19142  19.138  29.132   1.218
47527W        W19143   9.620  20.770   0.231
47528W        W19144  42.500  13.739  11.575
47529W        W19145  38.607   4.870   3.744
47530W        W19146  25.140  31.218  13.093
47531W        W19147  34.797  34.482  11.581
47532W        W19148  22.667   9.651   4.159
47533W        W19149  11.292  41.365  10.413
47534W        W19150  31.466  40.291   3.717
47535W        W19151  14.761  40.034  12.922
47536W        W19152   0.828  14.792  13.515
47537W        W19153   8.132   2.465   2.723
47538W        W19154   0.469   7.253  13.631
47539W        W19155  40.846  35.100  12.953
47540W        W19156   2.198  19.265   4.107
47541W        W19157   6.204  39.271  11.306
47542W        W19158  21.968   8.849  11.996
47543W        W19159  40.571  28.246  13.009
47544W        W19160  30.768  24.098   0.526
47545W        W19161   0.859  14.719  12.061
47546W        W19162  38.099   6.417  13.010
47547W        W19163  21.107  17.664   0.588
47548W        W19164  10.927   5.722  13.612
47549W        W19165  19.985  33.577  11.290
47550W        W19166  28.604  37.078   3.675
47551W        W19167   0.283  14.720  10.831
47552W        W19168  34.387  24.509  12.886
47553W        W19169   5.375  36.281   5.212
47554W        W19170   4.740  38.329  11.101
47555W        W19171   6.874  34.128   2.898
47556W        W19172   7.084  17.011  11.609
47557W        W19173  42.599  20.993   1.965
47558W        W19174  18.727  23.888  11.397
47559W        W19175   9.833   8.340   4.922
47560W        W19176  15.061  44.968   1.405
47561W        W19177  31.455  18.071  10.900
47562W        W19178  38.826  30.013  10.234
47563W        W19179   0.661  33.945   0.742
47564W        W19180   0.774  13.680  13.488
47565W        W19181  30.498  37.773   4.066
47566W        W19182   3.944   6.768  14.972
47567W        W19183   0.352  31.639   4.723
47568W        W19184  34.917  32.075   2.774
47569W        W19185  25.108  10.782   4.368
47570W        W19186  43.781  15.543   2.899
47571W        W19187  20.558  22.788  12.645
47572W        W19188  10.096  32.603  11.992
47573W        W19189  15.422  33.219  14.501
47574W        W19190  35.284  35.787  12.448
47575W        W19191  42.195  43.361   2.741
47576W        W19192  14.406  33.951  13.011
47577W        W19193  21.761  40.512  14.427
47578W        W19194  12.329  31.892   1.349
47579W        W19195  39.703   2.399  11.160
47580W        W19196  40.347  42.930   2.771
47581W        W19197  40.488   5.308   2.374
47582W        W19198  21.261  39.534  14.849
47583W        W19199  34.298   7.724   1.618
47584W        W19200   2.800  26.313   2.657
47585W        W19201   5.187  18.518   0.699
47586W        W19202  27.607   5.761  12.584
47587W        W19203  26.821  39.024  10.152
47588W        W19204  39.865  29.208   3.759
47589W        W19205   9.948  18.633  11.386
47590W        W19206  25.030  37.382   1.424
47591W        W19207  40.500  38.259   1.717
47592W        W19208  11.142   4.010  14.306
47593W        W19209  37.539  17.683   0.332
47594W        W19210  43.797  14.888  12.989
47595W        W19211  41.204  15.379  13.531
47596W        W19212   0.850  11.681  11.909
47597W        W19213  17.631  37.822   4.263
47598W        W19214  35.064   5.882   2.213
47599W        W19215  14.681  31.606   1.418
47600W        W19216  40.895  25.500  10.699
47601W        W19217  39.813  31.380  13.360
47602W        W19218   4.295  34.675  12.240
47603W        W19219  10.010   7.144  10.286
47604W        W19220   7.274  23.810   1.394
47605W        W19221  19.076  14.277  12.055
47606W        W19222  25.053  41.289   4.029
47607W        W19223  23.801  17.781  14.889
47608W        W19224  19.018   2.849  14.809
47609W        W19225  23.070   7.007  14.009
47610W        W19226  36.534  23.538   3.593
47611W        W19227  22.145   2.691   4.847
47612W        W19228  17.165  31.866   4.085
47613W        W19229  15.298  34.818  13.563
47614W        W19230   4.528  21.990  11.697
47615W        W19231  41.938  23.892   1.726
47616W        W19232  42.292  16.188   3.685
47617W        W19233   4.381  39.458  12.875
47618W        W19234  42.977  42.466   3.989
47619W        W19235   9.662  36.882   4.076
47620W        W19236   5.918  30.089  13.553
47621W        W19237  23.614  13.698  13.342
47622W        W19238  26.585   7.368   0.907
47623W        W19239  17.140  26.257   4.188
47624W        W19240  42.879  37.846  10.999
47625W        W19241  19.780  12.868   0.298
47626W        W19242  24.777   5.377   2.595
47627W        W19243   4.935  18.571  13.777
47628W        W19244  11.108  39.423   0.452
47629W        W19245  13.419  38.547   0.003
47630W        W19246   8.411  13.767  11.222
47631W        W19247   5.859   1.373   1.772
47632W        W19248  23.794   6.448   1.332
47633W        W19249  40.069   2.227   4.967
47634W        W19250  42.845  13.605  12.733
47635W        W19251  25.232  20.242   0.735
47636W        W19252  13.874  40.505  14.331
47637W        W19253  36.370  31.180   3.912
47638W        W19254   3.379  11.611  11.994
47639W        W19255  20.632   1.209  10.807
47640W        W19256  26.912  44.918   3.256
47641W        W19257  24.086   6.215   5.082
47642W        W19258  14.548  27.008   2.165
47643W        W19259  13.176  32.998   2.386
47644W        W19260   6.381  32.600   1.581
47645W        W19261  18.941   4.221   4.612
47646W        W19262  10.339  20.847   1.859
47647W        W19263  11.720  42.447  12.504
47648W        W19264   3.665  22.999   0.321
47649W        W19265  25.727  33.935   2.422
47650W        W19266  14.982  25.936   3.090
47651W        W19267  41.861   2.246  13.388
47652W        W19268  36.033  41.064  12.398
47653W        W19269  15.925  21.768  11.247
47654W        W19270   2.670   9.323  11.560
47655W        W19271  39.184  31.422  14.070
47656W        W19272  36.733  22.637   3.690
47657W        W19273  19.076  15.790  12.084
47658W        W19274  44.406   6.387  11.493
47659W        W19275   3.283  14.184   3.798
47660W        W19276  28.047   1.654   4.089
47661W        W19277  18.070  29.647   1.827
47662W        W19278   6.707  19.550  10.551
47663W        W19279  29.742  35.428  12.991
47664W        W19280   2.210  43.566   1.623
47665W        W19281  18.412  32.597  13.808
47666W        W19282  42.459   6.454  11.108
47667W        W19283  33.998  19.594  13.542
47668W        W19284  25.735  29.972   0.750
47669W        W19285   8.705  18.647  14.126
47670W        W19286  40.747  23.229  12.311
47671W        W19287  25.402  11.340  13.839
47672W        W19288  29.477   7.624   2.336
47673W        W19289  44.781  17.524   4.212
47674W        W19290  14.164   7.478   4.593
47675W        W19291  18.042  17.978  14.942
47676W        W19292  41.541  18.641   2.268
47677W        W19293  22.501   1.151   3.270
47678W        W19294  31.420   2.439   4.297
47679W        W19295  41.993  42.853  12.679
47680W        W19296   0.965  12.434   4.515
47681W        W19297  30.133  29.070   0.837
47682W        W19298  19.259  27.765  10.477
47683W        W19299  10.281  21.333   4.101
47684W        W19300   8.503  28.989  12.327
47685W        W19301  12.395   9.433   4.333
47686W        W19302   2.258   7.398   0.280
47687W        W19303  21.041  20.128   1.848
47688W        W19304  31.836  26.147  14.045
47689W        W19305   4.505  37.394   5.244
47690W        W19306  39.570   3.657  14.422
47691W        W19307  29.626  21.424  12.065
47692W        W19308  23.499   6.206  14.777
47693W        W19309  20.861  12.005   0.251
47694W        W19310  21.032  28.224   1.913
47695W        W19311  40.351  40.334   5.400
47696W        W19312   3.775  23.985   3.233
47697W        W19313  22.213   8.712  12.430
47698W        W19314   2.011   0.777   2.418
47699W        W19315  44.957   3.005  14.434
47700W        W19316  27.206  10.383   3.170
47701W        W19317  33.066  41.497   1.427
47702W        W19318  41.046  18.370  13.609
47703W        W19319  43.737  24.591  12.591
47704W        W19320  12.935  12.365   4.186
47705W        W19321  19.579   5.947  10.654
47706W        W19322   5.515   1.778   1.830
47707W        W19323  20.768   8.850  13.310
47708W        W19324   7.972  26.962  11.580
47709W        W19325   1.648  25.198   0.344
47710W        W19326  39.532  12.963   9.474
47711W        W19327  14.314   4.892   4.578
47712W        W19328  42.255  12.131  10.922
47713W        W19329  27.343   3.613  11.946
47714W        W19330  31.965  37.370   3.287
47715W        W19331   2.832  42.432   0.278
47716W        W19332  13.810  12.333   0.478
47717W        W19333  12.245  42.542   4.194
47718W        W19334  33.474  41.993  10.428
47719W        W19335  19.798   5.304   1.449
47720W        W19336  40.366   1.007   4.614
47721W        W19337  33.356  16.346   0.368
47722W        W19338   8.377  17.286  12.042
47723W        W19339  39.897  25.921  12.434
47724W        W19340   3.838  32.550  11.885
47725W        W19341  36.974  34.554   1.670
47726W        W19342  32.988  39.772   2.276
47727W        W19343  22.463  14.737  13.430
47728W        W19344   0.412   7.938   3.438
47729W        W19345  19.910  29.690   4.111
47730W        W19346  30.192  27.456  11.499
47731W        W19347  10.188   8.396   2.684
47732W        W19348  14.747   7.629  12.109
47733W        W19349   2.911  44.534  10.724
47734W        W19350  32.126  17.816   4.071
47735W        W19351  33.979  36.379   1.302
47736W        W19352  28.863  18.237   4.398
47737W        W19353  18.209  41.874  12.466
47738W        W19354  27.679  19.221   4.254
47739W        W19355  21.210  39.357   4.155
47740W        W19356  22.090  17.658  13.781
47741W        W19357  21.273  13.889   4.738
47742W        W19358  43.648   0.700  11.188
47743W        W19359  19.046  13.964   2.248
47744W        W19360  34.512  21.706  14.566
47745W        W19361  35.188  42.049  12.541
47746W        W19362   9.616   3.084   3.544
47747W        W19363  39.993  41.147   3.700
47748W        W19364  14.655  11.839   0.737
47749W        W19365  36.961  28.196  12.803
47750W        W19366   8.783  19.026   0.473
47751W        W19367  14.336  33.420   1.437
47752W        W19368   1.548  40.332  12.940
47753W        W19369  41.845   2.671  11.251
47754W        W19370  40.005  33.017   0.316
47755W        W19371   4.450  15.159  10.636
47756W        W19372  42.036   7.690  12.246
47757W        W19373  32.331  12.594  10.773
47758W        W19374   8.895  39.561  12.116
47759W        W19375  40.569  21.916   0.687
47760W        W19376  14.207   7.452   2.281
47761W        W19377  33.851  19.484  12.516
47762W        W19378  15.530  44.344  12.348
47763W        W19379  42.451  35.747  10.758
47764W        W19380   5.349   4.202  11.701
47765W        W19381  35.441  39.809  10.665
47766W        W19382   6.679  44.365   5.055
47767W        W19383  30.595  24.169   2.864
47768W        W19384  44.326   9.199   4.040
47769W        W19385  43.426  28.193  12.015
47770W        W19386  31.376  22.492   0.825
47771W        W19387  15.106  27.285   3.319
47772W        W19388  17.261  33.148  11.554
47773W        W19389  14.020   9.634  13.965
47774W        W19390  16.625  43.083  11.954
47775W        W19391   8.962  39.973   2.341
47776W        W19392  43.987  30.544   4.328
47777W        W19393  42.991  15.230  10.520
47778W        W19394  41.942   4.329   0.530
47779W        W19395  30.358  33.535   4.258
47780W        W19396  16.117  41.778  12.221
47781W        W19397  38.790  29.103  10.507
47782W        W19398   9.441  35.962   5.150
47783W        W19399  13.637   8.241  12.995
47784W        W19400  38.483   6.330  12.171
47785W        W19401  20.033   8.465   4.218
47786W        W19402  36.535  11.899  11.731
47787W        W19403  11.532  16.732  11.562
47788W        W19404  43.458   0.519  14.215
47789W        W19405  18.072  32.441   3.722
47790W        W19406  21.919  40.745   0.166
47791W        W19407  24.627  24.674   4.128
47792W        W19408   0.867  30.583   3.179
47793W        W19409  31.856   1.325   0.484
47794W        W19410  40.777   5.283   2.828
47795W        W19411   2.283  35.504   0.429
47796W        W19412  18.731  44.892   0.016
47797W        W19413   4.457  23.430  12.030
47798W        W19414  35.064  20.941   4.929
47799W        W19415  18.953  33.415  11.970
47800W        W19416  13.742  19.150   2.142
47801W        W19417   2.926   8.830  14.150
47802W        W19418  24.908  41.417   4.527
47803W        W19419   4.730  39.353   4.183
47804W        W19420  42.427  29.111  13.488
47805W        W19421  10.797  20.171  13.130
47806W        W19422  44.042  33.576  13.711
47807W        W19423  15.322  38.504  12.535
47808W        W19424  12.730   7.435  14.473
47809W        W19425  34.441  28.755   1.383
47810W        W19426  30.377  34.342   0.319
47811W        W19427   3.327  28.286   3.254
47812W        W19428  19.719   3.261  12.629
47813W        W19429  40.399  21.188  12.905
47814W        W19430   8.841   0.834   1.253
47815W        W19431  10.417  29.594  12.201
47816W        W19432   0.233  22.344  14.922
47817W        W19433  31.187  43.765   5.451
47818W        W19434  12.218  23.094   0.695
47819W        W19435  43.370   1.584  14.023
47820W        W19436  31.995   2.693  14.897
47821W        W19437   0.877  43.014  13.941
47822W        W19438  43.306  24.643   0.016
47823W        W19439  18.788  43.364   0.951
47824W        W19440  30.906  26.981  10.949
47825W        W19441  12.750  33.605  13.267
47826W        W19442  33.829  27.673  11.996
47827W        W19443  33.948  16.119  11.022
47828W        W19444  42.002  11.742   1.461
47829W        W19445   3.504  22.697  12.903
47830W        W19446   2.596   1.865  12.894
47831W        W19447  26.509  39.401   0.676
47832W        W19448  41.789  30.850   0.018
47833W        W19449  39.007  34.602  10.586
47834W        W19450  18.284   8.874   2.239
47835W        W19451  15.786   9.861  13.533
47836W        W19452   0.776  23.397   4.954
47837W        W19453  15.177   8.926   0.490
47838W        W19454  35.936  23.029   1.942
47839W        W19455  31.062  44.326  11.524
47840W        W19456  44.957  43.888   2.885
47841W        W19457  18.322  32.023   0.743
47842W        W19458  16.486  36.416  12.088
47843W        W19459  36.461  16.674  13.448
47844W        W19460  14.186   5.422   4.590
47845W        W19461  33.955  29.433  10.424
47846W        W19462  19.779   8.378  13.613
47847W        W19463  13.102  13.118   1.626
47848W        W19464   6.237   0.956   2.707
47849W        W19465  38.407   0.738  11.534
47850W        W19466  24.534   7.812  13.939
47851W        W19467   5.865  25.260  13.556
47852W        W19468   0.454  36.504   5.196
47853W        W19469  14.788  13.847  11.404
47854W        W19470  20.807  39.550  12.361
47855W        W19471  41.445   7.728  11.084
47856W        W19472   0.523  35.181  14.087
47857W        W19473  38.948  41.701   4.527
47858W        W19474  11.664  30.179  10.453
47859W        W19475   7.845  15.330   0.873
47860W        W19476  41.705  17.643   2.416
47861W        W19477   1.711  28.975   2.861
47862W        W19478  24.705  40.887   1.058
47863W        W19479  12.826   7.508   1.042
47864W        W19480   9.097  28.930  12.140
47865W        W19481  13.021  15.440   5.057
47866W        W19482  14.563   6.913   9.993
47867W        W19483  35.377  20.773   3.228
47868W        W19484  35.061  34.030  12.420
47869W        W19485  17.087   1.061  13.057
47870W        W19486   4.793  38.677  10.134
47871W        W19487   5.030  37.326  13.413
47872W        W19488  35.134  39.932  14.407
47873W        W19489   0.847   0.315   3.681
47874W        W19490  32.017  13.192   3.213
47875W        W19491  41.533  39.801  12.440
47876W        W19492  16.212  10.826   4.251
47877W        W19493   7.286  28.680  14.345
47878W        W19494  21.193   2.407   4.717
47879W        W19495   9.657  42.114   4.421
47880W        W19496   5.518  17.199  13.702
47881W        W19497   5.790  12.812  11.530
47882W        W19498   1.868  19.605   1.273
47883W        W19499  26.182  17.104  10.026
47884W        W19500   5.319  41.333   2.765
47885W        W19501  43.547   8.326  14.763
47886W        W19502  31.088   1.753  10.852
47887W        W19503   1.792  17.632  12.933
47888W        W19504   8.492   8.665  14.910
47889W        W19505   6.524  23.418  14.016
47890W        W19506  21.785  40.039  11.542
47891W        W19507   0.152  41.313   4.183
47892W        W19508  10.357  14.616  12.864
47893W        W19509  18.575  11.468  10.467
47894W        W19510  17.722  20.162   2.920
47895W        W19511   5.190  26.600   0.780
47896W        W19512  11.008  12.735   4.104
47897W        W19513  24.338  44.344  13.678
47898W        W19514  33.829  34.654   4.959
47899W        W19515  11.304  18.257  12.021
47900W        W19516  37.998  28.072  14.501
47901W        W19517  13.729  40.796  12.155
47902W        W19518  10.696  20.010   0.586
47903W        W19519  28.831   0.784  11.584
47904W        W19520  23.227  33.011   1.403
47905W        W19521  14.832  40.857   4.727
47906W        W19522  35.869  21.563   0.511
47907W        W19523  42.881  31.284  13.580
47908W        W19524   2.884   7.356  12.694
47909W        W19525  36.739   2.923  12.286
47910W        W19526   1.939   2.231   0.827
47911W        W19527  13.400  17.608   4.369
47912W        W19528  37.931  42.380  13.561
47913W        W19529  26.718   3.783   3.099
47914W        W19530  40.101  12.947  11.985
47915W        W19531   5.236   4.268   2.614
47916W        W19532   6.736  39.160   3.151
47917W        W19533  28.718  22.144  13.564
47918W        W19534   1.352  35.836   1.247
47919W        W19535   7.225  23.186   0.408
47920W        W19536  33.457  19.443   1.258
47921W        W19537  35.496  38.459  14.482
47922W        W19538  11.225  12.952   3.678
47923W        W19539  37.349  43.990   1.704
47924W        W19540  44.435  20.095  11.072
47925W        W19541  14.782  10.114  10.801
47926W        W19542  10.382   3.412   3.211
47927W        W19543  42.307  13.047  12.337
47928W        W19544   8.960  22.722   3.999
47929W        W19545  36.446   0.770  14.406
47930W        W19546   3.747  16.179   2.539
47931W        W19547  41.134  26.126  14.518
47932W        W19548  29.984  21.719   2.228
47933W        W19549  41.740  27.521  10.964
47934W        W19550  21.974  12.873   1.952
47935W        W19551  28.539   0.183  10.776
47936W        W19552  26.940  28.352   3.755
47937W        W19553  38.436  39.734  14.555
47938W        W19554   9.150  33.549  14.450
47939W        W19555   5.225  21.506  12.070
47940W        W19556  25.403   1.876  11.397
47941W        W19557  15.755  27.005   4.710
47942W        W19558  21.029   1.790   3.364
47943W        W19559  16.535  32.077  12.381
47944W        W19560  11.212   8.881   1.155
47945W        W19561   3.847   5.988  13.727
47946W        W19562  38.171  35.477   0.394
47947W        W19563   7.522  31.033  12.001
47948W        W19564   2.295  38.993   3.806
47949W        W19565  19.808  15.330  11.119
47950W        W19566  27.369  23.844  14.854
47951W        W19567   9.086   4.604  11.173
47952W        W19568  16.337  15.295   1.675
47953W        W19569  32.926  26.907   4.243
47954W        W19570   2.379  32.769   4.094
47955W        W19571  39.021   6.337   4.625
47956W        W19572  11.001  15.881   0.110
47957W        W19573  36.955   8.886  10.336
47958W        W19574  20.763  39.373  11.096
47959W        W19575  34.192  26.478   0.436
47960W        W19576  27.998  18.096  10.665
47961W        W19577  42.455  20.324  14.341
47962W        W19578  26.009  16.632  12.374
47963W        W19579   5.827   8.398   1.462
47964W        W19580  43.510  20.978   4.474
47965W        W19581  33.445  33.925   0.007
47966W        W19582  36.373  20.251  13.292
47967W        W19583  30.878  19.132   2.644
47968W        W19584  20.981  37.996  14.046
47969W        W19585  35.987  39.412   0.007
47970W        W19586  28.598  14.585   0.837
47971W        W19587  44.208  28.685   1.159
47972W        W19588   8.722  10.862   3.598
47973W        W19589  37.243   4.567  12.517
47974W        W19590  43.409  12.394   0.951
47975W        W19591   3.251  25.936   1.862
47976W        W19592  39.451  19.167  14.221
47977W        W19593  33.352   8.725   5.273
47978W        W19594  32.894  22.589  12.108
47979W        W19595  29.961  41.806   4.084
47980W        W19596  14.318  41.360   1.986
47981W        W19597  23.440  15.821  14.110
47982W        W19598  15.421   6.224  11.334
47983W        W19599  16.518  27.345   3.246
47984W        W19600  35.193  18.743   2.345
47985W        W19601   0.856   3.400  14.059
47986W        W19602  24.132  14.590  14.797
47987W        W19603  32.581  38.536  14.680
47988W        W19604  35.131  29.525  12.558
47989W        W19605   5.299  25.517  11.950
47990W        W19606   1.780  39.556   3.259
47991W        W19607   8.392  30.743  13.124
47992W        W19608  35.916  11.129   3.223
47993W        W19609  25.947  38.563  14.844
47994W        W19610  15.149  43.563  13.365
47995W        W19611   5.855  15.011  14.981
47996W        W19612  11.866  13.734   3.318
47997W        W19613  43.563  37.392  13.496
47998W        W19614  18.088   0.224  11.982
47999W        W19615  40.943  43.238   0.702
48000W        W19616  43.962  31.619   4.171
48001W        W19617  33.695  26.416   1.367
48002W        W19618  22.029  11.237  13.952
48003W        W19619  39.042  26.174   1.279
48004W        W19620  39.289  18.143  14.190
48005W        W19621  35.809  28.606   1.979
48006W        W19622  34.591  34.691  13.969
48007W        W19623  15.623  43.260   0.777
48008W        W19624  18.048  36.813  11.142
48009W        W19625   1.964  17.648  12.016
48010W        W19626  14.267  37.872  14.308
48011W        W19627  32.964  35.099   3.139
48012W        W19628  32.925  20.622  14.472
48013W        W19629  44.142  19.819  11.887
48014W        W19630  34.099  26.083   1.270
48015W        W19631  10.535   8.480   4.100
48016W        W19632  34.144  14.608  13.474
48017W        W19633  11.760  30.522  11.565
48018W        W19634  33.910  37.028   4.235
48019W        W19635   4.346  17.361   0.714
48020W        W19636  44.232  15.480   5.093
48021W        W19637  28.246  21.241  14.949
48022W        W19638   2.131   4.247  12.068
48023W        W19639  36.927  14.721   1.024
48024W        W19640  18.111  23.703  14.861
48025W        W19641  44.016  15.169   3.159
48026W        W19642   8.362  15.307   4.282
48027W        W19643  44.001   9.392  14.014
48028W        W19644  13.300  24.486   1.627
48029W        W19645  39.070   8.032  13.993
48030W        W19646  30.861  12.090  12.491
48031W        W19647  31.024   5.194  12.948
48032W        W19648  27.824  31.854  11.621
48033W        W19649   4.473  16.402   0.755
48034W        W19650  41.414   0.287   0.528
48035W        W19651   6.702  29.094  11.164
48036W        W19652  19.301  20.778  12.826
48037W        W19653  18.037  15.319  12.906
48038W        W19654   6.145  27.955   2.770
48039W        W19655  24.272  27.231  11.906
48040W        W19656  23.010   5.298  12.596
48041W        W19657  13.679  16.612  12.427
48042W        W19658   3.133  17.113   0.305
48043W        W19659  30.626  42.260  13.646
48044W        W19660  35.699  37.189   2.305
48045W        W19661   4.870  36.135  12.449
48046W        W19662  36.906  37.210  13.976
48047W        W19663   3.648  26.986  14.168
48048W        W19664  22.927   3.854  12.483
48049W        W19665  27.502   5.645  11.639
48050W        W19666   9.672   0.115   4.208
48051W        W19667  42.378  19.149  10.973
48052W        W19668  24.143  29.894   2.828
48053W        W19669  41.125  38.776  10.032
48054W        W19670  12.280   4.126  13.717
48055W        W19671  37.969   9.746   5.528
48056W        W19672  43.043  34.345   1.194
48057W        W19673  35.645   2.191   4.549
48058W        W19674  19.908  44.777  13.423
48059W        W19675  33.357  30.626  10.541
48060W        W19676  34.233  19.642  12.141
48061W        W19677  39.375  44.967  12.391
48062W        W19678  33.569  33.155  11.739
48063W        W19679  23.915  21.554   0.724
48064W        W19680  36.468  16.626  11.596
48065W        W19681   6.885  37.851  11.922
48066W        W19682   3.042   7.567  13.540
48067W        W19683   2.553  24.914  13.516
48068W        W19684  43.989  30.609  11.594
48069W        W19685  37.982  43.840  12.576
48070W        W19686  25.553  25.891  14.832
48071W        W19687  19.338  10.480   4.807
48072W        W19688  18.040   0.475   2.282
48073W        W19689  21.146  37.956  13.525
48074W        W19690  39.518  13.611  14.915
48075W        W19691  21.674  14.579  13.588
48076W        W19692  40.732   9.645   5.001
48077W        W19693   5.313   2.354   3.294
48078W        W19694  22.401  15.669   4.892
48079W        W19695  24.498  30.675   0.243
48080W        W19696  36.930  27.721  11.410
48081W        W19697  34.118  15.285  12.983
48082W        W19698  17.317  33.614   4.584
48083W        W19699  13.142   5.896  13.307
48084W        W19700  10.129  35.785  12.132
48085W        W19701  17.377  20.759  12.999
48086W        W19702  10.690  41.395  13.142
48087W        W19703  23.705  23.443   4.079
48088W        W19704  10.289  38.331   3.655
48089W        W19705  41.629  14.740   0.200
48090W        W19706  43.170   3.308  11.746
48091W        W19707  34.838  11.878  13.424
48092W        W19708  38.603  26.561   3.691
48093W        W19709  17.067  30.491  12.079
48094W        W19710  30.204   6.859  12.666
48095W        W19711   7.393  21.581  13.054
48096W        W19712   5.115   8.681  13.079
48097W        W19713  42.936  16.770   3.112
48098W        W19714  20.184   5.787  14.260
48099W        W19715  41.638  28.531  11.152
48100W        W19716  34.839  19.855  11.491
48101W        W19717  21.177  29.470   4.539
48102W        W19718  13.666  36.182   0.917
48103W        W19719  21.050   4.856  10.585
48104W        W19720  29.478   4.205  10.699
48105W        W19721  13.803  21.048   1.397
48106W        W19722  33.481  25.895   2.436
48107W        W19723  26.214  20.974   3.163
48108W        W19724  18.935  43.800  11.085
48109W        W19725  11.137  36.767   0.935
48110W        W19726  43.706  38.518   4.247
48111W        W19727  38.846  21.704   2.785
48112W        W19728  35.059  42.784   1.690
48113W        W19729  14.677   6.414   3.423
48114W        W19730  13.744  11.918  11.499
48115W        W19731  30.071  26.987  12.708
48116W        W19732  31.268   9.133   4.548
48117W        W19733  39.650  38.090  11.030
48118W        W19734   9.629   3.949  11.522
48119W        W19735  26.247  25.103  12.832
48120W        W19736  41.300  41.793  13.413
48121W        W19737  11.316  16.614   2.282
48122W        W19738  18.092  20.732   2.321
48123W        W19739  33.998  18.846  11.137
48124W        W19740  41.466  16.249   1.756
48125W        W19741  19.016   6.295   0.320
48126W        W19742   3.835  28.047  11.103
48127W        W19743  28.304  42.416   3.762
48128W        W19744  32.094  24.390  10.729
48129W        W19745  23.697  30.928  13.038
48130W        W19746  39.234  11.618   2.424
48131W        W19747  21.044   3.346  12.255
48132W        W19748  34.375  17.753  14.520
48133W        W19749  13.879   3.170  11.050
48134W        W19750   2.318  16.224  14.283
48135W        W19751  25.567  21.915   1.316
48136W        W19752  22.369  27.882  12.781
48137W        W19753  19.019  43.334  12.968
48138W        W19754   5.992  15.220  10.715
48139W        W19755  29.032  41.107  11.625
48140W        W19756  24.486   5.982   1.948
48141W        W19757  21.369  24.654  11.134
48142W        W19758   4.309  39.486   2.198
48143W        W19759   0.424  22.143  11.628
48144W        W19760  37.412   6.736  14.051
48145W        W19761  11.504  38.478   1.378
48146W        W19762  21.798  41.788  12.649
48147W        W19763  34.024  32.624   3.228
48148W        W19764  29.235  38.509   0.230
48149W        W19765  39.529  12.551  12.479
48150W        W19766  17.738  26.106   4.754
48151W        W19767  12.128   5.799   4.303
48152W        W19768  42.414  16.578   3.284
48153W        W19769  38.098  20.775  10.759
48154W        W19770  28.108  19.658   3.199
48155W        W19771  15.781   0.441  13.366
48156W        W19772  40.295  24.734   4.134
48157W        W19773   0.267   6.818   3.628
48158W        W19774   0.663  41.671  11.121
48159W        W19775  34.037  15.889  12.432
48160W        W19776   1.474  25.525   4.243
48161W        W19777  14.168  21.382  11.718
48162W        W19778  39.451   6.617   4.503
48163W        W19779  26.496   5.782   3.764
48164W        W19780   0.358   0.043   4.563
48165W        W19781  22.721  24.849  14.878
48166W        W19782   5.338   5.136   2.335
48167W        W19783   3.854  24.996   5.046
48168W        W19784  19.420  42.540  12.933
48169W        W19785   4.180   0.890  13.772
48170W        W19786  20.936   4.461   1.817
48171W        W19787  14.334   8.863   0.758
48172W        W19788   0.857   4.781   4.487
48173W        W19789   9.981  29.883   0.694
48174W        W19790   3.293  43.269  14.383
48175W        W19791   6.941  42.708  12.978
48176W        W19792  35.317  25.003   2.709
48177W        W19793  31.223  27.951   2.834
48178W        W19794  21.683   5.028   1.441
48179W        W19795  37.642  11.148  13.366
48180W        W19796  36.531  17.029   0.854
48181W        W19797  13.749  11.115   2.115
48182W        W19798  40.355  41.110  11.236
48183W        W19799  12.081  43.003   0.293
48184W        W19800  29.222  42.462  13.474
48185W        W19801  13.733  41.456  11.555
48186W        W19802  17.836  31.764   0.298
48187W        W19803  24.841  20.674  14.051
48188W        W19804  41.963   0.996  10.677
48189W        W19805  33.871  36.305  12.086
48190W        W19806   3.204  15.708   0.003
48191W        W19807  43.213   7.693  14.437
48192W        W19808  37.979  28.711  12.250
48193W        W19809  23.079  24.428  12.069
48194W        W19810  42.047   6.723  12.847
48195W        W19811  37.257  38.564  11.642
48196W        W19812  18.271  19.096   4.868
48197W        W19813  17.530  22.175  12.922
48198W        W19814  12.641  36.977  12.000
48199W        W19815  33.428  37.055  14.777
48200W        W19816  31.588  28.800   2.682
48201W        W19817  22.065   7.331   0.899
48202W        W19818  18.534  24.826   4.708
48203W        W19819  23.888  42.279   3.815
48204W        W19820   2.765   8.495   1.895
48205W        W19821   3.437   9.148  13.098
48206W        W19822  15.770  42.796   5.354
48207W        W19823   2.980   7.192  13.171
48208W        W19824  43.129  33.135   4.242
48209W        W19825   3.813   9.013   4.340
48210W        W19826  35.967  22.977  14.555
48211W        W19827  28.250  36.326   4.124
48212W        W19828  12.887  27.105   2.268
48213W        W19829  20.572  41.520   1.461
48214W        W19830  42.417  13.721   2.782
48215W        W19831  19.664  30.671   2.603
48216W        W19832  34.905  25.912  12.958
48217W        W19833  23.946  30.517   4.599
48218W        W19834  36.941  39.455  14.011
48219W        W19835  25.900  44.688   0.895
48220W        W19836   6.261  16.211   2.232
48221W        W19837  17.112   0.521  12.904
48222W        W19838   5.726  41.724  13.422
48223W        W19839   3.684  14.656  12.202
48224W        W19840  42.496   3.563   0.390
48225W        W19841  22.886  24.466  11.142
48226W        W19842   0.736  38.920   1.151
48227W        W19843   2.323  25.053  12.022
48228W        W19844  28.877   1.997   3.170
48229W        W19845  16.597  11.090  10.575
48230W        W19846   0.337   8.412   0.225
48231W        W19847  39.538  44.793   1.980
48232W        W19848  20.365   6.283   0.461
48233W        W19849  42.037  19.954   3.767
48234W        W19850   4.292  35.986   2.460
48235W        W19851  44.228  10.247  11.232
48236W        W19852  11.321  26.887   3.296
48237W        W19853  40.279   3.602   3.711
48238W        W19854  37.496  34.668   0.345
48239W        W19855  15.075  20.308   2.435
48240W        W19856  13.895   6.671  13.082
48241W        W19857  36.769  43.920   0.006
48242W        W19858  34.062  43.068   4.861
48243W        W19859  20.315  44.311   4.045
48244W        W19860   3.525  38.819   0.509
48245W        W19861   0.261  10.213   0.374
48246W        W19862  27.942  25.043  12.426
48247W        W19863   9.379  22.652   2.753
48248W        W19864  10.431  28.598  12.036
48249W        W19865   8.712  13.581   4.266
48250W        W19866  27.508   6.124  11.473
48251W        W19867   2.349   9.921   2.002
48252W        W19868   4.441  13.189   4.704
48253W        W19869  13.332  28.578   4.271
48254W        W19870  27.663  17.719  10.605
48255W        W19871   4.838   7.911   1.419
48256W        W19872  27.078  44.827  11.619
48257W        W19873   6.656  44.945  11.440
48258W        W19874  38.898  14.761   4.819
48259W        W19875  39.698  39.413  11.131
48260W        W19876  22.392  25.343   5.107
48261W        W19877  13.040   6.841   3.595
48262W        W19878  11.124  42.006   2.891
48263W        W19879  27.783  19.935  12.724
48264W        W19880  42.296  30.379  11.979
48265W        W19881  25.195  44.465   4.740
48266W        W19882  29.942  42.283   2.028
48267W        W19883   9.800   7.742   4.244
48268W        W19884  26.872  23.596   4.165
48269W        W19885  40.835  25.120   1.379
48270W        W19886  15.512  42.074  13.558
48271W        W19887  26.550  22.146   3.669
48272W        W19888  33.928  39.765  10.978
48273W        W19889  18.716  25.837  12.380
48274W        W19890   9.890   4.798   4.979
48275W        W19891  20.305  37.368  10.706
48276W        W19892  42.744  29.666   2.263
48277W        W19893  22.500  31.492   3.837
48278W        W19894   3.369  42.041  11.534
48279W        W19895  35.520   9.794  11.088
48280W        W19896  43.199  14.863  14.368
48281W        W19897  20.423  23.826   1.734
48282W        W19898  21.148   2.951   1.743
48283W        W19899   7.512   3.408   2.276
48284W        W19900   8.130  27.982   2.331
48285W        W19901  22.371  34.455   0.975
48286W        W19902  30.817   7.572   1.216
48287W        W19903  19.780  31.544   3.492
48288W        W19904  10.584  22.253  13.469
48289W        W19905  17.145  18.734  10.431
48290W        W19906  30.462  16.766  13.051
48291W        W19907  36.508  36.593   3.708
48292W        W19908   3.031  11.655  13.858
48293W        W19909  29.506  42.738  12.564
48294W        W19910   1.297   4.917   4.255
48295W        W19911  35.982   6.580  13.881
48296W        W19912   9.118  40.414   4.487
48297W        W19913   2.170   3.170  14.915
48298W        W19914  20.246   9.662   3.246
48299W        W19915  20.314  13.381  12.035
48300W        W19916  32.101  35.902   2.777
48301W        W19917   1.433   1.245   0.749
48302W        W19918  14.159  19.588  14.940
48303W        W19919  26.711   4.880  14.965
48304W        W19920  35.055   6.286  11.927
48305W        W19921   3.308   4.488  14.404
48306W        W19922  28.895  12.276   3.249
48307W        W19923  30.475  31.618  10.371
48308W        W19924  20.705  13.758  11.812
48309W        W19925  25.315   7.313   3.168
48310W        W19926   7.774  35.299   3.664
48311W        W19927  10.664  12.102   3.508
48312W        W19928  31.495   0.908   0.148
48313W        W19929  34.027  35.299   2.763
48314W        W19930   4.495  24.973  12.074
48315W        W19931  27.147  35.903   1.593
48316W        W19932   8.428  19.832   2.732
48317W        W19933  44.934  12.730  10.859
48318W        W19934   5.902  26.579   4.931
48319W        W19935   7.886  14.860  10.685
48320W        W19936  12.546  15.753  13.452
48321W        W19937   5.303   9.261  12.367
48322W        W19938  42.758  29.672  14.102
48323W        W19939  25.253  35.460   1.211
48324W        W19940   4.728  41.259  14.381
48325W        W19941  27.120  14.823  12.549
48326W        W19942  16.202   9.436   0.882
48327W        W19943  29.178  18.530  14.882
48328W        W19944   4.255   5.476   4.155
48329W        W19945  17.319  29.206  11.858
48330W        W19946  44.723   6.129  13.538
48331W        W19947  15.664   5.335  13.745
48332W        W19948   6.195  21.280  12.666
48333W        W19949  32.935   9.403   2.569
48334W        W19950  10.865   6.599  14.394
48335W        W19951  25.575  36.285   0.793
48336W        W19952   3.371  39.415  14.838
48337W        W19953  15.379  18.078   1.843
48338W        W19954   3.189  17.784   2.322
48339W        W19955  32.505  32.423   1.339
48340W        W19956   5.674  38.974  11.046
48341W        W19957  30.884  20.785   2.140
48342W        W19958  10.426  29.103   2.710
48343W        W19959  28.861  29.149  14.508
48344W        W19960   8.394  20.456  10.966
48345W        W19961   1.878  12.309   4.568
48346W        W19962  36.040   4.925   2.340
48347W        W19963   6.633  33.042   3.872
48348W        W19964  33.331   3.603  12.898
48349W        W19965  17.078  44.547   2.350
48350W        W19966  22.021  27.010  12.377
48351W        W19967  29.421   2.085  11.625
48352W        W19968  35.720  31.020   1.230
48353W        W19969  25.566  21.507  11.161
48354W        W19970   4.548   3.080  11.680
48355W        W19971  34.639  25.323   3.128
48356W        W19972  31.338  27.163  13.940
48357W        W19973  13.178  22.225   4.538
48358W        W19974   0.741  42.024  13.782
48359W        W19975   3.103  38.877  12.657
48360W        W19976  31.293   1.268   4.682
48361W        W19977  15.319   9.866   0.725
48362W        W19978  44.846   4.144   3.766
48363W        W19979  36.054  42.515  12.895
48364W        W19980  16.319  38.883  10.656
48365W        W19981  42.416   7.691  14.955
48366W        W19982  16.218  42.522  11.703
48367W        W19983  16.044  18.298   3.746
48368W        W19984  28.406   7.354   2.412
48369W        W19985  28.845  17.577   1.891
48370W        W19986  14.313   4.239  10.616
48371W        W19987   6.791  17.695  13.794
48372W        W19988  40.214   1.999   1.230
48373W        W19989   4.240  18.678  12.925
48374W        W19990   5.784  25.302   3.719
48375W        W19991  26.773  24.816   0.510
48376W        W19992   9.636  39.317   3.249
48377W        W19993  20.533   6.253  11.523
48378W        W19994  32.638   6.667   4.287
48379W        W19995   9.358   4.983   4.563
48380W        W19996  44.541   3.461   1.664
48381W        W19997  19.707  23.170   3.632
48382W        W19998  10.062  37.101  11.048
48383W        W19999  29.837   2.365  14.409
48384W        W20000  25.622  11.179  13.376
48385W        W20001  10.669  38.699   1.601
48386W        W20002   7.674  33.969   2.502
48387W        W20003   4.414  22.242  11.279
48388W        W20004   1.341  41.036   1.808
48389W        W20005  17.271  24.149   1.403
48390W        W20006   5.397   4.183  10.661
48391W        W20007  16.221   2.222   0.311
48392W        W20008  29.922  20.297  11.525
48393W        W20009  29.208  10.173   3.270
48394W        W20010  24.025   7.879  11.163
48395W        W20011   9.094  27.107  13.854
48396W        W20012  13.900  41.698   2.427
48397W        W20013   8.439  29.483   1.859
48398W        W20014   3.503  42.542  14.920
48399W        W20015   8.601  16.825  11.930
48400W        W20016   2.797  30.930  11.084
48401W        W20017   0.763   9.323  13.426
48402W        W20018   5.889  30.673   4.605
48403W        W20019  43.896  32.840   4.831
48404W        W20020   6.690  39.824  12.072
48405W        W20021  44.494   0.574   1.002
48406W        W20022  12.295   1.982   2.731
48407W        W20023   6.916   9.865  11.575
48408W        W20024  38.397  15.159   1.304
48409W        W20025  26.014   2.898  11.119
48410W        W20026  42.956  40.986  14.438
48411W        W20027  37.642  19.560  13.801
48412W        W20028  13.866  27.526  14.369
48413W        W20029   1.059  15.284  11.240
48414W        W20030  13.551  36.953   0.280
48415W        W20031  25.687  43.033  14.031
48416W        W20032  31.099  40.256   3.004
48417W        W20033  18.676  32.285  11.553
48418W        W20034  13.083  13.218  14.784
48419W        W20035  21.733  13.097  12.869
48420W        W20036   3.265  13.730   2.294
48421W        W20037  31.495  43.885   0.823
48422W        W20038  29.760   0.946  10.638
48423W        W20039  41.656  44.942  12.130
48424W        W20040   1.293  15.728  13.396
48425W        W20041   7.092   6.507  12.221
48426W        W20042   0.904   3.653  10.145
48427W        W20043  16.572  42.807  12.488
48428W        W20044  35.766  44.228   1.396
48429W        W20045  41.440  29.170   0.411
48430W        W20046  22.792  36.984   4.604
48431W        W20047  24.635   2.928   3.733
48432W        W20048  31.011  16.555  11.610
48433W        W20049   0.239  39.460   2.893
48434W        W20050  13.740  32.015   3.069
48435W        W20051  33.987  12.835  10.869
48436W        W20052  26.639  31.442   1.256
48437W        W20053  31.364  15.728   1.721
48438W        W20054  29.984  27.633   2.718
48439W        W20055  16.197  25.086  13.225
48440W        W20056  44.403  26.213  11.797
48441W        W20057   8.313  36.130  12.118
48442W        W20058   1.014  39.694  13.229
48443W        W20059   8.934  35.635  12.954
48444W        W20060  23.130   1.387  11.937
48445W        W20061   4.965   5.800   0.057
48446W        W20062  12.130  38.322  11.981
48447W        W20063  22.306  27.250  11.556
48448W        W20064  32.215  42.727   2.161
48449W        W20065  25.929  25.132  10.285
48450W        W20066  23.745   9.871   1.340
48451W        W20067  23.201  18.295  12.999
48452W        W20068   6.366  42.801   3.287
48453W        W20069  17.509  21.707   3.729
48454W        W20070  23.127  27.114   2.804
48455W        W20071  37.777   4.221  13.864
48456W        W20072  44.849   3.877   1.687
48457W        W20073  19.547  28.764   3.726
48458W        W20074  10.874  34.843   3.294
48459W        W20075  15.924   0.055  10.510
48460W        W20076  41.495  33.072   2.851
48461W        W20077  21.790  41.666   4.563
48462W        W20078  26.599   8.262  13.522
48463W        W20079  19.605   6.370  13.757
48464W        W20080  28.486  23.247  11.414
48465W        W20081   7.226  39.016  12.605
48466W        W20082  35.132   4.147   4.876
48467W        W20083   6.624  16.125   4.044
48468W        W20084  15.064  19.112   9.538
48469W        W20085  10.058   0.923  12.121
48470W        W20086  10.268  12.890   3.730
48471W        W20087   6.963  36.070  10.694
48472W        W20088  28.957  41.551  14.347
48473W        W20089  36.997   3.601   2.633
48474W        W20090  20.743  15.789   4.191
48475W        W20091  38.367  31.350   2.686
48476W        W20092  42.961  41.113   4.568
48477W        W20093  43.664   6.048  10.701
48478W        W20094  42.580  12.942  11.099
48479W        W20095   7.403   2.007   1.025
48480W        W20096   2.315  22.062   9.823
48481W        W20097   0.407  44.368   2.939
48482W        W20098  31.120  30.529  10.564
48483W        W20099   6.370  17.136  13.242
48484W        W20100   0.754  33.401  13.800
48485W        W20101  39.488   5.646  14.031
48486W        W20102  41.900  20.242   0.497
48487W        W20103  23.371  38.035   4.632
48488W        W20104  36.510  42.371  12.623
48489W        W20105  31.043  19.338   1.182
48490W        W20106  10.813   2.997   4.164
48491W        W20107   0.494  38.399   2.323
48492W        W20108  17.849  18.730  12.910
48493W        W20109  38.403  15.696  10.377
48494W        W20110  21.455  23.143   4.614
48495W        W20111  28.379   2.085   3.307
48496W        W20112   7.889  35.681   1.201
48497W        W20113  13.091   3.415   4.572
48498W        W20114  24.545  14.864   1.735
48499W        W20115  23.547   3.765   0.321
48500W        W20116  18.018   8.362   2.806
48501W        W20117  26.513  44.410  14.772
48502W        W20118  17.790  10.154   3.170
48503W        W20119  10.457  21.429   9.883
48504W        W20120  33.962  20.630  10.890
48505W        W20121  36.020  17.302  13.018
48506W        W20122  12.434  42.066   3.296
48507W        W20123  18.108  10.509  13.393
48508W        W20124   6.987  10.896  13.931
48509W        W20125  33.729  12.205   3.956
48510W        W20126  27.795  38.436   3.768
48511W        W20127  43.599  43.307   3.666
48512W        W20128   4.687   1.409   3.218
48513W        W20129  37.591   5.354  14.209
48514W        W20130  11.264  36.481  10.703
48515W        W20131  16.527  26.004  11.928
48516W        W20132  21.754  16.654   2.592
48517W        W20133   7.724  12.188   0.851
48518W        W20134  41.109  37.960  13.728
48519W        W20135   7.324   9.142  14.451
48520W        W20136  24.785   2.012  14.838
48521W        W20137  16.326  44.909  13.870
48522W        W20138  30.892  32.006  13.825
48523W        W20139  26.620  32.345   4.728
48524W        W20140  43.545  44.936  12.477
48525W        W20141  33.091  40.900   3.680
48526W        W20142   2.253  41.078   1.763
48527W        W20143  14.148  36.470  12.024
48528W        W20144  28.510  43.285   1.188
48529W        W20145  37.499   9.946  12.575
48530W        W20146  34.351  39.853  14.119
48531W        W20147   3.417   5.717  13.556
48532W        W20148  28.539  14.026  13.030
48533W        W20149  41.545  24.223   1.710
48534W        W20150  37.731  33.239  11.345
48535W        W20151  18.983  21.072   3.202
48536W        W20152  25.476  20.158   1.672
48537W        W20153  40.208  37.549  11.465
48538W        W20154   6.639   4.591  12.114
48539W        W20155   9.413  16.256   2.963
48540W        W20156  41.249   8.791   2.756
48541W        W20157  40.283   3.913  12.090
48542W        W20158  35.530  31.612  11.571
48543W        W20159  36.131  20.698   4.140
48544W        W20160  20.527  21.431  10.388
48545W        W20161   5.371  11.266  10.658
48546W        W20162  35.115  38.111   1.328
48547W        W20163  34.446  23.052   3.226
48548W        W20164  29.856  16.464  13.613
48549W        W20165  18.288  29.551  10.786
48550W        W20166  36.062   2.016   3.654
48551W        W20167  13.501  39.519  11.387
48552W        W20168  36.877  42.420   3.104
48553W        W20169  14.323  24.249   0.765
48554W        W20170  20.575  18.781  12.870
48555W        W20171  27.883  35.007  12.947
48556W        W20172  20.178  39.594  13.598
48557W        W20173  37.464  39.827  13.405
48558W        W20174  44.522  44.788   0.549
48559W        W20175  34.367  14.628   1.254
48560W        W20176  37.881  37.795   3.823
48561W        W20177  32.001   6.237   5.016
48562W        W20178  32.075  33.832   4.816
48563W        W20179  31.602  39.649   2.356
48564W        W20180   3.430  44.249   5.065
48565W        W20181   5.538  32.455   4.495
48566W        W20182  44.918  10.913   0.469
48567W        W20183  44.976  28.721  12.019
48568W        W20184  30.107  20.702   3.414
48569W        W20185  34.978   0.208   0.450
48570W        W20186  14.779  35.018  13.503
48571W        W20187  13.312   5.236  13.012
48572W        W20188  37.464  14.785  13.050
48573W        W20189  44.470   8.200  14.153
48574W        W20190   9.362  21.116   1.490
48575W        W20191  42.315  35.571  13.059
48576W        W20192  35.654  20.687   2.798
48577W        W20193  10.655  15.613   4.532
48578W        W20194  18.994  30.446  14.843
48579W        W20195  25.541  13.083   2.802
48580W        W20196   5.414  21.681   2.935
48581W        W20197  19.257  24.706   4.080
48582W        W20198  13.063   1.715  10.972
48583W        W20199   6.234  18.975   4.565
48584W        W20200  13.758  19.558   0.312
48585W        W20201  38.317  19.714  14.492
48586W        W20202  25.669  16.558   2.892
48587W        W20203  37.960  37.335  11.928
48588W        W20204   0.402   8.289  12.094
48589W        W20205  34.384  18.859   1.394
48590W        W20206   6.975  38.620   2.315
48591W        W20207   4.435  22.276   5.502
48592W        W20208   9.722  27.087  13.350
48593W        W20209  20.962  30.862   2.620
48594W        W20210  44.968  12.713   1.764
48595W        W20211   7.709  23.836   3.616
48596W        W20212  20.285  15.124   1.335
48597W        W20213   1.396  23.573   1.230
48598W        W20214  37.962   5.287  12.462
48599W        W20215  24.049  25.140   2.457
48600W        W20216  31.774  43.318   4.296
48601W        W20217  44.510   9.836  11.457
48602W        W20218  23.974  39.797   4.213
48603W        W20219  17.280  31.196   3.688
48604W        W20220  24.944  33.429   3.312
48605W        W20221  41.171   6.635   2.154
48606W        W20222   7.429  23.736  13.526
48607W        W20223  34.975  26.035  13.499
48608W        W20224  13.535   9.668  13.309
48609W        W20225  29.343  40.470  13.521
48610W        W20226  32.425  26.595  13.942
48611W        W20227   1.472   6.635  14.963
48612W        W20228  42.456  42.508  14.450
48613W        W20229  17.992   6.196   0.404
48614W        W20230  28.714  43.963  12.580
48615W        W20231  30.484  27.966  13.468
48616W        W20232  33.643  25.310   1.672
48617W        W20233   8.423   6.870  11.073
48618W        W20234  36.017  25.663   4.549
48619W        W20235   0.147  27.538   1.980
48620W        W20236  44.016  27.179  12.583
48621W        W20237   6.735  38.033  14.353
48622W        W20238  44.501  27.129  11.411
48623W        W20239  22.791  16.743  13.648
48624W        W20240  20.327  26.020   1.403
48625W        W20241  38.340  26.050  13.106
48626W        W20242   7.952  43.435  14.004
48627W        W20243  17.610  35.624   0.981
48628W        W20244  33.019  43.980   3.576
48629W        W20245  32.360  20.175   1.761
48630W        W20246  22.111   9.843   2.368
48631W        W20247  43.939  43.401  13.512
48632W        W20248   1.423  39.560   4.155
48633W        W20249   0.809  13.257   5.128
48634W        W20250  37.053  24.802   3.225
48635W        W20251   7.861  33.776   3.349
48636W        W20252  44.944  10.249   3.096
48637W        W20253  18.197  18.451  14.868
48638W        W20254  40.017   9.886  14.869
48639W        W20255   5.565  44.583  13.923
48640W        W20256  44.264  40.105   2.151
48641W        W20257   7.824  43.944   4.242
48642W        W20258  43.313  23.508   3.590
48643W        W20259  40.459  14.103   0.831
48644W        W20260  25.889  18.329   1.383
48645W        W20261  17.524  34.475  10.573
48646W        W20262  30.684  17.027   4.641
48647W        W20263   1.651  15.319  13.371
48648W        W20264  20.032  38.901  13.486
48649W        W20265   9.258  40.303   4.992
48650W        W20266  18.727  38.653  13.036
48651W        W20267  35.874   5.672  14.671
48652W        W20268   5.257  35.858   2.455
48653W        W20269   3.883  27.979   0.342
48654W        W20270  11.144  38.980   2.227
48655W        W20271  25.166  43.176  14.968
48656W        W20272   7.493  43.028   2.900
48657W        W20273  39.653  26.990   0.147
48658W        W20274  19.055  20.087   3.603
48659W        W20275   7.845  28.465  12.861
48660W        W20276  42.045  18.547   4.642
48661W        W20277  15.782  34.495  10.096
48662W        W20278   8.841  17.775   2.754
48663W        W20279   0.900  34.575  10.744
48664W        W20280  36.910   3.248  10.824
48665W        W20281  35.392  40.536   2.771
48666W        W20282  30.647  10.534   1.517
48667W        W20283  29.482  31.035   1.714
48668W        W20284  14.186  37.980  11.534
48669W        W20285  23.162  15.216  11.433
48670W        W20286  30.816  15.293   2.468
48671W        W20287  23.740   7.777   1.829
48672W        W20288  16.703   2.608  10.826
48673W        W20289  32.403  13.139  12.399
48674W        W20290  21.640   5.739   0.234
48675W        W20291   3.184  34.177  13.017
48676W        W20292  26.070  21.688   1.505
48677W        W20293  22.556  25.723  12.880
48678W        W20294  25.660  10.395   2.219
48679W        W20295   1.792  18.057  12.576
48680W        W20296  36.404   8.662   1.037
48681W        W20297  27.388  27.506   1.411
48682W        W20298  41.400   3.997   3.984
48683W        W20299  42.000  26.946   3.926
48684W        W20300  21.636  35.488   2.006
48685W        W20301  17.523  17.022  13.041
48686W        W20302  36.158   9.942  13.998
48687W        W20303   8.448  38.771   0.015
48688W        W20304  39.801  18.132  14.930
48689W        W20305  31.856  21.304   0.268
48690W        W20306  11.747  42.779   4.242
48691W        W20307  34.859  24.068  10.102
48692W        W20308  37.784  12.811   1.376
48693W        W20309  15.326  32.357   2.302
48694W        W20310   2.807  32.712   1.285
48695W        W20311  11.895  22.488   0.793
48696W        W20312  27.756   5.569   0.714
48697W        W20313   9.081  12.750  12.599
48698W        W20314  31.485  36.413  12.038
48699W        W20315  17.733  25.072   2.800
48700W        W20316   3.700   2.830   4.336
48701W        W20317  22.086  20.728  14.855
48702W        W20318  37.844  30.549   4.624
48703W        W20319  29.044  15.185   0.952
48704W        W20320  15.256   5.264  11.966
48705W        W20321  19.120  24.253   0.444
48706W        W20322  21.088  25.535   0.490
48707W        W20323   1.955  25.085   2.649
48708W        W20324  29.730  28.659  11.256
48709W        W20325  43.682  43.907   1.352
48710W        W20326  17.690  34.029  14.399
48711W        W20327  20.892   6.322   1.881
48712W        W20328  29.065  17.677   2.392
48713W        W20329   1.697  37.095   1.093
48714W        W20330   4.749   5.610   3.207
48715W        W20331  19.813  39.632  14.375
48716W        W20332  31.516   4.068  14.816
48717W        W20333  16.311  35.372  11.603
48718W        W20334  31.388  25.006   0.489
48719W        W20335  28.924   6.579   2.713
48720W        W20336  27.203  32.207   2.808
48721W        W20337  24.682  28.597   3.410
48722W        W20338  32.136  28.930   4.648
48723W        W20339  19.790  26.575  13.740
48724W        W20340  28.468  35.526  12.587
48725W        W20341  42.531  39.397   0.639
48726W        W20342  16.853  20.623  13.899
48727W        W20343  30.359  33.116   1.090
48728W        W20344  20.210  20.475   1.919
48729W        W20345  37.405  19.147  10.940
48730W        W20346  31.342  15.483  13.027
48731W        W20347  26.023  26.674  13.963
48732W        W20348  28.581  13.743   0.439
48733W        W20349  36.771  16.763   3.835
48734W        W20350  32.000  15.341   0.393
48735W        W20351   8.270   2.323  10.982
48736W        W20352  10.003  26.938  11.119
48737W        W20353  26.157  25.154   5.009
48738W        W20354   0.763   5.506  11.959
48739W        W20355  41.591  35.117   1.166
48740W        W20356  16.713   6.729  10.663
48741W        W20357  17.923  32.097  14.868
48742W        W20358  26.335  36.881  12.956
48743W        W20359  18.064  34.359   0.940
48744W        W20360  30.904  30.923  10.895
48745W        W20361   8.897  12.116  14.754
48746W        W20362  18.497  20.730   1.454
48747W        W20363  29.598  30.529  13.611
48748W        W20364   4.969  40.356  12.540
48749W        W20365   9.118  39.239  13.746
48750W        W20366   8.725  10.894   0.775
48751W        W20367  16.135  29.742   2.390
48752W        W20368  33.904  17.547   3.375
48753W        W20369  27.584  26.740   0.398
48754W        W20370  25.371  26.253  11.646
48755W        W20371  15.928  44.411   4.546
48756W        W20372  14.012  16.127   3.664
48757W        W20373  44.205   2.515   3.926
48758W        W20374  37.373   5.401  11.388
48759W        W20375  34.235  28.404  12.989
48760W        W20376  22.160  37.379   0.537
48761W        W20377   3.406  42.733   1.281
48762W        W20378  31.389  38.155  14.746
48763W        W20379  41.876  33.864  13.301
48764W        W20380   6.721  26.778   2.869
48765W        W20381   3.807  26.267   3.280
48766W        W20382  38.955  42.058   1.242
48767W        W20383   0.360  42.225  11.764
48768W        W20384  20.556  10.818  14.850
48769W        W20385  40.401  21.781   2.138
48770W        W20386  29.441  21.082  13.886
48771W        W20387  15.125   5.446   1.113
48772W        W20388  14.770  40.345   4.720
48773W        W20389  30.371  41.153  12.609
48774W        W20390  27.172  17.732   0.788
48775W        W20391  37.551  20.879  11.768
48776W        W20392   7.467  13.924   2.784
48777W        W20393  26.141   7.272  14.259
48778W        W20394  15.990  32.391   1.045
48779W        W20395   6.332  14.113  13.699
48780W        W20396  33.106   4.467  14.567
48781W        W20397  18.064  39.638  13.968
48782W        W20398  21.554  17.811  11.321
48783W        W20399  16.479  19.646   3.131
48784W        W20400   1.645  22.635  12.399
48785W        W20401  43.199  23.635   0.267
48786W        W20402  16.279  40.724  14.077
48787W        W20403  10.818  26.318   3.691
48788W        W20404  43.634  17.992   2.056
48789W        W20405  13.675  28.503   1.927
48790W        W20406  39.043  15.014   4.363
48791W        W20407  40.598  42.923   4.181
48792W        W20408   4.609  36.103  14.387
48793W        W20409   8.523  13.208  11.193
48794W        W20410  26.637  32.786   4.458
48795W        W20411  43.906  35.458   2.882
48796W        W20412  28.400  23.212  14.021
48797W        W20413  17.554  18.243   5.000
48798W        W20414  27.430  25.220  14.828
48799W        W20415  11.763   9.866   1.212
48800W        W20416  32.470  35.627   0.865
48801W        W20417  32.647  39.811   2.647
48802W        W20418  16.091  38.312  13.973
48803W        W20419  29.550  19.852   4.965
48804W        W20420  35.918  19.882   3.666
48805W        W20421  13.104  17.331  13.354
48806W        W20422  10.320  13.662  12.984
48807W        W20423  37.990  34.772   1.488
48808W        W20424  24.038  17.008  10.484
48809W        W20425  36.721  15.961   1.420
48810W        W20426  32.655  35.399  12.212
48811W        W20427  34.581   0.815   1.250
48812W        W20428  10.171  29.693  14.451
48813W        W20429   9.362  38.008   0.534
48814W        W20430  24.435  43.792   4.686
48815W        W20431  35.529  35.968   0.982
48816W        W20432  19.591  29.523  14.769
48817W        W20433  42.942  38.934   5.015
48818W        W20434  26.553  13.262   2.575
48819W        W20435  31.112   3.525   2.383
48820W        W20436  25.709   1.669  14.094
48821W        W20437   0.698  14.272  11.857
48822W        W20438  40.484  44.162  12.550
48823W        W20439  18.757  31.359   2.645
48824W        W20440  40.711  43.773  14.877
48825W        W20441  23.448  26.581   3.194
48826W        W20442  20.120   9.846  13.192
48827W        W20443  21.632  15.351  12.424
48828W        W20444  22.517   0.875  14.802
48829W        W20445  12.455  22.380  14.338
48830W        W20446  40.097  38.549  12.323
48831W        W20447   2.303  40.233   1.447
48832W        W20448  41.818  32.532  11.104
48833W        W20449  38.901  38.866  13.859
48834W        W20450  11.289  18.885   1.734
48835W        W20451  44.615   8.839  12.901
48836W        W20452  21.643  43.246  12.318
48837W        W20453   1.004   8.855   4.563
48838W        W20454  14.758  29.127  14.344
48839W        W20455  30.162  15.989   2.760
48840W        W20456  41.793  43.056   2.785
48841W        W20457  12.656  13.842  10.693
48842W        W20458   5.262  18.846   4.751
48843W        W20459  42.990  43.952  11.029
48844W        W20460   8.846  10.089  12.174
48845W        W20461   3.245   2.776   4.124
48846W        W20462  26.027   5.003  12.962
48847W        W20463  15.351  18.328  11.470
48848W        W20464  38.533  13.577  14.932
48849W        W20465  12.680  33.530  11.047
48850W        W20466  14.881  32.053   0.584
48851W        W20467  26.681  37.722   3.547
48852W        W20468  13.717  31.002  14.791
48853W        W20469   2.866  33.479  11.762
48854W        W20470  42.912  43.966  12.080
48855W        W20471  34.700  14.689  13.372
48856W        W20472  29.005  28.166  13.571
48857W        W20473  18.740  34.919  13.292
48858W        W20474  35.403  43.067   0.794
48859W        W20475  39.528  33.019   4.544
48860W        W20476  39.385  23.065  11.597
48861W        W20477  26.427  23.253  11.551
48862W        W20478  37.907   9.929   0.841
48863W        W20479  26.438  32.653   1.867
48864W        W20480  22.271  10.180  14.982
48865W        W20481  40.795  16.045   2.717
48866W        W20482  37.365  15.552  10.705
48867W        W20483  32.025  24.678   0.799
48868W        W20484  17.056  30.551   2.633
48869W        W20485   1.642  22.817  13.286
48870W        W20486  35.940  15.542  14.433
48871W        W20487  44.708  33.552   0.058
48872W        W20488  18.622  27.170   1.026
48873W        W20489   8.552  14.139   1.764
48874W        W20490  10.910  38.897   4.151
48875W        W20491   9.362  37.050   4.496
48876W        W20492  12.308  36.867   0.763
48877W        W20493   0.497  32.310  12.506
48878W        W20494   7.744  35.191   1.071
48879W        W20495  44.227  16.388  10.779
48880W        W20496  27.055   9.049   4.527
48881W        W20497  44.933   7.595   0.894
48882W        W20498  29.099   5.203  14.848
48883W        W20499   9.555  20.680  12.369
48884W        W20500  20.699   4.979  12.476
48885W        W20501  28.118  34.890   1.832
48886W        W20502  40.304  24.305  12.825
48887W        W20503  39.528  39.023  14.346
48888W        W20504  20.183  24.140   2.126
48889W        W20505  16.035  39.900  12.285
48890W        W20506  22.365  33.162  10.542
48891W        W20507  31.946  36.676  10.819
48892W        W20508   2.782   9.656   3.773
48893W        W20509  32.550   3.825  14.587
48894W        W20510  12.221  40.273  14.488
48895W        W20511  40.058  21.664   4.264
48896W        W20512  38.679  37.534  10.267
48897W        W20513  39.040   4.951  10.789
48898W        W20514   3.980  23.666   0.554
48899W        W20515  42.357  10.181  13.946
48900W        W20516  29.160  19.171   3.804
48901W        W20517  31.126  15.885  13.308
48902W        W20518  31.898  10.885   1.365
48903W        W20519  25.348   3.781   4.875
48904W        W20520  31.977  29.723   3.947
48905W        W20521  13.858  41.807  12.010
48906W        W20522  39.582  14.688  10.537
48907W        W20523  38.623   4.305  13.339
48908W        W20524  41.519  19.259   3.806
48909W        W20525  29.618  38.042  11.113
48910W        W20526  44.480  17.852   2.451
48911W        W20527  38.100  43.086  11.833
48912W        W20528   3.961  12.114  14.342
48913W        W20529  23.656  30.909  12.111
48914W        W20530   9.324  32.181   0.959
48915W        W20531  31.606   1.146  12.446
48916W        W20532  32.190   6.957   1.934
48917W        W20533  31.124  38.908   2.787
48918W        W20534  14.315  21.867  11.556
48919W        W20535  19.786  34.967  12.271
48920W        W20536  33.871  10.657   0.535
48921W        W20537  25.032   0.166   1.599
48922W        W20538   1.805  37.031  14.081
48923W        W20539  43.017   5.725  14.497
48924W        W20540  43.828  24.725  14.884
48925W        W20541   5.002   5.405   0.964
48926W        W20542  28.862  29.691   4.197
48927W        W20543   9.088  31.387  10.693
48928W        W20544   4.395  37.556  10.566
48929W        W20545  23.179  18.324  14.398
48930W        W20546  12.741  42.012  14.396
48931W        W20547  34.039  26.602   3.634
48932W        W20548  42.803  12.114   1.449
48933W        W20549  21.597  24.057  13.456
48934W        W20550  14.703  24.502   2.634
48935W        W20551  43.324  43.005   2.841
48936W        W20552  17.687  30.705   1.247
48937W        W20553  18.534  21.685  14.753
48938W        W20554  15.084   4.999  11.560
48939W        W20555   0.277   1.935  12.512
48940W        W20556  37.925  44.023  11.202
48941W        W20557  17.796  10.973   0.172
48942W        W20558  22.574   5.935  12.983
48943W        W20559  30.423  19.175  11.821
48944W        W20560  23.940  15.922  11.605
48945W        W20561   3.042  27.650   4.619
48946W        W20562   2.585  19.302  13.796
48947W        W20563   1.670  44.680  14.377
48948W        W20564  31.558  35.520   1.789
48949W        W20565  32.174  16.509  12.392
48950W        W20566  44.200  36.841  13.213
48951W        W20567  34.210  17.683  14.015
48952W        W20568  41.031   7.865   0.052
48953W        W20569  39.468  29.477   1.162
48954W        W20570  38.722  13.440   1.190
48955W        W20571   7.953  34.570  13.892
48956W        W20572  40.881  39.571   1.263
48957W        W20573  44.608  10.734   9.949
48958W        W20574  41.223  14.323  10.665
48959W        W20575  11.326   7.715   0.248
48960W        W20576  44.706  28.385  13.374
48961W        W20577  18.244  17.142   1.941
48962W        W20578   6.424  23.759  14.410
48963W        W20579  21.402   9.076   2.756
48964W        W20580  18.059  39.059   0.486
48965W        W20581  11.514   7.189   3.077
48966W        W20582   9.850  21.106   2.678
48967W        W20583   4.128  27.225   0.079
48968W        W20584  12.069   1.350  12.419
48969W        W20585   6.164  22.225  12.501
48970W        W20586  17.337  18.086  14.410
48971W        W20587   9.637  14.098  10.894
48972W        W20588  41.037  38.962  12.487
48973W        W20589  12.354   0.554  12.664
48974W        W20590  42.996   0.890   1.895
48975W        W20591  44.900  30.527   1.428
48976W        W20592  31.706  22.290  11.487
48977W        W20593   2.483  28.548   2.418
48978W        W20594  24.140   2.874   2.163
48979W        W20595  14.072  27.047   1.638
48980W        W20596  27.551   8.432  12.809
48981W        W20597  28.323  24.784   0.205
48982W        W20598   9.422  25.621   2.126
48983W        W20599   8.807  34.247   0.487
48984W        W20600  20.326  26.572   2.658
48985W        W20601  24.739  42.947   3.078
48986W        W20602   6.204   0.721  11.482
48987W        W20603  20.634   0.698   0.831
48988W        W20604   2.006  24.025   2.766
48989W        W20605  29.405   1.282  12.522
48990W        W20606  20.249   0.525  14.468
48991W        W20607  41.611  40.807   4.411
48992W        W20608  38.608  14.835   0.380
48993W        W20609   1.173  36.142   4.756
48994W        W20610  35.882  24.592  13.834
48995W        W20611  35.446  12.721   3.359
48996W        W20612   3.455  38.448   2.919
48997W        W20613  34.462  29.192  14.473
48998W        W20614  26.053   7.328   1.449
48999W        W20615   2.680  44.294   0.918
49000W        W20616  35.326   3.330  10.710
49001W        W20617  31.104  21.127  10.545
49002W        W20618  31.247  43.796  12.462
49003W        W20619  21.558   7.539  12.488
49004W        W20620   7.539  10.287   5.021
49005W        W20621  29.707  12.650  11.200
49006W        W20622   2.503  28.443  11.897
49007W        W20623   2.006  42.956  14.476
49008W        W20624  28.714  39.343  11.177
49009W        W20625  41.171  41.451   1.294
49010W        W20626   1.844   3.955  14.945
49011W        W20627  41.387  40.387  10.708
49012W        W20628  27.983   6.229   1.345
49013W        W20629   3.292  41.014  10.904
49014W        W20630   7.109  13.615  12.287
49015W        W20631  39.742  25.119  13.373
49016W        W20632  23.008  30.186   1.105
49017W        W20633  25.724  36.114  14.746
49018W        W20634   5.883  29.856  13.042
49019W        W20635  12.642  10.169   1.786
49020W        W20636  32.592  28.616   0.345
49021W        W20637  37.893   0.726  12.127
49022W        W20638  34.084  42.787   1.842
49023W        W20639  33.027  13.899  10.753
49024W        W20640  22.209   7.510  13.060
49025W        W20641  40.331   5.776  13.345
49026W        W20642   7.287  15.746  13.860
49027W        W20643  26.266  27.877  14.384
49028W        W20644  42.500  13.931   5.146
49029W        W20645  12.751  39.072   1.335
49030W        W20646  12.126   5.427   0.469
49031W        W20647  19.768  18.260   2.295
49032W        W20648  41.337  19.389   0.906
49033W        W20649  29.946  36.686  11.159
49034W        W20650  25.175   2.836   4.656
49035W        W20651  32.955  17.003   1.013
49036W        W20652  22.108   0.190   2.526
49037W        W20653  32.061   0.197  10.617
49038W        W20654   5.029  25.933  13.544
49039W        W20655   8.729  37.453   0.017
49040W        W20656  27.989  32.035   4.605
49041W        W20657  28.068  38.048  11.208
49042W        W20658  14.021   0.013   1.224
49043W        W20659   6.614   9.095  14.969
49044W        W20660  25.169   7.143  11.585
49045W        W20661   6.492   4.336   4.688
49046W        W20662  12.268  27.358   1.080
49047W        W20663  37.958  37.584   4.879
49048W        W20664  26.479  43.574  12.471
49049W        W20665   1.763  25.176  13.786
49050W        W20666  37.654  35.095  12.514
49051W        W20667   3.542  30.021   2.976
49052W        W20668  17.217   2.147   5.452
49053W        W20669  25.999  36.555   3.624
49054W        W20670  17.040  37.401  14.409
49055W        W20671  30.452  26.895   4.172
49056W        W20672   8.627  29.726   5.022
49057W        W20673  29.921  44.467  12.364
49058W        W20674  39.804  30.386   0.853
49059W        W20675  29.038  38.327   2.680
49060W        W20676  34.884  43.893   1.670
49061W        W20677   6.278  28.936   3.199
49062W        W20678  21.524  29.650   2.632
49063W        W20679   3.952  20.700  10.421
49064W        W20680  26.426   9.778  11.939
49065W        W20681   2.709  38.729  12.347
49066W        W20682  23.197  43.383   3.833
49067W        W20683  24.537  43.732  10.650
49068W        W20684  44.936  21.290  10.987
49069W        W20685   8.627  13.738  11.687
49070W        W20686  16.365  31.078   2.494
49071W        W20687  29.213  20.986  11.904
49072W        W20688  22.173  41.488   0.283
49073W        W20689  28.011  36.365  14.537
49074W        W20690  37.893  17.828   1.957
49075W        W20691  43.506  36.464  13.570
49076W        W20692  14.663   3.127   9.787
49077W        W20693  28.255  29.941   1.829
49078W        W20694  43.652  27.807  10.195
49079W        W20695  10.148   3.409  11.488
49080W        W20696   0.293   0.431  13.895
49081W        W20697  42.017  27.454  13.378
49082W        W20698  40.168  33.264   2.659
49083W        W20699  19.011  18.213   0.267
49084W        W20700   8.706  17.100  12.675
49085W        W20701  34.808   1.990  12.493
49086W        W20702  30.354  23.782   1.231
49087W        W20703  32.322  25.217   3.605
49088W        W20704  22.707  15.248  13.455
49089W        W20705  13.032   7.042   1.277
49090W        W20706  10.093  35.031  11.671
49091W        W20707  40.613  22.104  10.665
49092W        W20708  16.127   7.643  13.277
49093W        W20709  44.853  23.596   4.862
49094W        W20710  33.209  40.409  12.613
49095W        W20711  35.342  25.209  13.350
49096W        W20712  12.883  33.158   1.664
49097W        W20713  24.253  11.356   2.691
49098W        W20714  24.162  14.075  12.360
49099W        W20715  29.663  14.555   0.735
49100W        W20716   6.200   2.526  10.981
49101W        W20717  11.056  10.601   3.606
49102W        W20718  43.329  38.594   2.866
49103W        W20719  16.864  25.395   1.406
49104W        W20720  31.632  33.593  14.764
49105W        W20721  24.953  19.278   2.340
49106W        W20722   9.645  26.519   3.299
49107W        W20723  35.334  11.282  13.894
49108W        W20724  28.029  24.905  13.446
49109W        W20725   7.773  40.907   0.031
49110W        W20726  21.199   5.656   0.541
49111W        W20727  13.088  23.507  14.753
49112W        W20728  15.154  38.044   0.567
49113W        W20729  35.799  33.387   2.091
49114W        W20730  32.486  38.738  14.024
49115W        W20731   4.639  19.091   1.732
49116W        W20732  26.056  16.604  11.865
49117W        W20733  22.813  30.928   0.554
49118W        W20734  16.246  34.889  12.420
49119W        W20735  41.035  16.606   3.555
49120W        W20736   4.235  37.411   4.686
49121W        W20737   5.793  38.972   3.397
49122W        W20738  32.433  11.301  10.850
49123W        W20739  17.934  16.529   2.243
49124W        W20740   4.177  13.826  12.493
49125W        W20741   0.369  23.001   3.741
49126W        W20742  19.944   9.249  14.768
49127W        W20743  35.614   5.101   3.969
49128W        W20744   5.429  41.299   0.002
49129W        W20745  28.543  24.505   3.630
49130W        W20746  37.464   1.353   4.106
49131W        W20747   2.928  41.455   0.152
49132W        W20748  26.457  15.691   3.700
49133W        W20749  41.260  41.382   2.248
49134W        W20750  21.059  12.936  12.471
49135W        W20751  36.443   6.471   0.350
49136W        W20752  41.721  24.708  13.811
49137W        W20753   8.500  12.230   1.391
49138W        W20754  28.197  33.735  14.817
49139W        W20755  44.868  10.748   1.406
49140W        W20756   1.461   9.423  13.876
49141W        W20757  10.573   0.505   3.295
49142W        W20758  44.848  42.568   0.973
49143W        W20759  26.687  10.161  12.948
49144W        W20760  10.870  15.990   4.218
49145W        W20761  43.009  40.649   2.854
49146W        W20762  15.192  37.617  13.963
49147W        W20763  21.034  20.019  14.782
49148W        W20764   9.199  25.492   2.575
49149W        W20765  36.822  22.571  14.178
49150W        W20766   9.771  23.795   3.758
49151W        W20767  38.868  24.318   1.352
49152W        W20768  10.810   7.889   1.364
49153W        W20769   0.972  39.020  12.034
49154W        W20770  37.334   5.325  12.918
49155W        W20771  36.547  42.758   2.432
49156W        W20772  16.649  28.025  14.412
49157W        W20773  38.905  24.050   4.137
49158W        W20774  26.323   1.597  14.785
49159W        W20775  26.760  35.282  13.932
49160W        W20776  11.193  23.017   0.351
49161W        W20777  41.737  43.428  12.799
49162W        W20778  24.294  31.032  10.924
49163W        W20779  23.500  19.446   3.811
49164W        W20780  39.286  29.044  14.442
49165W        W20781   0.593  43.475   2.609
49166W        W20782  17.494  39.578   4.306
49167W        W20783  27.972   4.227   4.179
49168W        W20784   5.285  20.545   4.571
49169W        W20785  12.831  43.362  13.870
49170W        W20786  10.255  38.308  11.901
49171W        W20787  19.998   1.743  11.176
49172W        W20788  12.620  26.126   0.867
49173W        W20789   6.446  25.162  12.885
49174W        W20790   3.859  38.283   0.983
49175W        W20791   3.050  34.137   1.769
49176W        W20792  25.525  15.663   1.635
49177W        W20793  34.168  29.867   3.614
49178W        W20794  43.931  37.656   0.248
49179W        W20795  39.205  41.163  12.861
49180W        W20796  27.478   4.073   4.329
49181W        W20797  19.332  14.237  12.968
49182W        W20798  42.035  41.989   2.102
49183W        W20799  26.399  12.802   1.457
49184W        W20800  18.645   2.232   1.353
49185W        W20801  43.356  35.149   1.402
49186W        W20802  16.347  21.666  13.104
49187W        W20803  38.815  44.115  14.015
49188W        W20804   8.160  42.864   2.288
49189W        W20805  31.637  38.830  14.291
49190W        W20806  21.219  32.508   4.723
49191W        W20807  38.352   7.757  11.171
49192W        W20808  38.515  11.395   0.233
49193W        W20809   9.664  33.414  14.402
49194W        W20810  17.280  41.713   0.548
49195W        W20811   2.231  29.028  13.406
49196W        W20812  38.339  33.352   2.681
49197W        W20813  39.875  17.182   2.320
49198W        W20814  23.097  10.219   0.710
49199W        W20815  15.850  21.221  14.481
49200W        W20816  17.527  43.271   3.623
49201W        W20817  28.125  17.650  10.389
49202W        W20818  40.953  33.997   0.338
49203W        W20819   5.321  30.648   2.700
49204W        W20820   1.304  16.585  14.542
49205W        W20821   0.232   5.362   1.260
49206W        W20822   5.851  16.671  13.911
49207W        W20823  24.706   0.568   3.042
49208W        W20824   1.806  43.091  10.093
49209W        W20825  39.780  26.421  14.197
49210W        W20826  37.935   5.720   1.221
49211W        W20827  21.509  36.633  13.999
49212W        W20828  24.663  30.033   2.613
49213W        W20829  22.457   4.353   1.825
49214W        W20830  41.520   0.731  10.726
49215W        W20831  31.981   6.211  14.849
49216W        W20832  14.093  38.084  11.030
49217W        W20833  12.155  39.908   1.199
49218W        W20834   3.915  11.810   1.128
49219W        W20835   5.217  29.123  11.041
49220W        W20836   7.796   8.895   4.145
49221W        W20837  30.880  35.470   3.312
49222W        W20838  28.528  30.196   2.394
49223W        W20839  33.093  29.428   9.908
49224W        W20840  15.259  31.356   2.124
49225W        W20841  31.408  12.657   3.629
49226W        W20842  17.495   3.239   2.224
49227W        W20843  10.857  40.129   1.880
49228W        W20844  16.067   0.258  14.873
49229W        W20845  38.495   2.909  14.278
49230W        W20846   0.245  39.920   4.704
49231W        W20847  12.763  26.587   2.211
49232W        W20848  26.586  15.289  12.939
49233W        W20849  12.630  10.194   2.832
49234W        W20850  24.084  17.326   0.183
49235W        W20851  41.974  15.218   3.279
49236W        W20852  27.591  29.084  13.313
49237W        W20853  22.388  35.997   0.308
49238W        W20854  40.753  30.641   3.744
49239W        W20855  19.276  34.928  12.349
49240W        W20856   7.697  19.483  11.976
49241W        W20857   0.478  24.878  10.715
49242W        W20858  20.698  30.648  10.645
49243W        W20859  44.559  42.760   0.011
49244W        W20860  44.516  14.439   0.366
49245W        W20861   4.183   6.785  13.309
49246W        W20862   0.582  21.716  12.921
49247W        W20863  11.876   8.800   4.684
49248W        W20864  16.976  14.754  11.515
49249W        W20865   7.685  42.996   1.466
49250W        W20866  10.300   1.942  13.798
49251W        W20867  28.157  10.483   4.897
49252W        W20868  15.632   1.954   2.175
49253W        W20869  24.770  33.195  13.937
49254W        W20870  19.623  36.541   4.312
49255W        W20871  39.716  12.626   4.561
49256W        W20872  20.770  22.082   3.229
49257W        W20873  27.837  42.867  12.597
49258W        W20874  42.509   0.387  13.543
49259W        W20875  12.657  17.287  14.785
49260W        W20876  35.517   8.714   2.297
49261W        W20877  26.858   1.191  13.138
49262W        W20878  25.080   5.786  13.414
49263W        W20879  10.181  37.539   3.238
49264W        W20880  29.191  14.129  14.083
49265W        W20881   9.615  31.566   0.186
49266W        W20882   5.365  42.318  13.879
49267W        W20883  37.070  18.613  13.372
49268W        W20884  25.058  36.421  13.116
49269W        W20885  40.402  38.309  13.325
49270W        W20886  41.385   7.127  13.424
49271W        W20887  25.220  28.369   4.179
49272W        W20888  35.118  25.149   3.235
49273W        W20889   7.488  40.109  14.512
49274W        W20890  17.483  40.435   4.338
49275W        W20891   2.003  15.342   0.312
49276W        W20892  24.389  43.485   0.206
49277W        W20893  11.402  29.220   1.664
49278W        W20894  27.898  33.553   0.222
49279W        W20895  34.065  19.069   2.816
49280W        W20896   1.779  25.935  12.398
49281W        W20897  15.345  24.947  11.574
49282W        W20898  36.771  29.629   1.303
49283W        W20899   4.923   6.948  11.059
49284W        W20900  15.165  27.454  14.115
49285W        W20901  10.720   7.629  11.999
49286W        W20902  33.283  28.083  10.388
49287W        W20903  25.034  17.648  13.885
49288W        W20904   1.371  36.095   2.185
49289W        W20905  44.475  15.535  13.363
49290W        W20906  18.202  13.312  14.387
49291W        W20907   8.470  23.297  13.109
49292W        W20908  44.926  19.782   4.887
49293W        W20909  16.617   6.684  11.198
49294W        W20910   7.459  42.789  11.184
49295W        W20911   2.676  13.927  10.928
49296W        W20912  27.773  32.438  10.742
49297W        W20913  40.030   9.371   1.890
49298W        W20914  33.520   8.714  13.189
49299W        W20915   5.967  29.016   0.362
49300W        W20916  14.297   1.537   3.155
49301W        W20917  41.021  36.890  12.227
49302W        W20918  30.561  26.539   4.557
49303W        W20919   7.774  13.363  10.647
49304W        W20920   5.903  12.663   2.397
49305W        W20921  30.298  20.311   2.666
49306W        W20922  26.569  13.488  10.299
49307W        W20923  32.932  15.041  12.606
49308W        W20924  18.652  39.711  12.851
49309W        W20925  15.618  38.496   3.203
49310W        W20926  14.238   8.420   5.097
49311W        W20927  15.089   1.312   3.723
49312W        W20928   5.169  29.255  12.508
49313W        W20929  43.444   5.252  11.566
49314W        W20930   7.194   5.432  11.966
49315W        W20931  27.512  34.779   3.747
49316W        W20932   6.462  15.126   0.877
49317W        W20933   6.274   3.529   2.954
49318W        W20934   7.976  34.014   0.016
49319W        W20935  10.178  28.711   2.919
49320W        W20936  25.408  16.282   4.236
49321W        W20937   9.236  22.055  10.728
49322W        W20938   3.833  40.143  13.351
49323W        W20939  37.949   7.882  12.786
49324W        W20940  15.146  38.294   3.248
49325W        W20941  31.460  24.761   1.592
49326W        W20942  40.154  10.823   5.614
49327W        W20943  39.433   7.223  13.602
49328W        W20944  22.794  40.268  12.976
49329W        W20945  25.559  15.528   0.768
49330W        W20946  38.906   8.043  14.485
49331W        W20947  15.235  10.690  14.425
49332W        W20948  11.673   8.459  12.896
49333W        W20949  43.786  19.290   4.831
49334W        W20950  13.825  12.604   3.754
49335W        W20951   6.535  15.290   4.071
49336W        W20952  31.451   5.109   1.881
49337W        W20953  33.372  39.440  10.119
49338W        W20954  38.059  15.961   1.367
49339W        W20955  24.753   7.984   4.112
49340W        W20956   6.219  34.071   2.359
49341W        W20957   9.205  13.468   3.576
49342W        W20958  30.694  20.476  14.785
49343W        W20959  13.134   0.067   1.251
49344W        W20960  17.745   4.329   1.323
49345W        W20961  42.619  10.442   1.994
49346W        W20962   5.352  36.560   4.255
49347W        W20963  18.314  10.224  10.919
49348W        W20964  32.561  20.037   2.645
49349W        W20965  17.256  41.697   1.188
49350W        W20966  23.837  36.382  11.622
49351W        W20967   2.830  12.554  11.883
49352W        W20968  14.418  13.681   3.605
49353W        W20969  17.068   4.207  12.906
49354W        W20970  37.240   4.909  12.139
49355W        W20971   1.862  24.770   0.108
49356W        W20972  32.629  17.552  14.503
49357W        W20973   4.758  16.631  10.421
49358W        W20974  21.988  25.506   1.843
49359W        W20975  34.883  13.345  13.987
49360W        W20976  44.978  19.522   0.914
49361W        W20977  19.375  35.905   3.813
49362W        W20978  16.005  25.709   2.902
49363W        W20979  16.460  26.991   2.867
49364W        W20980  27.847  16.466   9.680
49365W        W20981  41.066   7.147   0.456
49366W        W20982  19.274  23.497  10.934
49367W        W20983   1.714   8.203   2.825
49368W        W20984   3.390   9.129   4.078
49369W        W20985  27.184  39.756  10.988
49370W        W20986  30.625  32.374   2.756
49371W        W20987  43.895  31.077   2.842
49372W        W20988  27.933   6.509   5.030
49373W        W20989  40.421  25.483   4.508
49374W        W20990   3.275   1.020  10.247
49375W        W20991  37.621  11.119  10.224
49376W        W20992  19.093   2.102   1.722
49377W        W20993  11.721  36.615   0.440
49378W        W20994  18.638  26.213   0.855
49379W        W20995  24.076   6.451   2.660
49380W        W20996  12.452   9.296   3.122
49381W        W20997   3.452   3.762  11.019
49382W        W20998   4.677   7.457   0.309
49383W        W20999   2.501  44.298   0.347
49384W        W21000  12.349  17.723   1.191
49385W        W21001   7.864  38.506   1.246
49386W        W21002   1.905   9.192   1.563
49387W        W21003  36.065  32.813  13.178
49388W        W21004  21.075  30.524  12.876
49389W        W21005  33.986  43.746   2.634
49390W        W21006   1.779  19.318  11.179
49391W        W21007   8.422  15.757   3.909
49392W        W21008  24.236  34.647  11.259
49393W        W21009   3.870   7.551  13.559
49394W        W21010  13.670  35.855   1.309
49395W        W21011   4.192  33.851   0.039
49396W        W21012  41.790  28.216  11.542
49397W        W21013  44.416  37.341  12.985
49398W        W21014  14.394  31.177   0.096
49399W        W21015   5.894  28.689   3.628
49400W        W21016  40.996  37.560  14.882
49401W        W21017  39.439  39.397   4.635
49402W        W21018   4.841  27.587   1.974
49403W        W21019  15.982   8.705  10.739
49404W        W21020  16.235  15.752   1.897
49405W        W21021  40.272   3.948   2.461
49406W        W21022  14.846   7.051  13.303
49407W        W21023  30.073  16.938  13.460
49408W        W21024  15.527  31.111  12.501
49409W        W21025  32.525  20.879  12.295
49410W        W21026  18.786  31.784  11.631
49411W        W21027  25.969  24.383  13.445
49412W        W21028  19.857  18.170   4.843
49413W        W21029  32.586  13.567  14.290
49414W        W21030  25.582  42.943   1.389
49415W        W21031  19.447  40.987   3.076
49416W        W21032  32.038   7.043   3.816
49417W        W21033  39.612  20.655   2.785
49418W        W21034  10.849  16.799   2.403
49419W        W21035  25.896   2.454   0.364
49420W        W21036  44.416  18.035   3.836
49421W        W21037  43.781  15.293  13.690
49422W        W21038  14.522  38.876  13.415
49423W        W21039   5.917  40.740  13.360
49424W        W21040  39.345  19.127  11.497
49425W        W21041  30.145  18.307  14.387
49426W        W21042  30.977  12.625  13.109
49427W        W21043  22.594  37.028   3.263
49428W        W21044   7.118  33.421   2.424
49429W        W21045  42.776  41.071   3.723
49430W        W21046  41.542  29.531  14.943
49431W        W21047  42.506  12.719  14.178
49432W        W21048  21.959  43.270   1.827
49433W        W21049  34.701  11.680  14.515
49434W        W21050  26.224  16.708   3.403
49435W        W21051   6.324  14.623  13.847
49436W        W21052   3.688   4.197  14.195
49437W        W21053  39.825   7.265  14.901
49438W        W21054  12.661  12.884  14.020
49439W        W21055  18.302   4.659   2.818
49440W        W21056  10.256  20.795  13.038
49441W        W21057  33.443  39.804  10.746
49442W        W21058  15.717  20.818   2.350
49443W        W21059  10.769   9.767  12.772
49444W        W21060  28.466   2.664  11.635
49445W        W21061  15.310  17.265  14.742
49446W        W21062   0.082   7.619  14.417
49447W        W21063  42.082  12.700   1.766
49448W        W21064  27.515  31.367  10.684
49449W        W21065  34.637  31.576  10.357
49450W        W21066  11.828  34.417  13.330
49451W        W21067   2.295  11.225   1.213
49452W        W21068   1.902  43.270   0.798
49453W        W21069  24.470  17.518  13.157
49454W        W21070  10.141  35.635   0.452
49455W        W21071  15.893  40.551   2.981
49456W        W21072  15.637   9.646  12.006
49457W        W21073  37.106  44.849  13.059
49458W        W21074  29.915  36.027   2.882
49459W        W21075  42.755   7.788  11.183
49460W        W21076   7.264  22.218   3.300
49461W        W21077  20.298   6.288  14.380
49462W        W21078  18.281  27.418  12.914
49463W        W21079  14.913   1.328   1.385
49464W        W21080  27.897  33.634  11.981
49465W        W21081  34.096   2.882   3.248
49466W        W21082   3.291   3.273   4.232
49467W        W21083  14.517   8.931   3.610
49468W        W21084  10.755   8.437   0.498
49469W        W21085   2.722  16.836   0.351
49470W        W21086   4.618  27.126  13.938
49471W        W21087   0.927  40.625  13.783
49472W        W21088  34.116  28.935  11.708
49473W        W21089  23.006  39.492   3.653
49474W        W21090  10.604  18.354   4.046
49475W        W21091  42.909  36.053   3.649
49476W        W21092  28.150  32.979   2.669
49477W        W21093  21.928   3.898  13.776
49478W        W21094   6.946  36.415   2.348
49479W        W21095  24.146   8.181  13.069
49480W        W21096  24.208   6.766   0.292
49481W        W21097   6.406  42.306   2.478
49482W        W21098   7.213   2.528  12.666
49483W        W21099  23.039  31.142  13.794
49484W        W21100  13.974   8.117  12.586
49485W        W21101   1.123  26.388  11.982
49486W        W21102  34.545   2.488  12.140
49487W        W21103  18.142  41.013  12.263
49488W        W21104  39.847  34.637   1.639
49489W        W21105  24.993   0.662   1.709
49490W        W21106  40.971  14.200   0.770
49491W        W21107  18.268  10.823  13.008
49492W        W21108  26.539  18.113   4.443
49493W        W21109   5.660  38.911  12.021
49494W        W21110  22.760  23.409   3.304
49495W        W21111  15.662  43.791   0.965
49496W        W21112  26.404  13.819   3.653
49497W        W21113  42.716  24.193  12.159
49498W        W21114  41.810  16.729   4.546
49499W        W21115  37.211   1.530  10.139
49500W        W21116  12.313  24.608  10.673
49501W        W21117  24.973  15.113  11.311
49502W        W21118  18.857  17.646  10.101
49503W        W21119  32.565  43.035  11.535
49504W        W21120  41.932  36.956   1.714
49505W        W21121  31.240   6.181   2.693
49506W        W21122  20.575  42.759   0.827
49507W        W21123  24.587  34.567  11.643
49508W        W21124   1.301  16.195  11.490
49509W        W21125  38.901  39.802   1.795
49510W        W21126  31.508  32.561  14.930
49511W        W21127  31.026  38.364   2.156
49512W        W21128   9.767   9.975   0.464
49513W        W21129  20.802  24.014  13.047
49514W        W21130  34.193  24.681  10.617
49515W        W21131   1.474  25.557  12.548
49516W        W21132  10.310  20.194   4.115
49517W        W21133  42.625  26.517  10.912
49518W        W21134  18.964  15.716  11.128
49519W        W21135  26.770   5.211   4.582
49520W        W21136  43.412  38.200   4.855
49521W        W21137  12.168   4.429   0.727
49522W        W21138  20.566   3.002   4.557
49523W        W21139  42.893  18.225   0.576
49524W        W21140  29.587  40.995   2.337
49525W        W21141   6.413  17.797  14.526
49526W        W21142  14.775  18.660  14.927
49527W        W21143   1.811  18.122  10.546
49528W        W21144  19.952  22.135   0.968
49529W        W21145  18.735  30.919   4.083
49530W        W21146  39.924  17.125   0.577
49531W        W21147  44.342  25.935  13.302
49532W        W21148  25.519  44.112   0.790
49533W        W21149  18.723   4.389  10.652
49534W        W21150  14.258  29.083  10.975
49535W        W21151   5.319   0.532   5.576
49536W        W21152  12.684  35.095   0.913
49537W        W21153  40.340  14.263   0.314
49538W        W21154  15.529  41.848  11.527
49539W        W21155  38.960  14.156  14.145
49540W        W21156  23.033  11.734   0.321
49541W        W21157  39.310  24.690   0.486
49542W        W21158   5.676  16.581   3.137
49543W        W21159  23.948  32.674   4.126
49544W        W21160  22.741  12.658  14.564
49545W        W21161   3.350   5.246  12.426
49546W        W21162  24.150  23.592   3.855
49547W        W21163  42.926  24.346  12.583
49548W        W21164  19.970   6.255   0.134
49549W        W21165  14.446   9.841   1.411
49550W        W21166  33.085  27.015   3.238
49551W        W21167  21.285  42.334  14.997
49552W        W21168  44.269   8.180   3.273
49553W        W21169  11.575  44.449  10.724
49554W        W21170  33.606  39.319   3.648
49555W        W21171   1.464  26.075  14.798
49556W        W21172   0.702  16.687  12.415
49557W        W21173  31.414  34.776   2.933
49558W        W21174   0.444  31.523  11.247
49559W        W21175  43.911  12.877  10.780
49560W        W21176   7.844  25.299  10.325
49561W        W21177  30.047  27.429  14.650
49562W        W21178  32.826   0.758  13.753
49563W        W21179  42.788  20.084   1.037
49564W        W21180  32.231  31.316  11.051
49565W        W21181  19.047  12.390  14.265
49566W        W21182  14.292   9.294  13.288
49567W        W21183  14.774   4.481  12.627
49568W        W21184  34.554  29.440  11.097
49569W        W21185  28.944  34.503  13.523
49570W        W21186  30.561  21.726   0.486
49571W        W21187   6.620  30.590   2.686
49572W        W21188  14.856   4.169   2.241
49573W        W21189  44.088  40.995   3.991
49574W        W21190   8.656  34.169  10.597
49575W        W21191   3.381   4.820   2.770
49576W        W21192  18.065  23.194  11.424
49577W        W21193  12.122  41.452   2.179
49578W        W21194  42.056  42.516   2.297
49579W        W21195  26.709  11.110  11.914
49580W        W21196  22.722  22.651   0.917
49581W        W21197   0.372  29.916   0.444
49582W        W21198  16.275  14.513  10.992
49583W        W21199  37.362  15.192  12.586
49584W        W21200  29.908  15.840  14.461
49585W        W21201   7.892   6.947   1.609
49586W        W21202  28.646  26.068  13.537
49587W        W21203   6.077   1.838   1.757
49588W        W21204  11.265  23.734   4.142
49589W        W21205  21.103  14.119   2.482
49590W        W21206  39.976  44.382  14.787
49591W        W21207   5.687  33.201   0.970
49592W        W21208  29.523  35.612  11.882
49593W        W21209  38.196   9.696   4.680
49594W        W21210  42.061  32.608   0.884
49595W        W21211  27.463  26.790  13.919
49596W        W21212  19.730  33.439  14.356
49597W        W21213   8.462  34.590   2.077
49598W        W21214  34.949  31.102  11.081
49599W        W21215  27.990  25.206   4.547
49600W        W21216  22.083  26.176  14.004
49601W        W21217  26.078  28.423   3.685
49602W        W21218  38.397  42.074  13.509
49603W        W21219  15.300  39.404  12.409
49604W        W21220   5.929   7.258   1.435
49605W        W21221  42.827  38.064   0.351
49606W        W21222  14.473  27.256   4.150
49607W        W21223  41.515  35.816   0.693
49608W        W21224   1.901  24.030  13.040
49609W        W21225  31.561  24.686   2.617
49610W        W21226  21.821  43.478  13.729
49611W        W21227  38.558  24.102   1.713
49612W        W21228   9.129  43.570   2.241
49613W        W21229  21.612  12.656  13.542
49614W        W21230  17.130  29.411   4.966
49615W        W21231  10.224   5.437   3.599
49616W        W21232  11.551  19.762  14.044
49617W        W21233  13.771  44.069   3.760
49618W        W21234  29.400  11.480   3.617
49619W        W21235  16.727  28.668   0.246
49620W        W21236   6.790  12.272   3.280
49621W        W21237  33.530  12.836  11.685
49622W        W21238  36.307  42.327   1.880
49623W        W21239  20.685  29.321  12.516
49624W        W21240  39.995   8.720  11.526
49625W        W21241  24.159  15.079   3.687
49626W        W21242  30.896   1.851   4.092
49627W        W21243  11.753   5.845   2.033
49628W        W21244  14.790  33.043   5.397
49629W        W21245  29.085  19.003   1.857
49630W        W21246  22.500  14.121   3.341
49631W        W21247  32.768  35.732  12.618
49632W        W21248  26.493   9.874  13.322
49633W        W21249  39.548  29.695  13.804
49634W        W21250  18.614   8.796   4.636
49635W        W21251   5.738  30.816   0.858
49636W        W21252   9.216  27.371  14.532
49637W        W21253  29.575   9.477   3.775
49638W        W21254  23.627  28.958   0.176
49639W        W21255  24.553  27.605  11.071
49640W        W21256  16.146  13.105   0.012
49641W        W21257  21.093  32.165   3.751
49642W        W21258  30.811  21.001   3.810
49643W        W21259   2.718  33.617   3.302
49644W        W21260   0.656  33.789   4.160
49645W        W21261  19.643  33.452  13.365
49646W        W21262  43.862  32.400   4.559
49647W        W21263  15.105  29.959  13.614
49648W        W21264   7.923  38.463  13.985
49649W        W21265  22.508  28.151  13.939
49650W        W21266  20.164   3.430  12.839
49651W        W21267  29.461  44.553   4.110
49652W        W21268  24.485  14.575   0.859
49653W        W21269  24.740  38.027   2.731
49654W        W21270  29.910  21.004   3.788
49655W        W21271  36.684  26.515  11.066
49656W        W21272  13.850   1.434   1.420
49657W        W21273  24.021   0.016   0.367
49658W        W21274  19.786   9.309   0.256
49659W        W21275   4.489  39.747  11.958
49660W        W21276  29.213  15.501   5.433
49661W        W21277  15.744  17.451   2.496
49662W        W21278   2.986  33.823  10.496
49663W        W21279  38.671   9.889  10.047
49664W        W21280  33.193  39.061   3.836
49665W        W21281   8.851  39.849  11.001
49666W        W21282   5.674   6.608  14.390
49667W        W21283  11.972   9.350  14.507
49668W        W21284  11.135   8.310   1.866
49669W        W21285  21.920  30.455  12.878
49670W        W21286   6.917   1.897  14.846
49671W        W21287  35.279  30.853   2.749
49672W        W21288  25.709  43.184   4.563
49673W        W21289  35.526   4.200   4.548
49674W        W21290  26.509  20.764   0.852
49675W        W21291  33.882   9.837  10.337
49676W        W21292  21.613   3.372   2.286
49677W        W21293   9.658  36.526  12.321
49678W        W21294  27.977  28.378  11.570
49679W        W21295  29.557  19.109  12.999
49680W        W21296  44.405  39.535  10.765
49681W        W21297  20.994  20.730   2.730
49682W        W21298  43.044  23.820   3.240
49683W        W21299   5.286   1.211  10.374
49684W        W21300  32.714  39.234  11.234
49685W        W21301  31.338  24.393  14.746
49686W        W21302  20.970  38.335   3.729
49687W        W21303  27.418   1.372   4.626
49688W        W21304  36.605  37.884   0.396
49689W        W21305  22.524   4.268  14.826
49690W        W21306  34.537  23.540   2.814
49691W        W21307  44.390   5.026  14.980
49692W        W21308  15.045   6.980   9.755
49693W        W21309  36.432  17.337  11.136
49694W        W21310  44.325  24.164   2.399
49695W        W21311  15.099  37.148  12.621
49696W        W21312  38.789  25.486  11.012
49697W        W21313  15.852  11.605  14.301
49698W        W21314  17.790  12.900  11.625
49699W        W21315  36.848  29.493  12.988
49700W        W21316  29.691  32.332   2.769
49701W        W21317  17.597  32.174  12.427
49702W        W21318  32.017  30.175  10.329
49703W        W21319   6.916   8.603  11.474
49704W        W21320   5.736  38.342   2.822
49705W        W21321  34.847  33.618   1.438
49706W        W21322   0.385   0.014  11.534
49707W        W21323  22.507   1.388   1.430
49708W        W21324  33.569  29.684   0.269
49709W        W21325  13.541  40.918  14.951
49710W        W21326  44.016  23.912   4.751
49711W        W21327  34.121   3.293   4.758
49712W        W21328  40.157   2.746   4.227
49713W        W21329  40.023  21.974  11.181
49714W        W21330  25.242  31.443   2.434
49715W        W21331  41.537  31.839  14.885
49716W        W21332  35.773  28.314   4.328
49717W        W21333   9.056  40.993   3.638
49718W        W21334  34.598  37.477   3.049
49719W        W21335  19.184  13.251  14.757
49720W        W21336  20.789  22.953  14.826
49721W        W21337  25.148  29.611  11.680
49722W        W21338  19.532   1.823   2.476
49723W        W21339  12.360  22.466  12.299
49724W        W21340   0.794   7.102   0.439
49725W        W21341  43.799   3.175   2.234
49726W        W21342   6.303  39.164   4.834
49727W        W21343  28.649  22.457   3.806
49728W        W21344  27.312  42.522   3.617
49729W        W21345   4.493  21.548  10.416
49730W        W21346  25.486  10.430   3.637
49731W        W21347  36.482   4.298   2.121
49732W        W21348   3.866   7.452  12.073
49733W        W21349  13.886   6.746   3.718
49734W        W21350  26.749  33.901   2.327
49735W        W21351  32.559  38.259  12.816
49736W        W21352  24.637  26.395  13.864
49737W        W21353   6.914  15.631   9.918
49738W        W21354  41.004  17.669  14.745
49739W        W21355  10.164  43.761   2.865
49740W        W21356   2.251  18.597  12.013
49741W        W21357  26.131  14.485   3.424
49742W        W21358  19.412  42.279   1.890
49743W        W21359   2.507   9.194  12.618
49744W        W21360  11.819   8.610   4.190
49745W        W21361  24.989  16.578   2.355
49746W        W21362  15.037  31.026  12.396
49747W        W21363   8.295  41.770  12.429
49748W        W21364   3.795  12.777  13.046
49749W        W21365  40.942  24.571   3.706
49750W        W21366  34.863  33.873   0.227
49751W        W21367  15.621   1.390  12.962
49752W        W21368  41.073   4.795  14.080
49753W        W21369  44.012   0.262  13.431
49754W        W21370   6.221  18.352   3.163
49755W        W21371  22.364  21.564  11.631
49756W        W21372  34.301  25.487  10.707
49757W        W21373  36.518  10.594  10.677
49758W        W21374  39.893   1.700  11.618
49759W        W21375   2.215  28.675   0.392
49760W        W21376  19.063  38.818   3.812
49761W        W21377  23.959  38.464   0.100
49762W        W21378  31.449  39.116  12.473
49763W        W21379  35.471   5.949   2.848
49764W        W21380  11.812  41.534  11.650
49765W        W21381  34.996  32.620   2.148
49766W        W21382   4.873   0.110  14.527
49767W        W21383  40.954   2.152  14.541
49768W        W21384  15.540  15.280   1.340
49769W        W21385  32.311   2.477  10.712
49770W        W21386  14.706  44.036   0.763
49771W        W21387  10.385  25.458   1.301
49772W        W21388  11.253  24.625   4.767
49773W        W21389  20.709  36.859   1.928
49774W        W21390  19.532   7.420  13.429
49775W        W21391  43.504  17.230   0.842
49776W        W21392  38.985  10.591   5.534
49777W        W21393  33.046  25.625   2.343
49778W        W21394   9.786  37.106  10.617
49779W        W21395  20.778  26.705   2.909
49780W        W21396  33.450  43.076   2.554
49781W        W21397  43.837  21.768   3.299
49782W        W21398  21.988  37.547   2.897
49783W        W21399   2.744   0.036  12.394
49784W        W21400  31.197  44.650   5.125
49785W        W21401  43.056  43.928  14.358
49786W        W21402  43.313  12.568  14.670
49787W        W21403   6.612  18.804  11.091
49788W        W21404  42.570   7.236   3.207
49789W        W21405  44.658   5.264   3.261
49790W        W21406  32.984  13.508   0.368
49791W        W21407  35.688  23.158   0.022
49792W        W21408   1.974  31.523   4.856
49793W        W21409   5.875   7.448  13.407
49794W        W21410  23.283  16.831  12.450
49795W        W21411  12.534  41.083  14.835
49796W        W21412  22.746  13.602  10.863
49797W        W21413  29.087  25.175   2.166
49798W        W21414  43.922  35.486  10.453
49799W        W21415  38.041  23.288  11.567
49800W        W21416  36.574  28.636   2.588
49801W        W21417   5.267  42.487   3.742
49802W        W21418  26.168  17.570   0.733
49803W        W21419  33.558  14.862   1.796
49804W        W21420  18.294   4.751   0.439
49805W        W21421  15.194  20.496   4.133
49806W        W21422  28.035  34.450   0.521
49807W        W21423  11.531  40.442   3.552
49808W        W21424  41.160  30.187  10.598
49809W        W21425   9.877  31.900  13.350
49810W        W21426  18.092  32.518   1.304
49811W        W21427  20.276  16.700  12.637
49812W        W21428  25.064   3.126   1.802
49813W        W21429  18.764  12.778   3.545
49814W        W21430  30.875   7.437   3.830
49815W        W21431  43.284   7.454   0.527
49816W        W21432  40.807  30.076   1.495
49817W        W21433  37.860   9.781   2.645
49818W        W21434  26.003  39.827   1.487
49819W        W21435  39.802   2.315   1.375
49820W        W21436   8.662  34.954   1.744
49821W        W21437  43.917   5.050  11.618
49822W        W21438  10.549  32.333   4.505
49823W        W21439   5.269  21.244   3.194
49824W        W21440   4.873  36.831   0.848
49825W        W21441   1.673  14.773  10.875
49826W        W21442  42.010   1.970  12.981
49827W        W21443   9.126   4.122  12.011
49828W        W21444  14.054   3.844   4.700
49829W        W21445  40.987  32.438   4.322
49830W        W21446  39.898  44.951   4.287
49831W        W21447  43.137  17.596  13.996
49832W        W21448   8.099  34.292  14.305
49833W        W21449  23.655  27.085  14.585
49834W        W21450   0.240  25.806  14.043
49835W        W21451  15.270   8.747  13.145
49836W        W21452  21.034  11.999   3.636
49837W        W21453  42.342  42.982  11.422
49838W        W21454  39.538  35.621  14.899
49839W        W21455   9.284   7.122  11.940
49840W        W21456  42.056  41.104   2.572
49841W        W21457  31.039  26.241   3.258
49842W        W21458   2.877  24.411   3.678
49843W        W21459  28.176  43.420  12.036
49844W        W21460  43.955   5.219  14.792
49845W        W21461  33.061  44.051  12.887
49846W        W21462  29.870  14.201   2.161
49847W        W21463   4.245  15.788   4.138
49848W        W21464  30.062   5.107   2.279
49849W        W21465  19.080   9.826  14.776
49850W        W21466  22.612  39.417  11.607
49851W        W21467  18.449  34.941   2.868
49852W        W21468  35.537  15.144  10.678
49853W        W21469  16.302  40.753   1.824
49854W        W21470   1.740  43.532   1.284
49855W        W21471  30.925  37.598  13.920
49856W        W21472  12.336  43.265  11.582
49857W        W21473  34.157  28.720  13.407
49858W        W21474  17.337  27.876   4.104
49859W        W21475  11.695   0.025   3.648
49860W        W21476  44.947   3.999   0.349
49861W        W21477  34.010  20.762  13.827
49862W        W21478  30.933  27.218   1.029
49863W        W21479  33.985  28.992  13.797
49864W        W21480   1.299  44.654   4.186
49865W        W21481  16.025  41.880   0.732
49866W        W21482  25.050   5.740  11.831
49867W        W21483  26.982  22.210  11.241
49868W        W21484  17.906  25.628  13.768
49869W        W21485  42.220   8.819  11.131
49870W        W21486  43.528   9.254   2.198
49871W        W21487  12.277  27.529  13.664
49872W        W21488   8.969  12.472   1.382
49873W        W21489   4.416  38.820  11.962
49874W        W21490   4.177  30.415   0.446
49875W        W21491  26.520  25.452   4.751
49876W        W21492   2.801  15.487  13.741
49877W        W21493   5.386  33.978  11.618
49878W        W21494  28.373   9.661  10.417
49879W        W21495   2.437   7.014   4.124
49880W        W21496  27.789   0.828   4.022
49881W        W21497  12.728   2.348  13.416
49882W        W21498  32.756   4.852   2.402
49883W        W21499   4.184  28.279  12.528
49884W        W21500  15.686  40.567  13.003
49885W        W21501  38.998  10.087   2.266
49886W        W21502   5.379  21.571   0.731
49887W        W21503  33.779  16.822  11.210
49888W        W21504   8.328  19.403  12.508
49889W        W21505  31.408  32.993  14.664
49890W        W21506   7.576  44.402   2.818
49891W        W21507  37.568   6.342  12.104
49892W        W21508   1.979  35.307  13.023
49893W        W21509  17.162  21.300  13.886
49894W        W21510  42.549   6.838   2.194
49895W        W21511   4.326  39.512  11.504
49896W        W21512  10.887  35.427   0.787
49897W        W21513  21.277  42.412  13.103
49898W        W21514   5.336  11.587  11.051
49899W        W21515  30.705  14.034  13.531
49900W        W21516   4.726   8.368  12.159
49901W        W21517  33.853  12.606   0.721
49902W        W21518  39.701  29.022  11.043
49903W        W21519  11.307  39.710   3.999
49904W        W21520   8.680  34.140   4.676
49905W        W21521  22.305  22.206  14.998
49906W        W21522  17.073  28.032  14.747
49907W        W21523  28.177  35.585  14.872
49908W        W21524   1.446   1.302  11.836
49909W        W21525  40.063  19.076   4.123
49910W        W21526  44.696  18.185   1.932
49911W        W21527  39.336  43.319   2.726
49912W        W21528  38.213  18.048   1.021
49913W        W21529  12.856  27.185  11.951
49914W        W21530  33.572  29.199   1.411
49915W        W21531  14.885  14.972   2.353
49916W        W21532  23.887  44.541   4.968
49917W        W21533  37.013  30.428  12.590
49918W        W21534  10.596  26.529   0.302
49919W        W21535   6.060  28.463   3.202
49920W        W21536  10.959  40.133  10.927
49921W        W21537  14.184  33.612  13.609
49922W        W21538  20.068   7.963  12.496
49923W        W21539  38.043  33.013   1.780
49924W        W21540   4.846   9.657   4.095
49925W        W21541  27.132   0.432   0.903
49926W        W21542  36.512  26.722   1.350
49927W        W21543  10.038  25.067  12.867
49928W        W21544  34.301  32.408   4.398
49929W        W21545  25.568  27.808  10.231
49930W        W21546  10.063  26.575   5.076
49931W        W21547   0.707  19.184   1.515
49932W        W21548  12.606  42.413  11.213
49933W        W21549  15.819  14.262  13.099
49934W        W21550  10.927  25.886  14.415
49935W        W21551   5.791   7.755   4.687
49936W        W21552   3.608  39.677  13.520
49937W        W21553   8.702  25.733   2.661
49938W        W21554  11.632   7.315   3.652
49939W        W21555  23.742   3.639   3.722
49940W        W21556  13.075   8.172  13.991
49941W        W21557   5.820  36.096  11.984
49942W        W21558   6.962   8.872   4.670
49943W        W21559   5.122  30.808  12.399
49944W        W21560  43.478   5.927   2.404
49945W        W21561  29.482  33.072   2.266
49946W        W21562  32.565  36.041   2.150
49947W        W21563  44.218  21.561  12.182
49948W        W21564  26.651   7.073   3.191
49949W        W21565  27.175  14.263  10.578
49950W        W21566   6.032  39.331   0.402
49951W        W21567  13.166  42.524  14.015
49952W        W21568  19.013  19.538  11.994
49953W        W21569  38.392   7.719   4.573
49954W        W21570   2.199   6.330   4.545
49955W        W21571   0.668  40.865   1.090
49956W        W21572  10.719   2.307   2.373
49957W        W21573  36.603  38.742   0.882
49958W        W21574  27.739   9.234   2.164
49959W        W21575  30.890  13.779  13.101
49960W        W21576  33.709  44.912  14.980
49961W        W21577  11.873  33.131   1.765
49962W        W21578  37.884  33.477  13.260
49963W        W21579   2.335  33.532  13.470
49964W        W21580  16.338  15.061   5.020
49965W        W21581  19.029  14.787   2.550
49966W        W21582  30.438  14.575  14.476
49967W        W21583   4.214  20.406  10.748
49968W        W21584   2.784   3.436   2.074
49969W        W21585  15.230  25.607   3.900
49970W        W21586   0.271  27.180   2.836
49971W        W21587  34.943  43.809  12.920
49972W        W21588  44.896  28.387  14.682
49973W        W21589   1.423  33.170   4.260
49974W        W21590  35.933  19.989   1.361
49975W        W21591  16.392   7.662  12.826
49976W        W21592  15.868   3.470  13.429
49977W        W21593   1.539   4.424  12.991
49978W        W21594  27.785  23.262   2.773
49979W        W21595  34.243   2.750   2.572
49980W        W21596  37.750  42.543   4.352
49981W        W21597  19.121  34.393   0.968
49982W        W21598  21.580  36.768   0.795
49983W        W21599  41.966   8.421   4.543
49984W        W21600  14.168  35.329   0.340
49985W        W21601  35.094   5.199  12.998
49986W        W21602  25.742  33.883   3.342
49987W        W21603  27.732  26.708   1.839
49988W        W21604  40.546  25.586  13.306
49989W        W21605  32.160  18.712  11.948
49990W        W21606  16.805  44.278  13.525
49991W        W21607  34.922  33.398   0.415
49992W        W21608  36.947  39.336   2.923
49993W        W21609  32.402   0.889  11.662
49994W        W21610  14.137  29.707  13.014
49995W        W21611  23.675  33.918   2.278
49996W        W21612  19.692   4.291   3.395
49997W        W21613  11.109   1.953  14.998
49998W        W21614  42.534  18.794   4.503
49999W        W21615   8.960  12.006  12.333
50000W        W21616  28.797   7.820   0.978
50001W        W21617  10.914  34.403  12.556
50002W        W21618  27.034  22.027   4.116
50003W        W21619   9.157  33.127  14.886
50004W        W21620  32.354  14.213   3.135
50005W        W21621  11.743  35.784  14.022
50006W        W21622  41.906  20.822   4.463
50007W        W21623   9.965  43.631   3.333
50008W        W21624   0.320  27.678  10.768
50009W        W21625  35.387  14.059  13.718
50010W        W21626  36.884  30.702  11.018
50011W        W21627  41.849  12.827  12.555
50012W        W21628  44.009  27.597   2.978
50013W        W21629  18.020  43.414   3.607
50014W        W21630  29.907  35.103  14.248
50015W        W21631  19.280  14.572   0.763
50016W        W21632  38.643  33.503  14.423
50017W        W21633   8.929  30.383   1.036
50018W        W21634   7.454  21.056   2.827
50019W        W21635   0.781   1.359  11.113
50020W        W21636   6.429   1.788  13.835
50021W        W21637   4.581  13.203  14.037
50022W        W21638   8.636  34.946   2.727
50023W        W21639  36.128  14.975   4.196
50024W        W21640  14.460  14.679   2.472
50025W        W21641  30.311  42.279   3.219
50026W        W21642  34.090  10.948   1.935
50027W        W21643   9.532  10.322   1.117
50028W        W21644  29.940  32.488  12.928
50029W        W21645  25.228  11.833   4.876
50030W        W21646  25.742  12.663   3.405
50031W        W21647  42.144  13.865   0.313
50032W        W21648   5.221   8.455   2.274
50033W        W21649  27.507   1.545   3.542
50034W        W21650  42.299  39.571   1.238
50035W        W21651  28.060  15.795   0.501
50036W        W21652  23.243  32.029   3.615
50037W        W21653  18.113  16.498   3.634
50038W        W21654  32.810  20.586  14.991
50039W        W21655  27.863  17.723   0.203
50040W        W21656   2.235  28.180  14.605
50041W        W21657  12.209  11.155  12.488
50042W        W21658  31.562   0.480  13.504
50043W        W21659  43.246  24.233  13.908
50044W        W21660  26.671  12.664  14.242
50045W        W21661   9.307  37.757   1.394
50046W        W21662  25.688  13.224   2.301
50047W        W21663  25.201  37.135   2.815
50048W        W21664   8.895  37.605  13.608
50049W        W21665   2.459  15.522  12.023
50050W        W21666  23.520  19.637  14.808
50051W        W21667   8.367  40.119   4.128
50052W        W21668   1.018  14.214   0.019
50053W        W21669  24.644  39.194  10.736
50054W        W21670  21.202  40.076  14.830
50055W        W21671  27.605   1.237   0.482
50056W        W21672  25.261  32.176  12.962
50057W        W21673  43.320  11.513   0.134
50058W        W21674  21.401  39.611   1.068
50059W        W21675   4.910  21.303  10.174
50060W        W21676  23.361  19.626  12.875
50061W        W21677  27.718  35.408  14.731
50062W        W21678  28.119  16.031   3.359
50063W        W21679   0.117  25.731  12.167
50064W        W21680  31.521  22.979  12.527
50065W        W21681  37.458  39.845  14.435
50066W        W21682  23.627  17.653  11.962
50067W        W21683  37.240   9.845  10.488
50068W        W21684  17.169  17.607  10.716
50069W        W21685  28.579  44.556   0.347
50070W        W21686  32.849   5.743   4.131
50071W        W21687   9.310  14.871  12.480
50072W        W21688  37.808  38.823  13.488
50073W        W21689  31.035  19.421   5.318
50074W        W21690  14.310  36.290  11.557
50075W        W21691  14.875  12.363  11.063
50076W        W21692  15.091   8.622   1.323
50077W        W21693  26.043  19.275  14.422
50078W        W21694  41.542  42.692   0.982
50079W        W21695  26.447  28.205   2.185
50080W        W21696   5.825  14.675   3.218
50081W        W21697  32.488  28.509   2.804
50082W        W21698  24.307  24.746  13.324
50083W        W21699  28.622   6.704   3.896
50084W        W21700  24.210  22.802   1.396
50085W        W21701  38.392  21.049   0.191
50086W        W21702   8.413  24.427   1.973
50087W        W21703   9.344  41.369  14.260
50088W        W21704  27.045  16.807  13.362
50089W        W21705  32.902  10.623  11.994
50090W        W21706   3.253  36.484  13.427
50091W        W21707  26.147  43.627  13.705
50092W        W21708  38.531  21.788  11.571
50093W        W21709  43.989   3.896   3.758
50094W        W21710  11.665   3.472  10.496
50095W        W21711  41.055  19.147   1.353
50096W        W21712  31.601  44.742  10.003
50097W        W21713  42.001  41.124  11.541
50098W        W21714  17.135  28.574   0.547
50099W        W21715  10.640   2.128   2.860
50100W        W21716  13.046  29.782  14.526
50101W        W21717  23.131  12.862   1.370
50102W        W21718  26.727  14.573  12.303
50103W        W21719  17.031  41.049  13.746
50104W        W21720   3.727  24.328   5.538
50105W        W21721  35.915  30.499   1.190
50106W        W21722  23.627   4.748  10.716
50107W        W21723  37.660  11.686   0.465
50108W        W21724  20.217  40.243   4.216
50109W        W21725  10.586  33.275  14.574
50110W        W21726  40.440  28.027   2.156
50111W        W21727   2.577  13.361  12.193
50112W        W21728  15.199  27.530  14.843
50113W        W21729  42.057   7.017   2.335
50114W        W21730   9.673   3.616   0.408
50115W        W21731  22.997  11.340   3.123
50116W        W21732  21.969  39.187   0.530
50117W        W21733  16.085  44.472  12.868
50118W        W21734  16.208  29.953  10.777
50119W        W21735  35.603   3.877   1.453
50120W        W21736  14.346  18.709  11.928
50121W        W21737  15.895   7.030   2.753
50122W        W21738   5.285  14.533   2.890
50123W        W21739  10.348  44.762  14.801
50124W        W21740  25.476  37.803   1.840
50125W        W21741   2.028  31.075  13.529
50126W        W21742  25.240  21.234  13.494
50127W        W21743  39.064  37.982   0.431
50128W        W21744  16.283   3.065  14.854
50129W        W21745  28.719  44.403  14.455
50130W        W21746   0.197  16.280   4.628
50131W        W21747  27.526  41.924  12.633
50132W        W21748  19.626  39.373   4.271
50133W        W21749  22.893  33.031  11.338
50134W        W21750  32.389  34.996  12.338
50135W        W21751  24.492  29.448   0.499
50136W        W21752  10.120  38.965  14.845
50137W        W21753  12.626  15.167  11.114
50138W        W21754  37.001  17.949  12.300
50139W        W21755  22.588   0.437  10.677
50140W        W21756  31.456  25.202   1.878
50141W        W21757   1.923   2.139   4.912
50142W        W21758   1.417  23.035  12.721
50143W        W21759  30.419   7.488  13.780
50144W        W21760  26.691  37.971  11.581
50145W        W21761  34.539  19.118  14.781
50146W        W21762  34.841  40.311  10.837
50147W        W21763  41.403  37.126  11.668
50148W        W21764  12.184  41.508  12.515
50149W        W21765  23.613  16.990   4.452
50150W        W21766  24.253   1.834   4.585
50151W        W21767  18.693  44.626   9.796
50152W        W21768   9.194  10.364  14.335
50153W        W21769  13.239  27.262  12.885
50154W        W21770   7.692  36.596  14.530
50155W        W21771  15.213  44.053  13.180
50156W        W21772   4.487  41.838   4.320
50157W        W21773  37.796  21.808   2.997
50158W        W21774  14.693   7.293  14.111
50159W        W21775  32.983   2.087   5.693
50160W        W21776  30.720  37.604  12.534
50161W        W21777  16.456   1.443  12.648
50162W        W21778  39.357  28.596  14.198
50163W        W21779   4.541  38.363   2.204
50164W        W21780  32.859  17.128  11.086
50165W        W21781  29.006  22.662   2.892
50166W        W21782  11.610  17.457  12.055
50167W        W21783  30.007  15.675   1.333
50168W        W21784   1.720   8.301   4.156
50169W        W21785  44.311  21.918  12.560
50170W        W21786  31.047  28.116  10.701
50171W        W21787  11.561  23.638   3.742
50172W        W21788  20.745  17.573  11.236
50173W        W21789  15.796  32.149  13.649
50174W        W21790   9.727  43.309   2.630
50175W        W21791  24.916  32.632   3.862
50176W        W21792  28.994   7.804   4.966
50177W        W21793  35.620  37.244  13.814
50178W        W21794   2.627  27.486   2.443
50179W        W21795  36.959  34.514   4.106
50180W        W21796  39.904  11.440  12.047
50181W        W21797  42.808  32.065  12.886
50182W        W21798  16.870   9.225  13.857
50183W        W21799  35.519  23.171   0.870
50184W        W21800  21.114  15.713   2.242
50185W        W21801  34.872  14.151  14.375
50186W        W21802  23.156  35.636  13.736
50187W        W21803  23.178  13.840  11.466
50188W        W21804  23.193   0.391   1.297
50189W        W21805  24.783  37.652  12.140
50190W        W21806   0.592  26.525  12.018
50191W        W21807  13.042  29.126  10.742
50192W        W21808   1.622  41.269   0.681
50193W        W21809  21.041  38.993  14.995
50194W        W21810   7.848  23.340   3.677
50195W        W21811   6.404  22.012   4.325
50196W        W21812  15.343  28.710   1.992
50197W        W21813   7.952   8.517   0.275
50198W        W21814  31.736  39.460  11.208
50199W        W21815  42.092   3.510   1.281
50200W        W21816  23.142  34.632   4.569
50201W        W21817  41.842  28.833  12.713
50202W        W21818  33.783  30.497  11.547
50203W        W21819  43.760  18.109   0.319
50204W        W21820   9.669  41.578   2.160
50205W        W21821  44.022  13.768  12.087
50206W        W21822  34.392  39.324  14.029
50207W        W21823  22.273  22.143   3.359
50208W        W21824  12.667   2.324   3.832
50209W        W21825  31.118   0.440  10.124
50210W        W21826  26.979  31.872   0.556
50211W        W21827  40.034  36.602  14.528
50212W        W21828   6.375   3.256  11.430
50213W        W21829  17.184  13.122  12.020
50214W        W21830  23.010  20.865   0.968
50215W        W21831  40.849  36.917  14.445
50216W        W21832  28.616  18.758  11.600
50217W        W21833   1.688  11.170   3.855
50218W        W21834   2.289  44.314  13.813
50219W        W21835   1.863   1.423   0.516
50220W        W21836  36.885  21.127  13.543
50221W        W21837  19.703  40.269   3.540
50222W        W21838  11.021  36.856  10.992
50223W        W21839  16.583  36.237   3.744
50224W        W21840  44.180  33.620  14.225
50225W        W21841  23.168  27.124  14.316
50226W        W21842  15.350  22.992  13.461
50227W        W21843  20.546   4.760  12.917
50228W        W21844  41.800  15.219   2.699
50229W        W21845  43.748  27.695  13.944
50230W        W21846  11.699   5.420  10.467
50231W        W21847  27.419  43.597   1.678
50232W        W21848  38.859  14.046   0.491
50233W        W21849  39.744  17.846   1.835
50234W        W21850  37.026  11.470   1.887
50235W        W21851   5.840  23.984  13.012
50236W        W21852  35.528  36.766   5.091
50237W        W21853   3.241   7.945  13.840
50238W        W21854  22.043  19.947   4.802
50239W        W21855   3.135  27.935   2.468
50240W        W21856  18.468  26.041  10.739
50241W        W21857  23.181  42.418   0.708
50242W        W21858  34.026   4.816  11.129
50243W        W21859  20.767  29.541   0.714
50244W        W21860  30.976  11.895   0.841
50245W        W21861  27.629   6.812   2.415
50246W        W21862  36.450  30.501   2.638
50247W        W21863  37.895  18.349   0.753
50248W        W21864   1.486  13.639  12.861
50249W        W21865  16.870  41.557   0.867
50250W        W21866  27.088  21.035   2.912
50251W        W21867  22.564   0.859   2.618
50252W        W21868   2.442  27.416   4.116
50253W        W21869  38.248  24.028  11.630
50254W        W21870  14.634  39.472   0.770
50255W        W21871  24.304  23.253  14.071
50256W        W21872  26.624  41.780   3.817
50257W        W21873  24.532  42.458   3.125
50258W        W21874  17.514  38.133  13.886
50259W        W21875  14.650   4.509   3.194
50260W        W21876  29.613   5.158  14.905
50261W        W21877  29.996  17.661   4.362
50262W        W21878  26.210   3.901   0.939
50263W        W21879   2.581  14.330   1.897
50264W        W21880   8.742  26.528  10.320
50265W        W21881   4.003  16.074   2.078
50266W        W21882  29.514  36.596   3.825
50267W        W21883   6.431  26.207  13.589
50268W        W21884  38.278  41.685  11.153
50269W        W21885  42.893   4.185   1.164
50270W        W21886   4.423   1.943  12.018
50271W        W21887  13.920   6.866   5.652
50272W        W21888  37.255   5.394   2.805
50273W        W21889   1.954  39.092   3.404
50274W        W21890   3.198   8.330   4.374
50275W        W21891   6.138  38.807  14.690
50276W        W21892   8.418  36.892  12.574
50277W        W21893  25.153  24.710  13.599
50278W        W21894  15.767  42.586   3.063
50279W        W21895   2.981  41.354   2.166
50280W        W21896  38.071  25.013   2.808
50281W        W21897  42.297  15.397  11.128
50282W        W21898  42.683   1.055   3.152
50283W        W21899  13.898   7.748  11.788
50284W        W21900  21.603   3.521  12.092
50285W        W21901  40.135   8.022   2.644
50286W        W21902  13.164   9.693  11.590
50287W        W21903  22.152   3.450  12.059
50288W        W21904  11.390  19.618   2.810
50289W        W21905  36.557  14.909   1.358
50290W        W21906  34.644   0.278  13.007
50291W        W21907  37.393   3.209   3.070
50292W        W21908   9.456  40.414   0.871
50293W        W21909   1.880  35.047  13.879
50294W        W21910  37.417  28.554   2.881
50295W        W21911   9.917   6.687  13.855
50296W        W21912   3.444  28.528   1.506
50297W        W21913   7.698   1.257   4.093
50298W        W21914   5.064   6.848  13.501
50299W        W21915  11.593  42.180  12.028
50300W        W21916  18.375   2.870  13.971
50301W        W21917  21.181  17.075   1.261
50302W        W21918   9.439   2.899  12.560
50303W        W21919  34.860  28.152   3.171
50304W        W21920  31.090   3.743   3.393
50305W        W21921  30.120  15.944  12.196
50306W        W21922  43.726  13.640  13.030
50307W        W21923  11.223  11.839  14.267
50308W        W21924  40.094  22.953  13.049
50309W        W21925   9.803  34.826   3.140
50310W        W21926  26.829  17.774   1.218
50311W        W21927   7.910  40.000  14.985
50312W        W21928  21.693  28.140   2.658
50313W        W21929  24.712   6.282  10.720
50314W        W21930  43.399   1.789   4.800
50315W        W21931  35.995   8.943  12.495
50316W        W21932   7.197  35.982  11.165
50317W        W21933  34.830  28.385  14.586
50318W        W21934  27.989  42.029  11.934
50319W        W21935  42.425   6.940  11.217
50320W        W21936  15.667   5.666   5.484
50321W        W21937  42.752  32.864   0.178
50322W        W21938  22.604   2.493  10.771
50323W        W21939  28.561  14.284  12.493
50324W        W21940  13.396  10.170  13.291
50325W        W21941  32.063   5.417  12.793
50326W        W21942  24.364  19.559   5.246
50327W        W21943  10.451   0.238   4.503
50328W        W21944  28.502  32.969  11.840
50329W        W21945  25.863   6.140  12.075
50330W        W21946  19.937  31.593   1.698
50331W        W21947   2.921  31.979   4.732
50332W        W21948   7.757  18.703  10.667
50333W        W21949  18.100   1.404   3.717
50334W        W21950  33.112  23.798   2.921
50335W        W21951   6.872   1.679  12.909
50336W        W21952  42.933  15.256   2.298
50337W        W21953  31.840  18.722  11.559
50338W        W21954  20.076   6.932   4.127
50339W        W21955  14.294  26.384  13.876
50340W        W21956   8.398  20.443   3.865
50341W        W21957  37.589  31.033   4.599
50342W        W21958  14.675  43.454  12.518
50343W        W21959   8.714  25.132  12.445
50344W        W21960   6.899  28.703   1.978
50345W        W21961   2.743  31.985  12.906
50346W        W21962  16.567  37.960  12.409
50347W        W21963   8.168  36.546   1.397
50348W        W21964  42.280   0.302  11.079
50349W        W21965  25.189   3.246  14.451
50350W        W21966   0.449  34.429   0.726
50351W        W21967   1.816  18.053   2.309
50352W        W21968   1.811  30.943   3.067
50353W        W21969  26.677  25.794   3.566
50354W        W21970   2.532  14.918   3.694
50355W        W21971  31.928  20.431  10.857
50356W        W21972  17.823   0.684  11.537
50357W        W21973  13.241  10.939  11.985
50358W        W21974  10.157  29.053  10.417
50359W        W21975  15.759  34.911  11.459
50360W        W21976  17.669  41.394   0.478
50361W        W21977  10.604  42.238  11.158
50362W        W21978  37.797   7.638   0.057
50363W        W21979  18.534  41.836   3.061
50364W        W21980   2.835  12.215   3.905
50365W        W21981  22.170  33.185   2.951
50366W        W21982  31.068  25.646  14.867
50367W        W21983   9.173  38.469   4.131
50368W        W21984  24.453   3.695   3.176
50369W        W21985  32.169  34.567  11.433
50370W        W21986  37.869  25.085   0.972
50371W        W21987  17.455  24.437  13.519
50372W        W21988  34.284   0.929  14.899
50373W        W21989  17.177  23.168   3.308
50374W        W21990   6.125  35.759   5.097
50375W        W21991   4.412  31.387   3.286
50376W        W21992   9.391  36.104   4.654
50377W        W21993  39.075  33.850  13.834
50378W        W21994  35.713  30.540  13.814
50379W        W21995   4.576  25.868  11.061
50380W        W21996  16.560  23.541   1.786
50381W        W21997  12.161   4.419  11.888
50382W        W21998  24.121   3.096  10.478
50383W        W21999  20.943   2.377   0.906
50384W        W22000   1.869   2.147  12.059
50385W        W22001  32.610  29.369  12.661
50386W        W22002   4.802   9.391  13.540
50387W        W22003  16.794  34.599   2.698
50388W        W22004  20.549  23.763  13.787
50389W        W22005  16.225  42.092  14.146
50390W        W22006   4.244  11.726  13.379
50391W        W22007  36.912   1.998  14.099
50392W        W22008  12.189  37.869   3.639
50393W        W22009  16.499  22.284   3.217
50394W        W22010  29.190  10.685  12.442
50395W        W22011   2.929  28.441  13.450
50396W        W22012   3.630  44.721  10.607
50397W        W22013  28.009  32.383   1.902
50398W        W22014  34.032   1.810  13.967
50399W        W22015  27.486  23.784  10.294
50400W        W22016   9.527  37.214   1.290
50401W        W22017   6.269  39.814   0.814
50402W        W22018  18.149  13.714  12.646
50403W        W22019  39.803  22.271  14.759
50404W        W22020  11.164  28.480   1.945
50405W        W22021  42.470  37.370   1.923
50406W        W22022  10.466  18.890   1.429
50407W        W22023  32.041  31.402  12.574
50408W        W22024   4.250  34.169   0.450
50409W        W22025  35.621  23.269   2.300
50410W        W22026  24.473  18.103   0.927
50411W        W22027  42.485   8.262   4.629
50412W        W22028  27.648  29.435   4.116
50413W        W22029  31.091   9.394   2.307
50414W        W22030  11.536  25.390  12.140
50415W        W22031  16.101  38.911  12.485
50416W        W22032  44.959  30.610  11.100
50417W        W22033  19.737   5.165   2.299
50418W        W22034  16.210   9.107   0.113
50419W        W22035  36.009  16.552  11.246
50420W        W22036   7.758  18.999   2.419
50421W        W22037  30.444  30.770  11.345
50422W        W22038  17.245  12.271  12.427
50423W        W22039  17.712   0.453  13.046
50424W        W22040  33.868  24.714   1.512
50425W        W22041  27.406  29.431   3.209
50426W        W22042  17.400  40.397   5.202
50427W        W22043  43.781  40.554   4.149
50428W        W22044   6.225  22.042   1.831
50429W        W22045   4.215  43.797  10.001
50430W        W22046  12.658  24.638   2.730
50431W        W22047  44.437  40.085   4.177
50432W        W22048  23.948   3.252   2.455
50433W        W22049   3.869   5.313   2.382
50434W        W22050  23.568  30.376   4.909
50435W        W22051  34.552  41.567   3.310
50436W        W22052  36.128  43.362   2.952
50437W        W22053  32.090  31.538   4.207
50438W        W22054  16.515  42.339   2.348
50439W        W22055   7.580  22.827  14.085
50440W        W22056  43.483   3.818  13.871
50441W        W22057  33.739  28.541  12.839
50442W        W22058   4.031  20.070  11.091
50443W        W22059  14.583   7.442  11.181
50444W        W22060  18.739  22.009  11.569
50445W        W22061   6.972  13.284   2.266
50446W        W22062  38.959  35.202   1.809
50447W        W22063  16.855   6.805   1.450
50448W        W22064  39.613  43.445  10.728
50449W        W22065  17.107  21.766   1.202
50450W        W22066  37.504  43.026  10.664
50451W        W22067  26.922  31.355   2.859
50452W        W22068   7.780  42.097  14.770
50453W        W22069  44.850  37.181  12.755
50454W        W22070   2.636  30.886  14.420
50455W        W22071  13.570  15.656  11.591
50456W        W22072  19.241   3.117  11.457
50457W        W22073  32.364   7.816   0.804
50458W        W22074  28.634  19.268  12.874
50459W        W22075  23.096  11.919  11.563
50460W        W22076  26.956   3.553  10.772
50461W        W22077  41.364  14.988  14.412
50462W        W22078  12.811  33.956   1.471
50463W        W22079   4.185  32.406   0.327
50464W        W22080  21.597  12.365  11.373
50465W        W22081  32.522  14.232   5.070
50466W        W22082  24.032  44.879  13.381
50467W        W22083  32.376  38.492   4.073
50468W        W22084   6.398  28.087   3.247
50469W        W22085  38.762  39.525  12.534
50470W        W22086   1.401   1.535   0.298
50471W        W22087  32.372  36.593   0.460
50472W        W22088   9.465  27.445   2.356
50473W        W22089   2.497  17.753   3.790
50474W        W22090  17.192  35.983  10.717
50475W        W22091   5.685  40.193  12.104
50476W        W22092  30.695  26.440  12.350
50477W        W22093  21.135   4.266   0.528
50478W        W22094  11.381  26.598  10.752
50479W        W22095  39.021  24.399  11.784
50480W        W22096  43.945  11.149  13.805
50481W        W22097  12.316  43.797   1.454
50482W        W22098  29.973  38.038  13.934
50483W        W22099  19.061  38.170  12.339
50484W        W22100  36.937  38.903  10.985
50485W        W22101  21.892  33.229   4.856
50486W        W22102  17.293  21.042  10.547
50487W        W22103  26.386   8.879  10.943
50488W        W22104  21.455  39.253   2.293
50489W        W22105  30.008   3.047   0.435
50490W        W22106  23.130  38.683   3.260
50491W        W22107  44.427  19.114  12.456
50492W        W22108  34.086  37.094   4.751
50493W        W22109  10.207  39.842  10.277
50494W        W22110  44.171  38.264   1.872
50495W        W22111  44.448   4.379  12.682
50496W        W22112   5.994  37.611  14.727
50497W        W22113  20.584   7.418  13.383
50498W        W22114  13.901  15.679   2.243
50499W        W22115  28.478  16.405   9.793
50500W        W22116  19.634  31.076  13.495
50501W        W22117   8.452  38.473  13.891
50502W        W22118   5.502  36.437   0.344
50503W        W22119   4.905  35.962  13.962
50504W        W22120  34.547  34.101   0.954
50505W        W22121  10.699  22.926  14.335
50506W        W22122  36.152  44.652  11.175
50507W        W22123  28.972  23.257   2.258
50508W        W22124  23.620  42.171  11.644
50509W        W22125   4.883   2.996   2.148
50510W        W22126  16.781  12.741   4.423
50511W        W22127  44.954  27.606   4.475
50512W        W22128  32.486  26.938   2.276
50513W        W22129  18.376   3.674   3.303
50514W        W22130  44.475  31.094   2.751
50515W        W22131  33.401  37.076   4.203
50516W        W22132   7.453  38.385  13.043
50517W        W22133  43.248   8.708   2.409
50518W        W22134   0.317  29.218  14.957
50519W        W22135   3.674  37.043  14.997
50520W        W22136   7.870  38.868  11.997
50521W        W22137  32.375   3.914   0.525
50522W        W22138   9.250  32.321   1.737
50523W        W22139  41.330  44.385  12.398
50524W        W22140   7.194   0.761  14.382
50525W        W22141  21.596  21.709   3.654
50526W        W22142  30.344  22.217   0.468
50527W        W22143  35.786   5.719   4.444
50528W        W22144  28.445  15.085  10.817
50529W        W22145  19.273  29.339  13.467
50530W        W22146  42.967  18.857   4.172
50531W        W22147  26.011  26.616   0.069
50532W        W22148   3.874  24.020  14.762
50533W        W22149  44.295  31.330  14.897
50534W        W22150   0.144  33.870   0.688
50535W        W22151   8.110  13.180   3.205
50536W        W22152  27.173   4.469   1.312
50537W        W22153  13.718  22.807  14.663
50538W        W22154   5.790  40.610  12.883
50539W        W22155  22.674  18.360  10.439
50540W        W22156   2.917  12.769  13.304
50541W        W22157  42.690  34.843  13.986
50542W        W22158  34.623  25.672   2.626
50543W        W22159  14.567  38.319  12.935
50544W        W22160  43.145  27.208  10.638
50545W        W22161  31.069   3.680  13.151
50546W        W22162  30.558   2.783   3.232
50547W        W22163  42.840  21.010   3.994
50548W        W22164  22.926  20.960   1.475
50549W        W22165   6.007   3.414  11.004
50550W        W22166   1.997  19.147   2.779
50551W        W22167  29.609   7.168   0.903
50552W        W22168  31.066  42.353  12.200
50553W        W22169  37.577  10.259  13.028
50554W        W22170   7.761  36.062   4.052
50555W        W22171  10.134  22.137  14.337
50556W        W22172  33.017  21.751   3.757
50557W        W22173   6.522   7.599   0.805
50558W        W22174   8.249   1.906  14.412
50559W        W22175  12.373  18.763   3.783
50560W        W22176   0.893  40.326  11.660
50561W        W22177  19.145  36.876   1.937
50562W        W22178  36.780   1.663   4.079
50563W        W22179  40.565   2.303   2.953
50564W        W22180  27.171  16.089   1.532
50565W        W22181  13.832   3.044  13.056
50566W        W22182  32.044  10.479  12.899
50567W        W22183  23.267  23.632  11.605
50568W        W22184  43.673  31.846   1.671
50569W        W22185  12.183  39.857   0.326
50570W        W22186   3.022  14.891  13.028
50571W        W22187  26.787  29.948  10.724
50572W        W22188  24.597  36.964   0.762
50573W        W22189  10.056  15.227   2.134
50574W        W22190   3.977  42.850   2.659
50575W        W22191   4.222  40.062   0.580
50576W        W22192   7.805   7.160   4.592
50577W        W22193  28.650   9.884   0.776
50578W        W22194  34.261  40.900   0.642
50579W        W22195  19.194   6.290  14.831
50580W        W22196  30.570   7.184  10.430
50581W        W22197   0.539  15.219  13.364
50582W        W22198  31.915  27.097  11.162
50583W        W22199  12.332  42.022  11.038
50584W        W22200  20.137  36.083  12.983
50585W        W22201  41.399   9.767  14.335
50586W        W22202  22.313  38.963  10.450
50587W        W22203  13.619  31.424   2.773
50588W        W22204  18.793  36.066   2.420
50589W        W22205   3.346  32.556  14.250
50590W        W22206  25.411  35.929   5.215
50591W        W22207   4.422  23.591   0.257
50592W        W22208  41.616  35.130   2.908
50593W        W22209  32.043  31.588   1.476
50594W        W22210   5.715  34.495  14.372
50595W        W22211  42.645  15.804   4.676
50596W        W22212   6.888  30.992  14.260
50597W        W22213  15.174  33.759   4.794
50598W        W22214  28.918  14.288   2.498
50599W        W22215  28.110   4.619  13.419
50600W        W22216  39.370  11.507   4.065
50601W        W22217  15.287  44.764   0.978
50602W        W22218  36.340   8.717  12.856
50603W        W22219  13.665  17.177  13.484
50604W        W22220  19.911  39.900  13.928
50605W        W22221  13.741   4.740   2.685
50606W        W22222  27.769   0.534  14.740
50607W        W22223  22.167  39.449  12.161
50608W        W22224  40.323  39.287   4.206
50609W        W22225   2.256  21.500  13.035
50610W        W22226  22.683  41.534   4.557
50611W        W22227  42.385   1.326   1.013
50612W        W22228  44.858  33.494   3.791
50613W        W22229  27.418  27.564   2.870
50614W        W22230  26.482  19.852   4.625
50615W        W22231  33.976  21.668  10.685
50616W        W22232  19.957  23.017   0.836
50617W        W22233  44.123  29.076  10.351
50618W        W22234  21.952  43.627  11.163
50619W        W22235  44.190  19.906  13.287
50620W        W22236   7.561  29.202  13.541
50621W        W22237  31.453  14.382  11.638
50622W        W22238  40.015  27.746  14.792
50623W        W22239  17.698  18.509  12.016
50624W        W22240   7.748   8.887  10.615
50625W        W22241  36.945   8.881  12.374
50626W        W22242  10.519  33.593   3.368
50627W        W22243  15.357  13.889  12.026
50628W        W22244  12.324  28.488   2.128
50629W        W22245  24.750  22.739   3.646
50630W        W22246  20.233  34.082   0.428
50631W        W22247  30.817  34.498   3.731
50632W        W22248  41.854  16.278   2.605
50633W        W22249   7.349  36.519  11.617
50634W        W22250  10.589   9.178  14.416
50635W        W22251  38.849   8.170   2.888
50636W        W22252  24.154  32.034   1.230
50637W        W22253   3.735  36.850   3.312
50638W        W22254  13.826  25.553  14.492
50639W        W22255   3.192  41.941   3.249
50640W        W22256  27.718   7.472  13.857
50641W        W22257  14.302  25.407   4.341
50642W        W22258  24.735  29.895   2.126
50643W        W22259  25.120  39.122  10.947
50644W        W22260  24.036  18.760   4.587
50645W        W22261  42.424  38.394   0.671
50646W        W22262  30.617  13.907   2.633
50647W        W22263  36.055  40.511   1.241
50648W        W22264  16.676  40.400   1.249
50649W        W22265  29.185  33.463  12.399
50650W        W22266  13.119  22.982   3.279
50651W        W22267  30.382  37.833  12.194
50652W        W22268  31.307  32.501  13.316
50653W        W22269  11.712   1.722  11.524
50654W        W22270  31.348  44.859  11.795
50655W        W22271  38.106   4.760   3.777
50656W        W22272  36.612  16.328  12.002
50657W        W22273  25.163  41.337   0.356
50658W        W22274  37.608  11.203   2.666
50659W        W22275  14.116  24.857  13.324
50660W        W22276  27.956   7.682   2.536
50661W        W22277  18.288   6.001   2.405
50662W        W22278  35.626   9.855   0.788
50663W        W22279  16.199  21.626   0.702
50664W        W22280  20.409  31.939   2.721
50665W        W22281   8.171  29.235   2.671
50666W        W22282  44.927  30.675  11.635
50667W        W22283   4.793  21.533  13.737
50668W        W22284   7.308  37.393  14.462
50669W        W22285  17.837  17.215   1.600
50670W        W22286  33.441  23.211   4.709
50671W        W22287  36.799  37.756  12.537
50672W        W22288  39.391   4.749   1.965
50673W        W22289  22.552  28.629  14.958
50674W        W22290  32.259  30.643  14.399
50675W        W22291  11.934  31.058   3.347
50676W        W22292  14.773  21.602   4.140
50677W        W22293  38.172   4.957  12.124
50678W        W22294  37.875  18.084  11.159
50679W        W22295  29.361  33.005  11.514
50680W        W22296  30.278  18.649   3.116
50681W        W22297  19.761  41.803   0.816
50682W        W22298  37.096  38.436   0.963
50683W        W22299  23.038  15.689   1.950
50684W        W22300  27.439   1.728  12.435
50685W        W22301  21.562  37.127  12.405
50686W        W22302   3.935   1.302   5.455
50687W        W22303  39.999   7.805   0.487
50688W        W22304   8.641  36.073  13.072
50689W        W22305  13.023  15.300   2.354
50690W        W22306  21.364  39.670   4.981
50691W        W22307  40.839  26.050   3.854
50692W        W22308  27.093   6.411  11.566
50693W        W22309  31.102   2.364   3.361
50694W        W22310  13.142  39.755   4.644
50695W        W22311  25.595  24.270  11.109
50696W        W22312  17.483  34.571   3.401
50697W        W22313  13.636   7.385   4.971
50698W        W22314  38.501  31.079   2.249
50699W        W22315  38.770  42.382   3.240
50700W        W22316  26.486  35.106  12.088
50701W        W22317  43.826  29.951   2.625
50702W        W22318  33.902  33.171  10.983
50703W        W22319  20.607  41.278  13.019
50704W        W22320   6.776  18.228  11.648
50705W        W22321  13.043  23.775   3.776
50706W        W22322  34.031  16.728   0.988
50707W        W22323  18.104   6.903   0.913
50708W        W22324  22.638  10.808   4.726
50709W        W22325  36.578  13.565  10.721
50710W        W22326   3.067  14.377   2.944
50711W        W22327  21.082   5.825  11.520
50712W        W22328  38.717  25.681   4.026
50713W        W22329  23.373  10.262  12.407
50714W        W22330  35.600  23.118   4.549
50715W        W22331  12.201  11.851   2.844
50716W        W22332  21.147   2.479  10.764
50717W        W22333   5.248  40.526  14.424
50718W        W22334  39.662  35.751  12.508
50719W        W22335  31.678  27.664  10.403
50720W        W22336   9.882  27.476   0.782
50721W        W22337   2.711  23.417   4.509
50722W        W22338  26.495  32.082  14.770
50723W        W22339   9.842  28.821   3.770
50724W        W22340  38.010  37.067   1.351
50725W        W22341  11.664  27.164  13.826
50726W        W22342   0.464  31.117  13.466
50727W        W22343  32.378  21.323  11.222
50728W        W22344   6.082  39.037   4.392
50729W        W22345   7.391   7.851  14.737
50730W        W22346  38.848  16.334   0.923
50731W        W22347  32.366   5.229   0.432
50732W        W22348   3.297  22.263   1.465
50733W        W22349   9.597  13.849  13.499
50734W        W22350  32.997   9.614  10.649
50735W        W22351  28.123  31.361  13.918
50736W        W22352  39.816  22.115   4.411
50737W        W22353  28.031  27.113   1.694
50738W        W22354  18.646  11.166  14.923
50739W        W22355  13.425  29.030  12.514
50740W        W22356   7.893  37.964  14.958
50741W        W22357  31.828  25.847  13.630
50742W        W22358  38.121  37.794  14.004
50743W        W22359  42.416  19.807   2.861
50744W        W22360  23.689  25.227   0.767
50745W        W22361  18.390  35.149   1.835
50746W        W22362   9.756  19.184   3.897
50747W        W22363  31.173  40.890   4.360
50748W        W22364   9.311  43.526   0.205
50749W        W22365  26.938  25.607   0.383
50750W        W22366  28.976  40.324   2.365
50751W        W22367  33.138  30.937  13.452
50752W        W22368  39.767  29.133  11.971
50753W        W22369  27.176  39.007   4.085
50754W        W22370  29.341  35.962   0.796
50755W        W22371   6.508  35.481   1.254
50756W        W22372  14.115  36.615   0.234
50757W        W22373  21.689  26.591   2.791
50758W        W22374  34.969  40.698   4.566
50759W        W22375  43.356  16.633   4.847
50760W        W22376  26.052  23.073   4.630
50761W        W22377  34.697  12.730  13.495
50762W        W22378  16.686  16.036   5.422
50763W        W22379   4.347  31.548   4.958
50764W        W22380   3.518  11.604   0.187
50765W        W22381  15.300  27.475   2.180
50766W        W22382   6.124  31.008  11.114
50767W        W22383  30.398  33.164   1.816
50768W        W22384  31.208  37.364   2.687
50769W        W22385  32.620  19.630  13.042
50770W        W22386   4.138  26.453  11.862
50771W        W22387  26.475   4.741   2.405
50772W        W22388  18.106  30.236  11.539
50773W        W22389   6.952  15.263   3.577
50774W        W22390  11.187   3.004  14.095
50775W        W22391  20.266  34.421  13.854
50776W        W22392  17.252  26.247   2.923
50777W        W22393  22.665  37.408   1.341
50778W        W22394  14.499  40.985  14.770
50779W        W22395  39.963  21.294   0.965
50780W        W22396  22.671   1.736  11.655
50781W        W22397   5.587   7.959  10.686
50782W        W22398   0.481  17.401   2.408
50783W        W22399   7.711  28.932   0.730
50784W        W22400  25.687  31.500   2.198
50785W        W22401  23.059   3.448  13.433
50786W        W22402  20.542   7.249  12.608
50787W        W22403   0.196  32.114  13.867
50788W        W22404   7.804  24.041  13.287
50789W        W22405  33.566  42.030   0.912
50790W        W22406  12.342  12.770  11.958
50791W        W22407   4.685   3.670   4.739
50792W        W22408  37.476  21.685  12.493
50793W        W22409  19.268   6.311  12.821
50794W        W22410  15.504  40.550   4.272
50795W        W22411  36.465  33.972   1.241
50796W        W22412  39.462  44.306   3.078
50797W        W22413  25.590  25.587   2.658
50798W        W22414  10.869  30.391  11.851
50799W        W22415   7.779   8.058  13.734
50800W        W22416  16.129  10.315  12.963
50801W        W22417  27.596  37.758  12.460
50802W        W22418  44.725  32.040   1.798
50803W        W22419  24.054  28.703   0.335
50804W        W22420  40.540  33.533   3.433
50805W        W22421   1.696  13.441   3.371
50806W        W22422  23.217  22.673  14.431
50807W        W22423   6.829  32.514   1.326
50808W        W22424  17.781  22.039  11.561
50809W        W22425  43.528   7.301   0.985
50810W        W22426  23.739  29.577  13.538
50811W        W22427   9.583  22.429  10.629
50812W        W22428  16.218   7.228  14.000
50813W        W22429   6.686  34.395   2.047
50814W        W22430  25.527  24.628   4.693
50815W        W22431   9.345   9.839  14.325
50816W        W22432  22.610  35.070  12.332
50817W        W22433  37.826  18.473   2.908
50818W        W22434  18.419  10.887  11.640
50819W        W22435   9.943  12.068   2.883
50820W        W22436   5.711  36.613   0.805
50821W        W22437   2.247   0.282  14.097
50822W        W22438  42.023  14.778  13.968
50823W        W22439  17.354  14.128   2.534
50824W        W22440  13.874   6.415  14.358
50825W        W22441  22.550  38.387  10.134
50826W        W22442  43.563  31.688   3.448
50827W        W22443  16.536   8.351   2.296
50828W        W22444  41.898  10.365  12.616
50829W        W22445  17.505  17.741   0.727
50830W        W22446  14.530  24.945   4.566
50831W        W22447  27.958  36.836   0.750
50832W        W22448   2.265  38.570  13.549
50833W        W22449  43.318  17.410  12.178
50834W        W22450  42.806  44.024  13.923
50835W        W22451   9.178  43.993  12.800
50836W        W22452  10.345  26.488  12.957
50837W        W22453   4.624   0.492  10.188
50838W        W22454  27.560  28.040  10.854
50839W        W22455  15.633  29.998   2.403
50840W        W22456  31.104  27.159   0.543
50841W        W22457   8.279   5.017   0.864
50842W        W22458  21.016  28.136   2.415
50843W        W22459   4.313   6.214   3.610
50844W        W22460  11.727  18.285  11.710
50845W        W22461  31.520   3.794   3.103
50846W        W22462  23.774   4.874  13.333
50847W        W22463  21.555  39.790   3.853
50848W        W22464  44.273  41.898  13.027
50849W        W22465  33.933  44.253   2.668
50850W        W22466  24.818   7.371   3.255
50851W        W22467  17.683  35.920  14.996
50852W        W22468  19.092  31.426   0.906
50853W        W22469  25.932  32.991   0.764
50854W        W22470   0.300  22.066  12.629
50855W        W22471  11.870  33.146   2.706
50856W        W22472   1.970  29.500  14.315
50857W        W22473  11.682  19.315  11.488
50858W        W22474   1.930  22.296  12.127
50859W        W22475  29.653  20.786   2.702
50860W        W22476  31.332  14.114   1.565
50861W        W22477  33.869   0.722   2.616
50862W        W22478  22.181  39.746  14.825
50863W        W22479  40.971  25.570   4.115
50864W        W22480  24.788  24.933  13.329
50865W        W22481   2.072  17.631  12.501
50866W        W22482  29.093   2.382  12.636
50867W        W22483  35.678  25.760   0.433
50868W        W22484  22.542  10.325   4.535
50869W        W22485  30.192  14.349  11.347
50870W        W22486  22.305   6.979  14.432
50871W        W22487  39.052  21.303  11.996
50872W        W22488  28.115   0.329  14.356
50873W        W22489   9.381   2.432  11.334
50874W        W22490  39.575  13.898  12.048
50875W        W22491  42.336  42.944  10.901
50876W        W22492  12.858  34.770  12.313
50877W        W22493   6.816  28.133  14.760
50878W        W22494  21.175  29.555  12.316
50879W        W22495   4.105  23.727   4.632
50880W        W22496  10.277  19.006  11.178
50881W        W22497  15.097  16.333  11.971
50882W        W22498  18.794  39.424   0.434
50883W        W22499   0.411  29.514  12.554
50884W        W22500  25.505  37.778   4.178
50885W        W22501   2.307  41.330   4.028
50886W        W22502  13.665  32.708  11.090
50887W        W22503   0.690  19.315  10.514
50888W        W22504  11.886  13.748  10.337
50889W        W22505  28.442  17.160   0.238
50890W        W22506  18.320  10.681  11.164
50891W        W22507  24.974  17.237   0.733
50892W        W22508   2.738  36.031  10.747
50893W        W22509   6.787   7.192  11.567
50894W        W22510  12.648  21.036  13.318
50895W        W22511  40.978  20.816   3.262
50896W        W22512  16.047   8.577  11.665
50897W        W22513  32.230  22.307  14.373
50898W        W22514  20.522  35.688  11.618
50899W        W22515  30.160  25.131  13.779
50900W        W22516  28.881  42.873  13.548
50901W        W22517  26.021   9.186   1.679
50902W        W22518   2.938   9.443  12.466
50903W        W22519  22.130   8.477   4.374
50904W        W22520  35.040  14.556  11.933
50905W        W22521  33.878  33.560   2.392
50906W        W22522  35.983  35.178  14.791
50907W        W22523  29.582  35.349   3.311
50908W        W22524  23.743  23.717  11.767
50909W        W22525  22.981  41.035   1.285
50910W        W22526  21.637  21.042   0.961
50911W        W22527  41.416  18.075   3.146
50912W        W22528  21.293  23.181  11.047
50913W        W22529   3.932  41.097  13.864
50914W        W22530   6.626  37.238  12.028
50915W        W22531  33.585  16.873   1.832
50916W        W22532   0.599  36.017   3.571
50917W        W22533  28.844  31.069  11.077
50918W        W22534  37.974  10.556  14.464
50919W        W22535   2.288   7.162  12.000
50920W        W22536   7.715   4.187   1.418
50921W        W22537  13.969   6.289  10.109
50922W        W22538  41.110  27.562  13.346
50923W        W22539  24.113  31.379  10.491
50924W        W22540  43.489  30.622  13.412
50925W        W22541  43.826   4.418   1.694
50926W        W22542  19.312  20.466   2.897
50927W        W22543  15.545  21.327   0.963
50928W        W22544  41.591  20.214   2.972
50929W        W22545  25.180  15.315   2.762
50930W        W22546  31.952  29.159   2.568
50931W        W22547  40.760   0.257  11.973
50932W        W22548  24.699  44.758   4.635
50933W        W22549   9.260  36.884   0.971
50934W        W22550   5.991  24.150   2.682
50935W        W22551   1.697  12.325  11.937
50936W        W22552   6.496  31.758  11.631
50937W        W22553  14.674  10.717  11.592
50938W        W22554  42.454   2.403  10.679
50939W        W22555  30.167  26.188   4.622
50940W        W22556  36.840   0.271   0.736
50941W        W22557   3.431  23.416  10.690
50942W        W22558  11.776  29.268  12.019
50943W        W22559  17.269   9.318   2.865
50944W        W22560  34.008   1.395   3.061
50945W        W22561  43.384  16.749   3.424
50946W        W22562  43.528   4.120   4.085
50947W        W22563  38.407  40.472  11.542
50948W        W22564  31.532  39.286  13.945
50949W        W22565  40.981  40.526  14.017
50950W        W22566   2.658  37.568   3.646
50951W        W22567  43.293  22.850  11.879
50952W        W22568   9.414  44.654  11.378
50953W        W22569   9.325  38.132   1.780
50954W        W22570  21.536  33.073  14.686
50955W        W22571  38.274  30.579   0.933
50956W        W22572   9.685  13.310   3.401
50957W        W22573  44.830  30.332   3.206
50958W        W22574  12.830  27.036   3.163
50959W        W22575  18.946   3.882  11.897
50960W        W22576  41.062   3.541   1.298
50961W        W22577   5.455  32.546  10.542
50962W        W22578  12.482  29.662   2.391
50963W        W22579  43.424  14.614  14.835
50964W        W22580  25.302  42.919   4.245
50965W        W22581  22.549  36.873   4.143
50966W        W22582  39.742   1.392  12.474
50967W        W22583  11.117  33.012  14.015
50968W        W22584  22.929   5.203   0.803
50969W        W22585  12.249  36.876  12.649
50970W        W22586  10.526  28.145  10.403
50971W        W22587  14.623  18.007  11.118
50972W        W22588  26.162  41.011   0.786
50973W        W22589  34.078  11.423   1.737
50974W        W22590  42.011  31.927  13.476
50975W        W22591  22.823   9.399  13.935
50976W        W22592  26.538  18.138   3.917
50977W        W22593  10.739  39.618   1.862
50978W        W22594  23.095  22.684   0.521
50979W        W22595  31.553  42.582  14.853
50980W        W22596   7.620  31.708   2.406
50981W        W22597   7.884  23.735  12.776
50982W        W22598  39.467  14.235  11.258
50983W        W22599   4.135  18.443  13.380
50984W        W22600  37.903  23.248   2.978
50985W        W22601   8.415   5.762  10.954
50986W        W22602  31.120   9.156   0.274
50987W        W22603  15.504  20.433  14.807
50988W        W22604   6.028  29.121   3.856
50989W        W22605   2.489  33.329  13.023
50990W        W22606  10.155  16.580  10.304
50991W        W22607  36.551  37.941  12.940
50992W        W22608  10.219  19.064  12.042
50993W        W22609  15.043  22.193  11.077
50994W        W22610  22.294   2.952   0.897
50995W        W22611   5.969  37.987   1.883
50996W        W22612  12.304  20.767  12.954
50997W        W22613  42.406   3.806  12.974
50998W        W22614  35.133  38.627   1.481
50999W        W22615  30.510  22.401  14.863
51000W        W22616  20.463   5.705   3.591
51001W        W22617   6.947  15.373   0.921
51002W        W22618  32.096  23.161   0.903
51003W        W22619  40.834  20.232   2.371
51004W        W22620  30.421  42.064  10.552
51005W        W22621  13.553   7.840   1.042
51006W        W22622  28.031  20.971  12.912
51007W        W22623  35.993  18.162   1.737
51008W        W22624  24.558  39.468   3.833
51009W        W22625  39.573   1.275   3.329
51010W        W22626  42.575  38.350   2.963
51011W        W22627  25.557   1.265  13.725
51012W        W22628  16.108  32.670  14.357
51013W        W22629  19.700  34.640   4.126
51014W        W22630   3.149  38.839  10.625
51015W        W22631   4.396  36.369   4.718
51016W        W22632   7.196  18.096  13.608
51017W        W22633  36.945   9.629  13.833
51018W        W22634  14.421  44.406  11.476
51019W        W22635  36.900   3.447  12.154
51020W        W22636  11.999   4.225   2.580
51021W        W22637  22.139  32.100  11.059
51022W        W22638  28.387  24.001   1.796
51023W        W22639  27.554  20.777   0.808
51024W        W22640  25.427  28.446  12.527
51025W        W22641  19.067  11.165   4.065
51026W        W22642  19.624  37.597  14.455
51027W        W22643   2.247  42.791  14.930
51028W        W22644  22.435  33.587   2.740
51029W        W22645  18.793  23.513   0.371
51030W        W22646  11.071  43.350   2.679
51031W        W22647  36.794  22.517   4.773
51032W        W22648   3.965  15.120   3.122
51033W        W22649   0.349   4.677  14.955
51034W        W22650  25.525   2.285   2.651
51035W        W22651  38.179  37.288   4.047
51036W        W22652  16.836   8.237  13.506
51037W        W22653  20.697   5.348  14.329
51038W        W22654   2.648  36.044  12.907
51039W        W22655  14.495   5.892   1.761
51040W        W22656  16.996  29.631  11.041
51041W        W22657  42.302  30.767  11.094
51042W        W22658  21.202  42.666   1.428
51043W        W22659   5.822  30.873  13.964
51044W        W22660  35.901  43.520   3.728
51045W        W22661   9.149  12.078  11.846
51046W        W22662  44.583  37.267   3.628
51047W        W22663  37.699  27.118  13.005
51048W        W22664  28.178   5.879   4.430
51049W        W22665  43.562  32.982   3.296
51050W        W22666  31.096  23.953   1.878
51051W        W22667  39.326  17.541   1.708
51052W        W22668  14.216  33.975   3.294
51053W        W22669  14.794  19.160  14.699
51054W        W22670  44.689   5.643  13.325
51055W        W22671  24.145  37.506  14.044
51056W        W22672  25.691  27.085  14.499
51057W        W22673  41.897  10.835   4.664
51058W        W22674  10.718   2.176  14.737
51059W        W22675  13.304  22.881  10.779
51060W        W22676  15.839  40.837  14.330
51061W        W22677  39.341  32.169  12.336
51062W        W22678  15.213   6.959   2.351
51063W        W22679  14.688  12.314   3.125
51064W        W22680  18.884  16.487   0.656
51065W        W22681  41.971  35.882  12.626
51066W        W22682   5.223  24.639   1.427
51067W        W22683  20.832   0.797   4.041
51068W        W22684   3.810   2.029  14.015
51069W        W22685   0.943  36.532   3.579
51070W        W22686  35.566  40.081  14.886
51071W        W22687   8.079  29.121   1.664
51072W        W22688  12.973  44.764  14.396
51073W        W22689  16.865  41.545  14.830
51074W        W22690  39.081  13.658   0.212
51075W        W22691  31.644  21.400   3.887
51076W        W22692  21.069  19.958  12.916
51077W        W22693  12.710  44.310  11.024
51078W        W22694   9.303  37.965  13.023
51079W        W22695  21.724   2.873   4.576
51080W        W22696  37.824  29.960   0.235
51081W        W22697  37.323  27.577   0.775
51082W        W22698  14.397  32.526  12.855
51083W        W22699  32.349  24.274   4.529
51084W        W22700  18.187  24.177   4.619
51085W        W22701  10.548  25.560  14.301
51086W        W22702  40.795  17.209  14.695
51087W        W22703   7.662  40.113  12.769
51088W        W22704  10.125  44.219   0.264
51089W        W22705   9.564  23.826   5.098
51090W        W22706  44.341   6.501  12.406
51091W        W22707  44.502  11.612  11.403
51092W        W22708   1.306  16.460   1.276
51093W        W22709  16.300  35.326  13.828
51094W        W22710  38.125  27.475   0.267
51095W        W22711  33.049  11.328   4.554
51096W        W22712  14.668  44.275  11.922
51097W        W22713   6.980  43.003   2.906
51098W        W22714   1.483  26.059  10.604
51099W        W22715   8.302  40.020   3.274
51100W        W22716  35.496  18.637   0.536
51101W        W22717  37.143  31.558  10.544
51102W        W22718  25.038  13.203  13.055
51103W        W22719  26.041  26.476   3.995
51104W        W22720  16.637   7.812  11.423
51105W        W22721   1.860  29.545  11.316
51106W        W22722  21.785   9.949  14.855
51107W        W22723  11.407  43.822   2.929
51108W        W22724  25.413  29.389   4.214
51109W        W22725   4.163   3.126  11.285
51110W        W22726  42.586  20.152   4.514
51111W        W22727  43.953  44.921  12.840
51112W        W22728  23.213   1.433   2.587
51113W        W22729  25.359   6.887  14.429
51114W        W22730  20.526   5.917   1.016
51115W        W22731  44.495  38.170   0.790
51116W        W22732  32.196  30.081   0.262
51117W        W22733   9.777   0.946  13.957
51118W        W22734   5.941  43.778  14.400
51119W        W22735  23.189  42.363  11.857
51120W        W22736  16.114  10.768   3.735
51121W        W22737   3.311   8.873  10.606
51122W        W22738  25.737  32.783  11.315
51123W        W22739  24.126  20.199   2.123
51124W        W22740  43.475   4.306   3.258
51125W        W22741   8.023  24.745   1.855
51126W        W22742   5.241  36.992   1.826
51127W        W22743  44.527   1.096   0.969
51128W        W22744  16.251  26.089   4.729
51129W        W22745  15.099  10.746  14.967
51130W        W22746  43.905  21.745   4.538
51131W        W22747   5.456  43.471   4.813
51132W        W22748   1.678   0.006   4.179
51133W        W22749  31.053   4.369  11.539
51134W        W22750   0.470  20.230  13.472
51135W        W22751  27.970  32.429   3.403
51136W        W22752  21.609  34.496  13.733
51137W        W22753  33.560  36.609   2.938
51138W        W22754  24.994  20.031   2.816
51139W        W22755  24.016   6.885  12.546
51140W        W22756  10.512  16.832  14.330
51141W        W22757   2.230   6.174  12.140
51142W        W22758  40.783  18.055   0.024
51143W        W22759  17.209   6.891   2.874
51144W        W22760  13.770  42.967   4.674
51145W        W22761  18.650   4.345   2.541
51146W        W22762  19.460  12.291  12.886
51147W        W22763  40.571  41.328  14.931
51148W        W22764  36.866  38.770   3.230
51149W        W22765  18.009  43.347  14.383
51150W        W22766  13.384  14.087  10.615
51151W        W22767   5.265   5.163  14.501
51152W        W22768  28.167  43.761   2.243
51153W        W22769  20.074  30.515  12.581
51154W        W22770  33.146  35.960  11.726
51155W        W22771  26.686  39.574  13.453
51156W        W22772   5.197  34.439  14.365
51157W        W22773  15.793  16.832   1.241
51158W        W22774  26.198  11.845   3.363
51159W        W22775  30.132  20.769   2.893
51160W        W22776  22.776  16.134  11.921
51161W        W22777  15.802  38.878  10.664
51162W        W22778  10.292  11.397   4.114
51163W        W22779   6.889  28.192   4.118
51164W        W22780   3.978  39.807  11.945
51165W        W22781  20.738  27.582  13.850
51166W        W22782  13.707  28.161   4.559
51167W        W22783  12.662  17.880  11.116
51168W        W22784  25.406  23.465   5.127
51169W        W22785  12.089  25.538   0.225
51170W        W22786  33.631  43.420   3.825
51171W        W22787   3.167  16.085  13.791
51172W        W22788  23.968  16.719  13.014
51173W        W22789  34.896   6.878  12.622
51174W        W22790   6.473  12.833  10.667
51175W        W22791  43.538  43.925   4.405
51176W        W22792  17.185   4.300   4.447
51177W        W22793  17.727  20.753   3.776
51178W        W22794  20.244  21.169  14.033
51179W        W22795  10.348   4.376   1.386
51180W        W22796  16.358  17.102   4.568
51181W        W22797   7.664  18.297   1.312
51182W        W22798  31.050   7.693   0.300
51183W        W22799  35.941   1.411  12.961
51184W        W22800  18.117  23.179  14.290
51185W        W22801   1.711  42.863   4.744
51186W        W22802  38.996  38.921   2.221
51187W        W22803  27.932  44.061  13.414
51188W        W22804  40.903  21.220  12.923
51189W        W22805  38.274  36.385   0.972
51190W        W22806  36.899  42.918  10.591
51191W        W22807  31.997   3.686   3.341
51192W        W22808   8.233  16.154   3.579
51193W        W22809  18.929  28.052  14.311
51194W        W22810  36.047  42.692   4.982
51195W        W22811  31.662  11.398   1.771
51196W        W22812  13.231  38.208  11.496
51197W        W22813   5.406   6.523  13.252
51198W        W22814   6.613  28.110   2.579
51199W        W22815  39.392  39.498   2.644
51200W        W22816  34.773  18.476   2.257
51201W        W22817  17.736  30.507   2.858
51202W        W22818   6.416  30.024   3.261
51203W        W22819  37.097  32.205   1.228
51204W        W22820  25.895  25.167  12.462
51205W        W22821  40.302  34.134   2.738
51206W        W22822  21.057   1.562  14.376
51207W        W22823  11.662  31.511  12.842
51208W        W22824  43.191   2.233  14.897
51209W        W22825  24.353  24.990   2.908
51210W        W22826  40.551   9.652   2.275
51211W        W22827  39.544  42.012  13.840
51212W        W22828  32.506  19.836   4.005
51213W        W22829   6.411   0.727  14.754
51214W        W22830  11.885  44.007  11.567
51215W        W22831  28.543   2.189  10.911
51216W        W22832  25.106  23.748  12.586
51217W        W22833   4.934   1.308  11.308
51218W        W22834  24.396  17.949   2.504
51219W        W22835  40.034  42.966  13.926
51220W        W22836  39.058  21.770   2.305
51221W        W22837   7.225  30.522   2.100
51222W        W22838  37.657  27.757   0.286
51223W        W22839  17.506  35.934   3.124
51224W        W22840  23.061  18.646  11.720
51225W        W22841  34.823   3.387  10.611
51226W        W22842  16.277  15.575  11.046
51227W        W22843  34.787   1.884  14.798
51228W        W22844  44.677   1.424   4.244
51229W        W22845  35.467  39.484   3.622
51230W        W22846  37.789  38.715   1.919
51231W        W22847   3.432   3.452   4.714
51232W        W22848  32.893  34.504  13.246
51233W        W22849  15.147  28.863  10.677
51234W        W22850  22.514   3.748   1.987
51235W        W22851   3.913   9.593   2.146
51236W        W22852  31.118  23.492  14.381
51237W        W22853  29.452  12.285  13.962
51238W        W22854  34.862   4.109   0.953
51239W        W22855  26.904  24.023  13.785
51240W        W22856  29.039   2.308   1.896
51241W        W22857  44.983  31.013   2.790
51242W        W22858  37.875  29.944   1.965
51243W        W22859  22.659   0.629   0.267
51244W        W22860  29.734  36.656  12.475
51245W        W22861  16.750  17.598   1.177
51246W        W22862  16.218  32.838  14.840
51247W        W22863  17.270   7.328   2.258
51248W        W22864  27.578   7.755  14.831
51249W        W22865  17.774  44.579   9.759
51250W        W22866  44.242  19.693  12.372
51251W        W22867  27.179  23.605  11.931
51252W        W22868  37.364   8.383   2.720
51253W        W22869   2.548   1.143  13.739
51254W        W22870  21.283   2.886  12.337
51255W        W22871   6.144  26.203   3.220
51256W        W22872  27.423  17.129   0.297
51257W        W22873   9.461  40.409  11.162
51258W        W22874   3.250  15.703   1.476
51259W        W22875  26.988  20.348  13.575
51260W        W22876  16.036  40.374  12.029
51261W        W22877  39.585  38.942  10.606
51262W        W22878  40.546  19.180   1.264
51263W        W22879  24.147   6.291  10.298
51264W        W22880  33.465  38.808   0.534
51265W        W22881  32.610  26.384  13.512
51266W        W22882  26.419   9.319   0.726
51267W        W22883  22.426  43.280   1.019
51268W        W22884  35.109   6.212   2.603
51269W        W22885   3.872  40.943   2.467
51270W        W22886  42.481  12.592   2.251
51271W        W22887  25.881   4.386   1.720
51272W        W22888  19.253  40.555  14.411
51273W        W22889  37.357   6.420   2.826
51274W        W22890  29.973  36.549  14.221
51275W        W22891  39.350   3.550  10.566
51276W        W22892  24.148  27.162  14.751
51277W        W22893  12.568  23.744   4.825
51278W        W22894  10.237  13.100   0.096
51279W        W22895  37.403  14.317  11.953
51280W        W22896  34.131   2.516   1.328
51281W        W22897   8.631  31.752   4.558
51282W        W22898   1.028  34.871  12.112
51283W        W22899   5.680  26.093   1.764
51284W        W22900   2.832  28.123   3.261
51285W        W22901  39.540  25.584   0.912
51286W        W22902  39.409  29.041   2.914
51287W        W22903  10.764  15.075  10.450
51288W        W22904  40.368  37.588   3.111
51289W        W22905  11.378   1.814   3.811
51290W        W22906  26.418  41.459  12.347
51291W        W22907  23.589  14.214   2.825
51292W        W22908  37.539  20.436  11.528
51293W        W22909   4.721  41.873   3.311
51294W        W22910  21.612  12.416  10.888
51295W        W22911  40.805  26.216  12.702
51296W        W22912  12.670  20.142  10.816
51297W        W22913   5.645  21.776  11.295
51298W        W22914  22.701  24.430  12.435
51299W        W22915  25.894  37.797   3.832
51300W        W22916  23.146  11.657  12.028
51301W        W22917  40.461  32.691  11.705
51302W        W22918  43.301  27.185   2.357
51303W        W22919  11.645   5.748   4.575
51304W        W22920  40.060  34.996   1.189
51305W        W22921  19.327   1.480   3.682
51306W        W22922   7.857  38.516   0.241
51307W        W22923   7.526  28.656   2.738
51308W        W22924   4.499   1.522   2.270
51309W        W22925  29.139  12.599  14.899
51310W        W22926  30.509  41.041  12.117
51311W        W22927  16.188   7.403  10.390
51312W        W22928   4.294  23.679   2.856
51313W        W22929  33.576  26.678   2.695
51314W        W22930  27.564  44.128   9.895
51315W        W22931  12.596  37.050   3.290
51316W        W22932  16.837   6.396   0.092
51317W        W22933  10.630  35.455   0.301
51318W        W22934  37.954   6.217   4.715
51319W        W22935  12.356  38.415   0.026
51320W        W22936  41.858   7.808  13.850
51321W        W22937  42.262  21.192   4.576
51322W        W22938  28.609  43.268   0.675
51323W        W22939  19.716  34.668   1.796
51324W        W22940  40.463  19.199   0.253
51325W        W22941  13.391  19.793  10.561
51326W        W22942  30.919  23.296  10.467
51327W        W22943  32.874   6.626  14.468
51328W        W22944  11.766  11.825   5.033
51329W        W22945   3.004  18.791  11.543
51330W        W22946  41.708  25.079   3.319
51331W        W22947  25.643  29.751   3.840
51332W        W22948  38.565   3.865  11.561
51333W        W22949  18.305  44.357  14.564
51334W        W22950  18.515  26.934  12.500
51335W        W22951  32.444  11.773  13.110
51336W        W22952  30.578  16.814   2.703
51337W        W22953  32.579   4.566  12.332
51338W        W22954  24.554   9.833  14.723
51339W        W22955   4.034  30.741  11.544
51340W        W22956  38.875  29.611  10.730
51341W        W22957  39.528   3.151   4.712
51342W        W22958   6.160  19.505  13.887
51343W        W22959   2.003  40.164  14.344
51344W        W22960  22.224  23.132  10.577
51345W        W22961  36.958  38.677   1.401
51346W        W22962   8.092   2.832  11.050
51347W        W22963  31.150  24.663  13.340
51348W        W22964  21.817  34.355   3.520
51349W        W22965   7.847  35.164  10.758
51350W        W22966  34.621  43.914  10.670
51351W        W22967   3.808  26.730   1.629
51352W        W22968  19.309  11.948  14.413
51353W        W22969  33.131   1.761   0.869
51354W        W22970  37.471  44.218   0.230
51355W        W22971  41.311  33.553  10.550
51356W        W22972  18.670  38.076   0.825
51357W        W22973  22.802  17.929   3.056
51358W        W22974  41.085   2.234   2.776
51359W        W22975  37.814  14.744   0.768
51360W        W22976  17.607   8.667  14.045
51361W        W22977  12.489  33.592  12.816
51362W        W22978   3.825  23.741  10.734
51363W        W22979  15.775  30.259   2.845
51364W        W22980  29.455  44.846   0.999
51365W        W22981   7.567  39.493  11.805
51366W        W22982  27.478  10.408   2.687
51367W        W22983  29.107   4.196   0.799
51368W        W22984  12.515  27.233  11.574
51369W        W22985   4.327  30.687   4.756
51370W        W22986  34.492  10.610   1.781
51371W        W22987  28.213  29.921  10.671
51372W        W22988   0.411  35.652  11.986
51373W        W22989  22.649  42.519   2.382
51374W        W22990  13.132  24.482  14.317
51375W        W22991  25.459  39.135   2.320
51376W        W22992  21.956   3.926   3.270
51377W        W22993   3.522  15.284   1.868
51378W        W22994  20.146  41.282  10.484
51379W        W22995  41.748  41.464  13.978
51380W        W22996  44.450  35.004   0.789
51381W        W22997  10.362  31.065  14.229
51382W        W22998   6.610  32.096   1.527
51383W        W22999  28.585   8.968   0.147
51384W        W23000  40.463  20.493   1.196
51385W        W23001  43.929  17.624   0.373
51386W        W23002  30.714   6.914  11.206
51387W        W23003  21.729  25.544  14.891
51388W        W23004  19.366  34.524   3.697
51389W        W23005  29.985  17.168  13.905
51390W        W23006  15.071  28.945  13.944
51391W        W23007  24.469  34.079  12.419
51392W        W23008  11.007  26.503   1.832
51393W        W23009   5.106  19.543   4.018
51394W        W23010  20.543  41.582  12.584
51395W        W23011  40.215  34.573  12.039
51396W        W23012  28.190   0.258   3.501
51397W        W23013   6.577  38.430   0.552
51398W        W23014  40.769  39.456   0.000
51399W        W23015   6.630  17.180  11.420
51400W        W23016   9.715  25.952  12.683
51401W        W23017   7.729  39.995  11.873
51402W        W23018  26.200  35.097   4.546
51403W        W23019  39.077  28.543  13.777
51404W        W23020  22.575   3.263  11.675
51405W        W23021  29.450  18.340  13.490
51406W        W23022  42.556  35.269  12.719
51407W        W23023  23.535  25.701   0.816
51408W        W23024  31.085  13.653  14.477
51409W        W23025  31.409  38.593   4.483
51410W        W23026  36.291   5.891   3.019
51411W        W23027  16.665  42.797   2.606
51412W        W23028  36.399  19.768   0.320
51413W        W23029  36.254   2.999  11.110
51414W        W23030  28.301  13.879   1.257
51415W        W23031  42.376   8.341  10.520
51416W        W23032  31.507  32.017   3.167
51417W        W23033  25.932   2.903   0.768
51418W        W23034  32.680   4.663  10.250
51419W        W23035  44.092  28.732   4.111
51420W        W23036  13.348  30.168   0.937
51421W        W23037  20.552  30.672   2.871
51422W        W23038  22.015  16.460  11.194
51423W        W23039  43.880  28.175  14.862
51424W        W23040  23.832  23.028  13.861
51425W        W23041  37.107   8.003  14.565
51426W        W23042  40.424   9.673   0.142
51427W        W23043  28.620  10.229  13.431
51428W        W23044   0.351  16.108  14.656
51429W        W23045   2.079  12.161  12.313
51430W        W23046  36.078   8.760  13.580
51431W        W23047  25.339   5.635  11.420
51432W        W23048   4.592  16.983  13.563
51433W        W23049   3.610  21.342   2.729
51434W        W23050  38.397  11.190   1.767
51435W        W23051  28.691  19.703  12.607
51436W        W23052  31.964   9.729   2.355
51437W        W23053  15.614  13.839   2.442
51438W        W23054  39.303  30.065  12.050
51439W        W23055  27.586  27.916  14.704
51440W        W23056   5.908  40.549   1.932
51441W        W23057   9.787   1.555  13.122
51442W        W23058  11.890   0.365  12.662
51443W        W23059  11.601  38.593  14.575
51444W        W23060  22.317  20.619   3.173
51445W        W23061  28.189  32.183  12.482
51446W        W23062  15.561   4.793   2.187
51447W        W23063  35.403   1.698  14.541
51448W        W23064  43.087  27.943   3.721
51449W        W23065  11.794   5.483   3.779
51450W        W23066  11.651  32.024   4.509
51451W        W23067  25.654  31.438   2.754
51452W        W23068  29.310  21.541  12.588
51453W        W23069  18.340   1.364   3.204
51454W        W23070  35.506   8.163   2.297
51455W        W23071  39.924  22.243   0.639
51456W        W23072  19.971  42.147   0.514
51457W        W23073  20.060  40.262   2.831
51458W        W23074  16.665  13.645  13.854
51459W        W23075  38.024  22.137  10.795
51460W        W23076   6.435   1.375  13.485
51461W        W23077   9.343   0.264   5.296
51462W        W23078  28.479  25.099  13.306
51463W        W23079  22.567  39.077   2.180
51464W        W23080  40.850  19.479  14.350
51465W        W23081  24.312  22.249   0.507
51466W        W23082   5.214  18.051   0.411
51467W        W23083  35.446  12.659  14.784
51468W        W23084  26.577  20.757   4.917
51469W        W23085  11.732   6.585  13.769
51470W        W23086  26.823  11.905   1.838
51471W        W23087  24.940   8.327  11.203
51472W        W23088   4.907  41.039   3.932
51473W        W23089   2.494  44.883  13.849
51474W        W23090  11.777  23.726   1.744
51475W        W23091  44.799  37.494  12.363
51476W        W23092   1.973  20.345   0.022
51477W        W23093   5.836  20.332  13.025
51478W        W23094  35.574   4.645   0.733
51479W        W23095   0.479  21.602   3.667
51480W        W23096  26.526  22.745   3.159
51481W        W23097  37.921  33.074  10.848
51482W        W23098  42.921  44.495   2.891
51483W        W23099   6.839  13.537   3.843
51484W        W23100  42.910   5.062  13.973
51485W        W23101  30.953  24.112  12.085
51486W        W23102  31.599  35.173  14.004
51487W        W23103  24.230  10.634   1.654
51488W        W23104  15.769  42.071  11.928
51489W        W23105  15.779  21.399   4.175
51490W        W23106   7.952   5.669   4.673
51491W        W23107   2.027   1.430  14.059
51492W        W23108  44.713   8.451   3.248
51493W        W23109  10.774   9.216  11.572
51494W        W23110  35.459  21.605  11.554
51495W        W23111   3.982  26.720  11.417
51496W        W23112  36.380   3.341  13.013
51497W        W23113   7.408   6.748  12.568
51498W        W23114  11.747  14.369   2.712
51499W        W23115  18.385  33.125  12.060
51500W        W23116  38.560  22.575   2.359
51501W        W23117  32.179  17.591   0.857
51502W        W23118  21.775   2.682   1.734
51503W        W23119  35.406  22.281   2.266
51504W        W23120  12.213  42.021  10.527
51505W        W23121  12.692  32.720  10.856
51506W        W23122  15.376  29.923   2.846
51507W        W23123  11.576  35.310   4.536
51508W        W23124   8.323  20.600  10.476
51509W        W23125  23.769   8.824  11.531
51510W        W23126  19.940  24.528  11.982
51511W        W23127  29.069   7.792  11.376
51512W        W23128  43.041  43.391  10.752
51513W        W23129  10.762  18.644   4.656
51514W        W23130  28.391  38.956  12.114
51515W        W23131  42.469   7.615   3.863
51516W        W23132  35.403  40.635  13.977
51517W        W23133  26.940  36.438  13.436
51518W        W23134  16.150  18.505   1.180
51519W        W23135  42.505  29.999  11.450
51520W        W23136   8.877   0.530  12.891
51521W        W23137  21.074  39.972  13.484
51522W        W23138   9.110  42.447  12.475
51523W        W23139  35.811   2.211  14.361
51524W        W23140  35.851  10.789   2.394
51525W        W23141  35.629  25.666  12.542
51526W        W23142  28.058  16.555   2.426
51527W        W23143  25.028  15.808  13.942
51528W        W23144  30.956  17.485   0.464
51529W        W23145  20.945  16.804  14.524
51530W        W23146  29.954   9.382   2.245
51531W        W23147  22.720   5.758   0.058
51532W        W23148   8.602  19.185  12.127
51533W        W23149  21.298  39.472  12.515
51534W        W23150   5.825  16.070  12.690
51535W        W23151  23.157   6.920  11.052
51536W        W23152  28.509  25.980  12.427
51537W        W23153   2.758   6.639   0.639
51538W        W23154  38.352  24.007  14.823
51539W        W23155  31.954  17.281   4.193
51540W        W23156  43.791  35.954  10.669
51541W        W23157  44.897  20.772  13.901
51542W        W23158  32.601  16.624   1.181
51543W        W23159   0.747  13.267   2.131
51544W        W23160   8.810   9.657   4.276
51545W        W23161   3.322  22.738   4.045
51546W        W23162  27.672  33.855  12.468
51547W        W23163  33.960   7.281  14.116
51548W        W23164  13.385  39.831  14.033
51549W        W23165  38.930  28.227  10.702
51550W        W23166  33.651  11.693  14.424
51551W        W23167  11.450  28.576   2.379
51552W        W23168  27.191  35.415  12.030
51553W        W23169  17.281  30.992   1.448
51554W        W23170  34.645   3.875  10.645
51555W        W23171  17.146  13.134  12.943
51556W        W23172  40.457  22.564   1.348
51557W        W23173  35.289  11.659  11.983
51558W        W23174  25.295  27.959   2.290
51559W        W23175  18.680  37.030   2.185
51560W        W23176  17.193  24.390  14.495
51561W        W23177  21.062  43.506  10.587
51562W        W23178  23.032  15.363   4.132
51563W        W23179  19.770  27.594  10.645
51564W        W23180  32.417  35.555   1.425
51565W        W23181  39.454  28.046   0.763
51566W        W23182   3.278  22.141   0.974
51567W        W23183  36.647  27.031  11.178
51568W        W23184  23.231  12.205   0.516
51569W        W23185  38.911  22.121   0.793
51570W        W23186  15.310  29.153   5.021
51571W        W23187   7.505   2.477  13.557
51572W        W23188  38.473  12.181  13.315
51573W        W23189  29.464  18.977  12.041
51574W        W23190   7.738  16.140  12.856
51575W        W23191  31.647  19.044  11.152
51576W        W23192   5.540  32.864   3.162
51577W        W23193  44.359  15.838   3.597
51578W        W23194   3.473   3.742   4.098
51579W        W23195  27.851  24.618   0.376
51580W        W23196  16.779   5.250  10.084
51581W        W23197   9.929  29.055   1.275
51582W        W23198  16.782  28.195   2.452
51583W        W23199  21.991  19.581  11.612
51584W        W23200  15.756  37.424   0.908
51585W        W23201  11.121  38.123   2.153
51586W        W23202  24.742  37.980  11.485
51587W        W23203  24.581  36.001  11.368
51588W        W23204  15.069   2.931  12.546
51589W        W23205   7.064  31.891   1.647
51590W        W23206  24.242  40.805   2.930
51591W        W23207  24.064   7.622  14.062
51592W        W23208  17.365  10.319   1.343
51593W        W23209  19.539  42.713   0.702
51594W        W23210  28.755   0.053  14.954
51595W        W23211  14.202   6.328  11.998
51596W        W23212   4.780   3.381   3.401
51597W        W23213  15.091   6.690   3.198
51598W        W23214  32.074   7.056  14.744
51599W        W23215  31.900  31.447   2.490
51600W        W23216  31.022   3.856  14.806
51601W        W23217   5.654  42.503   4.482
51602W        W23218  32.839  14.064  12.508
51603W        W23219  42.020  17.160   2.243
51604W        W23220  32.924  42.835   0.891
51605W        W23221   2.804   5.737  11.253
51606W        W23222  19.139  37.325   0.771
51607W        W23223  31.816   1.461   1.440
51608W        W23224   3.720  14.294  10.634
51609W        W23225  26.599  18.899   1.860
51610W        W23226  26.455  29.205  14.357
51611W        W23227  43.057  33.542   4.649
51612W        W23228  19.567  26.673  14.368
51613W        W23229  27.990  39.283   3.620
51614W        W23230   1.016  38.050   0.392
51615W        W23231  29.984  38.004  12.479
51616W        W23232  33.365   0.530   0.885
51617W        W23233  36.253  16.051  12.231
51618W        W23234  36.334   5.201  14.944
51619W        W23235   9.610  39.841   3.291
51620W        W23236  42.378  42.906  13.364
51621W        W23237  18.039  37.431  12.951
51622W        W23238  35.017   4.629   4.098
51623W        W23239   5.338  15.805  14.972
51624W        W23240  32.237  40.898   3.311
51625W        W23241  26.987  24.321   4.659
51626W        W23242  36.061  34.782   3.634
51627W        W23243  22.583  42.919  13.219
51628W        W23244   3.303   3.757  13.010
51629W        W23245   4.258   7.846  12.317
51630W        W23246  34.650  24.474  10.547
51631W        W23247  30.556  34.931   3.601
51632W        W23248  24.974  12.200   3.675
51633W        W23249  38.626  24.068  12.036
51634W        W23250  31.958  31.532   1.980
51635W        W23251   1.247  41.332  14.314
51636W        W23252  32.618  44.286  10.285
51637W        W23253  43.053  11.150  14.423
51638W        W23254   5.201   9.972   0.746
51639W        W23255   7.450   5.499   0.759
51640W        W23256   2.218  41.806   2.265
51641W        W23257  27.654  32.414  13.435
51642W        W23258  29.512  29.957   0.465
51643W        W23259   8.388  42.799  12.935
51644W        W23260  43.043  25.850  14.409
51645W        W23261  32.546   9.046   0.292
51646W        W23262  39.444   3.398  13.366
51647W        W23263  17.125  23.900  14.336
51648W        W23264  26.579  20.271  14.379
51649W        W23265  26.791  19.474   4.725
51650W        W23266  14.868  26.573   0.518
51651W        W23267  32.673  28.951  14.040
51652W        W23268   0.057  33.093  12.297
51653W        W23269  18.357  37.135   3.917
51654W        W23270   1.923   2.280   4.023
51655W        W23271  15.762  30.500   2.334
51656W        W23272  37.457  35.641  11.638
51657W        W23273   9.284  41.229  11.218
51658W        W23274  41.486   6.971   2.651
51659W        W23275  13.132  24.460  12.388
51660W        W23276   4.649  37.539  12.348
51661W        W23277  34.695  16.866   1.659
51662W        W23278  11.072  17.752  14.360
51663W        W23279  29.139  12.063   3.724
51664W        W23280  11.731  28.389  13.445
51665W        W23281  31.815  19.863  13.423
51666W        W23282  40.982  36.899   1.176
51667W        W23283  10.540  25.111  11.982
51668W        W23284  41.757  22.117   4.644
51669W        W23285   8.443  38.461  11.657
51670W        W23286  20.207  16.811   1.717
51671W        W23287  20.267   3.819  11.552
51672W        W23288   8.296  14.565   0.789
51673W        W23289  25.542  30.549  12.386
51674W        W23290  35.516  27.247  14.932
51675W        W23291   4.411  33.551   4.519
51676W        W23292  27.312  12.834  10.764
51677W        W23293   9.394  37.584   4.587
51678W        W23294  42.538  29.059   3.591
51679W        W23295  15.416  11.734   2.691
51680W        W23296  22.152  16.032   1.362
51681W        W23297  11.264  18.737   3.294
51682W        W23298   8.799   8.299  12.370
51683W        W23299  39.760  13.180   2.661
51684W        W23300  16.999  21.649   3.843
51685W        W23301  13.557  18.212  12.689
51686W        W23302  44.393  35.703   5.454
51687W        W23303  20.911  21.991   1.318
51688W        W23304   1.050  44.664  14.689
51689W        W23305   5.281  28.138   3.892
51690W        W23306   9.775  22.568   4.317
51691W        W23307  32.423  25.034  13.314
51692W        W23308  31.216  35.729  11.557
51693W        W23309  30.753  18.185   2.782
51694W        W23310   4.783  29.402  14.917
51695W        W23311  40.994   5.205   2.366
51696W        W23312   9.256  17.583  12.100
51697W        W23313  33.113  19.143  11.192
51698W        W23314  21.651  25.575   2.772
51699W        W23315  28.989  16.704  13.510
51700W        W23316  39.119  25.606   4.533
51701W        W23317  43.075   5.539   1.451
51702W        W23318  14.770  26.027  13.064
51703W        W23319  31.862  19.205  12.266
51704W        W23320  12.594  40.797  10.792
51705W        W23321  39.636  13.366   2.184
51706W        W23322   1.412   9.582  11.862
51707W        W23323  11.024  31.481  14.500
51708W        W23324  19.634  17.387   3.198
51709W        W23325  23.021  22.728  12.811
51710W        W23326  16.081  17.600   1.693
51711W        W23327  13.747  11.640  13.329
51712W        W23328  33.551  30.674   1.664
51713W        W23329   6.095   6.012  11.464
51714W        W23330  11.092   9.903   1.917
51715W        W23331  32.081  17.811   2.775
51716W        W23332  24.178  21.106   0.798
51717W        W23333   4.302  30.154   4.628
51718W        W23334  43.959   2.018   2.752
51719W        W23335   4.426  27.176   2.811
51720W        W23336  17.999   8.453   2.302
51721W        W23337  43.991   6.619   4.068
51722W        W23338  26.590  38.449   2.194
51723W        W23339  37.219   0.828   1.089
51724W        W23340  23.580  16.231  13.782
51725W        W23341  44.237  34.043   4.820
51726W        W23342  27.303  13.024   5.560
51727W        W23343  39.512  32.616  13.926
51728W        W23344   0.262  24.550   2.298
51729W        W23345   4.849  31.677  12.637
51730W        W23346  14.740  44.533   0.981
51731W        W23347  15.680  44.075   3.730
51732W        W23348   2.420   4.501   0.839
51733W        W23349  11.815  28.690  11.154
51734W        W23350  26.086  11.277   3.686
51735W        W23351  15.813   0.824  10.513
51736W        W23352  18.603  34.991  11.019
51737W        W23353   2.469  27.662  13.789
51738W        W23354  34.215   5.205   1.971
51739W        W23355  18.396  26.322  10.296
51740W        W23356  15.643  30.559   4.589
51741W        W23357  12.842   0.733  14.472
51742W        W23358  31.716  26.037   2.744
51743W        W23359  17.610  33.224  10.768
51744W        W23360  21.244  23.659  13.984
51745W        W23361  22.039  29.757   3.562
51746W        W23362  24.668   9.177   0.326
51747W        W23363  35.336  29.797  12.070
51748W        W23364  30.172  24.099   4.897
51749W        W23365  21.038  25.726   1.921
51750W        W23366  27.471  13.199   2.850
51751W        W23367   1.950  43.125  11.082
51752W        W23368  43.734  42.484   1.184
51753W        W23369  33.033  22.974  12.650
51754W        W23370  35.555  11.567  10.366
51755W        W23371  30.103   0.802  12.687
51756W        W23372  41.000   0.940  11.454
51757W        W23373  10.210  15.064  11.126
51758W        W23374  11.641   7.870  13.785
51759W        W23375  34.429  22.097  14.240
51760W        W23376  14.743   9.084   2.058
51761W        W23377  29.527   3.327  14.012
51762W        W23378  40.843  21.289   0.930
51763W        W23379   7.571  11.125   1.239
51764W        W23380  13.811   5.135  13.079
51765W        W23381  24.497   4.652   3.080
51766W        W23382  10.293  28.001  11.354
51767W        W23383  44.457  23.779  10.207
51768W        W23384   5.921  23.145  11.996
51769W        W23385  39.999  33.942  11.545
51770W        W23386  43.231   5.637   0.269
51771W        W23387  17.270  24.529   3.233
51772W        W23388  11.040   3.400   2.000
51773W        W23389  34.393  39.681   2.256
51774W        W23390  30.084   7.960  13.121
51775W        W23391  43.354  38.914   0.695
51776W        W23392  33.094  30.859   1.874
51777W        W23393  20.630  33.962   3.637
51778W        W23394   3.723  17.535   4.276
51779W        W23395   4.783  31.774   4.137
51780W        W23396  22.121  30.081   0.168
51781W        W23397  44.226  17.660   4.202
51782W        W23398  10.540  34.071   3.659
51783W        W23399  15.078  16.342   4.552
51784W        W23400  33.172  39.028  11.076
51785W        W23401  38.547  24.240  14.339
51786W        W23402  30.882  13.092  12.445
51787W        W23403  21.540  25.158  11.526
51788W        W23404  15.429  19.991   4.169
51789W        W23405  17.377  42.726   0.414
51790W        W23406  32.811  32.150  12.027
51791W        W23407  16.196  35.861  10.752
51792W        W23408  40.475  36.921  13.920
51793W        W23409  41.175  21.794  11.047
51794W        W23410  16.156  19.126  13.319
51795W        W23411  34.816   3.919  13.430
51796W        W23412  34.975   8.302   1.605
51797W        W23413   5.434   7.701  11.107
51798W        W23414  12.845  36.472   1.225
51799W        W23415  41.481  15.160  14.902
51800W        W23416  21.195  10.676   3.215
51801W        W23417  15.569  34.774   4.995
51802W        W23418  25.621  26.207  10.701
51803W        W23419  36.755  22.271   1.804
51804W        W23420   7.793   9.416  14.323
51805W        W23421  40.845  17.742  12.048
51806W        W23422   8.689   2.215   4.657
51807W        W23423  39.839  29.591  12.396
51808W        W23424  17.681  20.806  14.470
51809W        W23425  30.539  29.957  13.761
51810W        W23426  32.730  38.323   1.256
51811W        W23427   5.814  24.196   0.942
51812W        W23428  44.192  38.791  12.582
51813W        W23429  37.828  35.051  14.523
51814W        W23430  17.175   3.810   2.785
51815W        W23431  12.109   8.086  10.748
51816W        W23432   6.486  14.533   2.292
51817W        W23433  27.420   2.372   4.166
51818W        W23434  19.510  17.760   2.341
51819W        W23435  35.022  31.219  13.125
51820W        W23436   6.726  32.067  11.967
51821W        W23437  11.428  17.089  11.193
51822W        W23438   9.566  34.636   3.587
51823W        W23439   1.097   8.431   0.403
51824W        W23440   7.079  44.992   2.253
51825W        W23441  37.102   5.158   4.903
51826W        W23442  14.764  20.377   1.223
51827W        W23443   6.645  44.141   1.882
51828W        W23444  11.080  22.395   0.855
51829W        W23445  36.341  28.971  11.386
51830W        W23446  34.358  16.183   0.378
51831W        W23447   9.604  14.199   0.860
51832W        W23448   4.404  43.226   0.403
51833W        W23449  22.456  18.148  12.420
51834W        W23450  36.894  26.173   3.248
51835W        W23451  31.987  41.065  13.852
51836W        W23452  29.562  43.336   2.575
51837W        W23453  16.151   8.430  12.918
51838W        W23454  14.714  44.267  12.835
51839W        W23455  40.056  42.252   1.497
51840W        W23456  18.667  40.371   5.050
51841W        W23457  19.553  41.936   3.150
51842W        W23458   0.811  40.762   4.825
51843W        W23459  35.553  42.765  12.596
51844W        W23460  21.805  24.359  12.462
51845W        W23461  37.402  29.503  12.972
51846W        W23462  33.456  29.691   1.288
51847W        W23463  24.332  39.104   0.640
51848W        W23464  39.950   6.739  10.553
51849W        W23465  27.653  22.046  13.502
51850W        W23466  42.577  17.116  11.701
51851W        W23467   1.179  31.604   4.211
51852W        W23468  29.982  16.124   3.270
51853W        W23469   5.783  40.555   2.448
51854W        W23470  15.598  28.291   2.761
51855W        W23471   0.001  41.418   1.773
51856W        W23472  11.290  17.015   1.912
51857W        W23473  31.607  35.320  10.653
51858W        W23474  37.148  26.618   4.125
51859W        W23475  33.375   5.426  12.667
51860W        W23476   0.122  35.124   3.863
51861W        W23477  12.750  41.471   3.706
51862W        W23478  38.921  34.172   2.038
51863W        W23479  31.250  42.469   3.194
51864W        W23480  43.599  18.506  12.828
51865W        W23481  29.540  16.231  14.758
51866W        W23482  23.042  16.411  12.614
51867W        W23483  35.943  20.016   3.171
51868W        W23484  36.476   8.216   0.772
51869W        W23485  13.268  38.855   3.718
51870W        W23486  22.740   8.668  14.667
51871W        W23487  20.088  34.908  10.402
51872W        W23488   3.148  30.178   0.435
51873W        W23489  34.016  11.863  12.928
51874W        W23490  22.180  36.865  11.598
51875W        W23491  14.371  38.483  11.519
51876W        W23492   0.647   8.705   0.509
51877W        W23493  12.174  35.672  14.783
51878W        W23494  41.584  43.828  10.543
51879W        W23495  28.300  33.920   2.259
51880W        W23496   9.773  22.254  11.072
51881W        W23497  10.017  42.388   0.202
51882W        W23498   6.944  40.542  10.929
51883W        W23499  26.493  20.045   1.224
51884W        W23500   9.920  40.865   1.683
51885W        W23501  30.818  36.156   0.325
51886W        W23502  33.438   8.313  12.859
51887W        W23503   9.299  40.610   1.589
51888W        W23504  18.167   5.668  13.454
51889W        W23505  11.232  20.514   4.481
51890W        W23506  35.008   8.266  11.150
51891W        W23507  36.532  31.764   3.817
51892W        W23508  22.921   1.920   3.364
51893W        W23509  21.601  33.640  10.837
51894W        W23510  15.553  29.074   4.584
51895W        W23511  18.213  36.007  13.067
51896W        W23512  33.980   1.507   2.330
51897W        W23513  28.612  43.036   4.417
51898W        W23514  40.562  22.223  13.593
51899W        W23515   3.335   4.200   1.665
51900W        W23516  13.683  27.242   4.199
51901W        W23517  12.231  23.278   4.093
51902W        W23518  37.170   4.759   2.180
51903W        W23519  30.529  11.525   1.745
51904W        W23520   1.806  39.037   4.737
51905W        W23521   2.253  32.876  14.365
51906W        W23522  20.250  12.675   0.501
51907W        W23523  18.207  32.217   4.322
51908W        W23524   6.247  32.970   4.244
51909W        W23525   3.508  20.665   4.307
51910W        W23526   4.713  12.220   0.545
51911W        W23527  15.753  26.781   0.555
51912W        W23528  37.605  26.136  12.464
51913W        W23529  39.858  36.805   0.975
51914W        W23530   3.887  17.597  10.659
51915W        W23531  36.924  34.068  12.015
51916W        W23532  41.769  32.664  13.835
51917W        W23533   9.892  27.874  14.891
51918W        W23534  13.512  40.373  13.983
51919W        W23535  27.721  13.045  13.955
51920W        W23536   2.739  35.747  12.485
51921W        W23537   2.217  43.560   1.093
51922W        W23538  11.827  13.345  14.159
51923W        W23539  37.485  32.646   2.163
51924W        W23540   4.208  39.652   0.908
51925W        W23541  42.929  33.031   1.681
51926W        W23542  10.649  21.469  14.016
51927W        W23543  12.754   8.352  11.725
51928W        W23544  29.450  20.156   4.552
51929W        W23545   0.999  40.184  13.023
51930W        W23546  27.545   3.380  14.251
51931W        W23547  16.257  37.834   2.597
51932W        W23548   5.935   8.816   3.770
51933W        W23549  20.913  31.727  11.614
51934W        W23550  25.931  16.099  14.211
51935W        W23551  14.601  14.563  13.310
51936W        W23552  23.551  18.885  10.673
51937W        W23553   6.450  43.760  14.374
51938W        W23554  14.114  10.946   4.554
51939W        W23555  27.610  19.053  12.340
51940W        W23556  23.785  41.073   2.891
51941W        W23557  10.353  27.184   3.863
51942W        W23558  30.404  21.905   0.009
51943W        W23559  37.683  21.584  11.244
51944W        W23560  22.051  31.429  13.785
51945W        W23561  22.111   7.841  14.795
51946W        W23562  11.758  25.754   0.876
51947W        W23563  33.975  16.718  11.957
51948W        W23564  32.343  37.511   1.184
51949W        W23565  22.074  28.885  12.915
51950W        W23566  26.209  13.789   1.881
51951W        W23567  27.945   1.444  11.057
51952W        W23568  35.075  35.937  10.693
51953W        W23569  44.474  34.281  11.616
51954W        W23570  31.443  23.070  11.417
51955W        W23571  37.350  28.787   1.437
51956W        W23572  31.763  43.340   2.252
51957W        W23573  42.381   0.692  10.753
51958W        W23574  21.995  12.981   3.673
51959W        W23575  40.965  14.106  11.196
51960W        W23576  39.486  13.840   2.226
51961W        W23577  11.143  19.143   4.058
51962W        W23578   3.786   2.543   1.566
51963W        W23579   7.683  24.153  11.592
51964W        W23580  14.071  12.360   4.873
51965W        W23581   2.007   7.775  11.519
51966W        W23582  43.836  12.882   1.457
51967W        W23583  20.715  42.063   4.148
51968W        W23584   3.345   6.899   1.216
51969W        W23585  38.331  22.242  11.642
51970W        W23586  43.451   4.887  13.332
51971W        W23587  22.621  11.711   3.017
51972W        W23588   7.345  24.493  14.966
51973W        W23589  39.127  12.561   2.208
51974W        W23590  22.134  12.886   4.695
51975W        W23591   1.381  32.974   0.227
51976W        W23592  39.871  26.899  10.546
51977W        W23593   7.899  33.464  12.479
51978W        W23594   9.630  42.818  13.376
51979W        W23595  16.504  19.088  12.396
51980W        W23596  44.450  27.422   3.223
51981W        W23597   7.961   3.148   2.408
51982W        W23598  22.414  39.487  13.376
51983W        W23599  16.668  19.859  13.430
51984W        W23600   9.284  13.665  14.752
51985W        W23601  25.470   9.499  14.777
51986W        W23602   9.158   8.135   4.701
51987W        W23603  26.429  12.754   2.727
51988W        W23604  33.711  39.394   2.780
51989W        W23605  21.271  10.030   0.545
51990W        W23606  34.844  29.724  10.739
51991W        W23607  39.903  41.081   2.849
51992W        W23608  18.576   1.069   4.064
51993W        W23609  17.044   7.734  14.769
51994W        W23610  39.567  33.550   0.831
51995W        W23611  37.994  13.054   1.787
51996W        W23612  11.012  33.208  14.925
51997W        W23613  19.279  40.487   3.291
51998W        W23614  19.251  16.369  14.875
51999W        W23615  14.634  33.372  10.934
52000W        W23616  31.557  27.084   4.308
52001W        W23617  14.779  31.342   0.971
52002W        W23618  27.627   2.406  13.681
52003W        W23619  16.587  12.119   1.717
52004W        W23620  39.410  17.759  11.118
52005W        W23621  26.908  10.050  11.168
52006W        W23622   5.362  24.678   0.251
52007W        W23623   7.993  23.098   4.133
52008W        W23624   5.484  12.312  12.800
52009W        W23625  24.550  19.547   3.708
52010W        W23626  10.575  17.879  14.492
52011W        W23627  14.094   7.890  14.387
52012W        W23628   5.480  27.040   0.890
52013W        W23629  15.954  35.117  11.904
52014W        W23630   6.415  41.295  11.517
52015W        W23631  28.195  25.173   3.083
52016W        W23632  15.295   8.299   2.844
52017W        W23633  30.780  31.589   0.362
52018W        W23634   6.846  43.414  10.742
52019W        W23635  22.416  26.155  13.522
52020W        W23636  17.176   4.292  11.567
52021W        W23637  14.063  31.179   0.504
52022W        W23638  25.235  25.693   3.155
52023W        W23639  18.483   9.699   4.221
52024W        W23640  30.149   8.906   2.320
52025W        W23641  38.465  37.657  12.070
52026W        W23642  34.548  39.863   1.347
52027W        W23643   5.231  41.774   0.176
52028W        W23644  14.558  27.429   3.362
52029W        W23645  42.841  21.741  13.523
52030W        W23646  17.662  20.256   3.938
52031W        W23647  34.947  25.030   0.440
52032W        W23648  30.603   3.702  14.477
52033W        W23649  18.748  43.491   4.686
52034W        W23650   1.344  38.890   2.393
52035W        W23651  30.056  18.186  11.824
52036W        W23652  11.340  33.164   0.929
52037W        W23653  43.671  41.382  12.655
52038W        W23654   6.867  18.296   3.842
52039W        W23655  40.825  17.793   1.442
52040W        W23656  13.581  26.218   0.853
52041W        W23657   0.677  10.174  12.319
52042W        W23658  23.762  25.750  14.838
52043W        W23659  23.069  41.847  11.034
52044W        W23660   2.340  32.928   1.371
52045W        W23661  11.139  14.762  12.575
52046W        W23662  20.779  39.829  11.377
52047W        W23663  31.760  25.214  11.049
52048W        W23664  23.135  35.685  14.245
52049W        W23665  15.849   1.717  12.065
52050W        W23666  30.974  44.029   1.422
52051W        W23667  36.360  15.504   2.141
52052W        W23668  17.896   8.329  13.449
52053W        W23669  20.730  14.862   1.256
52054W        W23670  28.827   9.310  14.838
52055W        W23671   5.210  11.748  14.461
52056W        W23672   7.942  42.902   4.137
52057W        W23673  26.656  31.476   0.744
52058W        W23674   9.249   2.820   1.015
52059W        W23675   3.986  31.379   1.863
52060W        W23676  36.402  15.658  12.531
52061W        W23677  23.275  22.775   1.518
52062W        W23678  38.974  16.617  12.126
52063W        W23679  34.337  23.545  12.477
52064W        W23680  13.145  37.790   2.323
52065W        W23681  26.519  23.449   1.402
52066W        W23682   8.468  40.300   0.683
52067W        W23683  11.807   9.847   3.726
52068W        W23684  12.679  36.264   3.126
52069W        W23685  35.047  37.572  14.388
52070W        W23686   3.498  29.751  13.549
52071W        W23687   3.594  28.921   1.215
52072W        W23688   1.950  10.578   2.683
52073W        W23689  21.254  16.203  12.984
52074W        W23690   9.452  35.400   1.846
52075W        W23691  19.733  27.891  13.168
52076W        W23692   2.380  39.597  12.453
52077W        W23693   3.472  23.772  13.101
52078W        W23694  26.177  15.104  13.503
52079W        W23695  33.554  38.862   4.631
52080W        W23696  42.940  18.740   1.829
52081W        W23697  20.078   5.366   3.661
52082W        W23698  40.406   3.454   2.357
52083W        W23699  37.972  32.995   2.771
52084W        W23700  32.978   9.895   2.373
52085W        W23701  17.569  22.191   0.955
52086W        W23702  11.998   3.843  14.871
52087W        W23703  34.465  31.042   1.826
52088W        W23704   6.157  40.904  11.970
52089W        W23705  11.388  33.417   2.340
52090W        W23706  38.341  36.283   1.476
52091W        W23707  22.347  24.115   3.513
52092W        W23708   9.266  39.146   2.894
52093W        W23709  26.643  31.665   1.792
52094W        W23710  10.190  24.668   4.898
52095W        W23711  11.068  29.093  14.465
52096W        W23712   0.349  37.568  10.982
52097W        W23713  40.815   0.285   1.418
52098W        W23714  40.387  39.064  13.093
52099W        W23715  18.312  42.908   2.790
52100W        W23716  17.368  23.116  13.784
52101W        W23717  13.190   9.730   4.092
52102W        W23718  17.198  14.092  11.163
52103W        W23719   5.177   7.020  11.522
52104W        W23720   7.922   2.027  12.064
52105W        W23721  17.649  40.791  10.859
52106W        W23722  32.982  39.071   2.949
52107W        W23723   3.782   9.865   4.353
52108W        W23724  42.987  23.745   4.322
52109W        W23725  29.846  44.178   2.908
52110W        W23726  38.220   3.467   0.524
52111W        W23727  38.330  44.255   0.331
52112W        W23728   6.681   6.310  10.466
52113W        W23729  36.352  25.936  12.944
52114W        W23730  39.959  16.868   4.449
52115W        W23731  42.580   3.326   1.410
52116W        W23732  17.932   3.782   2.346
52117W        W23733  15.978   6.933  10.453
52118W        W23734  15.632  36.642  13.363
52119W        W23735  28.160  14.563   4.638
52120W        W23736  43.899  13.494  13.506
52121W        W23737  10.978   4.571  14.428
52122W        W23738  10.922  11.328  11.964
52123W        W23739  18.842  41.529  14.982
52124W        W23740  26.297  26.550  14.646
52125W        W23741  27.888  14.308   3.262
52126W        W23742  22.050  30.108  11.398
52127W        W23743  22.148  10.463   0.917
52128W        W23744  20.648  29.495  12.029
52129W        W23745  31.098  35.651   4.155
52130W        W23746  13.102  36.407  13.784
52131W        W23747  11.316   5.450  11.740
52132W        W23748  30.927  16.411  14.639
52133W        W23749  12.881   7.273  13.448
52134W        W23750  31.321  34.572  14.701
52135W        W23751  15.053   6.296   4.614
52136W        W23752  11.775   1.486   0.202
52137W        W23753  43.794  15.351   1.033
52138W        W23754  19.885   9.229   2.767
52139W        W23755  20.081  11.785  12.502
52140W        W23756   1.977  14.745   1.354
52141W        W23757   4.641  13.278  13.218
52142W        W23758  32.096  33.792  14.075
52143W        W23759   5.879  30.579   3.700
52144W        W23760  30.531   7.276   2.448
52145W        W23761  16.790  32.434   3.339
52146W        W23762  38.872  37.165  10.603
52147W        W23763   2.768  16.893  10.755
52148W        W23764  23.112  27.446   3.589
52149W        W23765   6.211  21.575   3.762
52150W        W23766  40.839  31.397  11.506
52151W        W23767  33.428  17.740   0.405
52152W        W23768  27.407  10.267  13.538
52153W        W23769  23.029  18.017   1.097
52154W        W23770  43.490  40.224   2.135
52155W        W23771   8.778  41.153  10.821
52156W        W23772  34.229  42.894   1.365
52157W        W23773  38.313  19.131  12.917
52158W        W23774  15.189  19.600  12.176
52159W        W23775   0.012  13.379   0.050
52160W        W23776  14.576  15.625   2.571
52161W        W23777  44.947  21.656   2.785
52162W        W23778  28.686  16.561  13.919
52163W        W23779  29.455  27.654   0.439
52164W        W23780  36.176  40.748   1.730
52165W        W23781  41.241  24.469  13.972
52166W        W23782  28.194  26.029  10.555
52167W        W23783  15.229  43.875  11.589
52168W        W23784  20.074   0.024  11.748
52169W        W23785  33.960  33.782  13.103
52170W        W23786  31.167  29.937   0.550
52171W        W23787  22.600  35.761  14.409
52172W        W23788  41.562  39.394  13.861
52173W        W23789  22.191  40.476  13.526
52174W        W23790  22.707  42.266  11.151
52175W        W23791  11.133  30.870  14.926
52176W        W23792  21.065  18.494  12.218
52177W        W23793  29.122  43.335  11.575
52178W        W23794   3.795  22.778   4.355
52179W        W23795  40.067  31.169   3.570
52180W        W23796  32.575  21.618  14.417
52181W        W23797  34.389  20.285  14.485
52182W        W23798  28.773  13.762   1.449
52183W        W23799  43.947   5.416   1.943
52184W        W23800   3.253  41.110   0.673
52185W        W23801  13.344  39.300   4.547
52186W        W23802   4.646  13.351  11.203
52187W        W23803   7.295   9.694   4.328
52188W        W23804   1.584  41.273  11.059
52189W        W23805  28.053  22.379   4.642
52190W        W23806  10.644  40.525   4.486
52191W        W23807  19.817   3.681   2.193
52192W        W23808   6.604  12.158   2.438
52193W        W23809  28.233  33.896  14.028
52194W        W23810  12.576  28.230  10.652
52195W        W23811   7.672   3.738   3.188
52196W        W23812  16.614  38.877  12.464
52197W        W23813  25.658  24.142   4.754
52198W        W23814   8.596  32.543  10.846
52199W        W23815  23.751   1.890  10.869
52200W        W23816   3.005  22.052  11.127
52201W        W23817  23.002   1.194  10.390
52202W        W23818  26.250   5.805   3.322
52203W        W23819  29.345  18.727  14.380
52204W        W23820   3.458  39.213  13.332
52205W        W23821  36.129  38.122   2.035
52206W        W23822  34.313  44.200  10.993
52207W        W23823  11.395   9.962   4.595
52208W        W23824   5.781  41.734  11.872
52209W        W23825  37.752  21.755   2.488
52210W        W23826   5.184  44.702  10.842
52211W        W23827  35.777  13.797  11.520
52212W        W23828   3.689   8.161  12.945
52213W        W23829   3.103   2.991  14.808
52214W        W23830  30.605  18.795  13.146
52215W        W23831  15.621  31.643   0.462
52216W        W23832  39.780  41.253  12.687
52217W        W23833  35.849  41.541   2.177
52218W        W23834  29.479  42.376   2.892
52219W        W23835  25.707   3.854   1.707
52220W        W23836  13.553  18.137  11.011
52221W        W23837  26.430  12.663   4.156
52222W        W23838  24.967  23.728  13.429
52223W        W23839  38.638  28.495   1.717
52224W        W23840  26.224  17.147   4.231
52225W        W23841  39.166  29.551  14.578
52226W        W23842  28.596  24.908   3.305
52227W        W23843  36.841  32.991   4.306
52228W        W23844  35.877  27.295   1.794
52229W        W23845  42.902  12.694  14.958
52230W        W23846   1.791  18.319  14.837
52231W        W23847   2.182   4.973   2.067
52232W        W23848  26.659  38.029  12.525
52233W        W23849  20.624  44.057   4.879
52234W        W23850  28.954  27.881   0.722
52235W        W23851  26.082   5.396   2.661
52236W        W23852  20.102  31.105  14.412
52237W        W23853  13.632   8.086  10.705
52238W        W23854  30.595   5.359   1.425
52239W        W23855  32.987  42.331   2.468
52240W        W23856   2.733  43.434   4.129
52241W        W23857  33.129  42.239   2.950
52242W        W23858  18.150  31.989   1.223
52243W        W23859  24.006  33.504   3.406
52244W        W23860  35.435  27.958  11.987
52245W        W23861   9.491  25.208  11.502
52246W        W23862   6.074   7.616  12.951
52247W        W23863  22.482  25.132  11.594
52248W        W23864  25.268  40.894   3.652
52249W        W23865  13.219  41.186  14.271
52250W        W23866   6.146  25.193  11.103
52251W        W23867   7.823  18.753   1.990
52252W        W23868   7.115  33.502  12.145
52253W        W23869  17.025  23.314   1.804
52254W        W23870  18.867  30.953  12.126
52255W        W23871  23.027  10.420   4.354
52256W        W23872  14.058   2.216   1.822
52257W        W23873  33.385  13.126   4.110
52258W        W23874  37.653  44.887   1.254
52259W        W23875  36.595   2.406   2.298
52260W        W23876  29.874   4.676  12.994
52261W        W23877  42.558   5.249   4.899
52262W        W23878  13.130  22.518   0.231
52263W        W23879   7.448  30.977  10.621
52264W        W23880   1.741  14.503   5.060
52265W        W23881  26.180  26.917   2.180
52266W        W23882  20.331  14.594  14.966
52267W        W23883   2.855  18.968   1.425
52268W        W23884  35.725   2.874  11.979
52269W        W23885  23.086   9.485   1.919
52270W        W23886  43.384  39.855   4.580
52271W        W23887  13.927  13.127  14.527
52272W        W23888   1.495   7.701   0.025
52273W        W23889  21.726  42.078   2.326
52274W        W23890  43.017  17.115  13.805
52275W        W23891  13.001  44.402  12.675
52276W        W23892  28.266   2.832  13.759
52277W        W23893   0.759  41.730  12.452
52278W        W23894  10.267  22.125  10.960
52279W        W23895  12.318  30.598   1.035
52280W        W23896  27.696  34.232  11.441
52281W        W23897  34.883   1.732   4.634
52282W        W23898  27.140  28.145  14.562
52283W        W23899  20.669  17.652  10.732
52284W        W23900  23.913  13.313  10.984
52285W        W23901   9.132  29.179   4.030
52286W        W23902   7.750  18.192  10.725
52287W        W23903  38.302  10.627   4.781
52288W        W23904  27.172  41.401  14.315
52289W        W23905  29.609   4.161   0.946
52290W        W23906  40.849  38.924  14.912
52291W        W23907  36.339  17.694  11.492
52292W        W23908  14.913  32.953  11.133
52293W        W23909  38.315  13.447  10.938
52294W        W23910  17.536   0.335   2.363
52295W        W23911  15.760  10.927   1.938
52296W        W23912  35.793  16.235  12.123
52297W        W23913   3.750  42.929  13.851
52298W        W23914  10.601  35.589   4.819
52299W        W23915   1.449  24.565  14.847
52300W        W23916   0.460  10.716  14.345
52301W        W23917  26.083  42.241   0.442
52302W        W23918  27.077   7.507  14.799
52303W        W23919  37.003  39.312  12.972
52304W        W23920   3.996  33.156   3.071
52305W        W23921  27.930  19.789  14.394
52306W        W23922  37.048  30.495  11.460
52307W        W23923  34.544   7.784   4.050
52308W        W23924  16.463  43.263  13.447
52309W        W23925  35.922  25.745   2.651
52310W        W23926   8.181  11.843  14.852
52311W        W23927  44.963   7.305  11.967
52312W        W23928  11.139  11.830   0.681
52313W        W23929   3.957  27.232  10.528
52314W        W23930   7.363  41.530   2.153
52315W        W23931  42.108  27.640  11.289
52316W        W23932   1.834  35.343  11.777
52317W        W23933  28.902  15.088   5.480
52318W        W23934   8.925   4.946  12.363
52319W        W23935  17.513  30.728   2.402
52320W        W23936  32.227  20.664   4.261
52321W        W23937   7.233  19.188   1.228
52322W        W23938  11.841  37.436   0.860
52323W        W23939   2.553  24.494   1.308
52324W        W23940  38.943  25.091  13.830
52325W        W23941  32.669  18.663  11.962
52326W        W23942   0.470  31.789  12.537
52327W        W23943   9.680  35.414   3.133
52328W        W23944   7.883  35.011  13.082
52329W        W23945  24.126  40.520   3.378
52330W        W23946  19.595  22.526  13.509
52331W        W23947  36.141  26.515  11.076
52332W        W23948   8.452  13.764   0.498
52333W        W23949  27.507   0.092   1.768
52334W        W23950  34.438  19.478   2.120
52335W        W23951   2.591   4.967  13.423
52336W        W23952  42.735  28.011   2.090
52337W        W23953  29.713  41.898   4.545
52338W        W23954  14.630   2.313   1.665
52339W        W23955  21.217  28.219   3.705
52340W        W23956  41.660  33.594  12.886
52341W        W23957  19.291  19.478  12.429
52342W        W23958  12.639  33.636   4.681
52343W        W23959  30.614   4.855  11.689
52344W        W23960  34.665  18.516  11.966
52345W        W23961  30.210  12.038  14.776
52346W        W23962  20.323  30.089  12.435
52347W        W23963  21.521  33.631  12.836
52348W        W23964  16.784  18.781   3.945
52349W        W23965   8.986   5.004   4.179
52350W        W23966  43.921   8.701  13.404
52351W        W23967  27.897   9.827  12.091
52352W        W23968  25.976  32.927  10.671
52353W        W23969  35.879   9.683  14.384
52354W        W23970   7.862  23.680   0.206
52355W        W23971  36.895  19.321   3.168
52356W        W23972   8.249  14.018  10.804
52357W        W23973   8.153  17.819  12.709
52358W        W23974  41.223   4.770  13.011
52359W        W23975  37.434  20.182   4.063
52360W        W23976  28.942  40.476   4.882
52361W        W23977  40.321  14.664  12.921
52362W        W23978   7.265   8.658   2.453
52363W        W23979   5.229  35.435   0.738
52364W        W23980   3.333  32.577   2.909
52365W        W23981  26.066   6.746  13.664
52366W        W23982  44.428   0.951   4.220
52367W        W23983  30.215  18.545   0.853
52368W        W23984  20.220   5.832  12.746
52369W        W23985  27.180  26.668   1.776
52370W        W23986   8.280   1.346  13.101
52371W        W23987   6.596   1.473  14.724
52372W        W23988  11.975  41.043  12.485
52373W        W23989  18.118  41.989   3.994
52374W        W23990  10.391  23.517  13.955
52375W        W23991   2.529  33.609  10.341
52376W        W23992   9.639  37.028   2.274
52377W        W23993  31.312  33.469   0.424
52378W        W23994  27.976  24.250   2.702
52379W        W23995  22.952  19.577  12.498
52380W        W23996  44.009  44.752  12.316
52381W        W23997  12.613  13.061   4.638
52382W        W23998  37.795  31.125   3.822
52383W        W23999   4.753  17.736   0.829
52384W        W24000   0.697  32.060  10.808
52385W        W24001  35.556  33.115  12.560
52386W        W24002  43.467  24.514  11.154
52387W        W24003  15.641  13.838  13.533
52388W        W24004  23.197  26.499  12.889
52389W        W24005  14.694  44.206  13.996
52390W        W24006  27.261  19.577  12.936
52391W        W24007  13.683  17.617   5.384
52392W        W24008  11.466  11.354   2.741
52393W        W24009   1.705   6.785  13.468
52394W        W24010  17.228  27.482   1.637
52395W        W24011  21.690   9.871   4.699
52396W        W24012   3.480  32.176  11.947
52397W        W24013  41.989  25.174  11.947
52398W        W24014  44.741  15.356   0.824
52399W        W24015  22.558   0.155   1.868
52400W        W24016  28.601  29.055   0.762
52401W        W24017  25.235  26.267   2.266
52402W        W24018   8.353  17.704  10.474
52403W        W24019  30.728  15.194   1.650
52404W        W24020  21.304  31.397  14.913
52405W        W24021  26.565  27.745   4.144
52406W        W24022  26.526   8.482   1.183
52407W        W24023  36.886   5.184  10.722
52408W        W24024  32.002  25.968   3.214
52409W        W24025  37.618  28.020   0.778
52410W        W24026  44.323  21.950   0.887
52411W        W24027  13.397  13.833   2.759
52412W        W24028   2.737  22.688  13.363
52413W        W24029  10.301  25.986   1.345
52414W        W24030  12.529   0.482   2.163
52415W        W24031  40.253  16.276  11.047
52416W        W24032  22.571  39.831  12.922
52417W        W24033  41.413  18.150   4.172
52418W        W24034  28.199   3.069  12.033
52419W        W24035  33.862  41.260  10.756
52420W        W24036   6.885  27.601  13.065
52421W        W24037  27.005  17.640  14.929
52422W        W24038  10.282   0.562  11.855
52423W        W24039   7.119   6.617  10.483
52424W        W24040  36.938  10.399  14.180
52425W        W24041  43.168  33.586  11.456
52426W        W24042  11.089  40.826   0.837
52427W        W24043  21.505   4.371   2.100
52428W        W24044  37.887  34.166   0.741
52429W        W24045  21.325  10.007   1.905
52430W        W24046  21.681  11.192   3.834
52431W        W24047  37.901  38.111   3.335
52432W        W24048  18.977  16.575   1.173
52433W        W24049  42.769  18.599  13.295
52434W        W24050  23.969  33.119  11.983
52435W        W24051  20.088   6.639   1.342
52436W        W24052  26.216  21.143  11.909
52437W        W24053  32.720   3.287   3.820
52438W        W24054  12.206  30.541   1.541
52439W        W24055   8.785   3.593  13.315
52440W        W24056  11.887  26.471  10.692
52441W        W24057  10.333  36.541  13.240
52442W        W24058  25.458   9.077  11.035
52443W        W24059  24.803  20.209   4.901
52444W        W24060  20.236   9.062   4.304
52445W        W24061  42.857  30.484   2.404
52446W        W24062   5.235   8.432   0.016
52447W        W24063  27.600   4.339  12.115
52448W        W24064  23.487   2.833   0.318
52449W        W24065  24.007  20.874  10.795
52450W        W24066   1.560  18.514  12.554
52451W        W24067  39.849  28.175  13.561
52452W        W24068  34.521  17.546  10.915
52453W        W24069  22.582  20.513  14.775
52454W        W24070  44.821  31.661  11.939
52455W        W24071  15.257  27.128   4.654
52456W        W24072  38.558   0.659  12.896
52457W        W24073   2.335  36.433  12.109
52458W        W24074  18.278  23.526   0.316
52459W        W24075   3.147  30.958   5.065
52460W        W24076  19.117   8.489   3.731
52461W        W24077  29.750  43.827  10.443
52462W        W24078  12.836  41.970   4.567
52463W        W24079  42.102  14.797  11.517
52464W        W24080  30.734  33.919  14.696
52465W        W24081  24.587  24.355   2.319
52466W        W24082  29.669  15.560  10.912
52467W        W24083  28.917  10.424   4.605
52468W        W24084  13.738  28.951  12.917
52469W        W24085  16.163  18.098   5.507
52470W        W24086  37.014  29.189   2.201
52471W        W24087  29.452  15.570  14.337
52472W        W24088  29.408   1.327  10.626
52473W        W24089   4.725   8.680  11.752
52474W        W24090  39.494  15.588   1.910
52475W        W24091   7.401  15.400   2.101
52476W        W24092   3.286  19.837  12.401
52477W        W24093   2.061  24.990  13.395
52478W        W24094  11.399   7.650  11.099
52479W        W24095   6.874  34.072   1.676
52480W        W24096  21.712  37.640   1.800
52481W        W24097  26.578   6.192   3.457
52482W        W24098   4.258  11.201  14.247
52483W        W24099  19.650   0.312  10.256
52484W        W24100  39.332  25.440  13.450
52485W        W24101  13.693  11.636   0.248
52486W        W24102  18.564   7.799  14.923
52487W        W24103  35.105  31.382  13.592
52488W        W24104   2.457  18.129   0.925
52489W        W24105  30.973  38.888  12.559
52490W        W24106  26.142  39.078   1.779
52491W        W24107  16.618  11.084   4.413
52492W        W24108  22.676  12.581   4.048
52493W        W24109  10.971   1.618   1.765
52494W        W24110   5.824   4.614   0.849
52495W        W24111  17.072   8.681  13.320
52496W        W24112  41.347  44.521   0.896
52497W        W24113  33.096  19.608  14.568
52498W        W24114  41.629   0.026  14.353
52499W        W24115  20.025  33.074  13.371
52500W        W24116  19.246  22.732   3.678
52501W        W24117  16.858  41.220   4.422
52502W        W24118  21.495  23.193  14.450
52503W        W24119  13.198   3.758   0.574
52504W        W24120  16.858  13.929  14.803
52505W        W24121  28.891  25.084   0.079
52506W        W24122  34.718  10.820   3.724
52507W        W24123  19.053   8.771  13.846
52508W        W24124  10.046   6.798  12.467
52509W        W24125  33.554  20.379   0.238
52510W        W24126  13.037  20.082  11.784
52511W        W24127  16.763  35.623  13.894
52512W        W24128   3.508  42.415   3.738
52513W        W24129   9.161   4.899  11.611
52514W        W24130  12.110   9.791  11.238
52515W        W24131   4.284   1.734   3.195
52516W        W24132  31.140  44.523   1.436
52517W        W24133  28.155  16.169  11.453
52518W        W24134  30.634  39.361  10.608
52519W        W24135   6.422  41.403   1.088
52520W        W24136  28.941   1.684   2.728
52521W        W24137  10.437  17.034   0.819
52522W        W24138  37.446  30.191   1.013
52523W        W24139  37.127  38.853   2.772
52524W        W24140  30.129  10.369   1.312
52525W        W24141  43.292  12.659  11.534
52526W        W24142  24.640  34.455   2.291
52527W        W24143  39.563  38.851   3.928
52528W        W24144  44.389  43.738  11.147
52529W        W24145  24.678   6.644  12.517
52530W        W24146  29.176  15.792  10.119
52531W        W24147  33.955  43.244   2.554
52532W        W24148  26.531   7.723   1.906
52533W        W24149  20.089  23.526  13.564
52534W        W24150  15.551  19.683   3.086
52535W        W24151  15.999  10.267  12.459
52536W        W24152  29.215  15.427  13.823
52537W        W24153  24.568  33.124   0.939
52538W        W24154  33.200  34.535   0.264
52539W        W24155  17.788  24.012  11.619
52540W        W24156  17.154   1.119   4.162
52541W        W24157  38.310   2.499  14.577
52542W        W24158  28.719  10.753  12.661
52543W        W24159   8.688  25.093  13.375
52544W        W24160   5.713  25.546  14.544
52545W        W24161  10.162  14.168  13.027
52546W        W24162   0.244  40.819   2.450
52547W        W24163  33.796  14.904   4.083
52548W        W24164  31.924  13.819  14.896
52549W        W24165  34.507  21.698  10.703
52550W        W24166  35.826  35.503   1.451
52551W        W24167  37.432  34.434  14.025
52552W        W24168  18.706  33.343  12.397
52553W        W24169  20.113   2.340   1.221
52554W        W24170   4.270   9.154   0.770
52555W        W24171  18.554  16.590   3.010
52556W        W24172  10.194  36.360  13.715
52557W        W24173  40.101  14.605  11.791
52558W        W24174  14.980  43.002   4.950
52559W        W24175   9.861  27.886   3.268
52560W        W24176  33.859  14.696   4.567
52561W        W24177  44.397  28.529  10.838
52562W        W24178  29.567  43.896   1.861
52563W        W24179  36.108  19.055   4.118
52564W        W24180  19.895  39.105   0.741
52565W        W24181   3.408   3.831   3.173
52566W        W24182  41.796   5.159   4.408
52567W        W24183  38.799  29.679  11.237
52568W        W24184   1.249   7.906  14.018
52569W        W24185  38.840  31.631  14.392
52570W        W24186  11.321   9.741  11.906
52571W        W24187  28.165   5.187   0.677
52572W        W24188  44.863   9.700  14.251
52573W        W24189  17.085  30.001   1.251
52574W        W24190   4.202  30.128  13.009
52575W        W24191  31.922  37.288  14.822
52576W        W24192  15.706  26.613  12.047
52577W        W24193  43.962  11.384   4.058
52578W        W24194   0.576  19.577   0.412
52579W        W24195  24.099   6.431   4.073
52580W        W24196   8.033   3.862   2.815
52581W        W24197  12.558  23.647  13.530
52582W        W24198  20.893  17.112   1.684
52583W        W24199  42.500   5.640  11.598
52584W        W24200  28.427  37.995  10.867
52585W        W24201  41.760  26.742   1.279
52586W        W24202  19.626  29.828   1.342
52587W        W24203   0.240  36.043   4.520
52588W        W24204  30.529  36.566   1.010
52589W        W24205  13.884  11.441   1.736
52590W        W24206  43.832  15.146   0.550
52591W        W24207  20.704  24.210  12.143
52592W        W24208  18.931  27.236  12.625
52593W        W24209  25.257  17.295  13.278
52594W        W24210  41.760   1.005   1.846
52595W        W24211  44.682  32.283   2.250
52596W        W24212  34.574  22.172   1.389
52597W        W24213  20.207  34.529  11.612
52598W        W24214  24.223   6.289  14.115
52599W        W24215  11.149  11.626  14.756
52600W        W24216  29.365  15.185  14.977
52601W        W24217  26.026  24.720  13.076
52602W        W24218  12.782   6.896   5.200
52603W        W24219  12.701  18.860  13.523
52604W        W24220  34.861   9.635   3.336
52605W        W24221  19.752  22.089  13.784
52606W        W24222  17.507  43.342   2.649
52607W        W24223   0.378  23.776  10.213
52608W        W24224  44.163   1.872   1.158
52609W        W24225  33.139  38.519   1.001
52610W        W24226  32.742  13.667   2.952
52611W        W24227  27.228   6.331  12.469
52612W        W24228  29.532  40.580   4.114
52613W        W24229  36.139  23.225   2.388
52614W        W24230   9.320  13.541  12.935
52615W        W24231  14.844  25.848   3.609
52616W        W24232   2.518  33.133   3.174
52617W        W24233  22.680  42.017  10.687
52618W        W24234  25.961  31.151   4.939
52619W        W24235  28.942  34.479  12.597
52620W        W24236   3.766  35.567  14.503
52621W        W24237   9.473  29.579  11.911
52622W        W24238  41.520  38.873  13.462
52623W        W24239  43.169  35.113  10.115
52624W        W24240  28.061  19.119   3.420
52625W        W24241  33.606   5.852   4.602
52626W        W24242   0.395   9.739  12.401
52627W        W24243  14.480  26.802   4.473
52628W        W24244  26.660  42.056  10.688
52629W        W24245   1.355   0.469   3.214
52630W        W24246  37.567  12.810  14.694
52631W        W24247   6.239  40.452  14.135
52632W        W24248   8.164   6.655   3.297
52633W        W24249  30.771  26.953   3.750
52634W        W24250  11.878  20.968   2.279
52635W        W24251   6.563  37.965  13.062
52636W        W24252  31.097  24.385   4.248
52637W        W24253  23.567  20.915  10.484
52638W        W24254  40.849  17.636  10.721
52639W        W24255  40.829  42.829   3.725
52640W        W24256  37.535  33.359   3.832
52641W        W24257  41.038  13.649   2.423
52642W        W24258  24.468  14.324   3.194
52643W        W24259   9.107   5.493   0.798
52644W        W24260   3.469  35.402   2.352
52645W        W24261  44.812  15.134   2.682
52646W        W24262  44.003   4.622  12.559
52647W        W24263  32.916  10.370   1.699
52648W        W24264  44.963  36.395   1.088
52649W        W24265   4.823  33.232  14.076
52650W        W24266  18.495  14.650   1.813
52651W        W24267  30.057  13.189  10.794
52652W        W24268  11.391  28.892  12.592
52653W        W24269  25.943  35.084   3.190
52654W        W24270  27.119   6.819   2.317
52655W        W24271   5.940  38.077  11.656
52656W        W24272   0.811  40.257  10.780
52657W        W24273  35.887   2.931   0.773
52658W        W24274  30.406  36.861  14.804
52659W        W24275  15.593  20.106   1.157
52660W        W24276  15.749  41.435  13.283
52661W        W24277  40.142  36.433   1.926
52662W        W24278  19.393  25.942   2.414
52663W        W24279   4.042   5.807  12.940
52664W        W24280  35.911  15.110  11.044
52665W        W24281  12.920  31.636   4.507
52666W        W24282  12.229   4.968  13.439
52667W        W24283  27.032  38.405   4.838
52668W        W24284  31.464   9.817   3.353
52669W        W24285   4.462  19.889  10.913
52670W        W24286  19.509   1.021  14.772
52671W        W24287  13.121  21.500  13.903
52672W        W24288   1.355  10.068  11.678
52673W        W24289  44.511  24.942  13.865
52674W        W24290  29.138  38.097  14.934
52675W        W24291  11.392  34.559   0.759
52676W        W24292  26.404  18.700   3.289
52677W        W24293  17.875   1.440   2.369
52678W        W24294   6.382  24.022   3.902
52679W        W24295  17.217  24.914  13.587
52680W        W24296  16.608   0.995  12.406
52681W        W24297   7.766  21.789   1.863
52682W        W24298  41.304  23.908   3.980
52683W        W24299  44.516   7.769   1.921
52684W        W24300  26.040   8.228  11.992
52685W        W24301  28.597  38.814  12.569
52686W        W24302   0.574  36.148  11.971
52687W        W24303  41.819  38.520  11.513
52688W        W24304  39.838  41.576  11.739
52689W        W24305  27.984  43.209  11.594
52690W        W24306   5.074  37.785  11.647
52691W        W24307  13.266  13.587   0.347
52692W        W24308   9.775  13.804  13.006
52693W        W24309  20.565  35.533   1.337
52694W        W24310   0.804  33.342  13.305
52695W        W24311  24.275  26.383   2.757
52696W        W24312   1.873  22.207   1.156
52697W        W24313  42.847   2.268  14.379
52698W        W24314  13.997  10.132  14.297
52699W        W24315  34.423  35.117  12.101
52700W        W24316  29.190  31.411   4.096
52701W        W24317  19.867  24.783  13.721
52702W        W24318   7.131  32.664  11.064
52703W        W24319  15.782  40.873   2.523
52704W        W24320  43.028  19.803   1.850
52705W        W24321   1.751  34.434  12.592
52706W        W24322  27.552  16.512  11.947
52707W        W24323  24.456  25.774  11.120
52708W        W24324  14.707  22.431  12.601
52709W        W24325  37.848  16.330  14.332
52710W        W24326  17.664   2.414   4.381
52711W        W24327  30.166  13.641   2.749
52712W        W24328  18.507  14.100  13.375
52713W        W24329  35.065  13.092   1.923
52714W        W24330  15.667  13.965  11.600
52715W        W24331  42.485  14.539  13.869
52716W        W24332  17.595  13.543   2.148
52717W        W24333   0.818  24.172   0.788
52718W        W24334  26.406  43.772  14.208
52719W        W24335  39.067   2.542   0.255
52720W        W24336   2.336  13.119  14.056
52721W        W24337  11.538  39.394  10.025
52722W        W24338   0.249  36.972  11.660
52723W        W24339   4.425   8.766   1.330
52724W        W24340  29.471  29.758   1.332
52725W        W24341  14.194  32.518   0.440
52726W        W24342  32.706  42.890   1.373
52727W        W24343  27.031  16.849  14.501
52728W        W24344  20.610  12.371  11.910
52729W        W24345  23.586  31.181  11.094
52730W        W24346  16.815  36.028   4.138
52731W        W24347   0.266  37.096  11.119
52732W        W24348   6.819  18.262   4.531
52733W        W24349  26.156   8.128  10.720
52734W        W24350  14.133  33.027  10.292
52735W        W24351  16.117  18.097  13.319
52736W        W24352  11.864   4.214  11.524
52737W        W24353  42.766  37.037  13.539
52738W        W24354  35.998  10.976  11.058
52739W        W24355   2.763  27.982   1.296
52740W        W24356  27.296  20.143  12.693
52741W        W24357  11.254   0.101   2.026
52742W        W24358  32.824  28.405   5.212
52743W        W24359   2.824  16.072   4.356
52744W        W24360  23.590  29.832   3.015
52745W        W24361   1.749  25.706   0.826
52746W        W24362  22.461  35.321   1.208
52747W        W24363  42.619  16.708  14.877
52748W        W24364  27.309   2.162  12.744
52749W        W24365  21.218   7.053   3.866
52750W        W24366  19.204  27.981   0.156
52751W        W24367  35.074  33.052  14.788
52752W        W24368  41.834  11.394   2.805
52753W        W24369   2.988  29.842  13.558
52754W        W24370  31.119   8.421   0.937
52755W        W24371  26.519  29.194   0.253
52756W        W24372  14.689  21.258   2.404
52757W        W24373  38.160  30.538  11.959
52758W        W24374  28.369  23.766  12.906
52759W        W24375  21.072  43.163   2.345
52760W        W24376   9.323  30.071   4.380
52761W        W24377  16.699  14.108   4.814
52762W        W24378  16.949  23.881  11.314
52763W        W24379  43.999  36.892   3.783
52764W        W24380  38.360  11.259  12.805
52765W        W24381   5.228  44.402  12.093
52766W        W24382  37.353  42.013   5.062
52767W        W24383  31.459  17.143   3.283
52768W        W24384  17.157  44.688   0.340
52769W        W24385  11.483  36.356   0.841
52770W        W24386  19.871  33.096   2.195
52771W        W24387   5.273  11.168   0.255
52772W        W24388  27.418  26.187   1.159
52773W        W24389  15.720  21.556   1.456
52774W        W24390   0.518  17.069   1.176
52775W        W24391  19.272  22.008  14.070
52776W        W24392  21.850   0.880  13.910
52777W        W24393  10.598  15.753   1.904
52778W        W24394  26.220  37.856  11.382
52779W        W24395  42.945  12.149   0.939
52780W        W24396   6.830  23.092  11.104
52781W        W24397  12.314   5.457  14.962
52782W        W24398   5.198  21.176   3.708
52783W        W24399  18.911   6.817  12.125
52784W        W24400   4.355  29.553   4.612
52785W        W24401  16.894   5.383  12.600
52786W        W24402   0.395  43.485  14.854
52787W        W24403  27.039   0.872  12.455
52788W        W24404   8.713   1.472  12.836
52789W        W24405  27.222  24.920   2.502
52790W        W24406  15.213  12.598  13.914
52791W        W24407  42.462  18.880  14.119
52792W        W24408  37.573  32.841   0.812
52793W        W24409   2.212  34.848   1.317
52794W        W24410  36.650  33.960  13.469
52795W        W24411  20.479  15.831   4.629
52796W        W24412  35.412   8.277  14.032
52797W        W24413   2.007   1.778   1.673
52798W        W24414   0.013  18.691   2.636
52799W        W24415   9.269   7.316  12.402
52800W        W24416  36.325   5.260   3.225
52801W        W24417   8.702  19.552  10.611
52802W        W24418  29.211  25.502  14.845
52803W        W24419  21.664  37.100  12.892
52804W        W24420   3.196   0.595  14.907
52805W        W24421  10.904  40.447  12.055
52806W        W24422  34.062  23.739  12.865
52807W        W24423  19.068  29.140  10.995
52808W        W24424  18.178  22.677  13.560
52809W        W24425  40.946  16.844  13.761
52810W        W24426  40.780   9.879  11.139
52811W        W24427   4.356  27.412   1.836
52812W        W24428  23.436  31.250  13.465
52813W        W24429  23.977  40.475   0.962
52814W        W24430  41.640  34.872   5.040
52815W        W24431  42.315  20.538  12.443
52816W        W24432  13.833  19.091  12.946
52817W        W24433  14.523   0.201  11.328
52818W        W24434  26.620  27.718   2.305
52819W        W24435  30.216  29.586  13.419
52820W        W24436  39.909  26.862   3.199
52821W        W24437  14.235  13.681   0.320
52822W        W24438  17.529   7.285   0.317
52823W        W24439  29.057  38.104  12.879
52824W        W24440  14.135  26.689   2.416
52825W        W24441   4.859   9.010   2.888
52826W        W24442   0.357  29.930   2.197
52827W        W24443  14.512   8.221  10.764
52828W        W24444  43.240  33.058  11.582
52829W        W24445  39.106  11.763  12.999
52830W        W24446  21.198  35.980  11.435
52831W        W24447  43.857  35.529  13.852
52832W        W24448  44.054  31.004   1.268
52833W        W24449  40.573  32.450  10.437
52834W        W24450   3.799   4.159   4.105
52835W        W24451  35.466  30.221   3.907
52836W        W24452   1.217  16.185  10.997
52837W        W24453  40.939  13.065  12.470
52838W        W24454  13.634   3.370   3.216
52839W        W24455  26.176  16.222  12.652
52840W        W24456  28.896  21.706   1.352
52841W        W24457  43.378  24.257  12.023
52842W        W24458  34.530  38.920   2.168
52843W        W24459  10.800  32.507  10.518
52844W        W24460  39.309  31.391   3.200
52845W        W24461  14.376  22.622  11.534
52846W        W24462  44.357  25.875  11.404
52847W        W24463  17.481   6.945  14.493
52848W        W24464   2.823  37.524  11.668
52849W        W24465   5.164  22.554  11.113
52850W        W24466   3.168  27.167  13.405
52851W        W24467  31.021  36.654  11.987
52852W        W24468   3.555  36.519  13.917
52853W        W24469  11.531  33.410   3.255
52854W        W24470  12.696  36.787  12.924
52855W        W24471  12.878  31.013  12.561
52856W        W24472  20.726  32.127  10.624
52857W        W24473   3.978   6.657  10.809
52858W        W24474  14.248   8.267   1.194
52859W        W24475   4.979  16.575  14.990
52860W        W24476  25.783   3.893  11.991
52861W        W24477  42.954  12.358   2.321
52862W        W24478  12.352  13.084  12.378
52863W        W24479  43.911  32.576   3.291
52864W        W24480  14.842   6.718   1.335
52865W        W24481  26.673  26.989  14.539
52866W        W24482  32.217  44.350  12.838
52867W        W24483  29.581   2.195  12.461
52868W        W24484  32.524  11.723   1.752
52869W        W24485  41.983  32.131  12.977
52870W        W24486  16.447  18.063  11.415
52871W        W24487  12.958  33.111   4.114
52872W        W24488  28.486   5.198   4.905
52873W        W24489  29.611  30.021   1.765
52874W        W24490  38.944  16.747  10.720
52875W        W24491   8.077  43.423   2.333
52876W        W24492  43.381  10.223  13.841
52877W        W24493  20.708  28.513  10.997
52878W        W24494  34.971   5.430   1.501
52879W        W24495  34.547   6.165  12.068
52880W        W24496   7.142  17.758   2.373
52881W        W24497  19.193  42.774  14.847
52882W        W24498  19.761  21.021   1.734
52883W        W24499  12.293  15.136  10.724
52884W        W24500  39.710  44.435   1.147
52885W        W24501  31.471  26.430   3.019
52886W        W24502  43.504   9.936   0.936
52887W        W24503   8.801   5.917   0.973
52888W        W24504  31.874  28.612  11.498
52889W        W24505  40.280   5.990   1.831
52890W        W24506  23.593  17.101   1.476
52891W        W24507  33.956  44.110   5.380
52892W        W24508  20.737  16.676   0.746
52893W        W24509  19.445  39.646  10.662
52894W        W24510  32.604  30.006  13.516
52895W        W24511  38.596  41.852   1.669
52896W        W24512   1.442  10.140  13.476
52897W        W24513   8.819  10.251  11.668
52898W        W24514  28.127  31.028   3.964
52899W        W24515  42.746  23.269  13.280
52900W        W24516   1.554  21.945  11.593
52901W        W24517   6.435  43.666   4.345
52902W        W24518  34.693  11.726   2.762
52903W        W24519  29.289  33.406  10.644
52904W        W24520   3.722   2.898  12.924
52905W        W24521  10.313  20.035  13.811
52906W        W24522  13.299  41.203   4.675
52907W        W24523  11.236  28.678   4.148
52908W        W24524  19.649  27.183   4.238
52909W        W24525  11.408  35.413   0.811
52910W        W24526   3.752  42.039  14.079
52911W        W24527   3.274  19.269  10.699
52912W        W24528  28.158  23.896   0.753
52913W        W24529  16.676  41.069   0.924
52914W        W24530  33.663   7.159   4.865
52915W        W24531  19.041  10.135  11.622
52916W        W24532  25.079  22.959  14.477
52917W        W24533  16.288  41.368   3.192
52918W        W24534   1.199  20.176   0.416
52919W        W24535  14.086  32.968   4.044
52920W        W24536  39.710   3.448  11.292
52921W        W24537  14.641  19.502   0.115
52922W        W24538   1.425   7.820  10.750
52923W        W24539   3.966  43.805  13.011
52924W        W24540  32.891  21.127  10.342
52925W        W24541  14.359  18.222   3.320
52926W        W24542  23.507  41.931  13.486
52927W        W24543  40.408  28.198  10.639
52928W        W24544   0.306   4.232  14.671
52929W        W24545   3.874  29.733  13.893
52930W        W24546  37.693  20.516   2.798
52931W        W24547  27.916  20.743   3.786
52932W        W24548  37.130  11.898   1.618
52933W        W24549   1.953  31.610   2.396
52934W        W24550  26.036  28.108  14.791
52935W        W24551  24.699  13.911  14.668
52936W        W24552  34.415   8.609  11.164
52937W        W24553   8.442  43.069   4.101
52938W        W24554  14.809   5.618  11.146
52939W        W24555  24.444  38.116  13.880
52940W        W24556  16.544   7.818   0.859
52941W        W24557   6.077  42.839   1.339
52942W        W24558  25.248   3.271  12.504
52943W        W24559  27.637  24.389   2.121
52944W        W24560  22.125  40.555   1.324
52945W        W24561   2.520  30.718   4.991
52946W        W24562   7.258   9.270   2.248
52947W        W24563  10.139  30.456   1.829
52948W        W24564  27.253  42.094   1.750
52949W        W24565  26.104  28.191  13.920
52950W        W24566  12.238   8.510   3.891
52951W        W24567  22.725  10.827  14.364
52952W        W24568  33.461  30.711   0.253
52953W        W24569  34.203  34.736   3.309
52954W        W24570  10.975  12.109   1.318
52955W        W24571   6.269  18.347  11.865
52956W        W24572   7.624  25.135   3.312
52957W        W24573  13.153   4.731   2.371
52958W        W24574  21.910   7.272  14.918
52959W        W24575  40.031  13.979  11.839
52960W        W24576  36.486  25.529   4.758
52961W        W24577  38.887  26.588  12.511
52962W        W24578  21.824  39.011  11.521
52963W        W24579  24.319  10.173   1.443
52964W        W24580  32.009  29.721   1.885
52965W        W24581   7.062  38.874   4.718
52966W        W24582  28.227  13.044  14.065
52967W        W24583  44.961  27.462   4.969
52968W        W24584  41.995  32.022  11.132
52969W        W24585   8.275   5.831   2.727
52970W        W24586  42.651  30.456  14.065
52971W        W24587  25.497   5.420   4.159
52972W        W24588  10.867  19.303  14.489
52973W        W24589  25.751  23.055  10.729
52974W        W24590   1.008  24.592  11.625
52975W        W24591  13.871  17.671  14.948
52976W        W24592   2.841  37.928   4.903
52977W        W24593  22.548  16.648  10.616
52978W        W24594  24.468  17.002   4.346
52979W        W24595  35.081   7.361  12.523
52980W        W24596  15.084  27.004  12.507
52981W        W24597  26.941  12.168   2.370
52982W        W24598  32.883   2.195  14.900
52983W        W24599   1.937  25.496   1.733
52984W        W24600  13.844  40.293   1.741
52985W        W24601  24.618  38.116   0.785
52986W        W24602  14.888  41.468   3.305
52987W        W24603  41.927  17.783  13.535
52988W        W24604  10.255  11.695  11.983
52989W        W24605  36.290  10.849   4.434
52990W        W24606   1.408  19.758   0.662
52991W        W24607  14.775  21.057  13.453
52992W        W24608   0.692  30.609   2.678
52993W        W24609  21.422   2.176   0.911
52994W        W24610  18.140   7.908   1.354
52995W        W24611  21.636   5.037  10.892
52996W        W24612   2.739  22.183  10.724
52997W        W24613  32.064   0.748  14.390
52998W        W24614  24.269  10.614   0.056
52999W        W24615  17.864  16.510  11.863
53000W        W24616  34.399  31.649  14.640
53001W        W24617  14.585  16.216   4.524
53002W        W24618  28.593  20.066   2.641
53003W        W24619  24.550  29.568  12.363
53004W        W24620  15.594  16.661  11.546
53005W        W24621  12.535   5.656  14.493
53006W        W24622  44.411   6.386   1.239
53007W        W24623  11.244  13.365   0.862
53008W        W24624  20.850  25.074  10.194
53009W        W24625  43.422   2.409   0.724
53010W        W24626  32.232  43.944   5.495
53011W        W24627   2.893   6.768   4.639
53012W        W24628  14.067  13.838  13.391
53013W        W24629  31.971  14.652   1.133
53014W        W24630   5.413   3.213  14.882
53015W        W24631  31.100   8.106  11.930
53016W        W24632   9.817  36.604  14.447
53017W        W24633  31.089   4.882  11.539
53018W        W24634  39.660  44.564  14.432
53019W        W24635  12.736  12.298  11.432
53020W        W24636  19.333  36.009  13.450
53021W        W24637  11.887  44.908   1.719
53022W        W24638  30.878  32.512   5.038
53023W        W24639  40.467  16.737  10.846
53024W        W24640   2.729  21.054  10.290
53025W        W24641   7.147  23.721   4.039
53026W        W24642  16.743  40.857   2.446
53027W        W24643  22.327  24.136   4.019
53028W        W24644  43.083  44.894   0.285
53029W        W24645  13.373   1.668   1.294
53030W        W24646  31.021  25.599   1.262
53031W        W24647  18.668  33.991  13.374
53032W        W24648  25.460  33.440   3.308
53033W        W24649   3.899  31.933   0.892
53034W        W24650  44.054  21.282   3.367
53035W        W24651   3.395  13.745   2.809
53036W        W24652  22.041  25.897  11.544
53037W        W24653   8.814  30.290   4.976
53038W        W24654  44.432  34.164   2.921
53039W        W24655  14.097   0.019  11.528
53040W        W24656  20.549  34.430  14.293
53041W        W24657   2.763  36.663   1.442
53042W        W24658  21.559  13.877   4.213
53043W        W24659   4.210   7.677   0.475
53044W        W24660  19.015   3.487   0.697
53045W        W24661  17.224  38.958   1.670
53046W        W24662   1.500   6.352  12.456
53047W        W24663  22.184  41.341   4.632
53048W        W24664   8.257  44.956   1.871
53049W        W24665  31.392  18.145   4.065
53050W        W24666   7.319  40.911   1.732
53051W        W24667  32.534  30.602  12.140
53052W        W24668  31.084  15.237  12.630
53053W        W24669  39.296  16.032  10.851
53054W        W24670  32.683  42.413   3.136
53055W        W24671   2.399  16.706  14.023
53056W        W24672  33.341  26.223   0.074
53057W        W24673  15.809  30.977  14.896
53058W        W24674  15.017  39.590   4.252
53059W        W24675  23.238   5.419   2.314
53060W        W24676  26.543  17.116  12.762
53061W        W24677  35.266  39.314  13.345
53062W        W24678   0.200  30.965  14.511
53063W        W24679  35.431  29.396   4.221
53064W        W24680  32.437  19.399   0.805
53065W        W24681  43.820  13.863   3.731
53066W        W24682  35.391   5.214  13.504
53067W        W24683   0.447  43.417  13.452
53068W        W24684  40.024  34.279   4.229
53069W        W24685  17.066  42.346  11.847
53070W        W24686  26.762  24.196   2.219
53071W        W24687  13.612  18.322   5.415
53072W        W24688  38.613  14.806  10.505
53073W        W24689  40.738  29.731   2.359
53074W        W24690  37.324  40.998  11.535
53075W        W24691  37.730  10.723   1.939
53076W        W24692  31.579  18.747  14.992
53077W        W24693  37.820  37.036   2.310
53078W        W24694  15.727  19.857   2.297
53079W        W24695   6.861  13.508  14.985
53080W        W24696  36.201  24.473  12.482
53081W        W24697   6.494   5.048  12.507
53082W        W24698  34.415  37.601  11.866
53083W        W24699  42.378  26.118   1.844
53084W        W24700   2.844  30.921   0.469
53085W        W24701  23.100  23.184   0.360
53086W        W24702  17.083  10.399  11.618
53087W        W24703  11.195   4.702   0.480
53088W        W24704  32.714  32.444  10.792
53089W        W24705   9.373  30.593  11.011
53090W        W24706  44.877  11.665  12.186
53091W        W24707  16.083   5.701  14.272
53092W        W24708  37.390  15.110  10.946
53093W        W24709  35.688  16.231   2.937
53094W        W24710   9.718  39.625   2.851
53095W        W24711  23.991  43.048  11.639
53096W        W24712  34.360  24.990  14.304
53097W        W24713  27.505   2.825  10.984
53098W        W24714  42.980  33.919   1.525
53099W        W24715  32.825  23.762  10.664
53100W        W24716  28.631   9.139  14.252
53101W        W24717  25.092  15.067   2.322
53102W        W24718  24.506  41.440  13.007
53103W        W24719  30.952   1.618   1.122
53104W        W24720  41.534  36.544   3.721
53105W        W24721  15.330   2.214   0.293
53106W        W24722   6.363  10.373  13.815
53107W        W24723  43.698  12.557   4.126
53108W        W24724  17.183   5.733  14.217
53109W        W24725  43.137  30.588   4.911
53110W        W24726   6.149   0.425   2.746
53111W        W24727  41.840  37.783  11.971
53112W        W24728  13.158  30.473   1.858
53113W        W24729  28.203  38.062  14.896
53114W        W24730  23.670   0.753  12.922
53115W        W24731  13.391  23.928  11.555
53116W        W24732  25.532   6.892  11.005
53117W        W24733  27.003  15.203   1.201
53118W        W24734  37.934  33.946   1.225
53119W        W24735   6.304  39.013  13.377
53120W        W24736  14.912  31.103   1.436
53121W        W24737  16.152  18.085  11.862
53122W        W24738  42.450  17.069   1.276
53123W        W24739   2.780   2.437   1.802
53124W        W24740   4.202  17.191   1.314
53125W        W24741  40.089  27.566  13.435
53126W        W24742  13.310  24.575   4.293
53127W        W24743   0.165  24.374   4.088
53128W        W24744  24.780  25.659   3.376
53129W        W24745  40.820  17.035  11.102
53130W        W24746  43.288  44.525  13.502
53131W        W24747   6.683  20.098   0.473
53132W        W24748   2.343  35.101  10.649
53133W        W24749  16.235  22.934   2.431
53134W        W24750  13.555  28.584  13.855
53135W        W24751  18.487  26.058   2.351
53136W        W24752  40.871   7.846   4.908
53137W        W24753  30.945   3.169  13.462
53138W        W24754  41.473   4.748   3.728
53139W        W24755  24.828  38.887  14.550
53140W        W24756   6.453  32.686   2.628
53141W        W24757  15.536  24.573  12.864
53142W        W24758  14.058  21.512  14.342
53143W        W24759   2.184  17.128   4.197
53144W        W24760  28.427  36.529  11.497
53145W        W24761  23.437  42.165  12.638
53146W        W24762  41.303  22.016   1.307
53147W        W24763  18.775  17.053   3.140
53148W        W24764   8.349  18.830  12.437
53149W        W24765  16.765  21.672  10.816
53150W        W24766  23.707  24.806  14.174
53151W        W24767   3.734   2.336   0.254
53152W        W24768  34.080  11.141   0.253
53153W        W24769  34.848  14.896   1.302
53154W        W24770   0.480  11.382  11.007
53155W        W24771  21.949  19.058   3.273
53156W        W24772  34.494  17.244  13.866
53157W        W24773  29.608  32.683  13.475
53158W        W24774  30.477  11.290   1.284
53159W        W24775  25.890  14.336  12.595
53160W        W24776  43.355   3.126   2.536
53161W        W24777  20.019   8.774   1.749
53162W        W24778  12.800  43.839   0.281
53163W        W24779   0.524   9.935   3.896
53164W        W24780  26.556  28.470  11.601
53165W        W24781  16.075  19.226  10.428
53166W        W24782  10.601  10.568  14.457
53167W        W24783  12.770  39.368   4.540
53168W        W24784  20.237  14.827   3.674
53169W        W24785   7.316  35.099  10.822
53170W        W24786  16.726  32.386  11.176
53171W        W24787  14.986   4.203   4.022
53172W        W24788  20.604  16.118  10.948
53173W        W24789  12.625  12.977  13.452
53174W        W24790  16.985  42.434   4.785
53175W        W24791  12.741   3.428  13.940
53176W        W24792  22.115  28.321  14.976
53177W        W24793  29.402  36.320  11.499
53178W        W24794   2.861  39.751  12.560
53179W        W24795  10.866  42.029   2.460
53180W        W24796  17.594  34.809  11.973
53181W        W24797  19.332  10.220   1.652
53182W        W24798  37.836   9.501   3.622
53183W        W24799   9.290  13.215  12.547
53184W        W24800  24.616   8.590   2.812
53185W        W24801  36.110  25.153   4.589
53186W        W24802  41.848  35.633   3.722
53187W        W24803  34.591   6.503  12.850
53188W        W24804  40.019  34.136   1.638
53189W        W24805   6.330  36.077  13.255
53190W        W24806  21.288  41.268  11.502
53191W        W24807  11.394  17.608   2.648
53192W        W24808   9.610  39.481   2.385
53193W        W24809  39.648   1.433   0.417
53194W        W24810  12.130  40.427  13.999
53195W        W24811   2.909  10.750   4.641
53196W        W24812  13.113  15.394  11.472
53197W        W24813  43.707  30.547  12.031
53198W        W24814  35.427  37.948  14.416
53199W        W24815  40.821  11.934   0.415
53200W        W24816  12.128  20.264  11.524
53201W        W24817  36.542  29.497  13.921
53202W        W24818   8.931  40.743  13.721
53203W        W24819   1.054  20.543  14.738
53204W        W24820  27.899  19.021   2.358
53205W        W24821  21.187   1.483   5.185
53206W        W24822  30.522  29.503  10.341
53207W        W24823  33.443  29.033  12.105
53208W        W24824  13.528  24.720  14.125
53209W        W24825  15.674  10.978  10.160
53210W        W24826  33.332   0.962  12.072
53211W        W24827  18.963   5.502  12.558
53212W        W24828  43.536  25.666   3.693
53213W        W24829  19.662   6.675   4.639
53214W        W24830  22.568  24.477   0.253
53215W        W24831  38.772   8.249   3.410
53216W        W24832  40.491  34.678  10.683
53217W        W24833  11.332   0.383   3.544
53218W        W24834  28.498   6.698  12.602
53219W        W24835  14.199  14.043   0.712
53220W        W24836   4.321  20.055  11.533
53221W        W24837  18.768  29.373   4.102
53222W        W24838   5.026  44.838   2.327
53223W        W24839  37.187  43.449   3.328
53224W        W24840  36.639   9.607  14.804
53225W        W24841  20.800   3.906  14.548
53226W        W24842  36.833   7.730  14.175
53227W        W24843  25.185  44.357   0.422
53228W        W24844  20.833   2.938   2.754
53229W        W24845  41.712  11.110   4.060
53230W        W24846  41.318  24.662  14.855
53231W        W24847  28.511  13.382  13.568
53232W        W24848  23.940   7.899  14.507
53233W        W24849  39.767  23.525  11.186
53234W        W24850  38.142   5.469   3.205
53235W        W24851  15.170  36.796  13.563
53236W        W24852   9.422  21.046  14.853
53237W        W24853   4.189  27.203   1.395
53238W        W24854  41.477  43.096   3.190
53239W        W24855  36.325  14.029  14.020
53240W        W24856  33.479  30.668   2.580
53241W        W24857   6.392  41.281   2.433
53242W        W24858  13.663  24.607   3.610
53243W        W24859  32.037  14.165   4.822
53244W        W24860  38.875  13.912   4.945
53245W        W24861   2.330  17.725   1.206
53246W        W24862  19.134  14.112   3.186
53247W        W24863  11.780  13.216   3.238
53248W        W24864   3.594   4.693  13.266
53249W        W24865  13.200   0.546  13.949
53250W        W24866  10.953  19.950   1.054
53251W        W24867  29.470  28.230  13.368
53252W        W24868  22.015  15.156   4.042
53253W        W24869  23.536   6.827   1.651
53254W        W24870  43.987  34.196   2.493
53255W        W24871  37.791  25.212   9.967
53256W        W24872  29.065  25.565   4.880
53257W        W24873  10.376  17.027  12.187
53258W        W24874  26.200   0.904  12.923
53259W        W24875   9.106  40.771   0.951
53260W        W24876  41.157  30.016  11.070
53261W        W24877   9.667   5.055  13.493
53262W        W24878  27.707  22.110   1.548
53263W        W24879  10.811  20.762   4.156
53264W        W24880  21.601   2.149  14.431
53265W        W24881   2.204  13.423   1.703
53266W        W24882  10.278  35.251  10.658
53267W        W24883   4.940   7.734   1.938
53268W        W24884  31.210  22.015   1.619
53269W        W24885  11.526  41.572   3.262
53270W        W24886  33.457  32.144   3.613
53271W        W24887  18.064  28.794   4.072
53272W        W24888  44.338  31.254  11.244
53273W        W24889  32.357  43.764   0.496
53274W        W24890  16.557  35.615   0.305
53275W        W24891  32.205  38.326   3.608
53276W        W24892   4.372  14.275   4.038
53277W        W24893   6.867  19.278  10.983
53278W        W24894  34.394   7.400  11.580
53279W        W24895  41.282  15.767  11.450
53280W        W24896  42.214  14.452  14.353
53281W        W24897  25.080  42.251   2.441
53282W        W24898  15.875   6.141  11.599
53283W        W24899   4.880   9.354   0.238
53284W        W24900  39.771  27.279  14.004
53285W        W24901   3.789  32.680   4.296
53286W        W24902  25.002   6.688   2.477
53287W        W24903   3.203  40.087   1.780
53288W        W24904  28.876   7.634  14.342
53289W        W24905  17.853  18.741  13.780
53290W        W24906  22.523   1.973   3.787
53291W        W24907  10.277  19.221   3.531
53292W        W24908  42.495  39.986   2.251
53293W        W24909  24.905   4.744  13.745
53294W        W24910  36.995   8.639  11.911
53295W        W24911   9.064  29.194   2.366
53296W        W24912  44.241  33.340  14.969
53297W        W24913  41.094   6.400   1.684
53298W        W24914  11.875  21.337  13.455
53299W        W24915  27.961  37.975  14.442
53300W        W24916  30.044  39.401  12.370
53301W        W24917  16.903  16.731  12.066
53302W        W24918   1.421  35.824   0.214
53303W        W24919  41.575  28.120  12.897
53304W        W24920   0.971  19.091  12.468
53305W        W24921   0.916  24.917   2.012
53306W        W24922  28.597  16.043   0.236
53307W        W24923  14.556   2.448   3.968
53308W        W24924  42.013  44.737   3.285
53309W        W24925  43.989  25.839  12.314
53310W        W24926  36.567  38.238  13.834
53311W        W24927  29.198   0.915   2.442
53312W        W24928  25.594  32.317  11.136
53313W        W24929  25.542  30.703   1.793
53314W        W24930  26.715  39.527   1.143
53315W        W24931  33.442  14.365   2.666
53316W        W24932  14.570  11.026   2.727
53317W        W24933  15.966  33.174  14.422
53318W        W24934   1.132  29.527  14.714
53319W        W24935  18.204  40.329   1.015
53320W        W24936  31.081  16.855   1.751
53321W        W24937  20.045  36.336   1.193
53322W        W24938  27.283  16.706   0.864
53323W        W24939  35.381  44.546   1.196
53324W        W24940  30.578  41.482  14.925
53325W        W24941  16.086  31.046   2.934
53326W        W24942  16.156   4.645  11.874
53327W        W24943  25.290  22.859   3.661
53328W        W24944  17.158   9.770   2.135
53329W        W24945  34.584  34.724   0.279
53330W        W24946  23.140  19.060   4.550
53331W        W24947  24.114  33.244  11.510
53332W        W24948  28.571  15.884   4.623
53333W        W24949   2.485  38.152  14.437
53334W        W24950  40.446  13.577   2.851
53335W        W24951  25.761  25.552  14.503
53336W        W24952  13.614  38.054   3.284
53337W        W24953   7.221  43.187   2.489
53338W        W24954  22.673   7.867   4.609
53339W        W24955   1.400  13.268  12.513
53340W        W24956   8.156  28.055  14.345
53341W        W24957  13.337  14.623   1.238
53342W        W24958  23.611  26.957   1.865
53343W        W24959  17.168  18.411   0.277
53344W        W24960  24.028  41.470   2.648
53345W        W24961  27.761   8.475  10.467
53346W        W24962  43.821  29.371  12.605
53347W        W24963  43.273  12.073  14.591
53348W        W24964  33.002  16.610   4.566
53349W        W24965  28.011   2.800  14.220
53350W        W24966  10.978  21.173  14.907
53351W        W24967  19.065   9.251   2.384
53352W        W24968  24.521  18.126   0.406
53353W        W24969   9.859  21.653  12.595
53354W        W24970   6.230  14.761   1.402
53355W        W24971  11.925  11.780  11.102
53356W        W24972  34.532   5.759   2.220
53357W        W24973  15.616  26.910  11.559
53358W        W24974   1.907   8.441   4.643
53359W        W24975  17.194   6.548  10.639
53360W        W24976  29.639  34.940  13.833
53361W        W24977  23.546  36.754  13.797
53362W        W24978   4.255  26.561   2.347
53363W        W24979  19.255  27.551   0.436
53364W        W24980  24.026  27.697   4.604
53365W        W24981  19.174  10.886   0.907
53366W        W24982  26.060   7.971   4.579
53367W        W24983  40.858  36.553  12.568
53368W        W24984  43.366  43.723   0.976
53369W        W24985  44.510  18.624  12.608
53370W        W24986  29.499   2.956   0.331
53371W        W24987   7.602   1.536  10.792
53372W        W24988  41.718  28.714   0.849
53373W        W24989  21.657  35.666   3.796
53374W        W24990  21.502   2.106  12.106
53375W        W24991   2.782  42.949  12.076
53376W        W24992   1.178  36.562  14.465
53377W        W24993  17.100  41.016   4.879
53378W        W24994   6.486   1.007   3.526
53379W        W24995  16.116  17.147  13.810
53380W        W24996  33.022  21.676  11.882
53381W        W24997  11.520  35.010  14.977
53382W        W24998  31.990  28.119   1.413
53383W        W24999  31.828  42.079   5.185
53384W        W25000   1.197  10.539   1.919
53385W        W25001  39.961  39.548   1.328
53386W        W25002  41.333  38.030  14.191
53387W        W25003   6.697   3.343   3.229
53388W        W25004  38.890  36.389   0.953
53389W        W25005  15.200  32.593   0.406
53390W        W25006  22.159  24.242  14.125
53391W        W25007   8.604  21.038  12.765
53392W        W25008  29.153  14.668  13.295
53393W        W25009  23.963  41.731   4.601
53394W        W25010  34.872  35.485  12.498
53395W        W25011  25.682  32.864  13.117
53396W        W25012  22.710  30.395   5.108
53397W        W25013  17.063  38.850  14.283
53398W        W25014  26.988  15.822  14.744
53399W        W25015  18.858  40.255  14.537
53400W        W25016  40.628  30.051  12.500
53401W        W25017  31.064  23.713   1.372
53402W        W25018  34.463  43.329   3.781
53403W        W25019  34.659  27.073  11.959
53404W        W25020  23.519  17.222  12.700
53405W        W25021  17.330  42.804   1.276
53406W        W25022   5.432  42.786  12.970
53407W        W25023   8.298  28.470  13.619
53408W        W25024  18.223  44.882   9.808
53409W        W25025  33.655  30.138  14.859
53410W        W25026  29.175   5.193   2.285
53411W        W25027  38.151  27.057  12.749
53412W        W25028  20.380   9.346  13.844
53413W        W25029  31.487  31.795   3.632
53414W        W25030  27.527  15.085  10.652
53415W        W25031   4.345   9.928   0.089
53416W        W25032  35.313  29.456  13.120
53417W        W25033  12.604  16.957  12.513
53418W        W25034  40.356   5.857   3.246
53419W        W25035  21.704  13.662  11.580
53420W        W25036   2.696   3.911  10.772
53421W        W25037  18.078  42.938  11.914
53422W        W25038  39.599  36.003   3.738
53423W        W25039  19.591   5.356  11.448
53424W        W25040   2.150  22.709  13.360
53425W        W25041  33.493   7.190  10.587
53426W        W25042  20.115  13.374   1.722
53427W        W25043   9.518  17.805  14.338
53428W        W25044  29.729  28.110   0.274
53429W        W25045  44.493  37.528  10.660
53430W        W25046  39.984   1.874  12.586
53431W        W25047   8.245  16.896  11.089
53432W        W25048  11.567   1.201  12.355
53433W        W25049   2.017  22.607   4.493
53434W        W25050  34.096  15.911  13.769
53435W        W25051  35.348  28.679   2.181
53436W        W25052  26.701  24.062   3.585
53437W        W25053  35.282   0.978   4.281
53438W        W25054   3.318   4.436   4.883
53439W        W25055  42.337  32.492   3.668
53440W        W25056  16.595  27.469  12.594
53441W        W25057  43.570   6.383  12.887
53442W        W25058  29.072  16.214  14.545
53443W        W25059  40.606  12.230  12.029
53444W        W25060  26.667  33.072  11.133
53445W        W25061  14.761  18.103  14.933
53446W        W25062  41.414  23.010  12.851
53447W        W25063   7.871  26.925  14.433
53448W        W25064  26.061   6.386   1.574
53449W        W25065  27.913  42.608  13.520
53450W        W25066  19.688  41.528  10.669
53451W        W25067  20.038   6.120  12.371
53452W        W25068  19.114  28.104  11.706
53453W        W25069  13.279  21.721  14.344
53454W        W25070   5.613  37.552   2.434
53455W        W25071  30.174  22.505   1.382
53456W        W25072  11.332  28.155   3.805
53457W        W25073  37.635  40.934   3.398
53458W        W25074  19.887  18.186   0.443
53459W        W25075  21.100  27.264   0.461
53460W        W25076  41.688  12.379   2.680
53461W        W25077  36.543  13.272   2.557
53462W        W25078  44.316  10.929  10.640
53463W        W25079  14.696  38.350   1.412
53464W        W25080  41.370   7.833   0.797
53465W        W25081  15.322  34.110   1.331
53466W        W25082  22.237  21.262  14.818
53467W        W25083  44.249  38.404  10.168
53468W        W25084  35.956  11.955   3.565
53469W        W25085   3.439  14.824  14.302
53470W        W25086  17.101  22.717   4.574
53471W        W25087   7.374  40.443  13.885
53472W        W25088  27.579  39.870  12.553
53473W        W25089  17.186  26.221  13.049
53474W        W25090  29.464  40.318   2.230
53475W        W25091   6.921  20.803   3.784
53476W        W25092   7.664  36.912  11.540
53477W        W25093  38.849  24.814  11.550
53478W        W25094  12.674   6.999   0.275
53479W        W25095   9.935   9.796  12.069
53480W        W25096  26.296   3.837  11.951
53481W        W25097  25.173  35.990   1.106
53482W        W25098  24.498   1.617  11.017
53483W        W25099   6.702  11.289  14.119
53484W        W25100  14.526   2.392   2.715
53485W        W25101  24.158   8.675  12.197
53486W        W25102  27.956  11.668  10.678
53487W        W25103  43.503  37.377   1.352
53488W        W25104   4.998   2.243   0.948
53489W        W25105  43.841   3.741   3.269
53490W        W25106  24.198  40.361   0.495
53491W        W25107  15.240  25.546   2.889
53492W        W25108   1.214  39.472   0.297
53493W        W25109  41.094  14.889  11.348
53494W        W25110   8.373   7.147   3.217
53495W        W25111  15.508   5.308  12.393
53496W        W25112  14.864  22.678  11.239
53497W        W25113   2.867  15.754   2.396
53498W        W25114  16.140   8.902  12.727
53499W        W25115  10.331  35.640  10.990
53500W        W25116  15.250  39.441  10.691
53501W        W25117  17.997   3.472   3.592
53502W        W25118  35.640  32.428  10.691
53503W        W25119  20.995  22.665  12.406
53504W        W25120  42.877  44.861  10.591
53505W        W25121  12.068  17.714  12.970
53506W        W25122  32.463  35.502  11.747
53507W        W25123   5.757   4.621   4.295
53508W        W25124  36.606  23.493   2.160
53509W        W25125   7.900  44.278   1.429
53510W        W25126  29.570   4.978  11.141
53511W        W25127  10.816   0.700  11.748
53512W        W25128  31.035  37.987   4.782
53513W        W25129  15.803  30.232   3.694
53514W        W25130  44.285  16.657   5.096
53515W        W25131  11.603  25.553   0.398
53516W        W25132   4.960  16.592   2.229
53517W        W25133  27.696   9.197  13.314
53518W        W25134   2.702  39.899  13.480
53519W        W25135  37.403  15.422   4.591
53520W        W25136  23.004   1.403   3.352
53521W        W25137  33.243  36.337   3.809
53522W        W25138  20.515  28.059   4.185
53523W        W25139  30.732  40.662   4.532
53524W        W25140   3.310  14.442  11.916
53525W        W25141  30.210  43.139   0.664
53526W        W25142  20.643  22.272   4.516
53527W        W25143  28.000  23.868  13.379
53528W        W25144  27.202  42.484  12.017
53529W        W25145  15.291  25.177  12.025
53530W        W25146   0.499  32.604   2.457
53531W        W25147   3.797   5.339  12.933
53532W        W25148  10.085   8.704   4.152
53533W        W25149  16.353  10.202  14.933
53534W        W25150  44.274  17.045  10.674
53535W        W25151  34.055  23.036  12.523
53536W        W25152  31.212  38.837  10.654
53537W        W25153  36.769  12.714  12.461
53538W        W25154  29.347  40.771  10.518
53539W        W25155  32.015   1.834   4.830
53540W        W25156  33.108   5.772   0.269
53541W        W25157  30.619  42.938  11.999
53542W        W25158  16.808  37.874  11.482
53543W        W25159  23.523   2.219  13.899
53544W        W25160  16.751   0.305   0.789
53545W        W25161  27.210   2.762   1.429
53546W        W25162  28.755  27.899   4.126
53547W        W25163  37.546  37.856   0.278
53548W        W25164   0.079  19.881  11.710
53549W        W25165  12.472  11.272  13.329
53550W        W25166  10.627  18.074   4.511
53551W        W25167   5.904  13.678   3.657
53552W        W25168  21.731  27.525  13.928
53553W        W25169  23.075  17.028   1.350
53554W        W25170  22.805  24.749  13.349
53555W        W25171   7.589  11.661   0.767
53556W        W25172   1.786   0.817  11.937
53557W        W25173  26.758  31.072  14.948
53558W        W25174   7.775  36.096  14.489
53559W        W25175   8.110   8.205   0.737
53560W        W25176   2.446   6.383  10.796
53561W        W25177  39.870  29.591  13.411
53562W        W25178   6.410  15.725   4.288
53563W        W25179   0.761   8.715  11.642
53564W        W25180  39.825  23.807  14.047
53565W        W25181   5.908  11.402  12.593
53566W        W25182  17.219  43.564  12.903
53567W        W25183  33.464  12.516  13.193
53568W        W25184  37.567  28.526  10.921
53569W        W25185  42.329  20.501   3.270
53570W        W25186   8.642  19.673   1.474
53571W        W25187  40.079  39.898  12.482
53572W        W25188  31.049  13.574  12.645
53573W        W25189  43.351  32.887   0.880
53574W        W25190   0.370  13.619   3.223
53575W        W25191  30.716  26.299  12.839
53576W        W25192  39.850  10.085  11.623
53577W        W25193  36.012  19.730  13.406
53578W        W25194  41.558   8.257   1.799
53579W        W25195   4.274  20.205   4.185
53580W        W25196  26.801   2.880  12.052
53581W        W25197   4.261  32.912  11.767
53582W        W25198  43.480   8.339   2.133
53583W        W25199  42.589  35.814  11.545
53584W        W25200  33.401  12.813  14.062
53585W        W25201  33.950   3.150   2.730
53586W        W25202  29.616   9.821  11.214
53587W        W25203  31.424  41.904  13.599
53588W        W25204  23.583  36.111   3.806
53589W        W25205  19.762  21.388  12.941
53590W        W25206  37.100  20.719  11.540
53591W        W25207   5.399   4.180  11.202
53592W        W25208  35.548  11.913   2.216
53593W        W25209  42.440  22.671   4.615
53594W        W25210  27.495  43.451  14.051
53595W        W25211  24.934  18.750   3.600
53596W        W25212   1.102  40.145  13.713
53597W        W25213   0.715   3.939  13.853
53598W        W25214   9.718  19.456   0.490
53599W        W25215   8.211  27.734  11.617
53600W        W25216  15.792  22.621  11.440
53601W        W25217  44.058   8.238   4.623
53602W        W25218  19.807  29.917  12.426
53603W        W25219  26.960  26.556  13.864
53604W        W25220  39.497  17.792  14.530
53605W        W25221  28.198  16.687   0.103
53606W        W25222  19.083  10.348  14.868
53607W        W25223   8.485  42.087   1.771
53608W        W25224  38.795   0.172   0.790
53609W        W25225  21.590  23.658   4.832
53610W        W25226   9.444  34.601  14.794
53611W        W25227  36.518  34.386  10.807
53612W        W25228  36.399   7.778  11.566
53613W        W25229   5.368  41.727   1.852
53614W        W25230  33.299  42.477   4.908
53615W        W25231   7.938  14.211  13.318
53616W        W25232   8.530  11.881   4.995
53617W        W25233  17.000  43.775   4.335
53618W        W25234   6.272  14.040   5.208
53619W        W25235  11.248  10.556  11.175
53620W        W25236  40.365  24.076   2.968
53621W        W25237  38.590  22.245   1.625
53622W        W25238  28.098  34.321   2.592
53623W        W25239  40.231  34.109   2.175
53624W        W25240  24.349  28.851   1.090
53625W        W25241  24.711  44.049   3.270
53626W        W25242  41.420  40.331  13.405
53627W        W25243  28.439  14.513   5.081
53628W        W25244  15.547  35.496  14.350
53629W        W25245  20.746   6.723  11.459
53630W        W25246  30.088  26.499  11.501
53631W        W25247  34.805  21.789   2.846
53632W        W25248  20.631  16.616  10.818
53633W        W25249  37.902   9.125   2.163
53634W        W25250  28.915  14.737   5.098
53635W        W25251  34.064   9.593   2.358
53636W        W25252  29.858  39.962  12.975
53637W        W25253  26.656  24.075   4.948
53638W        W25254  29.797  25.995   1.621
53639W        W25255  18.330  10.904   3.584
53640W        W25256   7.108  23.209  14.669
53641W        W25257  31.772  41.132  10.325
53642W        W25258   8.123  25.086   4.112
53643W        W25259  27.974   7.395   4.784
53644W        W25260  30.170   7.427  13.055
53645W        W25261  23.020  40.925  13.617
53646W        W25262   4.466  11.728   2.907
53647W        W25263   5.912  12.382  13.626
53648W        W25264  36.156  43.370  11.539
53649W        W25265  31.475  19.517   2.398
53650W        W25266  44.695  19.979  14.331
53651W        W25267  20.050   8.541  14.919
53652W        W25268   5.763   4.499  12.901
53653W        W25269  18.528  21.708   1.171
53654W        W25270  41.457  20.137  14.367
53655W        W25271   3.494  10.429  14.247
53656W        W25272  28.902  12.695  10.711
53657W        W25273  31.098  13.817  12.135
53658W        W25274   6.845   6.283   4.553
53659W        W25275  10.406  33.952  11.172
53660W        W25276   0.744   1.533   2.847
53661W        W25277  22.394  11.811  14.046
53662W        W25278   5.347   5.836  11.933
53663W        W25279  23.265  42.747  11.139
53664W        W25280  10.868  18.640  12.520
53665W        W25281   0.926  39.021   3.903
53666W        W25282  43.007   8.369   2.748
53667W        W25283  12.334  18.475   2.270
53668W        W25284  18.678   3.486   4.256
53669W        W25285  32.885   2.735  14.901
53670W        W25286  32.942   0.082   5.045
53671W        W25287  30.429   4.762   0.848
53672W        W25288  36.865  29.387  12.107
53673W        W25289  12.592  17.237  13.331
53674W        W25290  15.197  34.977   3.339
53675W        W25291  18.652   7.693   1.445
53676W        W25292  30.291   1.892   3.122
53677W        W25293  29.856   3.267  14.436
53678W        W25294  43.206  38.196  10.161
53679W        W25295   8.633  26.168  14.988
53680W        W25296  35.384   5.842  11.936
53681W        W25297  31.157  39.875  12.338
53682W        W25298  43.629  40.486  14.901
53683W        W25299  43.839  15.176  11.087
53684W        W25300  37.279  40.864  10.513
53685W        W25301  10.444  12.614   0.329
53686W        W25302  27.226  22.256   0.329
53687W        W25303  29.454  24.460   3.609
53688W        W25304  32.904  44.634   9.712
53689W        W25305  35.310  41.949   3.373
53690W        W25306  31.216  24.973   3.277
53691W        W25307   0.903  17.318  13.842
53692W        W25308  36.394  40.590   4.591
53693W        W25309  31.090  41.097   3.884
53694W        W25310  34.640  15.070   4.270
53695W        W25311   8.717  44.312  10.619
53696W        W25312  44.167   0.274  14.855
53697W        W25313  18.814  32.073  12.077
53698W        W25314  35.244  27.623   3.962
53699W        W25315  31.292   4.643   1.727
53700W        W25316  32.420  17.692   0.410
53701W        W25317   5.865  43.794   0.806
53702W        W25318  43.488  29.091   5.040
53703W        W25319  42.164   6.666  14.736
53704W        W25320   8.356  44.965   2.775
53705W        W25321  36.935  38.273   4.878
53706W        W25322  23.044  35.872   4.073
53707W        W25323  25.454  12.076   0.395
53708W        W25324  17.231   1.924  12.436
53709W        W25325  21.110   4.339  14.538
53710W        W25326  38.454   5.843   3.406
53711W        W25327  34.538   8.287   1.265
53712W        W25328   3.689  31.379  12.046
53713W        W25329  19.188  19.106  14.887
53714W        W25330  23.199  10.668   2.846
53715W        W25331   8.799  35.906   1.346
53716W        W25332  10.355  44.188  14.812
53717W        W25333  12.287  26.120   1.637
53718W        W25334  15.770  33.082   3.230
53719W        W25335  41.852  37.115   3.693
53720W        W25336  24.436  12.799   4.198
53721W        W25337  44.984  12.842   4.552
53722W        W25338  44.072   7.751  11.783
53723W        W25339   4.404   3.976   4.181
53724W        W25340  43.485   5.357   3.672
53725W        W25341  42.795  41.714  11.443
53726W        W25342  25.086   1.546  13.601
53727W        W25343  29.886  12.744  12.100
53728W        W25344  19.004  36.945   4.680
53729W        W25345  17.599  37.083   2.717
53730W        W25346  20.946  20.105   3.210
53731W        W25347  14.181  44.023  13.099
53732W        W25348  12.727  24.311  13.735
53733W        W25349  13.098  30.007   3.433
53734W        W25350  32.951   5.320  12.987
53735W        W25351  35.351  25.681  11.977
53736W        W25352  25.923  18.746  13.332
53737W        W25353  21.658  43.704   0.756
53738W        W25354  21.201  29.562  13.591
53739W        W25355  18.829  30.566   3.461
53740W        W25356  15.620  43.075   1.687
53741W        W25357  14.595   4.315   1.816
53742W        W25358   1.047  28.874   0.888
53743W        W25359  32.053  42.851   3.160
53744W        W25360  30.651  41.049   1.774
53745W        W25361  11.798  23.734  12.503
53746W        W25362  12.526  23.953   0.680
53747W        W25363  29.556  19.269  12.455
53748W        W25364  29.821  42.379   3.364
53749W        W25365  21.296  34.268   2.584
53750W        W25366  11.404  39.866  14.094
53751W        W25367  43.542   6.612  14.321
53752W        W25368  12.616   4.161   0.290
53753W        W25369  18.629  30.964  14.296
53754W        W25370  20.643  11.854   1.463
53755W        W25371  23.714  34.163   1.824
53756W        W25372  33.261  36.141   0.212
53757W        W25373   2.307  18.993  12.866
53758W        W25374  39.522   1.889   5.030
53759W        W25375   8.173  11.643   4.689
53760W        W25376  34.873   5.167  10.586
53761W        W25377  15.593  33.700  11.988
53762W        W25378  14.286  14.742  12.474
53763W        W25379  18.330   3.452  11.457
53764W        W25380  13.218  14.621  10.441
53765W        W25381   3.928  10.493  13.353
53766W        W25382  36.383  40.075  10.741
53767W        W25383  13.802  22.385   3.889
53768W        W25384   5.155  40.094  10.470
53769W        W25385  11.352  42.440   2.991
53770W        W25386  27.441  19.855   1.106
53771W        W25387  12.675  25.973   1.950
53772W        W25388  16.138   1.841   4.633
53773W        W25389  27.007   8.127  12.146
53774W        W25390   8.278  27.472   0.134
53775W        W25391  28.494  43.262  11.460
53776W        W25392   0.325  34.355   1.346
53777W        W25393  21.665   4.555   1.258
53778W        W25394  13.762   4.289  14.592
53779W        W25395  39.529  34.577   2.839
53780W        W25396  16.538   8.713   0.009
53781W        W25397  10.518  26.620   1.757
53782W        W25398  26.056  15.784   4.388
53783W        W25399  38.316   4.994  12.916
53784W        W25400  33.552   9.340   3.254
53785W        W25401  33.053  16.757  12.506
53786W        W25402  35.311  37.125   1.356
53787W        W25403   9.316  39.936  12.789
53788W        W25404  37.032  13.309  13.408
53789W        W25405   3.826  14.073  13.890
53790W        W25406   2.992   4.298   2.056
53791W        W25407  22.995   4.417  10.805
53792W        W25408  43.604  18.211  10.605
53793W        W25409  18.338  14.984   3.756
53794W        W25410  37.368  35.402  10.777
53795W        W25411  20.576  44.015  14.846
53796W        W25412   8.085  21.176   4.145
53797W        W25413  11.824  24.945   2.198
53798W        W25414  25.943  20.780  13.052
53799W        W25415  37.400  15.319  13.079
53800W        W25416  19.780  33.641   2.265
53801W        W25417  25.799  15.257  14.410
53802W        W25418  11.719  23.759  10.538
53803W        W25419   7.715  43.922  12.410
53804W        W25420  22.052  42.802  11.570
53805W        W25421  16.037  11.209  11.397
53806W        W25422   1.011  40.621   3.281
53807W        W25423  30.239  41.858   4.528
53808W        W25424  21.516   7.259   2.431
53809W        W25425   8.902  29.389   3.575
53810W        W25426  17.067  19.187   3.760
53811W        W25427  40.621  17.110   3.622
53812W        W25428   6.446  37.084   2.040
53813W        W25429  27.055  42.539   0.548
53814W        W25430  30.046  41.540  14.889
53815W        W25431  26.978  26.004  13.891
53816W        W25432   7.336  39.468   0.887
53817W        W25433  14.387  28.103  12.033
53818W        W25434  40.631  16.504  14.449
53819W        W25435  42.744  44.908   2.654
53820W        W25436  17.520  21.756  14.830
53821W        W25437  35.597  35.054  13.711
53822W        W25438   1.103  23.100  14.510
53823W        W25439  13.633   3.131  12.596
53824W        W25440  33.450  18.656   4.749
53825W        W25441   0.258  35.755  10.106
53826W        W25442  35.849  13.805  13.032
53827W        W25443  21.126  25.123  14.317
53828W        W25444  16.249   5.344   1.313
53829W        W25445  38.209  21.997   1.249
53830W        W25446   7.813  27.101   1.364
53831W        W25447   3.707  22.896  14.468
53832W        W25448  15.997  43.778   3.405
53833W        W25449  15.840  12.409  11.861
53834W        W25450  17.344  41.300   0.872
53835W        W25451  37.809  27.137  14.947
53836W        W25452  43.051  21.461   4.890
53837W        W25453  39.805  21.472   3.850
53838W        W25454  13.754  37.514  10.489
53839W        W25455  23.644  35.800  13.029
53840W        W25456   9.391  11.712  12.111
53841W        W25457  19.781  16.050  14.255
53842W        W25458  28.002  11.138  14.970
53843W        W25459  22.972   2.892   0.324
53844W        W25460   7.191  11.563  11.651
53845W        W25461  30.520   8.106   3.139
53846W        W25462   4.295  27.973  13.767
53847W        W25463  16.804  10.961   0.855
53848W        W25464  16.747  30.925  11.216
53849W        W25465  44.253  17.705   4.947
53850W        W25466  11.839   8.794   3.695
53851W        W25467  16.289   8.550  13.900
53852W        W25468  41.058  33.617  10.978
53853W        W25469  42.879   5.339  12.393
53854W        W25470   2.210  16.921   4.858
53855W        W25471  11.457   0.036  11.979
53856W        W25472  35.506  10.288   4.102
53857W        W25473  26.523  31.992  13.335
53858W        W25474  12.134  19.966   2.178
53859W        W25475  11.370  35.647   4.200
53860W        W25476  26.491  34.030   3.759
53861W        W25477  27.818  39.097   4.947
53862W        W25478  10.569  38.397  10.560
53863W        W25479  12.112  31.026   1.400
53864W        W25480  32.438   2.318  10.224
53865W        W25481  44.588  23.483   1.906
53866W        W25482   2.431  42.530   0.922
53867W        W25483  26.151   2.248   0.778
53868W        W25484  30.535  26.421   2.123
53869W        W25485  11.555  28.530   4.823
53870W        W25486  30.538  38.600  12.450
53871W        W25487  18.552  37.600  13.037
53872W        W25488  40.544   5.759  11.558
53873W        W25489  35.609  23.436   3.726
53874W        W25490  44.307  34.510   3.309
53875W        W25491  22.827  27.646   1.075
53876W        W25492  26.406  11.121  12.967
53877W        W25493  13.565   8.928  13.471
53878W        W25494  37.280  32.570   3.149
53879W        W25495  29.671  29.617  13.463
53880W        W25496  28.613  18.031   0.955
53881W        W25497  11.688  13.591  11.965
53882W        W25498  40.494   5.717   2.745
53883W        W25499  15.879  30.082   1.953
53884W        W25500  39.776  30.838   2.729
53885W        W25501   0.268   2.874  12.418
53886W        W25502   9.168  20.172   0.866
53887W        W25503  32.178  34.985  12.841
53888W        W25504   6.929  27.588   3.761
53889W        W25505   8.938  10.749  14.918
53890W        W25506  43.713  42.097  11.187
53891W        W25507  32.036  30.206   2.244
53892W        W25508   8.291  20.588   0.725
53893W        W25509  28.002   5.053  12.104
53894W        W25510  11.588   5.705  12.923
53895W        W25511   3.072  14.841  11.143
53896W        W25512  24.469  30.082  10.602
53897W        W25513  20.674   9.230   0.237
53898W        W25514   1.227  43.910   4.074
53899W        W25515  14.127  36.533  14.710
53900W        W25516  37.489  23.465  11.428
53901W        W25517  10.463  40.291   0.753
53902W        W25518  31.840  32.844   0.510
53903W        W25519  24.125   9.361  10.963
53904W        W25520  10.117  37.412  13.096
53905W        W25521  40.063  41.971   1.070
53906W        W25522  21.040   3.385  13.334
53907W        W25523  29.862   1.246  12.756
53908W        W25524  30.879  39.505  14.265
53909W        W25525  24.216  36.823  13.570
53910W        W25526  43.936  44.545   4.097
53911W        W25527   5.321  16.233  14.074
53912W        W25528  18.208   6.675  13.439
53913W        W25529  19.049  33.486   3.806
53914W        W25530  24.760  22.067  11.593
53915W        W25531  19.663  26.947  12.140
53916W        W25532  19.646  22.157  11.850
53917W        W25533  15.081   5.496  11.558
53918W        W25534  27.914  37.095   3.227
53919W        W25535  34.555  28.662   3.795
53920W        W25536  39.321  15.287   3.901
53921W        W25537  20.735  30.459   4.171
53922W        W25538  30.015   7.776  11.655
53923W        W25539   2.355  26.280  14.071
53924W        W25540   1.266  43.196   4.816
53925W        W25541  33.138  20.189  13.096
53926W        W25542   3.721  11.362   3.620
53927W        W25543  15.316  13.855   1.705
53928W        W25544  12.294  10.380   0.908
53929W        W25545  10.749   4.666  13.782
53930W        W25546   5.349   4.646   1.344
53931W        W25547  16.775  20.458   4.260
53932W        W25548  14.633  15.631  11.611
53933W        W25549  13.067  29.092   3.888
53934W        W25550   3.035  12.270  10.713
53935W        W25551   5.324   8.652  13.572
53936W        W25552  11.742  16.559  12.006
53937W        W25553  21.961   0.078   0.351
53938W        W25554  43.949  19.536  14.047
53939W        W25555  12.784  24.599  13.303
53940W        W25556  30.371   2.890  13.969
53941W        W25557   1.768  27.172   4.587
53942W        W25558  44.450   5.174   2.732
53943W        W25559  30.186  32.335   0.950
53944W        W25560  31.775  13.350   4.991
53945W        W25561  33.326  22.533   3.394
53946W        W25562  42.826  35.405   5.398
53947W        W25563  23.443  37.350  14.711
53948W        W25564   5.842   1.287  11.148
53949W        W25565  13.899  27.715  11.076
53950W        W25566  27.924  20.224   3.230
53951W        W25567  38.898  40.576  11.465
53952W        W25568   8.835  28.675   0.251
53953W        W25569  22.493  25.648  11.466
53954W        W25570  23.051  21.079  11.747
53955W        W25571   6.428  32.559  13.593
53956W        W25572  10.560  27.461  12.596
53957W        W25573   3.866  19.763  10.223
53958W        W25574  37.955  15.013  11.019
53959W        W25575  30.613  33.555   3.796
53960W        W25576  37.695  43.389  11.693
53961W        W25577  44.704  44.743   3.983
53962W        W25578   9.722   9.918   3.322
53963W        W25579  44.601  35.129  14.322
53964W        W25580  41.363  21.426  12.032
53965W        W25581  18.783   3.210  12.615
53966W        W25582  13.309  33.374   0.465
53967W        W25583  22.591  10.180   2.262
53968W        W25584   3.341   0.291   4.151
53969W        W25585  12.582  35.295   3.497
53970W        W25586   2.489  13.424   3.728
53971W        W25587  40.309  39.034  12.171
53972W        W25588  10.904  29.485  11.893
53973W        W25589  22.887   8.827   0.700
53974W        W25590  34.302   3.267   0.010
53975W        W25591  26.089  29.585   3.126
53976W        W25592   3.664  38.583  14.827
53977W        W25593  14.062  18.527   5.175
53978W        W25594  38.552  27.735   1.204
53979W        W25595  27.797   8.584  12.080
53980W        W25596  44.857  23.296  11.145
53981W        W25597  19.775  27.438  13.857
53982W        W25598   1.373  37.351   3.865
53983W        W25599  26.022  22.185  12.400
53984W        W25600  14.169  44.390   3.666
53985W        W25601   2.628   3.943   1.971
53986W        W25602   1.706   0.329   1.886
53987W        W25603   7.442  31.867  11.546
53988W        W25604  43.757  17.275  14.621
53989W        W25605  22.681  36.894  11.337
53990W        W25606  36.250  44.346   1.237
53991W        W25607   0.492  13.805  11.922
53992W        W25608  31.902  28.159  13.791
53993W        W25609   3.947  15.834  13.390
53994W        W25610  32.372  16.794   0.145
53995W        W25611  39.648  29.998   0.523
53996W        W25612  12.618  26.977  10.567
53997W        W25613  30.297  26.118   1.751
53998W        W25614  16.502  31.029  13.439
53999W        W25615  13.541  10.030   1.335
54000W        W25616   7.397  44.956  14.391
54001W        W25617   6.362   9.129  13.923
54002W        W25618  27.151  39.584   3.198
54003W        W25619   3.163  29.538   1.841
54004W        W25620   0.313  30.475   0.405
54005W        W25621   7.679   4.370  13.637
54006W        W25622  38.442  40.708   2.062
54007W        W25623  36.864   9.340  14.419
54008W        W25624  27.115  21.973   4.623
54009W        W25625  10.173  41.574  11.817
54010W        W25626  30.584   7.712  12.953
54011W        W25627   4.796   8.633  10.407
54012W        W25628  35.756  27.827   4.141
54013W        W25629  38.994  26.733   2.642
54014W        W25630  24.646  23.758  14.282
54015W        W25631  38.461  34.648   1.214
54016W        W25632  33.363  10.921  12.930
54017W        W25633  18.666  19.828  10.729
54018W        W25634  38.606  26.195  13.559
54019W        W25635  12.640   1.331   2.194
54020W        W25636  22.238  22.149   1.965
54021W        W25637  27.415   7.653  14.362
54022W        W25638  13.791  24.235  13.358
54023W        W25639  20.241  44.042  10.964
54024W        W25640  41.762  41.914   4.253
54025W        W25641  13.918  28.606  14.432
54026W        W25642  26.070  26.963   4.223
54027W        W25643   2.996  32.174   0.822
54028W        W25644  34.994  22.635   2.415
54029W        W25645  26.459   4.372   0.894
54030W        W25646   9.573  10.235   5.074
54031W        W25647  39.979   7.863   1.482
54032W        W25648  30.994   8.146   4.557
54033W        W25649  18.691  30.844   2.598
54034W        W25650  15.899  11.143  14.834
54035W        W25651  36.634  14.922   3.609
54036W        W25652  31.523  34.025   0.758
54037W        W25653  24.552  17.435   4.639
54038W        W25654  24.253  10.623   0.810
54039W        W25655  25.454  44.829   0.335
54040W        W25656  26.315  16.830  13.964
54041W        W25657  36.499  30.028   3.789
54042W        W25658  44.809  17.708  11.555
54043W        W25659  35.407   5.256  11.597
54044W        W25660   0.727  22.718  11.025
54045W        W25661   6.709  12.692   4.637
54046W        W25662  10.875  13.311  10.767
54047W        W25663  40.026  23.926  11.490
54048W        W25664   6.532  23.737   3.211
54049W        W25665   0.608  35.316  13.527
54050W        W25666  14.750  32.224  13.079
54051W        W25667  31.893  17.580   2.313
54052W        W25668  43.935  29.626  11.073
54053W        W25669   8.323  17.655  11.680
54054W        W25670   2.444  31.687  11.428
54055W        W25671  16.990  27.053   1.905
54056W        W25672  37.532  11.642   1.816
54057W        W25673   9.088  17.342   4.414
54058W        W25674  44.414  11.948   3.647
54059W        W25675   1.756  30.082  12.074
54060W        W25676  12.895  42.326  13.167
54061W        W25677  16.030  42.391  14.503
54062W        W25678   8.423  16.568   1.297
54063W        W25679   9.259   8.470   0.051
54064W        W25680  38.275  22.736  14.451
54065W        W25681  18.225  23.638   1.343
54066W        W25682  31.661  35.195   4.549
54067W        W25683   1.823   9.636   1.325
54068W        W25684  44.968  39.053  12.172
54069W        W25685  37.760  30.563   0.803
54070W        W25686  38.318  43.755   0.200
54071W        W25687  23.508   6.218   0.282
54072W        W25688   0.909  22.063  11.972
54073W        W25689   4.441  41.880   0.792
54074W        W25690   8.312  17.672   4.886
54075W        W25691   7.230  30.680  13.713
54076W        W25692  20.556  30.427   0.407
54077W        W25693  39.451  32.839  14.447
54078W        W25694  16.689  27.626  12.110
54079W        W25695  15.154  39.495   0.740
54080W        W25696  30.483  37.356  14.917
54081W        W25697  19.254  19.790   0.241
54082W        W25698  42.829   8.159   2.312
54083W        W25699  39.391  33.468   1.932
54084W        W25700  28.673  32.849   3.376
54085W        W25701  23.538   7.110  11.348
54086W        W25702   9.653  11.373  11.436
54087W        W25703  15.682  42.949   4.346
54088W        W25704  43.642  35.530  14.362
54089W        W25705  36.851  30.431   0.935
54090W        W25706  20.062  44.940  11.100
54091W        W25707  13.345   3.158  13.237
54092W        W25708  11.388   6.744  10.659
54093W        W25709  25.966  21.760  12.666
54094W        W25710  43.584  13.316   0.152
54095W        W25711   3.341  34.552   4.675
54096W        W25712  14.726  35.088  11.823
54097W        W25713   1.285  25.627  10.358
54098W        W25714  12.043  27.001  13.512
54099W        W25715  26.394  22.950   1.269
54100W        W25716  19.623  38.431  13.935
54101W        W25717  28.359  29.183  14.406
54102W        W25718   7.826  27.083   3.416
54103W        W25719  43.077  33.427   2.224
54104W        W25720  17.709  21.928   3.298
54105W        W25721  43.222  18.692   3.754
54106W        W25722   5.705  35.563   2.756
54107W        W25723  25.288   1.037  10.965
54108W        W25724  10.760  43.246  13.047
54109W        W25725   4.814  35.618  14.372
54110W        W25726   4.495  16.225  10.689
54111W        W25727  32.137   5.464   3.204
54112W        W25728   3.521   0.774   0.266
54113W        W25729  25.226  25.051  11.957
54114W        W25730  16.671  34.133  10.710
54115W        W25731  17.933  35.008   2.730
54116W        W25732  15.223  30.983   2.954
54117W        W25733  23.598  44.945  10.788
54118W        W25734   9.298  20.616  11.907
54119W        W25735  26.152  33.418   1.780
54120W        W25736  18.015  26.884   2.705
54121W        W25737   4.767  38.304  12.764
54122W        W25738  23.832  28.018  12.025
54123W        W25739   1.001  17.475   2.408
54124W        W25740  11.217  43.914   0.018
54125W        W25741  41.854  36.748  11.006
54126W        W25742  21.731   8.893   3.639
54127W        W25743  36.492  24.777  11.649
54128W        W25744   6.392  42.283  11.628
54129W        W25745  29.517  43.453   0.003
54130W        W25746  43.531  41.051  11.087
54131W        W25747   9.275   7.563  12.875
54132W        W25748   1.847  11.218   3.275
54133W        W25749  30.729   4.804   0.402
54134W        W25750  30.456   8.211  11.195
54135W        W25751  18.642  26.373   3.292
54136W        W25752  40.520   0.320  12.908
54137W        W25753  43.477  35.829   2.163
54138W        W25754  17.843  19.334  14.465
54139W        W25755   0.285  20.745   2.697
54140W        W25756  43.086  35.198  10.983
54141W        W25757  21.896  21.278  11.935
54142W        W25758  31.858  12.759  14.157
54143W        W25759  12.170   3.365  14.840
54144W        W25760  32.882  26.640   0.970
54145W        W25761  39.071  31.984   4.508
54146W        W25762   9.268   0.208  12.807
54147W        W25763  22.359  38.358  13.663
54148W        W25764  40.364  39.547  13.317
54149W        W25765  10.511   5.813  14.636
54150W        W25766  13.706  35.303   0.532
54151W        W25767  43.721  28.118   4.393
54152W        W25768  16.467  29.738  11.158
54153W        W25769  22.016  31.151  12.436
54154W        W25770  18.090   8.253  14.793
54155W        W25771   8.104  39.385  11.097
54156W        W25772  23.695  39.926   2.327
54157W        W25773  34.030   0.562   0.432
54158W        W25774  42.814  21.651   1.854
54159W        W25775  24.853   0.265  12.051
54160W        W25776   2.614   6.934   3.294
54161W        W25777  31.829   2.876  12.445
54162W        W25778  13.332   6.349   4.645
54163W        W25779  30.907   2.154   1.223
54164W        W25780   7.485   8.319  11.965
54165W        W25781  28.928  38.442  12.524
54166W        W25782  25.688  26.005   2.357
54167W        W25783  43.974  16.690   4.264
54168W        W25784  12.865  11.734  13.009
54169W        W25785  22.350   0.943  13.902
54170W        W25786   8.459   7.747   2.795
54171W        W25787  20.558  26.612  11.850
54172W        W25788  30.502  17.915  11.749
54173W        W25789   0.487  18.762  13.456
54174W        W25790  21.722   8.340   2.272
54175W        W25791  15.111  21.558  12.497
54176W        W25792  14.404  18.030   0.875
54177W        W25793  11.649   2.297   2.175
54178W        W25794   1.197   8.258   2.908
54179W        W25795   5.480  15.739  11.126
54180W        W25796  33.117  39.762  13.554
54181W        W25797   5.692  17.491  11.881
54182W        W25798  41.973  37.310  13.258
54183W        W25799  22.501  27.032   0.874
54184W        W25800   0.597   6.236  11.035
54185W        W25801  23.980  38.113   0.520
54186W        W25802  33.181  12.784  13.600
54187W        W25803   3.947   1.023   1.469
54188W        W25804  38.703   1.681  13.139
54189W        W25805  21.253  33.536   1.280
54190W        W25806  10.442  37.032  13.305
54191W        W25807  22.733  15.733   1.514
54192W        W25808   9.667  30.725  11.422
54193W        W25809  44.584  26.931  14.736
54194W        W25810  37.096  24.723   4.193
54195W        W25811   6.412  23.756  13.059
54196W        W25812  37.740  20.606   0.370
54197W        W25813  24.942  35.547   1.898
54198W        W25814  24.636  39.167   4.235
54199W        W25815  19.925  25.647   4.145
54200W        W25816  24.959  43.454   0.958
54201W        W25817  22.054   4.306   3.928
54202W        W25818  37.463  34.887  13.752
54203W        W25819  16.265  23.988  13.880
54204W        W25820  36.572  31.151   3.357
54205W        W25821  42.367  32.295   3.189
54206W        W25822  34.160  33.354  12.873
54207W        W25823  28.743  32.645   0.141
54208W        W25824  12.076   8.583  12.507
54209W        W25825  27.422   1.785  14.948
54210W        W25826   2.294  36.102  11.675
54211W        W25827  14.412  23.090   1.941
54212W        W25828  12.946  17.270   0.242
54213W        W25829  30.179   8.243   3.606
54214W        W25830  26.650  17.634  12.136
54215W        W25831  25.242  31.874   4.095
54216W        W25832  31.407  29.635   1.852
54217W        W25833   2.564  19.605  14.982
54218W        W25834  26.612   7.594   3.310
54219W        W25835  31.548  24.245   1.631
54220W        W25836   4.706  32.288   4.068
54221W        W25837  28.969  39.342   2.847
54222W        W25838  27.445   0.936  14.590
54223W        W25839   9.271   2.210   2.309
54224W        W25840  34.104  38.938  11.578
54225W        W25841  19.195  26.488   1.733
54226W        W25842  24.563  10.450  12.025
54227W        W25843  19.990   9.194   1.140
54228W        W25844  39.546   2.439   0.491
54229W        W25845   0.862  12.835   3.272
54230W        W25846  40.365  23.131  13.486
54231W        W25847  25.901  27.185   1.829
54232W        W25848  12.837   9.599  11.194
54233W        W25849   3.018   7.703   3.687
54234W        W25850  37.385   5.895   2.796
54235W        W25851  12.309  15.123   0.819
54236W        W25852  44.380  17.439  11.676
54237W        W25853   2.756  28.429   3.694
54238W        W25854  18.802  42.178   5.059
54239W        W25855  18.143  37.311  13.992
54240W        W25856  40.440  33.823   0.338
54241W        W25857  44.812   2.736  10.512
54242W        W25858  34.876  44.708   5.468
54243W        W25859  14.162  17.540  14.489
54244W        W25860   3.883  41.309   5.135
54245W        W25861  25.655   3.207   2.867
54246W        W25862   0.823  18.950   2.350
54247W        W25863  42.784  26.591  11.402
54248W        W25864  16.400  29.637   4.301
54249W        W25865  40.242  31.116  10.717
54250W        W25866  42.944  16.720  11.438
54251W        W25867   6.460  24.325   5.040
54252W        W25868  13.364  31.837   4.642
54253W        W25869  18.286  34.925   2.360
54254W        W25870  34.067  36.644   3.105
54255W        W25871  31.105  12.545  13.601
54256W        W25872   8.428  23.469   4.103
54257W        W25873  15.498  10.149  12.378
54258W        W25874  20.456  26.012  13.653
54259W        W25875   8.783  44.000  13.762
54260W        W25876  13.292  15.049  13.237
54261W        W25877  18.628  34.688   4.124
54262W        W25878  35.817  20.639  11.115
54263W        W25879  29.587  25.665  14.438
54264W        W25880  44.913  17.163   4.592
54265W        W25881  31.874  30.629   1.425
54266W        W25882  28.664  16.386   4.630
54267W        W25883  37.477  13.193   1.557
54268W        W25884  25.725  19.122  10.677
54269W        W25885  28.623  37.970  11.360
54270W        W25886  23.655   7.241  10.870
54271W        W25887   5.051  25.439  12.801
54272W        W25888  13.750  12.090   3.766
54273W        W25889  23.489  43.492   3.368
54274W        W25890  29.584  37.065  11.088
54275W        W25891  43.976  40.535   3.291
54276W        W25892  40.940   8.846  11.217
54277W        W25893  12.622  29.837   1.390
54278W        W25894  38.265  33.036   2.260
54279W        W25895  20.089  41.401  14.029
54280W        W25896  26.215  10.126   3.373
54281W        W25897  22.631   6.807   3.708
54282W        W25898   2.394  18.698   2.655
54283W        W25899   8.290  32.246   5.090
54284W        W25900   3.891  17.645   1.309
54285W        W25901  25.349  25.478   1.239
54286W        W25902  43.714  24.842   4.794
54287W        W25903  13.114  10.203  11.550
54288W        W25904   6.427  20.103   4.235
54289W        W25905   2.687  42.730  12.541
54290W        W25906   7.211  26.247  14.807
54291W        W25907  28.218  17.458   4.234
54292W        W25908  21.558   6.601   0.681
54293W        W25909  13.187  11.943   3.093
54294W        W25910  19.939  19.512   3.878
54295W        W25911   9.946  27.627   2.338
54296W        W25912  19.780   0.367   0.346
54297W        W25913  25.147  22.506   0.899
54298W        W25914  10.632  15.650  11.551
54299W        W25915  11.272  28.601  14.380
54300W        W25916  28.125   8.981  11.132
54301W        W25917  41.500  24.112   0.845
54302W        W25918  36.720   3.469   5.144
54303W        W25919  14.208  20.081   1.903
54304W        W25920  33.585  29.751   2.818
54305W        W25921  27.066   6.109   2.395
54306W        W25922  38.009  10.277  14.918
54307W        W25923   1.991   8.744   0.756
54308W        W25924  44.763  37.388   0.182
54309W        W25925  27.614  42.219  13.354
54310W        W25926  13.202  11.856  12.484
54311W        W25927  35.897  26.913  14.048
54312W        W25928  39.729   1.822   1.234
54313W        W25929  24.071  23.686   2.776
54314W        W25930   0.397  11.402  11.888
54315W        W25931   4.126   6.833  13.880
54316W        W25932  33.025  31.227  12.505
54317W        W25933  18.671  18.898   1.197
54318W        W25934  16.730  35.138  13.522
54319W        W25935   6.115  30.215   4.544
54320W        W25936   0.954  21.979   4.472
54321W        W25937  38.845  18.163   4.815
54322W        W25938   6.348   0.353  10.694
54323W        W25939  34.048  21.973  14.585
54324W        W25940  38.990  32.439   1.333
54325W        W25941  41.991  37.994  10.289
54326W        W25942  33.900  41.890  10.745
54327W        W25943  19.247  14.517  12.491
54328W        W25944   8.162   7.432   1.733
54329W        W25945  36.871   3.809   3.612
54330W        W25946  11.138  34.558   1.208
54331W        W25947  35.456  36.703   4.089
54332W        W25948   6.099  27.082   1.632
54333W        W25949  15.063  15.920   3.715
54334W        W25950  14.520  25.863   2.233
54335W        W25951  41.299   0.824   3.125
54336W        W25952  24.773  15.537  11.988
54337W        W25953  35.417  25.214  12.402
54338W        W25954  42.338  38.381  11.550
54339W        W25955  24.354  16.295  13.001
54340W        W25956   3.288   1.034   3.631
54341W        W25957  38.116   9.904   9.962
54342W        W25958  44.921   8.108  13.521
54343W        W25959   1.342  14.931   2.265
54344W        W25960  27.126  14.668  14.802
54345W        W25961  36.206  10.916   9.710
54346W        W25962  38.576  42.935  14.133
54347W        W25963  16.138  16.808   4.203
54348W        W25964  20.340   9.464  11.958
54349W        W25965  33.637   9.525  11.274
54350W        W25966  33.262   3.259   0.603
54351W        W25967  35.927  44.539   4.903
54352W        W25968   6.265   1.640  14.313
54353W        W25969  23.951   3.400   4.959
54354W        W25970  22.702   4.882  12.471
54355W        W25971  29.284  26.375   4.633
54356W        W25972  39.428   7.387  11.157
54357W        W25973  34.265  31.447  12.074
54358W        W25974  17.092  21.153   3.215
54359W        W25975  32.618   5.180   3.216
54360W        W25976  13.443   4.372  12.527
54361W        W25977  25.688   1.978   1.004
54362W        W25978  23.048  21.918  13.150
54363W        W25979   7.572   0.378  10.625
54364W        W25980  22.614  11.760  11.672
54365W        W25981  18.611   9.652  12.034
54366W        W25982  33.026  35.088   1.220
54367W        W25983  40.687   0.148   0.892
54368W        W25984   3.705  21.041   3.140
54369W        W25985  13.617   3.979  12.228
54370W        W25986  24.072  10.833  13.267
54371W        W25987  39.861  43.387   0.816
54372W        W25988  35.261  14.105   0.296
54373W        W25989   2.469  37.027   3.894
54374W        W25990  41.856  13.894   1.829
54375W        W25991   5.276  39.978  12.363
54376W        W25992  34.644  27.561   1.712
54377W        W25993  16.352  22.629  13.190
54378W        W25994  28.405  33.082  13.425
54379W        W25995   4.286  19.597   0.073
54380W        W25996  35.482  42.563   0.804
54381W        W25997  12.864   5.533  10.671
54382W        W25998   3.029  27.130  14.858
54383W        W25999  36.033   9.643   3.166
54384W        W26000   0.250  41.780  12.562
54385W        W26001  33.144  29.254  11.530
54386W        W26002   9.903   0.195   1.874
54387W        W26003  37.084  14.443  14.410
54388W        W26004  28.133  35.681  13.916
54389W        W26005  23.036  41.165   2.294
54390W        W26006  15.858  25.925  12.640
54391W        W26007  17.062  18.081  14.866
54392W        W26008   1.920   0.523   1.439
54393W        W26009  36.650  11.365   5.547
54394W        W26010  24.649  15.858  12.346
54395W        W26011  31.449   9.544  13.437
54396W        W26012  25.133  31.711  11.984
54397W        W26013   9.162  32.905   4.160
54398W        W26014  22.112  22.914   2.802
54399W        W26015   8.134  12.662  11.598
54400W        W26016  13.180  28.987  12.048
54401W        W26017  32.449   6.349  11.259
54402W        W26018  40.870  26.180   1.275
54403W        W26019  23.063  39.621   4.483
54404W        W26020  19.635  42.824   1.201
54405W        W26021  37.306  10.128  14.423
54406W        W26022  44.929  33.101  13.487
54407W        W26023  19.833  22.561  13.066
54408W        W26024  17.759  31.928  12.004
54409W        W26025  28.116   9.379  11.923
54410W        W26026  25.396  31.777   4.808
54411W        W26027   1.487  38.266   1.374
54412W        W26028   5.931  38.562   4.560
54413W        W26029  12.306   8.086   3.265
54414W        W26030  22.113  34.463  13.591
54415W        W26031  25.640  15.540   3.725
54416W        W26032  23.169  13.782   1.801
54417W        W26033  10.690  30.472   4.812
54418W        W26034  35.803  30.859  14.706
54419W        W26035   1.910  13.905  10.577
54420W        W26036   7.431  30.253   0.072
54421W        W26037   3.922  16.532  12.406
54422W        W26038  36.059  29.603  13.821
54423W        W26039  20.344   4.258   2.806
54424W        W26040  41.653  36.005   2.053
54425W        W26041  39.354  35.456  10.637
54426W        W26042  17.819   1.334   3.279
54427W        W26043  36.364  15.033  13.953
54428W        W26044   2.983   5.398  13.408
54429W        W26045  12.582   5.740   0.905
54430W        W26046  28.506   6.370  13.506
54431W        W26047  13.314   2.512   5.130
54432W        W26048  38.571  14.761   3.517
54433W        W26049  32.685  44.016   1.398
54434W        W26050  44.927  23.946  11.885
54435W        W26051  22.660  22.932  12.474
54436W        W26052  30.730   0.556  14.413
54437W        W26053  31.593   8.405   2.919
54438W        W26054  43.323  40.328   0.754
54439W        W26055   9.376  33.046   2.741
54440W        W26056   3.271  19.360  12.633
54441W        W26057  36.197  16.804  12.987
54442W        W26058  27.595  37.771   2.741
54443W        W26059  12.614  16.240   2.214
54444W        W26060  12.848  38.462   3.217
54445W        W26061   6.917   3.698  14.707
54446W        W26062  19.170   5.265   1.984
54447W        W26063  14.574  43.048   4.104
54448W        W26064  37.149  37.060   4.344
54449W        W26065  14.196   4.630   2.877
54450W        W26066  18.759  11.247   4.477
54451W        W26067   3.796  19.613  12.113
54452W        W26068  34.650  42.233   1.306
54453W        W26069  20.088   3.485  13.333
54454W        W26070  26.558  15.893  10.551
54455W        W26071  31.177  23.094  12.928
54456W        W26072   6.920  40.466  12.393
54457W        W26073  39.262  19.562   1.768
54458W        W26074  23.049  27.940  14.820
54459W        W26075  28.713  33.009   4.461
54460W        W26076  30.363  40.425   4.222
54461W        W26077  37.941  19.372  14.354
54462W        W26078  33.001  29.930  12.021
54463W        W26079  10.048  28.098   2.165
54464W        W26080  34.622   3.858  12.090
54465W        W26081  17.157   5.679  11.828
54466W        W26082  16.083  29.232   2.729
54467W        W26083   8.101  28.675   4.266
54468W        W26084  44.919  11.210  11.933
54469W        W26085   0.581  38.540  12.949
54470W        W26086  38.014   5.200   1.211
54471W        W26087   8.375  19.152  14.827
54472W        W26088  31.270  35.116   1.617
54473W        W26089  13.784  14.266   2.353
54474W        W26090  18.596  41.397  10.654
54475W        W26091  19.282  15.796  14.336
54476W        W26092  39.903  41.927  14.882
54477W        W26093  28.623   1.725   4.930
54478W        W26094  20.359  44.001   0.304
54479W        W26095  35.285  13.416   2.295
54480W        W26096   3.041  36.385   1.760
54481W        W26097  17.797  30.665  11.600
54482W        W26098  37.028   9.371  10.620
54483W        W26099  43.850   4.936   1.738
54484W        W26100  29.870  13.422   4.525
54485W        W26101   9.632  25.305  13.762
54486W        W26102  44.819  35.870  11.974
54487W        W26103  35.810  29.014  14.183
54488W        W26104  12.715  22.528   4.385
54489W        W26105  20.035  14.241   0.699
54490W        W26106   8.923  29.760  11.270
54491W        W26107  34.011  11.861  11.229
54492W        W26108  26.315   3.097  12.443
54493W        W26109  20.179   7.596  14.949
54494W        W26110   0.941  31.473   3.190
54495W        W26111  21.052  43.751  11.524
54496W        W26112  19.761   0.918  13.902
54497W        W26113  22.107  31.177   2.361
54498W        W26114   2.187   2.702   0.854
54499W        W26115   1.310  20.713   1.892
54500W        W26116  32.597  13.654   2.442
54501W        W26117  17.522  41.765   3.928
54502W        W26118  16.770  34.606  11.615
54503W        W26119  33.068  41.035  14.959
54504W        W26120  33.991   1.827  10.594
54505W        W26121  31.335  20.571  13.505
54506W        W26122  14.397  20.455  11.105
54507W        W26123  21.308  25.727  12.168
54508W        W26124   0.315  14.361  12.223
54509W        W26125  16.132  33.449  13.995
54510W        W26126  34.479   1.646   5.005
54511W        W26127  11.026   4.024   2.787
54512W        W26128  14.779   7.660   1.883
54513W        W26129  37.856  11.248  12.889
54514W        W26130  41.582  27.444   0.709
54515W        W26131   4.055  36.044  14.280
54516W        W26132  19.104  42.006   2.218
54517W        W26133   4.787   1.735   0.891
54518W        W26134   4.944  23.572  12.163
54519W        W26135  34.639  19.408   4.601
54520W        W26136  28.510  21.185  12.934
54521W        W26137  40.946  11.938   3.732
54522W        W26138  28.873  34.487   3.764
54523W        W26139  28.211  35.506  12.127
54524W        W26140  32.187  35.454  14.533
54525W        W26141  41.942   3.186  14.730
54526W        W26142  18.028  15.102   2.354
54527W        W26143   3.371  17.831   0.928
54528W        W26144  14.604  16.505   0.652
54529W        W26145  26.135   2.007   0.277
54530W        W26146  22.158   3.547  11.547
54531W        W26147   4.602   8.931  12.202
54532W        W26148   1.497  10.143  12.162
54533W        W26149  12.498  25.095  14.186
54534W        W26150  27.291  28.937   3.346
54535W        W26151  28.860  18.522   1.737
54536W        W26152  13.158  11.333  14.709
54537W        W26153  10.886   4.171  13.122
54538W        W26154  13.196  39.599   2.761
54539W        W26155  11.045  36.622   2.766
54540W        W26156  20.021  30.313  14.778
54541W        W26157  12.607  35.345  14.083
54542W        W26158   5.056  33.939  11.184
54543W        W26159  32.370   7.886  11.398
54544W        W26160  20.746   9.316   0.763
54545W        W26161  22.029  28.703  11.138
54546W        W26162   3.493  12.238  14.046
54547W        W26163  29.547  40.012  13.433
54548W        W26164  14.794  37.072   4.143
54549W        W26165   1.205  12.325  12.127
54550W        W26166  41.673   6.062   4.354
54551W        W26167  15.029  21.822  12.047
54552W        W26168  31.976  13.025   0.384
54553W        W26169  32.517   3.816   3.266
54554W        W26170  44.800  34.369   1.358
54555W        W26171  20.549  18.691  10.482
54556W        W26172  18.067  25.954  11.965
54557W        W26173  15.599  24.591   1.219
54558W        W26174   8.813  22.637   0.433
54559W        W26175  13.735  14.868   1.882
54560W        W26176   6.667  14.489   0.031
54561W        W26177  41.962  25.703  13.824
54562W        W26178  25.490  35.971   4.620
54563W        W26179  37.924  21.865  14.520
54564W        W26180  38.763  12.343   4.822
54565W        W26181  11.418   3.955  13.849
54566W        W26182  15.202   8.821  14.505
54567W        W26183  28.087   8.452   5.009
54568W        W26184  33.749   7.812   4.273
54569W        W26185  25.706  32.968   3.240
54570W        W26186  10.426  26.070  14.385
54571W        W26187  39.065  21.474   1.463
54572W        W26188   0.159  15.923   2.661
54573W        W26189  23.077  13.094   0.903
54574W        W26190  17.667  16.030  13.928
54575W        W26191   5.726  13.611   2.693
54576W        W26192  14.231  31.813  14.354
54577W        W26193   9.724   5.459  10.409
54578W        W26194  23.696   3.208  14.600
54579W        W26195   6.214  24.647   1.662
54580W        W26196  40.076  10.839  13.039
54581W        W26197  11.590  42.501   1.771
54582W        W26198  11.695  12.651   3.131
54583W        W26199  13.115   9.938  14.063
54584W        W26200   1.163  24.644  11.124
54585W        W26201  15.748  10.794   4.529
54586W        W26202  38.972   7.300  11.400
54587W        W26203  19.581   5.031   3.944
54588W        W26204  27.103  27.695   4.358
54589W        W26205  30.546  21.000   3.360
54590W        W26206  28.590  27.959   3.274
54591W        W26207  42.283  34.603   2.872
54592W        W26208  43.559  24.790  10.742
54593W        W26209   3.444  37.092   2.228
54594W        W26210  29.236  39.461  11.258
54595W        W26211   3.505  35.005  11.114
54596W        W26212  36.902  15.744  14.982
54597W        W26213   2.832  18.048  12.365
54598W        W26214  25.146  42.588  13.593
54599W        W26215   9.955  34.273  12.143
54600W        W26216  22.454   6.827  13.523
54601W        W26217  11.582  13.063  14.537
54602W        W26218  34.450  12.001   0.035
54603W        W26219   0.199   7.947   0.499
54604W        W26220  33.736   2.911  11.937
54605W        W26221   6.862  28.066   3.022
54606W        W26222  14.504  39.875  12.474
54607W        W26223   6.912  36.028   1.335
54608W        W26224  15.803  19.677  10.599
54609W        W26225  30.379  35.979  10.530
54610W        W26226   3.184  39.309  12.903
54611W        W26227  40.005  11.655  12.572
54612W        W26228  16.752  31.825   5.317
54613W        W26229   3.699  25.003  11.439
54614W        W26230  23.763  26.059   1.967
54615W        W26231   6.091   6.592  13.035
54616W        W26232  38.027  38.109   0.368
54617W        W26233  10.623  35.290   3.231
54618W        W26234  44.865   3.750   3.183
54619W        W26235  40.909   2.011   4.233
54620W        W26236   9.575  42.634   0.079
54621W        W26237  24.923  29.162  12.182
54622W        W26238  11.619  23.816  13.522
54623W        W26239   1.345  10.217   3.448
54624W        W26240  38.218  39.039  11.708
54625W        W26241  32.839  35.617  10.561
54626W        W26242  22.443   9.579   0.895
54627W        W26243  25.124  18.704   1.757
54628W        W26244  34.850  25.724  11.996
54629W        W26245  24.794  31.069   4.001
54630W        W26246   8.134  11.761   3.689
54631W        W26247  18.703  15.805   0.482
54632W        W26248   6.946   2.423  14.769
54633W        W26249  35.077  34.509  12.593
54634W        W26250   6.838  36.186  14.413
54635W        W26251   1.134   1.897   0.549
54636W        W26252  16.596  30.611   2.428
54637W        W26253  26.147   1.319   3.869
54638W        W26254   5.031  23.209  14.003
54639W        W26255  24.188  30.413   2.826
54640W        W26256   1.400  36.526  11.722
54641W        W26257   8.913  33.475   0.837
54642W        W26258  16.980   7.392  13.535
54643W        W26259   6.694   4.323  11.151
54644W        W26260  30.850  37.579   5.057
54645W        W26261  39.408   9.441   4.096
54646W        W26262  43.081  17.592  12.620
54647W        W26263   2.403  30.097  10.938
54648W        W26264  44.763  43.809   3.383
54649W        W26265  28.756  41.566  12.009
54650W        W26266  12.166  24.145   3.589
54651W        W26267  20.678   2.022  12.478
54652W        W26268   6.929  44.378  12.537
54653W        W26269  40.462  38.037   2.199
54654W        W26270  24.912   7.848  11.049
54655W        W26271   8.817  44.747   2.756
54656W        W26272  21.923  37.111   3.723
54657W        W26273  44.527  23.251  10.740
54658W        W26274  38.300   7.713  13.162
54659W        W26275   9.719  44.220  10.800
54660W        W26276  38.716  16.650   3.667
54661W        W26277  42.542  38.585  12.083
54662W        W26278   0.254  12.856   4.089
54663W        W26279  28.512  28.550  10.643
54664W        W26280  36.280  31.676  14.947
54665W        W26281   1.869  44.094   9.870
54666W        W26282  34.970  39.159  12.423
54667W        W26283  44.809  14.033   3.626
54668W        W26284  23.997  26.715   3.177
54669W        W26285   5.945  24.213  12.163
54670W        W26286  35.465  22.604   4.653
54671W        W26287  42.457  20.251   3.741
54672W        W26288  38.666   1.887   0.322
54673W        W26289  41.921  34.834  13.448
54674W        W26290   1.338   7.331   2.607
54675W        W26291  24.582  27.294   1.411
54676W        W26292  38.264  26.596  13.780
54677W        W26293  25.036  41.163  13.547
54678W        W26294  12.090  41.720  14.236
54679W        W26295  27.758   1.855  10.744
54680W        W26296  43.466  34.580  10.243
54681W        W26297  26.204   1.310   1.094
54682W        W26298  28.037   6.917  12.557
54683W        W26299  14.857   5.267   1.509
54684W        W26300  40.845  32.824   4.635
54685W        W26301  28.948   3.779   0.256
54686W        W26302  42.021  42.529  13.526
54687W        W26303  36.047  11.945  14.405
54688W        W26304  22.172  31.760  11.785
54689W        W26305  38.948  37.135   0.211
54690W        W26306  30.408  41.301  14.457
54691W        W26307  21.627  44.527   2.458
54692W        W26308  12.182  31.302  14.249
54693W        W26309  34.335  26.017   1.740
54694W        W26310  19.487  25.437  11.132
54695W        W26311  35.971   6.432  11.899
54696W        W26312  11.625  10.721  14.334
54697W        W26313  38.014  44.476  13.026
54698W        W26314  34.964  24.683   5.069
54699W        W26315   9.815  12.376  14.819
54700W        W26316  33.613  36.828   4.618
54701W        W26317   2.717  37.403   3.168
54702W        W26318   5.667  23.260  13.373
54703W        W26319  43.930  18.008   1.194
54704W        W26320  19.578   8.695   0.810
54705W        W26321  10.082  39.144  12.996
54706W        W26322   6.769  39.081  12.394
54707W        W26323  33.605  37.328   1.060
54708W        W26324  18.808   0.845  11.187
54709W        W26325  39.982  17.698  14.704
54710W        W26326   6.889  14.591  14.410
54711W        W26327  39.738   4.814  12.952
54712W        W26328   6.233  36.291   4.687
54713W        W26329  20.129  20.064  13.887
54714W        W26330  18.644  44.198  12.427
54715W        W26331   3.791   7.168  11.634
54716W        W26332  36.455  19.141   2.956
54717W        W26333  27.348  15.869   0.112
54718W        W26334  19.146  38.937  12.966
54719W        W26335  38.797  15.987   2.373
54720W        W26336  35.484  24.243  14.541
54721W        W26337  23.481  24.953  11.593
54722W        W26338   8.593  40.117   1.355
54723W        W26339   2.703  44.387  13.073
54724W        W26340  31.423  43.132   2.590
54725W        W26341  43.082  27.157  14.840
54726W        W26342  23.157  24.071   1.847
54727W        W26343  17.235   6.639  11.987
54728W        W26344  17.061  41.314   2.727
54729W        W26345  24.567  20.131  11.188
54730W        W26346   5.308  21.201  12.486
54731W        W26347  37.399  27.226  14.032
54732W        W26348  39.988  26.260  12.800
54733W        W26349  20.006   7.117  10.978
54734W        W26350  29.448  35.800   2.766
54735W        W26351   7.946  42.784   3.229
54736W        W26352   5.418  33.105  11.672
54737W        W26353  38.897  13.689   5.397
54738W        W26354  27.692  36.004   2.383
54739W        W26355  35.981  15.534   3.394
54740W        W26356   7.292  28.817   4.620
54741W        W26357   3.333  26.637  13.148
54742W        W26358   7.074  37.920   4.948
54743W        W26359  26.812  11.203   2.148
54744W        W26360  31.521  39.890  14.803
54745W        W26361  17.697  13.699   4.193
54746W        W26362  17.087  24.262  11.023
54747W        W26363  25.507  29.000   3.272
54748W        W26364  22.823  33.892  12.847
54749W        W26365  24.487  32.828   3.632
54750W        W26366  17.239  22.990  14.550
54751W        W26367  42.334  41.904  13.585
54752W        W26368  10.098   2.770  14.906
54753W        W26369   6.786  13.883   3.437
54754W        W26370  22.956  19.522   4.440
54755W        W26371  38.960   9.182   3.264
54756W        W26372  39.879  44.222  13.242
54757W        W26373   1.409  39.539  10.677
54758W        W26374  33.705  29.451   4.146
54759W        W26375   5.626  26.735   0.487
54760W        W26376  27.172  31.193  14.038
54761W        W26377  26.185  31.819   3.283
54762W        W26378  21.821  13.606  14.856
54763W        W26379  26.550  23.400  14.478
54764W        W26380  31.628  19.141  10.619
54765W        W26381  21.176   3.727   4.421
54766W        W26382  42.922  44.847   4.553
54767W        W26383  28.680  27.588  10.629
54768W        W26384  41.803  12.818  11.653
54769W        W26385  22.066  25.459  13.438
54770W        W26386  29.009  31.224   2.880
54771W        W26387  33.881  44.273   0.885
54772W        W26388   9.869  36.944  13.107
54773W        W26389  15.852  23.827   0.128
54774W        W26390  35.940  36.074  10.963
54775W        W26391  25.999  34.021  12.535
54776W        W26392  13.557  23.260  12.889
54777W        W26393  19.886  39.126  14.416
54778W        W26394  12.765   7.446   0.012
54779W        W26395  33.934  38.909  13.829
54780W        W26396  31.071   3.339  12.470
54781W        W26397   7.224  10.218   0.683
54782W        W26398  27.047   1.288  13.789
54783W        W26399  18.266  29.222   3.824
54784W        W26400  42.486  28.922   1.178
54785W        W26401  18.669  34.201   3.960
54786W        W26402  23.156  34.904   0.996
54787W        W26403  20.725  39.217  11.981
54788W        W26404   0.932  33.564   3.632
54789W        W26405   2.769  22.822   2.364
54790W        W26406  25.560  35.005   1.240
54791W        W26407  31.787   3.440   4.276
54792W        W26408  28.498   0.233   4.993
54793W        W26409   2.562  12.154  13.629
54794W        W26410  20.046  27.288  12.015
54795W        W26411  16.673  13.141   0.073
54796W        W26412  31.068  16.799  11.164
54797W        W26413   7.159  12.687  13.816
54798W        W26414   6.795   3.650  12.116
54799W        W26415  15.379  27.985   2.345
54800W        W26416  41.036  29.351   4.203
54801W        W26417  39.481  13.305  11.933
54802W        W26418   0.717  20.160  10.716
54803W        W26419  21.033  15.120   3.179
54804W        W26420  25.576   4.883  11.772
54805W        W26421  36.298  44.841  13.470
54806W        W26422   9.422  23.171   3.182
54807W        W26423  35.899  26.939   3.114
54808W        W26424  42.891  18.355   3.271
54809W        W26425   1.034  32.155   4.677
54810W        W26426   7.846   1.822   0.760
54811W        W26427  42.343  34.880  10.886
54812W        W26428  34.224  42.989  13.052
54813W        W26429   0.722  14.802  14.041
54814W        W26430  22.724   8.910   3.665
54815W        W26431  34.680  42.515   4.054
54816W        W26432  16.863  31.117   1.178
54817W        W26433  26.371   1.378   2.154
54818W        W26434   4.419   2.818  14.909
54819W        W26435  41.962   4.267  11.026
54820W        W26436  35.378  22.273   1.040
54821W        W26437  16.612  26.149  13.367
54822W        W26438  28.166  15.860   4.221
54823W        W26439  44.651  19.061  14.257
54824W        W26440  16.644  26.158   4.335
54825W        W26441  29.428  39.123   2.855
54826W        W26442   9.162   9.425   1.461
54827W        W26443   8.499  37.151   0.368
54828W        W26444  10.847   2.418  13.347
54829W        W26445  20.055   5.231   1.901
54830W        W26446  27.683   3.764   1.554
54831W        W26447  22.883  15.858   3.406
54832W        W26448   8.530   1.913  11.181
54833W        W26449  22.522  39.963   1.394
54834W        W26450   9.855  29.419  13.983
54835W        W26451  14.984  19.335   5.455
54836W        W26452  34.234  22.322  11.742
54837W        W26453  20.835  11.893  11.958
54838W        W26454   9.613  24.051   2.824
54839W        W26455  31.044  24.247  10.697
54840W        W26456   1.804   7.897  11.078
54841W        W26457  40.910  26.691   1.433
54842W        W26458  25.094  31.452   1.924
54843W        W26459  34.545  10.907  11.906
54844W        W26460  24.994  23.290  14.876
54845W        W26461   3.843   6.605   3.578
54846W        W26462   5.788  33.681   3.297
54847W        W26463   0.380  14.590  13.730
54848W        W26464   3.367  22.846   2.774
54849W        W26465  12.841  40.430   1.739
54850W        W26466  43.905   6.734   2.240
54851W        W26467  37.881  27.647  14.842
54852W        W26468   6.169  32.114  12.801
54853W        W26469   7.633  19.715   4.554
54854W        W26470  31.703  11.709  11.498
54855W        W26471  38.120  11.841   1.440
54856W        W26472  32.499  33.420  12.018
54857W        W26473  24.660  11.576   4.242
54858W        W26474  31.932  39.292   4.578
54859W        W26475  18.771  12.847  14.260
54860W        W26476  27.197   8.287  13.148
54861W        W26477  40.714  36.750  14.931
54862W        W26478  44.478   2.407   3.477
54863W        W26479   8.740  11.113  10.739
54864W        W26480  18.082  40.091   3.665
54865W        W26481  35.962  24.056   0.897
54866W        W26482  41.604  24.268   4.258
54867W        W26483  29.519  28.657   4.192
54868W        W26484   6.352  44.929   4.168
54869W        W26485   3.781  13.306   4.601
54870W        W26486  25.313  31.582   1.463
54871W        W26487  29.688  38.865   1.874
54872W        W26488   6.644  23.428   2.804
54873W        W26489   0.310  14.820  10.320
54874W        W26490  14.072  31.889  12.051
54875W        W26491  43.432  41.299   4.483
54876W        W26492  10.461  32.440  11.668
54877W        W26493  15.571  11.157  14.391
54878W        W26494  29.165   4.833   2.671
54879W        W26495  20.579  27.099  13.971
54880W        W26496  17.148   3.342  13.909
54881W        W26497  21.989  12.134   4.530
54882W        W26498  22.416  36.417  12.840
54883W        W26499  44.447  43.826  14.914
54884W        W26500  17.321  31.502  13.249
54885W        W26501   3.438  18.541  11.971
54886W        W26502  33.627  23.010  11.466
54887W        W26503  11.237  40.221   3.912
54888W        W26504  10.926  33.966  11.139
54889W        W26505  44.679  16.481   3.753
54890W        W26506  40.054  32.382  12.984
54891W        W26507   9.456   3.837  14.981
54892W        W26508  30.225  31.090   2.340
54893W        W26509  23.054  16.546  10.746
54894W        W26510  14.399  42.545  10.828
54895W        W26511  38.037  29.160   2.748
54896W        W26512  16.147   8.335   2.627
54897W        W26513  21.077  24.912   1.391
54898W        W26514   3.714  12.183   0.319
54899W        W26515  35.982   6.307  12.391
54900W        W26516   8.627  37.612  12.049
54901W        W26517  21.194  27.985  13.414
54902W        W26518   4.900  29.881   0.420
54903W        W26519  39.357  40.379  12.430
54904W        W26520   1.324  35.311   0.260
54905W        W26521   8.661  20.256  11.420
54906W        W26522   5.675  28.015  13.736
54907W        W26523  16.044  35.621  14.259
54908W        W26524   2.380  24.762  10.258
54909W        W26525  36.385  39.011  12.417
54910W        W26526   1.749  14.541  12.553
54911W        W26527  25.457   4.851   2.276
54912W        W26528  15.015   6.242  12.322
54913W        W26529   7.779   4.422  13.138
54914W        W26530  43.581  38.816  13.261
54915W        W26531  43.208  39.822   4.092
54916W        W26532  33.031  25.185   1.458
54917W        W26533  38.555  32.213  14.841
54918W        W26534  42.058  23.108  11.799
54919W        W26535  40.525  25.227  12.938
54920W        W26536  34.669  37.518   4.065
54921W        W26537  23.625   3.327   2.898
54922W        W26538  17.430  21.848   1.956
54923W        W26539  25.126   1.522   4.678
54924W        W26540  23.524  16.663   4.069
54925W        W26541  22.220  17.314  12.997
54926W        W26542  29.700  19.625  10.688
54927W        W26543  19.934   2.722  13.937
54928W        W26544   2.977  21.246  11.658
54929W        W26545  33.962  24.073   4.506
54930W        W26546  11.718  43.231  13.462
54931W        W26547   0.788   2.528   2.708
54932W        W26548   8.905   9.123   1.794
54933W        W26549  19.141  17.327  13.482
54934W        W26550  44.226  35.244  11.696
54935W        W26551  21.732   0.424  13.720
54936W        W26552  16.702   7.801   3.626
54937W        W26553   0.024  24.239   5.577
54938W        W26554  15.462   9.091   3.271
54939W        W26555  35.096   9.913   0.785
54940W        W26556  40.311   8.222   2.205
54941W        W26557  28.683   1.585  14.353
54942W        W26558   0.079   5.706   4.127
54943W        W26559   8.406  16.663  12.800
54944W        W26560   5.884  11.038   2.667
54945W        W26561  14.135  20.158   3.794
54946W        W26562  24.894  17.538   3.333
54947W        W26563   3.879  13.443  12.691
54948W        W26564  28.086   9.133  12.914
54949W        W26565  38.757  38.553  11.590
54950W        W26566  29.924  24.985  10.893
54951W        W26567  23.225  29.472   0.728
54952W        W26568  11.121  15.358  10.845
54953W        W26569  19.721   5.626  13.025
54954W        W26570  30.009  28.744   4.062
54955W        W26571  43.849  42.338   0.237
54956W        W26572  29.016  18.615   2.216
54957W        W26573  13.332   9.705  10.636
54958W        W26574  37.573  37.634  12.193
54959W        W26575   7.981  13.513  11.099
54960W        W26576  42.454  20.673  10.584
54961W        W26577  32.538  20.605  13.165
54962W        W26578  22.209  13.837   3.639
54963W        W26579   8.103   4.797  13.940
54964W        W26580  35.395  10.304  14.784
54965W        W26581  17.988  40.596   3.751
54966W        W26582  38.493  14.291  11.124
54967W        W26583   8.590  40.713   3.630
54968W        W26584  44.412  39.730  12.498
54969W        W26585  26.926  17.383   0.392
54970W        W26586  41.300   9.373   3.470
54971W        W26587   4.229  15.086  12.949
54972W        W26588  25.380  26.154  13.564
54973W        W26589   9.174  30.400  11.457
54974W        W26590  39.443  43.860  12.773
54975W        W26591  30.927  15.979   1.527
54976W        W26592  11.276  24.032  10.519
54977W        W26593  37.252  22.461   3.627
54978W        W26594  11.547  38.408  11.613
54979W        W26595  36.384  27.036   3.637
54980W        W26596   9.612  22.950   4.629
54981W        W26597   3.191   1.542   2.699
54982W        W26598  18.045  43.823   0.449
54983W        W26599  24.694  36.951  14.375
54984W        W26600   4.428  41.586  12.448
54985W        W26601  18.561  39.879   1.866
54986W        W26602   2.044  28.352   4.222
54987W        W26603  13.663  19.564   3.237
54988W        W26604  19.198  19.718   3.242
54989W        W26605  30.202  32.610  14.453
54990W        W26606   7.942  29.595  14.998
54991W        W26607  22.914  16.556  11.655
54992W        W26608  24.385  33.191   1.802
54993W        W26609   6.832  24.464  12.655
54994W        W26610   6.136  38.782   0.955
54995W        W26611  43.299  26.050  11.079
54996W        W26612  18.240  36.827  12.034
54997W        W26613   1.392  18.817  13.426
54998W        W26614   9.804  13.116  13.813
54999W        W26615  21.751  34.050   2.375
55000W        W26616  36.871  32.705  11.207
55001W        W26617  10.093  35.038  13.438
55002W        W26618  17.520  43.705  12.481
55003W        W26619  42.613  39.193   2.529
55004W        W26620  26.652  12.813   4.585
55005W        W26621  29.816  22.914   0.717
55006W        W26622   9.272   0.823   4.658
55007W        W26623  34.848   7.470   3.756
55008W        W26624   8.321  23.800  13.069
55009W        W26625   8.372  36.754   0.744
55010W        W26626  38.335   3.144  11.171
55011W        W26627   2.566  30.017  14.019
55012W        W26628   6.979  25.611   3.785
55013W        W26629  31.713  32.877   1.444
55014W        W26630  26.678  30.036   2.691
55015W        W26631  25.561   5.684   1.609
55016W        W26632   3.312   0.523   3.662
55017W        W26633   2.234  40.900   2.230
55018W        W26634   8.343   3.310   2.102
55019W        W26635  10.168   5.459   3.070
55020W        W26636  22.592  37.637   1.819
55021W        W26637  36.226  28.741   4.184
55022W        W26638   9.102   3.399   2.773
55023W        W26639  22.295  43.500   2.823
55024W        W26640  35.946  43.297   1.613
55025W        W26641  11.721  27.186   3.448
55026W        W26642  40.049  32.776   2.737
55027W        W26643  37.909  32.439   0.062
55028W        W26644  22.916   3.924  14.774
55029W        W26645  20.939  11.505   0.315
55030W        W26646  24.905   3.889  10.781
55031W        W26647  31.438   1.016   5.108
55032W        W26648  37.389  14.376  14.854
55033W        W26649  23.196  22.159  11.614
55034W        W26650  37.128  14.044   3.271
55035W        W26651  31.504  16.340   3.996
55036W        W26652  43.929  38.254   9.767
55037W        W26653  38.041  27.333   2.857
55038W        W26654   4.891  32.131  11.677
55039W        W26655   8.974  28.264   2.129
55040W        W26656   7.160  34.466   1.456
55041W        W26657   8.426  40.833  14.346
55042W        W26658  39.392   3.768   3.688
55043W        W26659  40.775   4.354  10.965
55044W        W26660  22.884  10.303  12.539
55045W        W26661  12.672   7.073  10.459
55046W        W26662  37.336  42.461   2.830
55047W        W26663   9.737   9.594  11.370
55048W        W26664  26.951  16.068  10.268
55049W        W26665   7.898   9.247  11.903
55050W        W26666  44.318  31.459   3.836
55051W        W26667  39.936   4.138  11.588
55052W        W26668   1.334   7.279  11.628
55053W        W26669  26.736  19.175   3.279
55054W        W26670  19.534   7.328  10.745
55055W        W26671  21.951  34.884  12.552
55056W        W26672  42.517  34.487  12.351
55057W        W26673  23.303  16.672   2.784
55058W        W26674  27.450   7.829  11.076
55059W        W26675  39.850  43.098   2.638
55060W        W26676  40.907  21.238  14.973
55061W        W26677   9.897  13.779   0.932
55062W        W26678  29.072  13.858   0.595
55063W        W26679  27.119  43.045  10.969
55064W        W26680  23.696   4.437   3.674
55065W        W26681  20.193  44.399  12.388
55066W        W26682  41.886  19.798  11.232
55067W        W26683  28.077  29.940   2.328
55068W        W26684  43.439  30.873  14.205
55069W        W26685   3.082  20.509   3.150
55070W        W26686  18.625  42.177  12.327
55071W        W26687   9.611  11.634   3.697
55072W        W26688  29.587  15.496   9.993
55073W        W26689  12.068  22.131  14.595
55074W        W26690   9.863   1.623   1.733
55075W        W26691  33.522  31.419   3.082
55076W        W26692   3.354  20.711   1.217
55077W        W26693  18.272   0.062   5.160
55078W        W26694   7.968  29.353  11.117
55079W        W26695  12.040  29.948  13.421
55080W        W26696  33.034  39.638   1.754
55081W        W26697  34.998  26.665   3.268
55082W        W26698   0.461  38.336  12.479
55083W        W26699  41.472  44.672   2.815
55084W        W26700   8.475   9.935   4.589
55085W        W26701  14.091  41.986   2.856
55086W        W26702   0.408  20.547   2.204
55087W        W26703  26.842   3.473  13.560
55088W        W26704  30.606  25.562   5.040
55089W        W26705  10.615   2.407   4.826
55090W        W26706  39.349  24.583   1.833
55091W        W26707  44.199  17.560   0.873
55092W        W26708  21.001  21.073   2.318
55093W        W26709  12.124   4.904   1.234
55094W        W26710  24.226  14.339  11.506
55095W        W26711   1.337  37.642  13.900
55096W        W26712   4.740  41.285  13.440
55097W        W26713  25.571   9.394   1.437
55098W        W26714  33.988  35.147   4.824
55099W        W26715  15.014  24.714  11.224
55100W        W26716  23.637  30.992  13.931
55101W        W26717  32.588  28.207  14.991
55102W        W26718  27.224  27.075  12.390
55103W        W26719  25.190  26.968  14.394
55104W        W26720   9.850  30.306   0.977
55105W        W26721  30.521   9.323  13.792
55106W        W26722  40.462  38.450  11.950
55107W        W26723  31.275   8.699   2.666
55108W        W26724   2.395   3.229   0.815
55109W        W26725  16.356  38.431  12.517
55110W        W26726  22.817  20.517   3.294
55111W        W26727  36.169  40.390  11.110
55112W        W26728  31.325  18.274  12.072
55113W        W26729  17.065   8.851   4.633
55114W        W26730  22.857  13.217  10.287
55115W        W26731  23.759  24.721   2.297
55116W        W26732  14.595   9.856   4.577
55117W        W26733  27.841   6.254   3.396
55118W        W26734  16.320  16.543  11.224
55119W        W26735  29.020  22.525  13.867
55120W        W26736   3.206  38.373  13.947
55121W        W26737   5.532  23.696   3.313
55122W        W26738  18.568  20.643   2.521
55123W        W26739  20.654  15.505  11.578
55124W        W26740  41.143  26.023  11.317
55125W        W26741  11.425   1.793   0.412
55126W        W26742  31.929  26.100  12.024
55127W        W26743  35.549  13.572  10.628
55128W        W26744  39.820  12.216   1.946
55129W        W26745  43.036  28.016  13.019
55130W        W26746  15.487  26.681  12.517
55131W        W26747   5.933  13.799  13.860
55132W        W26748   9.408  20.329   1.884
55133W        W26749   3.180  29.674  11.088
55134W        W26750   7.301  20.276  12.014
55135W        W26751  42.505  17.033  13.637
55136W        W26752  12.370  10.372  12.040
55137W        W26753  30.089  13.955   0.227
55138W        W26754  41.763  10.583  11.668
55139W        W26755   3.164   2.513   2.784
55140W        W26756  31.463  25.732   1.942
55141W        W26757  28.173   2.290   1.919
55142W        W26758   9.838  27.988  11.050
55143W        W26759   1.697  21.088   4.556
55144W        W26760  11.796  34.830   3.705
55145W        W26761   3.758  22.260   1.161
55146W        W26762  15.745  25.043   0.916
55147W        W26763  29.917  17.299  12.416
55148W        W26764   4.512  30.357   3.233
55149W        W26765  38.902  21.202   3.043
55150W        W26766  33.363  12.809   3.299
55151W        W26767  19.074  34.105   3.565
55152W        W26768  11.886  15.743   4.163
55153W        W26769  24.427  38.691   0.934
55154W        W26770  17.608  38.444   2.242
55155W        W26771  35.475  28.111   3.753
55156W        W26772  20.816  42.230  12.915
55157W        W26773  31.094   0.892  11.501
55158W        W26774  16.702  35.917  10.907
55159W        W26775   0.896  19.168   0.158
55160W        W26776  14.756  28.519  14.986
55161W        W26777  32.081  32.147  11.582
55162W        W26778   6.654   2.164   4.028
55163W        W26779  25.481  42.318  13.322
55164W        W26780  14.053  10.118   1.189
55165W        W26781   7.169  22.107  12.328
55166W        W26782  21.882  36.138   1.478
55167W        W26783   6.889  16.770  12.057
55168W        W26784  41.463  23.506  13.742
55169W        W26785  38.023  35.528  11.526
55170W        W26786  29.257  44.352  11.569
55171W        W26787  34.425  41.502   1.822
55172W        W26788   3.686  35.405  12.578
55173W        W26789   3.889  19.998  14.252
55174W        W26790  33.480  29.651   4.566
55175W        W26791  21.166   9.453  12.405
55176W        W26792  25.726  21.266  11.938
55177W        W26793  23.743  40.223   3.220
55178W        W26794  19.610  44.391   0.178
55179W        W26795  44.486  11.820   5.017
55180W        W26796  28.981   4.272   3.214
55181W        W26797  25.898  11.167  13.837
55182W        W26798  29.455  16.796   3.719
55183W        W26799  16.702  37.925   1.341
55184W        W26800  42.248   1.432  12.140
55185W        W26801  19.272  27.750   3.635
55186W        W26802  35.950  23.927   5.162
55187W        W26803  32.052   8.459  10.709
55188W        W26804   5.083   8.809  12.156
55189W        W26805  44.511   6.785  10.637
55190W        W26806  39.489  43.289   0.475
55191W        W26807  12.097  35.500  13.282
55192W        W26808  14.076  40.306   3.339
55193W        W26809  44.707  22.741   3.403
55194W        W26810  34.134  41.953   2.679
55195W        W26811  26.728   4.235  11.104
55196W        W26812  12.183   1.655   1.423
55197W        W26813  11.621  30.109   0.422
55198W        W26814  13.281  18.823   4.712
55199W        W26815  37.552  22.500   2.417
55200W        W26816  39.616   1.885  14.452
55201W        W26817  39.522  25.009  12.920
55202W        W26818   4.980  10.953  12.065
55203W        W26819  13.017  28.090   3.214
55204W        W26820  26.504  32.606   2.900
55205W        W26821   1.560  41.015  14.010
55206W        W26822   8.808  35.859   3.415
55207W        W26823  32.140  38.101   1.768
55208W        W26824  26.921  16.141   0.180
55209W        W26825   7.275  11.254  12.940
55210W        W26826   0.822   6.451   4.674
55211W        W26827  21.484   5.065  13.552
55212W        W26828  30.538  14.383   2.873
55213W        W26829  37.538   9.951  11.442
55214W        W26830   0.419  40.148   1.634
55215W        W26831  32.697  34.430   2.413
55216W        W26832  39.080   4.600  12.545
55217W        W26833  26.528  28.638   3.799
55218W        W26834   1.697  36.042  12.468
55219W        W26835  34.392  17.098   0.966
55220W        W26836   1.684  44.952   5.268
55221W        W26837  27.514  26.229   3.633
55222W        W26838  10.729  34.816  11.226
55223W        W26839   4.840  20.978  12.684
55224W        W26840  20.297  28.129  10.342
55225W        W26841  21.745  10.646  11.172
55226W        W26842   8.948  26.281  11.646
55227W        W26843  42.011  13.339  12.653
55228W        W26844  15.321  32.822  14.954
55229W        W26845  11.263   1.023  12.746
55230W        W26846  33.208   5.993  12.393
55231W        W26847   0.061  11.689  14.857
55232W        W26848  42.996  10.391  10.648
55233W        W26849  24.476   2.607  11.165
55234W        W26850  44.315  29.972  10.598
55235W        W26851  36.282   8.867  11.515
55236W        W26852  11.802  41.179   1.860
55237W        W26853   4.304  10.702   3.551
55238W        W26854  22.812  22.196   4.610
55239W        W26855  21.165  41.889   0.304
55240W        W26856  22.677  24.161   4.717
55241W        W26857  35.533  35.971  12.856
55242W        W26858  26.572  25.651  11.764
55243W        W26859   1.437  39.456   0.809
55244W        W26860  17.290  17.028  14.811
55245W        W26861   0.322  23.778  13.950
55246W        W26862   2.475  24.080   3.762
55247W        W26863  41.550  16.188  13.479
55248W        W26864   1.187  26.152   3.134
55249W        W26865   6.824  37.988   3.092
55250W        W26866  28.824  10.490  14.353
55251W        W26867  25.434  42.708   0.337
55252W        W26868   8.707  11.377  11.605
55253W        W26869  35.513   1.543   1.368
55254W        W26870  21.962  18.685   0.793
55255W        W26871   8.895  31.451   1.172
55256W        W26872  12.946   2.781   0.434
55257W        W26873   9.975  11.168   4.511
55258W        W26874  27.615  12.847  10.332
55259W        W26875  30.640   7.940  12.091
55260W        W26876   5.263   3.278  14.309
55261W        W26877  41.194  32.709  12.666
55262W        W26878  16.793  35.382  13.043
55263W        W26879  37.027  17.619  14.001
55264W        W26880  36.167   8.291  11.486
55265W        W26881  23.585  35.544   0.422
55266W        W26882   2.489  16.685   0.784
55267W        W26883  16.653  34.393  11.169
55268W        W26884  27.588   1.352  13.597
55269W        W26885   9.633  34.380   4.400
55270W        W26886  28.005  39.703  10.776
55271W        W26887  38.248  28.576  14.947
55272W        W26888  21.477  30.043   4.392
55273W        W26889  28.703  37.508   2.840
55274W        W26890   9.263  10.820   3.230
55275W        W26891  38.353  38.135  12.211
55276W        W26892  42.007   1.495   1.457
55277W        W26893  11.852  26.160   4.623
55278W        W26894  20.629  25.773  14.407
55279W        W26895  40.741   4.780   1.091
55280W        W26896   3.323  43.751   5.148
55281W        W26897   9.076  27.489   1.798
55282W        W26898   0.881  36.223   5.174
55283W        W26899  32.460   3.728   3.804
55284W        W26900  13.709  20.602   3.123
55285W        W26901  10.675  17.880  12.911
55286W        W26902   2.014  18.971   1.924
55287W        W26903  28.537  20.336  11.092
55288W        W26904  29.466  34.400  14.270
55289W        W26905   1.842  13.067  14.260
55290W        W26906  22.958  29.951  10.970
55291W        W26907   3.734   4.756  11.610
55292W        W26908  21.285  28.959   1.323
55293W        W26909  43.187  41.164   2.160
55294W        W26910  12.875  40.905   4.564
55295W        W26911   0.802  15.075   2.222
55296W        W26912  14.864  14.601  14.667
55297W        W26913  17.235  43.976  13.208
55298W        W26914   4.055   8.919   2.720
55299W        W26915  44.516  23.079   5.062
55300W        W26916  12.303  18.352   4.596
55301W        W26917   5.175   7.733   2.928
55302W        W26918  39.669  42.045  11.628
55303W        W26919  44.408   4.741  10.804
55304W        W26920  23.974  34.805  12.306
55305W        W26921  42.443   4.898   1.147
55306W        W26922  41.537  22.273  12.200
55307W        W26923   9.303  23.513  11.785
55308W        W26924  30.646  41.329   3.758
55309W        W26925   1.383  12.274  14.111
55310W        W26926   2.232  21.539  11.155
55311W        W26927   0.261  43.501  14.354
55312W        W26928  18.196  37.560  11.563
55313W        W26929  37.611  26.713  14.664
55314W        W26930  11.381  26.176   2.575
55315W        W26931  33.319  28.788  12.530
55316W        W26932   8.792  38.808  11.501
55317W        W26933   0.540  24.440   0.191
55318W        W26934  40.459  19.736  11.160
55319W        W26935  29.855   5.465   4.138
55320W        W26936  31.382   7.557   3.717
55321W        W26937  43.427  19.983  13.704
55322W        W26938  33.463  32.728  12.056
55323W        W26939  25.791  36.069  10.792
55324W        W26940  39.289  13.285  10.884
55325W        W26941  35.587  39.346   0.348
55326W        W26942  10.178  10.430   3.881
55327W        W26943  26.995  27.371   3.966
55328W        W26944  44.654  38.653   4.903
55329W        W26945  17.249   1.157   1.074
55330W        W26946  28.021  29.167  11.152
55331W        W26947  42.741  35.728  14.506
55332W        W26948  10.852   9.208   2.640
55333W        W26949  32.430  36.533   1.150
55334W        W26950  42.786  32.285   3.639
55335W        W26951  28.664  38.402   4.180
55336W        W26952  17.219  12.805  12.550
55337W        W26953  23.080  25.008   1.880
55338W        W26954  39.240  40.817   2.626
55339W        W26955  30.630   8.660   2.351
55340W        W26956  22.724  22.404   3.306
55341W        W26957  31.252  29.430   2.302
55342W        W26958  13.250  44.057   0.137
55343W        W26959  20.985   9.228   3.497
55344W        W26960  34.276   0.830   2.260
55345W        W26961  38.259  41.253   4.097
55346W        W26962  29.631  27.904   1.825
55347W        W26963  18.723   1.611  13.690
55348W        W26964  19.339  22.885   1.416
55349W        W26965  31.014  35.982   3.673
55350W        W26966  20.711  37.403   1.704
55351W        W26967  12.383   9.905   4.666
55352W        W26968  26.138  25.125   0.988
55353W        W26969  34.059  31.734   2.397
55354W        W26970  32.070  13.538   0.342
55355W        W26971  29.969  27.091   4.972
55356W        W26972  22.451  29.253  12.944
55357W        W26973  21.803  11.632   2.714
55358W        W26974  44.329  33.280  10.554
55359W        W26975  17.098  40.941  12.502
55360W        W26976  29.227  33.950  11.684
55361W        W26977  27.235  35.357   0.385
55362W        W26978   0.175  15.063   0.969
55363W        W26979   9.746  24.612  12.936
55364W        W26980  27.762  10.707   3.907
55365W        W26981  17.405  44.374   2.002
55366W        W26982  20.669  23.164   3.026
55367W        W26983  43.343   7.264   2.722
55368W        W26984  19.866  26.440   5.159
55369W        W26985   0.938  38.352  11.595
55370W        W26986   5.794  21.150   3.225
55371W        W26987   8.822  19.221  13.437
55372W        W26988  36.298   1.138  11.044
55373W        W26989  32.875  13.124  11.124
55374W        W26990  41.650  26.210  14.279
55375W        W26991  40.600   5.136   3.799
55376W        W26992  23.055  37.288   1.018
55377W        W26993  35.209  13.083  11.600
55378W        W26994  30.936   8.482   1.420
55379W        W26995  37.674   3.331  12.564
55380W        W26996   3.985   5.504   2.850
55381W        W26997  23.820  36.637   4.671
55382W        W26998  11.298   1.986  11.453
55383W        W26999  13.291  37.604   1.282
55384W        W27000  37.892  37.856  14.905
55385W        W27001  35.892  23.244  11.866
55386W        W27002   9.746  15.257   2.894
55387W        W27003  18.421  33.387  12.815
55388W        W27004  39.699  21.175   2.636
55389W        W27005  14.033   0.385   0.810
55390W        W27006  15.339  43.404   1.962
55391W        W27007  41.577  42.352   0.010
55392W        W27008  27.294  43.847  10.484
55393W        W27009  19.051   9.880   0.715
55394W        W27010  34.575  21.075   4.797
55395W        W27011  29.858  27.521   4.703
55396W        W27012  11.680  29.657  12.894
55397W        W27013  28.964  11.863  10.765
55398W        W27014  30.159  19.038  13.135
55399W        W27015  38.374  42.408   0.351
55400W        W27016  15.556  42.324  12.839
55401W        W27017  28.865  41.476  13.442
55402W        W27018  27.630  22.686   4.622
55403W        W27019  29.730  31.485   4.050
55404W        W27020  24.556   5.624  11.024
55405W        W27021  44.175  20.513   4.426
55406W        W27022  42.977  16.318  14.566
55407W        W27023  18.736  10.344   0.364
55408W        W27024   6.782  22.768  11.523
55409W        W27025   7.965  27.250   1.841
55410W        W27026   5.666  25.727  13.362
55411W        W27027  16.757  37.132   0.702
55412W        W27028  19.498   4.573  10.174
55413W        W27029  39.799  42.531   0.548
55414W        W27030  27.211   4.543   2.153
55415W        W27031  38.250   9.313   0.443
55416W        W27032   1.955  20.534  13.853
55417W        W27033  12.441  42.965   2.476
55418W        W27034  13.615  22.226   2.001
55419W        W27035  27.161  37.334  14.422
55420W        W27036  38.331  39.088   0.309
55421W        W27037   8.711  21.551   1.179
55422W        W27038   2.934  36.257   0.505
55423W        W27039  37.818   4.044   4.825
55424W        W27040   4.660  27.780   4.065
55425W        W27041  28.038  29.095  12.113
55426W        W27042  31.479  17.061  12.579
55427W        W27043  13.569  31.448   1.134
55428W        W27044  24.964  35.407  14.348
55429W        W27045  39.428  38.414   3.668
55430W        W27046  39.803  35.539  14.281
55431W        W27047  18.835   8.676   0.390
55432W        W27048  11.099  21.704  13.929
55433W        W27049   1.261  23.547  12.645
55434W        W27050  15.693  33.089  10.105
55435W        W27051  24.721  11.862   4.675
55436W        W27052  25.378  35.110  12.773
55437W        W27053  30.506  32.463   1.331
55438W        W27054  10.191   0.368   2.656
55439W        W27055   3.993  10.854   0.399
55440W        W27056  36.657  15.296  14.888
55441W        W27057  29.842  30.088  11.861
55442W        W27058  38.741  16.027   4.108
55443W        W27059  24.613  43.998  11.085
55444W        W27060  42.128  41.487   4.140
55445W        W27061  38.362  44.408  12.435
55446W        W27062  32.589  20.294   0.739
55447W        W27063  12.631  10.663  14.245
55448W        W27064  40.782  28.060   3.199
55449W        W27065  25.778  42.296  10.480
55450W        W27066  34.913  29.999  12.512
55451W        W27067  28.153  23.525  11.092
55452W        W27068  33.923  36.898   2.666
55453W        W27069  24.205   6.415  12.481
55454W        W27070  12.239   1.479   2.516
55455W        W27071  31.063  20.567   0.827
55456W        W27072  29.820   2.877  10.715
55457W        W27073   7.356  26.250   1.262
55458W        W27074   0.815   7.646  13.825
55459W        W27075  31.485   7.743   0.906
55460W        W27076  28.667  39.520  14.282
55461W        W27077  18.358  41.377   4.409
55462W        W27078  25.864  11.088  12.902
55463W        W27079  14.949  41.973  13.644
55464W        W27080  31.492   4.588  14.674
55465W        W27081  38.633  39.131  13.383
55466W        W27082  32.043  14.403   2.721
55467W        W27083  25.510  27.619   3.657
55468W        W27084  42.008  40.067  10.728
55469W        W27085   1.491  18.767  11.558
55470W        W27086  41.710  40.505   2.246
55471W        W27087  12.771  33.449   1.250
55472W        W27088  33.313  16.135   1.153
55473W        W27089  29.463   3.691  10.681
55474W        W27090  12.711  26.432   4.349
55475W        W27091  27.015  34.871   4.105
55476W        W27092  10.427  42.460   3.130
55477W        W27093   7.152  21.538  12.526
55478W        W27094  39.508  17.514   3.375
55479W        W27095  44.693  26.704   3.835
55480W        W27096   3.025   7.668  11.459
55481W        W27097  11.723  23.253  10.662
55482W        W27098  43.036  41.879  10.579
55483W        W27099   4.748  33.598  14.420
55484W        W27100  39.959  20.189  12.185
55485W        W27101  37.014  29.960   3.754
55486W        W27102  37.190   0.529  11.056
55487W        W27103  21.933  21.721  14.832
55488W        W27104   3.448   5.443   4.826
55489W        W27105  25.766  35.572  14.013
55490W        W27106  14.805   2.713  12.937
55491W        W27107  42.556  34.668   0.556
55492W        W27108   1.980  24.555   2.772
55493W        W27109  38.355  14.123  14.871
55494W        W27110  23.602  19.314  11.590
55495W        W27111  23.587  28.535   0.902
55496W        W27112   3.879  12.435   3.319
55497W        W27113  38.095  25.156   0.492
55498W        W27114  22.074  11.490  12.386
55499W        W27115  39.599  25.611  14.869
55500W        W27116  37.967  36.507  14.567
55501W        W27117  33.779  11.228  13.915
55502W        W27118   2.022  21.521   3.903
55503W        W27119  31.470  40.797   3.708
55504W        W27120  31.888   0.704   4.958
55505W        W27121  21.982  36.412  13.109
55506W        W27122  13.866  24.054  10.836
55507W        W27123  39.872  11.297  12.908
55508W        W27124  44.386  42.988   3.428
55509W        W27125  19.101  21.431   2.648
55510W        W27126   7.285  29.927   3.214
55511W        W27127  44.861  16.002   2.233
55512W        W27128   1.284  20.999  11.234
55513W        W27129   1.154  20.540  11.078
55514W        W27130  27.425  42.224   4.046
55515W        W27131  39.395  26.134   3.642
55516W        W27132  24.279   4.892  12.545
55517W        W27133  44.634   6.273  10.826
55518W        W27134  21.275   7.261   1.431
55519W        W27135  39.792  18.668   4.168
55520W        W27136  39.962  26.756  12.665
55521W        W27137   6.157  22.616  12.108
55522W        W27138   5.369  17.046   0.709
55523W        W27139  37.785   1.938   4.138
55524W        W27140  37.537  11.706   4.299
55525W        W27141  18.285  44.964  14.750
55526W        W27142  21.776  38.855  13.423
55527W        W27143  33.446  13.788   9.968
55528W        W27144  37.426  44.308   2.339
55529W        W27145  41.938  23.886   0.670
55530W        W27146  39.082  41.275  12.332
55531W        W27147  15.245  36.936  10.698
55532W        W27148  32.537   6.451  14.004
55533W        W27149  34.164  32.495   1.741
55534W        W27150  15.409  40.547   2.762
55535W        W27151   3.389  37.849  11.101
55536W        W27152  24.760  40.043   4.529
55537W        W27153  26.166   0.801   4.679
55538W        W27154  20.644  33.915   4.622
55539W        W27155  19.849  30.367  11.096
55540W        W27156  25.696  18.287   2.691
55541W        W27157  15.529   8.781   3.709
55542W        W27158  40.187  44.879   0.399
55543W        W27159  35.832   0.521   4.494
55544W        W27160  18.771  20.217  12.680
55545W        W27161  41.333  17.998  11.163
55546W        W27162  43.411  25.131   0.893
55547W        W27163  23.517  24.035  11.416
55548W        W27164  37.813  39.898  14.020
55549W        W27165   9.876   8.724   2.230
55550W        W27166  29.365  20.292   1.275
55551W        W27167  33.690   6.344   0.257
55552W        W27168  22.479   8.143   3.203
55553W        W27169   7.168  19.633  14.830
55554W        W27170  38.334   8.341   3.152
55555W        W27171  34.608  35.013  10.610
55556W        W27172  40.784  28.221   1.339
55557W        W27173  40.087  37.780  13.538
55558W        W27174  28.081  34.525  14.528
55559W        W27175  28.995   1.400   0.687
55560W        W27176  12.254  25.799   0.676
55561W        W27177  28.130  33.879  13.168
55562W        W27178  41.311  19.700  13.372
55563W        W27179  31.593  36.920   0.087
55564W        W27180   9.086  38.930  12.871
55565W        W27181  20.976  44.095  10.049
55566W        W27182  30.086  42.889   9.774
55567W        W27183  37.123  39.939  11.391
55568W        W27184  34.310  40.369   0.481
55569W        W27185  25.035  16.071   2.397
55570W        W27186  37.353   6.489   0.882
55571W        W27187   5.293   3.444   3.295
55572W        W27188  35.511  17.478  10.722
55573W        W27189  17.221  22.238   4.419
55574W        W27190  35.538  13.054  10.592
55575W        W27191  33.547  39.389   4.583
55576W        W27192  36.446  18.525   0.220
55577W        W27193  39.323   9.437  14.052
55578W        W27194  29.907  36.088  14.981
55579W        W27195   6.629   2.938   0.484
55580W        W27196  40.508  42.867   5.009
55581W        W27197  23.313  38.524  12.550
55582W        W27198  23.580  22.053  13.959
55583W        W27199  18.256  15.692   0.712
55584W        W27200  22.902  35.982   0.479
55585W        W27201   8.154   5.653  14.824
55586W        W27202  25.017  24.566  13.015
55587W        W27203  19.980  27.895  11.275
55588W        W27204   0.373  20.549  14.536
55589W        W27205  19.695  33.938  13.117
55590W        W27206  18.089   7.076  11.957
55591W        W27207  17.102  14.251  12.218
55592W        W27208  23.314  28.895  13.352
55593W        W27209  44.400  14.114  10.592
55594W        W27210   1.544  44.496   2.920
55595W        W27211  44.174   9.233   3.125
55596W        W27212   5.012  10.658  13.892
55597W        W27213   7.958  29.170   2.184
55598W        W27214  19.420   4.756  12.135
55599W        W27215   9.205  30.918  12.163
55600W        W27216   2.971  14.074   3.356
55601W        W27217   5.664  41.550   3.949
55602W        W27218   9.332  20.300   4.161
55603W        W27219  27.997  20.782  12.430
55604W        W27220   3.836  26.216  12.975
55605W        W27221  22.686  42.572   3.294
55606W        W27222  44.783  42.762   0.481
55607W        W27223  34.468  36.498  12.409
55608W        W27224  41.342  29.617  11.524
55609W        W27225  22.047  13.649   0.313
55610W        W27226  42.439   0.905   2.728
55611W        W27227  36.414  33.445   1.446
55612W        W27228   5.338  22.752   1.835
55613W        W27229  18.237   5.215   0.678
55614W        W27230  38.218  14.656   4.400
55615W        W27231  16.739  33.679  14.308
55616W        W27232  40.354  13.214  11.492
55617W        W27233  38.128  28.462   0.441
55618W        W27234   4.983  40.385  13.578
55619W        W27235   1.975   7.706  10.633
55620W        W27236  25.261  25.030   2.868
55621W        W27237  21.573   0.922  10.602
55622W        W27238   1.451  35.459   3.628
55623W        W27239   1.343  41.036   3.231
55624W        W27240  17.095  28.175  12.993
55625W        W27241  33.050  17.993  12.812
55626W        W27242  34.602  10.683  14.007
55627W        W27243  14.264  26.008  12.914
55628W        W27244   4.709  31.468  13.092
55629W        W27245  10.750  23.454  14.963
55630W        W27246   6.263   0.843  10.538
55631W        W27247  21.287  38.480   4.096
55632W        W27248   6.659   6.015   4.140
55633W        W27249  10.367  30.399  12.576
55634W        W27250  33.948  17.247  13.947
55635W        W27251   4.784  10.845   3.229
55636W        W27252  42.747  38.596   2.189
55637W        W27253  38.148  29.448   0.772
55638W        W27254  42.599   4.595  11.535
55639W        W27255  20.251  41.433   4.976
55640W        W27256  20.251  16.326  14.783
55641W        W27257  35.779  44.446  12.923
55642W        W27258  20.994  32.530   0.815
55643W        W27259  22.062  22.104   4.498
55644W        W27260  44.220  44.368  10.716
55645W        W27261  30.309  33.645   0.353
55646W        W27262  17.287  38.145   4.502
55647W        W27263  17.775  22.949   1.225
55648W        W27264  32.788  20.578  12.660
55649W        W27265  20.416   5.450  13.467
55650W        W27266  34.989  27.733   0.383
55651W        W27267  20.072   9.175   3.428
55652W        W27268  10.736  14.137   2.558
55653W        W27269  13.717  31.358   0.159
55654W        W27270  26.538  33.419   2.294
55655W        W27271   4.821  25.150   4.564
55656W        W27272  44.548  16.235  12.839
55657W        W27273  14.776   4.409  13.144
55658W        W27274  22.776  22.492   1.427
55659W        W27275  28.591  27.367  12.418
55660W        W27276  33.147  38.118   4.595
55661W        W27277  37.570   6.733   3.716
55662W        W27278  39.593  11.398   4.972
55663W        W27279  26.602  24.513  11.207
55664W        W27280  33.361  26.201  14.018
55665W        W27281  14.138   0.064  11.006
55666W        W27282   1.255  35.092   0.709
55667W        W27283  42.412   2.924  14.734
55668W        W27284  23.065  32.604   4.121
55669W        W27285  21.723   1.364   2.893
55670W        W27286  40.990   6.262   2.763
55671W        W27287  44.112  34.444  13.906
55672W        W27288  11.775   3.393   3.972
55673W        W27289   0.875  35.467  12.631
55674W        W27290  37.836  30.333  11.580
55675W        W27291   0.346   8.901   0.902
55676W        W27292  36.157  33.316   2.495
55677W        W27293  36.076  17.317   0.721
55678W        W27294  31.218  23.400   4.245
55679W        W27295  43.277  28.534  13.783
55680W        W27296   2.528  11.657  10.765
55681W        W27297  22.311  35.669  12.005
55682W        W27298   8.187  14.519   3.697
55683W        W27299  42.322  11.476   4.627
55684W        W27300  31.421   7.216   0.799
55685W        W27301  35.490   9.845  12.989
55686W        W27302  37.124  39.903   9.926
55687W        W27303  12.792  37.846  13.895
55688W        W27304   6.373  42.734   5.056
55689W        W27305  42.819  16.317  13.113
55690W        W27306  38.616   4.316   3.945
55691W        W27307   4.629  17.262   0.242
55692W        W27308  25.212  36.873   4.342
55693W        W27309  26.127  33.593  14.002
55694W        W27310  31.117   2.942   5.056
55695W        W27311   3.256  35.587  13.296
55696W        W27312  40.556  32.416  12.113
55697W        W27313  31.836   1.264  14.324
55698W        W27314  32.656   8.079  12.465
55699W        W27315   1.856   1.061   2.828
55700W        W27316   4.282  20.718   0.523
55701W        W27317  31.562  43.004  13.927
55702W        W27318  25.270  22.735   2.200
55703W        W27319   5.792  22.287  14.360
55704W        W27320  35.361  43.731   1.895
55705W        W27321  34.326  41.327   4.390
55706W        W27322  42.570  28.699   4.115
55707W        W27323  16.739  25.918   0.893
55708W        W27324  18.509  37.001  13.802
55709W        W27325  35.110   3.750  10.989
55710W        W27326  32.028  41.384   2.371
55711W        W27327  13.727   2.473  14.474
55712W        W27328  20.620   7.178   0.282
55713W        W27329  16.644   7.731  13.312
55714W        W27330  36.571  33.802   0.765
55715W        W27331  34.053  43.285   0.757
55716W        W27332   2.444  25.274  10.200
55717W        W27333  23.151   3.862  14.324
55718W        W27334  39.911  23.414  11.663
55719W        W27335  33.372  35.654  11.374
55720W        W27336  37.081  44.009  11.545
55721W        W27337  11.237  18.239   0.291
55722W        W27338  26.681  22.243   3.161
55723W        W27339   1.460   0.884  11.545
55724W        W27340   8.855  13.679  13.106
55725W        W27341  35.437  18.341  11.849
55726W        W27342  40.479  26.562  14.809
55727W        W27343  25.614  26.706   4.149
55728W        W27344   8.750  26.321   3.708
55729W        W27345  27.737  15.261  14.814
55730W        W27346   3.866  31.752  10.737
55731W        W27347  30.919  32.818  11.077
55732W        W27348  40.519   8.223  14.433
55733W        W27349  34.032  35.074   0.778
55734W        W27350  12.170  30.132  13.904
55735W        W27351   9.930  32.381   2.993
55736W        W27352  21.980  17.343   0.863
55737W        W27353  19.610   3.423  14.485
55738W        W27354  37.108  13.359  12.538
55739W        W27355   1.531  34.994  13.047
55740W        W27356  28.033   6.738  10.459
55741W        W27357  23.727  44.076   3.394
55742W        W27358   0.770  10.311   4.171
55743W        W27359   2.451  39.264   1.341
55744W        W27360   6.172  27.652  12.533
55745W        W27361  16.470   2.217  12.270
55746W        W27362  39.182  19.667  12.619
55747W        W27363  24.176  21.642   4.135
55748W        W27364  38.919  21.989   1.306
55749W        W27365  16.156  39.916   3.160
55750W        W27366  25.007  30.762   4.999
55751W        W27367  38.303  24.117   4.886
55752W        W27368  32.578   0.448  11.212
55753W        W27369  32.651  19.738   1.777
55754W        W27370  33.896  44.853   5.257
55755W        W27371  19.696  43.815  11.349
55756W        W27372  26.100  31.994   2.820
55757W        W27373  25.212  25.918  14.449
55758W        W27374  19.966  23.046   4.245
55759W        W27375  16.589  15.699   3.980
55760W        W27376  19.030  39.184   4.684
55761W        W27377  15.067  25.614  12.900
55762W        W27378  41.037  37.675   0.899
55763W        W27379   2.181  13.359   0.429
55764W        W27380  44.255  13.251  13.827
55765W        W27381   7.761  11.890   3.360
55766W        W27382   6.233   9.622  14.028
55767W        W27383  16.384  36.519   4.270
55768W        W27384   7.340  24.003  12.000
55769W        W27385  40.060  18.593   2.271
55770W        W27386  21.798  36.894   1.270
55771W        W27387  24.352   1.689   4.113
55772W        W27388  12.264  43.326   1.188
55773W        W27389  12.167  14.986  13.117
55774W        W27390  18.621  39.961   4.757
55775W        W27391   4.801  29.489  13.138
55776W        W27392  11.396  40.469  12.174
55777W        W27393  41.578   5.632   0.511
55778W        W27394   5.416   3.724  14.839
55779W        W27395  31.446  11.355   2.748
55780W        W27396  23.946  31.206  11.838
55781W        W27397  24.635  17.996   4.683
55782W        W27398  24.583  11.987   0.425
55783W        W27399  23.089  24.467  14.007
55784W        W27400   6.475  26.356  14.505
55785W        W27401   8.224  41.814   2.624
55786W        W27402  29.156  40.770   2.124
55787W        W27403   2.960  22.857  10.194
55788W        W27404  26.423  29.570   2.390
55789W        W27405  14.749   2.872  13.880
55790W        W27406  18.654  13.220  13.581
55791W        W27407   0.898  25.313   0.781
55792W        W27408  39.556  35.497  11.965
55793W        W27409  11.099  43.805   0.998
55794W        W27410   6.799  16.072  10.736
55795W        W27411  25.517  18.095   3.714
55796W        W27412   2.478  32.574  11.468
55797W        W27413  33.488  29.973  11.117
55798W        W27414  31.621  25.074  12.892
55799W        W27415  41.242  17.759   0.199
55800W        W27416  44.747   0.314   0.639
55801W        W27417   8.334  36.297   4.348
55802W        W27418   9.747  10.171   3.781
55803W        W27419   5.760  28.266  10.507
55804W        W27420  38.796  15.804   0.752
55805W        W27421   5.938  18.842   1.386
55806W        W27422  29.257  43.564  11.129
55807W        W27423  12.061  33.028  14.950
55808W        W27424  10.939   8.813   4.698
55809W        W27425  40.866  11.050   4.887
55810W        W27426  37.390  12.717  13.852
55811W        W27427   6.931  15.111  13.172
55812W        W27428  28.886   1.414   2.273
55813W        W27429  39.931  14.711   2.741
55814W        W27430  10.124   9.758  13.495
55815W        W27431  41.074  12.673   1.677
55816W        W27432  10.281  28.943  11.622
55817W        W27433  40.563  26.548   2.736
55818W        W27434  33.522  28.546  10.332
55819W        W27435   9.760  42.397  13.642
55820W        W27436  35.486  31.068  11.104
55821W        W27437  19.757  26.424  12.153
55822W        W27438   2.852  43.159  11.603
55823W        W27439  26.599  11.768  14.944
55824W        W27440  21.120   7.797   3.280
55825W        W27441  13.158  43.294  12.476
55826W        W27442   2.492  38.272  11.213
55827W        W27443  19.333  41.013  11.193
55828W        W27444  22.454  20.035   3.275
55829W        W27445  20.619  42.490   1.263
55830W        W27446  27.803  10.725  14.193
55831W        W27447  30.572  28.081  10.437
55832W        W27448  33.185  12.489   0.413
55833W        W27449  43.695   6.345   3.161
55834W        W27450  15.172  43.967   4.882
55835W        W27451  30.434  32.476  12.844
55836W        W27452  19.320  41.621   4.625
55837W        W27453  44.266  37.813   2.796
55838W        W27454  20.513   0.070   0.029
55839W        W27455  10.275   4.340   0.034
55840W        W27456   4.002  18.663  14.172
55841W        W27457  21.884  23.564  10.445
55842W        W27458  20.795  15.367   1.231
55843W        W27459  19.234  24.878  12.442
55844W        W27460  40.448   6.848  10.725
55845W        W27461  29.100  29.673   2.735
55846W        W27462  34.839  11.020  12.476
55847W        W27463  27.461  15.088  13.323
55848W        W27464   3.768  13.875   4.593
55849W        W27465   0.330  20.519   0.481
55850W        W27466  35.154  37.406  13.902
55851W        W27467  10.857  32.014  12.286
55852W        W27468  41.322  22.105  12.637
55853W        W27469  24.259   3.535  14.269
55854W        W27470   2.695  10.770  11.925
55855W        W27471  37.369  40.837  13.121
55856W        W27472  21.157  10.810  13.510
55857W        W27473  22.970   5.614  13.889
55858W        W27474  17.915  20.603   3.258
55859W        W27475   8.984  25.261  11.511
55860W        W27476  36.946   6.885  13.857
55861W        W27477   3.208   0.385   0.844
55862W        W27478   4.191   0.410  11.887
55863W        W27479  30.572  25.336   4.578
55864W        W27480  32.678  12.101  11.103
55865W        W27481  20.703  14.197  10.502
55866W        W27482  42.031  16.317  13.344
55867W        W27483  41.588  31.628   1.439
55868W        W27484  15.720  11.529   5.006
55869W        W27485   9.416  12.286  10.454
55870W        W27486  43.843  43.706   3.227
55871W        W27487  27.946  11.585   4.506
55872W        W27488  39.009   1.998   4.769
55873W        W27489  18.605   8.832  10.278
55874W        W27490  12.344  16.866  14.805
55875W        W27491   7.841  27.090   2.827
55876W        W27492   2.231  44.409  11.510
55877W        W27493   7.318  26.628   4.638
55878W        W27494   6.470  28.472   2.901
55879W        W27495  31.768   8.470   3.904
55880W        W27496  29.530  13.888  11.632
55881W        W27497  32.437  37.004   3.112
55882W        W27498  22.440  26.662   3.145
55883W        W27499  12.314   8.671   0.525
55884W        W27500   5.201  27.218   1.834
55885W        W27501  41.017  23.541   3.636
55886W        W27502  40.397   7.043  12.050
55887W        W27503   4.739   2.941  14.477
55888W        W27504   6.813  33.968  12.889
55889W        W27505  38.003  43.961  13.072
55890W        W27506  13.759   8.706   1.621
55891W        W27507  26.316  42.820  14.461
55892W        W27508  32.983   4.625   2.820
55893W        W27509  16.707  15.734  10.139
55894W        W27510  35.529  35.818   4.366
55895W        W27511  19.328  42.829   2.818
55896W        W27512  22.161   9.656   1.460
55897W        W27513  43.478  43.264   0.753
55898W        W27514  34.424  40.600   1.837
55899W        W27515  24.595  13.012  11.957
55900W        W27516  34.463   4.599  14.724
55901W        W27517   0.303  19.648   2.312
55902W        W27518  19.369   4.988   3.485
55903W        W27519  27.476   9.269   0.858
55904W        W27520   0.866  42.899   1.830
55905W        W27521  27.362  31.844   5.101
55906W        W27522  28.954  34.051   4.571
55907W        W27523   3.981   2.545  12.624
55908W        W27524   5.742   9.047  11.040
55909W        W27525   7.747  11.127   0.300
55910W        W27526  33.546  34.351  12.642
55911W        W27527   7.880   8.208   3.766
55912W        W27528  22.651  43.751   1.196
55913W        W27529  28.500  13.767   5.450
55914W        W27530  41.711  38.093   4.623
55915W        W27531  38.190  19.659  11.202
55916W        W27532  37.491  34.350  12.431
55917W        W27533   4.018  38.313  12.505
55918W        W27534   9.900  33.850   4.191
55919W        W27535  42.403  18.595   0.418
55920W        W27536  41.875  37.959   0.505
55921W        W27537  25.779  20.058  14.867
55922W        W27538   8.705  40.640  10.695
55923W        W27539   3.924  42.441  13.821
55924W        W27540  20.534   6.877  14.559
55925W        W27541  20.116  36.575  13.120
55926W        W27542  21.559  20.570   0.377
55927W        W27543   9.441  15.741   3.479
55928W        W27544  37.508  21.861   0.759
55929W        W27545  37.941  11.780   3.981
55930W        W27546  30.390  31.989  10.022
55931W        W27547  44.549  36.918   1.866
55932W        W27548  23.422  20.064   1.482
55933W        W27549   9.176   7.408  10.764
55934W        W27550  32.489   6.101  14.993
55935W        W27551  24.041  33.061   3.755
55936W        W27552  31.644  16.446   1.252
55937W        W27553   4.273  18.248  10.680
55938W        W27554  24.406  44.305   0.839
55939W        W27555  18.909  41.704  10.942
55940W        W27556  17.794  44.145   5.391
55941W        W27557  24.751  35.430   1.151
55942W        W27558  11.147  40.919  12.065
55943W        W27559  19.650  11.387   0.352
55944W        W27560  10.916  43.731  13.047
55945W        W27561  20.604  24.482   4.351
55946W        W27562   3.505  38.320   0.325
55947W        W27563  21.773   6.172   0.471
55948W        W27564  30.634  25.807  11.410
55949W        W27565  18.704   7.895  11.171
55950W        W27566  11.157  33.866  13.345
55951W        W27567  26.118   1.855  14.341
55952W        W27568  44.229  40.343  11.116
55953W        W27569  35.144  25.442  14.660
55954W        W27570  29.135  27.059  14.349
55955W        W27571  41.486  23.555  12.815
55956W        W27572   8.891  42.456  13.601
55957W        W27573  28.204   0.825  13.870
55958W        W27574   5.198  23.534   2.910
55959W        W27575  24.959  32.303  13.884
55960W        W27576  22.944  19.051   2.130
55961W        W27577   4.321   9.417  13.085
55962W        W27578  15.756   4.549   9.772
55963W        W27579  44.477  44.968  10.650
55964W        W27580  37.565  38.377   0.268
55965W        W27581  35.939  36.510   4.308
55966W        W27582  25.614   2.196  13.016
55967W        W27583  29.109  18.713  12.931
55968W        W27584  24.725  41.268  13.956
55969W        W27585  19.822  19.636  13.558
55970W        W27586  34.514  31.235  10.800
55971W        W27587  16.383  17.161  10.660
55972W        W27588  19.613  44.204   5.181
55973W        W27589  10.614   4.545   3.804
55974W        W27590  36.147  37.602   4.166
55975W        W27591   7.851  16.546  11.091
55976W        W27592  30.553  20.530   3.095
55977W        W27593  27.756  13.735  12.871
55978W        W27594  30.164   6.476  11.011
55979W        W27595  13.887   8.805  12.078
55980W        W27596   4.386   9.840   1.971
55981W        W27597   4.921  26.724  11.975
55982W        W27598  13.109   3.703  14.670
55983W        W27599  33.087  39.530  11.040
55984W        W27600  39.538   1.966  11.361
55985W        W27601  11.847   2.556   0.343
55986W        W27602  10.586  22.482  10.738
55987W        W27603  41.481  30.708   0.443
55988W        W27604  34.734  19.461  12.151
55989W        W27605   1.272   9.627  10.854
55990W        W27606   8.219  29.465   3.142
55991W        W27607  21.964  23.222   3.675
55992W        W27608  15.103  32.550  13.340
55993W        W27609  14.098  19.143   1.253
55994W        W27610  13.120  44.537   0.350
55995W        W27611  38.874  20.036   0.257
55996W        W27612  14.326  14.602   1.402
55997W        W27613  19.264  20.994   1.904
55998W        W27614  42.582  20.523  14.918
55999W        W27615  39.130   2.897   1.094
56000W        W27616  34.403  37.019   2.875
56001W        W27617  10.801  18.007   3.152
56002W        W27618  17.779  10.145   2.654
56003W        W27619  14.016  30.578  13.917
56004W        W27620  39.975   9.503  11.270
56005W        W27621  35.200   5.131   1.861
56006W        W27622  20.048  17.325   1.695
56007W        W27623   4.746  34.412  12.052
56008W        W27624  26.480  16.294   0.409
56009W        W27625   7.678   7.160   3.690
56010W        W27626  14.604  31.063   0.561
56011W        W27627  33.683  28.598  11.931
56012W        W27628  14.725  33.461  12.361
56013W        W27629   6.586  27.068   3.497
56014W        W27630   5.708  32.062   4.187
56015W        W27631   2.680  30.701   2.664
56016W        W27632  33.223  24.991  11.474
56017W        W27633  19.669  28.503  13.817
56018W        W27634  37.873  29.601   3.191
56019W        W27635   6.755   8.179   1.972
56020W        W27636  18.496  11.319   1.826
56021W        W27637  18.555  20.638  14.999
56022W        W27638  25.480  37.773  13.283
56023W        W27639  38.520  31.862   3.631
56024W        W27640   7.563  33.617   1.523
56025W        W27641  31.829  30.679   2.344
56026W        W27642  31.680  42.881   1.408
56027W        W27643  36.878  21.531  10.934
56028W        W27644  11.109  18.132   1.399
56029W        W27645   3.584   7.267  14.386
56030W        W27646   1.525  33.866   1.890
56031W        W27647  38.878  26.071  12.377
56032W        W27648  27.436  24.943  12.398
56033W        W27649  21.749  44.406   4.633
56034W        W27650  41.550  42.111   3.680
56035W        W27651  35.987  13.630  11.982
56036W        W27652  36.005  43.889  11.465
56037W        W27653  12.329   9.849   0.686
56038W        W27654   0.875   2.921  14.275
56039W        W27655  15.763  25.322  11.580
56040W        W27656  28.669  40.737   2.336
56041W        W27657  36.792  13.785   0.695
56042W        W27658   4.500  28.191   0.137
56043W        W27659  33.900  14.918   2.186
56044W        W27660  37.555  21.018  13.008
56045W        W27661  10.438  39.290   5.081
56046W        W27662  20.795  23.754  14.271
56047W        W27663   2.364  36.989  10.631
56048W        W27664  26.567  37.275   0.873
56049W        W27665  20.360  18.341   0.958
56050W        W27666  27.660  12.838  13.453
56051W        W27667  40.748  43.840   4.720
56052W        W27668  24.169   1.493   0.183
56053W        W27669  19.512  41.623   0.391
56054W        W27670  44.999  17.331  12.933
56055W        W27671   3.932  19.141  13.930
56056W        W27672   4.154  14.098  13.479
56057W        W27673  18.324   1.665   0.785
56058W        W27674  16.273  20.586   4.113
56059W        W27675  37.342  11.873   3.296
56060W        W27676  21.157   2.004   1.878
56061W        W27677  40.447  36.081  13.405
56062W        W27678  43.292  10.623  11.021
56063W        W27679  21.177  42.271   1.785
56064W        W27680   7.366  22.690   0.453
56065W        W27681  29.162  13.308   1.830
56066W        W27682  33.025  25.229   4.676
56067W        W27683  24.042  24.677   5.182
56068W        W27684   8.475  25.235  11.521
56069W        W27685  36.435  16.716   3.455
56070W        W27686  39.338  21.698   3.756
56071W        W27687  39.618   9.403   2.753
56072W        W27688  21.556  33.894   2.848
56073W        W27689  14.129  30.510  11.057
56074W        W27690  33.965  43.763   0.897
56075W        W27691  43.046  42.043   4.826
56076W        W27692  31.227  34.020   2.091
56077W        W27693  41.659  15.720  14.051
56078W        W27694  21.998   6.457   2.864
56079W        W27695  30.354  24.778  12.950
56080W        W27696  44.916   7.642   2.756
56081W        W27697  24.509  33.489   2.203
56082W        W27698  19.361  42.786   1.931
56083W        W27699  36.853  36.371  13.456
56084W        W27700  26.724  16.120   3.729
56085W        W27701  22.924  42.929   3.993
56086W        W27702  38.595   6.945  10.654
56087W        W27703  43.440  31.600  10.349
56088W        W27704  16.791   8.432   4.894
56089W        W27705  16.105   9.626  11.107
56090W        W27706  31.936  29.797   5.232
56091W        W27707   8.646   6.363   2.170
56092W        W27708  19.763  15.185   0.381
56093W        W27709  41.291  37.544  13.991
56094W        W27710  35.128   5.431  14.342
56095W        W27711  31.630  15.356   0.785
56096W        W27712   4.297  15.638  13.057
56097W        W27713  23.217  42.202   1.706
56098W        W27714  32.404  19.040  12.239
56099W        W27715   7.916  19.747   2.723
56100W        W27716   3.165  32.678   5.114
56101W        W27717  14.204  21.796  12.542
56102W        W27718  15.701   7.171   0.448
56103W        W27719  14.305  40.047   0.287
56104W        W27720  37.974   0.487   5.187
56105W        W27721  27.090   8.284  12.627
56106W        W27722  33.137  31.483   2.419
56107W        W27723  39.651  18.226  13.839
56108W        W27724  37.087  21.185   4.089
56109W        W27725  25.521  10.620  11.109
56110W        W27726  22.651  33.890  13.752
56111W        W27727   8.222  44.885  12.367
56112W        W27728  21.324   2.733   0.917
56113W        W27729  12.336  41.653  13.319
56114W        W27730   4.229  44.377   0.807
56115W        W27731  11.631  29.945  12.403
56116W        W27732  22.702  21.930   0.190
56117W        W27733   3.250  12.277   3.575
56118W        W27734   8.646  41.226   1.746
56119W        W27735  13.665  36.591   2.408
56120W        W27736  25.094  30.440  11.081
56121W        W27737  23.547  31.626   3.665
56122W        W27738  32.695   9.258   3.425
56123W        W27739  26.256  29.184   4.449
56124W        W27740  44.233  44.358   1.431
56125W        W27741  16.912  17.087  11.682
56126W        W27742  19.224  32.905   0.289
56127W        W27743  33.931  13.834  12.981
56128W        W27744  20.961  27.084  10.467
56129W        W27745  35.772  38.407  10.407
56130W        W27746  19.917  25.702   3.285
56131W        W27747   8.374   3.282  10.774
56132W        W27748  42.783  13.909  13.139
56133W        W27749  37.924  39.518   3.279
56134W        W27750   1.318   4.373  13.460
56135W        W27751  12.172   7.609   2.166
56136W        W27752  34.250  15.139   3.927
56137W        W27753  43.589  29.602   4.230
56138W        W27754  16.776  37.951  10.482
56139W        W27755  11.386   7.686   3.216
56140W        W27756  26.725  39.889  10.732
56141W        W27757  18.189  24.207  13.413
56142W        W27758   0.425  21.152  11.880
56143W        W27759  10.162   5.145  12.045
56144W        W27760  19.613  26.104  12.533
56145W        W27761   1.930  18.547   5.063
56146W        W27762  16.902  20.021  12.589
56147W        W27763  32.388  32.516   4.820
56148W        W27764  19.042  28.640   3.590
56149W        W27765  43.954   1.725   3.175
56150W        W27766  22.967  42.348  13.346
56151W        W27767  17.088   7.791   4.776
56152W        W27768   5.125  25.739  10.672
56153W        W27769  28.486   1.031  12.223
56154W        W27770  35.874  15.707  13.498
56155W        W27771  44.445  17.326   2.403
56156W        W27772  15.750  38.268   2.758
56157W        W27773  29.850  40.443  14.481
56158W        W27774  31.195  19.229  10.902
56159W        W27775   8.980  24.266  13.813
56160W        W27776  44.754   2.430   4.646
56161W        W27777  38.645  34.949   2.792
56162W        W27778   1.288   4.688   0.358
56163W        W27779   1.200  27.213  14.581
56164W        W27780  28.882  19.477   1.840
56165W        W27781  44.387  28.068  10.602
56166W        W27782  38.470  35.884  12.801
56167W        W27783  40.750  10.774  11.063
56168W        W27784   2.195  36.137  13.804
56169W        W27785   4.370   5.844  14.975
56170W        W27786  24.323  31.538   1.399
56171W        W27787  27.235  32.577  14.446
56172W        W27788   4.697  41.462   3.648
56173W        W27789   8.753  27.447   0.366
56174W        W27790  42.968   2.146   0.769
56175W        W27791   1.039  31.080  12.311
56176W        W27792  41.803  27.139   4.808
56177W        W27793  24.710   1.239  11.563
56178W        W27794  32.544  31.096  14.354
56179W        W27795  44.005   7.607   2.803
56180W        W27796   1.749  26.136  12.864
56181W        W27797   5.687  44.564   2.027
56182W        W27798  31.983  34.009   4.285
56183W        W27799  27.994  14.253  14.455
56184W        W27800  44.977  15.536  14.332
56185W        W27801  31.186  23.660  13.379
56186W        W27802   9.109  13.227   0.396
56187W        W27803  38.327  27.041   0.050
56188W        W27804  44.359   0.215   0.323
56189W        W27805  25.076  38.064  11.045
56190W        W27806   7.916  12.274  14.986
56191W        W27807  12.617  44.088   4.555
56192W        W27808  39.184  40.129  14.774
56193W        W27809  17.891   3.864  13.896
56194W        W27810  18.503   6.615   3.366
56195W        W27811  39.026  11.099   2.346
56196W        W27812  33.868  41.985   2.251
56197W        W27813  13.047  11.203  12.401
56198W        W27814  33.681  14.555  11.607
56199W        W27815  19.253   3.001  12.745
56200W        W27816  43.265  21.795   1.666
56201W        W27817   1.730  27.705   2.490
56202W        W27818  42.780  41.210  11.317
56203W        W27819  40.362  41.890  12.390
56204W        W27820  30.229  21.580  14.286
56205W        W27821  22.103  29.912  13.986
56206W        W27822  18.628   8.320   2.749
56207W        W27823  42.243  33.590   2.710
56208W        W27824  21.986  23.214  14.556
56209W        W27825  25.504  29.650  12.300
56210W        W27826  42.920  11.496  13.972
56211W        W27827   9.267   4.129  11.100
56212W        W27828  36.858  19.975  12.309
56213W        W27829  24.803   2.876   2.763
56214W        W27830  15.228   4.273  13.410
56215W        W27831  25.516  31.483  11.698
56216W        W27832  17.703   9.917  12.968
56217W        W27833   5.435  43.495   1.393
56218W        W27834  43.766  31.247  12.353
56219W        W27835  30.117  38.510  12.940
56220W        W27836   0.524  42.481  10.997
56221W        W27837  19.185   1.822   2.876
56222W        W27838   2.055  25.269   9.756
56223W        W27839  41.355  17.147  11.152
56224W        W27840  10.690  19.793   2.318
56225W        W27841  12.816  30.383   2.688
56226W        W27842  18.515  15.564  13.018
56227W        W27843   2.309  20.608  12.924
56228W        W27844  30.371   6.655   4.800
56229W        W27845  42.951   5.534  13.768
56230W        W27846  37.104  29.653  14.306
56231W        W27847  17.655   4.027   2.748
56232W        W27848  24.503  25.251   2.167
56233W        W27849  11.854  30.932  13.411
56234W        W27850   7.500  22.456  12.588
56235W        W27851  25.056  27.187  10.548
56236W        W27852  21.988  23.019  11.670
56237W        W27853   8.240   0.760  14.393
56238W        W27854  10.619  18.976   0.347
56239W        W27855  14.191  17.354   2.275
56240W        W27856   3.450  37.068  14.487
56241W        W27857  21.117  31.652   3.733
56242W        W27858  14.579  27.081   1.638
56243W        W27859  24.656  25.678   2.462
56244W        W27860  35.116  19.259   3.851
56245W        W27861  20.158   4.811   4.504
56246W        W27862  23.260   9.957  14.301
56247W        W27863  36.960  29.643   2.455
56248W        W27864  44.775   0.344  11.966
56249W        W27865  10.396  12.899   5.079
56250W        W27866  34.045   1.373  14.975
56251W        W27867  39.452  37.931   4.168
56252W        W27868   3.170  22.947   0.161
56253W        W27869  30.154  23.834  11.877
56254W        W27870  37.073  16.312   0.697
56255W        W27871  31.604  15.733   3.769
56256W        W27872  25.563  36.314  11.996
56257W        W27873  18.239  28.033   1.205
56258W        W27874  13.264   9.355  11.036
56259W        W27875  39.373   0.834  10.440
56260W        W27876  18.374  44.695   1.894
56261W        W27877  40.321   7.332   3.767
56262W        W27878  30.259  29.389  11.636
56263W        W27879   8.531  35.450   3.774
56264W        W27880  23.995  39.319  12.056
56265W        W27881  41.899  10.289  12.104
56266W        W27882  26.036  32.551   2.650
56267W        W27883  35.301   8.018  12.081
56268W        W27884   5.156  43.796   9.491
56269W        W27885  14.524  43.860  14.371
56270W        W27886   6.848   3.228  12.943
56271W        W27887   1.514   9.643   3.649
56272W        W27888   2.923  20.484   2.641
56273W        W27889   1.775  13.569   0.753
56274W        W27890  30.616  43.336  14.480
56275W        W27891  18.354  40.892   1.789
56276W        W27892  14.229  11.553   1.371
56277W        W27893  27.070  18.547   2.745
56278W        W27894  21.722  41.333   1.836
56279W        W27895   2.789  23.254  11.526
56280W        W27896  22.816  31.154  10.779
56281W        W27897  30.135  33.687  12.464
56282W        W27898  27.665  42.992  13.885
56283W        W27899  12.809   8.708  13.712
56284W        W27900  21.360  10.427  14.790
56285W        W27901   4.683  10.291  11.931
56286W        W27902  22.086  25.454   3.849
56287W        W27903  16.108   8.787  14.724
56288W        W27904  32.571  43.595  11.102
56289W        W27905  21.483  29.975   1.744
56290W        W27906  11.845  40.665   1.804
56291W        W27907   8.883  39.063  11.967
56292W        W27908  38.730  33.098   3.930
56293W        W27909   5.649   9.702   0.810
56294W        W27910  36.386   9.369  11.465
56295W        W27911  26.455   6.864   4.012
56296W        W27912  35.375  22.639  12.419
56297W        W27913  13.803  29.020  11.222
56298W        W27914  12.667  38.847   4.553
56299W        W27915  12.392  31.527  11.551
56300W        W27916  27.104  11.667   2.246
56301W        W27917  28.517  39.396   2.617
56302W        W27918  38.375  17.092  14.809
56303W        W27919  12.287  33.805   2.634
56304W        W27920  31.118  36.301  12.384
56305W        W27921  17.299  30.602  11.623
56306W        W27922  25.166  27.707  12.131
56307W        W27923   1.519  21.445   3.820
56308W        W27924  22.276   6.418  12.925
56309W        W27925  10.284  24.404  14.916
56310W        W27926  39.500  35.903   3.269
56311W        W27927   4.378   5.182   2.851
56312W        W27928  34.869  19.164   2.246
56313W        W27929  27.925  32.087  14.347
56314W        W27930  38.652  27.200   0.447
56315W        W27931  32.622  13.627  13.394
56316W        W27932  37.505  42.564   1.928
56317W        W27933  19.053  21.977   2.691
56318W        W27934  19.032  30.909   0.902
56319W        W27935   8.605   6.198   0.411
56320W        W27936   4.869  17.681   4.020
56321W        W27937  24.627  35.504  12.147
56322W        W27938   9.293  33.403   4.147
56323W        W27939   9.850  20.000  11.261
56324W        W27940   5.347  27.225  13.478
56325W        W27941   3.299  21.540  12.912
56326W        W27942  12.730   2.238  14.301
56327W        W27943   3.228  26.178  11.119
56328W        W27944  23.544  41.512   4.827
56329W        W27945  27.161  35.613  11.522
56330W        W27946  24.769  39.996   0.795
56331W        W27947  10.911   5.657  11.125
56332W        W27948  22.161  30.668  13.327
56333W        W27949  34.245  44.301  14.267
56334W        W27950  37.841   1.461  14.422
56335W        W27951  38.858  26.259  11.596
56336W        W27952  21.349  10.163  11.054
56337W        W27953  44.352  20.930   4.668
56338W        W27954  24.493  22.471   1.854
56339W        W27955  33.364   5.438  10.719
56340W        W27956   8.699  27.729  10.848
56341W        W27957  22.026   1.803  10.789
56342W        W27958  35.930  29.332  11.140
56343W        W27959   5.015  29.384   0.371
56344W        W27960   6.066  36.130  11.510
56345W        W27961  18.214  43.942  10.624
56346W        W27962  34.455  24.342   4.993
56347W        W27963  26.100   2.921   0.270
56348W        W27964   8.026   7.900   2.519
56349W        W27965  23.603  44.961  13.662
56350W        W27966   1.674  33.017   2.790
56351W        W27967  14.085  27.528   5.008
56352W        W27968  27.004   7.849  12.911
56353W        W27969  25.736  44.515  12.553
56354W        W27970  30.514  30.021  10.532
56355W        W27971  38.266  16.770  11.285
56356W        W27972  11.407  10.115  12.247
56357W        W27973  44.464  30.508   4.563
56358W        W27974   8.797  29.196  13.781
56359W        W27975  40.136  41.647   3.648
56360W        W27976  21.792  40.774   4.097
56361W        W27977  19.203  15.353  14.580
56362W        W27978  27.307  21.576  11.619
56363W        W27979   0.153  13.411  11.964
56364W        W27980  40.594   9.285  11.925
56365W        W27981   5.017  34.072   3.246
56366W        W27982  33.869  28.916   1.759
56367W        W27983  31.356  27.722  13.280
56368W        W27984  18.352  39.431  13.586
56369W        W27985  26.034   5.883   1.447
56370W        W27986   0.977  13.127  13.494
56371W        W27987  35.525  17.230  14.911
56372W        W27988  33.362  28.778  11.602
56373W        W27989   7.244   3.289   0.023
56374W        W27990  42.175  27.686   2.828
56375W        W27991  44.048  36.421   4.504
56376W        W27992  31.114   7.839   2.183
56377W        W27993  32.892   7.116  11.400
56378W        W27994  21.179  33.981  10.749
56379W        W27995   5.280  16.574   0.445
56380W        W27996  24.202   4.490  11.688
56381W        W27997  13.107  19.088   2.701
56382W        W27998  43.683  22.570   2.934
56383W        W27999  40.935   0.149   4.541
56384W        W28000  43.448  18.736   1.698
56385W        W28001  16.225  44.378   2.120
56386W        W28002  23.523  13.810   0.224
56387W        W28003  26.994  24.021  12.430
56388W        W28004  24.719  16.594   1.725
56389W        W28005   9.148  40.816  12.090
56390W        W28006  44.005  23.144  10.829
56391W        W28007  35.379  39.142  11.190
56392W        W28008  44.295  24.738   3.700
56393W        W28009  27.024  24.658  10.618
56394W        W28010  24.005  14.061  10.560
56395W        W28011  13.748  16.382  12.950
56396W        W28012  41.755  18.568   4.192
56397W        W28013  14.176  26.266   2.113
56398W        W28014  30.276  26.215  13.066
56399W        W28015   0.382  22.032  12.129
56400W        W28016  11.303   1.704  11.884
56401W        W28017  42.767  33.087  12.727
56402W        W28018  41.799  18.245  11.202
56403W        W28019  34.559  41.004   4.048
56404W        W28020  42.349  17.942  14.761
56405W        W28021  32.199  37.435  12.664
56406W        W28022   3.394  40.256  13.100
56407W        W28023   3.871  18.832   3.889
56408W        W28024  15.423  25.753  14.231
56409W        W28025  40.584  13.249   4.637
56410W        W28026   0.258  25.549   4.127
56411W        W28027  37.934  10.344  11.000
56412W        W28028  12.925  42.814  12.497
56413W        W28029   1.292  27.619   3.563
56414W        W28030  38.929  16.607   0.054
56415W        W28031  17.005  16.787   5.036
56416W        W28032  43.269  39.115  12.904
56417W        W28033  41.292  32.769  14.014
56418W        W28034  27.638   1.317   4.149
56419W        W28035   0.313  39.805  12.518
56420W        W28036  42.040   3.385   0.199
56421W        W28037  42.284   4.206   1.713
56422W        W28038  16.390  34.144   1.219
56423W        W28039  20.157  45.000  10.602
56424W        W28040   4.814  15.760  12.973
56425W        W28041   1.197  43.678  12.570
56426W        W28042   9.331  34.525  13.817
56427W        W28043   3.032  29.546   0.109
56428W        W28044  39.782  29.396  10.637
56429W        W28045  41.916  25.699  12.904
56430W        W28046   8.790  11.405   0.729
56431W        W28047   6.193  16.576   4.628
56432W        W28048  15.191   5.221  12.826
56433W        W28049  28.588   5.161  11.054
56434W        W28050   3.796  29.484  12.870
56435W        W28051  37.548  18.839  13.364
56436W        W28052  22.039   8.348   2.879
56437W        W28053   1.240  12.882   2.934
56438W        W28054  35.330  43.267  12.141
56439W        W28055   2.271  36.913  11.136
56440W        W28056   5.784  11.356  14.529
56441W        W28057  25.149  40.823  12.685
56442W        W28058   6.297  37.511   2.767
56443W        W28059  28.902  41.580   1.172
56444W        W28060  22.182  12.548   4.316
56445W        W28061   8.383  23.036   1.913
56446W        W28062  40.803  12.915  11.517
56447W        W28063  31.589   0.810  14.157
56448W        W28064  10.383  16.240  12.444
56449W        W28065  12.705  32.540  13.802
56450W        W28066  26.502  38.015  14.450
56451W        W28067  39.069  34.511   3.389
56452W        W28068  28.026  28.900  11.611
56453W        W28069  14.224  29.637  14.777
56454W        W28070  41.522   3.940  14.888
56455W        W28071  14.512  38.030   2.048
56456W        W28072   9.710  15.701  12.551
56457W        W28073  24.924  30.515  13.760
56458W        W28074   6.428  40.805   4.823
56459W        W28075   0.996  34.374  11.980
56460W        W28076  14.278  20.509   4.389
56461W        W28077   2.202  37.406  14.426
56462W        W28078  38.858  15.760  11.699
56463W        W28079   0.260  10.952   1.715
56464W        W28080  13.847  27.349  12.891
56465W        W28081  37.864   8.444  11.020
56466W        W28082  25.274  42.805  11.867
56467W        W28083  17.193  32.833   1.930
56468W        W28084  30.235  25.172   1.227
56469W        W28085  39.419   8.681   4.642
56470W        W28086  11.941  36.006   2.395
56471W        W28087   6.738  27.193  10.826
56472W        W28088   0.431  28.548   3.766
56473W        W28089  42.343   2.473  12.536
56474W        W28090  19.975   9.056  10.234
56475W        W28091  32.565  16.969   3.598
56476W        W28092  40.538  40.348  13.861
56477W        W28093  12.515  15.098   1.350
56478W        W28094  17.650  26.192   1.813
56479W        W28095   0.307  35.599  13.897
56480W        W28096   9.383  33.763   3.786
56481W        W28097  10.167  22.009   0.490
56482W        W28098   8.929  26.785   1.228
56483W        W28099  40.346  37.028  14.414
56484W        W28100  41.939  19.437   1.222
56485W        W28101  29.612   2.898  13.238
56486W        W28102  40.770  26.737   4.660
56487W        W28103   1.920  25.072   2.071
56488W        W28104  34.159  17.351  13.478
56489W        W28105  25.018  25.448   3.782
56490W        W28106  13.012  16.736  10.565
56491W        W28107  26.466  18.128  14.314
56492W        W28108  13.218   1.444   1.732
56493W        W28109  36.418  36.162   0.828
56494W        W28110  21.909  31.383  12.003
56495W        W28111   8.789  12.652   4.696
56496W        W28112  20.568   4.964  13.385
56497W        W28113   0.679  17.828  11.656
56498W        W28114  21.039  19.447  13.034
56499W        W28115  44.667   4.643   3.694
56500W        W28116   7.139  41.959   2.319
56501W        W28117  10.161  13.422   3.667
56502W        W28118  33.732   6.750  13.391
56503W        W28119  38.640  17.531  14.863
56504W        W28120  42.021  22.878   0.499
56505W        W28121  41.035  44.298  12.804
56506W        W28122  11.347  17.302   4.217
56507W        W28123  16.271   8.518  13.402
56508W        W28124   6.434  24.429   2.744
56509W        W28125  29.975  32.033   0.331
56510W        W28126   8.309  36.980   4.697
56511W        W28127  17.176  20.007  13.410
56512W        W28128  38.502  36.922   4.192
56513W        W28129  35.567   4.412  14.799
56514W        W28130  42.062  11.378  13.484
56515W        W28131   7.837  32.159   0.874
56516W        W28132   1.421  24.497  11.927
56517W        W28133   1.232  27.078   2.825
56518W        W28134   2.374  18.052   2.943
56519W        W28135  13.595  23.914   2.888
56520W        W28136  13.447  30.075  11.134
56521W        W28137  43.825  34.108  11.071
56522W        W28138  24.654   4.456   2.626
56523W        W28139  28.930  38.866  11.212
56524W        W28140  26.710  22.155   1.756
56525W        W28141  40.617  13.390   3.303
56526W        W28142  30.765  32.224   0.945
56527W        W28143  41.865  43.847  10.966
56528W        W28144  31.429  44.508   2.840
56529W        W28145  26.350  17.790   3.549
56530W        W28146   5.288  44.532  13.494
56531W        W28147  43.435  37.567   1.833
56532W        W28148  11.813   8.270   3.688
56533W        W28149  28.728  16.602  11.625
56534W        W28150   9.750  44.770  10.752
56535W        W28151  40.702  16.628  12.854
56536W        W28152  26.577  33.734   0.470
56537W        W28153   3.244  18.011   2.797
56538W        W28154  16.524  13.699  10.712
56539W        W28155  44.884  17.693  12.230
56540W        W28156  13.823  24.727   1.471
56541W        W28157  17.775  11.252   1.166
56542W        W28158  11.213   4.241  14.767
56543W        W28159  38.961   8.681  10.308
56544W        W28160  28.121   9.810  11.131
56545W        W28161  18.284   9.235   4.521
56546W        W28162  14.887  10.155  12.119
56547W        W28163  18.023   9.999  11.819
56548W        W28164  17.207  37.515   4.096
56549W        W28165   6.083   9.973   0.782
56550W        W28166   8.213  27.427   1.428
56551W        W28167  20.385  42.272   0.843
56552W        W28168  26.957  19.695   4.289
56553W        W28169  36.831  27.864   2.794
56554W        W28170  35.380  43.558   2.861
56555W        W28171   8.141  24.190   4.311
56556W        W28172  10.619   2.494   4.306
56557W        W28173  36.059  29.602  11.590
56558W        W28174  41.064   9.319  12.157
56559W        W28175  36.922  19.491   4.613
56560W        W28176  28.009  43.380  13.946
56561W        W28177  44.413  43.068  12.329
56562W        W28178  16.848   1.923  13.072
56563W        W28179  34.067  23.660   2.635
56564W        W28180  19.561   1.831  12.386
56565W        W28181   5.286  28.598   4.805
56566W        W28182   7.146  31.524   4.559
56567W        W28183  19.386  13.110   3.238
56568W        W28184  16.079  28.063  11.161
56569W        W28185  30.796   1.204   0.776
56570W        W28186  38.465  15.612   4.271
56571W        W28187   6.187  20.165   0.279
56572W        W28188  34.569  19.724  13.122
56573W        W28189  44.887  39.463  12.516
56574W        W28190  39.814  40.592   0.102
56575W        W28191  40.795  24.521  11.932
56576W        W28192  43.924  22.538   4.442
56577W        W28193  26.157  43.094   1.651
56578W        W28194   7.215  14.340   0.372
56579W        W28195  23.650  12.768  11.144
56580W        W28196   9.386  24.789  10.696
56581W        W28197  36.444   6.887   2.277
56582W        W28198  36.593  15.761   4.065
56583W        W28199  23.597  21.791  11.594
56584W        W28200  16.622   5.727   0.833
56585W        W28201  32.420  10.324   3.622
56586W        W28202  24.525  39.749   3.003
56587W        W28203  25.991   9.882   4.204
56588W        W28204  19.843   3.216  14.081
56589W        W28205  31.883  42.934   4.626
56590W        W28206  43.289  40.308   4.299
56591W        W28207  42.985   0.070   2.247
56592W        W28208  23.021  44.269   0.700
56593W        W28209  38.353  42.218  11.117
56594W        W28210  24.111  32.839   0.912
56595W        W28211  36.037  34.432   4.063
56596W        W28212  24.170   4.310   2.318
56597W        W28213   8.432  28.144   3.826
56598W        W28214  40.860  36.255   0.026
56599W        W28215  19.790   9.171  11.128
56600W        W28216   3.141  20.658   1.695
56601W        W28217  18.139  32.965   2.357
56602W        W28218  14.750  38.275   0.299
56603W        W28219  11.180  34.982   4.329
56604W        W28220   2.778  29.537  13.908
56605W        W28221  16.732  12.836  12.890
56606W        W28222  38.460  33.438   1.024
56607W        W28223  19.715  19.058   3.738
56608W        W28224   9.315  20.575  13.814
56609W        W28225  34.691  19.212   1.750
56610W        W28226  28.618  30.870   4.603
56611W        W28227  44.367  41.927   3.829
56612W        W28228   9.406  31.436   3.094
56613W        W28229  34.416  20.814  12.172
56614W        W28230  16.626  35.203   3.808
56615W        W28231  21.107  11.716   1.191
56616W        W28232  25.113  24.351  13.954
56617W        W28233   8.169  22.147  11.920
56618W        W28234  28.638  27.490  13.985
56619W        W28235   1.056  29.364  11.575
56620W        W28236  17.835  12.558   1.275
56621W        W28237  34.863  21.137  12.076
56622W        W28238   4.752  24.603   3.688
56623W        W28239  13.347   5.657   4.169
56624W        W28240   5.230   0.503   1.187
56625W        W28241  43.705  41.372   0.354
56626W        W28242  22.651  15.767   0.061
56627W        W28243  30.944  35.757  13.534
56628W        W28244  19.777   4.325   1.220
56629W        W28245  19.881  44.168   1.778
56630W        W28246   0.680  24.537   1.775
56631W        W28247  42.242  32.155   1.702
56632W        W28248   0.476   9.198   0.465
56633W        W28249  23.231  20.443   0.433
56634W        W28250  13.301  10.333  13.779
56635W        W28251  14.663  42.074  10.574
56636W        W28252  37.317  41.795   2.241
56637W        W28253   3.320  30.593  13.942
56638W        W28254  36.008  23.142   4.220
56639W        W28255  14.384   3.769   2.795
56640W        W28256  31.118  43.006  12.854
56641W        W28257  38.464  36.425   0.029
56642W        W28258  38.733  15.693   0.238
56643W        W28259  35.085  20.732  10.623
56644W        W28260  39.452   0.317   1.928
56645W        W28261  42.595  10.324  13.381
56646W        W28262   7.959  18.782  11.626
56647W        W28263  34.357  32.364   1.217
56648W        W28264   5.555  13.246  13.326
56649W        W28265  25.167   1.064   2.374
56650W        W28266   0.015  18.494  13.478
56651W        W28267   7.114  24.047  12.724
56652W        W28268  22.864  15.440  12.224
56653W        W28269   7.732  28.399   0.753
56654W        W28270  17.224  20.329   4.490
56655W        W28271  41.304  30.514  11.241
56656W        W28272  34.965  19.769  13.946
56657W        W28273  18.996  25.631  14.551
56658W        W28274   2.023  11.824  10.712
56659W        W28275  15.049  10.196   2.745
56660W        W28276   3.327  35.801   3.810
56661W        W28277  21.019   8.094  13.855
56662W        W28278  28.656   8.258   2.822
56663W        W28279  11.103  20.674   2.276
56664W        W28280   9.684  18.243  10.723
56665W        W28281  44.202   9.485   5.006
56666W        W28282  39.241  44.241  11.139
56667W        W28283  33.091   0.068  13.065
56668W        W28284  41.499  36.828  12.062
56669W        W28285  43.877  15.588   3.427
56670W        W28286  32.600  33.344  10.399
56671W        W28287  19.040  21.650   3.119
56672W        W28288   6.495  17.049   2.221
56673W        W28289   5.534   2.908   1.385
56674W        W28290   2.462  22.995  13.668
56675W        W28291  23.630  33.387  13.893
56676W        W28292  40.075  34.850  12.487
56677W        W28293  12.331  12.579   1.441
56678W        W28294  12.053  10.317   3.889
56679W        W28295  20.194  12.399  10.751
56680W        W28296  11.860  40.415  13.521
56681W        W28297  24.966  38.763   4.209
56682W        W28298  14.255  39.498   4.567
56683W        W28299  19.303   3.301   3.221
56684W        W28300   6.753  29.705  14.997
56685W        W28301  31.799  36.388   3.784
56686W        W28302  19.308  37.830   3.258
56687W        W28303  44.386  19.863   0.234
56688W        W28304  33.599  12.788   0.250
56689W        W28305  21.220   0.701   0.315
56690W        W28306  10.450  31.359  11.044
56691W        W28307  14.112  15.060  14.860
56692W        W28308   9.411   2.869   1.493
56693W        W28309   6.937  42.741  11.218
56694W        W28310   8.405  35.913   2.806
56695W        W28311  17.834  20.302   4.542
56696W        W28312   0.043  29.661   3.684
56697W        W28313   2.199  19.596  14.572
56698W        W28314  28.853   0.705   3.779
56699W        W28315  13.264  18.140  11.695
56700W        W28316  32.178  15.855  14.973
56701W        W28317   2.934   8.650   1.317
56702W        W28318   4.233  13.084  10.500
56703W        W28319  14.329  37.308   0.770
56704W        W28320  22.004  20.682   3.629
56705W        W28321  28.473  18.671   3.899
56706W        W28322  10.311  24.763   2.003
56707W        W28323  44.589  21.702   2.403
56708W        W28324  13.957  21.511   1.586
56709W        W28325  37.815  41.302   3.734
56710W        W28326  28.039  44.582  11.244
56711W        W28327   5.339  43.635   0.914
56712W        W28328  42.857  23.541   2.835
56713W        W28329  23.680  31.876  13.908
56714W        W28330  13.880  37.970   2.798
56715W        W28331  26.641  37.262   1.773
56716W        W28332  44.948  32.052   3.683
56717W        W28333  42.590   6.905   0.365
56718W        W28334  33.693  14.423   2.070
56719W        W28335  43.112   9.640   2.982
56720W        W28336   9.726  28.397   3.018
56721W        W28337  25.520   9.577   0.315
56722W        W28338  26.385  13.525   4.076
56723W        W28339  35.986  25.381   3.198
56724W        W28340   4.705   2.265  10.158
56725W        W28341  28.546   2.223   4.135
56726W        W28342  17.148  23.941   3.856
56727W        W28343  24.150  19.517  12.442
56728W        W28344  20.040   3.334  11.287
56729W        W28345   5.815  11.517  13.121
56730W        W28346  29.757  26.795  13.529
56731W        W28347   1.566   8.750  14.353
56732W        W28348   6.103  31.224  12.500
56733W        W28349   2.197  22.682  14.605
56734W        W28350  16.105  19.767  12.084
56735W        W28351  40.270   7.407   0.858
56736W        W28352  26.065  24.749   2.980
56737W        W28353  29.199  17.331   3.189
56738W        W28354  13.300   3.221  14.740
56739W        W28355  39.453  41.857   1.208
56740W        W28356   2.731  17.199  11.176
56741W        W28357   3.979  32.635  11.400
56742W        W28358  26.886   8.694  13.323
56743W        W28359  21.960  18.601  12.508
56744W        W28360  31.648   6.382   2.391
56745W        W28361  22.121  26.098   0.235
56746W        W28362   1.732  37.931   3.472
56747W        W28363  25.223   0.560   2.378
56748W        W28364  33.852  42.866   3.894
56749W        W28365   4.959  10.361  13.440
56750W        W28366   1.789  28.433   3.782
56751W        W28367  28.271   3.987  12.963
56752W        W28368  18.683  14.821  12.603
56753W        W28369  43.810   3.945   4.485
56754W        W28370  40.037  16.118  10.610
56755W        W28371  44.167  35.664   2.087
56756W        W28372  32.281  23.252  13.877
56757W        W28373  41.256  10.092  11.178
56758W        W28374  22.135  32.211  12.052
56759W        W28375  40.385  18.090  12.601
56760W        W28376  14.824  24.495   3.135
56761W        W28377   2.982   0.765  11.591
56762W        W28378  44.404  26.954   3.037
56763W        W28379  25.302  39.401   2.782
56764W        W28380  35.367   8.276  14.558
56765W        W28381  19.383  25.632   4.153
56766W        W28382   1.985  39.079  11.987
56767W        W28383  11.123  28.873  13.963
56768W        W28384  19.313  13.164   0.782
56769W        W28385  43.346  35.560   2.585
56770W        W28386  39.405  17.008   0.780
56771W        W28387  33.463  38.435  13.152
56772W        W28388  35.986  22.306   4.981
56773W        W28389   7.491  17.511   1.422
56774W        W28390  30.550  39.510   4.609
56775W        W28391  11.444  21.173   1.456
56776W        W28392  38.836  24.182  13.491
56777W        W28393  10.818  30.629  11.396
56778W        W28394   8.433  14.846   4.077
56779W        W28395  44.362  12.695  12.939
56780W        W28396  21.226  16.192  11.978
56781W        W28397  33.411  29.747  13.925
56782W        W28398  40.693  35.547  10.702
56783W        W28399  19.645   3.152   1.395
56784W        W28400  10.745  41.728   3.826
56785W        W28401  18.656  40.848  13.877
56786W        W28402   0.804   9.795   2.614
56787W        W28403   7.303   7.408  13.397
56788W        W28404  43.439  39.949   1.710
56789W        W28405  26.189  19.340  10.795
56790W        W28406  42.967  41.941  11.885
56791W        W28407  25.047   7.749  13.866
56792W        W28408  36.545  18.270  11.707
56793W        W28409  37.615  24.536   0.004
56794W        W28410   2.163  16.137  11.407
56795W        W28411   6.447  36.263   1.335
56796W        W28412  34.168  16.447   3.326
56797W        W28413   1.868  43.031  13.519
56798W        W28414  28.984  16.639   2.323
56799W        W28415  42.897  19.558  11.837
56800W        W28416  10.399   2.915   2.455
56801W        W28417  12.124  32.927   2.177
56802W        W28418  22.165  39.361   3.305
56803W        W28419  15.722   9.920  13.019
56804W        W28420  44.083  42.085   4.730
56805W        W28421   6.664  33.760   3.757
56806W        W28422  41.905  14.698   2.993
56807W        W28423  30.366  16.113   0.826
56808W        W28424  20.502  11.684   4.224
56809W        W28425   4.754  42.840  14.399
56810W        W28426   2.728  38.558   0.268
56811W        W28427  12.600  24.056  14.171
56812W        W28428  13.758   6.230   4.393
56813W        W28429  28.478  27.261  13.539
56814W        W28430  24.764  21.970  14.318
56815W        W28431  18.998  22.158   4.556
56816W        W28432  27.997  40.291  13.479
56817W        W28433   7.600  19.805  13.495
56818W        W28434  40.637  21.401  13.325
56819W        W28435  38.633  22.280   4.028
56820W        W28436   9.604  10.192  14.042
56821W        W28437  32.387  16.304  11.203
56822W        W28438  28.159  12.107   1.785
56823W        W28439  34.396  27.092  10.672
56824W        W28440  26.635  30.999   3.246
56825W        W28441  35.386   7.402  13.648
56826W        W28442   2.179   5.936   0.801
56827W        W28443   1.232  22.547  13.397
56828W        W28444  43.221   3.770   1.752
56829W        W28445  32.258  25.182   1.562
56830W        W28446  14.305  19.052  14.885
56831W        W28447  18.558  36.949  11.627
56832W        W28448  15.071  17.748   3.189
56833W        W28449  29.920   6.732   4.607
56834W        W28450  40.299  44.690   4.110
56835W        W28451  25.099   9.079  10.680
56836W        W28452  29.523  38.399   3.374
56837W        W28453   1.361  36.872   1.618
56838W        W28454  19.070  42.210   3.794
56839W        W28455  44.296  15.614   3.117
56840W        W28456  14.972  39.243   1.163
56841W        W28457  21.118  33.464  10.741
56842W        W28458  15.520  39.614   4.116
56843W        W28459  22.615  43.892  14.228
56844W        W28460  16.462  31.738  10.671
56845W        W28461  36.520  30.404  12.482
56846W        W28462  28.781  33.607   3.706
56847W        W28463  24.005  44.876   1.439
56848W        W28464   6.025  13.334   0.782
56849W        W28465  22.026  12.791  13.831
56850W        W28466   6.677  30.379  13.405
56851W        W28467  39.913  34.426   2.540
56852W        W28468  17.586  40.371  11.402
56853W        W28469  12.806  25.825  11.544
56854W        W28470  44.533  30.512   0.914
56855W        W28471  27.912  31.654   2.893
56856W        W28472  20.802  17.223  12.043
56857W        W28473   2.450  42.768   0.441
56858W        W28474  15.654   9.414  11.228
56859W        W28475  34.443   6.800  11.133
56860W        W28476   1.144   5.644   1.540
56861W        W28477  24.664  13.596   2.991
56862W        W28478  26.924  13.662   1.224
56863W        W28479  19.427  20.368   2.411
56864W        W28480  16.418  25.708   1.280
56865W        W28481  13.079   0.457   4.220
56866W        W28482  33.170  23.801   4.603
56867W        W28483   1.987  10.986  14.170
56868W        W28484  14.759   3.257   5.017
56869W        W28485  22.570  37.500  14.199
56870W        W28486  44.843  14.663  11.069
56871W        W28487   2.769  41.909  13.026
56872W        W28488   5.400   5.903   1.801
56873W        W28489  20.363  43.367  14.205
56874W        W28490   8.376  29.971  12.450
56875W        W28491  24.788   0.271   2.027
56876W        W28492  18.455  34.567  11.321
56877W        W28493  14.638  12.364  12.481
56878W        W28494  38.362  19.995  13.304
56879W        W28495  22.689  40.763   3.734
56880W        W28496  29.173  42.672  10.201
56881W        W28497  22.623   1.278   1.906
56882W        W28498  11.761  10.954   2.371
56883W        W28499   1.372  28.442  11.152
56884W        W28500   4.821   7.208  10.625
56885W        W28501  20.524  22.619   3.108
56886W        W28502  30.920   2.953  13.932
56887W        W28503  35.291  32.668  12.802
56888W        W28504  14.256  20.624   1.931
56889W        W28505   2.538  12.197  11.581
56890W        W28506  11.333  33.344  11.860
56891W        W28507  37.125  28.704  11.147
56892W        W28508  36.565  28.948   3.576
56893W        W28509  38.413  32.053  11.869
56894W        W28510   3.630  16.205   3.441
56895W        W28511  11.790  33.534  14.833
56896W        W28512  35.309  21.563   3.702
56897W        W28513  33.592  11.741   4.159
56898W        W28514  36.955  25.781   4.606
56899W        W28515  24.065  20.767   3.619
56900W        W28516   0.921   1.715  10.322
56901W        W28517  24.162   3.282   1.456
56902W        W28518  21.501  15.012  13.268
56903W        W28519  40.349   6.288   2.257
56904W        W28520  24.506  43.437   0.708
56905W        W28521   2.813  10.457   0.326
56906W        W28522  44.427  30.526   4.017
56907W        W28523  29.237  28.135   0.390
56908W        W28524  32.934   7.308   3.696
56909W        W28525   4.639   6.681  12.642
56910W        W28526   8.417  37.053   3.237
56911W        W28527  40.984  14.510   4.180
56912W        W28528  26.720  21.259   1.744
56913W        W28529  29.012  22.728  11.944
56914W        W28530   6.655  25.561  11.562
56915W        W28531  32.971  17.180  14.606
56916W        W28532  27.272  28.444   1.828
56917W        W28533  11.867   8.114  12.597
56918W        W28534  28.959  41.074   1.143
56919W        W28535  30.921  37.803   2.876
56920W        W28536  25.045  44.394   3.033
56921W        W28537  21.970  11.057   0.039
56922W        W28538  43.056   6.148  13.613
56923W        W28539  38.349   2.327  13.651
56924W        W28540  30.477   8.896   2.788
56925W        W28541  14.215  19.308   0.365
56926W        W28542  36.512   8.193  13.108
56927W        W28543  35.902   4.832  13.598
56928W        W28544  20.145  41.313  12.803
56929W        W28545   9.897  43.467   0.658
56930W        W28546  22.501  10.974  13.870
56931W        W28547   5.513   4.377   3.510
56932W        W28548   8.767   3.764   4.644
56933W        W28549  23.838  34.349   4.054
56934W        W28550  14.402   1.086   0.302
56935W        W28551  32.415  35.456  13.489
56936W        W28552  37.047  19.282   4.104
56937W        W28553  19.237   6.433  12.090
56938W        W28554  18.073   2.664   3.464
56939W        W28555  13.710   2.143  13.337
56940W        W28556  15.768  26.624   3.207
56941W        W28557  14.866   4.884   4.623
56942W        W28558  11.449  11.926   2.269
56943W        W28559  26.215  31.590   1.487
56944W        W28560  44.976   4.878   2.758
56945W        W28561   9.532  29.324   2.545
56946W        W28562   1.309  14.308   3.724
56947W        W28563  26.142  24.485  13.928
56948W        W28564  14.559  30.255   4.964
56949W        W28565   6.442  14.348  12.115
56950W        W28566  38.546  15.596  13.931
56951W        W28567  26.452  17.100   4.688
56952W        W28568  20.142   6.745   0.331
56953W        W28569  18.180   3.426   0.245
56954W        W28570  11.242  43.061  12.036
56955W        W28571  16.284   7.973   4.130
56956W        W28572  38.646  11.354  12.339
56957W        W28573  11.875   1.384  14.176
56958W        W28574  18.949  20.471   2.188
56959W        W28575  13.794  24.124   3.684
56960W        W28576   2.023   5.733   3.292
56961W        W28577   5.350  39.069  13.323
56962W        W28578   3.419  40.099  10.765
56963W        W28579  18.124  35.654   0.841
56964W        W28580   4.233  12.070   3.214
56965W        W28581  14.282  28.093  12.943
56966W        W28582   7.949   2.204  12.935
56967W        W28583  39.895  14.410  14.994
56968W        W28584  44.605  33.316  11.562
56969W        W28585  24.169  23.336   1.376
56970W        W28586  39.047  10.729   0.491
56971W        W28587  34.898  20.162  13.115
56972W        W28588  43.484  11.183  14.702
56973W        W28589  11.389  23.870  14.001
56974W        W28590  15.077  30.453  13.414
56975W        W28591  10.620   3.752  13.443
56976W        W28592  39.828   2.200  11.757
56977W        W28593  10.123  33.136  12.044
56978W        W28594  18.621  34.316  12.572
56979W        W28595  43.205   6.083   4.401
56980W        W28596  42.286  39.556  12.883
56981W        W28597   3.015   3.652   2.908
56982W        W28598  40.457  36.922   3.630
56983W        W28599  18.220   8.067   4.724
56984W        W28600   4.722  30.730  10.669
56985W        W28601  36.286  44.577   0.744
56986W        W28602  13.804  41.338  14.757
56987W        W28603  27.583  40.687  14.362
56988W        W28604  23.058  36.819   4.183
56989W        W28605  22.288  31.501   3.362
56990W        W28606  41.959  25.149   2.855
56991W        W28607  25.781   1.136  10.880
56992W        W28608  27.121   6.538   2.746
56993W        W28609  43.808   6.193  12.452
56994W        W28610  30.057   3.392   0.819
56995W        W28611  24.625  38.552   4.549
56996W        W28612  32.699  44.386  13.017
56997W        W28613  39.794  36.280   1.070
56998W        W28614  42.926   3.475  14.958
56999W        W28615  35.087  28.588  14.994
57000W        W28616  15.094  36.372  11.276
57001W        W28617  26.133  24.611  12.571
57002W        W28618   5.717  33.968  10.504
57003W        W28619  10.584   8.268  13.945
57004W        W28620  30.646  29.765  11.661
57005W        W28621  33.075  26.957   0.189
57006W        W28622   1.668   2.340  14.748
57007W        W28623  21.788   1.024   2.207
57008W        W28624  21.994  25.322   0.276
57009W        W28625  19.681   4.714   0.750
57010W        W28626  23.919   8.412  11.847
57011W        W28627   2.860  14.375  11.040
57012W        W28628  24.776  16.631  13.373
57013W        W28629  44.295  41.034  13.274
57014W        W28630  41.349  39.396   4.563
57015W        W28631  23.106  30.627   4.859
57016W        W28632   2.986  41.870   4.249
57017W        W28633  23.049   6.967  11.554
57018W        W28634   5.831  36.038   2.680
57019W        W28635   9.730   3.424   1.934
57020W        W28636  15.619  35.575   0.403
57021W        W28637  12.676  41.244   3.244
57022W        W28638  41.524   5.209   1.152
57023W        W28639  16.849  18.529   0.698
57024W        W28640   6.821  26.032   0.073
57025W        W28641   9.262  38.452   0.810
57026W        W28642  24.776  43.681  11.474
57027W        W28643  18.510  29.992  12.062
57028W        W28644   1.352  28.128   3.759
57029W        W28645  17.106  41.264  12.936
57030W        W28646  28.520  36.934  13.896
57031W        W28647  23.751  35.112  13.551
57032W        W28648  14.893  22.997   1.775
57033W        W28649  16.790  38.040  11.959
57034W        W28650  31.897  24.988  13.347
57035W        W28651  14.105   0.511  11.682
57036W        W28652  11.380  39.930   3.505
57037W        W28653  10.159   0.918  13.065
57038W        W28654  22.699  39.586   2.311
57039W        W28655  34.269  43.441  10.854
57040W        W28656  11.404  43.385   0.873
57041W        W28657  34.478   9.640  11.040
57042W        W28658  44.957  41.959   2.706
57043W        W28659  39.445  26.467   1.374
57044W        W28660  17.662  25.907   0.934
57045W        W28661  39.568  37.912   0.387
57046W        W28662  23.127   1.045   4.609
57047W        W28663  23.094   7.417  11.314
57048W        W28664  11.652  22.759  14.725
57049W        W28665  14.110  27.783  13.457
57050W        W28666   4.348  29.355   3.142
57051W        W28667  20.057  30.048  13.410
57052W        W28668  38.770  26.867   1.860
57053W        W28669   8.414  42.772  12.050
57054W        W28670  18.690  28.959  10.511
57055W        W28671  36.111  37.119   0.347
57056W        W28672  34.503  30.932   0.907
57057W        W28673  33.005  28.329   2.421
57058W        W28674  22.531  20.801  10.657
57059W        W28675   1.809  28.147   0.968
57060W        W28676  40.513  34.198  11.584
57061W        W28677  41.265  22.475   2.820
57062W        W28678  13.390  18.238  10.495
57063W        W28679  15.241  19.132  14.332
57064W        W28680  29.548  44.359   0.351
57065W        W28681  42.729  15.082   2.782
57066W        W28682   6.822  17.631  12.827
57067W        W28683  34.588  22.574   3.395
57068W        W28684   6.920  30.391   0.843
57069W        W28685  31.689  31.353  11.573
57070W        W28686  26.732  33.603  11.107
57071W        W28687  14.022  44.442  14.909
57072W        W28688   1.422  34.505   4.769
57073W        W28689   9.671  19.027   0.110
57074W        W28690  17.640  36.849  11.464
57075W        W28691  42.477  35.503   9.798
57076W        W28692  16.754   0.363   4.318
57077W        W28693  26.658  33.770   4.607
57078W        W28694  10.371  42.008  11.597
57079W        W28695   8.484  25.174   4.520
57080W        W28696   8.501   7.844  13.375
57081W        W28697  29.484  37.013   4.131
57082W        W28698  17.282  13.145  10.998
57083W        W28699  15.789  24.087   2.873
57084W        W28700  10.754  44.897  11.245
57085W        W28701   3.234   4.398   1.203
57086W        W28702  15.134  30.579   4.578
57087W        W28703  20.778   3.852   4.041
57088W        W28704   5.954  20.072   1.729
57089W        W28705  21.457  10.294   2.332
57090W        W28706  10.698   6.317   1.806
57091W        W28707   2.059   0.487   3.608
57092W        W28708  18.610  15.598  12.144
57093W        W28709  35.521  40.813   2.355
57094W        W28710  10.633  15.113  13.731
57095W        W28711  41.313  38.518  14.388
57096W        W28712  40.814  22.032  14.432
57097W        W28713   1.237  14.240  12.627
57098W        W28714  32.972  13.277  12.166
57099W        W28715  17.967   4.482   3.722
57100W        W28716  19.657  11.310  10.677
57101W        W28717   0.430  21.024  10.079
57102W        W28718  40.267  23.536   3.219
57103W        W28719  30.557  30.357  14.990
57104W        W28720   8.300  25.203  14.502
57105W        W28721  29.157  32.587   1.836
57106W        W28722  28.971   2.924   0.299
57107W        W28723  42.075  16.768   2.759
57108W        W28724  25.305  36.889   0.351
57109W        W28725  10.426   9.205   2.323
57110W        W28726   1.533  30.120  12.585
57111W        W28727   6.912  32.698   2.937
57112W        W28728  28.371  36.627   4.543
57113W        W28729  12.280  28.594   1.127
57114W        W28730  17.560  26.746   1.140
57115W        W28731   4.669  29.074   4.033
57116W        W28732  31.849  36.841   0.964
57117W        W28733  17.938  18.764  11.049
57118W        W28734   0.339  43.907  12.088
57119W        W28735  27.700   3.690   4.681
57120W        W28736  36.005   2.384  12.058
57121W        W28737   6.385   2.992  13.853
57122W        W28738   7.865   1.511  14.431
57123W        W28739  23.831  30.426  12.121
57124W        W28740  17.062  34.331   3.163
57125W        W28741   4.702  23.573   0.963
57126W        W28742  20.231  19.258  11.636
57127W        W28743  17.538  30.353   3.776
57128W        W28744  42.280  30.774  13.900
57129W        W28745  34.323   3.429  10.677
57130W        W28746  27.645  29.321  14.773
57131W        W28747  11.404  25.952   4.149
57132W        W28748  25.431  43.939   5.062
57133W        W28749  35.601   0.633  10.645
57134W        W28750  18.316  40.331  14.530
57135W        W28751  30.485  15.064  11.962
57136W        W28752  35.422  21.475  10.533
57137W        W28753  27.711  35.116  13.427
57138W        W28754  39.309  20.222   0.518
57139W        W28755  22.622   4.950   0.257
57140W        W28756  15.636  33.315   1.809
57141W        W28757  21.022  33.148  13.612
57142W        W28758  24.289  20.627   2.360
57143W        W28759  33.235  40.491   4.027
57144W        W28760  37.630   2.767   3.158
57145W        W28761   6.822  10.520   0.791
57146W        W28762  35.027   2.793   1.392
57147W        W28763  19.981  24.743   4.856
57148W        W28764  16.118  28.386  14.869
57149W        W28765  25.574  24.121   0.079
57150W        W28766  25.934  37.449   3.131
57151W        W28767  15.525  16.655   0.324
57152W        W28768  43.964  44.261   3.661
57153W        W28769  37.873  37.611   3.166
57154W        W28770   6.845  41.909   4.084
57155W        W28771   3.264  40.325   0.419
57156W        W28772   8.752  34.047   1.746
57157W        W28773  10.255   2.456   2.201
57158W        W28774  38.101  24.721   4.687
57159W        W28775   4.918  32.592  10.583
57160W        W28776  17.633  23.624   0.037
57161W        W28777  22.068  35.073   4.839
57162W        W28778  16.028  25.589  13.800
57163W        W28779  26.995  17.085   4.651
57164W        W28780  44.973  22.393   4.683
57165W        W28781  16.214  35.847  13.837
57166W        W28782  18.811  33.925  11.560
57167W        W28783  23.568   6.997   0.275
57168W        W28784   5.936  39.345  12.239
57169W        W28785  36.991  30.596   4.989
57170W        W28786  18.622   0.528   2.212
57171W        W28787  26.536  29.559   2.882
57172W        W28788   9.752  23.492  12.426
57173W        W28789  22.827  41.512  11.534
57174W        W28790  23.003  35.333   1.250
57175W        W28791  23.625  28.495  13.333
57176W        W28792  20.178  24.183   4.138
57177W        W28793  32.056  19.184   1.802
57178W        W28794  38.789  13.527   4.180
57179W        W28795  11.068  42.166   3.762
57180W        W28796  41.394  20.979   9.999
57181W        W28797   4.652   9.759  11.191
57182W        W28798  44.842  31.370  12.931
57183W        W28799  27.546  25.604   2.901
57184W        W28800  40.208   0.487   4.519
57185W        W28801  22.678  44.277   1.422
57186W        W28802  18.845  16.247   3.992
57187W        W28803  17.667  27.891   0.844
57188W        W28804   7.540  27.256  14.691
57189W        W28805  13.733   0.828  13.940
57190W        W28806  25.605  34.123  10.854
57191W        W28807  26.602  22.840   2.293
57192W        W28808  16.112   3.289   3.852
57193W        W28809  36.034   1.950  10.549
57194W        W28810  16.225   4.838  12.899
57195W        W28811  26.660  36.879   5.026
57196W        W28812   9.527   9.175   0.714
57197W        W28813   0.576  28.165   4.073
57198W        W28814  21.090   2.207   0.444
57199W        W28815   4.994   0.487   4.201
57200W        W28816   9.654  11.850  14.880
57201W        W28817  42.884  37.518   4.325
57202W        W28818   2.379  43.486  11.563
57203W        W28819  29.299  38.585  14.331
57204W        W28820  27.387  27.027  11.600
57205W        W28821  35.420  37.469  12.135
57206W        W28822  16.489  38.846   2.691
57207W        W28823   5.239  30.079  14.826
57208W        W28824  40.548  43.350   4.824
57209W        W28825  25.127  30.755   2.984
57210W        W28826   4.454   0.285   3.390
57211W        W28827  37.528   2.872  14.729
57212W        W28828   4.807  44.789  13.571
57213W        W28829   5.396   4.615  10.928
57214W        W28830  25.121  40.103  13.487
57215W        W28831  26.656  18.033  11.763
57216W        W28832   4.584  38.827   5.183
57217W        W28833  38.501  10.798  10.633
57218W        W28834  24.436   3.683   1.261
57219W        W28835  37.031  21.015  13.068
57220W        W28836  27.568  26.037  12.877
57221W        W28837   9.308  28.688   1.369
57222W        W28838  42.560  24.250  14.344
57223W        W28839   4.666   6.746  13.150
57224W        W28840   7.425  35.349   1.493
57225W        W28841  27.052  44.580  12.073
57226W        W28842  39.944   7.432  13.406
57227W        W28843   4.363   2.957   2.278
57228W        W28844  15.168   9.653   1.544
57229W        W28845  29.396  12.563   0.800
57230W        W28846  17.466  24.134   2.380
57231W        W28847   2.219  26.939   4.221
57232W        W28848  35.778  13.060  14.767
57233W        W28849   5.678  12.574  11.106
57234W        W28850  43.374  37.903  13.585
57235W        W28851  34.518  23.516   1.768
57236W        W28852  32.324  27.276  14.881
57237W        W28853   9.628  16.431   4.720
57238W        W28854   5.784  21.428   1.155
57239W        W28855  36.562  40.477   1.405
57240W        W28856  14.235   2.361  14.341
57241W        W28857  35.831   5.028  11.408
57242W        W28858  19.125   1.683   0.409
57243W        W28859  39.681  34.117   0.790
57244W        W28860  11.990   7.189   3.256
57245W        W28861  16.989   0.782   0.781
57246W        W28862  42.837  11.356   3.303
57247W        W28863  37.930  42.979  10.981
57248W        W28864   1.934  35.942   3.335
57249W        W28865  15.159  12.190  14.746
57250W        W28866  21.017  22.436   4.867
57251W        W28867   6.863  12.870  13.348
57252W        W28868  15.776  38.277   3.682
57253W        W28869  23.582  36.532  14.257
57254W        W28870   6.175  23.303   4.044
57255W        W28871  31.530  14.082  12.050
57256W        W28872  18.833  34.048   0.719
57257W        W28873  43.367  26.478   3.195
57258W        W28874  18.828  35.989   0.866
57259W        W28875  32.419  21.684   1.391
57260W        W28876  32.784   9.748   0.377
57261W        W28877  39.440  24.743  14.997
57262W        W28878  31.246  29.468  12.246
57263W        W28879  38.382  40.484  12.452
57264W        W28880  23.706  34.408  11.992
57265W        W28881  22.814  42.229  13.945
57266W        W28882   7.641  44.866   3.688
57267W        W28883  40.438  25.431  11.786
57268W        W28884   0.750  11.299  12.241
57269W        W28885  42.804  20.031   0.022
57270W        W28886  37.007   8.417   1.704
57271W        W28887  19.079  40.394   2.825
57272W        W28888  11.919  13.786  13.867
57273W        W28889  16.250   3.378  14.398
57274W        W28890  22.611   2.517   4.432
57275W        W28891  24.827  12.666  14.522
57276W        W28892  18.775  27.632   4.129
57277W        W28893  25.195  13.353   0.530
57278W        W28894   9.329  15.613  14.033
57279W        W28895  35.649   3.806   0.945
57280W        W28896  39.896  44.388  10.674
57281W        W28897  23.819   7.451   3.503
57282W        W28898  21.817  26.380  12.861
57283W        W28899   3.946   9.268  13.818
57284W        W28900   9.420   3.861   0.843
57285W        W28901  29.746  38.928  14.575
57286W        W28902  25.299   2.824   2.901
57287W        W28903  30.015  32.825  13.816
57288W        W28904  42.323  21.517   1.784
57289W        W28905  34.257   9.438  12.047
57290W        W28906  21.872  40.568  11.393
57291W        W28907  28.969  23.200  11.156
57292W        W28908  36.945  28.052  13.312
57293W        W28909   7.804   7.650   0.537
57294W        W28910  37.460  31.647   2.130
57295W        W28911  17.635  17.882  10.025
57296W        W28912   2.617  13.490  11.182
57297W        W28913   3.506  22.498  10.274
57298W        W28914  40.022  44.897  14.908
57299W        W28915  29.478  30.167   5.483
57300W        W28916  40.167   5.019   1.829
57301W        W28917  41.616  10.887   0.414
57302W        W28918  43.101  42.489  14.836
57303W        W28919  21.649  10.462  13.908
57304W        W28920   3.690  16.708   3.658
57305W        W28921   7.318  13.097  13.564
57306W        W28922  43.346  43.741  12.978
57307W        W28923  27.697  34.770  11.488
57308W        W28924  44.428  36.742  11.489
57309W        W28925  33.813  39.502  14.664
57310W        W28926   4.529  12.271  11.977
57311W        W28927   6.795  15.842  13.786
57312W        W28928  21.187  27.641   2.267
57313W        W28929  36.056  13.304   1.762
57314W        W28930  35.122   2.195   4.532
57315W        W28931   2.326  23.017   4.549
57316W        W28932  12.129  30.388   4.229
57317W        W28933  14.269  44.999   3.168
57318W        W28934  23.057  35.317  12.365
57319W        W28935  39.145  41.514   3.679
57320W        W28936  39.107   3.047   4.358
57321W        W28937   6.575   6.837   2.663
57322W        W28938  20.644  34.090   3.137
57323W        W28939  20.248  20.623   3.355
57324W        W28940  15.648  33.526  12.470
57325W        W28941  28.150  42.841  13.912
57326W        W28942  19.156   5.286  11.138
57327W        W28943   6.118  35.766  12.883
57328W        W28944   6.513   5.263   2.996
57329W        W28945  24.994  19.826   3.681
57330W        W28946  22.878  35.632   2.331
57331W        W28947  23.960  11.040   2.221
57332W        W28948  18.162  41.005   4.095
57333W        W28949   7.052  29.312   1.282
57334W        W28950  16.210  26.188   0.535
57335W        W28951  37.566  43.993  10.791
57336W        W28952  33.960  32.232   0.369
57337W        W28953  43.545   8.128  12.482
57338W        W28954  21.928   7.149   1.780
57339W        W28955  37.991  16.602  13.657
57340W        W28956   7.832  44.344  13.872
57341W        W28957  23.986  13.844  14.306
57342W        W28958  18.611  33.466   2.824
57343W        W28959  35.465  16.211   4.395
57344W        W28960  25.487  38.198   3.677
57345W        W28961   1.523  20.462   3.712
57346W        W28962  33.480   1.714   5.543
57347W        W28963   0.564  38.166   1.853
57348W        W28964  16.728  21.445  11.775
57349W        W28965  10.897  27.174  11.250
57350W        W28966  43.963  12.100  12.002
57351W        W28967  11.234   8.328  13.142
57352W        W28968  41.854  21.999  12.543
57353W        W28969  22.125  20.947   0.818
57354W        W28970   7.308  30.170   1.680
57355W        W28971  42.888  36.544  11.533
57356W        W28972  13.949  30.021  11.056
57357W        W28973   5.868   0.722  13.132
57358W        W28974  22.783  11.350   1.746
57359W        W28975  28.941   3.547  12.550
57360W        W28976  14.265  41.888   1.376
57361W        W28977  23.283  33.001  11.011
57362W        W28978   7.349  36.261   1.615
57363W        W28979  19.114  22.737  13.472
57364W        W28980  31.928  17.539  13.360
57365W        W28981  10.790   5.574   1.204
57366W        W28982  29.885  37.454  13.612
57367W        W28983  13.289  17.584  14.333
57368W        W28984  41.843  25.369   0.292
57369W        W28985  12.619   8.847   2.369
57370W        W28986  27.569  17.841  14.784
57371W        W28987   1.026   8.898   0.221
57372W        W28988  15.561  38.453  10.469
57373W        W28989  38.094  17.374  13.712
57374W        W28990   3.689  34.972   3.278
57375W        W28991  42.546   6.259   1.452
57376W        W28992  13.201   0.611   1.142
57377W        W28993  21.585  17.120  13.403
57378W        W28994  17.037  20.032   4.124
57379W        W28995  13.354  34.422   1.914
57380W        W28996  36.515  26.051   4.678
57381W        W28997  30.419  13.675  13.277
57382W        W28998  38.761  27.462  10.163
57383W        W28999  29.156  38.450   4.853
57384W        W29000   6.731  35.326  13.391
57385W        W29001  28.902  27.092   1.825
57386W        W29002  14.011  38.911  13.367
57387W        W29003  43.877  34.733  13.072
57388W        W29004   5.102  37.338   3.219
57389W        W29005  23.379  36.131  13.955
57390W        W29006  36.926  42.773  13.668
57391W        W29007  42.319  27.121   1.916
57392W        W29008  13.313   9.211  11.534
57393W        W29009  11.183  13.226   0.358
57394W        W29010  27.375  14.835   4.878
57395W        W29011  16.673  32.264   0.339
57396W        W29012  16.890  30.011  12.087
57397W        W29013  41.069  35.890  12.478
57398W        W29014  18.278  42.980  12.570
57399W        W29015  37.041  16.825  10.685
57400W        W29016  23.436  34.618  14.835
57401W        W29017  12.923  42.008   0.268
57402W        W29018  23.882  18.163  13.682
57403W        W29019   6.212  14.117  12.524
57404W        W29020   7.395  30.039   2.193
57405W        W29021  34.877  14.135   2.664
57406W        W29022  26.161  43.059  14.936
57407W        W29023  35.327   9.032   2.676
57408W        W29024  13.092  14.706  12.891
57409W        W29025  43.917  11.739   1.236
57410W        W29026  13.286  44.464  13.095
57411W        W29027  29.767  25.128   0.330
57412W        W29028  19.822  26.450   0.831
57413W        W29029  41.351  26.060   3.811
57414W        W29030  25.254  23.014  10.568
57415W        W29031  27.864  36.400  12.418
57416W        W29032   6.990  30.158  11.088
57417W        W29033   6.064  19.318  12.136
57418W        W29034   9.653  25.547   0.291
57419W        W29035  41.977   7.775   4.035
57420W        W29036  40.421   9.322   4.263
57421W        W29037  17.087  25.651   0.223
57422W        W29038  39.331  41.557  13.656
57423W        W29039  25.759  28.875   2.792
57424W        W29040   0.832   7.234  11.557
57425W        W29041   6.321  25.232   3.428
57426W        W29042  17.661  19.478  11.789
57427W        W29043  27.034  39.384   1.614
57428W        W29044  40.033  36.595   1.428
57429W        W29045  13.429   2.739  12.937
57430W        W29046  21.210  36.977  13.099
57431W        W29047  35.025  26.744   1.686
57432W        W29048  41.831  19.684  14.332
57433W        W29049  12.348  33.752   2.133
57434W        W29050   1.928  31.566   3.381
57435W        W29051  40.958   6.896   0.914
57436W        W29052  32.571  36.563   3.307
57437W        W29053  17.875  15.100  13.490
57438W        W29054  39.860  40.327  11.705
57439W        W29055   1.390   4.332  11.613
57440W        W29056  38.007   1.818   2.725
57441W        W29057  28.106  25.656   4.781
57442W        W29058  43.572  37.668  11.971
57443W        W29059   3.803   1.214  11.536
57444W        W29060  14.741  36.175   4.752
57445W        W29061   1.425  36.682  14.014
57446W        W29062  33.471   6.007   2.861
57447W        W29063   2.420  27.882  12.872
57448W        W29064  21.703  31.571   1.273
57449W        W29065  29.924  24.243  13.498
57450W        W29066   3.433  11.768   1.876
57451W        W29067  20.705   3.436   3.300
57452W        W29068  34.377  44.562   2.644
57453W        W29069  21.761   5.334  11.838
57454W        W29070  36.487  37.094   3.111
57455W        W29071  12.221   1.940   0.792
57456W        W29072  25.545  25.964   1.347
57457W        W29073  16.113   7.239   1.435
57458W        W29074  16.843  43.407  13.748
57459W        W29075  12.073  27.927  14.319
57460W        W29076  25.435  24.096   1.474
57461W        W29077   7.861  38.828  13.592
57462W        W29078   3.284  44.536   2.828
57463W        W29079  34.068   6.468  10.238
57464W        W29080  20.640  27.413   4.577
57465W        W29081   0.497  17.141   4.822
57466W        W29082   1.928   6.143   2.376
57467W        W29083  15.541  17.499  12.917
57468W        W29084  24.160  31.881   2.788
57469W        W29085  35.899  40.314  10.685
57470W        W29086   3.450  14.543  14.770
57471W        W29087  27.499  19.006   0.944
57472W        W29088  16.063  35.551   4.129
57473W        W29089  40.546  43.690  10.674
57474W        W29090  21.776   1.553   4.404
57475W        W29091  28.300  13.677  10.606
57476W        W29092  35.851  23.025  13.591
57477W        W29093   6.341  39.498   4.388
57478W        W29094  41.464  17.650  13.770
57479W        W29095  10.239  23.605   3.909
57480W        W29096  41.993  18.516   3.720
57481W        W29097  17.882  25.069  12.453
57482W        W29098   9.300  44.975   2.726
57483W        W29099   9.373  16.365   4.246
57484W        W29100  23.059  15.791  13.192
57485W        W29101  23.757  43.031   0.895
57486W        W29102  11.538  18.861   4.251
57487W        W29103  11.768  25.762  12.431
57488W        W29104  24.201  20.040  14.579
57489W        W29105   2.880  11.119   3.256
57490W        W29106  16.074  32.017  14.070
57491W        W29107  42.951  43.824  11.556
57492W        W29108   2.659   5.784   0.698
57493W        W29109  20.083   2.932   0.081
57494W        W29110  39.533  29.885   2.755
57495W        W29111  20.202  12.910  10.727
57496W        W29112  12.566   5.933  14.946
57497W        W29113  38.402  16.513  12.692
57498W        W29114  23.459  44.347  12.911
57499W        W29115  43.355  27.186   4.401
57500W        W29116  18.072  38.455  10.866
57501W        W29117  37.438  24.090   3.377
57502W        W29118  30.579  10.240  12.264
57503W        W29119   5.795  37.395  10.411
57504W        W29120  27.521  26.544  10.751
57505W        W29121  36.909  40.161   2.783
57506W        W29122   8.137   4.263  11.112
57507W        W29123  18.117   2.381  13.976
57508W        W29124  41.278  26.574  14.247
57509W        W29125  28.114  10.376   1.321
57510W        W29126  42.167  14.259   2.644
57511W        W29127  33.414  14.712   3.807
57512W        W29128  34.437  41.929  10.829
57513W        W29129  11.075  41.623  12.895
57514W        W29130  16.627   2.332   0.815
57515W        W29131  30.375  17.091   0.795
57516W        W29132  36.862  21.980   3.490
57517W        W29133  15.036   9.969   1.171
57518W        W29134  36.844  28.153  11.658
57519W        W29135  17.991  44.536  10.230
57520W        W29136   9.751   2.088   1.381
57521W        W29137  10.275  28.737   2.374
57522W        W29138  44.876  23.244   0.725
57523W        W29139  18.045  10.687   4.490
57524W        W29140  40.121  23.052  14.736
57525W        W29141  18.114  17.770   2.201
57526W        W29142  23.455  36.868   3.383
57527W        W29143  38.504  23.680   3.375
57528W        W29144   3.516  29.659  14.277
57529W        W29145  15.596   7.227   1.425
57530W        W29146   8.131  14.598  13.614
57531W        W29147   7.391  33.529   3.370
57532W        W29148  14.364  38.160   4.656
57533W        W29149   3.239   7.361   2.546
57534W        W29150  11.355  41.013   4.239
57535W        W29151  26.029  15.298   2.202
57536W        W29152  40.440  30.014   1.910
57537W        W29153   3.332   6.831   3.825
57538W        W29154  12.227  18.776   2.756
57539W        W29155   7.171  24.617  13.835
57540W        W29156  13.758  16.679   2.893
57541W        W29157  15.015  37.433  14.408
57542W        W29158  20.397  40.030  11.639
57543W        W29159   0.483  40.412  12.898
57544W        W29160  36.688  32.447  10.794
57545W        W29161  42.952  11.640  11.953
57546W        W29162  34.968  41.844   1.907
57547W        W29163  33.980  29.588   3.172
57548W        W29164  26.928  13.168  12.922
57549W        W29165  38.808  41.493  10.509
57550W        W29166  27.976   8.779   2.960
57551W        W29167  42.069  18.272  13.566
57552W        W29168  21.791   2.455   3.400
57553W        W29169  17.693  20.802   1.825
57554W        W29170  14.215   4.926  11.551
57555W        W29171  19.663  16.548  13.939
57556W        W29172  30.571  37.336  12.965
57557W        W29173  40.582  27.363  11.613
57558W        W29174  26.490  35.506  10.848
57559W        W29175  14.456  21.007  13.051
57560W        W29176  36.901  20.100   2.880
57561W        W29177   8.865   1.225   2.802
57562W        W29178  15.267   1.312  11.538
57563W        W29179  33.438   0.077  11.566
57564W        W29180  42.847  26.885   4.670
57565W        W29181  21.232  15.331   0.938
57566W        W29182  26.676  26.780   1.447
57567W        W29183  39.818  44.070   4.641
57568W        W29184  42.859   7.033  11.897
57569W        W29185  24.023   5.943   2.736
57570W        W29186  35.985   4.465   4.566
57571W        W29187  12.105  38.792  14.713
57572W        W29188  14.593   6.264   4.396
57573W        W29189  30.917  43.372   3.136
57574W        W29190  12.659  20.722   3.113
57575W        W29191  28.481  16.856  13.491
57576W        W29192  15.327  34.399  11.461
57577W        W29193  35.530  17.988   1.901
57578W        W29194   8.804  36.372   4.589
57579W        W29195  43.539  34.467   2.208
57580W        W29196  27.533  28.433   1.391
57581W        W29197  15.683   8.756  12.462
57582W        W29198  41.826  32.142   3.195
57583W        W29199   1.244  30.094  14.431
57584W        W29200   9.882  40.491  13.385
57585W        W29201   5.304  38.255   0.523
57586W        W29202  39.229  18.854   9.775
57587W        W29203   4.427  25.449   0.689
57588W        W29204   6.698  28.603   2.441
57589W        W29205   4.407  34.343  14.986
57590W        W29206  15.805  44.043  10.286
57591W        W29207   9.093   0.517   1.579
57592W        W29208  14.793  28.061  11.704
57593W        W29209  13.277  22.705   5.062
57594W        W29210  37.819  40.414  13.800
57595W        W29211   7.468   7.362   2.729
57596W        W29212  12.214  40.346   3.380
57597W        W29213  37.074  44.933   0.414
57598W        W29214  10.778  37.541  10.736
57599W        W29215  43.393   5.422   0.738
57600W        W29216   8.862  42.418  12.010
57601W        W29217  42.493  26.909   3.328
57602W        W29218  25.630  38.973   3.332
57603W        W29219   6.015  26.336  10.699
57604W        W29220  26.122  43.086  11.383
57605W        W29221  25.237  30.853  14.792
57606W        W29222  12.686  27.662   0.997
57607W        W29223   4.686  18.109  10.953
57608W        W29224   2.319  21.093   3.892
57609W        W29225  25.722  31.023   4.164
57610W        W29226  12.379  34.098   1.744
57611W        W29227  37.311  23.047  11.155
57612W        W29228   0.166   1.455  10.602
57613W        W29229  19.905   0.321  12.592
57614W        W29230  16.671  12.695  13.486
57615W        W29231  28.744  11.337   1.798
57616W        W29232  24.223   1.424  11.522
57617W        W29233  41.770  28.665  12.218
57618W        W29234  22.406  16.270  10.943
57619W        W29235   6.385  32.295  11.626
57620W        W29236  28.455   6.393  10.481
57621W        W29237   5.260  14.325   0.487
57622W        W29238   0.229  35.871  10.616
57623W        W29239  36.281  21.599  13.145
57624W        W29240  29.457  29.916  11.437
57625W        W29241  21.094  27.988   1.281
57626W        W29242  13.912  29.109   1.269
57627W        W29243  16.710  42.064  13.930
57628W        W29244  17.068  28.872   4.082
57629W        W29245  25.552  26.115  12.296
57630W        W29246  29.076  41.874  10.809
57631W        W29247  11.130  10.918  13.462
57632W        W29248  11.404   8.482   1.420
57633W        W29249  37.777  30.409   2.191
57634W        W29250  18.320  36.421   1.363
57635W        W29251  37.669  37.265   4.077
57636W        W29252  13.359   5.174   1.837
57637W        W29253  28.672  38.000  11.891
57638W        W29254  25.170  11.794  14.534
57639W        W29255  41.578  33.555   1.134
57640W        W29256   8.756   2.718  14.018
57641W        W29257  34.421  11.594  11.052
57642W        W29258  29.472   7.060  14.582
57643W        W29259  31.718  17.519  14.863
57644W        W29260   6.820  26.644  10.973
57645W        W29261  44.437  15.044  10.401
57646W        W29262  16.524   8.339   1.357
57647W        W29263  42.712  18.275   1.904
57648W        W29264  30.182  23.849  13.229
57649W        W29265  26.305  23.189  14.039
57650W        W29266  20.608  36.620   4.413
57651W        W29267  34.886  23.234  11.969
57652W        W29268   6.688  28.605   0.677
57653W        W29269  33.351   2.874   3.869
57654W        W29270  30.693  17.722   1.572
57655W        W29271  20.273  35.938   1.413
57656W        W29272  13.603   0.299  13.025
57657W        W29273  44.003  22.307   2.171
57658W        W29274   2.701  27.484   3.685
57659W        W29275   2.998  29.595   4.530
57660W        W29276  20.445   4.355  10.651
57661W        W29277   4.891   6.023   0.503
57662W        W29278  13.451  35.827  13.174
57663W        W29279  32.220   3.318   3.997
57664W        W29280  24.209  43.940   3.237
57665W        W29281  36.446  29.499   4.560
57666W        W29282   3.195  41.487   2.640
57667W        W29283  38.000  18.803   0.978
57668W        W29284  39.026  41.984  10.597
57669W        W29285   6.811   9.317   4.030
57670W        W29286  16.774  15.336  10.558
57671W        W29287  35.198   1.036  11.581
57672W        W29288  26.613  33.160  13.368
57673W        W29289  21.608   1.998   5.106
57674W        W29290  41.963  38.119   2.373
57675W        W29291  14.428  13.221  14.622
57676W        W29292  30.559  40.001  13.475
57677W        W29293   4.215   0.823  12.709
57678W        W29294  20.052  43.065  12.230
57679W        W29295  17.992  39.544   4.495
57680W        W29296  31.519  40.383   2.742
57681W        W29297  43.843  39.684  13.453
57682W        W29298   9.799  35.104   3.566
57683W        W29299   6.548  13.131  11.096
57684W        W29300   4.272  15.889  11.043
57685W        W29301  24.025   7.937  12.594
57686W        W29302  16.004   5.005  11.555
57687W        W29303   4.121   0.107   0.375
57688W        W29304  34.045  35.623   3.148
57689W        W29305  25.114   2.546   0.914
57690W        W29306  17.554  25.533   4.474
57691W        W29307   4.274  31.332   1.323
57692W        W29308  22.845  20.747  14.339
57693W        W29309  23.058  38.390   1.767
57694W        W29310  41.449  37.034  11.166
57695W        W29311  18.504  20.910   3.252
57696W        W29312  19.598  36.614   2.824
57697W        W29313  29.553   6.655  14.897
57698W        W29314   9.221  35.092   4.835
57699W        W29315  12.850  21.529  14.909
57700W        W29316  37.387  29.447  14.742
57701W        W29317  37.114  23.427   4.617
57702W        W29318   9.121  22.341   4.926
57703W        W29319  37.860   9.882   5.032
57704W        W29320  13.296  36.790   2.139
57705W        W29321  11.623  13.862   0.255
57706W        W29322  24.076   1.915  12.257
57707W        W29323   3.290  27.142   1.729
57708W        W29324  19.625  31.158   2.679
57709W        W29325  17.669  43.737   3.373
57710W        W29326  41.454  33.976  14.637
57711W        W29327  16.553  25.617  14.465
57712W        W29328  16.378  39.096   2.249
57713W        W29329  33.447  12.523   9.999
57714W        W29330  28.414   9.423  13.848
57715W        W29331  33.124  26.649  12.995
57716W        W29332  19.794  25.197   1.093
57717W        W29333  27.181   7.713   2.104
57718W        W29334   7.396  38.493   4.643
57719W        W29335  21.518   4.690  14.475
57720W        W29336  26.495   8.559   0.317
57721W        W29337   0.991  35.267   4.061
57722W        W29338  20.681  18.961  11.562
57723W        W29339  10.619  21.849  10.144
57724W        W29340  16.595  43.812   4.653
57725W        W29341  17.228  11.130   2.368
57726W        W29342  14.238  28.955   3.287
57727W        W29343  37.154  28.812  13.951
57728W        W29344  31.947   7.131  12.845
57729W        W29345  42.995   0.722   1.378
57730W        W29346  14.855  33.454   1.340
57731W        W29347  38.475  20.507   2.260
57732W        W29348  16.994  43.665  12.465
57733W        W29349  24.479   8.875   2.373
57734W        W29350   5.302   9.831  10.594
57735W        W29351  42.758  18.198  12.131
57736W        W29352  34.152  16.149  11.921
57737W        W29353  39.332  18.500   1.843
57738W        W29354  17.182  25.158  11.320
57739W        W29355  29.229   9.241   4.816
57740W        W29356   4.711  26.602  13.071
57741W        W29357  37.499   1.336   2.602
57742W        W29358  21.735  39.434   3.040
57743W        W29359   8.191  31.327   1.785
57744W        W29360  30.202  23.150  11.174
57745W        W29361  41.686  21.820  12.036
57746W        W29362  12.714  37.100  10.859
57747W        W29363  37.002   4.332   1.910
57748W        W29364  13.043   0.870   2.801
57749W        W29365   5.398  39.935   1.258
57750W        W29366  16.599  17.082   4.117
57751W        W29367  25.382  34.527  14.778
57752W        W29368  28.049   2.290  14.017
57753W        W29369  36.042  29.566  14.885
57754W        W29370  33.990   8.368  11.620
57755W        W29371   8.802  38.928   0.370
57756W        W29372   0.126  22.594   1.001
57757W        W29373   9.559  31.498  14.659
57758W        W29374  28.907   6.677  14.386
57759W        W29375  25.694  35.016   0.365
57760W        W29376  11.793  24.178  12.242
57761W        W29377  33.504   2.794   4.870
57762W        W29378  40.551   9.437  12.427
57763W        W29379  38.913   1.490   4.694
57764W        W29380  26.681  42.722   0.855
57765W        W29381  17.163  35.034  14.352
57766W        W29382  30.067   9.106  12.935
57767W        W29383  37.431   8.980  10.557
57768W        W29384  12.870  20.281   3.303
57769W        W29385  17.620   8.712   2.683
57770W        W29386  25.200  44.719   3.900
57771W        W29387   5.987  40.812   1.120
57772W        W29388  38.039  26.032   1.256
57773W        W29389  19.986  10.924  10.621
57774W        W29390  21.707   4.850   0.439
57775W        W29391  28.390  32.921   0.740
57776W        W29392  16.646   2.990   0.600
57777W        W29393  26.248  34.491   0.901
57778W        W29394  22.660  30.503   4.613
57779W        W29395   8.200  21.317  14.048
57780W        W29396  26.448  24.016  11.114
57781W        W29397  43.147   8.146  11.171
57782W        W29398  34.168  27.356  11.101
57783W        W29399  25.159  37.904   2.355
57784W        W29400   6.140  41.820   1.202
57785W        W29401  27.172   0.786   2.227
57786W        W29402  28.221  14.849  11.924
57787W        W29403   0.416  26.773   4.178
57788W        W29404  19.232  36.628  13.891
57789W        W29405  29.933  25.530  14.000
57790W        W29406  42.025   0.538   2.727
57791W        W29407   9.280  35.102   4.332
57792W        W29408  35.074  27.030   1.235
57793W        W29409   8.956  25.322  13.751
57794W        W29410  28.026  33.530   1.475
57795W        W29411  11.040  23.935   3.720
57796W        W29412  27.460  44.788   0.419
57797W        W29413  39.157  11.974   0.750
57798W        W29414  42.573   3.800  14.479
57799W        W29415  34.371  11.745   4.645
57800W        W29416  42.414  24.092  12.616
57801W        W29417  27.859  22.518   4.177
57802W        W29418  38.027   3.741   0.922
57803W        W29419   6.394  41.916   4.364
57804W        W29420   1.675  34.439  13.118
57805W        W29421  13.802  29.887   2.779
57806W        W29422  19.862   0.693  11.016
57807W        W29423  36.571  14.047   9.995
57808W        W29424   0.319   6.685  10.946
57809W        W29425   9.798  20.045   4.154
57810W        W29426  22.536  17.602   1.749
57811W        W29427   2.511  12.595   1.252
57812W        W29428  33.128  24.463   4.151
57813W        W29429  26.085  44.108  13.868
57814W        W29430   4.855  39.836  11.635
57815W        W29431  36.594  13.031  13.300
57816W        W29432   8.365  26.154  14.518
57817W        W29433  37.372  27.543  10.674
57818W        W29434  40.410  41.395  10.435
57819W        W29435  32.334  28.470  13.648
57820W        W29436   0.787  42.326  11.466
57821W        W29437  34.497   5.797  11.146
57822W        W29438  36.581   2.443  11.003
57823W        W29439   7.850  15.796  13.970
57824W        W29440  19.399  31.097  10.700
57825W        W29441  37.657  25.625  12.231
57826W        W29442  36.933  25.156  12.647
57827W        W29443  38.818  21.254   4.036
57828W        W29444  32.202  18.258   2.985
57829W        W29445  41.326  24.216  13.447
57830W        W29446  25.236  30.842   4.251
57831W        W29447  44.265  33.922   0.109
57832W        W29448  30.043  39.130  14.972
57833W        W29449  26.819  40.498  12.454
57834W        W29450  25.918  41.605  10.990
57835W        W29451   5.363  16.655  13.748
57836W        W29452  24.772   4.252  13.894
57837W        W29453  22.279  19.096   0.612
57838W        W29454  13.509   9.382   3.378
57839W        W29455  32.346  29.895  11.579
57840W        W29456  30.678  20.798   1.207
57841W        W29457  10.674  33.915  12.509
57842W        W29458  34.139  35.878   3.572
57843W        W29459  33.572  25.183   3.634
57844W        W29460   7.653  25.115   2.333
57845W        W29461  30.498  17.340   2.678
57846W        W29462  38.459   9.694  12.413
57847W        W29463   7.138  36.070   3.239
57848W        W29464  15.346  31.861   2.153
57849W        W29465  19.217  43.267   3.313
57850W        W29466  18.832  23.141  11.058
57851W        W29467  16.732  40.756   4.639
57852W        W29468  15.830  14.732  11.072
57853W        W29469   3.130  28.324  14.138
57854W        W29470  10.175  33.699   3.738
57855W        W29471  26.647  29.990   2.174
57856W        W29472  11.121   4.126  10.576
57857W        W29473  11.896   7.045  12.588
57858W        W29474  35.627  17.600   0.942
57859W        W29475  28.471  24.726  14.005
57860W        W29476  24.307  18.411  13.943
57861W        W29477  20.864   6.826  10.466
57862W        W29478  11.119  40.246   3.177
57863W        W29479   5.386   8.705   3.193
57864W        W29480   3.023  33.713   0.935
57865W        W29481  22.988  19.661  14.781
57866W        W29482  21.453   6.433   2.846
57867W        W29483  16.285  33.815   3.765
57868W        W29484  16.112  34.602   3.283
57869W        W29485  34.822  32.384  10.993
57870W        W29486  22.058  44.201  13.781
57871W        W29487  36.535  17.762  12.441
57872W        W29488  33.150   7.718   0.460
57873W        W29489  29.703  27.262  11.557
57874W        W29490   4.246   5.315  12.681
57875W        W29491  10.745  42.004  10.584
57876W        W29492  13.648  25.901  11.391
57877W        W29493  38.936  29.012  12.546
57878W        W29494  25.645   0.647   5.238
57879W        W29495  34.756  43.250  12.051
57880W        W29496  11.735   7.783   3.888
57881W        W29497  15.050  17.731   4.556
57882W        W29498  33.069  42.356   3.481
57883W        W29499  41.861   5.730  12.388
57884W        W29500  33.583   3.572   0.258
57885W        W29501  13.281  20.229  14.716
57886W        W29502  10.090  26.241   0.913
57887W        W29503  15.251  11.197   3.403
57888W        W29504  38.158  24.724  13.391
57889W        W29505  44.057   3.213   4.114
57890W        W29506  33.946   8.805  10.380
57891W        W29507  25.267  10.418  14.871
57892W        W29508  28.956  17.091  11.855
57893W        W29509  11.772  18.909  12.358
57894W        W29510  28.723  19.197  11.367
57895W        W29511  10.625   9.915   4.190
57896W        W29512  33.006  14.359  14.326
57897W        W29513   5.663  23.748   2.807
57898W        W29514  15.183   9.157   3.701
57899W        W29515  31.013   7.927   0.795
57900W        W29516   6.302  33.115   2.895
57901W        W29517  42.857  10.982   2.871
57902W        W29518   4.432  27.711  10.606
57903W        W29519  25.058  26.070   0.362
57904W        W29520  14.124  12.174  13.156
57905W        W29521   9.198  16.114   4.681
57906W        W29522  36.606  25.792  12.494
57907W        W29523  17.235  12.362   3.677
57908W        W29524  17.314  38.807   3.342
57909W        W29525  42.364  23.603  12.458
57910W        W29526  36.440  14.131   5.226
57911W        W29527   2.335  22.537   2.320
57912W        W29528  10.286  27.616   1.405
57913W        W29529  39.481  35.082  11.179
57914W        W29530  11.607   4.867   3.126
57915W        W29531  40.508  15.462   2.285
57916W        W29532  21.481  12.831   1.792
57917W        W29533   5.555   4.609  11.454
57918W        W29534   9.132   3.836  11.569
57919W        W29535   9.171   5.836  13.502
57920W        W29536  28.891  24.072  11.915
57921W        W29537  43.401  41.958  13.498
57922W        W29538   1.211  23.140  13.179
57923W        W29539   2.573  17.616  13.630
57924W        W29540   5.185  41.222   1.816
57925W        W29541  20.698  20.560   1.738
57926W        W29542  34.518  43.300   4.327
57927W        W29543   7.408  33.687  14.392
57928W        W29544   0.945  27.557   4.715
57929W        W29545  25.653  35.081  14.858
57930W        W29546  42.834   8.248   0.481
57931W        W29547  37.983  41.073   1.368
57932W        W29548  33.144   6.202  10.655
57933W        W29549  21.639  40.948  12.650
57934W        W29550  27.506  28.921  13.811
57935W        W29551  40.601  10.737   0.191
57936W        W29552  15.863  34.118   1.288
57937W        W29553   2.747  15.400   1.301
57938W        W29554   6.420  42.450   1.969
57939W        W29555  19.940  15.627   1.084
57940W        W29556  32.255  26.254   1.364
57941W        W29557  30.744   2.937  10.477
57942W        W29558   5.927   8.796  11.700
57943W        W29559  43.411  20.253  10.610
57944W        W29560  14.372  26.079  12.024
57945W        W29561  11.548  23.996  11.331
57946W        W29562  40.384  38.414  10.894
57947W        W29563   7.357  27.589   2.319
57948W        W29564  18.754  33.849  12.404
57949W        W29565  12.651   2.559  12.565
57950W        W29566  15.947  21.723  12.213
57951W        W29567   3.420   5.896   4.529
57952W        W29568  11.067  25.721   4.476
57953W        W29569   6.337  22.132  12.003
57954W        W29570   4.801  30.593   1.794
57955W        W29571   0.553  24.182   5.419
57956W        W29572  28.604  13.365  14.489
57957W        W29573  19.322  37.499  12.539
57958W        W29574   2.416  31.466   3.241
57959W        W29575  43.320  10.869   0.655
57960W        W29576  34.199   2.261  13.694
57961W        W29577  21.212   5.962  10.993
57962W        W29578  25.355   7.453   2.688
57963W        W29579  40.541  14.700   4.351
57964W        W29580  30.476   7.473   4.271
57965W        W29581   5.351  37.191   2.731
57966W        W29582  42.679   2.061  14.832
57967W        W29583   2.943  20.166   1.704
57968W        W29584  41.877  29.070  11.932
57969W        W29585  22.963  31.704  13.959
57970W        W29586   7.618   8.690  12.600
57971W        W29587  25.104   8.174   1.289
57972W        W29588  29.206  19.658  12.492
57973W        W29589  30.467  23.284   1.357
57974W        W29590  26.142  36.295  14.485
57975W        W29591  25.636  20.735   4.241
57976W        W29592   8.322  20.958   3.754
57977W        W29593  29.449   5.899  12.136
57978W        W29594   4.967  26.446   4.934
57979W        W29595  21.088   8.652   2.630
57980W        W29596   6.775  36.374   0.902
57981W        W29597  42.500  33.954   0.819
57982W        W29598  22.080   8.190  12.405
57983W        W29599  33.474   1.351   4.212
57984W        W29600  38.503  17.610  10.766
57985W        W29601  22.483   8.616  10.761
57986W        W29602  26.798  27.449  10.661
57987W        W29603   9.200  28.046   2.529
57988W        W29604  12.235  44.948  11.779
57989W        W29605  37.328  26.909   0.051
57990W        W29606  10.555   4.327  14.605
57991W        W29607   3.999  17.841   1.783
57992W        W29608  23.967  17.574  10.609
57993W        W29609  20.726  35.487   1.872
57994W        W29610  10.653  33.521  11.067
57995W        W29611  38.571  40.181  13.448
57996W        W29612  21.220  37.166   4.951
57997W        W29613  22.686  19.260  10.716
57998W        W29614  30.404  15.350   1.257
57999W        W29615   4.367   8.491   4.549
58000W        W29616   5.861   0.017   4.176
58001W        W29617  42.844  19.990  14.504
58002W        W29618  19.263  41.206   4.921
58003W        W29619  27.892  16.714  14.274
58004W        W29620  10.273  10.319  12.875
58005W        W29621  13.829   1.740   3.384
58006W        W29622  41.466  35.077  13.426
58007W        W29623  30.933  23.424  11.635
58008W        W29624  38.418  16.651  10.801
58009W        W29625  27.916  32.583   2.907
58010W        W29626   5.927   2.671  11.737
58011W        W29627  18.703  17.286   2.677
58012W        W29628  17.975  26.005  14.914
58013W        W29629  35.846   9.235  14.903
58014W        W29630  12.289  14.140   3.792
58015W        W29631  28.453  34.866   1.388
58016W        W29632  13.750  40.992   5.006
58017W        W29633  25.738  13.262  13.594
58018W        W29634  14.975   1.561  11.187
58019W        W29635   7.407  41.481  12.418
58020W        W29636  35.872  39.168   1.336
58021W        W29637  43.919  14.242  10.404
58022W        W29638  30.366   3.251  14.375
58023W        W29639  43.546  15.712  13.945
58024W        W29640  21.143   8.980   0.723
58025W        W29641  37.956   1.726  13.595
58026W        W29642  19.499  38.619   3.613
58027W        W29643   2.763  22.838  14.475
58028W        W29644   4.447  39.420   1.722
58029W        W29645   6.706  24.654   1.863
58030W        W29646  37.562  22.735   0.526
58031W        W29647  44.423  32.346  14.679
58032W        W29648  30.339  17.230  11.204
58033W        W29649  35.750  35.619   2.767
58034W        W29650   3.786  32.338  12.377
58035W        W29651  15.570  20.850  11.287
58036W        W29652  21.934   9.419   3.273
58037W        W29653  11.122   9.683  13.123
58038W        W29654  21.817  38.354  13.538
58039W        W29655  39.005  14.826   2.679
58040W        W29656  34.590   6.124   1.380
58041W        W29657  12.625   7.782  12.399
58042W        W29658  14.170  25.517  14.102
58043W        W29659  10.896  13.334   3.186
58044W        W29660  32.984  29.271  10.400
58045W        W29661  16.446  31.013   0.225
58046W        W29662   3.794  19.955  12.495
58047W        W29663  33.519  37.055  13.400
58048W        W29664  28.179  27.429  14.209
58049W        W29665  27.085  41.143  14.780
58050W        W29666   4.217   9.626  11.501
58051W        W29667  43.815  34.326  11.790
58052W        W29668  44.820  24.764   0.838
58053W        W29669   4.952  21.298  14.574
58054W        W29670   5.745  38.845  14.342
58055W        W29671   2.934  20.385   0.710
58056W        W29672  31.272  43.446   4.158
58057W        W29673  33.562  14.743  14.783
58058W        W29674  12.664   7.727   1.484
58059W        W29675  18.648  29.966  12.573
58060W        W29676  32.005   4.683  12.429
58061W        W29677   2.142  15.324   1.171
58062W        W29678  30.899   1.291  10.704
58063W        W29679  14.584  18.784  11.468
58064W        W29680  29.090  26.648  12.629
58065W        W29681  42.251  14.160   3.645
58066W        W29682  32.611  39.101  12.407
58067W        W29683  21.531   2.482   0.491
58068W        W29684  44.982  34.000  14.938
58069W        W29685  44.443   5.241  13.079
58070W        W29686  16.460  18.669   0.300
58071W        W29687  38.524   5.383   3.635
58072W        W29688  34.849  15.371  11.147
58073W        W29689  18.636  37.163  12.113
58074W        W29690  30.540  30.703   0.712
58075W        W29691   7.084  40.021   3.839
58076W        W29692  39.434  18.009   3.764
58077W        W29693  23.474  43.947   4.682
58078W        W29694   9.207   0.490  14.230
58079W        W29695  36.145   5.798   3.539
58080W        W29696  25.181  16.058   4.682
58081W        W29697   0.457  22.592  11.923
58082W        W29698  30.112   2.611  12.896
58083W        W29699  14.676  22.069   1.314
58084W        W29700  32.744  16.807  14.285
58085W        W29701   6.581   0.630   1.767
58086W        W29702  36.959  39.942  11.861
58087W        W29703   5.875  43.506   3.575
58088W        W29704  18.979  34.920   2.985
58089W        W29705  28.560  40.226   2.076
58090W        W29706  23.615   6.975   2.427
58091W        W29707  44.837  17.712   0.190
58092W        W29708   3.666  32.409   1.794
58093W        W29709   6.316  12.721  13.524
58094W        W29710  35.347  16.206   2.570
58095W        W29711  12.067  44.578   4.173
58096W        W29712  36.095  23.560   3.893
58097W        W29713  27.853   1.774  13.970
58098W        W29714   9.124  23.111   2.752
58099W        W29715  43.340  23.026   0.860
58100W        W29716   9.363  18.177   4.223
58101W        W29717   6.658  13.236   1.800
58102W        W29718   8.756  36.227   3.058
58103W        W29719   2.139   1.708  11.981
58104W        W29720  25.106  24.930   1.348
58105W        W29721  15.265  40.310   1.840
58106W        W29722  22.088  38.589  11.825
58107W        W29723  10.639  28.031   2.696
58108W        W29724  25.199  16.038  10.790
58109W        W29725  10.168  33.578  14.487
58110W        W29726  41.645  41.263   1.276
58111W        W29727  20.088  31.967  11.691
58112W        W29728   6.368  39.182  14.984
58113W        W29729   7.794  18.759   1.476
58114W        W29730  21.525  27.993   0.601
58115W        W29731  42.688  24.941   1.477
58116W        W29732  18.059   8.314  10.754
58117W        W29733   2.830   2.690  13.409
58118W        W29734  18.758   4.394   0.816
58119W        W29735  27.582  29.898   4.418
58120W        W29736  30.654  23.054  10.853
58121W        W29737  34.374  10.684  13.532
58122W        W29738  19.786  19.517   1.885
58123W        W29739  24.620  17.673  14.193
58124W        W29740  18.571  29.978   1.380
58125W        W29741  34.810   6.851   3.135
58126W        W29742  20.815  27.271   3.695
58127W        W29743   3.233  19.616   3.160
58128W        W29744   6.005  37.876   0.902
58129W        W29745  10.348  21.722  10.656
58130W        W29746  32.036  32.361   3.613
58131W        W29747   4.791   4.427   4.086
58132W        W29748  34.124  26.380  14.567
58133W        W29749  16.879  16.205  12.558
58134W        W29750   7.934  43.001  12.053
58135W        W29751  22.510   3.244   2.170
58136W        W29752  22.274  28.597  10.704
58137W        W29753  39.924   1.720   4.251
58138W        W29754   1.313  32.988   2.420
58139W        W29755  23.725  35.798  11.177
58140W        W29756  22.514  34.064  12.470
58141W        W29757   7.330   5.040   4.212
58142W        W29758  30.191  31.607  11.201
58143W        W29759  29.331  25.083   5.017
58144W        W29760   8.772  28.624  10.852
58145W        W29761  26.632  20.291   2.126
58146W        W29762  40.829  20.567  13.528
58147W        W29763  36.866  16.234  13.819
58148W        W29764  31.436  27.853  11.714
58149W        W29765  44.771  12.769  14.358
58150W        W29766  14.320  43.964   3.089
58151W        W29767  13.639   4.196   0.840
58152W        W29768  26.777   9.412  12.123
58153W        W29769  41.932  42.895  14.845
58154W        W29770   9.292  34.926  12.058
58155W        W29771  12.829  34.458   2.262
58156W        W29772  12.530   1.883   0.343
58157W        W29773  21.347   1.487   0.682
58158W        W29774   3.731  15.775   4.163
58159W        W29775  17.747  26.554  13.855
58160W        W29776  20.510   1.955   2.325
58161W        W29777  19.588  26.256  14.097
58162W        W29778  28.644  10.598   2.338
58163W        W29779  40.976  38.930   3.338
58164W        W29780  16.112  19.631   0.072
58165W        W29781  29.399  38.604   2.912
58166W        W29782  26.243  14.308  12.202
58167W        W29783   5.778  10.462   4.683
58168W        W29784  12.118  39.396  11.218
58169W        W29785   5.639  43.965   3.708
58170W        W29786  44.509  27.439   4.643
58171W        W29787   9.220  32.351  10.695
58172W        W29788  24.695  26.426   1.277
58173W        W29789  35.872  29.832  12.023
58174W        W29790   9.310   9.177  12.023
58175W        W29791  29.773  28.372   1.148
58176W        W29792  15.436   7.282   4.855
58177W        W29793  40.987   6.261   4.866
58178W        W29794   1.444   4.013   4.195
58179W        W29795  15.759  25.445   1.274
58180W        W29796  31.215  42.432  14.457
58181W        W29797  36.923  16.214   0.211
58182W        W29798  39.333  31.514   4.610
58183W        W29799   5.862  23.723   4.188
58184W        W29800  22.682  33.656  14.214
58185W        W29801  20.258  24.120  11.917
58186W        W29802  42.774  16.658  13.951
58187W        W29803  20.752  34.247   2.638
58188W        W29804  31.087  22.296   3.067
58189W        W29805   9.757  31.882  11.277
58190W        W29806   0.161  29.104   2.666
58191W        W29807  42.559  42.229  12.035
58192W        W29808   6.539  13.648  10.997
58193W        W29809  12.273  13.144   3.154
58194W        W29810  29.287  31.852  11.609
58195W        W29811   7.260  24.034   3.379
58196W        W29812  30.788  16.828  13.465
58197W        W29813  15.750  13.606   1.835
58198W        W29814  43.246  20.159  13.240
58199W        W29815  31.927   7.381  11.542
58200W        W29816  14.335   6.718   1.359
58201W        W29817  10.342   4.736  13.008
58202W        W29818   2.751  37.055   1.130
58203W        W29819  42.572  44.815   0.270
58204W        W29820  43.260  15.666  10.667
58205W        W29821  33.340  17.675  13.419
58206W        W29822  43.126  25.341  10.586
58207W        W29823  26.543   2.851   4.953
58208W        W29824  25.253   8.246   4.120
58209W        W29825  12.595  21.975  14.763
58210W        W29826   5.894  41.875   1.733
58211W        W29827  27.221  20.781  14.293
58212W        W29828  24.712  16.118   1.036
58213W        W29829   9.840  11.346  14.910
58214W        W29830  28.869  30.520   2.155
58215W        W29831  37.071  37.658   0.275
58216W        W29832   9.180  15.637   4.477
58217W        W29833  33.641  16.568  14.586
58218W        W29834  11.647   5.923  14.299
58219W        W29835  38.647  11.364   4.623
58220W        W29836  17.563  38.967  13.352
58221W        W29837  38.973   3.123  10.616
58222W        W29838   0.681  13.828  14.902
58223W        W29839   7.214  20.743   1.250
58224W        W29840  17.553  12.624   3.185
58225W        W29841  14.807   0.899  10.664
58226W        W29842  19.126   5.197  12.167
58227W        W29843   5.473  12.651   3.287
58228W        W29844  42.301   8.253   3.246
58229W        W29845  41.221  38.034  12.851
58230W        W29846  24.593  13.958   0.853
58231W        W29847   4.307   1.630  10.498
58232W        W29848  40.549   0.504   0.043
58233W        W29849  10.862  31.174  14.079
58234W        W29850  25.733   1.449   0.966
58235W        W29851  11.106  16.019  11.958
58236W        W29852   8.919   3.448  12.375
58237W        W29853  18.757   0.525  12.154
58238W        W29854  25.244  38.956  14.211
58239W        W29855  23.434   1.724   3.670
58240W        W29856   9.847  20.281  13.918
58241W        W29857  37.591  25.262  10.486
58242W        W29858  29.389  34.711   1.928
58243W        W29859  24.575  24.585   1.334
58244W        W29860  37.422   3.314  14.476
58245W        W29861  12.643  21.280  13.965
58246W        W29862  43.578  11.700  14.736
58247W        W29863  28.418  36.664   2.793
58248W        W29864  13.197   7.307  14.796
58249W        W29865  35.860  34.864   2.193
58250W        W29866  33.045   7.324  12.356
58251W        W29867  36.962   1.323   1.215
58252W        W29868  42.618  35.039  10.000
58253W        W29869  10.281  43.049  11.932
58254W        W29870  31.671  36.909  14.072
58255W        W29871  12.237  28.402  14.468
58256W        W29872  35.839  13.814  13.985
58257W        W29873  29.630  24.579  14.937
58258W        W29874  18.675  13.291  13.075
58259W        W29875  26.549  36.441   1.783
58260W        W29876  29.887  41.254  12.500
58261W        W29877  32.977  32.628  11.930
58262W        W29878  28.743  25.671  11.585
58263W        W29879  31.904  10.889  14.377
58264W        W29880  39.785  13.346  12.821
58265W        W29881  10.831  25.741   1.176
58266W        W29882  39.392  19.472   4.586
58267W        W29883   8.934  44.732  14.949
58268W        W29884  27.251  36.848  14.299
58269W        W29885   1.078  44.792   1.473
58270W        W29886   4.270  12.792   1.998
58271W        W29887   5.504   2.922  11.591
58272W        W29888   4.205  20.008   2.818
58273W        W29889  41.487  42.857  10.349
58274W        W29890  27.606   0.286   2.699
58275W        W29891  22.580  38.063   0.529
58276W        W29892  18.953  30.621  13.838
58277W        W29893   8.593  39.601   1.446
58278W        W29894  31.014  37.340   3.166
58279W        W29895   5.922  26.500   1.950
58280W        W29896  10.278   7.306  14.592
58281W        W29897  16.986  29.656  14.449
58282W        W29898  11.423   8.671  11.796
58283W        W29899  39.584  25.524  12.487
58284W        W29900  26.684  14.050  12.301
58285W        W29901  28.975  41.977  13.527
58286W        W29902  35.428  44.698   4.796
58287W        W29903  33.632  43.395   4.925
58288W        W29904  16.720  38.976  13.904
58289W        W29905  22.047  14.209  11.444
58290W        W29906  41.486  29.546   2.697
58291W        W29907   2.779  39.193  14.013
58292W        W29908  42.517  11.249   0.010
58293W        W29909   6.348  21.702   0.437
58294W        W29910  22.919  31.902  10.498
58295W        W29911  10.039  24.707  13.513
58296W        W29912  14.771  35.110   3.626
58297W        W29913  28.681   5.800  11.677
58298W        W29914  20.947  34.500   3.313
58299W        W29915  30.578  38.388   3.486
58300W        W29916  24.069  35.449   0.547
58301W        W29917  33.591  37.631   1.904
58302W        W29918  22.894  17.992  12.004
58303W        W29919  27.952  40.288   4.557
58304W        W29920  42.994   6.736   3.707
58305W        W29921  19.348  18.678   3.786
58306W        W29922  15.523  22.127   3.158
58307W        W29923  38.002  10.846  10.767
58308W        W29924  44.970  31.939   0.381
58309W        W29925  29.146  31.033  12.541
58310W        W29926  34.203  20.731  14.626
58311W        W29927  26.645   3.200   3.757
58312W        W29928   6.170  11.157   1.779
58313W        W29929  32.227   0.435   4.642
58314W        W29930   8.314  22.658   1.553
58315W        W29931  13.132  27.685  14.100
58316W        W29932  28.655  20.161  12.876
58317W        W29933  42.758  39.120   1.246
58318W        W29934  18.742  25.172  14.683
58319W        W29935  44.846  35.880   0.223
58320W        W29936  25.358  29.651  13.875
58321W        W29937   1.005  37.885   1.808
58322W        W29938  31.226  26.062   1.232
58323W        W29939  34.445   2.153   3.209
58324W        W29940  21.381  42.301  11.560
58325W        W29941  41.237  44.829   3.665
58326W        W29942  20.724  28.396  10.502
58327W        W29943  20.122  43.513   0.414
58328W        W29944  14.251  38.019  12.187
58329W        W29945  32.435   8.804  11.740
58330W        W29946   6.502  14.788   4.138
58331W        W29947  13.400  24.123  13.031
58332W        W29948   9.019   7.302   4.327
58333W        W29949  24.408  11.796  11.731
58334W        W29950   5.267   0.755   5.093
58335W        W29951  36.360  33.603   1.998
58336W        W29952   3.080  27.477   2.692
58337W        W29953  28.963   4.869  10.552
58338W        W29954  33.004  28.072  14.667
58339W        W29955   7.388  29.117   4.137
58340W        W29956  38.898  41.856  14.918
58341W        W29957  22.532  12.121   3.312
58342W        W29958  27.920  16.982   9.745
58343W        W29959  36.951  34.013   2.779
58344W        W29960  24.154  32.151   5.178
58345W        W29961  24.973  37.852  14.525
58346W        W29962  11.189   4.726  11.098
58347W        W29963  15.809  37.366  14.827
58348W        W29964  44.480  13.781   2.727
58349W        W29965  27.432  14.393   4.241
58350W        W29966  26.575  33.964   5.077
58351W        W29967  22.820  29.368   3.203
58352W        W29968  39.958  11.928  11.921
58353W        W29969   9.369  22.446   0.379
58354W        W29970  31.620  19.802   1.959
58355W        W29971  14.814  32.955  10.633
58356W        W29972  44.746  32.012  10.654
58357W        W29973  37.522  15.536   2.931
58358W        W29974  13.824  38.798   3.791
58359W        W29975  21.735   0.521   2.304
58360W        W29976  17.986  25.417   4.122
58361W        W29977   2.187  15.578   1.978
58362W        W29978  36.528  43.943   1.406
58363W        W29979   1.323  20.502  12.903
58364W        W29980   8.322   9.725  11.382
58365W        W29981  37.037  23.539   1.336
58366W        W29982  30.318  10.681  12.948
58367W        W29983  16.385  23.615   3.788
58368W        W29984  13.623  12.140   0.026
58369W        W29985   2.120  43.366   4.176
58370W        W29986  15.707  24.102   0.934
58371W        W29987  36.484  27.355   0.083
58372W        W29988  27.725  11.156   3.632
58373W        W29989  21.994   4.909   3.551
58374W        W29990  40.971  40.057  10.715
58375W        W29991   5.098  31.008   4.685
58376W        W29992  25.719  21.427   1.260
58377W        W29993  13.695  10.697  12.036
58378W        W29994  44.440   7.853   3.780
58379W        W29995  39.454  11.462   1.336
58380W        W29996  35.073  41.908   0.478
58381W        W29997  34.917  15.813  12.536
58382W        W29998   4.955  36.202  13.449
58383W        W29999   7.012  28.658  13.908
58384W        W30000  11.447  26.808   1.982
58385W        W30001   4.350   5.161   1.460
58386W        W30002  16.179   4.323   4.567
58387W        W30003  30.369  24.437   2.356
58388W        W30004  23.657   7.426  12.895
58389W        W30005  14.385  12.794  11.639
58390W        W30006   3.506  35.072   4.520
58391W        W30007  18.257   9.047  14.345
58392W        W30008   0.143  29.939   4.128
58393W        W30009  12.056  31.115   4.540
58394W        W30010  31.940  40.326   0.816
58395W        W30011  39.844  43.718   3.661
58396W        W30012   8.250  21.371  12.526
58397W        W30013  42.744  34.978   5.103
58398W        W30014  39.049  32.906  13.817
58399W        W30015  44.810  10.136  13.010
58400W        W30016  44.134  41.323   1.175
58401W        W30017   1.397   5.625  12.359
58402W        W30018  36.721  10.448  12.844
58403W        W30019  40.387  28.470   2.384
58404W        W30020   0.640  36.067   9.882
58405W        W30021   6.099   9.446  12.450
58406W        W30022  16.765  40.890  14.376
58407W        W30023  33.101  15.635  13.909
58408W        W30024  18.632  30.984   4.598
58409W        W30025  36.362  23.657   2.585
58410W        W30026  41.059  39.844   3.658
58411W        W30027  16.641  29.242  10.969
58412W        W30028  28.598  32.967   2.432
58413W        W30029  12.666   4.155  13.382
58414W        W30030  27.233   0.556  14.893
58415W        W30031  17.464  10.672   2.379
58416W        W30032   1.962   3.219  13.560
58417W        W30033  16.003  42.368   9.682
58418W        W30034  18.624  30.856  13.494
58419W        W30035  26.437  40.313  13.774
58420W        W30036  34.862   7.239   0.349
58421W        W30037  38.305   7.710  14.994
58422W        W30038  28.459  33.117   1.913
58423W        W30039  12.238   7.956   3.747
58424W        W30040   5.756  16.923  11.125
58425W        W30041  36.849  23.670  12.293
58426W        W30042  18.310  21.588   4.104
58427W        W30043  42.904  20.214  11.713
58428W        W30044  11.179  32.597   0.481
58429W        W30045   4.291   3.499   4.448
58430W        W30046  18.694   8.734  14.387
58431W        W30047  29.204   3.356   0.495
58432W        W30048  38.626  36.397  12.956
58433W        W30049  29.997  22.067  14.234
58434W        W30050  23.283  40.468  13.504
58435W        W30051  31.581   3.271   1.159
58436W        W30052  32.091  23.669   2.906
58437W        W30053  20.094  32.158   2.356
58438W        W30054   2.271   2.108   2.442
58439W        W30055  38.191  40.892  11.784
58440W        W30056   6.278  16.649   1.956
58441W        W30057   2.160  17.774  10.762
58442W        W30058  13.589  27.418   3.688
58443W        W30059  35.314  42.100  11.083
58444W        W30060  14.538   6.032  11.056
58445W        W30061  32.078  42.445   3.464
58446W        W30062   0.146  14.896  13.378
58447W        W30063  14.905  28.825   1.416
58448W        W30064  44.458  39.615   0.300
58449W        W30065  15.048  23.498   4.887
58450W        W30066   6.390  28.544  12.040
58451W        W30067  43.306  20.632  12.494
58452W        W30068  41.533  12.653  13.799
58453W        W30069  21.201  32.687  11.288
58454W        W30070  31.570  21.500  13.202
58455W        W30071  31.073   0.762  14.038
58456W        W30072  18.534  41.256   2.185
58457W        W30073  43.214  26.622   1.734
58458W        W30074  11.536  21.685   0.414
58459W        W30075  41.285  12.881   1.245
58460W        W30076  13.341  34.345   0.986
58461W        W30077   8.375  26.601  13.414
58462W        W30078  31.736  32.901  13.581
58463W        W30079  19.643  43.786   0.857
58464W        W30080  33.464  39.364  14.270
58465W        W30081  24.916  11.764   1.889
58466W        W30082  37.356  42.347   4.624
58467W        W30083  21.148  30.850  10.478
58468W        W30084   5.985  14.477   2.181
58469W        W30085  39.412  42.009  12.367
58470W        W30086  43.869  37.647   2.117
58471W        W30087  29.452  20.714  11.362
58472W        W30088  39.900  36.469   0.592
58473W        W30089  21.193   8.413  12.450
58474W        W30090   8.399  28.546  11.184
58475W        W30091  25.615   0.729  13.814
58476W        W30092  20.187  36.358   2.065
58477W        W30093   7.850  26.106  13.120
58478W        W30094  12.196  14.900   4.653
58479W        W30095  12.381  21.856  14.311
58480W        W30096  24.541  14.701   4.663
58481W        W30097  24.167  44.319   0.340
58482W        W30098  19.201  15.035   0.012
58483W        W30099   7.164  29.468   2.272
58484W        W30100  13.374   9.520   1.355
58485W        W30101   4.645   8.561  12.944
58486W        W30102  32.017  28.316   2.956
58487W        W30103  27.100  43.783  14.920
58488W        W30104  31.135  28.523   2.752
58489W        W30105  19.062  20.645  14.861
58490W        W30106  29.450  40.917   1.288
58491W        W30107  31.527  13.538  12.005
58492W        W30108  10.413  11.694   3.307
58493W        W30109  22.256  17.680  12.535
58494W        W30110   8.415  33.971  11.943
58495W        W30111   1.715  39.516   0.359
58496W        W30112  26.436  35.136   2.349
58497W        W30113   0.173  33.728  10.470
58498W        W30114  16.033  11.610   3.217
58499W        W30115  16.831  36.652   3.618
58500W        W30116  24.066   7.002   3.608
58501W        W30117   8.354  11.215   3.845
58502W        W30118  22.551   9.291   1.356
58503W        W30119   2.425  38.738   5.132
58504W        W30120  42.533  22.487   3.183
58505W        W30121   0.472  28.926   0.388
58506W        W30122  14.288  34.955   2.840
58507W        W30123  12.172  19.258  14.502
58508W        W30124   4.961  29.185  10.612
58509W        W30125  38.556  20.060  11.125
58510W        W30126  27.507  41.061   3.242
58511W        W30127   9.738  44.430   3.638
58512W        W30128  24.638  15.046  13.950
58513W        W30129  22.502  33.356  11.220
58514W        W30130   4.696   9.146  14.808
58515W        W30131  18.745  36.099   1.390
58516W        W30132  38.025  14.884  13.617
58517W        W30133  32.131   3.020   0.337
58518W        W30134  18.366  39.877  11.549
58519W        W30135  11.622  37.876  13.850
58520W        W30136   7.235  23.498   1.811
58521W        W30137  39.848   5.280   0.721
58522W        W30138  38.222   6.308  13.907
58523W        W30139  13.497  14.343  10.008
58524W        W30140  19.198  43.938  11.514
58525W        W30141  23.613  41.991  14.483
58526W        W30142  25.704  26.688  10.962
58527W        W30143   9.318  26.937   0.902
58528W        W30144   2.142  21.069  13.965
58529W        W30145  29.075  28.570  14.488
58530W        W30146  20.728  28.611   4.140
58531W        W30147  23.731  40.182  13.507
58532W        W30148  34.929   2.334   3.211
58533W        W30149  33.448  18.744  11.302
58534W        W30150  36.189  38.036   0.705
58535W        W30151  35.065  38.812  12.892
58536W        W30152   4.859  30.876   0.857
58537W        W30153  27.979  26.080   3.448
58538W        W30154  36.589  32.904  11.614
58539W        W30155  37.946  10.151   3.219
58540W        W30156  42.419   2.806  11.253
58541W        W30157   9.286   9.372  14.091
58542W        W30158  22.708  19.284   0.414
58543W        W30159  20.143  43.569   3.360
58544W        W30160  24.117  37.323  11.577
58545W        W30161  27.382  21.610   3.799
58546W        W30162  20.707  27.250   2.897
58547W        W30163  16.688  26.047  13.913
58548W        W30164  28.094  34.335   1.911
58549W        W30165  13.644  42.234   1.215
58550W        W30166  18.269  10.632   0.322
58551W        W30167  21.508  40.422   0.861
58552W        W30168   8.712  29.816  12.086
58553W        W30169  23.210   3.456   2.619
58554W        W30170  41.644  28.555   4.612
58555W        W30171  39.350   4.677   1.449
58556W        W30172   0.807  23.565  13.783
58557W        W30173  12.126   2.787   0.722
58558W        W30174   6.192   4.966   2.746
58559W        W30175  26.812  10.696   3.736
58560W        W30176   1.181  11.215  14.387
58561W        W30177  42.862   5.958  14.052
58562W        W30178   0.944  25.651  10.740
58563W        W30179  28.461  10.706   4.544
58564W        W30180  17.649  19.677   3.271
58565W        W30181   6.893   1.184  14.385
58566W        W30182  17.601  29.473   2.802
58567W        W30183  31.304  14.214  12.497
58568W        W30184  40.550  44.229  12.039
58569W        W30185   6.769  19.134  14.070
58570W        W30186   3.871  23.055  11.606
58571W        W30187  22.422  23.446  13.248
58572W        W30188   4.332  33.324  13.451
58573W        W30189  10.087  13.805  12.384
58574W        W30190  29.684  41.378   1.486
58575W        W30191   6.772  19.285   3.693
58576W        W30192   1.307  10.850  12.072
58577W        W30193  17.854   2.461   3.897
58578W        W30194  17.809  26.694   4.141
58579W        W30195  40.339  11.270   1.717
58580W        W30196  10.279  31.639  12.917
58581W        W30197   8.404  30.449   3.354
58582W        W30198  43.875   2.236  13.324
58583W        W30199  29.006  32.978  10.483
58584W        W30200  33.934  38.087   2.275
58585W        W30201  22.657   1.985  14.903
58586W        W30202   1.313   8.584   3.708
58587W        W30203   3.818  22.091   4.473
58588W        W30204  39.013  13.533  14.711
58589W        W30205  21.248  23.642  14.516
58590W        W30206  26.297  24.391  12.013
58591W        W30207  20.175   3.044  13.647
58592W        W30208  26.053  15.737  12.484
58593W        W30209   0.732  16.221   4.637
58594W        W30210  31.660   5.335   4.589
58595W        W30211  39.571  35.814   1.188
58596W        W30212  43.326  15.700   1.751
58597W        W30213  27.194   2.220  11.704
58598W        W30214  43.560   9.246  12.108
58599W        W30215  18.580   2.235  14.153
58600W        W30216  16.703   4.924  12.778
58601W        W30217  36.706  17.835   2.264
58602W        W30218  15.988  21.617   3.756
58603W        W30219  19.897  25.215   0.520
58604W        W30220  11.383  42.765  11.283
58605W        W30221  16.213  28.196  14.019
58606W        W30222  11.668  41.475  12.607
58607W        W30223  16.480  24.636  14.430
58608W        W30224  25.043  43.416  14.465
58609W        W30225  12.620  31.886  12.116
58610W        W30226  41.756   5.487   2.997
58611W        W30227  29.573  12.737  14.666
58612W        W30228  10.091  18.094   1.517
58613W        W30229   2.981  41.771  12.537
58614W        W30230  14.065  20.171  11.895
58615W        W30231   3.557  21.520  13.376
58616W        W30232  24.665  30.355  11.414
58617W        W30233  38.723  43.619  14.910
58618W        W30234  28.635  18.821  13.129
58619W        W30235  26.879   5.735   2.075
58620W        W30236  17.178  11.887   2.788
58621W        W30237  29.218   3.333   2.490
58622W        W30238  18.762  11.405   0.368
58623W        W30239   0.532   0.331  12.271
58624W        W30240  38.479  40.547  13.871
58625W        W30241  28.657  23.903   0.299
58626W        W30242  35.954  37.175   4.395
58627W        W30243   2.855  22.683  10.690
58628W        W30244   7.906  16.226   3.979
58629W        W30245  25.493  39.262  10.340
58630W        W30246  38.900  29.906   4.193
58631W        W30247  13.912  31.630   2.133
58632W        W30248  15.267  40.573   4.755
58633W        W30249  35.834  41.331   1.706
58634W        W30250  42.289  18.654  12.403
58635W        W30251  39.443   2.976  12.206
58636W        W30252  20.154  32.853   4.508
58637W        W30253  28.566  43.757  14.775
58638W        W30254   5.789   6.738   2.182
58639W        W30255  17.476  34.817  13.985
58640W        W30256  37.156  12.831  14.318
58641W        W30257  24.252  30.499  14.800
58642W        W30258  28.336   9.562   3.720
58643W        W30259  12.338  29.392  11.087
58644W        W30260  29.707  38.322   4.099
58645W        W30261   7.277  36.599  13.349
58646W        W30262   0.655  16.514  13.452
58647W        W30263  40.114  36.855   2.758
58648W        W30264   7.255  36.591   0.133
58649W        W30265  23.616  39.742  14.878
58650W        W30266  40.723  34.348  12.049
58651W        W30267  22.992  41.563  14.965
58652W        W30268  30.960  37.538  14.748
58653W        W30269   1.201  25.427   4.690
58654W        W30270   8.982  43.048   4.008
58655W        W30271  27.162   8.623  12.023
58656W        W30272  21.115   3.321   4.087
58657W        W30273   3.926  24.478   5.074
58658W        W30274  30.662  32.887  14.569
58659W        W30275  28.522  23.220  10.901
58660W        W30276  38.907  14.804   3.897
58661W        W30277  26.684   7.395   2.778
58662W        W30278  35.838  21.496  12.010
58663W        W30279  22.655  40.512  11.547
58664W        W30280  12.905   6.448   9.732
58665W        W30281  17.115  40.696   1.411
58666W        W30282  16.074  10.740  12.629
58667W        W30283  20.256  28.468  10.719
58668W        W30284  42.956  24.760   2.872
58669W        W30285   6.240   4.504  13.959
58670W        W30286  38.191  32.302  12.670
58671W        W30287  32.380  13.770   4.595
58672W        W30288  33.364  21.046   3.133
58673W        W30289  19.176  39.750  13.490
58674W        W30290  41.482  31.579  14.434
58675W        W30291  41.399  41.186   0.794
58676W        W30292  43.711  20.131   2.119
58677W        W30293  20.288   6.764  11.250
58678W        W30294  26.374  35.075  12.968
58679W        W30295   3.303  18.530   2.819
58680W        W30296  36.820  39.027  14.277
58681W        W30297  19.189   0.046  11.090
58682W        W30298  27.443   7.895   1.683
58683W        W30299  36.044  10.874  13.877
58684W        W30300   8.933  19.725  13.585
58685W        W30301  23.705   0.883  14.293
58686W        W30302  10.353  20.515   4.506
58687W        W30303  39.990  13.189  13.246
58688W        W30304  13.828   2.018  14.731
58689W        W30305  11.291   5.565  10.763
58690W        W30306  18.908  29.406  12.653
58691W        W30307  33.347   9.170   2.795
58692W        W30308   6.916  29.151   4.318
58693W        W30309   3.224   7.619  12.982
58694W        W30310   3.736  44.019  13.473
58695W        W30311   5.222  30.039  10.679
58696W        W30312  30.747  23.686   2.177
58697W        W30313  22.903  17.126   5.143
58698W        W30314  31.023  40.601   3.936
58699W        W30315   2.975  18.180   1.031
58700W        W30316  40.465  23.803   1.357
58701W        W30317  18.474   6.708  11.909
58702W        W30318   3.470  33.008   2.192
58703W        W30319   3.587  37.581   2.945
58704W        W30320  23.117  26.247   2.285
58705W        W30321   0.440   3.379  11.451
58706W        W30322   4.766  21.703   2.125
58707W        W30323  31.923  44.926  13.852
58708W        W30324   2.958  44.354   0.086
58709W        W30325   9.130  37.531  12.744
58710W        W30326  26.126  40.434   4.287
58711W        W30327  18.384  28.371  13.290
58712W        W30328  14.047  17.049  14.302
58713W        W30329   4.382   1.832  11.092
58714W        W30330  20.668  16.666   4.059
58715W        W30331  32.347  31.949   2.753
58716W        W30332  20.956  34.100  14.347
58717W        W30333  19.316  44.713   1.384
58718W        W30334  17.385  19.133  14.552
58719W        W30335  30.173   5.602  12.857
58720W        W30336  21.429   4.017  12.003
58721W        W30337  14.369   7.127  12.500
58722W        W30338  36.607  25.030   4.650
58723W        W30339   8.692  22.282  13.416
58724W        W30340  27.732  32.704   3.769
58725W        W30341  28.915   8.173  11.084
58726W        W30342  16.083  36.874   4.044
58727W        W30343  39.200  29.692   4.550
58728W        W30344  43.546   9.643  12.959
58729W        W30345  15.623   2.426   1.953
58730W        W30346  25.715  34.366   0.871
58731W        W30347  30.612  40.390  10.793
58732W        W30348  40.371  25.110  10.869
58733W        W30349  29.347  10.967  12.844
58734W        W30350  44.412   7.598  10.755
58735W        W30351  43.196  38.503   1.945
58736W        W30352  39.510  31.024  11.980
58737W        W30353  18.044  32.851  14.535
58738W        W30354  26.695  40.037  10.236
58739W        W30355  33.291  28.212  13.750
58740W        W30356  15.290  24.234  13.948
58741W        W30357  44.711  41.943  11.110
58742W        W30358   3.397  20.633   2.732
58743W        W30359  38.032  22.325  11.259
58744W        W30360   1.749  17.061   2.612
58745W        W30361  33.439  25.319   2.701
58746W        W30362   0.933  26.709  12.365
58747W        W30363  31.666  28.652   4.648
58748W        W30364  25.711  42.994  11.064
58749W        W30365  38.966  10.618  13.525
58750W        W30366   4.606   8.859   9.886
58751W        W30367   9.427  40.379  12.108
58752W        W30368  42.237   8.663  12.577
58753W        W30369   4.476   1.837   2.706
58754W        W30370   2.458  22.154   5.153
58755W        W30371  30.959   5.323   0.166
58756W        W30372  26.782  13.708  14.020
58757W        W30373  21.083  15.755  11.730
58758W        W30374  31.319  33.144  11.234
58759W        W30375  21.081   5.837  13.464
58760W        W30376   5.204  20.236  13.460
58761W        W30377  16.141  35.357  11.116
58762W        W30378  41.984  20.723   0.083
58763W        W30379  28.240  41.546  12.033
58764W        W30380  36.879  36.599   4.234
58765W        W30381  13.043  25.570  12.988
58766W        W30382  32.350  41.241  14.226
58767W        W30383  33.333  34.614   1.166
58768W        W30384  13.757  36.549  13.592
58769W        W30385   8.573  37.606  11.134
58770W        W30386  29.031   8.426  13.975
58771W        W30387  12.322  22.204  12.783
58772W        W30388  14.271  23.561   0.228
58773W        W30389  43.741  17.198  12.425
58774W        W30390   8.387  35.809  13.466
58775W        W30391  26.957  33.318  10.106
58776W        W30392   9.757  22.021   1.684
58777W        W30393  14.732  27.830  12.914
58778W        W30394  40.110  14.275  12.638
58779W        W30395  32.421  44.429  11.655
58780W        W30396  36.484  34.844   4.199
58781W        W30397   6.831   6.660  11.775
58782W        W30398  38.872  43.040  12.881
58783W        W30399  24.049  23.977  11.455
58784W        W30400  25.597  35.515  10.804
58785W        W30401  25.081  34.558   1.931
58786W        W30402  22.058  39.859  10.702
58787W        W30403  36.604  20.322   2.091
58788W        W30404   6.588  36.615  11.272
58789W        W30405  18.092   1.732  11.191
58790W        W30406  29.977   8.137   0.369
58791W        W30407  26.121  32.610  12.898
58792W        W30408  15.043   3.795  13.624
58793W        W30409  22.395   1.626   2.238
58794W        W30410   7.827  12.398   3.233
58795W        W30411  34.621  10.080   3.171
58796W        W30412   9.774  10.722  10.715
58797W        W30413   8.672  28.174   3.362
58798W        W30414  19.858  43.827   2.828
58799W        W30415  44.224  44.798   1.764
58800W        W30416   4.056  36.808  11.537
58801W        W30417  29.402  36.103  11.956
58802W        W30418  31.467  37.298  12.987
58803W        W30419  10.670  10.586   1.280
58804W        W30420  11.322  21.639   0.894
58805W        W30421  12.306   4.405  14.812
58806W        W30422  33.022   1.745  12.496
58807W        W30423  44.021  13.522  14.293
58808W        W30424  24.510  12.385   2.377
58809W        W30425  11.591   9.699  14.440
58810W        W30426  21.365  15.732  10.327
58811W        W30427   6.643  17.210  12.385
58812W        W30428  12.517  22.692  12.754
58813W        W30429  30.486  14.884   0.329
58814W        W30430  27.480  15.174  13.830
58815W        W30431  39.779  34.877  13.426
58816W        W30432  20.340  21.513   4.342
58817W        W30433   4.190  16.871   3.304
58818W        W30434  40.190  21.239   1.453
58819W        W30435   0.593  35.002   0.086
58820W        W30436  32.075  23.091  14.756
58821W        W30437   9.611  10.452   0.602
58822W        W30438  16.939   9.933  12.618
58823W        W30439   2.876  13.408   4.811
58824W        W30440  32.604  23.713   2.804
58825W        W30441   1.135  33.554  10.791
58826W        W30442  31.408  22.509   1.774
58827W        W30443  13.648  18.779   4.360
58828W        W30444  32.636   8.730  11.278
58829W        W30445  37.310  25.140   1.894
58830W        W30446   8.886   0.494   2.182
58831W        W30447  37.465  33.985  12.052
58832W        W30448  16.254  24.777   0.987
58833W        W30449  10.052  26.507   0.314
58834W        W30450  21.959  25.613   3.374
58835W        W30451  29.603   4.888   2.376
58836W        W30452   3.369  27.408  12.022
58837W        W30453  12.685  44.098  12.985
58838W        W30454  12.191   7.888   5.003
58839W        W30455  35.950   7.457  11.636
58840W        W30456  41.333  20.037   4.184
58841W        W30457  42.385  11.204  10.787
58842W        W30458  22.215  18.219   4.713
58843W        W30459  24.762  10.102  12.922
58844W        W30460   3.957  41.124  12.995
58845W        W30461  32.060  18.713  10.573
58846W        W30462  16.705   2.139  11.032
58847W        W30463  28.990  34.416   1.603
58848W        W30464  10.813  22.684  13.793
58849W        W30465  31.702   2.052   1.886
58850W        W30466   1.680  39.570  11.993
58851W        W30467  44.563  29.543   0.914
58852W        W30468  36.634   8.990  11.873
58853W        W30469  43.363  40.156  12.202
58854W        W30470  14.278  36.250   4.111
58855W        W30471   5.501  39.408   2.741
58856W        W30472   0.799  33.957  11.688
58857W        W30473  35.361   5.584   4.164
58858W        W30474   7.389  16.161   3.865
58859W        W30475   7.929  43.010  14.313
58860W        W30476   0.351   8.319  13.741
58861W        W30477  44.073  17.793   2.804
58862W        W30478  41.929  16.885   1.338
58863W        W30479  16.290  25.684  11.569
58864W        W30480  14.108  25.557   0.049
58865W        W30481   9.329  33.658   2.231
58866W        W30482  34.499  19.763  14.463
58867W        W30483  38.136   0.292  11.455
58868W        W30484   7.890  21.533  12.885
58869W        W30485  37.584  39.267   2.268
58870W        W30486  17.538   1.319   1.969
58871W        W30487  18.847   9.357   2.850
58872W        W30488   4.810  25.930  14.491
58873W        W30489   8.371   5.272   1.895
58874W        W30490  37.426   4.278   2.226
58875W        W30491  14.996  12.455  10.380
58876W        W30492   3.821   0.997   2.503
58877W        W30493  32.453  31.467   1.815
58878W        W30494  14.583  30.156   0.265
58879W        W30495  21.283  27.971  11.221
58880W        W30496  42.608  11.655  11.578
58881W        W30497  44.508  36.319   4.288
58882W        W30498   2.907  27.939  12.574
58883W        W30499   1.342  37.875  11.135
58884W        W30500  22.313  11.765   2.581
58885W        W30501  42.202  12.646   0.133
58886W        W30502  10.881  25.051  13.408
58887W        W30503  35.314  33.520  14.976
58888W        W30504  29.467  30.265   1.320
58889W        W30505  25.183   4.339  11.118
58890W        W30506  39.934   4.126   2.102
58891W        W30507  11.735  34.891   3.053
58892W        W30508  24.747   0.241  10.703
58893W        W30509  16.335  20.232  14.485
58894W        W30510  31.458   9.257  12.504
58895W        W30511  15.355  29.044  14.761
58896W        W30512   6.785  30.496  10.754
58897W        W30513  11.218  28.700  11.651
58898W        W30514  27.479  16.542   1.323
58899W        W30515  21.141  37.779  10.381
58900W        W30516  23.471  17.189  11.701
58901W        W30517  39.972  13.583  11.400
58902W        W30518  30.522  39.147  12.439
58903W        W30519  36.569  17.867  11.066
58904W        W30520   3.159  21.781   9.631
58905W        W30521  24.479  21.536  13.817
58906W        W30522  41.401  26.100  13.303
58907W        W30523  23.081  37.423   3.682
58908W        W30524  23.395  12.709  11.850
58909W        W30525  14.827  25.068   0.477
58910W        W30526  42.732  14.591   3.162
58911W        W30527  34.114  22.972  11.633
58912W        W30528  30.512  43.525   2.833
58913W        W30529  34.491  19.545  11.711
58914W        W30530  15.753  30.184  10.662
58915W        W30531  11.734  30.483  12.457
58916W        W30532  12.250  11.946  14.931
58917W        W30533  29.102  21.254   2.247
58918W        W30534  38.550  31.578  10.692
58919W        W30535  25.991  30.502   1.590
58920W        W30536  37.525  12.407  12.412
58921W        W30537  40.487  40.020  11.217
58922W        W30538  11.397  24.982   5.126
58923W        W30539  30.682  32.653  12.437
58924W        W30540  13.934  24.153   2.176
58925W        W30541  10.364  14.285  13.502
58926W        W30542   9.686  11.700   1.989
58927W        W30543  32.202   7.833  12.400
58928W        W30544  18.861  43.923   2.665
58929W        W30545   7.148  25.558  13.303
58930W        W30546  40.259  44.993  13.759
58931W        W30547  16.778  44.892   1.142
58932W        W30548  24.874  37.246   3.186
58933W        W30549  35.682  43.037   3.576
58934W        W30550  24.297  32.564  13.123
58935W        W30551  18.672  31.754   2.322
58936W        W30552  42.030  40.648   4.708
58937W        W30553   6.403   8.715   2.866
58938W        W30554  40.359  24.740  13.943
58939W        W30555  37.505  33.571   2.261
58940W        W30556   7.304   3.658   4.422
58941W        W30557   9.756  36.149   0.924
58942W        W30558  34.622  32.916  14.005
58943W        W30559  18.586  31.548  13.859
58944W        W30560  16.554  41.135  13.928
58945W        W30561  39.122   1.309  11.092
58946W        W30562  39.327   8.419   2.691
58947W        W30563  16.748  32.004  12.853
58948W        W30564   8.212  24.723  14.593
58949W        W30565  11.182  20.039  12.353
58950W        W30566  21.029  15.642   3.219
58951W        W30567  11.835  21.455   4.163
58952W        W30568  20.089  33.491   1.136
58953W        W30569  42.346  11.990   4.508
58954W        W30570   4.721  14.324   0.715
58955W        W30571  17.040  18.785   4.704
58956W        W30572  33.115  39.986   3.378
58957W        W30573   1.168  39.499  12.041
58958W        W30574  13.361   8.884   2.709
58959W        W30575  37.846  43.557  11.000
58960W        W30576  36.315  38.868   1.342
58961W        W30577  37.415  19.126  12.914
58962W        W30578  41.912  15.071   1.161
58963W        W30579   0.792  32.050  12.156
58964W        W30580   2.711  36.522   0.937
58965W        W30581  17.798   7.843  10.774
58966W        W30582  25.070  28.020  12.533
58967W        W30583  41.411   6.183  13.006
58968W        W30584  13.862  11.432  13.995
58969W        W30585  25.040  30.169  10.620
58970W        W30586  29.920  36.422  11.611
58971W        W30587   0.442   4.657   1.891
58972W        W30588  20.766  28.025  14.768
58973W        W30589   6.918  29.028  10.708
58974W        W30590  44.312  38.136  13.374
58975W        W30591  31.089  41.359  14.990
58976W        W30592  20.018  21.937   3.396
58977W        W30593  40.076  25.425  14.784
58978W        W30594  18.432  33.973   2.131
58979W        W30595   2.038  43.320   2.211
58980W        W30596   3.006  42.419  14.775
58981W        W30597  29.790   8.783  11.616
58982W        W30598   4.190   4.450   3.261
58983W        W30599  17.261  36.368   3.764
58984W        W30600  37.464  42.241  11.036
58985W        W30601   2.150   2.324  14.317
58986W        W30602  11.274  21.708  14.816
58987W        W30603   3.416  22.558   0.436
58988W        W30604   5.352   0.150  10.630
58989W        W30605  20.154  38.897   0.342
58990W        W30606  13.938  14.413   2.814
58991W        W30607   0.945  31.722  14.576
58992W        W30608  15.694  35.626   2.044
58993W        W30609   4.223   8.245  13.737
58994W        W30610   0.173  17.772  13.689
58995W        W30611  12.379  34.093  11.977
58996W        W30612  15.828  37.185  11.908
58997W        W30613  10.175   9.201   0.525
58998W        W30614  41.261   8.302  14.883
58999W        W30615  31.194   6.404  12.686
59000W        W30616  14.247  30.535   1.072
59001W        W30617   4.699   0.281   4.557
59002W        W30618  30.654  32.229  11.574
59003W        W30619  30.561  39.628   0.480
59004W        W30620  39.423   5.647   3.801
59005W        W30621  20.155  11.813  13.866
59006W        W30622  21.619  30.995  12.159
59007W        W30623   1.826  29.952   0.304
59008W        W30624  44.717  28.844   2.567
59009W        W30625  24.641  25.014   0.676
59010W        W30626  41.432  42.086  13.017
59011W        W30627  15.031  16.366  13.309
59012W        W30628  15.607  16.683   1.771
59013W        W30629  10.741  13.088   3.799
59014W        W30630  33.703  24.764  11.525
59015W        W30631  15.511  17.002  12.981
59016W        W30632  23.650  11.890  11.259
59017W        W30633  15.827  15.247  11.230
59018W        W30634  18.840  41.280  13.550
59019W        W30635  22.214  31.987   1.746
59020W        W30636  10.436   6.649   0.573
59021W        W30637  37.418  41.850  12.463
59022W        W30638   7.875   5.492   2.683
59023W        W30639  42.347  32.652   0.441
59024W        W30640  25.547  35.567  13.548
59025W        W30641   1.070  22.700   1.124
59026W        W30642   2.465   9.361  13.929
59027W        W30643  23.306  19.717  12.115
59028W        W30644  36.999  33.428   4.020
59029W        W30645   0.825  12.294  12.525
59030W        W30646   1.322  10.148  14.814
59031W        W30647  13.345  35.144   1.314
59032W        W30648  14.314  30.159  13.946
59033W        W30649  18.851   8.660   4.192
59034W        W30650   7.051  14.724  11.217
59035W        W30651  37.861  12.899   3.305
59036W        W30652  12.137  42.348   2.903
59037W        W30653  11.091  25.603   0.274
59038W        W30654  36.545  42.812  10.209
59039W        W30655  23.315  29.114   2.429
59040W        W30656  10.590   4.276   1.847
59041W        W30657   5.422  44.907   0.669
59042W        W30658  32.479  36.465  10.679
59043W        W30659  31.117  11.758   3.901
59044W        W30660  26.170   2.751  13.334
59045W        W30661   7.077  28.575  13.052
59046W        W30662  11.435  11.712   0.253
59047W        W30663  34.375  38.414   4.005
59048W        W30664  27.412   1.526  14.055
59049W        W30665  39.454  12.670  14.849
59050W        W30666  38.534  20.900   3.739
59051W        W30667  24.633  35.049  14.545
59052W        W30668  14.696  23.276  14.797
59053W        W30669  22.131   5.665  13.402
59054W        W30670   0.308  40.878  12.077
59055W        W30671  10.709  29.633  11.433
59056W        W30672   2.807  13.163   2.878
59057W        W30673   9.277   9.334   0.229
59058W        W30674   0.503  13.258  13.357
59059W        W30675  22.500  14.636   1.694
59060W        W30676  37.606   3.233   2.212
59061W        W30677   4.473   5.106   0.327
59062W        W30678  20.569  41.806   3.738
59063W        W30679   1.198   2.413   4.213
59064W        W30680  26.000  14.812   2.017
59065W        W30681  21.691  27.997   3.675
59066W        W30682  40.743  10.801  14.691
59067W        W30683  24.710  41.109  12.644
59068W        W30684   7.391  19.852   3.600
59069W        W30685  29.098  21.738  14.853
59070W        W30686  24.505  24.971   0.160
59071W        W30687   8.930   4.399  10.715
59072W        W30688  37.530  27.491   2.926
59073W        W30689  34.570   1.030   3.785
59074W        W30690  39.587  30.926   1.867
59075W        W30691  26.888  10.905   2.702
59076W        W30692   0.120  10.099  11.852
59077W        W30693  24.036  20.280   2.660
59078W        W30694  33.948  25.102   2.129
59079W        W30695   8.515  10.178   1.392
59080W        W30696  23.511  33.139  13.364
59081W        W30697  37.547   2.227   2.255
59082W        W30698  32.267  33.150   4.134
59083W        W30699  18.196  13.125  13.855
59084W        W30700  10.083   8.445   1.038
59085W        W30701  31.204  35.746  12.448
59086W        W30702  18.258  39.616   3.527
59087W        W30703   6.047   7.956   1.682
59088W        W30704  33.161  12.345  13.864
59089W        W30705  20.300  39.759  12.086
59090W        W30706  39.920  11.604  10.750
59091W        W30707  14.776  23.135   2.323
59092W        W30708  36.146   3.904   1.027
59093W        W30709  24.666   2.758   1.456
59094W        W30710   0.722  43.408   3.115
59095W        W30711  26.494  20.510  13.587
59096W        W30712   7.488   3.798  12.638
59097W        W30713  33.056  42.362  11.875
59098W        W30714  25.472  23.767  10.920
59099W        W30715  16.048  16.234  13.524
59100W        W30716  33.486  31.761  11.006
59101W        W30717  30.450  10.858  14.012
59102W        W30718  40.500   9.874  14.675
59103W        W30719   9.434  17.887   1.260
59104W        W30720  22.679  17.414  14.265
59105W        W30721  26.235  33.395  11.137
59106W        W30722  44.765   9.080   0.040
59107W        W30723  32.043  18.556   2.218
59108W        W30724  40.116  27.425  14.370
59109W        W30725  23.232  36.321  12.533
59110W        W30726  39.963  38.870   2.590
59111W        W30727  12.097  42.299  12.113
59112W        W30728   6.683  26.813   4.409
59113W        W30729  34.111   0.987  12.318
59114W        W30730  40.233  31.582   2.949
59115W        W30731  30.331   8.298  12.302
59116W        W30732  41.792  33.550   0.680
59117W        W30733  30.911  14.549   3.370
59118W        W30734  15.207  24.410   1.664
59119W        W30735  35.794  35.663  12.483
59120W        W30736   5.003  44.887   0.363
59121W        W30737  20.579  25.062  13.542
59122W        W30738   9.788  27.950  12.207
59123W        W30739  23.605  27.498   4.887
59124W        W30740   5.960   8.744   1.848
59125W        W30741   1.922  24.635  12.605
59126W        W30742  29.790  39.716   4.100
59127W        W30743  32.959  17.273  14.114
59128W        W30744  20.006   9.634  13.650
59129W        W30745  32.464  20.383   3.836
59130W        W30746  18.983   7.316   3.637
59131W        W30747  35.024  22.011  11.311
59132W        W30748   2.254   6.229  13.960
59133W        W30749  18.128  40.295  13.591
59134W        W30750  33.119  16.600   1.314
59135W        W30751  20.013  11.708  11.592
59136W        W30752   6.860   7.141  13.263
59137W        W30753  36.943  14.767   4.901
59138W        W30754   3.496  37.055   5.131
59139W        W30755  14.552  10.642   0.866
59140W        W30756  14.257   4.319  14.453
59141W        W30757  22.597  11.185   4.392
59142W        W30758  32.692  27.654   4.103
59143W        W30759  19.336  44.945   1.841
59144W        W30760   3.570  15.023  11.124
59145W        W30761  31.128  27.947   3.804
59146W        W30762  37.647   1.388  13.946
59147W        W30763  28.534  12.087  12.963
59148W        W30764  21.281   6.366  14.079
59149W        W30765  40.229  16.227  14.925
59150W        W30766  27.116  38.934   1.923
59151W        W30767  33.529  24.214  14.925
59152W        W30768  36.064   2.764   0.192
59153W        W30769  37.327  40.039  12.790
59154W        W30770   0.043   5.676   3.250
59155W        W30771   8.693   8.424  11.882
59156W        W30772   6.677  30.077  11.492
59157W        W30773  39.890  19.756   1.290
59158W        W30774  14.246   2.628  13.894
59159W        W30775  18.074  35.118   4.680
59160W        W30776   3.472  43.284   4.176
59161W        W30777  13.165  26.278  14.009
59162W        W30778   9.745  36.071   3.352
59163W        W30779   3.391   9.741   0.416
59164W        W30780  10.861   3.850  12.071
59165W        W30781  42.298  37.011  11.139
59166W        W30782  38.620  43.471   0.477
59167W        W30783  20.003  24.809   0.230
59168W        W30784  35.904  21.884  11.674
59169W        W30785  13.113  21.016  14.129
59170W        W30786  34.020  20.126   0.292
59171W        W30787  15.708  21.588   0.476
59172W        W30788  34.832  41.985   3.171
59173W        W30789  18.198  16.659  11.486
59174W        W30790  33.178  44.795  11.179
59175W        W30791  17.366  13.447   4.588
59176W        W30792  12.718  20.691   4.722
59177W        W30793  39.906  16.172   3.152
59178W        W30794   4.788  20.705   0.361
59179W        W30795  35.861   4.408  10.721
59180W        W30796  17.178   6.807   1.881
59181W        W30797   3.687  30.042   3.631
59182W        W30798   9.458  14.022  11.613
59183W        W30799  32.710  10.230   3.215
59184W        W30800  31.967  32.049  11.051
59185W        W30801  43.480  13.836  12.037
59186W        W30802  24.693  41.263  14.841
59187W        W30803  16.846  31.943   2.376
59188W        W30804  27.562  34.577  12.855
59189W        W30805  23.676   8.374   1.420
59190W        W30806  10.704  34.531  13.846
59191W        W30807   6.715  29.174  14.905
59192W        W30808   3.834   5.105  12.471
59193W        W30809   7.128  41.747  11.121
59194W        W30810  19.566  41.893  14.607
59195W        W30811   6.599   7.252   1.977
59196W        W30812  18.252  43.758   9.827
59197W        W30813  37.863  29.493   4.093
59198W        W30814  20.481  40.895   0.284
59199W        W30815  19.712  40.789   0.651
59200W        W30816  27.920  36.816   2.768
59201W        W30817   4.780  43.065   0.730
59202W        W30818  41.332  22.737  14.253
59203W        W30819  21.550  44.005   2.428
59204W        W30820  10.872  13.816  11.711
59205W        W30821   0.683   5.848  13.332
59206W        W30822  27.708  30.635  14.507
59207W        W30823   8.264  26.920   4.363
59208W        W30824   1.333  35.507  13.032
59209W        W30825  29.672  37.430   2.861
59210W        W30826  21.274  34.298   4.137
59211W        W30827  41.029  19.553  11.980
59212W        W30828  30.581  43.388  11.795
59213W        W30829  25.182  11.857  12.070
59214W        W30830  43.809  37.812  10.706
59215W        W30831  23.927  18.503  10.613
59216W        W30832   8.732  21.164  11.835
59217W        W30833  15.532  21.997   1.868
59218W        W30834  30.591  23.227   3.134
59219W        W30835   7.174   5.164  13.437
59220W        W30836  28.460  17.447  10.049
59221W        W30837  38.088  26.720  11.496
59222W        W30838  44.072   9.058  12.101
59223W        W30839  16.233  41.225  12.622
59224W        W30840  32.730   0.245   3.214
59225W        W30841  10.542  13.339   2.812
59226W        W30842  29.030  21.080   1.259
59227W        W30843   2.989  23.911   3.647
59228W        W30844  10.106  16.487  11.156
59229W        W30845  30.444  25.931   0.522
59230W        W30846  26.174  11.126  10.781
59231W        W30847  10.063  19.630  14.529
59232W        W30848  36.454  37.971   1.645
59233W        W30849  35.427   1.125  10.650
59234W        W30850   3.366   2.346   3.223
59235W        W30851  19.127  11.384  14.853
59236W        W30852  38.880  22.627   1.919
59237W        W30853  31.973  15.627  12.356
59238W        W30854  27.660  30.178   3.646
59239W        W30855  43.702   6.849   4.436
59240W        W30856   0.202  32.190   2.329
59241W        W30857  38.306  37.374  10.588
59242W        W30858  10.205  24.757  14.267
59243W        W30859  15.665   7.491  13.115
59244W        W30860  24.562  24.315  13.117
59245W        W30861  29.566  41.223  10.401
59246W        W30862   4.142   5.968   4.013
59247W        W30863  19.715  18.489  11.021
59248W        W30864  18.709  14.106   0.400
59249W        W30865   5.715  14.666   1.237
59250W        W30866  24.237   8.753   1.316
59251W        W30867   8.846  23.172   4.207
59252W        W30868  16.657  33.971  13.166
59253W        W30869  32.600  39.370   1.726
59254W        W30870  32.972  25.759   4.567
59255W        W30871   7.608   7.113  10.936
59256W        W30872   7.543  22.708  10.762
59257W        W30873  42.308  13.332  11.891
59258W        W30874  33.872  35.595   4.580
59259W        W30875  14.120   1.261   1.855
59260W        W30876  40.748  15.965  14.032
59261W        W30877  35.928  41.282  11.527
59262W        W30878  21.133  12.389  10.706
59263W        W30879  16.292  30.679  11.644
59264W        W30880  35.812  31.064  10.706
59265W        W30881  13.761  38.851  12.100
59266W        W30882  18.483  22.320   0.845
59267W        W30883  35.647   9.186   4.858
59268W        W30884  34.441  29.127   3.987
59269W        W30885   8.281  30.196  14.401
59270W        W30886  14.225  29.323   1.677
59271W        W30887   9.915  18.160  11.184
59272W        W30888  43.360  23.856   3.972
59273W        W30889  16.682  10.763  12.545
59274W        W30890  30.608   9.201   2.371
59275W        W30891  29.786   1.730   0.984
59276W        W30892   0.483  32.912   1.484
59277W        W30893  16.674  35.796   0.995
59278W        W30894   6.604  17.113  14.213
59279W        W30895  11.859  22.971  13.923
59280W        W30896  35.912  40.819  14.968
59281W        W30897  17.361   4.775  13.866
59282W        W30898   1.719  17.553   4.246
59283W        W30899  16.583  43.752   3.699
59284W        W30900  30.359  35.064   0.819
59285W        W30901  16.037  21.162   0.951
59286W        W30902   1.241  14.676  14.911
59287W        W30903  30.220  22.857  12.102
59288W        W30904  18.048   9.349   2.267
59289W        W30905  36.405  40.506   2.875
59290W        W30906  27.235   9.955   0.284
59291W        W30907   1.850  44.043   5.178
59292W        W30908   0.088  41.457   0.024
59293W        W30909   8.651  18.060   5.061
59294W        W30910  16.504   9.035  10.778
59295W        W30911  15.660   8.258   2.403
59296W        W30912  11.164  23.799  13.268
59297W        W30913  26.437   7.508   0.140
59298W        W30914  29.399  30.529  12.584
59299W        W30915  38.372  38.597  11.978
59300W        W30916  35.537   6.747   4.223
59301W        W30917   5.830  43.826   1.342
59302W        W30918  33.964  44.300   1.761
59303W        W30919  25.639   1.229   0.491
59304W        W30920  16.644  31.602   1.994
59305W        W30921  44.861  32.030   0.889
59306W        W30922  44.911  38.353  12.564
59307W        W30923  25.419  37.303   1.760
59308W        W30924  11.155  11.822  13.372
59309W        W30925  25.582  14.486   2.731
59310W        W30926  36.471  37.121   2.238
59311W        W30927  25.932  35.009   2.367
59312W        W30928  31.782  15.713   3.273
59313W        W30929   9.346  37.441   2.149
59314W        W30930  21.253  28.623   3.241
59315W        W30931  27.474  35.922  12.828
59316W        W30932  31.383  30.868   9.835
59317W        W30933  44.358  20.682  10.754
59318W        W30934  30.648   1.694  14.906
59319W        W30935  36.849  34.425  13.384
59320W        W30936  16.229   3.573  10.876
59321W        W30937   7.656   5.948   4.341
59322W        W30938   9.380  41.963   2.037
59323W        W30939   5.132  17.263  12.485
59324W        W30940   9.592  18.239  12.473
59325W        W30941  29.972  12.743  13.028
59326W        W30942  30.478  15.106   0.800
59327W        W30943   9.671  31.009  10.996
59328W        W30944  22.193  30.468  14.828
59329W        W30945  29.956  23.668   2.300
59330W        W30946   3.057   6.218  14.253
59331W        W30947  12.354  32.134  14.469
59332W        W30948  44.311   2.912   3.617
59333W        W30949  11.829  19.302   0.906
59334W        W30950  20.556   1.720   3.163
59335W        W30951  29.459  11.211   1.418
59336W        W30952  35.807  40.041  11.177
59337W        W30953  15.800  24.574   2.131
59338W        W30954   6.013  15.361   4.043
59339W        W30955  32.367  41.334   4.071
59340W        W30956  20.163  16.291  12.933
59341W        W30957  34.987  15.883   3.231
59342W        W30958  22.797  38.008   1.520
59343W        W30959  39.271   8.988   0.453
59344W        W30960   0.792   4.402  11.161
59345W        W30961  42.082  14.344   1.795
59346W        W30962   5.954   1.332  11.650
59347W        W30963  23.480   9.885   2.307
59348W        W30964  36.979  32.590   4.637
59349W        W30965   3.329  36.265  12.937
59350W        W30966  36.920  20.747   2.156
59351W        W30967  36.257  28.796   1.726
59352W        W30968  19.771  40.452  10.747
59353W        W30969  25.918   5.435  13.787
59354W        W30970  30.888  44.384   0.168
59355W        W30971  27.635  18.222   3.322
59356W        W30972  37.857   7.259   1.519
59357W        W30973  19.587  32.068   0.403
59358W        W30974  30.906  10.830  10.726
59359W        W30975   4.437  31.184   0.842
59360W        W30976  38.491  29.029  14.894
59361W        W30977   4.842  28.760  13.499
59362W        W30978  24.752  41.375   3.609
59363W        W30979  21.938  17.523  12.104
59364W        W30980  40.551  40.035   3.743
59365W        W30981   4.428   4.144  11.174
59366W        W30982  27.966  25.232   5.039
59367W        W30983  25.283  12.170  13.871
59368W        W30984   1.442  15.673   4.607
59369W        W30985   6.785  10.589   3.641
59370W        W30986  38.575  38.838   3.325
59371W        W30987  42.260  28.618  13.583
59372W        W30988  42.207  39.312  13.371
59373W        W30989  13.476  15.190   4.700
59374W        W30990  34.941  19.137  14.454
59375W        W30991  17.544  42.837   3.323
59376W        W30992  43.011  11.154  14.932
59377W        W30993  14.699   0.846   1.257
59378W        W30994  26.629  43.521  11.637
59379W        W30995  24.232   3.794   4.051
59380W        W30996  27.391  44.235  11.539
59381W        W30997  22.607  43.370  14.435
59382W        W30998   9.692  28.160   2.570
59383W        W30999  30.706   1.428   1.896
59384W        W31000  40.811  44.471   0.561
59385W        W31001  10.827   1.700  13.833
59386W        W31002  11.527  37.014  11.108
59387W        W31003  44.368   2.444  14.475
59388W        W31004  14.534  42.366  12.866
59389W        W31005  29.997  24.161   0.291
59390W        W31006  34.479   1.647   3.140
59391W        W31007  15.856   9.310  11.693
59392W        W31008  11.924  33.411   2.248
59393W        W31009  15.292  35.926   3.440
59394W        W31010  40.660  13.675   4.143
59395W        W31011   4.223  38.574  13.400
59396W        W31012   2.303  25.669   3.677
59397W        W31013   3.227  37.148  12.564
59398W        W31014   9.664  17.030  13.921
59399W        W31015  10.715   3.786   1.247
59400W        W31016  42.534  34.820  14.521
59401W        W31017  36.099  29.096   4.586
59402W        W31018  20.505  22.004  11.062
59403W        W31019  34.427  35.725  13.876
59404W        W31020   5.558  22.224   4.106
59405W        W31021   5.274  38.305   0.016
59406W        W31022  41.689   7.361   4.063
59407W        W31023  41.876  17.401  12.489
59408W        W31024   3.391  27.129   4.017
59409W        W31025  22.346   1.736  10.372
59410W        W31026  43.941   8.202   1.489
59411W        W31027   0.383  44.506  13.410
59412W        W31028  38.405  35.005  13.362
59413W        W31029  21.819  34.007  13.044
59414W        W31030   2.251  38.403   0.368
59415W        W31031  28.702  27.729  13.492
59416W        W31032  22.565  26.222  12.811
59417W        W31033   0.549  40.838   0.541
59418W        W31034  36.411   5.881   2.448
59419W        W31035  15.118  36.591   2.172
59420W        W31036  12.613  24.026   3.793
59421W        W31037  23.307  37.222  12.042
59422W        W31038  15.243  20.615  11.651
59423W        W31039  12.263  44.646   3.271
59424W        W31040  42.802  21.284  11.170
59425W        W31041  17.153  19.751  12.950
59426W        W31042  24.119  28.200   4.681
59427W        W31043  37.328  29.467   4.554
59428W        W31044  19.644  22.977   2.119
59429W        W31045   1.870  13.637   3.837
59430W        W31046  19.742  22.904  14.903
59431W        W31047  23.039   2.664   2.385
59432W        W31048  32.589  18.672  13.666
59433W        W31049  10.682  29.961   4.050
59434W        W31050  21.785  17.082  12.917
59435W        W31051  24.476  11.720   0.918
59436W        W31052  23.369  33.902  11.137
59437W        W31053  19.400  23.892   4.171
59438W        W31054  30.663  27.405   5.459
59439W        W31055   8.280  32.365  12.560
59440W        W31056   3.449  27.196   2.236
59441W        W31057  14.075  37.953   4.220
59442W        W31058   6.058  34.486  12.989
59443W        W31059  32.686   1.353  11.072
59444W        W31060   6.712   0.037  10.433
59445W        W31061  19.344   0.983  14.277
59446W        W31062  22.167   1.275  11.407
59447W        W31063  31.576  15.179   3.763
59448W        W31064   1.533  16.012   4.228
59449W        W31065  20.704  19.124   1.189
59450W        W31066  31.913  30.611  12.587
59451W        W31067  15.812  26.718  10.592
59452W        W31068  23.419  17.639  11.485
59453W        W31069  15.320  41.301   0.795
59454W        W31070  26.090   4.299   3.241
59455W        W31071   8.894  18.549   5.067
59456W        W31072  28.138  27.035   0.316
59457W        W31073   9.798  10.500   4.223
59458W        W31074  30.513  21.385   0.086
59459W        W31075  10.402  24.649   2.877
59460W        W31076  27.965  24.737  13.922
59461W        W31077  24.970  10.968   2.333
59462W        W31078   1.193  12.715  12.466
59463W        W31079  10.322  41.081   4.926
59464W        W31080  32.946  37.212   2.469
59465W        W31081   1.675  35.441   1.556
59466W        W31082  43.708  18.166   2.921
59467W        W31083  30.335  15.241  12.830
59468W        W31084  11.769  40.065  14.396
59469W        W31085  30.051   8.843  13.942
59470W        W31086  27.146  39.510  12.710
59471W        W31087   5.657  37.863  14.397
59472W        W31088  31.921  15.123  12.510
59473W        W31089  29.627  17.024   3.213
59474W        W31090   3.764  25.170   1.699
59475W        W31091  17.868  44.282  14.276
59476W        W31092   8.649  10.252  10.276
59477W        W31093   2.523  14.678  14.302
59478W        W31094   7.432  43.163   4.549
59479W        W31095  21.460   4.029   1.203
59480W        W31096   8.349  21.840  12.673
59481W        W31097  23.761   7.418   1.079
59482W        W31098  17.252  19.257   0.456
59483W        W31099  38.029  13.608   4.681
59484W        W31100  18.007  28.059  14.746
59485W        W31101   5.523  34.131   3.289
59486W        W31102  39.105   5.066   3.836
59487W        W31103  26.866  43.924   2.618
59488W        W31104  11.790  39.348  13.437
59489W        W31105  12.832   3.523  12.595
59490W        W31106  16.261  23.714  14.308
59491W        W31107  29.412  17.855  11.180
59492W        W31108  22.749  22.301  10.110
59493W        W31109  41.872  10.800  10.452
59494W        W31110  12.746   6.202  12.368
59495W        W31111  43.879   1.226  13.359
59496W        W31112  22.069   0.792  13.449
59497W        W31113  44.432  41.752  12.068
59498W        W31114   2.459   1.692   0.838
59499W        W31115  10.394  21.645   0.876
59500W        W31116   7.270  25.340  11.113
59501W        W31117  17.571  18.546   1.741
59502W        W31118  15.265  14.204   2.319
59503W        W31119  39.053   2.606  10.747
59504W        W31120  27.934  27.978  12.913
59505W        W31121   3.970  12.320  14.858
59506W        W31122  14.045  28.089  14.404
59507W        W31123   6.616  19.906  11.552
59508W        W31124  11.664  39.815  12.022
59509W        W31125  16.674  42.058  12.104
59510W        W31126  18.549   6.597   5.054
59511W        W31127  43.991   0.713  10.786
59512W        W31128  33.496   7.365   1.216
59513W        W31129  21.137  21.845  14.307
59514W        W31130   8.325  20.212  14.829
59515W        W31131  16.275  38.064   3.600
59516W        W31132  18.690  27.023  11.569
59517W        W31133  24.058   1.578  14.335
59518W        W31134   3.173  11.731   4.583
59519W        W31135   9.306  11.755  12.650
59520W        W31136   4.655  33.933  14.797
59521W        W31137  20.709  29.991   5.013
59522W        W31138   3.693  11.786   0.636
59523W        W31139  44.437   1.166  12.559
59524W        W31140  11.608   8.865  13.177
59525W        W31141  31.482   1.064   2.879
59526W        W31142   9.422   8.218  11.175
59527W        W31143  32.625  20.179   3.363
59528W        W31144   3.374   9.978  11.611
59529W        W31145  42.087   9.632   3.067
59530W        W31146   9.226  37.657   3.585
59531W        W31147  25.443  43.249   1.788
59532W        W31148   3.374  23.894   2.864
59533W        W31149  15.985  19.804  11.144
59534W        W31150  37.105  20.379  12.488
59535W        W31151  35.521  42.416  13.610
59536W        W31152   0.087   2.830   2.440
59537W        W31153  37.027  11.072   4.892
59538W        W31154   1.214  13.771  14.839
59539W        W31155  24.020  40.470  12.565
59540W        W31156  26.306  15.650   5.205
59541W        W31157  21.204  29.380  14.079
59542W        W31158  38.018  17.486  14.210
59543W        W31159  26.407  41.950   4.285
59544W        W31160   3.977   9.434   4.592
59545W        W31161  11.867  39.892   0.767
59546W        W31162   1.675  11.853  11.504
59547W        W31163   9.877  12.847   1.136
59548W        W31164  21.070  35.086  11.002
59549W        W31165   7.787  15.142   4.599
59550W        W31166  41.487  35.904   3.238
59551W        W31167  10.258  42.467  12.336
59552W        W31168  25.590   6.191   4.588
59553W        W31169  41.544   0.909   3.572
59554W        W31170   7.299   1.476  13.965
59555W        W31171  41.483   8.744  12.037
59556W        W31172  36.619  33.630  12.043
59557W        W31173  10.852  29.531   2.382
59558W        W31174  21.207   7.897   4.213
59559W        W31175  37.259  25.644  11.079
59560W        W31176  13.531   5.812   3.686
59561W        W31177  44.261  33.026  11.307
59562W        W31178  28.848  37.121  10.935
59563W        W31179  36.678  23.691   4.571
59564W        W31180  27.432  26.069  14.676
59565W        W31181  19.014   2.833  11.101
59566W        W31182  42.272  34.565   3.411
59567W        W31183   7.089  36.421   2.865
59568W        W31184   9.411  10.387   1.708
59569W        W31185  12.349  20.728  11.607
59570W        W31186  25.697  31.143  14.870
59571W        W31187  12.569  18.636   4.256
59572W        W31188   0.935  29.717  11.218
59573W        W31189  32.820  10.172   4.557
59574W        W31190  35.664  39.249   0.859
59575W        W31191   8.993  21.600  11.991
59576W        W31192   6.813  21.713   4.464
59577W        W31193   6.108  11.258   0.821
59578W        W31194  38.616   2.906   1.290
59579W        W31195  17.477  19.537  11.317
59580W        W31196   0.857  26.668   0.371
59581W        W31197  12.723  31.372   0.833
59582W        W31198  14.670  38.118  10.693
59583W        W31199  16.906   9.380  10.731
59584W        W31200  11.763  20.234  14.080
59585W        W31201  10.302   0.924  12.573
59586W        W31202  21.824  10.883  12.939
59587W        W31203   5.732   2.249   1.268
59588W        W31204  21.605  40.640   1.329
59589W        W31205  34.467   2.900   4.682
59590W        W31206  30.581  23.415  12.418
59591W        W31207   4.837  14.860  14.118
59592W        W31208  28.317  18.694  14.418
59593W        W31209  31.137  43.990  12.935
59594W        W31210  18.746  43.399  14.898
59595W        W31211  36.401   3.338  12.106
59596W        W31212  11.297  42.976   3.758
59597W        W31213   1.963  44.043  12.827
59598W        W31214  24.513  19.349  10.752
59599W        W31215  38.577   3.886   4.347
59600W        W31216  33.818   6.072   4.155
59601W        W31217  32.461   8.774   4.147
59602W        W31218   3.750  12.646   0.570
59603W        W31219  25.261  39.996   4.654
59604W        W31220  24.973  12.886  13.492
59605W        W31221  38.856  16.883   3.236
59606W        W31222  21.018  36.812   4.667
59607W        W31223   0.198  33.978  14.342
59608W        W31224  27.188  34.854   0.631
59609W        W31225  11.770  12.357  12.430
59610W        W31226  36.317  10.743   4.934
59611W        W31227  35.422  16.514  10.682
59612W        W31228  18.047  44.964  13.283
59613W        W31229  29.614  28.977   5.102
59614W        W31230  10.831  18.798   2.219
59615W        W31231  13.130  22.836   4.044
59616W        W31232  28.052   3.169   1.821
59617W        W31233  32.863  33.651   1.338
59618W        W31234  11.442  18.719  13.443
59619W        W31235  33.529  22.289   2.634
59620W        W31236   0.522   7.402  14.192
59621W        W31237   9.227  38.042  13.544
59622W        W31238  11.236  27.057  12.931
59623W        W31239  42.477  30.892   1.704
59624W        W31240  37.862  44.462  14.079
59625W        W31241  27.288  40.263  11.574
59626W        W31242   0.877  27.227  13.859
59627W        W31243  38.934  41.273   4.950
59628W        W31244   2.227  38.917   0.993
59629W        W31245  15.070  37.957   5.100
59630W        W31246  25.518  32.382   2.302
59631W        W31247  18.096  23.369   1.822
59632W        W31248   9.946  11.210   3.754
59633W        W31249  12.417  36.856   2.827
59634W        W31250  17.020   9.333   2.401
59635W        W31251   4.691   7.162  11.484
59636W        W31252   0.324  29.077   3.180
59637W        W31253  14.087  10.907  10.557
59638W        W31254  36.473   1.247   4.080
59639W        W31255  41.934  23.915  12.496
59640W        W31256  41.512  11.350  13.459
59641W        W31257  25.596  37.468  14.266
59642W        W31258   8.839  43.044  12.909
59643W        W31259  15.095  14.300   1.851
59644W        W31260   4.435   2.882  14.036
59645W        W31261  44.841  43.339   4.223
59646W        W31262  32.995   5.783  12.795
59647W        W31263  29.760  24.551  11.136
59648W        W31264   3.206  29.032  10.870
59649W        W31265  14.069  19.541  13.077
59650W        W31266  10.629  32.577   4.037
59651W        W31267   0.728  41.224  14.404
59652W        W31268  13.392  37.214  11.420
59653W        W31269  27.078  40.884   2.991
59654W        W31270   5.221  26.409   3.245
59655W        W31271  11.475   6.765  13.380
59656W        W31272  16.826  30.991   2.754
59657W        W31273  14.551   0.340   0.096
59658W        W31274   3.783  27.947  12.653
59659W        W31275  18.393   8.108  13.394
59660W        W31276  32.507   6.705   1.302
59661W        W31277  40.465  24.955   4.555
59662W        W31278  32.269  15.143  13.395
59663W        W31279  23.540  28.461   0.333
59664W        W31280  14.423  16.346   3.287
59665W        W31281   4.533  34.509   4.189
59666W        W31282  29.010   5.110  13.854
59667W        W31283  24.619  32.909   1.414
59668W        W31284  33.005  18.163  13.924
59669W        W31285  24.815   2.469  11.941
59670W        W31286  18.604  30.892   3.107
59671W        W31287  20.275  31.942  10.421
59672W        W31288  15.459  37.413   3.165
59673W        W31289  43.562  17.126   2.122
59674W        W31290  23.008  36.329   1.827
59675W        W31291  12.089  29.507   2.790
59676W        W31292  15.683  41.179  14.992
59677W        W31293  34.763  13.716   0.835
59678W        W31294  43.806  26.646  14.808
59679W        W31295  33.828   2.865   4.043
59680W        W31296   0.715  19.776  12.034
59681W        W31297  38.548  16.673   2.804
59682W        W31298  40.803  10.632   3.388
59683W        W31299  28.943   3.712   0.772
59684W        W31300   6.410  29.242  14.459
59685W        W31301  44.361  27.471   2.204
59686W        W31302  15.515  30.419   4.103
59687W        W31303  27.714   9.156   1.299
59688W        W31304   4.547  34.461  10.645
59689W        W31305  31.117  37.390   1.814
59690W        W31306   2.415  32.082   1.782
59691W        W31307   0.926  18.204  13.792
59692W        W31308  16.581  21.259  11.093
59693W        W31309   7.357   1.718  14.487
59694W        W31310  23.708  29.439   2.633
59695W        W31311  31.495  31.857   0.380
59696W        W31312   5.265   9.606  14.268
59697W        W31313  13.644  27.727  14.812
59698W        W31314  11.566  39.540  10.616
59699W        W31315  11.783  39.625   3.261
59700W        W31316   2.361  15.216  13.877
59701W        W31317   2.287  17.171   0.916
59702W        W31318   3.978  36.747   4.266
59703W        W31319  14.764  41.481   2.227
59704W        W31320  29.040  23.686  12.466
59705W        W31321  33.503  16.132  10.721
59706W        W31322  35.311   9.550   2.631
59707W        W31323  28.365   6.273   4.117
59708W        W31324  28.048  38.101   3.413
59709W        W31325  38.233  30.638   1.460
59710W        W31326   8.700  16.284  13.069
59711W        W31327  14.560  27.671   4.821
59712W        W31328  39.280  33.102   2.371
59713W        W31329   2.245  13.099   2.120
59714W        W31330   7.674  21.327  12.477
59715W        W31331  34.986   8.588  12.989
59716W        W31332  22.149  38.585  13.195
59717W        W31333   3.309  39.374   4.453
59718W        W31334  28.656   0.812  12.656
59719W        W31335   9.443   1.442  13.529
59720W        W31336  35.716  39.503  13.519
59721W        W31337  15.058  11.269   1.262
59722W        W31338  35.050   9.448  10.520
59723W        W31339   1.241  13.407   1.995
59724W        W31340  43.355   0.016  13.605
59725W        W31341  24.932  15.742  13.415
59726W        W31342   9.143  39.916   3.799
59727W        W31343  38.889  11.127  13.692
59728W        W31344  15.494  27.624   3.266
59729W        W31345  11.425  29.500  14.170
59730W        W31346  16.203   5.068   5.031
59731W        W31347   6.170  43.280   3.200
59732W        W31348   7.414  27.770  14.048
59733W        W31349   3.309   7.852   4.574
59734W        W31350  31.227  42.718   5.401
59735W        W31351  20.468   3.274   2.865
59736W        W31352  26.175  38.479   1.271
59737W        W31353  24.091  39.386   1.686
59738W        W31354  27.701  31.427   3.316
59739W        W31355   6.917   8.904   2.150
59740W        W31356   1.886  39.514  14.874
59741W        W31357  41.343  24.073   3.469
59742W        W31358  22.045  35.093  10.546
59743W        W31359  37.961  35.697  13.696
59744W        W31360  43.010  24.620  13.020
59745W        W31361  25.435  12.274   2.195
59746W        W31362  30.117  44.410  14.515
59747W        W31363  20.519  23.660  12.778
59748W        W31364  38.467   7.295   3.280
59749W        W31365   9.878  39.601   3.648
59750W        W31366  28.123  25.656   0.788
59751W        W31367   3.571  38.095  12.510
59752W        W31368  21.548   4.260   4.063
59753W        W31369   8.252   3.728   3.282
59754W        W31370  18.322  22.747  12.080
59755W        W31371  41.753  29.183   2.980
59756W        W31372  20.783  31.636   4.912
59757W        W31373  19.937  38.855   4.333
59758W        W31374  38.773  42.271  13.900
59759W        W31375  24.187  32.747  11.658
59760W        W31376  16.304  24.721   4.375
59761W        W31377  16.302  30.934  14.680
59762W        W31378  33.103  30.077  11.492
59763W        W31379   5.516  41.657   3.385
59764W        W31380  24.257   9.189  13.063
59765W        W31381   3.467  16.820  11.649
59766W        W31382  32.369  28.586  12.428
59767W        W31383  18.031   0.690   0.864
59768W        W31384  13.316  24.913  13.457
59769W        W31385  23.070  33.313  13.139
59770W        W31386   5.155  22.662  11.791
59771W        W31387  20.191  15.290  11.559
59772W        W31388   9.709  30.506   2.125
59773W        W31389   9.258  16.306   0.336
59774W        W31390  17.934  21.697   1.864
59775W        W31391  17.597  15.844   4.915
59776W        W31392  15.504  37.968   4.691
59777W        W31393   7.731  20.502   2.369
59778W        W31394  35.236  33.012   0.825
59779W        W31395   1.030  12.536   3.685
59780W        W31396  30.268   2.819   2.223
59781W        W31397   6.785  21.217  11.967
59782W        W31398  24.285  26.731  12.075
59783W        W31399  14.323  35.484   4.530
59784W        W31400  39.500  24.758   1.369
59785W        W31401  33.583  21.327   5.029
59786W        W31402  27.871  40.657   1.061
59787W        W31403  35.984  27.890   0.923
59788W        W31404   1.365   3.884   3.287
59789W        W31405   3.239  24.934   0.386
59790W        W31406  10.313  26.963   2.428
59791W        W31407  26.485   2.381  13.177
59792W        W31408  27.232   8.444  11.248
59793W        W31409  41.182  29.481   3.718
59794W        W31410  22.150  14.117  13.625
59795W        W31411  32.987  16.618   3.649
59796W        W31412  36.819  37.885   3.669
59797W        W31413   8.380  24.747  11.619
59798W        W31414  28.613  14.618   3.783
59799W        W31415  20.640   6.203  13.995
59800W        W31416  12.171  15.177  13.981
59801W        W31417  27.158  40.199  10.721
59802W        W31418  30.333   7.139  12.128
59803W        W31419   6.599  25.035   4.082
59804W        W31420   6.206  26.764  11.506
59805W        W31421  17.136  44.790  14.361
59806W        W31422  17.885   5.757   3.208
59807W        W31423  38.890  18.317  10.773
59808W        W31424  33.594   2.404   1.350
59809W        W31425  37.850  18.981  11.620
59810W        W31426  11.576  40.456   2.203
59811W        W31427  36.477  43.791  14.535
59812W        W31428  42.251  26.007  12.047
59813W        W31429  20.897   9.360  13.851
59814W        W31430  27.769  31.027  14.827
59815W        W31431  43.013   4.669   2.243
59816W        W31432   7.264  37.181   4.217
59817W        W31433  42.299  40.361  11.930
59818W        W31434   9.157  39.727   4.514
59819W        W31435   3.891  16.169   1.553
59820W        W31436  18.493  24.975   0.539
59821W        W31437   5.782  17.168   3.032
59822W        W31438  17.160  25.160   1.004
59823W        W31439   6.190  43.307  14.243
59824W        W31440   8.142   0.470   0.860
59825W        W31441   8.242   6.308  13.902
59826W        W31442  43.782  20.202   3.500
59827W        W31443   1.042   4.455  13.893
59828W        W31444  18.525  43.491  12.979
59829W        W31445  25.187  35.102  11.119
59830W        W31446  29.345  29.533   3.202
59831W        W31447   0.675   4.197  12.049
59832W        W31448  17.589  37.720   0.236
59833W        W31449  40.501  24.718  13.055
59834W        W31450  33.031  44.968  14.405
59835W        W31451  21.979  18.105  12.669
59836W        W31452   0.890  26.156   2.217
59837W        W31453   9.278  30.692   3.641
59838W        W31454  37.430  11.139  14.751
59839W        W31455   8.359   5.271  14.020
59840W        W31456  16.827  27.775   1.389
59841W        W31457   5.669   4.445  14.801
59842W        W31458   2.642  35.148   1.385
59843W        W31459  26.074  35.384   0.018
59844W        W31460  24.395  24.917   1.715
59845W        W31461  36.660  33.138   3.745
59846W        W31462  16.811  37.098   1.828
59847W        W31463   8.695  42.016  11.224
59848W        W31464  32.913  41.420  14.357
59849W        W31465  12.224   5.431  11.904
59850W        W31466  24.430  12.662   1.446
59851W        W31467  13.673   2.580  12.514
59852W        W31468  30.085  34.884   3.868
59853W        W31469   1.331  12.792  11.044
59854W        W31470  30.629  23.994  12.915
59855W        W31471   8.236  21.034   2.375
59856W        W31472  19.418  25.413   0.798
59857W        W31473   8.264  42.226  14.521
59858W        W31474   5.776  20.962  11.079
59859W        W31475   3.218  40.771  13.286
59860W        W31476  10.838  23.596   1.797
59861W        W31477  26.886   7.289   2.228
59862W        W31478  16.937   7.426  12.139
59863W        W31479  13.034   7.503   4.222
59864W        W31480  22.483  33.880  11.160
59865W        W31481  34.587  25.017  10.707
59866W        W31482  27.176  43.813   2.191
59867W        W31483  29.516  38.260  13.958
59868W        W31484  32.580  16.598   1.716
59869W        W31485  43.569  29.222   0.496
59870W        W31486  38.441   0.125  14.875
59871W        W31487  14.619  24.618  10.797
59872W        W31488  40.830  42.114  12.468
59873W        W31489  37.208  29.888  12.084
59874W        W31490  31.710  11.276   4.427
59875W        W31491  27.938  19.938   3.660
59876W        W31492   0.022  32.834  10.878
59877W        W31493  31.715   6.028   2.817
59878W        W31494  20.640  33.028   4.599
59879W        W31495  21.089  33.788   2.614
59880W        W31496  14.264   8.242   3.732
59881W        W31497  16.739  31.905   0.734
59882W        W31498  26.996   0.476   4.331
59883W        W31499  30.844  24.217   2.296
59884W        W31500   7.745  17.344  13.479
59885W        W31501  25.474  21.632   0.796
59886W        W31502  41.340  24.938   1.206
59887W        W31503  12.637  28.357  13.572
59888W        W31504  31.575  43.768  13.382
59889W        W31505  21.506  17.098   0.817
59890W        W31506   7.709  20.943   0.508
59891W        W31507  42.798   6.332  12.556
59892W        W31508  33.090  20.280   2.859
59893W        W31509  44.871  35.309  13.908
59894W        W31510  24.507   0.870   4.729
59895W        W31511  40.356  18.963  11.435
59896W        W31512  25.437  24.105   2.939
59897W        W31513  38.442  11.843  14.296
59898W        W31514  33.157   2.189  13.970
59899W        W31515  29.164  15.578  11.005
59900W        W31516  40.896  15.053   1.792
59901W        W31517   3.871   7.645  10.643
59902W        W31518  40.581  34.954  11.164
59903W        W31519  27.162  23.657  13.258
59904W        W31520  27.951  41.000   0.094
59905W        W31521   5.361  34.485   2.349
59906W        W31522  19.082  12.759   4.462
59907W        W31523  29.044  36.245  10.608
59908W        W31524  21.338  11.573   3.722
59909W        W31525   5.933  11.778   1.914
59910W        W31526  13.517  16.785   4.979
59911W        W31527  38.204  15.264  12.032
59912W        W31528   0.963  41.269   4.652
59913W        W31529  44.984  37.865   0.158
59914W        W31530  22.589   9.873   0.336
59915W        W31531  13.762   3.504  12.033
59916W        W31532  17.538  37.050  12.473
59917W        W31533  39.791   2.717  12.489
59918W        W31534   9.382  39.348   1.234
59919W        W31535  17.616  20.044  12.068
59920W        W31536   8.880  14.840  14.489
59921W        W31537  43.934  15.252   4.056
59922W        W31538  18.994   0.147   1.412
59923W        W31539  39.188  42.196   4.509
59924W        W31540  43.546   3.114   4.172
59925W        W31541   7.471   5.410  12.841
59926W        W31542  14.691  29.735  11.288
59927W        W31543  40.817  41.557  10.706
59928W        W31544  32.488  41.572   3.600
59929W        W31545  10.422   7.124   4.362
59930W        W31546   9.996   6.684  11.494
59931W        W31547  21.227  34.084  12.074
59932W        W31548  40.303  31.242  13.376
59933W        W31549  37.453  27.908  14.829
59934W        W31550   0.399   3.071   4.675
59935W        W31551   8.123  17.634   0.337
59936W        W31552  34.456  19.084   0.926
59937W        W31553  20.584   2.284  11.585
59938W        W31554  30.665  36.956   0.292
59939W        W31555  33.915  40.687   1.390
59940W        W31556  37.435   4.731   0.388
59941W        W31557  40.050  25.605   0.798
59942W        W31558   8.171  32.614  14.282
59943W        W31559   0.647   2.635   1.297
59944W        W31560  12.440  22.569   2.782
59945W        W31561   3.516   2.893   2.670
59946W        W31562   8.303  30.526  10.948
59947W        W31563   2.258  21.244   2.318
59948W        W31564   7.664   5.412  14.957
59949W        W31565   9.353   9.395   1.958
59950W        W31566  23.613  35.325   4.164
59951W        W31567  41.043  33.090   2.330
59952W        W31568  22.709  32.415  13.523
59953W        W31569  39.331  15.061   4.848
59954W        W31570  28.704  19.656  11.639
59955W        W31571   3.038  21.097  12.152
59956W        W31572  22.297   4.811   2.035
59957W        W31573  11.349  32.123   3.610
59958W        W31574  27.029  20.033   2.860
59959W        W31575  16.603   5.769  14.991
59960W        W31576  12.572  34.758   4.165
59961W        W31577  20.431  34.481  12.916
59962W        W31578  19.714  15.561  14.455
59963W        W31579   9.818   8.291  10.838
59964W        W31580  27.212  37.067  11.171
59965W        W31581   3.548  11.400  10.535
59966W        W31582   5.109   3.210   4.212
59967W        W31583  17.081  42.330   1.308
59968W        W31584  22.218  40.951   3.850
59969W        W31585   7.439  16.528  14.327
59970W        W31586  26.620  28.635   2.419
59971W        W31587  20.179  20.808   0.530
59972W        W31588  21.315  42.371   0.515
59973W        W31589  36.120  24.959  13.548
59974W        W31590  21.541  31.952   2.436
59975W        W31591  30.586  14.844   4.216
59976W        W31592  10.860  18.284   2.164
59977W        W31593  22.445  38.968   0.480
59978W        W31594  32.242  27.453   5.088
59979W        W31595  14.361  26.655   1.853
59980W        W31596  33.250  35.823  13.423
59981W        W31597  13.770   0.258  14.972
59982W        W31598  44.186  31.605  13.490
59983W        W31599  36.031  12.622   0.571
59984W        W31600  33.550  44.348   4.759
59985W        W31601  18.573  34.060   3.473
59986W        W31602   7.928   4.490  11.604
59987W        W31603  26.785  24.714   2.339
59988W        W31604   5.629  36.041   4.225
59989W        W31605  23.667  10.213  11.144
59990W        W31606  18.850  43.878  14.250
59991W        W31607  41.719  21.217   0.416
59992W        W31608  22.639   4.262   1.318
59993W        W31609  30.175  37.907  13.478
59994W        W31610  42.245  39.216   2.902
59995W        W31611   9.399  32.172  13.933
59996W        W31612   6.048  16.872   3.371
59997W        W31613  42.765  31.963  11.880
59998W        W31614  36.950  12.387   2.879
59999W        W31615  41.298  30.459  13.015
60000W        W31616  39.049  10.212  11.315
60001W        W31617  21.222  29.363  10.919
60002W        W31618  25.825  15.008  14.871
60003W        W31619  37.248  25.397   0.370
60004W        W31620  37.122  27.473   2.595
60005W        W31621  15.275  29.263  14.295
60006W        W31622  22.505  36.046   3.234
60007W        W31623  18.100  26.674  11.615
60008W        W31624  32.438  38.521   3.190
60009W        W31625  35.896  28.590  14.467
60010W        W31626  44.236  12.666  13.467
60011W        W31627  35.595   9.260  12.532
60012W        W31628   5.959  21.811  12.754
60013W        W31629   1.462  25.251   1.521
60014W        W31630   2.884  41.019   1.016
60015W        W31631   6.651  38.648   3.220
60016W        W31632  42.035  19.517   0.707
60017W        W31633  30.532  17.862   3.724
60018W        W31634  17.054   0.373  14.787
60019W        W31635  22.982  26.524  14.863
60020W        W31636  33.429  20.697  14.308
60021W        W31637  21.727   8.069  10.710
60022W        W31638  29.453   0.996  13.402
60023W        W31639   8.950   0.338   0.691
60024W        W31640   8.406  18.995  11.440
60025W        W31641   9.233  21.108   0.394
60026W        W31642  30.028  16.100   4.084
60027W        W31643  26.976  23.088   4.103
60028W        W31644  25.328  13.805  12.928
60029W        W31645  15.163  41.060  13.573
60030W        W31646  19.133  44.444  14.551
60031W        W31647  39.915  16.365   4.082
60032W        W31648  41.514  15.464  14.492
60033W        W31649  42.834   9.422  11.660
60034W        W31650  26.685   1.242   0.944
60035W        W31651   5.240  13.920  13.412
60036W        W31652  19.900  19.888  11.145
60037W        W31653  30.437  26.360   4.093
60038W        W31654   0.108  34.622   3.758
60039W        W31655  39.356   7.931  11.996
60040W        W31656  22.878  44.276   3.591
60041W        W31657  32.882   7.193  10.889
60042W        W31658   7.428  42.837   4.138
60043W        W31659   0.752  13.881   0.753
60044W        W31660  31.151   2.301   3.873
60045W        W31661  23.494  31.422  12.100
60046W        W31662  35.368  31.112   2.265
60047W        W31663  15.308  18.801   9.907
60048W        W31664  19.777  27.041  13.501
60049W        W31665  11.139   9.142  13.782
60050W        W31666  20.248   8.260  13.801
60051W        W31667   9.607  13.630   4.335
60052W        W31668  39.456  17.611   2.852
60053W        W31669  21.643   7.312  11.956
60054W        W31670  43.278  10.133  12.933
60055W        W31671  22.322  13.256   1.818
60056W        W31672   0.713  13.620  12.426
60057W        W31673  27.579   1.852  11.945
60058W        W31674   1.400   6.409  10.769
60059W        W31675  22.219  44.357  13.321
60060W        W31676   4.889  29.030  12.893
60061W        W31677  20.329  35.972   2.419
60062W        W31678  10.197  19.587  14.019
60063W        W31679   7.114  13.910   2.382
60064W        W31680   4.722  22.196  12.424
60065W        W31681   6.186  38.462   1.920
60066W        W31682  41.328  14.908  13.366
60067W        W31683  12.027   9.053   3.285
60068W        W31684  26.163   0.225   0.972
60069W        W31685   8.797  37.998  13.261
60070W        W31686  33.074  24.247  10.688
60071W        W31687  38.678  40.049  14.909
60072W        W31688  33.383  19.500   4.232
60073W        W31689  24.543  12.692  13.659
60074W        W31690   2.269  38.815   0.007
60075W        W31691   1.463  11.750   1.161
60076W        W31692  36.446  40.565  10.679
60077W        W31693   6.308  20.325   0.784
60078W        W31694  14.793  36.396   2.641
60079W        W31695  36.609  16.522   0.760
60080W        W31696  40.359  25.150  10.367
60081W        W31697  44.324  19.579   1.127
60082W        W31698  22.247   5.526   2.747
60083W        W31699  43.747  10.405  11.158
60084W        W31700   7.380  15.195  14.732
60085W        W31701  19.382   7.864   4.257
60086W        W31702   3.421  41.486  12.544
60087W        W31703   8.508  24.674   0.022
60088W        W31704  32.499  44.078  11.264
60089W        W31705  19.240  44.793   9.840
60090W        W31706  21.479  28.532   2.356
60091W        W31707  13.804  17.897  13.892
60092W        W31708  17.657  14.262  11.015
60093W        W31709  37.311  32.441   3.768
60094W        W31710  39.021  30.991  13.859
60095W        W31711  29.511  23.472   0.944
60096W        W31712  21.578  30.448  10.911
60097W        W31713  37.749   4.446  10.528
60098W        W31714  20.470  10.746  13.994
60099W        W31715  43.356  13.187   4.080
60100W        W31716   8.295  24.693  13.064
60101W        W31717  24.805  10.837   3.797
60102W        W31718  12.222  31.022  13.815
60103W        W31719  23.512   9.102  13.464
60104W        W31720  11.395  44.002  12.988
60105W        W31721   7.875  38.442   2.913
60106W        W31722  40.440  14.666  10.824
60107W        W31723  13.294  37.358  11.905
60108W        W31724   5.475  24.755  10.679
60109W        W31725  38.789  27.519   3.717
60110W        W31726   9.684  10.213  10.664
60111W        W31727   5.368   1.529  11.075
60112W        W31728   9.762  32.957   1.687
60113W        W31729  43.545  30.110   2.223
60114W        W31730  33.982  23.434   3.885
60115W        W31731  16.813   9.919  11.665
60116W        W31732  34.337  32.979   3.021
60117W        W31733  15.228   9.682   3.543
60118W        W31734  31.898  41.031  12.445
60119W        W31735  44.651  20.475   0.755
60120W        W31736  25.674  19.861   3.076
60121W        W31737  32.660   6.050  13.627
60122W        W31738  35.642  18.691  11.518
60123W        W31739   5.927  28.778  10.424
60124W        W31740  16.563   0.286  14.987
60125W        W31741  33.149  10.796   1.880
60126W        W31742  17.766  11.643   2.206
60127W        W31743  32.305  35.448   3.857
60128W        W31744  22.276   1.282  14.559
60129W        W31745  30.860  40.221   4.217
60130W        W31746  28.868  20.380  13.290
60131W        W31747  20.209  20.004   2.713
60132W        W31748  38.648  13.053  14.944
60133W        W31749   7.347  32.940  10.667
60134W        W31750  43.437  40.728   2.144
60135W        W31751  42.508  36.863   2.817
60136W        W31752  34.137  10.413   4.109
60137W        W31753  37.391  17.298  10.915
60138W        W31754  38.548  25.541   0.789
60139W        W31755  20.308  10.173   1.809
60140W        W31756  20.804  13.694  10.399
60141W        W31757  29.342   8.212   1.706
60142W        W31758  14.648  26.020   4.359
60143W        W31759  42.226  29.765  13.622
60144W        W31760  13.881  34.847  10.754
60145W        W31761  18.646  41.330   3.105
60146W        W31762  27.658  23.953   1.299
60147W        W31763   8.468  14.537  14.408
60148W        W31764   5.791  16.305  14.300
60149W        W31765  11.779  37.471  13.089
60150W        W31766  34.607  28.502  13.317
60151W        W31767  24.934  14.743  10.418
60152W        W31768  33.075  23.100  14.882
60153W        W31769  22.173  36.980  10.826
60154W        W31770  40.824  39.275  10.960
60155W        W31771  38.068   0.328  10.418
60156W        W31772  35.815  18.874  13.796
60157W        W31773   4.125   3.866   1.085
60158W        W31774  26.175  20.462   3.093
60159W        W31775  13.133  22.780   4.561
60160W        W31776  13.809  16.163   0.629
60161W        W31777  15.055  39.410  11.947
60162W        W31778   0.226   9.517   3.792
60163W        W31779  25.734  32.377   0.759
60164W        W31780  17.269  40.060  10.485
60165W        W31781   2.310  31.107  11.078
60166W        W31782  31.568  20.985  11.524
60167W        W31783   7.388   8.863  14.009
60168W        W31784  10.873  19.514  10.752
60169W        W31785  36.024  33.826   0.941
60170W        W31786  21.321   3.030   2.612
60171W        W31787  21.269  27.592   0.876
60172W        W31788  42.627  25.925   3.498
60173W        W31789  17.349  20.715  11.677
60174W        W31790  22.765  28.745   4.089
60175W        W31791  22.138  34.207   3.144
60176W        W31792  10.400   8.644  11.632
60177W        W31793   9.366   1.822  14.437
60178W        W31794   3.120  35.866  12.033
60179W        W31795  18.789  15.241  13.985
60180W        W31796   9.692   0.275  14.507
60181W        W31797  29.213  11.818  14.753
60182W        W31798  35.960   0.408   3.988
60183W        W31799  21.248  28.627   4.124
60184W        W31800  11.800  18.421  12.203
60185W        W31801  28.203  36.168   2.318
60186W        W31802  34.542   6.915  11.638
60187W        W31803   9.761  36.572  13.936
60188W        W31804   3.422  18.061  10.204
60189W        W31805  42.362  23.634   2.660
60190W        W31806  14.485  13.539  13.343
60191W        W31807  30.511   2.507  11.774
60192W        W31808  31.601  31.864  11.540
60193W        W31809  29.795  30.166   3.849
60194W        W31810  22.729  17.192   4.081
60195W        W31811  29.066  30.995   2.005
60196W        W31812   1.272  18.313  11.514
60197W        W31813  10.598   0.346  11.027
60198W        W31814  41.104  22.749  11.550
60199W        W31815   1.248   3.322   1.259
60200W        W31816  28.518  34.394   2.287
60201W        W31817  39.251   2.546   4.469
60202W        W31818  36.901  13.710   4.037
60203W        W31819  44.345  41.553  12.654
60204W        W31820   2.925  24.575  14.391
60205W        W31821  21.531  14.251  10.420
60206W        W31822  22.453  39.729  11.233
60207W        W31823  41.556   7.701   3.686
60208W        W31824  43.500  38.501   0.962
60209W        W31825  12.201  39.756  14.376
60210W        W31826   2.348  16.688   3.267
60211W        W31827   3.397  13.839  10.523
60212W        W31828  16.471  34.402   0.766
60213W        W31829  42.315  22.078   0.902
60214W        W31830  37.418   1.638   1.284
60215W        W31831   5.878   8.712   4.703
60216W        W31832  30.134   4.875   2.732
60217W        W31833   0.792  18.255  14.418
60218W        W31834  11.295  35.887   3.273
60219W        W31835   1.733  29.773   3.087
60220W        W31836  41.428  32.237   0.294
60221W        W31837   7.671  35.173  11.252
60222W        W31838  25.511  44.467   3.321
60223W        W31839  14.102  38.853  10.619
60224W        W31840  43.481  38.314   3.283
60225W        W31841  42.002  27.242   4.346
60226W        W31842   9.378  13.381  13.421
60227W        W31843   4.035  18.826   3.408
60228W        W31844   5.236  28.651  11.231
60229W        W31845  24.741  20.612   4.028
60230W        W31846  12.648   5.090   5.030
60231W        W31847  18.223  31.411   1.419
60232W        W31848  29.194   1.980  14.884
60233W        W31849   4.778  27.533  12.497
60234W        W31850   9.159   3.346  11.862
60235W        W31851  44.371  31.389  11.952
60236W        W31852  21.144   3.207   3.072
60237W        W31853  24.306  18.765   4.104
60238W        W31854   7.728  29.517  11.956
60239W        W31855  44.785  37.126  13.679
60240W        W31856  19.350  27.053   4.688
60241W        W31857  36.434  37.509   1.881
60242W        W31858  29.358  16.288  13.773
60243W        W31859  25.064  33.320  11.599
60244W        W31860  35.133  44.049  14.341
60245W        W31861  17.300  20.550   2.425
60246W        W31862  22.064  38.702  13.909
60247W        W31863   0.523  10.208  14.356
60248W        W31864  15.926   7.170   4.977
60249W        W31865  24.687  17.091   1.576
60250W        W31866  21.500  41.516  11.897
60251W        W31867  21.719   4.668  13.298
60252W        W31868  22.140   5.365  13.834
60253W        W31869  19.787  37.516  13.761
60254W        W31870  42.750  11.276  11.144
60255W        W31871  14.353   0.919  13.020
60256W        W31872  11.445  12.337   1.306
60257W        W31873   6.891  42.417  10.782
60258W        W31874  24.851  14.443   1.784
60259W        W31875  20.654  35.803  13.570
60260W        W31876  44.313  19.794  13.786
60261W        W31877  36.364  33.955   4.124
60262W        W31878  41.479   8.218  12.098
60263W        W31879   4.841  17.049  14.806
60264W        W31880  35.599  35.293  14.163
60265W        W31881  35.470  17.683  12.040
60266W        W31882  26.647  18.855   2.841
60267W        W31883  44.945   1.191   2.604
60268W        W31884  16.728   2.453  11.885
60269W        W31885  27.626  34.500  10.675
60270W        W31886  26.315  19.755   0.305
60271W        W31887   7.768  16.332   0.794
60272W        W31888  31.213   9.102  13.292
60273W        W31889  44.902   5.838  10.664
60274W        W31890  14.586  22.254  13.878
60275W        W31891  17.208  25.764  11.450
60276W        W31892  32.849   5.789  10.558
60277W        W31893  38.157  41.925  13.063
60278W        W31894  16.330  27.004   3.819
60279W        W31895  10.337  40.961   4.413
60280W        W31896  25.490  24.491  13.253
60281W        W31897  42.742  14.652  13.429
60282W        W31898  37.777  10.769  11.222
60283W        W31899  16.494  20.316  12.625
60284W        W31900  21.170  37.112   4.286
60285W        W31901  44.425  11.670  14.305
60286W        W31902  25.569   8.879   0.677
60287W        W31903  38.592  14.034  11.598
60288W        W31904  19.979  29.573   3.581
60289W        W31905  24.241   3.822   1.729
60290W        W31906  31.507  11.588  10.516
60291W        W31907   2.572   8.117  12.110
60292W        W31908  41.199  37.408   3.247
60293W        W31909  39.003   4.963  14.503
60294W        W31910   7.868  24.746  10.435
60295W        W31911  19.202  12.801  14.524
60296W        W31912  21.589  26.813   2.340
60297W        W31913  20.148  35.362  10.638
60298W        W31914  26.410   1.848  11.227
60299W        W31915  14.217  25.551  13.597
60300W        W31916  12.431  34.341  14.753
60301W        W31917   4.726  17.533  10.369
60302W        W31918   8.525   4.749  12.645
60303W        W31919  23.045   6.399   2.896
60304W        W31920  25.515  43.329  12.927
60305W        W31921   2.449  17.673   1.721
60306W        W31922  27.323  41.745  13.056
60307W        W31923  36.884  34.663  14.930
60308W        W31924  18.344  20.251   2.227
60309W        W31925  25.644   7.770   4.850
60310W        W31926  30.930  43.369  14.076
60311W        W31927  29.659  39.351   4.825
60312W        W31928   4.714  32.908   1.060
60313W        W31929  40.855   6.062   3.242
60314W        W31930  38.593  44.959   1.607
60315W        W31931  39.390  31.773   4.165
60316W        W31932   6.441  39.384  12.124
60317W        W31933  16.265  11.214  10.942
60318W        W31934  33.362   0.361   3.882
60319W        W31935   6.725  42.555   2.825
60320W        W31936  42.384  22.195  11.462
60321W        W31937  40.725  18.754   0.453
60322W        W31938   8.745  30.959   0.993
60323W        W31939  34.159  40.534  10.353
60324W        W31940   9.276  41.600  13.222
60325W        W31941  15.308  30.958   2.456
60326W        W31942  16.381   4.133   4.135
60327W        W31943   5.757  28.286   2.810
60328W        W31944   6.856  27.027   0.039
60329W        W31945   4.618  12.839  10.248
60330W        W31946  13.019   2.991  11.489
60331W        W31947  27.441   5.273   0.405
60332W        W31948  14.736  38.865   2.320
60333W        W31949  11.605  22.239  10.698
60334W        W31950   2.633   5.201   3.750
60335W        W31951  27.613  22.812  13.983
60336W        W31952  34.532   6.452   2.751
60337W        W31953   4.708  11.836   4.505
60338W        W31954  41.859  43.000   1.870
60339W        W31955  25.759  17.611   2.384
60340W        W31956   6.291  34.199  13.806
60341W        W31957  20.817  37.509  10.698
60342W        W31958  22.393  39.484   0.692
60343W        W31959  10.663  44.055   0.324
60344W        W31960  41.727  32.157   5.297
60345W        W31961  12.716  13.571  12.704
60346W        W31962  43.956   2.432   0.831
60347W        W31963  41.352  39.349   1.473
60348W        W31964  17.081   7.601  10.544
60349W        W31965  25.017  23.857   1.294
60350W        W31966  15.461   9.192  12.614
60351W        W31967  36.993  38.226  12.570
60352W        W31968  22.470  16.383  11.472
60353W        W31969  37.361  22.681  12.485
60354W        W31970  17.897   1.971   0.904
60355W        W31971  25.427  27.527  11.733
60356W        W31972  25.691  25.231   4.133
60357W        W31973  43.759  17.803   5.081
60358W        W31974  37.672  22.028  12.898
60359W        W31975  24.990  13.070   0.907
60360W        W31976  15.022  32.515  11.471
60361W        W31977  15.128  12.797  11.200
60362W        W31978   9.116  18.558  12.969
60363W        W31979  33.183   9.004   2.327
60364W        W31980  43.673  30.997  10.945
60365W        W31981  20.692  16.636   1.622
60366W        W31982  28.489   0.291  12.787
60367W        W31983   0.885  42.405   3.758
60368W        W31984  19.212  23.278   0.569
60369W        W31985  13.137  25.273  11.084
60370W        W31986  31.989   4.401  14.443
60371W        W31987  34.438  24.023   2.642
60372W        W31988  43.837  23.593  14.430
60373W        W31989  22.402   8.746  12.927
60374W        W31990  21.646  12.354  14.607
60375W        W31991  35.821  15.746   2.949
60376W        W31992  20.213  11.671  14.373
60377W        W31993  28.505  29.017  13.353
60378W        W31994  35.123  27.053   4.367
60379W        W31995  35.044  37.956  13.396
60380W        W31996  32.388  16.266  12.868
60381W        W31997  42.229   3.658   4.169
60382W        W31998  26.649  43.278   3.724
60383W        W31999  37.940   1.824   0.016
60384W        W32000   3.821  40.972   1.953
60385W        W32001  19.199  27.091   1.238
60386W        W32002   9.256   3.351   1.735
60387W        W32003  22.472  33.947   0.843
60388W        W32004  10.697   9.355  10.654
60389W        W32005  12.643  28.175   4.108
60390W        W32006  28.994  23.560   0.835
60391W        W32007   9.571   6.007   0.004
60392W        W32008  19.983   8.671   3.221
60393W        W32009   2.909  43.295   0.920
60394W        W32010   3.835  17.580   0.774
60395W        W32011   6.719  18.494   2.964
60396W        W32012   2.338  38.377   4.107
60397W        W32013  18.020   4.852   4.540
60398W        W32014  42.790   5.401   2.842
60399W        W32015  12.784  35.150  11.958
60400W        W32016  38.567  27.328   4.147
60401W        W32017  38.125  20.753   4.029
60402W        W32018  38.325  36.536  12.518
60403W        W32019   4.735  10.482   5.056
60404W        W32020  19.627  18.246  13.839
60405W        W32021  25.529  33.279  12.767
60406W        W32022  42.100  10.694   2.285
60407W        W32023  15.815  19.181   5.097
60408W        W32024  43.841  39.050  12.277
60409W        W32025  23.780   2.121   0.917
60410W        W32026   5.772  32.856  14.844
60411W        W32027   4.735  18.063  10.444
60412W        W32028  43.278  16.631  11.012
60413W        W32029  12.177  33.879   4.602
60414W        W32030   7.099  27.987   2.517
60415W        W32031  13.257  44.944  14.817
60416W        W32032  13.268  18.758  10.473
60417W        W32033  42.954  13.976   0.443
60418W        W32034  29.159  29.064   9.833
60419W        W32035  18.271  35.037  11.568
60420W        W32036  27.525   8.614  11.646
60421W        W32037  22.812  40.888   2.808
60422W        W32038   8.880  39.127  14.312
60423W        W32039  41.722  32.452   2.395
60424W        W32040  18.207  32.885   0.933
60425W        W32041  34.746  16.121   1.349
60426W        W32042  18.180  34.693   1.748
60427W        W32043  27.156  25.265   4.962
60428W        W32044  17.158   9.558  10.293
60429W        W32045  38.410  24.304   4.415
60430W        W32046   9.892   5.698   4.695
60431W        W32047  17.130  44.889  12.114
60432W        W32048   7.936  16.073   2.588
60433W        W32049   1.799  44.058   1.246
60434W        W32050   4.782  33.149  11.584
60435W        W32051   7.409  30.337  11.350
60436W        W32052  44.540  37.559   1.304
60437W        W32053   0.985  25.156   3.808
60438W        W32054  42.252   6.528   0.235
60439W        W32055  36.589  35.375   4.456
60440W        W32056  25.103  16.113   0.292
60441W        W32057   4.280  24.323  12.979
60442W        W32058  23.171   1.854   2.898
60443W        W32059  38.103  29.177  13.549
60444W        W32060  44.397  15.179  14.847
60445W        W32061  40.893  42.248  14.540
60446W        W32062  40.346  10.156  11.483
60447W        W32063  11.063   2.335   3.083
60448W        W32064   7.669  42.330   3.296
60449W        W32065  16.682   4.267  14.700
60450W        W32066  14.770  44.173   3.288
60451W        W32067   8.859  22.159  11.151
60452W        W32068  24.992   3.396  12.075
60453W        W32069  30.386  11.803  13.029
60454W        W32070   7.723  14.223  12.490
60455W        W32071  19.627  20.455  12.545
60456W        W32072  38.024  20.200   3.228
60457W        W32073   6.663  21.315   2.360
60458W        W32074  23.301  39.036   4.534
60459W        W32075   6.335   5.655  10.083
60460W        W32076   4.179  11.358  13.741
60461W        W32077  22.528  30.200  11.638
60462W        W32078   2.363  19.470   2.006
60463W        W32079  32.443  25.343  14.851
60464W        W32080  29.146   1.837  14.346
60465W        W32081  16.935   9.242   3.260
60466W        W32082  14.174   1.435  13.023
60467W        W32083   5.415  29.861   3.214
60468W        W32084  25.968  21.713   0.919
60469W        W32085  43.019  19.579   2.801
60470W        W32086   0.205  20.679  13.390
60471W        W32087   1.898  19.459   1.774
60472W        W32088  26.760  35.120  14.879
60473W        W32089   1.291   1.892  14.480
60474W        W32090  30.491   6.023   3.783
60475W        W32091  33.930  10.938  13.513
60476W        W32092   1.380  20.002  12.782
60477W        W32093  38.718  38.120  10.583
60478W        W32094  23.810   1.874   4.226
60479W        W32095  11.073  25.831  12.279
60480W        W32096  40.296  25.190  11.365
60481W        W32097  34.712   0.244  11.997
60482W        W32098   0.971  34.842  14.357
60483W        W32099   3.789   3.852   0.061
60484W        W32100  25.668  39.025  11.637
60485W        W32101  20.202  12.632  13.060
60486W        W32102  26.659  35.609  12.198
60487W        W32103   3.139  13.541  11.072
60488W        W32104  21.185   2.555   2.806
60489W        W32105  13.368  26.278   0.362
60490W        W32106  32.418  40.414   3.229
60491W        W32107  11.238   0.573  13.888
60492W        W32108   3.204  38.912   2.798
60493W        W32109  12.402   3.473  13.513
60494W        W32110  41.869  36.839  14.187
60495W        W32111  36.799  10.581  11.436
60496W        W32112  28.275   6.372  13.986
60497W        W32113  21.646  11.168  12.502
60498W        W32114  11.629  39.293  11.079
60499W        W32115  12.948  30.656   2.280
60500W        W32116  31.506  15.025  12.854
60501W        W32117  34.614  28.447   0.963
60502W        W32118  38.650   7.323  10.186
60503W        W32119  12.180   3.776   2.370
60504W        W32120  22.303  38.328   1.076
60505W        W32121  38.842   6.857  13.009
60506W        W32122  39.445  21.707  11.515
60507W        W32123  19.214  13.240   4.667
60508W        W32124   9.156  11.117  11.520
60509W        W32125   1.286  35.148  12.610
60510W        W32126  23.675  34.662  14.336
60511W        W32127  27.704  40.836   2.815
60512W        W32128  43.793  31.390  14.999
60513W        W32129  38.663   7.161   2.804
60514W        W32130  12.623  23.186   0.374
60515W        W32131   8.266  38.633   4.321
60516W        W32132  22.144   4.420   3.437
60517W        W32133  42.527  33.459  11.154
60518W        W32134  13.873  33.262  12.775
60519W        W32135  31.925  22.734  14.412
60520W        W32136  15.687  33.576  14.835
60521W        W32137  14.108   7.291  12.931
60522W        W32138  20.095   4.877  13.123
60523W        W32139  42.397  31.284  13.959
60524W        W32140  42.527  19.691   1.907
60525W        W32141  18.169   8.546  14.332
60526W        W32142  36.557  44.411  13.598
60527W        W32143  13.063   4.125   5.378
60528W        W32144  11.101  16.478   3.210
60529W        W32145  41.483  17.157   0.399
60530W        W32146   8.366   1.853  12.936
60531W        W32147  28.387  10.806  10.890
60532W        W32148  21.688   2.393   2.852
60533W        W32149  42.458  11.897  12.018
60534W        W32150   2.449  36.932   4.903
60535W        W32151  21.043  10.296   4.166
60536W        W32152  13.345  18.736  12.292
60537W        W32153  24.045  12.148   4.700
60538W        W32154  26.533  23.209   4.803
60539W        W32155   8.362   9.702  13.536
60540W        W32156  42.443   6.137   3.827
60541W        W32157   3.638  36.802   0.914
60542W        W32158   2.980  44.892   4.146
60543W        W32159   5.269  10.235   4.198
60544W        W32160   1.427  43.890  14.681
60545W        W32161  21.101   8.302   3.382
60546W        W32162   1.589  30.499  14.236
60547W        W32163  32.200   7.261  13.294
60548W        W32164  30.354  15.329   3.866
60549W        W32165  18.147  13.316  12.314
60550W        W32166   1.917  16.523  14.028
60551W        W32167  17.772  40.504  12.401
60552W        W32168  34.871  42.897   3.178
60553W        W32169  16.105  27.653  11.981
60554W        W32170  11.796  32.773   9.940
60555W        W32171  29.988  30.077  10.703
60556W        W32172  44.884  27.120   3.196
60557W        W32173  16.248  22.183  12.427
60558W        W32174  38.862   4.004  14.797
60559W        W32175  21.266  29.086   2.157
60560W        W32176   9.086   7.865  12.475
60561W        W32177  41.494  43.431   1.635
60562W        W32178  37.419  13.819  14.821
60563W        W32179  28.488   9.407  11.160
60564W        W32180  21.860  19.808   3.064
60565W        W32181  38.272  26.022   0.046
60566W        W32182  14.208  34.189   2.310
60567W        W32183   2.749   8.884   0.101
60568W        W32184  28.675   4.323  12.126
60569W        W32185  18.638  22.012   2.375
60570W        W32186  31.495  15.562  14.387
60571W        W32187  29.976  40.529   3.820
60572W        W32188   0.311   1.264   1.464
60573W        W32189  43.959  40.563  12.414
60574W        W32190  11.315  40.325  11.243
60575W        W32191  15.775  42.359  10.507
60576W        W32192  27.688  12.371   1.875
60577W        W32193  15.307  25.202   4.212
60578W        W32194  19.692   6.622   2.760
60579W        W32195  14.858  14.052  10.736
60580W        W32196  19.219  33.808   0.983
60581W        W32197  35.319  33.556  10.552
60582W        W32198  19.041  39.440   2.289
60583W        W32199  17.087  44.727  13.428
60584W        W32200  16.622  23.545  11.110
60585W        W32201  43.050  37.130   1.740
60586W        W32202  18.345  32.324  11.095
60587W        W32203  35.508  29.674  11.216
60588W        W32204  40.628  17.163  10.607
60589W        W32205   6.620  11.398   0.930
60590W        W32206  36.409  19.506  13.669
60591W        W32207  29.116  41.434  11.132
60592W        W32208  14.287  42.988   2.656
60593W        W32209  25.595  19.059  12.618
60594W        W32210  42.788   4.674  11.997
60595W        W32211   8.056   0.813  12.060
60596W        W32212   3.551  14.311  14.321
60597W        W32213  23.132   2.462   4.246
60598W        W32214  27.481  22.960   2.358
60599W        W32215  41.274  12.156   2.886
60600W        W32216   6.867  37.078  14.382
60601W        W32217  28.527  34.393   0.309
60602W        W32218  43.855   9.921  12.565
60603W        W32219  21.089   7.742  14.336
60604W        W32220  10.368  30.163   0.932
60605W        W32221  22.574  20.009  13.871
60606W        W32222  26.582  33.085   0.093
60607W        W32223  23.847  28.574  14.880
60608W        W32224  36.412  20.585  11.894
60609W        W32225  25.418  12.244  12.516
60610W        W32226   8.115  43.517   0.911
60611W        W32227   5.683  27.400   1.805
60612W        W32228  44.437  15.527  14.329
60613W        W32229  40.851  13.774  12.921
60614W        W32230  26.526  25.247   0.325
60615W        W32231  30.124  23.516   2.773
60616W        W32232  13.686  26.971   4.654
60617W        W32233   0.438  13.498  12.886
60618W        W32234  22.042  24.675   0.878
60619W        W32235  22.245   0.835  12.583
60620W        W32236  29.075  19.151   4.828
60621W        W32237  16.312   4.081   0.009
60622W        W32238   5.488  35.571  10.687
60623W        W32239  42.398   5.241   0.745
60624W        W32240  15.645  37.314   3.923
60625W        W32241  22.366  21.724   1.207
60626W        W32242  34.989  29.141  12.907
60627W        W32243  29.942  21.262   1.972
60628W        W32244  38.661  24.992  13.033
60629W        W32245  42.928  16.839  10.558
60630W        W32246  20.134   3.939  10.672
60631W        W32247   0.896  27.362   3.733
60632W        W32248  35.021  17.490   4.558
60633W        W32249  35.060   6.381   1.315
60634W        W32250  38.328  40.531   3.080
60635W        W32251  30.625   9.659   1.987
60636W        W32252   8.814  42.228  10.232
60637W        W32253  37.696  12.598   0.149
60638W        W32254   4.343  20.736   2.673
60639W        W32255  13.699   3.483   1.397
60640W        W32256  25.139  14.208   2.630
60641W        W32257   6.242  32.183  13.903
60642W        W32258  18.652  32.232  14.390
60643W        W32259  34.871  37.046  13.104
60644W        W32260  22.967  35.327  10.498
60645W        W32261   8.851   7.884   3.118
60646W        W32262   8.415  32.553  13.401
60647W        W32263  41.944  19.779   4.947
60648W        W32264  17.988  11.850   4.480
60649W        W32265   0.048  37.333   3.822
60650W        W32266  20.187  44.253   2.213
60651W        W32267  25.189  29.066  14.820
60652W        W32268  36.536  31.351   2.497
60653W        W32269  31.561  22.160  11.967
60654W        W32270  16.693   5.370  11.172
60655W        W32271  44.430  21.005   3.130
60656W        W32272  14.553  12.457   1.295
60657W        W32273  10.582  31.015   2.361
60658W        W32274   7.664  29.010  12.054
60659W        W32275   0.909  11.245   4.454
60660W        W32276  42.773  24.289   0.840
60661W        W32277  20.131  44.175   5.014
60662W        W32278  19.838  20.107   5.137
60663W        W32279  36.619  18.102   0.499
60664W        W32280  25.020  20.916  12.941
60665W        W32281  44.050   9.889   0.944
60666W        W32282  26.280   9.880  14.270
60667W        W32283  44.857  40.425   3.730
60668W        W32284  29.386  34.524   3.778
60669W        W32285  32.699  29.036  11.507
60670W        W32286  44.265  35.973   1.714
60671W        W32287  14.551   6.256   0.365
60672W        W32288  26.138  22.168   0.708
60673W        W32289  26.397   0.891   1.907
60674W        W32290  33.039  30.865  12.019
60675W        W32291  27.637  22.765  13.093
60676W        W32292  33.399  25.094   5.048
60677W        W32293  26.627  18.580   4.194
60678W        W32294  39.228  35.977  12.315
60679W        W32295   1.920  33.705   2.350
60680W        W32296  34.817   1.341   3.422
60681W        W32297  37.942  15.675  11.914
60682W        W32298  13.731  29.994  12.345
60683W        W32299  29.675  31.890  14.720
60684W        W32300  31.845   2.747   3.777
60685W        W32301  40.936  44.411   2.285
60686W        W32302  14.831  39.859  13.421
60687W        W32303  16.531  42.717   4.689
60688W        W32304  44.146   3.114   1.708
60689W        W32305  43.688  34.033  12.909
60690W        W32306   7.261  15.700  14.806
60691W        W32307  27.942  20.463  12.820
60692W        W32308  12.120  15.693   3.599
60693W        W32309   1.564  30.616  12.785
60694W        W32310  32.577   6.720  11.614
60695W        W32311  32.553  19.237   1.628
60696W        W32312   7.684  40.618  12.938
60697W        W32313  15.201  11.695   3.608
60698W        W32314  15.474  35.341  14.879
60699W        W32315  11.298  37.984   4.623
60700W        W32316  28.514   9.573   1.422
60701W        W32317   7.609  38.328   3.328
60702W        W32318   8.573   7.273  14.085
60703W        W32319  20.749   4.933   3.217
60704W        W32320   8.170  15.705  11.605
60705W        W32321  25.292   1.906  14.814
60706W        W32322  25.825   8.016  13.186
60707W        W32323   4.949  24.656   0.875
60708W        W32324  43.253  21.371  10.756
60709W        W32325   7.955   7.074  11.291
60710W        W32326  34.889  13.145  14.459
60711W        W32327  37.708  27.679  11.511
60712W        W32328   9.282  16.715  13.764
60713W        W32329   7.168  32.599  12.138
60714W        W32330  27.428  13.744   3.665
60715W        W32331  33.442  21.093  10.251
60716W        W32332  15.279  16.043  13.814
60717W        W32333   6.664  39.984   4.161
60718W        W32334  20.267  28.532   1.009
60719W        W32335  26.899  19.300  12.162
60720W        W32336  34.858  28.618  10.169
60721W        W32337  41.001  34.829  12.563
60722W        W32338  42.358  19.529  11.339
60723W        W32339  20.613  38.789   2.732
60724W        W32340  13.783  13.639  11.625
60725W        W32341  30.486  33.558   0.873
60726W        W32342  44.991  14.184  11.283
60727W        W32343  37.881   6.847  14.389
60728W        W32344  23.656  16.339  11.633
60729W        W32345  28.455  11.364  14.785
60730W        W32346   1.499  42.961  14.396
60731W        W32347  34.984  33.927  14.740
60732W        W32348  28.441  32.254   1.359
60733W        W32349   3.458  15.899  12.010
60734W        W32350   5.233  36.829   2.347
60735W        W32351  41.301  18.575   2.756
60736W        W32352   3.959  41.669  12.112
60737W        W32353  17.218  33.915  14.266
60738W        W32354   1.487  16.046  14.821
60739W        W32355  31.168   8.895  11.359
60740W        W32356  18.351  30.420  13.532
60741W        W32357   0.875  40.420   3.771
60742W        W32358   1.283  24.670   1.199
60743W        W32359  40.454   9.808   4.090
60744W        W32360  15.344  36.336   4.143
60745W        W32361   8.358   7.378  12.528
60746W        W32362   6.702  12.502   2.840
60747W        W32363  44.460  14.136   4.061
60748W        W32364  10.822  32.873   0.961
60749W        W32365  40.493  26.664  11.484
60750W        W32366   8.189  29.628   2.293
60751W        W32367  26.121  19.832  10.702
60752W        W32368  20.944  34.247   0.775
60753W        W32369  27.774   4.218   4.728
60754W        W32370  43.368  22.297   4.247
60755W        W32371  13.906  18.321   2.380
60756W        W32372  37.141  25.497   1.321
60757W        W32373   0.776  19.539   4.633
60758W        W32374  26.625  23.091  11.082
60759W        W32375   4.439  21.094   1.852
60760W        W32376   9.447  21.500   0.648
60761W        W32377  22.584   4.393   3.772
60762W        W32378   1.083  21.787  12.888
60763W        W32379  15.088   2.438   4.989
60764W        W32380  29.075  40.690  13.095
60765W        W32381  23.790  37.045   0.493
60766W        W32382  41.991   5.674   4.389
60767W        W32383  34.829  18.568   1.470
60768W        W32384  40.346  35.477   4.357
60769W        W32385   1.957  39.283   0.727
60770W        W32386  18.201  25.671  11.506
60771W        W32387  35.399  40.317  11.519
60772W        W32388   6.957   9.216   1.315
60773W        W32389  24.207  25.040   3.751
60774W        W32390  21.236  18.641   4.315
60775W        W32391  28.527  28.697   0.391
60776W        W32392   2.696   0.757  14.759
60777W        W32393  24.682   4.584  11.145
60778W        W32394  31.112  40.324   4.666
60779W        W32395  19.859  27.632   2.788
60780W        W32396  16.580  29.045   2.805
60781W        W32397  15.802  33.829   3.128
60782W        W32398  27.232  12.200  13.377
60783W        W32399  14.920  43.574   0.121
60784W        W32400  39.087  14.745  10.676
60785W        W32401  35.579   4.425  14.240
60786W        W32402   3.236  43.002  10.003
60787W        W32403  37.079  11.569   0.682
60788W        W32404  17.083  25.001  12.558
60789W        W32405   5.902  33.575   4.072
60790W        W32406  17.907  14.751  14.347
60791W        W32407  12.219   9.193   0.407
60792W        W32408   7.138  27.532  10.730
60793W        W32409   7.143  32.411  14.979
60794W        W32410  27.853  10.653   1.864
60795W        W32411  28.946   9.476   4.455
60796W        W32412  21.603   8.161   1.788
60797W        W32413  37.471   2.174   4.631
60798W        W32414  24.266  16.629  12.591
60799W        W32415  30.951  20.354   1.305
60800W        W32416  27.146  19.591   2.435
60801W        W32417  34.307  23.203  12.096
60802W        W32418  14.746   1.219  12.845
60803W        W32419   1.992  31.994   3.667
60804W        W32420  35.405  36.486  10.705
60805W        W32421  19.591  23.514  13.729
60806W        W32422  42.352  28.080   1.749
60807W        W32423  37.613   6.595   3.226
60808W        W32424  35.062  13.642  14.390
60809W        W32425   7.052  34.442   2.481
60810W        W32426  21.599  42.868  11.915
60811W        W32427  25.754  20.532  14.002
60812W        W32428  18.327   7.433   2.154
60813W        W32429  14.636   1.351   1.824
60814W        W32430  24.226   3.004  13.381
60815W        W32431   1.951  12.791   4.767
60816W        W32432   4.789  41.441  11.636
60817W        W32433  22.742  38.081  13.431
60818W        W32434   4.795  19.653   0.201
60819W        W32435   6.546  31.413   2.713
60820W        W32436  41.793   8.880  11.656
60821W        W32437  22.765  22.193   1.880
60822W        W32438  29.203   6.909  13.840
60823W        W32439  35.784  38.426  11.388
60824W        W32440  11.316  10.910   1.782
60825W        W32441   9.830  43.529   1.153
60826W        W32442   9.186  30.624   2.178
60827W        W32443  38.568  28.493   0.738
60828W        W32444  17.320  11.378  12.372
60829W        W32445  12.166  18.059  14.052
60830W        W32446  30.415  15.758   4.167
60831W        W32447   6.128  30.877   0.450
60832W        W32448  40.575   4.228   1.476
60833W        W32449   1.132  37.001   4.602
60834W        W32450   2.226  15.606  10.701
60835W        W32451  22.674  22.206  11.970
60836W        W32452  13.939  34.522   2.802
60837W        W32453  12.578  24.945  12.932
60838W        W32454  31.471  33.121   1.847
60839W        W32455   5.842  23.994   1.425
60840W        W32456  23.184  31.138   1.633
60841W        W32457  25.881   8.973  10.158
60842W        W32458  17.901  43.324  10.721
60843W        W32459   0.868  37.607  13.118
60844W        W32460   8.416   1.819  12.076
60845W        W32461  32.275  15.591   3.242
60846W        W32462   5.674  32.066  10.601
60847W        W32463  17.659   2.706   1.357
60848W        W32464  15.062  14.665  11.542
60849W        W32465  31.205  15.707   0.732
60850W        W32466   0.945  34.549  13.886
60851W        W32467   1.859  23.765  11.607
60852W        W32468   0.917  26.872   1.964
60853W        W32469  43.143  32.766  14.356
60854W        W32470  16.909  17.198   1.996
60855W        W32471   5.518  10.652  13.834
60856W        W32472  34.899   5.569   3.906
60857W        W32473  19.518  22.537   0.230
60858W        W32474  43.865   6.611  10.667
60859W        W32475  41.846  28.155   2.293
60860W        W32476  43.780  20.042   0.219
60861W        W32477  34.418  20.691  14.151
60862W        W32478  26.252  30.861   3.625
60863W        W32479  22.075   6.860  11.829
60864W        W32480  23.852  26.823  13.389
60865W        W32481  19.182  10.666   1.912
60866W        W32482   5.487  16.254  10.983
60867W        W32483  14.297  26.573  11.545
60868W        W32484   1.188  19.177  11.541
60869W        W32485   5.602   7.860  12.968
60870W        W32486  10.183  15.348   5.104
60871W        W32487  41.177  22.253  13.249
60872W        W32488  25.648  26.122  12.813
60873W        W32489  22.011  26.384  11.333
60874W        W32490  35.096  28.664  13.119
60875W        W32491   2.487  39.791   2.418
60876W        W32492  42.837  22.916   3.167
60877W        W32493   7.876  31.465   1.368
60878W        W32494  37.320  16.830  11.133
60879W        W32495   1.986  44.216  11.964
60880W        W32496  35.005  17.812   1.848
60881W        W32497  36.968  17.076  14.943
60882W        W32498  25.732  15.920  10.524
60883W        W32499  21.539   0.354   3.672
60884W        W32500  35.590  31.522  12.375
60885W        W32501  13.328  32.633   3.700
60886W        W32502  15.448  34.622   2.681
60887W        W32503  17.882   6.199   2.700
60888W        W32504  29.467  30.741   4.680
60889W        W32505  34.897  17.933  14.551
60890W        W32506  25.064  18.312  13.470
60891W        W32507  18.282  32.024  10.378
60892W        W32508  27.777  32.100  11.156
60893W        W32509  21.286  17.061  11.991
60894W        W32510   8.426  33.744  12.394
60895W        W32511  17.673  32.859   2.151
60896W        W32512  35.537  29.161   4.683
60897W        W32513  26.495  27.845  12.976
60898W        W32514  39.016  27.595  12.456
60899W        W32515  15.407  25.662   0.468
60900W        W32516  33.726   7.748  14.005
60901W        W32517  23.022  40.224  14.475
60902W        W32518   0.418   2.847   2.862
60903W        W32519  30.491  35.023  12.523
60904W        W32520  33.104  11.597   4.110
60905W        W32521  25.612  37.133  13.368
60906W        W32522  30.973  41.976  14.383
60907W        W32523  41.412  11.667   4.757
60908W        W32524   5.678  18.988  12.062
60909W        W32525  20.557  18.624   2.957
60910W        W32526  21.021  32.233   0.383
60911W        W32527  16.324   1.827  10.902
60912W        W32528  35.873   7.154  12.053
60913W        W32529  39.478  15.183   0.253
60914W        W32530  42.721   9.157  14.461
60915W        W32531  37.931  22.905   1.481
60916W        W32532  36.908   1.977  11.145
60917W        W32533  12.143  39.874   4.143
60918W        W32534  22.630  35.435   2.978
60919W        W32535  12.767  10.366  10.721
60920W        W32536  28.298  29.491   2.141
60921W        W32537  33.452  26.402   2.223
60922W        W32538  16.221  16.558   1.072
60923W        W32539   1.787  20.620   1.733
60924W        W32540  25.894   8.733   3.928
60925W        W32541   1.216  15.561  11.643
60926W        W32542  16.604  36.478   3.162
60927W        W32543   5.437  13.663  13.018
60928W        W32544  35.494  43.743  12.017
60929W        W32545  32.598  30.966  13.458
60930W        W32546   3.812   4.888   0.878
60931W        W32547  19.706  23.461   2.249
60932W        W32548   5.309   7.302  13.409
60933W        W32549  35.066  30.275  11.547
60934W        W32550   2.387  10.150   0.208
60935W        W32551   5.947  20.572   1.093
60936W        W32552  32.975  32.682   1.647
60937W        W32553  44.746   1.061   3.591
60938W        W32554  44.805  34.025  10.725
60939W        W32555  43.431   8.280   1.630
60940W        W32556   2.301  32.395  12.144
60941W        W32557   9.635  38.880   0.927
60942W        W32558  38.868   7.633  11.017
60943W        W32559  22.166   9.809   4.944
60944W        W32560  31.708  16.569  12.627
60945W        W32561  31.417  15.132   4.592
60946W        W32562  43.784   6.331  11.114
60947W        W32563  39.409  39.887   2.286
60948W        W32564  17.290  30.698  14.334
60949W        W32565   2.489  43.108  14.617
60950W        W32566  41.077  20.201  11.549
60951W        W32567  19.452  24.008  13.693
60952W        W32568  22.993  41.807   2.005
60953W        W32569  19.598  27.985  13.662
60954W        W32570  15.936  11.617   2.696
60955W        W32571  27.603   8.361   1.297
60956W        W32572  26.711  40.497   3.344
60957W        W32573  10.579   9.884   1.932
60958W        W32574  23.222  28.935  11.190
60959W        W32575   8.679  13.596   3.751
60960W        W32576  33.887  42.935  11.689
60961W        W32577  31.999   3.556  10.259
60962W        W32578  26.854  23.496   2.804
60963W        W32579  23.110  28.499   0.668
60964W        W32580  30.028  38.179   0.895
60965W        W32581  14.814   5.775   0.319
60966W        W32582   1.714  21.717  11.147
60967W        W32583  21.519   9.829  11.444
60968W        W32584  38.876  41.859  13.574
60969W        W32585   0.997  41.219   2.134
60970W        W32586   8.486  41.577  11.039
60971W        W32587  19.311  30.510  13.490
60972W        W32588  26.953  31.835   0.052
60973W        W32589  15.680  23.097   3.362
60974W        W32590  28.808   7.882  14.800
60975W        W32591   1.011  10.069   1.141
60976W        W32592  15.515  23.577   1.092
60977W        W32593  35.011   1.180  12.060
60978W        W32594  34.493   4.862  10.892
60979W        W32595  15.226   8.451   2.227
60980W        W32596  33.287   9.295  14.292
60981W        W32597  37.376  19.511  11.887
60982W        W32598  21.152  14.082   4.011
60983W        W32599  17.576  11.768   0.653
60984W        W32600   6.729  16.530   2.201
60985W        W32601   9.252  15.882  12.382
60986W        W32602  29.816   8.229  12.537
60987W        W32603  40.737  21.033   0.460
60988W        W32604  30.815  38.251  14.388
60989W        W32605   9.873  27.774  11.521
60990W        W32606  25.717  26.600   0.496
60991W        W32607  40.694  33.367   2.657
60992W        W32608  36.395  27.694   2.517
60993W        W32609   0.193  22.502  13.382
60994W        W32610  33.322  20.958  12.042
60995W        W32611   9.079  34.077   2.132
60996W        W32612  34.342  16.831   3.029
60997W        W32613   1.352  43.546   4.444
60998W        W32614  33.085   7.413  13.544
60999W        W32615  12.822  34.801   0.469
61000W        W32616   1.347  18.548  14.875
61001W        W32617  35.222  41.380  12.038
61002W        W32618  44.785  10.627   3.795
61003W        W32619  19.312  42.343  12.054
61004W        W32620   9.719   8.917   3.281
61005W        W32621  14.064   0.770  13.510
61006W        W32622  35.908  29.117  11.604
61007W        W32623  44.844  23.554   2.762
61008W        W32624  19.085  25.960   0.884
61009W        W32625  34.006  10.175   3.668
61010W        W32626  21.245  35.653   4.780
61011W        W32627   7.153   0.489  11.943
61012W        W32628  40.512  24.420   0.923
61013W        W32629   9.132  23.426   0.516
61014W        W32630   2.834   5.139   2.444
61015W        W32631  41.009  29.939   1.962
61016W        W32632  30.668  26.050   2.858
61017W        W32633  17.052  26.533   0.271
61018W        W32634  12.294  10.969   4.817
61019W        W32635  34.122  17.419  14.854
61020W        W32636  16.669  13.705  13.276
61021W        W32637  19.670  18.319   4.366
61022W        W32638   7.489  18.533  12.274
61023W        W32639   6.211  43.761   0.294
61024W        W32640   4.206  12.815   3.345
61025W        W32641  15.321  11.719   1.267
61026W        W32642  24.516   5.850  11.650
61027W        W32643  21.171  33.455   2.175
61028W        W32644  16.256  40.870   3.155
61029W        W32645  29.297  12.341  14.467
61030W        W32646  35.656  32.443  14.901
61031W        W32647  20.083   5.004   4.038
61032W        W32648  32.619  30.831   1.204
61033W        W32649  27.204  36.760   2.240
61034W        W32650  35.529  35.442  14.655
61035W        W32651  15.594  31.437   4.901
61036W        W32652  40.839  34.632   0.667
61037W        W32653   4.143  41.309   4.325
61038W        W32654  33.473  29.313  12.562
61039W        W32655  42.062  21.221  13.380
61040W        W32656  25.178  17.637  14.446
61041W        W32657  32.028   1.192   1.862
61042W        W32658  34.154  22.657  14.348
61043W        W32659   5.399  20.080  12.987
61044W        W32660  18.537  28.929  13.369
61045W        W32661  43.377  43.236  13.019
61046W        W32662  40.819  23.043   4.517
61047W        W32663  39.276  34.834  10.199
61048W        W32664  25.896  37.565  13.070
61049W        W32665  20.792   7.417   3.160
61050W        W32666  27.074  21.738  14.004
61051W        W32667  44.157   3.677   2.842
61052W        W32668  41.054  12.111  11.798
61053W        W32669   1.455  24.821   3.484
61054W        W32670   0.171  44.319  10.715
61055W        W32671   5.279  14.886  10.575
61056W        W32672  19.250  39.960   2.592
61057W        W32673   8.717  33.139  10.644
61058W        W32674  36.921  19.489  13.555
61059W        W32675   3.965  33.117  13.104
61060W        W32676  20.328  13.889  14.779
61061W        W32677  27.749  36.682  14.181
61062W        W32678  28.238  36.058  11.448
61063W        W32679   2.896   0.719   1.438
61064W        W32680  17.231  17.492  11.210
61065W        W32681  35.439  15.727   1.873
61066W        W32682  12.233  42.467  12.586
61067W        W32683  43.706  10.915  11.084
61068W        W32684  18.477  19.948   2.934
61069W        W32685   5.204  22.610  12.319
61070W        W32686   1.309  20.713   3.302
61071W        W32687   2.769  12.228   3.378
61072W        W32688   1.471  32.011   3.708
61073W        W32689   5.697  14.134  12.615
61074W        W32690   5.920  32.087  11.503
61075W        W32691  37.724  14.024  12.909
61076W        W32692   2.540   2.465  11.583
61077W        W32693  37.274   7.778  13.920
61078W        W32694   1.227  39.930   3.656
61079W        W32695  32.924  11.766  13.984
61080W        W32696  25.448  22.698   1.687
61081W        W32697  27.029  12.338   3.795
61082W        W32698   6.224   3.749  13.370
61083W        W32699   1.767  27.592  14.082
61084W        W32700   9.416   4.281  10.584
61085W        W32701   1.882  12.983   3.189
61086W        W32702  37.481  38.703  11.204
61087W        W32703  40.816  44.444   1.273
61088W        W32704  44.464  26.850  13.248
61089W        W32705  41.313   8.432   3.159
61090W        W32706   8.737  15.685   1.141
61091W        W32707  24.213  18.027  11.373
61092W        W32708  31.737  34.508   0.660
61093W        W32709  30.635   9.500   4.940
61094W        W32710  28.984  36.280   0.537
61095W        W32711  12.581  40.567  14.775
61096W        W32712  12.574  28.450   4.869
61097W        W32713  27.661  21.274  12.041
61098W        W32714  39.179  34.155  11.555
61099W        W32715  18.194  35.453  11.955
61100W        W32716  10.681  26.151  12.148
61101W        W32717  28.526  35.845   0.253
61102W        W32718  14.208   6.436   4.674
61103W        W32719   8.750  42.088  13.236
61104W        W32720  17.322  31.470   3.214
61105W        W32721  18.150  13.297   4.270
61106W        W32722   4.843   0.447   1.551
61107W        W32723  18.247  12.607  11.565
61108W        W32724  21.656  10.652  13.398
61109W        W32725  18.187  36.535  11.565
61110W        W32726  18.100  43.370   2.750
61111W        W32727   7.556   1.750   2.035
61112W        W32728  29.837  16.740   1.383
61113W        W32729  34.026  40.528  11.200
61114W        W32730  17.840  44.309   1.136
61115W        W32731  25.868  25.534   1.214
61116W        W32732   2.298  40.317   4.271
61117W        W32733  30.613  15.732   2.722
61118W        W32734  25.213  35.526   4.594
61119W        W32735   7.106   8.131   3.154
61120W        W32736  22.880  24.528   1.907
61121W        W32737  44.247   5.213   0.475
61122W        W32738  10.570   6.343   4.389
61123W        W32739   5.476  30.453  11.033
61124W        W32740  43.545  34.497  11.264
61125W        W32741  11.076  23.055  12.035
61126W        W32742   2.757   2.440   0.431
61127W        W32743  27.070  29.515  10.937
61128W        W32744  36.854  37.250   2.589
61129W        W32745   6.839   1.758  11.179
61130W        W32746  25.479  38.280   1.653
61131W        W32747  13.980   3.435   0.908
61132W        W32748  19.460  37.232   3.805
61133W        W32749   2.753  36.699  12.019
61134W        W32750  26.006  26.493  12.932
61135W        W32751   3.649   1.862   2.390
61136W        W32752  26.183  20.718  11.628
61137W        W32753  33.628  38.678  11.739
61138W        W32754   0.714  43.886   3.866
61139W        W32755  23.180  28.129  10.247
61140W        W32756  13.000  19.042  12.586
61141W        W32757  24.167  16.655   3.666
61142W        W32758  14.812  41.060  12.944
61143W        W32759  32.366  11.885   3.288
61144W        W32760  37.892  24.218   0.920
61145W        W32761  10.660  17.070  13.880
61146W        W32762  34.826  39.651  12.536
61147W        W32763  24.526  15.720   1.877
61148W        W32764  39.412  17.355   2.184
61149W        W32765  34.711   6.670  12.074
61150W        W32766  28.111  17.119  11.183
61151W        W32767  13.010  19.468  12.911
61152W        W32768  14.281   3.563   4.326
61153W        W32769  28.109  43.910  13.935
61154W        W32770  24.459  33.353   3.609
61155W        W32771  24.496  42.078  12.561
61156W        W32772   5.155  21.261  13.448
61157W        W32773  26.143   3.352   0.955
61158W        W32774  14.639  12.110   1.666
61159W        W32775  27.422  22.994   1.284
61160W        W32776  19.862  36.676   0.319
61161W        W32777  38.343  17.593   1.870
61162W        W32778  30.048  25.176  11.834
61163W        W32779   1.726  15.282   2.139
61164W        W32780  21.693   1.750  12.589
61165W        W32781  20.821  18.215   0.709
61166W        W32782  21.514  18.690   4.755
61167W        W32783  19.744  27.919   1.396
61168W        W32784  15.140  14.482  10.638
61169W        W32785   2.956   4.800   3.716
61170W        W32786  26.971  30.976  12.225
61171W        W32787  39.282  33.130   0.691
61172W        W32788  42.818  25.967  14.891
61173W        W32789  23.393  24.548   0.592
61174W        W32790  13.820  32.538   0.847
61175W        W32791   7.856  15.373  10.741
61176W        W32792   3.407  40.204   5.104
61177W        W32793  35.837   7.734   0.800
61178W        W32794  27.067  34.642  13.037
61179W        W32795  38.727  40.966  10.492
61180W        W32796  32.011  41.034   3.770
61181W        W32797  37.657  39.910  14.905
61182W        W32798  35.990  25.488   4.069
61183W        W32799  40.469  18.224  13.116
61184W        W32800  23.831   2.233  13.027
61185W        W32801   0.396   6.922  14.055
61186W        W32802  42.858  15.810   4.138
61187W        W32803  31.934  36.777  11.427
61188W        W32804  42.323   2.748   3.159
61189W        W32805  35.613  10.345  11.115
61190W        W32806  30.978   3.681   1.894
61191W        W32807   5.808  11.523   2.822
61192W        W32808  34.351  15.753  13.046
61193W        W32809  31.164  27.772   3.324
61194W        W32810  24.033  25.197  13.997
61195W        W32811  13.060  39.300  12.024
61196W        W32812  41.474   0.248   3.906
61197W        W32813   8.900   8.884   0.807
61198W        W32814   0.908  19.175  11.107
61199W        W32815  12.849  19.893   1.061
61200W        W32816  31.146  15.991   3.783
61201W        W32817   4.951   3.298   1.716
61202W        W32818  32.610  34.115   1.696
61203W        W32819   6.735  11.310   2.956
61204W        W32820  12.712  21.713  10.658
61205W        W32821  29.986  31.826  13.811
61206W        W32822  32.966   9.239   4.711
61207W        W32823   6.108  21.431   5.128
61208W        W32824  15.832  39.403  12.443
61209W        W32825  20.139  24.158   3.592
61210W        W32826  43.902  16.266  14.759
61211W        W32827  17.344  21.489  11.655
61212W        W32828  22.923  25.300   3.246
61213W        W32829  14.303  26.706   1.328
61214W        W32830  41.913  38.817   2.886
61215W        W32831  33.865  29.195  10.934
61216W        W32832  17.224  20.101   3.660
61217W        W32833  41.895  13.664   0.915
61218W        W32834  37.063  38.071  11.639
61219W        W32835   4.674  25.948   4.131
61220W        W32836  32.696  27.613  12.248
61221W        W32837  14.873  12.544  14.980
61222W        W32838  24.778  25.928   3.835
61223W        W32839  27.721  42.382   0.497
61224W        W32840  41.626  11.607  11.555
61225W        W32841  30.387  37.258   2.350
61226W        W32842  40.505  18.396  14.021
61227W        W32843  19.239   3.413  12.436
61228W        W32844   1.029  26.236  14.258
61229W        W32845  37.465  36.309   1.285
61230W        W32846   1.258  43.751   0.579
61231W        W32847  35.390  27.552   4.445
61232W        W32848  26.962  41.339  10.680
61233W        W32849  37.820   7.866  13.291
61234W        W32850  13.524   7.664   3.851
61235W        W32851  41.900  29.007   1.972
61236W        W32852  43.084   4.837  11.568
61237W        W32853  19.210  11.127   0.327
61238W        W32854  31.442  41.563  14.391
61239W        W32855  36.381  24.861   2.781
61240W        W32856  37.309  11.415  12.482
61241W        W32857  11.234  19.021  12.532
61242W        W32858  27.241   3.128  11.741
61243W        W32859  35.915  19.355  13.041
61244W        W32860  33.934   5.846  13.271
61245W        W32861  15.120  18.496  12.501
61246W        W32862  23.039  18.116   0.580
61247W        W32863   5.720  26.713   1.514
61248W        W32864  40.430  15.150  10.651
61249W        W32865  41.156  35.389  10.487
61250W        W32866  34.195  44.531  13.388
61251W        W32867  16.482  41.306   4.085
61252W        W32868  24.938  39.901   0.044
61253W        W32869  15.116   2.771  13.506
61254W        W32870  14.681  32.496  12.429
61255W        W32871   0.233  29.423  14.485
61256W        W32872  15.566  19.451   2.614
61257W        W32873  12.559  27.139  11.056
61258W        W32874  13.369   7.873   4.308
61259W        W32875  16.156  17.928  10.093
61260W        W32876  24.421  25.266  13.177
61261W        W32877   3.963  30.396  14.675
61262W        W32878  20.479   2.586   0.972
61263W        W32879   3.670  18.937  14.912
61264W        W32880  14.398   8.131   0.253
61265W        W32881  21.952  31.675  13.327
61266W        W32882   4.430  33.738  12.634
61267W        W32883   5.980  18.721   1.889
61268W        W32884   2.977  27.428   4.145
61269W        W32885  33.566  34.935   3.646
61270W        W32886  31.154  37.035   0.482
61271W        W32887   0.073   9.807   0.069
61272W        W32888   6.083  38.245  14.857
61273W        W32889  38.386  37.848  13.551
61274W        W32890  22.024  28.063   0.436
61275W        W32891  18.721  24.852  12.336
61276W        W32892  20.578  14.024  10.022
61277W        W32893   6.388  26.836  12.825
61278W        W32894  12.894   7.328   1.706
61279W        W32895  12.904  18.063   4.943
61280W        W32896  35.625   9.384   3.383
61281W        W32897  13.321  39.107  11.086
61282W        W32898   5.787   2.275   1.769
61283W        W32899  25.920  24.000  11.871
61284W        W32900  12.762  28.722   1.959
61285W        W32901  28.075  11.108  14.443
61286W        W32902  14.323  37.504   4.105
61287W        W32903  25.368  13.800   0.778
61288W        W32904   9.728   5.719  11.167
61289W        W32905  42.458  44.821   3.595
61290W        W32906  14.179  34.724   2.374
61291W        W32907  13.809  36.371  11.500
61292W        W32908  22.616  25.926   1.411
61293W        W32909  17.081  17.451   2.908
61294W        W32910  22.494  35.600  14.920
61295W        W32911  19.015  19.121   0.797
61296W        W32912  17.257  19.255   2.801
61297W        W32913  40.889  16.551  12.000
61298W        W32914  32.105  10.904  10.701
61299W        W32915  23.715  25.681   4.195
61300W        W32916   7.118  25.521   0.810
61301W        W32917  41.016  43.362  14.770
61302W        W32918   3.744  17.212   2.703
61303W        W32919  35.454   6.779  11.387
61304W        W32920  18.295  33.515   2.374
61305W        W32921  26.319  29.940  12.065
61306W        W32922   2.254  25.682   0.873
61307W        W32923  28.429  11.757  11.550
61308W        W32924  29.551  23.565  12.447
61309W        W32925  32.269  16.582  14.674
61310W        W32926  24.581  25.894   0.491
61311W        W32927  31.509  35.709   4.461
61312W        W32928   4.412  28.593  10.655
61313W        W32929  21.030  28.502  12.611
61314W        W32930  42.491  33.396  13.031
61315W        W32931  26.811  40.328   2.842
61316W        W32932  15.006   6.645  11.978
61317W        W32933  26.743  37.245  10.235
61318W        W32934  19.218  42.433  13.420
61319W        W32935   6.285  33.072   1.819
61320W        W32936  21.571  39.948   1.791
61321W        W32937  15.773  25.470  12.379
61322W        W32938  44.519  35.519   0.855
61323W        W32939   7.016  29.017   3.767
61324W        W32940  13.478   9.107  12.428
61325W        W32941  44.820  18.363   3.753
61326W        W32942  38.585  35.961   0.851
61327W        W32943   1.350   0.739  12.511
61328W        W32944  22.765   6.640   3.247
61329W        W32945  35.047  34.010   1.745
61330W        W32946   6.951  12.725  11.906
61331W        W32947   2.495  29.606   4.721
61332W        W32948  15.727   3.223   2.383
61333W        W32949  11.446  27.548   2.297
61334W        W32950  15.869   5.499   1.654
61335W        W32951  24.446  37.979  14.475
61336W        W32952  21.476  18.268  11.544
61337W        W32953  34.114   5.892   1.368
61338W        W32954  19.137  16.176  11.311
61339W        W32955  12.201   7.879  13.869
61340W        W32956  35.347  28.111   0.206
61341W        W32957  32.581  18.563   0.424
61342W        W32958   5.669   4.857  11.961
61343W        W32959  28.062  19.755   0.943
61344W        W32960  21.035   7.133   2.238
61345W        W32961  13.669  28.582  11.971
61346W        W32962  14.037  35.396   3.130
61347W        W32963  26.402  27.153   1.742
61348W        W32964  32.685  33.158  13.371
61349W        W32965  15.628   2.348  12.875
61350W        W32966  35.003   4.425   3.174
61351W        W32967  37.372  24.392  12.888
61352W        W32968  28.055  33.613  11.164
61353W        W32969  32.211  28.017   4.489
61354W        W32970  12.949  15.724  13.087
61355W        W32971  10.657  39.890  12.308
61356W        W32972  11.929  43.861   2.976
61357W        W32973  32.691  30.190   0.391
61358W        W32974  44.618  25.264  14.719
61359W        W32975  26.754   9.026   0.372
61360W        W32976  15.335  43.631  12.897
61361W        W32977  37.992  18.778   2.006
61362W        W32978  29.111  44.797   2.679
61363W        W32979  29.501  13.818   4.592
61364W        W32980  32.068  12.340  13.952
61365W        W32981   7.539  33.903   0.332
61366W        W32982  32.689  12.613  14.565
61367W        W32983   0.520  31.402  12.176
61368W        W32984  19.344  11.626   1.737
61369W        W32985  32.877  34.759   4.200
61370W        W32986  26.214  36.501   4.103
61371W        W32987  18.615   1.487   4.357
61372W        W32988  15.160  29.997  14.978
61373W        W32989  15.923  31.133   1.667
61374W        W32990  33.553  12.598   2.254
61375W        W32991   0.028  36.952  10.613
61376W        W32992  40.112  42.951  11.459
61377W        W32993   7.698   8.325   2.323
61378W        W32994  36.401   4.177   4.414
61379W        W32995   5.893   0.087   0.510
61380W        W32996  15.679   5.982   0.787
61381W        W32997  33.251   4.940  12.804
61382W        W32998  19.053  34.506  14.971
61383W        W32999  14.332   9.701   3.662
61384W        W33000   2.804  19.084   4.209
61385W        W33001   9.578  32.317  13.309
61386W        W33002  11.806  10.412   2.378
61387W        W33003  39.102  31.204   3.622
61388W        W33004  21.329  17.532   1.042
61389W        W33005  40.966  44.788   1.678
61390W        W33006  39.674  24.425  11.217
61391W        W33007   6.382  32.199   4.749
61392W        W33008   9.783  20.183   2.211
61393W        W33009  18.904  37.562   0.047
61394W        W33010  36.289  24.485   4.098
61395W        W33011   0.509   3.114   4.172
61396W        W33012   3.488   5.823   0.118
61397W        W33013   6.878  21.596   1.715
61398W        W33014   5.414  44.479  14.826
61399W        W33015  14.391   6.261  11.489
61400W        W33016  37.188  12.631  15.000
61401W        W33017  29.751   6.623   2.433
61402W        W33018  30.072  37.627   3.258
61403W        W33019  28.513  24.555   2.614
61404W        W33020   2.975  16.318  11.235
61405W        W33021  31.048  40.492   0.472
61406W        W33022  21.729  32.195  10.739
61407W        W33023  16.161   0.320  12.174
61408W        W33024  39.095  31.920   1.313
61409W        W33025  26.475  22.084  11.164
61410W        W33026  36.036  11.734  13.013
61411W        W33027   6.186  33.729   4.497
61412W        W33028  15.587   9.021  10.871
61413W        W33029  18.858  30.486  10.879
61414W        W33030  15.445  10.317   3.184
61415W        W33031  31.176  41.230   1.824
61416W        W33032  32.368   4.905  14.024
61417W        W33033  30.713  39.643  11.078
61418W        W33034  26.188  12.274   2.705
61419W        W33035   6.206  36.350  11.033
61420W        W33036   3.784  32.684  13.964
61421W        W33037   6.276  31.036  14.947
61422W        W33038  17.931  23.245  10.931
61423W        W33039  19.585  17.478   1.869
61424W        W33040  39.770  34.476  13.794
61425W        W33041  36.003  23.395   2.899
61426W        W33042  42.082  11.450   1.863
61427W        W33043  36.195  17.134  13.486
61428W        W33044  11.129   6.987   1.258
61429W        W33045   1.876  25.993   3.031
61430W        W33046  40.469   3.965  12.573
61431W        W33047  36.569  29.863  11.385
61432W        W33048  34.599  38.833  12.612
61433W        W33049  34.687  42.802  13.172
61434W        W33050  15.843  36.039   0.629
61435W        W33051  27.693  34.339   4.039
61436W        W33052  40.995  31.053  11.131
61437W        W33053  41.771  38.348   1.947
61438W        W33054  41.382  20.717   2.179
61439W        W33055  24.528   1.816  11.493
61440W        W33056  35.597   5.219   4.464
61441W        W33057  32.428  44.159   9.829
61442W        W33058  28.072  18.233  14.421
61443W        W33059  11.983  36.105  10.566
61444W        W33060  30.619  22.175   2.883
61445W        W33061  26.565  39.570  11.586
61446W        W33062  16.647  30.971   0.708
61447W        W33063   3.026   5.186   2.916
61448W        W33064  41.872  40.967  13.296
61449W        W33065  10.829  15.582  13.867
61450W        W33066  10.877  13.626  13.838
61451W        W33067  27.144  35.147   3.670
61452W        W33068   3.318  22.033  10.492
61453W        W33069  24.745  31.422  13.342
61454W        W33070  27.126  14.802   4.392
61455W        W33071  27.166  24.474  13.840
61456W        W33072  14.787  39.401  12.397
61457W        W33073  43.034  24.022  14.361
61458W        W33074  39.492  31.549   3.692
61459W        W33075  13.666  26.424   2.242
61460W        W33076   9.157  26.061  14.803
61461W        W33077  12.747   4.401   2.518
61462W        W33078  33.552   3.339   4.102
61463W        W33079  42.470  35.592   3.588
61464W        W33080  29.045   8.336  14.875
61465W        W33081  33.782  28.102   2.925
61466W        W33082   0.745  28.913  14.874
61467W        W33083  41.127  36.223  11.658
61468W        W33084  10.298   7.036   4.880
61469W        W33085  20.045  10.262  11.338
61470W        W33086   4.235  17.578   3.621
61471W        W33087   6.828  37.174  12.518
61472W        W33088  28.558   8.148  13.979
61473W        W33089  39.045  25.813   3.054
61474W        W33090  14.639  24.781  13.524
61475W        W33091  31.363   0.347  13.952
61476W        W33092   9.697  27.672   2.782
61477W        W33093  27.566  30.309  14.882
61478W        W33094  41.572  38.851  10.329
61479W        W33095  20.414  20.129   3.213
61480W        W33096  18.353  33.538   4.546
61481W        W33097   0.237  26.397   2.191
61482W        W33098  28.815  30.189  12.023
61483W        W33099  35.506  44.869   3.790
61484W        W33100  10.896  22.026   0.013
61485W        W33101   4.637  31.473   2.369
61486W        W33102  13.266  34.172   1.477
61487W        W33103  23.452  34.613   1.887
61488W        W33104   1.955  30.535  11.372
61489W        W33105  25.528   3.533   4.162
61490W        W33106  23.228  28.476   1.686
61491W        W33107  30.059  18.268   0.410
61492W        W33108  21.938  21.161  12.434
61493W        W33109   7.857  33.193   2.322
61494W        W33110  44.512   9.372  14.063
61495W        W33111   5.971  17.453  13.224
61496W        W33112  31.951   0.132  14.736
61497W        W33113  44.544  17.665  12.615
61498W        W33114  22.628  33.861   0.050
61499W        W33115  23.977  17.720   2.696
61500W        W33116  43.375  10.863   3.753
61501W        W33117  16.272  17.534   3.114
61502W        W33118  34.098  18.685  13.633
61503W        W33119   5.466  34.142   1.941
61504W        W33120  38.368  39.809   1.875
61505W        W33121  28.388  28.025   2.795
61506W        W33122   3.162  11.004   1.266
61507W        W33123  43.338  10.842  12.596
61508W        W33124  25.615  12.118  12.049
61509W        W33125  38.950  34.885   0.022
61510W        W33126   9.461  42.383   2.854
61511W        W33127  33.352  16.677   2.696
61512W        W33128   0.421  23.272  13.988
61513W        W33129  21.517   0.842   1.788
61514W        W33130  29.574  36.312  10.629
61515W        W33131  31.870  26.996  12.121
61516W        W33132  31.079  26.056  11.532
61517W        W33133  20.744  37.587   4.182
61518W        W33134  15.102  33.666   0.520
61519W        W33135   6.847  17.592   2.786
61520W        W33136   4.929  44.474   4.030
61521W        W33137   1.761  17.322   0.162
61522W        W33138   7.954   1.522   3.703
61523W        W33139  21.172  44.968   3.350
61524W        W33140  29.015  15.356   3.347
61525W        W33141  21.716   8.184  13.606
61526W        W33142  11.063   8.344  14.125
61527W        W33143  25.939  41.805   4.110
61528W        W33144  36.805   7.389  13.779
61529W        W33145   7.819   7.226   0.246
61530W        W33146  19.645   9.707  11.851
61531W        W33147  19.591  25.661   0.320
61532W        W33148  36.413  30.330   2.139
61533W        W33149  39.383  17.818  11.970
61534W        W33150  42.695   5.663  10.680
61535W        W33151  15.231  39.010   3.709
61536W        W33152  10.013   4.668  13.403
61537W        W33153  35.508  26.558  12.172
61538W        W33154  34.983  36.330   3.303
61539W        W33155   2.287   3.371  14.431
61540W        W33156  19.466  16.909   3.237
61541W        W33157  33.772  11.737   3.671
61542W        W33158  26.042   9.723   3.682
61543W        W33159   2.024  42.416   3.036
61544W        W33160  13.180  36.388  14.926
61545W        W33161   9.905  11.234  12.546
61546W        W33162  25.650   0.814  12.924
61547W        W33163   0.823  36.927  10.909
61548W        W33164   4.049  31.818   4.081
61549W        W33165  30.557   8.948   4.150
61550W        W33166  35.954  20.111  14.952
61551W        W33167  37.437   0.777  11.875
61552W        W33168  39.495   7.793   2.145
61553W        W33169  34.669   2.157   4.811
61554W        W33170  14.956  30.995   3.676
61555W        W33171  22.988   7.452   0.700
61556W        W33172  38.381  31.390  14.523
61557W        W33173  17.065  21.754  12.023
61558W        W33174  26.943  25.486  13.955
61559W        W33175   6.907  19.314   2.350
61560W        W33176  22.342  32.774   1.340
61561W        W33177  24.383  16.052  11.262
61562W        W33178  42.961  33.784   0.533
61563W        W33179  31.448   7.441   1.348
61564W        W33180  29.071  29.715  14.579
61565W        W33181  23.598  23.256  14.754
61566W        W33182  40.447   3.250   2.837
61567W        W33183  38.083  26.804   2.934
61568W        W33184   7.887  26.617   2.150
61569W        W33185  16.147  35.903   2.706
61570W        W33186  16.672   5.884  14.268
61571W        W33187  34.316   3.491   1.224
61572W        W33188  37.165  29.510   3.588
61573W        W33189  18.568  21.406   3.166
61574W        W33190  13.296   1.179  13.337
61575W        W33191  22.908  40.641   2.351
61576W        W33192   2.807  44.768   1.599
61577W        W33193  24.594  21.583   2.465
61578W        W33194  30.026   2.829   1.755
61579W        W33195  14.371  40.939   1.670
61580W        W33196  16.480  13.541  14.805
61581W        W33197  10.800  44.414   2.365
61582W        W33198  31.285  43.090   4.539
61583W        W33199   9.610   0.478   1.490
61584W        W33200  24.926  24.006  12.175
61585W        W33201   9.618  29.900  13.969
61586W        W33202  41.229  12.211  14.419
61587W        W33203  12.212  34.985  12.631
61588W        W33204  42.134  10.891  13.972
61589W        W33205  40.326  24.972  12.537
61590W        W33206  41.052  17.148  11.567
61591W        W33207  30.121  11.854  12.346
61592W        W33208  29.923  41.486  14.391
61593W        W33209   3.158  42.462  10.388
61594W        W33210  36.502  12.387   3.150
61595W        W33211  21.718   1.035   4.562
61596W        W33212  15.137  44.067   2.433
61597W        W33213  29.552  18.112  13.997
61598W        W33214  25.200  10.923   2.882
61599W        W33215  20.618  21.621  13.384
61600W        W33216  44.530  22.567   5.181
61601W        W33217   2.717  24.839   2.170
61602W        W33218  12.966  11.535  13.898
61603W        W33219  34.020  36.094  10.378
61604W        W33220  39.978  25.910   3.213
61605W        W33221   3.662  13.596  14.537
61606W        W33222  25.027   3.361   4.092
61607W        W33223  30.689  33.920   1.198
61608W        W33224   7.443  44.103   2.408
61609W        W33225  31.464  18.270  10.439
61610W        W33226   5.761  34.859  10.494
61611W        W33227   4.011  35.586  14.981
61612W        W33228  11.300  40.016  13.084
61613W        W33229   9.053  14.274   4.529
61614W        W33230  25.915   4.455   3.726
61615W        W33231  27.804  39.027  12.980
61616W        W33232   5.849   0.264  14.249
61617W        W33233  41.661  31.498  12.006
61618W        W33234  20.449  28.078   0.805
61619W        W33235   4.312  26.950  12.941
61620W        W33236   6.570  22.269   3.335
61621W        W33237  12.227   6.686  12.381
61622W        W33238   8.023  26.903   3.888
61623W        W33239  37.369  24.287   4.395
61624W        W33240   9.884  22.734  13.897
61625W        W33241  27.129   7.099  10.666
61626W        W33242   5.331  15.641  12.843
61627W        W33243  41.340  31.504  11.582
61628W        W33244  15.553   2.380  13.935
61629W        W33245  25.006  29.604   2.488
61630W        W33246  14.821  34.798  14.741
61631W        W33247  22.796  34.634   0.741
61632W        W33248  28.100  13.077  13.564
61633W        W33249  38.954   6.779   1.226
61634W        W33250  17.483  20.528   1.422
61635W        W33251  27.920  44.708   1.806
61636W        W33252  32.883  40.017  12.439
61637W        W33253   0.046  12.264   1.463
61638W        W33254  27.364  43.810   2.690
61639W        W33255  12.084  34.918  11.653
61640W        W33256  32.134  42.031  14.700
61641W        W33257   8.400  26.599   2.162
61642W        W33258  24.198  28.529   2.040
61643W        W33259  34.553  34.229   0.440
61644W        W33260  18.750  23.467   4.246
61645W        W33261   1.279  32.674   2.894
61646W        W33262  15.251  44.331  11.873
61647W        W33263   0.973   7.432  12.015
61648W        W33264  15.762  21.536   1.981
61649W        W33265  31.604  26.987   2.734
61650W        W33266  25.604  36.867   3.585
61651W        W33267  36.309   0.409  12.935
61652W        W33268   3.443  36.478   3.101
61653W        W33269  43.296  33.048   3.726
61654W        W33270  23.967   3.828  13.943
61655W        W33271  44.917  31.564   5.018
61656W        W33272  23.008  35.808   1.850
61657W        W33273  44.398   6.004  13.981
61658W        W33274   2.882  16.004  12.620
61659W        W33275  39.493  21.240  14.789
61660W        W33276  13.112  23.633  12.028
61661W        W33277  19.118   6.885   0.978
61662W        W33278  43.372  18.420   0.415
61663W        W33279   6.290  10.706  13.299
61664W        W33280   6.152  25.027   1.314
61665W        W33281  35.584  40.985   3.384
61666W        W33282  42.369   3.546  13.428
61667W        W33283  25.833  43.278  13.355
61668W        W33284   0.315  20.771   0.005
61669W        W33285  39.886  22.879   1.859
61670W        W33286  18.278  40.432   4.703
61671W        W33287   9.687  26.502  14.874
61672W        W33288  43.998  27.700  11.745
61673W        W33289  42.292   4.740   3.050
61674W        W33290   2.795  19.326  12.001
61675W        W33291  35.743  34.005  14.245
61676W        W33292  26.176  41.971  13.193
61677W        W33293   7.493  17.605  11.141
61678W        W33294  20.203  36.057   4.265
61679W        W33295  21.340  19.004  10.579
61680W        W33296  28.472  41.383   0.972
61681W        W33297  42.560  21.712  12.274
61682W        W33298  13.847  17.398   3.663
61683W        W33299  28.956  29.011  11.641
61684W        W33300  28.143  31.433  11.637
61685W        W33301  14.171   2.487  10.930
61686W        W33302  14.616  27.993  14.842
61687W        W33303  41.468  44.740   1.397
61688W        W33304   4.068  36.453   3.852
61689W        W33305  20.136  18.106   1.350
61690W        W33306   5.239  35.634   1.923
61691W        W33307  17.863  28.438   3.714
61692W        W33308  32.133  43.061  13.856
61693W        W33309  36.691  22.674   0.530
61694W        W33310  34.013  11.240   4.534
61695W        W33311  23.067  21.895  11.163
61696W        W33312   8.603   8.766  12.249
61697W        W33313  23.584  39.595  10.641
61698W        W33314  38.701  13.567   0.659
61699W        W33315   8.725  18.203   3.672
61700W        W33316  43.377  22.492   3.757
61701W        W33317  26.455   0.324  12.911
61702W        W33318   1.028  24.696   3.162
61703W        W33319  42.805   8.952  14.944
61704W        W33320  11.593  21.735  11.986
61705W        W33321  16.759  21.849   3.046
61706W        W33322  20.002  22.074   2.413
61707W        W33323  27.166  29.972   2.207
61708W        W33324   2.175  12.570   2.684
61709W        W33325  25.518   4.933  11.239
61710W        W33326  40.046  36.468  13.989
61711W        W33327  19.179  22.224  13.597
61712W        W33328  42.265  11.788  13.000
61713W        W33329  36.521  26.264  13.502
61714W        W33330  31.684  26.655   0.319
61715W        W33331  20.364  38.271  10.946
61716W        W33332  37.900  19.725   0.993
61717W        W33333  18.850   1.494   3.901
61718W        W33334  17.659  43.974  12.912
61719W        W33335  40.443  18.417   3.672
61720W        W33336  23.529  12.798   1.898
61721W        W33337  10.115  43.532   2.025
61722W        W33338   0.765  31.375  12.621
61723W        W33339   2.880  34.550  14.733
61724W        W33340  29.952   4.829   0.688
61725W        W33341  39.866  14.842   4.161
61726W        W33342   4.410  27.680   1.380
61727W        W33343  18.307   6.952   1.418
61728W        W33344  24.300  44.436  14.680
61729W        W33345  26.942   8.349  11.669
61730W        W33346  20.327  22.524   2.139
61731W        W33347   6.268  35.896  14.423
61732W        W33348  25.984  12.145  10.766
61733W        W33349  24.182  17.259   5.169
61734W        W33350  17.767  43.432  12.107
61735W        W33351  26.228  26.522  11.975
61736W        W33352  17.827  24.428  13.137
61737W        W33353  13.180  17.253  11.445
61738W        W33354  22.713  13.203  14.048
61739W        W33355   1.196  20.081  11.677
61740W        W33356   6.377  29.740   2.811
61741W        W33357  24.718   5.625  12.662
61742W        W33358  14.354  31.972   4.353
61743W        W33359  36.108  28.547  14.935
61744W        W33360  33.622  28.261  11.545
61745W        W33361  39.509  26.519   2.721
61746W        W33362  21.639  29.936   0.367
61747W        W33363   0.240  17.376   1.916
61748W        W33364  29.470  21.266   3.624
61749W        W33365  19.702  39.391   1.417
61750W        W33366  39.376   1.441   1.914
61751W        W33367  23.670  36.464  14.766
61752W        W33368   7.804  40.850   4.320
61753W        W33369  24.076  28.538   2.541
61754W        W33370  29.901  22.075   0.199
61755W        W33371  36.628  34.780   4.697
61756W        W33372  34.302   2.329   1.832
61757W        W33373  29.444  37.912   3.592
61758W        W33374  12.351  44.140   4.122
61759W        W33375  26.259   2.403   2.878
61760W        W33376   2.325  35.769  14.979
61761W        W33377  40.931  20.018   1.830
61762W        W33378  44.824  12.607  11.889
61763W        W33379   8.962  20.538   1.728
61764W        W33380   3.399  32.316  12.804
61765W        W33381  21.127  14.094   1.509
61766W        W33382   7.738  27.534  12.771
61767W        W33383  16.322  33.154   3.238
61768W        W33384  43.928  28.195   1.136
61769W        W33385  26.694  38.443   1.354
61770W        W33386   0.096  20.137   2.349
61771W        W33387  27.656   4.278   2.272
61772W        W33388  10.103   5.848  11.619
61773W        W33389  32.987  41.299  11.643
61774W        W33390  30.512  30.637  12.932
61775W        W33391  20.992  40.807   0.209
61776W        W33392  29.127   6.494   0.179
61777W        W33393   7.807  43.480  11.856
61778W        W33394  23.610   2.674  10.749
61779W        W33395  10.920  34.009   4.068
61780W        W33396  30.247  18.293   2.740
61781W        W33397   6.378   9.505   3.131
61782W        W33398   8.987  43.931  11.992
61783W        W33399  34.579  22.954  14.025
61784W        W33400   9.661  34.855   4.623
61785W        W33401   6.822  36.340   0.269
61786W        W33402   3.090  34.450   3.839
61787W        W33403  12.617  24.847  13.726
61788W        W33404  24.194  39.114   4.962
61789W        W33405   3.226   7.360   2.028
61790W        W33406  18.346  23.703   2.763
61791W        W33407   5.654  12.823  13.612
61792W        W33408  39.229   7.624  14.303
61793W        W33409  22.995  26.785  13.313
61794W        W33410  27.247  33.880  13.746
61795W        W33411  17.978  32.450  12.854
61796W        W33412  21.733   8.128   0.919
61797W        W33413  33.602  17.426   1.709
61798W        W33414  26.624   0.785   4.983
61799W        W33415  38.825  32.407   4.665
61800W        W33416  32.838  17.283  12.354
61801W        W33417  40.181  30.501   2.658
61802W        W33418  22.022  12.211  10.667
61803W        W33419  13.145  24.737  11.120
61804W        W33420  37.146  26.105   3.899
61805W        W33421  18.468  23.732   1.799
61806W        W33422   8.664  43.024  11.630
61807W        W33423  31.443  13.100  10.691
61808W        W33424  10.856  23.705  10.465
61809W        W33425  23.556  18.058  12.679
61810W        W33426  38.896  16.203  13.839
61811W        W33427  14.835  29.669   3.266
61812W        W33428  34.021   3.008  10.745
61813W        W33429  39.788  26.043   0.918
61814W        W33430  37.662  14.551   0.302
61815W        W33431  34.206  13.393  12.897
61816W        W33432  37.008  13.306   4.360
61817W        W33433   0.829   4.433   2.768
61818W        W33434   6.444  21.654  14.845
61819W        W33435  38.883  14.495   2.258
61820W        W33436  26.703   7.848  14.839
61821W        W33437   4.470   4.732  13.030
61822W        W33438  33.986  40.302   1.802
61823W        W33439  39.841  17.663   4.663
61824W        W33440   2.645  10.854   1.265
61825W        W33441  21.036   5.288  12.277
61826W        W33442  33.063  33.767   4.230
61827W        W33443  17.774  32.418   4.130
61828W        W33444  34.168  41.012  11.119
61829W        W33445  23.554  15.000   2.372
61830W        W33446   6.093  17.847  11.789
61831W        W33447   7.236  43.091  13.430
61832W        W33448  37.588  37.856  13.061
61833W        W33449  26.202  15.831  13.872
61834W        W33450  18.990  38.276   2.420
61835W        W33451   7.376   1.607   0.705
61836W        W33452  15.005  34.327   2.697
61837W        W33453  36.896  35.363   3.473
61838W        W33454  30.476  29.568  11.213
61839W        W33455  17.537  29.175  12.318
61840W        W33456   4.954  18.219   1.831
61841W        W33457  29.636   6.400  12.044
61842W        W33458  43.114  25.675  12.327
61843W        W33459   3.891  29.409   2.930
61844W        W33460  41.880  29.421   0.357
61845W        W33461   3.112  15.769  13.383
61846W        W33462  10.748  26.762   2.226
61847W        W33463  27.063  40.862   3.498
61848W        W33464  17.607  43.687  14.329
61849W        W33465  16.586  16.695   1.959
61850W        W33466   3.209  38.592  12.241
61851W        W33467   5.903   1.795  12.966
61852W        W33468  27.914  33.208  13.458
61853W        W33469  25.755  26.905  13.150
61854W        W33470  27.032  33.079  11.487
61855W        W33471   0.966  28.077   0.052
61856W        W33472  15.677  26.228  10.648
61857W        W33473  27.568   3.825  14.799
61858W        W33474  29.110  34.037   3.663
61859W        W33475  12.713   2.927   3.006
61860W        W33476  32.129   5.298  10.544
61861W        W33477  32.465  36.143   5.021
61862W        W33478   5.289  18.633  11.985
61863W        W33479  14.754  31.028  13.030
61864W        W33480  35.290  34.031  12.871
61865W        W33481  18.132  23.698  13.392
61866W        W33482  29.194  34.372   3.285
61867W        W33483  10.713  20.303   2.291
61868W        W33484  37.042   0.219  14.766
61869W        W33485  40.206  32.044  10.650
61870W        W33486   1.548  36.550  10.734
61871W        W33487  40.152  42.747   1.374
61872W        W33488  44.365   3.709  12.444
61873W        W33489  33.644  42.853   5.069
61874W        W33490  42.579  39.690  13.778
61875W        W33491  41.335  26.437   1.237
61876W        W33492  21.273  20.555  12.026
61877W        W33493  23.973  41.767   1.506
61878W        W33494  39.111  38.960   3.179
61879W        W33495  23.299  28.059  14.379
61880W        W33496  18.722   0.407   4.500
61881W        W33497   6.677  11.866   0.717
61882W        W33498  39.908   6.601  12.157
61883W        W33499  21.158  44.417   1.045
61884W        W33500  39.370  11.779  14.744
61885W        W33501  27.165  15.245   4.647
61886W        W33502   3.952   3.370   1.800
61887W        W33503  31.419  39.757   0.828
61888W        W33504  28.050  41.109   3.213
61889W        W33505  34.804  13.326  14.946
61890W        W33506  32.637  31.522  14.047
61891W        W33507  31.058  26.073  10.503
61892W        W33508   2.137  29.111  10.593
61893W        W33509  42.938  44.556  14.897
61894W        W33510  15.688  36.429   1.924
61895W        W33511  36.335  22.703   5.024
61896W        W33512  43.082  32.456   1.018
61897W        W33513   8.300  25.974   3.430
61898W        W33514  40.087  42.896   0.870
61899W        W33515  33.790  27.114   2.011
61900W        W33516  20.391  31.184  11.910
61901W        W33517   4.913   6.964   0.734
61902W        W33518   4.880  43.984   4.175
61903W        W33519  34.598  12.062  11.215
61904W        W33520  26.580  11.752   4.121
61905W        W33521   4.635  32.811   1.687
61906W        W33522  42.632   8.156   0.962
61907W        W33523   9.213   4.518   0.649
61908W        W33524  42.505  11.144  13.636
61909W        W33525  26.579   5.160   1.127
61910W        W33526  21.792  18.926  14.318
61911W        W33527  20.293  43.869  14.403
61912W        W33528  43.488  39.784   3.086
61913W        W33529   5.173  33.485  13.800
61914W        W33530  21.016  27.512  10.121
61915W        W33531  20.221  42.758  11.857
61916W        W33532  13.226  11.124   2.272
61917W        W33533   1.190  32.154  10.702
61918W        W33534  20.735  17.909   0.294
61919W        W33535   2.780  26.117   1.751
61920W        W33536  22.594  24.003  10.441
61921W        W33537  29.866   0.382   0.837
61922W        W33538  19.555  38.906  11.169
61923W        W33539  23.417  10.266   1.185
61924W        W33540  18.048  19.744   2.219
61925W        W33541  26.741  44.878  12.895
61926W        W33542  42.881  43.671  13.478
61927W        W33543  13.902  12.691  14.231
61928W        W33544  16.424  35.112   1.451
61929W        W33545  16.261  27.014   4.751
61930W        W33546  28.932  11.657  14.360
61931W        W33547  42.965   9.906  11.567
61932W        W33548  33.451  27.259   3.540
61933W        W33549  29.906  37.595  11.127
61934W        W33550   2.866   1.357   3.375
61935W        W33551  31.524  32.763  14.196
61936W        W33552  14.813   0.824   3.893
61937W        W33553   3.762   3.296  14.370
61938W        W33554  19.436  37.986   4.195
61939W        W33555  19.701  25.075  14.528
61940W        W33556  35.113  21.718   3.254
61941W        W33557  41.410  16.885  10.350
61942W        W33558  15.028  18.784  13.490
61943W        W33559   2.158  35.950   1.352
61944W        W33560  31.993  40.877   2.196
61945W        W33561   8.911   6.746  12.953
61946W        W33562  16.104  16.409   3.835
61947W        W33563   5.351  36.947  11.926
61948W        W33564  21.965  39.095   1.274
61949W        W33565  31.498   1.045  11.135
61950W        W33566  13.320   1.947   1.773
61951W        W33567   1.485  31.047  13.531
61952W        W33568  12.304  29.652   3.679
61953W        W33569  42.319  11.150  12.596
61954W        W33570  36.505  41.867  12.399
61955W        W33571  10.189   8.973   0.041
61956W        W33572  35.938  18.617   0.217
61957W        W33573  34.311  39.796   3.579
61958W        W33574  11.638   4.472  11.125
61959W        W33575  18.309  43.465   0.791
61960W        W33576  42.254  25.074   0.394
61961W        W33577  17.683  29.338   4.975
61962W        W33578   5.027  42.108   1.961
61963W        W33579  27.182   5.226  13.363
61964W        W33580  13.841  14.070  10.902
61965W        W33581  11.430   3.290  11.924
61966W        W33582   0.631   0.699   3.229
61967W        W33583  28.132   5.964   0.670
61968W        W33584  15.188  11.455   0.807
61969W        W33585   7.654  40.765   3.306
61970W        W33586  36.981  37.022  12.774
61971W        W33587   0.780  36.370   2.309
61972W        W33588  27.583   2.256  14.795
61973W        W33589   9.421   6.641   1.830
61974W        W33590  26.020  24.219  11.422
61975W        W33591   2.343  14.252  11.241
61976W        W33592  40.014  37.880  13.018
61977W        W33593  42.941  15.859  13.355
61978W        W33594  33.741   7.014   0.896
61979W        W33595   8.864   2.578   4.068
61980W        W33596  42.405  27.520  14.473
61981W        W33597   5.239   3.833   0.465
61982W        W33598  10.304  12.388  12.623
61983W        W33599  23.100  39.451   1.929
61984W        W33600  28.347  22.805  10.192
61985W        W33601  18.382   6.171  14.246
61986W        W33602  30.191  27.672  10.621
61987W        W33603  33.112  24.194  11.208
61988W        W33604  27.518   9.039   2.924
61989W        W33605  11.725  13.747  13.372
61990W        W33606  43.929  34.955   3.044
61991W        W33607  14.774  14.276  13.802
61992W        W33608  42.280  16.778   4.774
61993W        W33609  17.187  32.395   1.213
61994W        W33610   4.916  43.508  11.487
61995W        W33611   3.052  12.113  11.631
61996W        W33612  36.940  33.500  13.385
61997W        W33613  14.546  19.498   2.810
61998W        W33614   5.039  18.636  13.274
61999W        W33615  12.766   5.696  13.619
62000W        W33616  26.258  44.863  13.049
62001W        W33617   5.948   6.955   0.475
62002W        W33618  25.716   6.437  10.749
62003W        W33619  34.035  41.175  12.447
62004W        W33620  16.635   3.926  12.993
62005W        W33621  36.389  22.764  12.408
62006W        W33622  24.232  34.279  14.272
62007W        W33623  35.373   1.167  14.404
62008W        W33624   8.022  26.340   4.990
62009W        W33625  15.104  44.446   4.578
62010W        W33626  16.109   5.778  13.287
62011W        W33627   4.855  27.584   4.872
62012W        W33628  34.657  34.625   3.777
62013W        W33629  40.793  22.116   4.462
62014W        W33630  40.718  43.306  12.732
62015W        W33631  19.693  37.294   1.337
62016W        W33632  20.360   9.639   4.673
62017W        W33633  10.457  34.119   2.771
62018W        W33634   8.505  21.206   2.795
62019W        W33635  40.534  31.697   3.345
62020W        W33636  26.101  15.332   3.626
62021W        W33637   9.610  24.231   1.480
62022W        W33638  25.049  15.822   0.722
62023W        W33639   4.331   4.361  12.087
62024W        W33640  24.379  14.349  13.153
62025W        W33641  24.762  23.996  13.829
62026W        W33642   7.765  25.722   1.663
62027W        W33643  44.256  13.010  11.592
62028W        W33644  30.332  25.707  11.009
62029W        W33645  43.326  35.602   1.634
62030W        W33646  31.064  28.858  12.035
62031W        W33647  41.040  15.760   3.366
62032W        W33648  15.738  42.599  11.875
62033W        W33649   8.066  13.550   0.237
62034W        W33650  37.615   8.842  14.257
62035W        W33651  29.937  29.909   3.193
62036W        W33652  25.235  31.376   3.193
62037W        W33653  33.120  44.445   0.484
62038W        W33654  22.603  26.657   2.642
62039W        W33655  33.025  17.024   3.345
62040W        W33656  10.006  29.189   2.335
62041W        W33657  21.816  41.524   1.235
62042W        W33658  15.557  33.957   4.500
62043W        W33659  19.235  16.051   4.280
62044W        W33660  31.736  40.015   4.111
62045W        W33661  35.891  31.071   5.306
62046W        W33662  36.382  44.837   1.191
62047W        W33663  42.995  30.959   2.229
62048W        W33664  33.094  38.325  13.472
62049W        W33665  19.354  15.349  13.542
62050W        W33666  28.582   0.049  11.725
62051W        W33667  37.942  24.225  13.037
62052W        W33668  44.538  39.083  13.433
62053W        W33669  24.469  42.381  12.992
62054W        W33670   2.375  20.983  14.982
62055W        W33671  26.893   6.369   4.415
62056W        W33672  31.080  10.273  14.433
62057W        W33673  17.026  18.464  12.605
62058W        W33674  42.288  35.028  10.408
62059W        W33675  24.777  24.825   2.127
62060W        W33676  15.276  18.575   1.738
62061W        W33677   4.869  42.927   5.052
62062W        W33678  29.028   2.167   0.402
62063W        W33679  26.505  30.886  14.199
62064W        W33680   7.358  44.201   4.586
62065W        W33681  11.772  30.378   1.190
62066W        W33682  23.867   8.777  13.633
62067W        W33683  43.421  15.769   9.968
62068W        W33684  35.345  28.832  13.925
62069W        W33685   2.580  38.426   2.383
62070W        W33686  41.394  34.938  10.354
62071W        W33687  35.668   7.398  11.179
62072W        W33688  26.967  43.748  12.500
62073W        W33689  43.448  43.518  12.485
62074W        W33690   0.904  19.544  13.364
62075W        W33691  16.241  19.786   2.238
62076W        W33692  14.923  20.293  10.778
62077W        W33693  37.874  42.029   3.165
62078W        W33694  13.661  17.784  11.954
62079W        W33695  22.516  19.455  14.534
62080W        W33696  37.932   9.603  12.464
62081W        W33697  25.159  17.796  13.399
62082W        W33698  38.998  33.137   1.945
62083W        W33699  38.986  44.670   2.839
62084W        W33700  30.576  12.388   2.754
62085W        W33701  34.870  26.959  11.510
62086W        W33702   2.247  25.636  11.952
62087W        W33703  21.058  11.445   4.929
62088W        W33704  40.773   3.983   0.088
62089W        W33705  11.854  27.176   1.995
62090W        W33706   2.377  30.044   4.465
62091W        W33707  19.666  10.858   0.361
62092W        W33708  37.788  22.764   2.809
62093W        W33709   7.362  33.606  13.510
62094W        W33710  30.463  30.172   0.476
62095W        W33711   6.778  41.358   2.770
62096W        W33712  11.910  34.482   2.167
62097W        W33713  24.021  42.215   4.391
62098W        W33714  14.829  35.614   3.716
62099W        W33715   5.507   2.971  12.138
62100W        W33716  44.527  20.489   1.667
62101W        W33717  36.427  12.726   0.250
62102W        W33718  11.885  18.489  14.110
62103W        W33719  32.601   7.770   2.342
62104W        W33720  10.653  17.487  14.856
62105W        W33721  12.148  20.453   4.720
62106W        W33722  33.368  36.771  12.908
62107W        W33723  38.365  12.768  12.606
62108W        W33724  24.605   4.995   4.536
62109W        W33725  10.977  13.582   4.487
62110W        W33726  14.695  20.153  13.093
62111W        W33727  14.542  10.922   3.612
62112W        W33728  26.629  21.079  10.396
62113W        W33729  37.405  17.065  13.168
62114W        W33730   4.513  36.301  12.069
62115W        W33731  27.263   1.430  14.589
62116W        W33732  10.465   2.999  13.654
62117W        W33733  42.125  10.089  14.410
62118W        W33734  29.464  43.446   3.365
62119W        W33735  18.268  36.942   3.467
62120W        W33736  37.009  21.073  14.393
62121W        W33737  12.267  41.386   1.705
62122W        W33738   4.306  13.053  11.985
62123W        W33739   7.213  35.096  13.450
62124W        W33740  43.336  19.541  14.405
62125W        W33741  17.818  15.495   3.642
62126W        W33742   1.436  37.436  10.845
62127W        W33743   1.614  34.880   0.377
62128W        W33744  29.702  15.131  12.200
62129W        W33745  43.306  44.549  10.457
62130W        W33746  28.982  29.347   1.754
62131W        W33747  44.602  38.604   1.014
62132W        W33748  29.162   4.934  12.564
62133W        W33749  13.477   6.238   0.233
62134W        W33750  10.264  17.331  14.506
62135W        W33751  24.615  18.343   4.258
62136W        W33752  15.863  37.895  13.050
62137W        W33753  35.965   0.950  14.381
62138W        W33754  18.300  21.644   2.267
62139W        W33755  34.042  12.933   4.101
62140W        W33756  12.592   0.390   0.273
62141W        W33757  23.222   7.174  12.991
62142W        W33758  15.697  21.338   2.445
62143W        W33759  38.008  16.348   3.309
62144W        W33760  11.705   3.141  13.007
62145W        W33761  20.505  31.522   0.274
62146W        W33762  21.236  28.392   2.794
62147W        W33763  38.553  26.592   4.563
62148W        W33764   2.170  32.103   2.645
62149W        W33765  19.511   9.368   4.152
62150W        W33766  41.523  32.003  11.988
62151W        W33767   2.731   1.216  11.538
62152W        W33768  41.309   2.918   4.747
62153W        W33769  30.149  35.166  11.175
62154W        W33770  32.074  30.989   2.678
62155W        W33771  11.877   9.286  13.133
62156W        W33772  28.415   4.124   1.820
62157W        W33773  25.638  16.548   3.848
62158W        W33774  22.921  18.994  12.166
62159W        W33775  18.581  43.937   1.721
62160W        W33776  21.748  35.754   4.295
62161W        W33777  38.885  30.576  14.376
62162W        W33778  21.148  39.991   2.083
62163W        W33779  15.089   6.930  14.989
62164W        W33780  13.378  18.180   3.183
62165W        W33781  36.298  43.278   4.306
62166W        W33782  22.117  23.715   3.262
62167W        W33783  35.216   0.998   3.331
62168W        W33784  26.965  17.493  11.321
62169W        W33785  19.568  22.439  14.732
62170W        W33786  24.538  37.082  14.877
62171W        W33787  33.625  40.853  11.173
62172W        W33788  28.221  38.136   1.249
62173W        W33789   9.999  14.644   3.344
62174W        W33790  36.111  41.421  13.751
62175W        W33791   1.907   9.343  14.963
62176W        W33792  19.035  27.174   2.791
62177W        W33793   5.001  14.699   2.007
62178W        W33794  22.025  30.556   1.857
62179W        W33795   4.199  19.485   1.054
62180W        W33796  10.223   3.226  10.999
62181W        W33797  21.731  41.954   0.930
62182W        W33798  11.725   4.289  14.911
62183W        W33799  13.416   4.488   1.204
62184W        W33800  24.724  37.956   3.253
62185W        W33801   3.291   3.795  14.929
62186W        W33802  28.911  32.321   4.234
62187W        W33803  12.885  25.231   2.159
62188W        W33804  24.041   4.853   4.699
62189W        W33805  15.079   3.317   3.685
62190W        W33806   2.740  28.702  12.976
62191W        W33807  16.669  12.644   1.805
62192W        W33808  25.561  12.893  10.849
62193W        W33809  10.644  39.119   9.987
62194W        W33810  36.830  11.016   1.673
62195W        W33811  41.382  43.784   2.585
62196W        W33812  20.538  31.965   4.577
62197W        W33813  37.134  44.287   2.759
62198W        W33814  12.732  33.405   0.733
62199W        W33815  35.975   7.102   1.338
62200W        W33816  25.654  32.752   0.394
62201W        W33817  10.704   5.461   3.817
62202W        W33818  42.236  17.624   2.302
62203W        W33819   3.201  40.153  10.297
62204W        W33820  29.102  30.558  11.822
62205W        W33821  40.012  31.676   1.458
62206W        W33822   0.110  37.841   3.816
62207W        W33823  24.951  16.568   3.216
62208W        W33824  26.450  19.903  11.658
62209W        W33825  26.940   0.910  11.531
62210W        W33826   7.691  35.422   4.348
62211W        W33827  10.647  13.934  14.956
62212W        W33828  18.719  15.804   3.314
62213W        W33829  38.742  37.319  14.748
62214W        W33830   9.230   7.931  13.833
62215W        W33831  15.745  17.756  10.666
62216W        W33832   8.248   6.002  13.331
62217W        W33833  40.389   9.184  13.369
62218W        W33834  33.096  19.696  12.862
62219W        W33835  36.114  15.492   4.219
62220W        W33836  23.790  32.359   4.864
62221W        W33837  14.103  34.359  10.780
62222W        W33838  33.082  29.404  12.043
62223W        W33839   3.801  32.167  13.988
62224W        W33840  36.446  36.232  14.454
62225W        W33841  21.885  27.761   2.332
62226W        W33842  13.693  17.791   9.740
62227W        W33843  12.375  32.325  10.774
62228W        W33844  41.870  23.659   2.410
62229W        W33845  13.257  14.798  11.456
62230W        W33846   4.661  18.188  12.454
62231W        W33847  13.164  13.141  13.894
62232W        W33848  20.221   4.797  12.515
62233W        W33849  43.909  36.336  14.873
62234W        W33850  12.670  30.354   1.385
62235W        W33851  34.827  22.588   2.931
62236W        W33852  39.931  25.138   0.596
62237W        W33853  44.478  34.961   4.400
62238W        W33854  29.733  11.864  14.707
62239W        W33855  28.126   8.173   3.698
62240W        W33856  38.873   2.486  12.876
62241W        W33857  26.068   1.140  11.602
62242W        W33858  39.696  28.627   1.751
62243W        W33859  15.604  36.470   0.402
62244W        W33860   2.396  43.887  10.698
62245W        W33861   0.195  32.534   4.684
62246W        W33862   2.477   5.535   4.660
62247W        W33863  35.029   2.989  11.511
62248W        W33864  29.394  14.582  14.439
62249W        W33865  13.609  22.239  14.910
62250W        W33866  33.618  19.165  14.413
62251W        W33867  13.616  20.270  14.036
62252W        W33868  32.059  42.300   4.338
62253W        W33869  27.626  33.890  11.062
62254W        W33870  37.108   7.591   3.341
62255W        W33871  17.015  34.784  13.782
62256W        W33872  27.993  43.700   3.334
62257W        W33873  39.925  24.104   0.540
62258W        W33874  34.605   8.792  12.658
62259W        W33875  31.837  44.895   0.613
62260W        W33876  26.123   9.655   3.133
62261W        W33877  41.929   8.839   0.476
62262W        W33878   3.829  37.915  14.005
62263W        W33879  28.029   2.830   3.753
62264W        W33880  20.276  33.564   2.132
62265W        W33881  18.111  30.193   4.491
62266W        W33882  29.618  23.598   2.694
62267W        W33883  35.555  17.987   4.323
62268W        W33884  16.606  35.562   4.228
62269W        W33885  30.769  20.154   0.764
62270W        W33886  40.517  31.189   3.243
62271W        W33887  10.889  19.662   2.797
62272W        W33888  31.327   8.913  14.845
62273W        W33889  24.571   9.887  12.021
62274W        W33890  17.204  41.923  14.065
62275W        W33891  30.098   7.220   4.546
62276W        W33892  14.477  33.868   0.303
62277W        W33893   2.124   4.594   4.296
62278W        W33894  14.879   7.948  11.573
62279W        W33895  13.778  12.627  12.124
62280W        W33896   9.766   0.281   0.903
62281W        W33897  19.629  27.462  12.918
62282W        W33898   8.056  44.950   0.802
62283W        W33899   6.298   7.302  14.416
62284W        W33900  43.011   0.176  11.553
62285W        W33901  10.311  27.218   0.621
62286W        W33902  29.149   0.396   4.653
62287W        W33903   4.174   7.384   1.711
62288W        W33904   2.903  32.483  13.976
62289W        W33905  44.866   0.998  11.254
62290W        W33906  21.637  37.048  10.738
62291W        W33907  35.433  38.990   2.695
62292W        W33908   1.190  40.306   0.795
62293W        W33909  11.447  14.511  10.908
62294W        W33910   3.392  12.097  11.223
62295W        W33911  14.448  39.323   1.223
62296W        W33912  13.371  23.190  12.042
62297W        W33913   8.580   0.890  11.996
62298W        W33914  30.965   0.894   2.967
62299W        W33915  27.581  25.519   4.763
62300W        W33916  28.138  40.953  13.497
62301W        W33917  13.797  16.350  14.711
62302W        W33918  40.034  26.877   0.992
62303W        W33919  24.513  34.057  11.537
62304W        W33920  20.176  41.268  11.809
62305W        W33921  34.386  29.067   1.808
62306W        W33922  31.459  22.964  14.903
62307W        W33923  41.872  37.247  10.955
62308W        W33924  28.031  10.704  11.970
62309W        W33925   5.086  13.085  11.091
62310W        W33926  22.122  11.154   4.117
62311W        W33927  18.492  21.674  13.984
62312W        W33928  27.041  40.779  12.915
62313W        W33929  36.479  24.274  11.192
62314W        W33930  11.852  28.014   0.921
62315W        W33931  41.937  22.613   2.401
62316W        W33932   1.935  36.696   4.477
62317W        W33933  33.464  44.990   4.936
62318W        W33934   2.546   6.506   4.923
62319W        W33935  40.740  14.554  11.248
62320W        W33936  30.605  28.633  11.150
62321W        W33937  39.374   1.322   2.862
62322W        W33938  10.679   2.911   4.674
62323W        W33939  31.408  18.989  14.533
62324W        W33940   8.294  39.006   4.729
62325W        W33941  23.447  39.994  10.979
62326W        W33942  21.430  13.657  13.924
62327W        W33943  25.495  26.497   3.233
62328W        W33944  20.767  43.096   0.004
62329W        W33945  40.521  31.675   3.856
62330W        W33946  36.720  34.413   2.116
62331W        W33947  10.685  34.854   2.424
62332W        W33948  38.668   6.373   1.383
62333W        W33949  21.319  40.282  12.920
62334W        W33950  39.889  39.246   3.810
62335W        W33951  23.784  16.800  12.523
62336W        W33952  33.290  16.873  14.348
62337W        W33953  32.660  39.316   0.934
62338W        W33954   0.428  19.157  10.935
62339W        W33955   0.164  19.098  14.340
62340W        W33956  17.690  27.039  11.655
62341W        W33957  30.557  34.748   2.596
62342W        W33958  25.769   2.939  13.587
62343W        W33959   3.487  35.692  14.928
62344W        W33960  18.517  26.570   4.636
62345W        W33961  17.309  43.468   3.127
62346W        W33962  27.142   9.971  14.385
62347W        W33963  29.526  39.503  13.458
62348W        W33964  38.674  30.953  12.141
62349W        W33965  40.557  22.730   4.857
62350W        W33966  31.502   4.423   4.190
62351W        W33967  30.898   4.530  12.015
62352W        W33968  22.490  14.695   0.272
62353W        W33969  33.926   3.656   2.798
62354W        W33970  33.151  12.864  14.536
62355W        W33971   7.382  34.062   1.740
62356W        W33972  38.720  43.067  14.624
62357W        W33973  18.761  32.278   3.205
62358W        W33974  14.065  16.525  11.584
62359W        W33975  19.413   9.302  14.822
62360W        W33976  10.755   4.929   2.733
62361W        W33977  21.455  41.831   1.921
62362W        W33978   4.404   4.136  13.121
62363W        W33979  28.971  23.023  14.697
62364W        W33980   5.657  31.536  12.629
62365W        W33981  32.392  21.650  13.464
62366W        W33982  36.534   2.892   0.383
62367W        W33983  14.851  43.487   4.021
62368W        W33984  40.395  34.542   2.433
62369W        W33985   2.275  24.015   1.424
62370W        W33986  10.789   2.263   0.859
62371W        W33987  21.240  42.259  14.095
62372W        W33988   7.349   3.695   1.855
62373W        W33989  22.749   8.924   2.871
62374W        W33990  31.358  37.524   4.135
62375W        W33991  41.425  41.928   1.359
62376W        W33992   3.287  23.249  12.371
62377W        W33993  11.262   3.871   0.953
62378W        W33994   9.340  35.607  13.825
62379W        W33995  44.369   8.274  12.723
62380W        W33996  10.850  39.418   2.336
62381W        W33997  21.218  19.557  12.368
62382W        W33998  36.434  32.671   0.382
62383W        W33999  40.553   7.234   0.471
62384W        W34000  44.465  29.926  12.460
62385W        W34001  30.870  43.724  11.523
62386W        W34002  11.572  44.204  13.455
62387W        W34003  40.304  33.688  13.980
62388W        W34004  20.059  42.405   2.788
62389W        W34005   9.702  43.692  12.556
62390W        W34006  27.100   8.383   3.248
62391W        W34007  44.406  12.873  12.056
62392W        W34008  18.536   2.209   0.306
62393W        W34009  32.016  11.864  14.347
62394W        W34010  41.240  33.872   2.330
62395W        W34011  17.283   6.718   3.359
62396W        W34012  36.928   3.010   0.002
62397W        W34013  12.655  38.635  12.673
62398W        W34014   5.289  13.346  11.502
62399W        W34015  28.293   6.889  13.990
62400W        W34016  34.705  41.076   3.165
62401W        W34017  37.261  33.105   2.351
62402W        W34018  27.175  38.482  14.754
62403W        W34019   0.222  28.559   3.282
62404W        W34020  34.412   2.951  13.143
62405W        W34021  34.119  25.057  10.986
62406W        W34022  15.469  27.250  14.474
62407W        W34023  41.960  41.535   1.826
62408W        W34024  21.769   8.609  13.305
62409W        W34025   6.159   1.355   4.149
62410W        W34026   7.365   0.845   3.356
62411W        W34027   8.551  28.049  12.180
62412W        W34028  38.624   3.843  14.293
62413W        W34029   9.859   9.678   2.404
62414W        W34030  39.658  42.070   4.774
62415W        W34031  25.261  22.112  10.552
62416W        W34032  29.226  43.955   2.274
62417W        W34033  39.097  15.394  14.985
62418W        W34034  20.224   8.417   2.255
62419W        W34035  30.656  21.751  13.047
62420W        W34036  43.073  30.394   3.372
62421W        W34037  33.090  24.656   2.220
62422W        W34038  20.089  18.821  11.213
62423W        W34039  44.322  24.480   0.938
62424W        W34040  28.057   7.702   0.396
62425W        W34041  43.311  32.576  11.793
62426W        W34042  37.542   9.910   2.251
62427W        W34043  21.359  36.069   4.112
62428W        W34044   9.421   0.654  11.582
62429W        W34045  38.867  25.206   1.084
62430W        W34046  35.215  44.713  10.845
62431W        W34047  42.243  13.079  11.455
62432W        W34048  39.587  10.162   3.114
62433W        W34049   0.480  37.149  12.106
62434W        W34050  18.681  40.079   0.843
62435W        W34051  26.035  10.417   4.352
62436W        W34052   3.718  42.245   4.214
62437W        W34053   9.286  12.409   1.809
62438W        W34054  34.225  32.430  14.938
62439W        W34055  38.867  11.283   1.902
62440W        W34056   7.764  25.233  12.463
62441W        W34057  40.534  36.409  13.794
62442W        W34058  26.562  43.879   4.309
62443W        W34059  43.058  32.262  14.408
62444W        W34060  23.708  20.628   1.351
62445W        W34061  34.480  12.702   4.412
62446W        W34062  14.378   0.009   4.021
62447W        W34063  18.651  23.214  14.346
62448W        W34064  17.757   6.150   4.791
62449W        W34065   8.195  42.383   3.447
62450W        W34066  23.791  19.143  12.355
62451W        W34067  18.937  39.540   1.728
62452W        W34068  27.649  12.416  11.678
62453W        W34069  26.564  41.530   2.394
62454W        W34070   3.099  41.501  12.971
62455W        W34071  23.737  43.028   3.253
62456W        W34072  35.151  16.587  12.971
62457W        W34073  35.994  19.379  10.655
62458W        W34074  33.017   1.055   1.535
62459W        W34075  34.574  22.491   0.214
62460W        W34076   1.150  31.722   0.856
62461W        W34077   3.345   0.476  10.754
62462W        W34078   0.350  22.813   1.816
62463W        W34079  17.315  29.121   1.216
62464W        W34080  25.183  28.265   0.778
62465W        W34081  38.750  28.199   5.149
62466W        W34082  11.666   4.549  12.012
62467W        W34083  22.096  28.872  14.980
62468W        W34084   6.551  20.764  11.024
62469W        W34085  12.243  44.558  11.021
62470W        W34086   7.066  17.507   0.424
62471W        W34087  22.247   1.533   3.679
62472W        W34088   7.345  38.510   1.367
62473W        W34089  39.501  41.000  13.266
62474W        W34090  11.856   3.213   0.827
62475W        W34091  41.093  42.388  12.051
62476W        W34092  26.964   4.271  10.669
62477W        W34093   2.178  25.075  12.528
62478W        W34094  12.108  31.697  14.584
62479W        W34095  19.002   0.498  13.921
62480W        W34096  39.949  38.266   3.381
62481W        W34097  14.606   9.857  14.879
62482W        W34098  16.134   3.311  12.990
62483W        W34099   7.902  22.794   1.845
62484W        W34100   7.162  22.494   2.683
62485W        W34101  28.487  31.037   3.142
62486W        W34102  33.488  15.333   0.479
62487W        W34103  38.902  40.821   0.858
62488W        W34104  25.508  18.195  11.099
62489W        W34105  31.938  43.746   2.761
62490W        W34106  25.255  23.232   2.039
62491W        W34107  40.754   5.256   0.675
62492W        W34108  30.761  38.130  12.422
62493W        W34109  15.107  37.034   1.223
62494W        W34110  40.153   4.886  13.868
62495W        W34111  44.494  12.800  13.922
62496W        W34112   8.844  33.777   5.022
62497W        W34113  26.633  42.212   0.624
62498W        W34114  39.700  22.438  11.920
62499W        W34115  28.478  25.099   4.321
62500W        W34116  42.787  35.324  13.794
62501W        W34117  27.027  31.798   2.536
62502W        W34118  18.594  12.235  14.031
62503W        W34119  23.440   6.238  12.017
62504W        W34120  43.544  32.422  14.290
62505W        W34121  11.837  20.952   4.243
62506W        W34122  29.936  41.920   1.142
62507W        W34123  43.045  19.079  11.650
62508W        W34124   2.207   5.178  14.752
62509W        W34125  10.700  31.355   3.558
62510W        W34126  40.625   1.302   4.181
62511W        W34127  39.467   6.506  12.536
62512W        W34128  39.007  38.011  13.387
62513W        W34129  18.057  27.172   4.198
62514W        W34130   9.579  37.984   1.017
62515W        W34131  39.797  40.296  14.605
62516W        W34132  28.032  18.110  11.172
62517W        W34133   2.917  12.222  14.985
62518W        W34134  34.483  37.419   4.932
62519W        W34135  24.631  22.954   4.899
62520W        W34136  19.165  24.112   3.553
62521W        W34137  27.743  21.733  12.783
62522W        W34138  20.122   6.087   1.342
62523W        W34139  32.363  16.344   2.908
62524W        W34140   8.131  44.769  11.529
62525W        W34141   6.375  21.790   3.325
62526W        W34142  40.390   4.807  11.457
62527W        W34143  10.296  11.170   4.953
62528W        W34144   9.206   8.932   1.300
62529W        W34145   0.800  43.592  13.878
62530W        W34146  13.924  28.633  14.961
62531W        W34147   1.949  41.994  14.385
62532W        W34148  33.621  37.341   4.600
62533W        W34149   1.499   8.698   2.823
62534W        W34150  35.965  33.167   2.977
62535W        W34151  33.128  19.772   4.638
62536W        W34152  41.861  37.249  11.941
62537W        W34153   7.740  44.056   0.202
62538W        W34154  14.549  30.145   3.288
62539W        W34155  27.984  13.130   0.825
62540W        W34156  28.130   2.693   1.603
62541W        W34157  20.055  35.471  11.664
62542W        W34158  36.887  10.584  13.519
62543W        W34159  39.997   9.367  14.967
62544W        W34160  31.219  28.040   4.613
62545W        W34161  18.010  43.899  13.965
62546W        W34162   1.439  22.517  12.896
62547W        W34163   6.589   0.797   0.237
62548W        W34164  12.882  10.242  13.469
62549W        W34165  32.643   2.266  14.316
62550W        W34166  19.141   8.412   0.771
62551W        W34167  26.775  29.305   2.126
62552W        W34168  40.139  22.049   1.745
62553W        W34169  38.381  13.613   2.885
62554W        W34170  41.040  24.300   4.169
62555W        W34171   0.056   5.385   4.539
62556W        W34172  24.503  12.850   0.949
62557W        W34173  17.062  17.358  13.888
62558W        W34174  11.824  15.787  14.891
62559W        W34175  33.974   4.162   1.888
62560W        W34176   4.591   0.370  11.048
62561W        W34177  16.791  27.420  14.837
62562W        W34178  23.253  36.615   4.623
62563W        W34179  36.765  28.942   0.834
62564W        W34180  27.736  16.005   4.499
62565W        W34181  29.047  43.245  14.874
62566W        W34182   1.540  44.361   1.761
62567W        W34183  35.344  16.205   3.892
62568W        W34184  13.876   4.420  13.582
62569W        W34185  29.481   7.762  13.474
62570W        W34186  28.914  18.755   3.589
62571W        W34187  24.132  18.274   3.996
62572W        W34188  21.464  23.569  13.304
62573W        W34189  31.145   4.864   0.017
62574W        W34190  32.653  15.784   4.465
62575W        W34191  31.702  16.644   0.027
62576W        W34192   9.410   3.607   3.789
62577W        W34193  26.752  12.587  12.567
62578W        W34194  10.122  16.087  14.953
62579W        W34195  16.173  21.752   4.247
62580W        W34196   0.946  41.101  13.955
62581W        W34197  38.318  24.951  11.610
62582W        W34198  37.149  17.172  11.893
62583W        W34199  24.236   1.894   1.088
62584W        W34200  23.660  38.381   2.225
62585W        W34201  21.993  14.829  14.299
62586W        W34202  22.518   2.126   2.315
62587W        W34203  22.507   4.337  13.495
62588W        W34204  13.314  43.027   3.277
62589W        W34205  13.054  24.623  12.866
62590W        W34206  14.764  29.079   3.264
62591W        W34207  38.588  19.404   5.063
62592W        W34208  27.228  25.186  11.984
62593W        W34209  37.569   0.303  10.259
62594W        W34210   5.148   7.107  12.952
62595W        W34211  32.519  40.323  12.002
62596W        W34212  35.510  18.688   3.790
62597W        W34213   3.395   6.644   0.204
62598W        W34214   0.243  35.639   0.472
62599W        W34215  32.915  14.866  14.344
62600W        W34216   7.814  44.773  13.587
62601W        W34217   0.125  32.552  14.462
62602W        W34218   0.643   3.013   2.415
62603W        W34219  29.447  14.122  12.890
62604W        W34220  10.120  41.936   4.625
62605W        W34221   3.426   7.819   4.042
62606W        W34222   4.691  43.644   2.895
62607W        W34223  19.522   9.853   4.300
62608W        W34224  34.890  31.226   2.652
62609W        W34225  17.255  41.088  10.652
62610W        W34226  35.041  39.815   2.392
62611W        W34227  28.221  31.589  10.197
62612W        W34228  34.780  32.496  11.968
62613W        W34229  38.422  35.722  14.220
62614W        W34230  27.157   2.460   1.017
62615W        W34231  24.581  39.345   3.337
62616W        W34232  23.929  15.825  13.926
62617W        W34233  27.459  18.195  10.632
62618W        W34234  37.719  25.472   3.615
62619W        W34235  37.287  22.642   2.838
62620W        W34236   6.352  42.457  14.963
62621W        W34237  27.485   4.238  10.650
62622W        W34238  15.883  31.765   2.938
62623W        W34239  16.736  39.745   4.813
62624W        W34240  31.352   0.012   0.503
62625W        W34241  39.339   7.143   3.540
62626W        W34242   4.463  32.066   4.987
62627W        W34243   3.804  13.135   3.246
62628W        W34244   8.852   7.276   4.837
62629W        W34245  14.078   7.632   3.202
62630W        W34246  32.234  11.748   3.824
62631W        W34247  29.690  43.707  12.319
62632W        W34248   6.424  28.657  10.269
62633W        W34249  23.213  30.486  14.922
62634W        W34250  30.585   5.337  11.880
62635W        W34251  26.794  38.997   0.844
62636W        W34252  18.226  44.479  12.451
62637W        W34253  19.619   5.792   0.951
62638W        W34254   0.316  21.278   2.744
62639W        W34255  31.495   7.683  10.663
62640W        W34256  38.506  27.992   1.648
62641W        W34257   5.765  31.379  12.127
62642W        W34258  44.846  33.538   1.763
62643W        W34259   0.740  16.261  12.095
62644W        W34260  17.432  22.178  10.240
62645W        W34261  31.690  32.354   0.372
62646W        W34262   4.639   5.121   3.297
62647W        W34263  26.163   6.845   0.128
62648W        W34264   9.798  40.354  12.475
62649W        W34265   6.562  24.045   0.949
62650W        W34266  20.359  29.915   0.873
62651W        W34267   2.514  32.036  13.426
62652W        W34268  20.082  14.722   0.406
62653W        W34269  18.825  22.491   4.142
62654W        W34270  15.350  36.094  14.309
62655W        W34271  28.710  35.432  12.120
62656W        W34272   8.970  33.385   2.644
62657W        W34273  35.164  32.458  13.299
62658W        W34274  20.209  37.810   0.075
62659W        W34275  34.396  41.755  11.323
62660W        W34276  24.029  43.307  12.102
62661W        W34277   5.460   4.303   0.614
62662W        W34278  35.996  37.903  14.276
62663W        W34279  31.969  20.782  14.372
62664W        W34280  33.816  26.371  10.411
62665W        W34281  11.599  29.703  10.713
62666W        W34282  14.090  26.731  12.468
62667W        W34283  41.317  42.237   0.920
62668W        W34284  17.149  40.330   0.040
62669W        W34285  29.387  24.006   3.397
62670W        W34286  21.999  40.896   3.270
62671W        W34287   7.708  14.733   3.701
62672W        W34288  43.263  19.642   3.261
62673W        W34289  13.720  21.295   0.424
62674W        W34290  13.748  21.142  13.530
62675W        W34291   4.277   6.173  11.010
62676W        W34292  12.656  26.026  10.408
62677W        W34293  34.961  13.043  11.097
62678W        W34294  21.494  26.632  11.466
62679W        W34295  38.923  13.234  12.011
62680W        W34296   4.677  12.677   4.128
62681W        W34297  36.386   9.121  13.753
62682W        W34298   3.935  44.857  13.205
62683W        W34299  36.376  16.506   2.392
62684W        W34300  22.250  37.684  11.556
62685W        W34301  34.286  33.514   4.713
62686W        W34302  31.908  24.670  13.815
62687W        W34303  38.978  22.325  10.877
62688W        W34304  30.594  37.328   1.804
62689W        W34305  35.279  44.300  11.159
62690W        W34306  22.290   5.681   4.203
62691W        W34307  33.372   0.911   3.933
62692W        W34308  24.412  43.025  13.428
62693W        W34309  31.533  12.842  11.149
62694W        W34310  36.405  26.070  11.067
62695W        W34311  30.712  16.182   3.567
62696W        W34312  13.817  42.742   3.361
62697W        W34313  38.575   3.265  12.409
62698W        W34314  43.505   7.380  11.994
62699W        W34315  30.978  16.575   4.661
62700W        W34316  35.246  23.610   0.326
62701W        W34317  36.649  28.601  10.933
62702W        W34318  14.600  39.349   2.579
62703W        W34319  13.163   4.135   2.422
62704W        W34320   8.880  44.888   0.431
62705W        W34321  28.143  43.034  10.252
62706W        W34322  26.715  39.590   0.230
62707W        W34323  10.453  20.450  14.442
62708W        W34324   8.744  16.674  12.380
62709W        W34325   0.745  44.230   0.614
62710W        W34326  40.420   9.640  12.929
62711W        W34327  21.035  26.517  14.288
62712W        W34328  44.879  23.757   0.786
62713W        W34329  39.274  14.630  11.517
62714W        W34330  10.922  19.189  12.940
62715W        W34331  22.181  38.384   0.552
62716W        W34332  29.440  13.162   4.250
62717W        W34333  26.994  23.169   2.388
62718W        W34334  44.018  22.201   3.100
62719W        W34335  36.785  18.646   1.255
62720W        W34336  18.032  25.502   2.810
62721W        W34337  23.692  24.589   0.190
62722W        W34338  42.425  29.997   2.784
62723W        W34339  44.479   1.927   3.102
62724W        W34340  13.155   5.974   9.915
62725W        W34341  22.042  35.605  10.627
62726W        W34342  39.291  20.773   0.908
62727W        W34343  36.829  14.327  10.561
62728W        W34344  22.248  29.773   4.582
62729W        W34345  23.139  28.577  12.967
62730W        W34346  29.238  35.351  10.529
62731W        W34347   0.349  21.831  14.978
62732W        W34348  41.312  29.975  13.988
62733W        W34349  12.352   4.761   3.680
62734W        W34350  25.701  10.064  11.990
62735W        W34351  13.847   2.887   0.264
62736W        W34352  43.376  11.574  12.194
62737W        W34353  41.480  43.775  13.958
62738W        W34354   9.117   5.383  12.497
62739W        W34355  19.730  18.784  14.028
62740W        W34356   1.589   6.333   1.960
62741W        W34357   1.770   0.961   3.885
62742W        W34358  31.084   5.829   4.242
62743W        W34359  11.622   3.503   9.970
62744W        W34360  43.015   8.277   4.620
62745W        W34361  10.255  24.615  13.030
62746W        W34362  19.070   4.313  14.458
62747W        W34363  30.576   9.401   2.858
62748W        W34364  26.776  36.362  10.709
62749W        W34365  34.476   3.732  11.528
62750W        W34366  36.985   7.889   4.839
62751W        W34367   4.682  40.105  11.250
62752W        W34368  11.871  16.706   2.200
62753W        W34369  20.271  41.103   1.326
62754W        W34370  32.845   3.442  13.056
62755W        W34371   3.285  26.653   4.210
62756W        W34372  17.715  10.741  14.699
62757W        W34373  37.061  20.857  12.071
62758W        W34374  11.017  17.982   4.940
62759W        W34375   4.388  23.045   3.289
62760W        W34376  24.104  10.180   1.898
62761W        W34377  33.664  40.797   0.734
62762W        W34378  26.159  44.365   4.818
62763W        W34379  34.328  26.355   2.178
62764W        W34380  23.536  30.890   4.720
62765W        W34381  29.087   1.191   2.881
62766W        W34382  17.075   2.714  13.482
62767W        W34383  15.377  35.832   0.788
62768W        W34384   1.436   9.784  14.453
62769W        W34385  18.504  11.256  13.726
62770W        W34386   5.907  35.881  10.717
62771W        W34387  36.792  33.386  10.698
62772W        W34388  22.179   2.383   2.629
62773W        W34389  43.298  18.815  12.031
62774W        W34390  20.353  36.155   3.769
62775W        W34391  21.041  38.932  12.543
62776W        W34392   5.805  31.579  10.702
62777W        W34393  19.561  26.130  13.594
62778W        W34394   1.675  11.585  12.359
62779W        W34395  17.282  34.703   2.895
62780W        W34396  31.085   8.353   2.322
62781W        W34397  40.580   3.915  11.117
62782W        W34398  16.689   1.171  11.373
62783W        W34399   3.015  23.532   0.289
62784W        W34400  10.993  40.217   1.368
62785W        W34401  13.999  10.162   2.247
62786W        W34402  43.993  40.009   3.296
62787W        W34403  37.426  34.346   2.849
62788W        W34404  11.877  13.667  12.862
62789W        W34405  23.344  31.622   1.497
62790W        W34406  14.007  11.992   2.663
62791W        W34407  13.354   9.692  12.066
62792W        W34408  25.774  18.113  13.865
62793W        W34409   5.103   3.856   1.420
62794W        W34410  14.744  44.427   0.373
62795W        W34411  43.535  14.354  10.770
62796W        W34412  23.447  41.474  13.046
62797W        W34413  12.452  19.040  12.584
62798W        W34414  10.737  20.796   0.229
62799W        W34415  26.983  17.073   2.872
62800W        W34416   4.323   7.147   1.246
62801W        W34417  18.063  38.841  13.112
62802W        W34418   1.841  13.227  12.780
62803W        W34419  38.544  18.582   4.630
62804W        W34420  28.626  28.937  14.917
62805W        W34421   7.175  16.202   1.267
62806W        W34422  20.226  36.078  13.498
62807W        W34423  23.846  28.081   3.216
62808W        W34424   6.251  24.177   3.151
62809W        W34425  23.903  33.694   4.403
62810W        W34426   9.304  31.674  11.487
62811W        W34427   7.804  32.496  12.442
62812W        W34428  29.909  22.312   3.305
62813W        W34429  43.193  24.887   2.410
62814W        W34430   0.942  33.611  10.299
62815W        W34431  29.528  41.366  14.047
62816W        W34432  20.478  30.218   3.263
62817W        W34433   5.215  10.418  14.791
62818W        W34434  28.631  17.394   3.217
62819W        W34435  36.878  13.288  14.295
62820W        W34436   4.417  28.082   3.286
62821W        W34437   1.581  22.625  13.781
62822W        W34438  29.598   0.173   3.818
62823W        W34439  23.117  10.677  13.262
62824W        W34440  15.153  12.151   3.327
62825W        W34441  14.124  23.240  11.176
62826W        W34442  17.158  41.918   0.063
62827W        W34443  37.349  15.757  12.622
62828W        W34444  33.229  30.489   0.708
62829W        W34445   6.390  21.661   4.761
62830W        W34446  21.606  43.801   3.800
62831W        W34447  34.958  44.304  10.692
62832W        W34448  39.540  10.094   2.196
62833W        W34449  44.317  16.903   0.263
62834W        W34450   7.623   6.696   4.728
62835W        W34451  30.724   3.547  11.680
62836W        W34452   7.266  34.464  14.848
62837W        W34453  22.321  32.136   1.115
62838W        W34454  17.667  20.849   1.021
62839W        W34455  27.071  18.107   4.498
62840W        W34456  18.166  23.496  13.864
62841W        W34457   7.151  14.303   1.305
62842W        W34458   4.252  40.016  12.532
62843W        W34459  12.529  41.372  12.932
62844W        W34460   2.284   0.632   9.883
62845W        W34461  13.498  27.034   0.289
62846W        W34462  25.973  39.528  12.035
62847W        W34463  18.535  22.096   4.265
62848W        W34464  27.206  35.010   2.767
62849W        W34465  25.907  14.723  10.826
62850W        W34466   4.834  44.990   3.197
62851W        W34467   3.837   7.975  12.039
62852W        W34468  12.511  16.268   0.415
62853W        W34469  42.877  44.255  12.607
62854W        W34470   4.820   9.944  12.703
62855W        W34471  31.761  26.133   1.272
62856W        W34472  43.310  42.547   2.602
62857W        W34473   3.459  44.773   4.176
62858W        W34474  22.229  19.815  12.027
62859W        W34475  43.243  10.707  14.800
62860W        W34476  40.854  25.696   4.811
62861W        W34477  35.606  16.012   0.804
62862W        W34478  34.048   8.731   0.863
62863W        W34479   3.192  40.694   3.102
62864W        W34480  35.957  39.768  10.759
62865W        W34481   1.732  19.225   2.319
62866W        W34482  37.748   7.141   0.304
62867W        W34483  43.792  14.312   0.926
62868W        W34484  39.110   8.236  11.623
62869W        W34485  22.150  10.410   9.784
62870W        W34486  14.301  23.564   2.855
62871W        W34487  22.462  23.413  12.522
62872W        W34488  11.259  15.366   2.834
62873W        W34489  41.975  19.226  12.077
62874W        W34490  21.059  36.162  14.235
62875W        W34491  11.391  22.569  12.349
62876W        W34492  21.638  39.064  10.580
62877W        W34493  13.935   1.819  11.555
62878W        W34494  15.317  31.556  11.563
62879W        W34495  19.132  27.430   3.249
62880W        W34496  10.548  43.176  11.034
62881W        W34497  23.180  14.753  11.201
62882W        W34498  37.956   1.344   4.670
62883W        W34499  21.030  35.923   0.243
62884W        W34500  34.828  38.010   4.218
62885W        W34501  39.797  27.630   2.349
62886W        W34502  42.369  12.890   4.812
62887W        W34503   8.966  43.973   4.139
62888W        W34504   6.077   7.102  12.878
62889W        W34505  41.877  15.242  14.188
62890W        W34506  28.559  42.977  12.069
62891W        W34507  28.263   9.143   1.288
62892W        W34508   7.339  11.640  13.360
62893W        W34509  24.152   5.823  11.255
62894W        W34510  33.223  43.929  10.370
62895W        W34511   4.173  21.216   2.851
62896W        W34512  16.199  17.598  10.492
62897W        W34513  24.564  21.521   1.941
62898W        W34514  23.772  39.667  13.374
62899W        W34515   9.630  15.507  11.638
62900W        W34516  32.322  16.984   1.447
62901W        W34517  34.614  26.194   2.589
62902W        W34518  39.849  28.903   0.790
62903W        W34519   5.817   6.136   2.260
62904W        W34520  16.703  14.222  10.954
62905W        W34521  36.453   7.647   4.678
62906W        W34522  23.574  24.493  13.793
62907W        W34523  27.224  29.639  12.949
62908W        W34524  26.367  38.365  11.596
62909W        W34525  18.534  38.969  11.475
62910W        W34526  22.923  41.551  12.882
62911W        W34527  41.842  31.659  12.895
62912W        W34528   2.810  25.242  11.936
62913W        W34529  35.739  34.643  11.925
62914W        W34530   1.592   3.467   5.024
62915W        W34531  30.582  20.319  12.048
62916W        W34532  27.749  42.142   0.949
62917W        W34533  40.094  35.766   2.404
62918W        W34534  31.842  15.049   1.436
62919W        W34535  20.985  22.340  14.261
62920W        W34536  31.402  10.823  13.000
62921W        W34537  28.030  40.868   3.721
62922W        W34538   6.854  15.672   3.275
62923W        W34539  42.460  19.826   4.081
62924W        W34540  43.891  44.324  11.092
62925W        W34541  21.845  22.283   1.428
62926W        W34542   9.815  37.847   4.425
62927W        W34543  26.166  16.062  10.273
62928W        W34544  38.609  44.384  14.424
62929W        W34545  27.509  16.958   3.955
62930W        W34546  29.461  35.361  14.089
62931W        W34547  22.523  39.562   4.588
62932W        W34548  24.206  10.145  13.807
62933W        W34549  35.865   0.014   4.674
62934W        W34550  15.077  13.285  12.879
62935W        W34551   2.682  14.021   2.927
62936W        W34552  36.187  24.816  12.096
62937W        W34553  20.725  39.425  14.301
62938W        W34554   3.266  43.392  10.726
62939W        W34555   6.221  22.003  14.488
62940W        W34556  35.113   5.129   4.101
62941W        W34557  10.365  25.745  13.857
62942W        W34558   5.425  29.101  12.938
62943W        W34559   3.630   9.187   1.223
62944W        W34560  23.343  23.560  14.415
62945W        W34561  21.528  22.691  10.627
62946W        W34562  38.891  31.220  10.904
62947W        W34563  29.620  30.390   2.524
62948W        W34564  33.681   7.915  14.503
62949W        W34565   7.000   3.584  10.830
62950W        W34566   4.145  35.091  11.987
62951W        W34567  22.267  15.118   1.815
62952W        W34568  14.618   1.295  10.945
62953W        W34569   7.963  44.397  12.463
62954W        W34570  40.824  43.813  12.826
62955W        W34571  18.368   1.963  13.787
62956W        W34572  37.336  15.556  13.536
62957W        W34573  40.746  12.091  12.568
62958W        W34574  10.238   0.164   3.131
62959W        W34575  40.599  19.369  13.748
62960W        W34576  26.713  28.659  13.443
62961W        W34577  23.978  13.627   4.104
62962W        W34578  11.439  12.267   2.740
62963W        W34579   9.664  30.990   3.168
62964W        W34580   7.836   7.379   2.315
62965W        W34581  12.110  35.813  11.074
62966W        W34582  26.258  12.184   4.136
62967W        W34583  24.514  21.604  11.667
62968W        W34584  37.059  22.599   1.477
62969W        W34585  19.764  18.524  11.518
62970W        W34586  34.467  26.588  13.606
62971W        W34587  40.349  25.596   3.347
62972W        W34588   8.905  34.779  13.986
62973W        W34589  33.748   2.595   9.934
62974W        W34590  27.476  19.680   2.822
62975W        W34591  12.268  31.893   3.832
62976W        W34592  44.520  17.073  12.057
62977W        W34593  25.536   5.592   0.178
62978W        W34594  26.147  33.608   3.591
62979W        W34595  24.981  26.516   4.549
62980W        W34596  27.203   9.140  12.042
62981W        W34597  29.816  22.160   4.673
62982W        W34598  21.233  29.107   3.542
62983W        W34599   5.010  23.441   4.659
62984W        W34600  23.903  40.853  12.006
62985W        W34601  34.144  43.396  14.724
62986W        W34602   3.831   9.676   1.260
62987W        W34603   1.223   0.427   0.954
62988W        W34604   7.719  11.205  13.891
62989W        W34605  25.154  27.658  14.905
62990W        W34606  23.271  24.002   3.591
62991W        W34607  23.184   6.640   4.502
62992W        W34608  17.593   5.830  12.575
62993W        W34609  23.115  29.338  12.380
62994W        W34610  17.788  14.778  12.754
62995W        W34611  10.017   0.167  13.477
62996W        W34612  27.139  40.716  10.665
62997W        W34613   4.359  23.109  10.997
62998W        W34614   5.649  20.178   4.660
62999W        W34615  41.393  39.569  11.984
63000W        W34616  22.223  27.729  14.059
63001W        W34617   3.318   1.442  13.273
63002W        W34618  16.790  14.624   4.659
63003W        W34619  38.788  30.625   4.830
63004W        W34620  22.887   5.428  11.184
63005W        W34621  18.842  15.313  13.475
63006W        W34622  40.631  34.077  13.886
63007W        W34623  41.452  18.827  10.596
63008W        W34624   6.357  10.676   1.887
63009W        W34625  33.552  18.074   2.712
63010W        W34626  13.266   5.711  12.830
63011W        W34627  14.071  26.048   0.807
63012W        W34628  23.606  31.513   0.855
63013W        W34629  10.195   5.909  11.116
63014W        W34630  40.509  20.310   1.781
63015W        W34631  25.360   8.170  14.749
63016W        W34632  13.738  39.383  13.452
63017W        W34633  21.772  42.475   0.283
63018W        W34634  37.279  24.777   2.753
63019W        W34635  24.683  34.975   1.452
63020W        W34636  19.019  33.882  13.764
63021W        W34637  29.424  16.020  11.090
63022W        W34638  43.134  23.004  13.081
63023W        W34639  12.896  18.183   0.621
63024W        W34640   0.899  10.170  10.698
63025W        W34641  21.580   0.898  14.514
63026W        W34642  13.710   6.343   0.724
63027W        W34643  31.295  23.045   3.879
63028W        W34644  28.370  38.369  11.621
63029W        W34645  16.647  25.504   0.467
63030W        W34646  35.539   8.917   3.169
63031W        W34647  12.848  30.529  14.407
63032W        W34648  18.949  10.811  11.728
63033W        W34649  11.351  17.677   1.299
63034W        W34650   7.288   9.197   4.188
63035W        W34651  11.305  27.468  13.625
63036W        W34652  37.372  27.403  14.849
63037W        W34653  24.991   7.863  13.003
63038W        W34654  28.647   5.799  10.820
63039W        W34655   8.409  23.428  11.650
63040W        W34656  15.986  32.888   0.821
63041W        W34657  40.982  29.861   4.331
63042W        W34658  31.669  37.117   0.563
63043W        W34659  21.295  12.727  11.567
63044W        W34660  15.064  41.854   1.832
63045W        W34661  21.665  41.313   3.371
63046W        W34662  20.657   1.898   1.813
63047W        W34663  40.407  13.729  12.084
63048W        W34664  21.725  15.422   0.459
63049W        W34665  25.199  22.151   0.517
63050W        W34666   5.163  10.268   2.658
63051W        W34667  37.083   4.174  13.851
63052W        W34668   2.155  26.023   4.024
63053W        W34669  35.118  11.311   4.561
63054W        W34670  13.300  32.560   0.808
63055W        W34671  29.723  27.422  10.564
63056W        W34672  12.231  10.610  14.981
63057W        W34673   4.936   0.983   1.489
63058W        W34674  13.287  37.706  11.407
63059W        W34675   5.449   7.393  14.949
63060W        W34676   3.877  27.478  12.901
63061W        W34677   5.208   7.405   0.795
63062W        W34678  23.234   4.835  12.462
63063W        W34679  35.063   2.258   1.499
63064W        W34680   4.214  26.956  11.823
63065W        W34681  44.352  17.285  11.168
63066W        W34682   8.241   4.256   3.346
63067W        W34683   8.305  42.854   4.545
63068W        W34684   3.218  38.860   4.551
63069W        W34685  28.508  21.982   3.628
63070W        W34686   8.487  42.883  11.149
63071W        W34687   7.188  18.759  14.911
63072W        W34688  38.007  35.303  12.013
63073W        W34689  15.614  42.344  10.016
63074W        W34690   8.862  15.088  11.252
63075W        W34691  23.690  20.754  12.529
63076W        W34692  37.132  44.212  14.774
63077W        W34693  39.617  11.126   9.546
63078W        W34694  30.857  17.459   3.693
63079W        W34695   2.883  42.789   0.829
63080W        W34696   0.340   6.908   4.219
63081W        W34697  10.675  29.542   1.865
63082W        W34698  34.908   4.014  11.389
63083W        W34699  20.657  26.017  10.686
63084W        W34700  13.274  30.630   3.914
63085W        W34701  34.425   3.410  11.916
63086W        W34702  36.089  12.246   4.947
63087W        W34703  30.888   6.286  12.221
63088W        W34704  14.211   2.330  13.426
63089W        W34705   5.267  40.888   2.443
63090W        W34706  22.282   6.319   3.713
63091W        W34707  23.873  26.505  10.761
63092W        W34708  32.651  20.129  12.888
63093W        W34709   0.159   3.092   3.600
63094W        W34710  14.923  29.658  14.304
63095W        W34711  43.515   0.515  10.711
63096W        W34712  20.976  38.914   4.027
63097W        W34713  23.223   7.738   1.961
63098W        W34714  41.985  15.770   2.742
63099W        W34715  32.014  26.981   1.631
63100W        W34716  15.225  40.780  12.057
63101W        W34717  39.757  33.206  13.062
63102W        W34718  18.090  44.681   2.777
63103W        W34719  25.955   7.157  11.160
63104W        W34720  24.993  32.918   0.720
63105W        W34721   0.543  27.671   1.601
63106W        W34722  37.088  25.596  12.401
63107W        W34723  20.674  18.956  14.371
63108W        W34724   6.753  22.747  13.006
63109W        W34725  34.355  20.069  11.623
63110W        W34726  10.338  39.134  11.091
63111W        W34727  36.510  31.174  13.568
63112W        W34728  21.034  12.420  12.630
63113W        W34729   4.250  18.253   0.696
63114W        W34730   1.016  31.663  10.700
63115W        W34731   2.987   1.159   2.367
63116W        W34732  30.099  26.499  13.900
63117W        W34733  42.711   4.467   3.782
63118W        W34734   6.289  25.066   0.761
63119W        W34735   8.209  19.086   2.166
63120W        W34736  26.126  44.771  13.540
63121W        W34737   4.345   1.352  13.900
63122W        W34738  43.717  30.632   1.350
63123W        W34739  34.006  34.942  14.414
63124W        W34740   4.613  20.284   3.779
63125W        W34741  42.760  14.763   2.301
63126W        W34742  34.467  44.382  10.525
63127W        W34743  30.505  30.873  14.913
63128W        W34744  13.881  40.936   1.469
63129W        W34745   5.156  37.835   3.341
63130W        W34746  24.554  16.539  13.841
63131W        W34747  31.605   7.751   0.338
63132W        W34748  20.568  40.775   0.775
63133W        W34749  13.592   0.223   2.334
63134W        W34750  30.238  26.910   3.701
63135W        W34751   3.878  29.256   0.488
63136W        W34752  15.857  18.515  11.941
63137W        W34753   2.948  29.410   1.360
63138W        W34754  31.570  29.425   3.678
63139W        W34755  28.540  15.115   1.727
63140W        W34756   8.055  19.706   0.261
63141W        W34757  15.227   6.425   2.225
63142W        W34758  30.116   9.244   2.699
63143W        W34759  36.110  33.668  12.082
63144W        W34760  11.166  43.937  14.501
63145W        W34761  11.941   0.184   2.784
63146W        W34762  32.464   3.251   1.274
63147W        W34763  19.178   6.979   1.988
63148W        W34764   7.639  12.862  12.523
63149W        W34765   9.947  38.807   0.478
63150W        W34766  41.886  20.283  12.956
63151W        W34767  23.095  25.696  14.526
63152W        W34768  32.607   2.446  12.160
63153W        W34769  28.434  27.847  12.345
63154W        W34770   1.832  32.917  14.038
63155W        W34771   0.293  21.077  14.462
63156W        W34772  21.555   0.421   4.557
63157W        W34773  44.786  27.191   2.157
63158W        W34774  38.495  18.982   1.421
63159W        W34775  37.368   0.225   2.795
63160W        W34776   0.312  26.590  11.566
63161W        W34777  29.284  36.498   4.265
63162W        W34778   7.150  26.333  11.214
63163W        W34779  44.609   8.016  11.036
63164W        W34780   8.987  11.132   4.518
63165W        W34781  40.772  41.081   1.310
63166W        W34782  13.156  35.966  14.030
63167W        W34783  19.013  22.349   2.279
63168W        W34784  44.465  26.448  12.880
63169W        W34785  41.526  40.867  11.597
63170W        W34786  25.972  15.228  10.070
63171W        W34787  41.330  42.493   0.448
63172W        W34788  24.829  32.110  12.179
63173W        W34789  18.287  39.542  12.533
63174W        W34790  42.818  42.874   1.028
63175W        W34791  34.099  33.048   3.520
63176W        W34792  24.105  25.053   4.619
63177W        W34793  21.198  15.150   4.560
63178W        W34794   4.885  31.466   0.878
63179W        W34795  10.246  14.681   4.175
63180W        W34796  10.262  35.216   2.290
63181W        W34797  38.341  37.861  12.637
63182W        W34798  33.873  25.965  12.078
63183W        W34799  42.764  31.824  11.407
63184W        W34800  19.079  41.722   5.068
63185W        W34801  39.964  30.600   1.741
63186W        W34802  32.360  22.968   3.264
63187W        W34803  25.853   0.596  14.849
63188W        W34804  23.512  33.913  12.114
63189W        W34805  38.567  11.186   3.620
63190W        W34806  18.861   4.847  11.021
63191W        W34807  31.118  24.016  13.019
63192W        W34808  12.609  29.164   3.645
63193W        W34809  23.120   5.859  14.725
63194W        W34810   2.680  21.104   4.254
63195W        W34811  28.228  17.876  13.540
63196W        W34812  39.763  12.574   1.359
63197W        W34813  22.398  37.845   1.252
63198W        W34814  18.517  23.199   3.849
63199W        W34815  13.074  44.879  12.891
63200W        W34816  28.698  12.089   1.280
63201W        W34817  30.870  29.135  13.900
63202W        W34818  10.715  20.097  12.138
63203W        W34819  35.175  24.421  11.610
63204W        W34820  42.982  19.617  12.463
63205W        W34821   1.763  22.238   1.686
63206W        W34822  14.698  43.098   1.049
63207W        W34823  10.661  39.810  14.966
63208W        W34824  21.661   8.166   4.116
63209W        W34825  38.956  30.509  10.018
63210W        W34826  32.654  33.813   3.603
63211W        W34827  20.337   5.506   0.707
63212W        W34828   9.448   6.260  13.462
63213W        W34829  23.167  43.561   2.361
63214W        W34830   9.189  13.714   4.024
63215W        W34831  37.383  26.862  11.679
63216W        W34832  14.900  30.250  13.977
63217W        W34833   2.377   1.729   3.808
63218W        W34834  27.525  34.124   1.760
63219W        W34835  44.594  18.592   4.178
63220W        W34836  10.171  18.698   0.435
63221W        W34837  35.432  23.363  13.544
63222W        W34838  30.471  44.495   2.643
63223W        W34839   6.331  39.809   2.248
63224W        W34840  13.743  25.215  14.853
63225W        W34841   2.345  28.923  11.988
63226W        W34842   8.696  31.168   5.010
63227W        W34843  42.055  21.728  12.993
63228W        W34844   6.517  40.095   2.649
63229W        W34845  18.535   2.528  11.085
63230W        W34846   0.355  19.763  13.094
63231W        W34847   2.944   2.666   1.335
63232W        W34848   5.448  22.037  13.017
63233W        W34849  16.331  18.603   4.184
63234W        W34850  16.573  41.106  14.858
63235W        W34851  44.450  31.984   3.888
63236W        W34852  42.941  34.453  12.693
63237W        W34853  22.795   3.512  14.222
63238W        W34854   6.277  23.591   3.628
63239W        W34855  42.757   4.767   5.011
63240W        W34856  26.749  34.419  11.617
63241W        W34857   7.857  41.579   3.848
63242W        W34858   3.074  37.594   2.852
63243W        W34859  41.036  17.197   1.319
63244W        W34860  17.601  29.086  10.494
63245W        W34861  20.313  20.144  11.975
63246W        W34862  29.598  39.517  12.123
63247W        W34863  22.490  16.594  14.508
63248W        W34864   2.256  41.586   1.781
63249W        W34865   9.658  25.267   2.400
63250W        W34866  10.518  29.183   2.212
63251W        W34867   0.275  44.252  12.489
63252W        W34868  15.535   5.223   0.407
63253W        W34869  16.366  40.942  11.395
63254W        W34870   7.606   3.665  11.504
63255W        W34871  32.163  30.413  14.851
63256W        W34872  24.941  12.795   4.581
63257W        W34873  23.111   2.811   3.838
63258W        W34874  16.946   1.777   4.858
63259W        W34875  28.892  37.900   4.308
63260W        W34876   4.227  18.226  14.357
63261W        W34877  32.373  20.713  11.832
63262W        W34878  31.726  22.063   1.593
63263W        W34879   4.050  36.444  12.248
63264W        W34880  14.590  10.586  12.076
63265W        W34881  23.659  25.167  14.890
63266W        W34882   7.959  33.402   3.722
63267W        W34883  28.528  44.661  10.885
63268W        W34884  16.065  28.234  13.394
63269W        W34885   1.004  44.837   3.565
63270W        W34886  31.496  21.509   0.970
63271W        W34887  28.391  42.748  13.448
63272W        W34888  24.428  10.458  13.100
63273W        W34889  33.803  40.185   1.254
63274W        W34890  31.520   0.271   1.333
63275W        W34891  34.483   1.495   1.700
63276W        W34892  28.998  21.182   4.214
63277W        W34893  29.491  42.581  13.058
63278W        W34894  28.716   3.858   1.502
63279W        W34895  42.475   6.250  14.820
63280W        W34896  18.537  34.535  10.788
63281W        W34897  35.273  36.020   0.464
63282W        W34898  24.687  21.466   3.410
63283W        W34899  18.199  16.941  13.756
63284W        W34900  36.792  33.896   2.256
63285W        W34901  43.565  33.671   9.962
63286W        W34902  15.785  30.728  11.729
63287W        W34903   6.254  38.412  11.424
63288W        W34904   1.211   6.081   2.884
63289W        W34905  31.154  43.984  11.135
63290W        W34906   9.373  16.628  10.671
63291W        W34907  20.534  17.413  11.658
63292W        W34908  37.907  23.742  14.622
63293W        W34909  39.421  38.191  13.630
63294W        W34910  13.748  21.109  12.421
63295W        W34911  22.641  16.909  14.129
63296W        W34912  30.935  15.279  14.810
63297W        W34913  25.033  23.366   1.153
63298W        W34914  19.328  25.666  13.625
63299W        W34915  10.832  38.830  10.401
63300W        W34916   2.859  31.830   1.709
63301W        W34917  21.239   8.293  13.431
63302W        W34918  36.799  21.190   5.137
63303W        W34919  20.544  32.370   2.391
63304W        W34920  22.180  10.724   3.360
63305W        W34921  44.263   2.928   2.183
63306W        W34922   7.375  43.568   3.759
63307W        W34923  15.015  24.212   0.446
63308W        W34924  26.913   2.329   1.454
63309W        W34925  37.294   6.416   4.199
63310W        W34926  22.675   5.000   1.735
63311W        W34927  17.271  20.743  11.158
63312W        W34928  39.030  19.109   0.910
63313W        W34929  23.741  27.225   1.417
63314W        W34930   4.534  36.261   3.778
63315W        W34931  34.518  42.218  12.064
63316W        W34932  20.566   5.315   1.893
63317W        W34933   9.187  13.567   1.256
63318W        W34934  38.004  30.253  10.770
63319W        W34935  42.487  34.206   0.348
63320W        W34936  41.233  12.593  11.586
63321W        W34937  31.774   9.813  14.559
63322W        W34938  13.513   1.161  12.548
63323W        W34939  22.817  19.511  10.243
63324W        W34940  26.955  44.770   2.397
63325W        W34941   7.362  31.449   3.553
63326W        W34942  38.055  42.072  14.376
63327W        W34943   5.931  11.928  10.728
63328W        W34944  42.248  29.085   2.690
63329W        W34945  41.657  15.650  13.521
63330W        W34946  10.070  16.071  13.949
63331W        W34947  19.722  38.370  13.405
63332W        W34948  37.340  18.070  14.940
63333W        W34949  43.456  27.159  11.856
63334W        W34950   2.442   6.352   4.064
63335W        W34951  39.943  30.438  10.671
63336W        W34952  19.708  35.550  14.438
63337W        W34953   1.350  14.283   4.789
63338W        W34954  15.308  35.807   1.789
63339W        W34955   1.148   4.366   3.204
63340W        W34956   6.435  31.696  13.846
63341W        W34957   8.352  30.820   1.777
63342W        W34958  14.912  25.128   0.979
63343W        W34959   6.111  10.243   0.313
63344W        W34960  25.268  22.217   2.260
63345W        W34961  39.880  34.752  14.733
63346W        W34962   0.912  26.099  14.794
63347W        W34963  24.033  12.613   0.808
63348W        W34964  32.642  37.889  11.069
63349W        W34965  14.284  22.981  13.485
63350W        W34966   0.123  33.700   4.180
63351W        W34967  32.511  36.125  11.364
63352W        W34968  27.065   6.352  10.262
63353W        W34969  31.607  34.311  10.670
63354W        W34970   9.665  42.177  11.223
63355W        W34971  28.226   8.890  12.039
63356W        W34972  41.897   2.515  13.830
63357W        W34973  24.567  34.669  13.837
63358W        W34974  14.841  41.411  12.574
63359W        W34975  29.539  11.553  11.086
63360W        W34976  37.379  43.734   0.390
63361W        W34977  31.057  38.577  12.171
63362W        W34978   7.718   6.337   2.199
63363W        W34979  43.371  42.760  10.757
63364W        W34980  11.653  34.982   0.869
63365W        W34981  34.577  33.122   3.785
63366W        W34982  20.748  28.805   1.295
63367W        W34983  22.764  24.435   3.362
63368W        W34984  38.006  38.633   0.386
63369W        W34985  36.296   3.083  12.565
63370W        W34986  40.502   8.431  12.319
63371W        W34987   7.619  30.545   4.275
63372W        W34988  24.408   6.120   3.069
63373W        W34989   8.436  30.397   4.623
63374W        W34990  41.124  33.601  12.767
63375W        W34991  30.577   7.528  12.405
63376W        W34992  36.380  28.690   1.224
63377W        W34993  13.721  42.927   2.009
63378W        W34994  17.075  25.695  14.678
63379W        W34995  38.973  36.823   0.670
63380W        W34996  30.627  44.880  11.085
63381W        W34997  10.696  43.851  12.218
63382W        W34998   9.802  43.420  13.030
63383W        W34999   0.678  13.282   3.449
63384W        W35000   5.231  34.182   3.707
63385W        W35001  44.923  23.148   1.658
63386W        W35002  18.639  18.171  14.913
63387W        W35003   8.216   9.187   4.017
63388W        W35004  37.972  15.532   2.169
63389W        W35005  14.033   6.300   0.325
63390W        W35006  33.152   6.709   4.236
63391W        W35007  16.911  30.204  13.977
63392W        W35008   7.300  23.192   3.145
63393W        W35009  12.171  43.839   0.900
63394W        W35010  36.897  36.974  13.308
63395W        W35011   2.899  38.545  11.043
63396W        W35012  36.053  31.937  13.507
63397W        W35013   0.311  13.533   0.860
63398W        W35014  42.128   6.594  11.486
63399W        W35015  31.401  33.624  13.005
63400W        W35016   5.073  11.880   3.649
63401W        W35017  33.541  26.963  14.360
63402W        W35018  19.789  38.128   2.762
63403W        W35019   0.636  26.464   3.840
63404W        W35020   9.348  27.674   4.546
63405W        W35021   0.247  12.029  14.016
63406W        W35022  33.994  31.979  14.882
63407W        W35023  11.346  33.887   4.352
63408W        W35024   3.386  43.412   2.107
63409W        W35025  17.020  32.312  13.715
63410W        W35026   9.217  29.991   4.938
63411W        W35027  30.186  20.287  11.058
63412W        W35028   8.624  32.136   1.236
63413W        W35029  12.669  37.424   4.950
63414W        W35030  15.973  35.109   4.915
63415W        W35031  34.521  28.138  14.230
63416W        W35032   0.309  23.664  14.487
63417W        W35033   4.791  18.802  12.018
63418W        W35034  19.191   0.487  12.424
63419W        W35035  24.467   6.610  11.210
63420W        W35036  14.566  23.072  11.398
63421W        W35037  34.388   4.406   3.646
63422W        W35038  41.632  31.158   5.118
63423W        W35039  41.319  10.141   4.991
63424W        W35040  40.718  27.060  14.056
63425W        W35041  38.304  17.739   4.368
63426W        W35042  16.298  37.863  13.374
63427W        W35043  19.185  33.545  12.417
63428W        W35044  26.023  14.590   1.549
63429W        W35045   8.429  22.007   3.723
63430W        W35046  17.166  40.258   2.854
63431W        W35047  15.441  29.496   4.122
63432W        W35048  16.073   6.923   0.772
63433W        W35049  24.943  23.619   0.276
63434W        W35050  16.670  21.449   3.344
63435W        W35051  28.616  36.650  11.966
63436W        W35052  37.886   7.170   3.788
63437W        W35053  21.143  21.569  13.864
63438W        W35054  11.372  12.850   0.656
63439W        W35055  36.650  23.709   4.059
63440W        W35056  20.947  37.414  14.662
63441W        W35057  12.615  36.897   4.854
63442W        W35058   4.053  13.080  13.980
63443W        W35059  30.520  16.398  11.622
63444W        W35060  37.633   6.145   0.585
63445W        W35061  20.712  34.035  12.047
63446W        W35062  23.504  17.314   1.016
63447W        W35063  29.352  11.555  10.471
63448W        W35064  24.580  40.759   3.359
63449W        W35065  21.722  21.817  12.799
63450W        W35066   9.231   5.595  11.092
63451W        W35067  12.475  13.869   4.950
63452W        W35068  43.864  43.226  12.438
63453W        W35069   2.781  17.552   1.336
63454W        W35070  26.997  32.991   0.409
63455W        W35071  44.908  16.937  14.435
63456W        W35072  24.576  18.638  12.271
63457W        W35073  26.563   6.168   2.102
63458W        W35074  36.263  35.445   1.169
63459W        W35075  40.477   2.482   1.968
63460W        W35076  28.897   7.658   1.484
63461W        W35077   2.267  10.562  14.897
63462W        W35078   7.221  22.005  10.478
63463W        W35079   5.042  24.684  11.618
63464W        W35080  29.090  10.395   2.180
63465W        W35081  40.049  13.317   4.682
63466W        W35082  16.344  31.866   0.265
63467W        W35083  33.640  14.285  12.101
63468W        W35084  19.252  27.158  11.210
63469W        W35085  32.514   1.199   1.675
63470W        W35086   7.435   9.162  12.069
63471W        W35087  24.558  22.798  12.860
63472W        W35088   9.298  15.198   4.188
63473W        W35089  21.500  13.210  14.865
63474W        W35090  28.060  36.482  11.131
63475W        W35091  23.780  41.284  12.596
63476W        W35092  19.340  25.222   4.588
63477W        W35093  23.984  44.034   0.742
63478W        W35094  37.480  10.281   1.907
63479W        W35095  10.098  39.387   2.561
63480W        W35096  18.395  26.096   3.684
63481W        W35097  27.613  29.136  12.417
63482W        W35098  17.497  42.451  12.101
63483W        W35099  38.347  12.680   3.201
63484W        W35100  27.155  43.902  14.361
63485W        W35101  10.695  17.990  14.996
63486W        W35102  13.816  11.872  14.322
63487W        W35103  18.240  22.452   0.392
63488W        W35104  27.106  40.852   2.108
63489W        W35105  23.245   9.687  12.283
63490W        W35106  33.106  37.350  14.487
63491W        W35107  14.178  22.247  11.208
63492W        W35108   5.764  34.437  13.467
63493W        W35109   7.434  32.228  13.256
63494W        W35110  24.447   1.274  12.471
63495W        W35111  34.696  36.944  12.142
63496W        W35112  37.450   1.521  11.039
63497W        W35113  21.101  41.239   2.276
63498W        W35114  10.860  29.981   0.856
63499W        W35115   1.309   8.251  11.675
63500W        W35116  43.800  20.118   1.598
63501W        W35117  41.568  27.453   4.096
63502W        W35118   9.655  17.868   1.723
63503W        W35119  27.572  36.073  13.323
63504W        W35120  23.915  13.774   1.196
63505W        W35121  41.083  13.564  12.526
63506W        W35122  37.897  29.020   4.790
63507W        W35123   2.419   4.766  13.853
63508W        W35124  10.153  39.951   4.658
63509W        W35125  12.706   8.131  10.873
63510W        W35126  40.166  44.738  14.436
63511W        W35127   4.450  39.035  13.543
63512W        W35128  30.172   5.723   0.345
63513W        W35129  11.107  27.544   1.915
63514W        W35130  41.684  21.487   2.765
63515W        W35131   1.301  38.641  13.926
63516W        W35132   4.605  20.057   4.560
63517W        W35133  26.092  24.241   0.324
63518W        W35134  11.196  33.606   1.260
63519W        W35135  36.612  35.368   0.391
63520W        W35136  37.185  23.098  11.665
63521W        W35137  25.004   9.602   0.397
63522W        W35138  10.467  20.966   3.318
63523W        W35139   1.506  24.340  12.856
63524W        W35140  17.215  25.005   2.020
63525W        W35141   7.136   8.229   1.066
63526W        W35142   4.663  28.509  12.612
63527W        W35143  32.373   9.428  13.949
63528W        W35144  30.862  37.647  12.043
63529W        W35145  18.082  20.997   0.198
63530W        W35146  35.153   7.566  11.861
63531W        W35147   7.302   6.306   4.172
63532W        W35148  19.641  36.128  11.917
63533W        W35149  14.673  12.268   3.638
63534W        W35150  42.641  16.912   1.736
63535W        W35151  33.979  25.485   3.791
63536W        W35152  12.478  37.206   0.400
63537W        W35153   5.729   6.428   2.694
63538W        W35154  28.546  28.720   2.258
63539W        W35155  30.641  14.729  14.010
63540W        W35156   6.965  36.952  10.861
63541W        W35157  40.313  44.808   2.230
63542W        W35158  36.012   3.170  14.807
63543W        W35159  23.930  38.342  13.789
63544W        W35160  26.614  12.630   3.668
63545W        W35161  27.421  23.449   2.207
63546W        W35162  24.711  11.134  12.185
63547W        W35163  21.769  30.709  14.991
63548W        W35164   2.117  22.459  13.853
63549W        W35165  27.568  10.441  10.731
63550W        W35166  39.574  11.988  13.742
63551W        W35167  34.094  43.484   0.254
63552W        W35168  27.782   6.793  14.021
63553W        W35169  25.852   5.787   2.384
63554W        W35170  28.635  35.314  11.265
63555W        W35171  17.098  23.598  10.873
63556W        W35172   8.187  28.707   0.952
63557W        W35173  20.344  24.762  13.907
63558W        W35174  40.110   9.677  12.480
63559W        W35175  23.704  42.380  11.152
63560W        W35176  16.843  13.224   4.616
63561W        W35177  11.045  43.380   1.857
63562W        W35178   2.777   1.712  11.484
63563W        W35179   9.494  29.177   0.390
63564W        W35180   2.267  10.638  13.891
63565W        W35181  35.794  44.282  11.193
63566W        W35182  21.492  27.112   0.776
63567W        W35183   6.298  33.177  11.912
63568W        W35184  19.004  18.631  14.946
63569W        W35185   3.463   0.869   1.701
63570W        W35186  18.008  41.870   3.098
63571W        W35187  26.545   1.482  12.105
63572W        W35188  12.317  33.063   3.731
63573W        W35189   6.425  16.624   1.468
63574W        W35190  40.281  42.013  13.291
63575W        W35191  21.174  38.293  10.408
63576W        W35192  20.117   9.157   4.803
63577W        W35193   1.259  38.757  11.016
63578W        W35194   9.689   7.239  10.699
63579W        W35195  23.730   7.795  13.668
63580W        W35196   6.857  12.825   2.040
63581W        W35197  32.624  18.897   2.403
63582W        W35198  18.994  25.575   0.548
63583W        W35199  14.564   2.031   0.960
63584W        W35200   1.030  18.631  11.173
63585W        W35201   3.331  20.028   3.949
63586W        W35202  28.622   0.562  12.007
63587W        W35203  28.020  40.216  11.660
63588W        W35204   0.889  36.674   4.929
63589W        W35205   6.721  36.454   3.243
63590W        W35206  38.888  42.738   1.799
63591W        W35207   5.918  43.260  13.805
63592W        W35208  11.670  15.044   3.811
63593W        W35209  40.793  13.967   2.796
63594W        W35210  37.837  17.794   3.245
63595W        W35211  35.614  14.091   0.762
63596W        W35212  18.959   9.853   3.635
63597W        W35213  32.056  29.890   4.569
63598W        W35214  22.981  41.874  13.520
63599W        W35215  23.411  23.674  13.449
63600W        W35216  42.314  28.983  12.894
63601W        W35217  30.956  40.981  13.878
63602W        W35218   7.444  42.442  10.694
63603W        W35219   2.836  24.602   4.178
63604W        W35220  24.421  27.650  11.563
63605W        W35221  18.146  34.649  14.980
63606W        W35222  26.911  27.669   2.948
63607W        W35223  29.191   5.573  11.559
63608W        W35224  42.370  41.928   1.260
63609W        W35225  43.025   9.678  12.890
63610W        W35226  23.128   7.200   2.259
63611W        W35227  19.803  31.623   4.978
63612W        W35228  31.606   3.183   4.692
63613W        W35229   9.544  39.295   4.478
63614W        W35230  34.463  17.841  11.357
63615W        W35231  18.289  18.272  11.604
63616W        W35232  23.693  37.831   3.303
63617W        W35233  27.399  14.957  14.491
63618W        W35234  16.839  38.148   0.888
63619W        W35235  32.015  18.544   4.585
63620W        W35236  30.831  39.620   2.311
63621W        W35237   4.764  35.847   1.702
63622W        W35238  30.267  19.192   3.771
63623W        W35239   9.630   3.663   4.267
63624W        W35240  20.275  31.402   3.691
63625W        W35241  14.399  27.380   0.307
63626W        W35242   0.697  37.837   9.984
63627W        W35243  29.925  20.922  14.049
63628W        W35244  41.900  12.940  13.496
63629W        W35245   9.162  35.492  11.031
63630W        W35246  40.465  11.156  10.934
63631W        W35247  33.326  11.773   4.594
63632W        W35248  32.172  18.274  14.390
63633W        W35249   5.171  16.199   1.343
63634W        W35250  16.695  37.042  14.172
63635W        W35251  23.572  26.049  10.685
63636W        W35252   8.801  33.155   3.386
63637W        W35253   0.842  14.573  12.579
63638W        W35254   0.392  30.176   0.887
63639W        W35255  11.577  13.363   3.698
63640W        W35256  32.870   9.609  13.869
63641W        W35257  10.367  18.758  11.646
63642W        W35258  12.220   8.485   4.471
63643W        W35259  16.865  34.959  12.550
63644W        W35260  27.494  34.123   2.795
63645W        W35261  33.897  11.693   2.345
63646W        W35262  17.444   5.877  10.554
63647W        W35263   4.838  38.726   2.404
63648W        W35264  29.015  20.558  11.700
63649W        W35265  13.760  34.472  12.028
63650W        W35266  13.818   2.258  10.623
63651W        W35267   1.805  10.360  14.793
63652W        W35268  34.930  21.958  13.400
63653W        W35269   4.874  28.501   0.892
63654W        W35270   7.198  13.728  14.652
63655W        W35271  19.792  24.300   4.632
63656W        W35272  39.948  13.052   3.614
63657W        W35273  28.089   2.252  10.694
63658W        W35274  20.713  19.478  11.494
63659W        W35275  39.243  42.770  11.986
63660W        W35276  25.424  12.933  12.789
63661W        W35277  17.448  35.036   3.651
63662W        W35278  24.451   9.772  10.690
63663W        W35279  44.193  40.313   2.901
63664W        W35280  11.335  33.905   3.118
63665W        W35281  44.350  33.806  10.580
63666W        W35282  23.718  24.157   3.849
63667W        W35283  10.138  21.475   0.453
63668W        W35284  24.985   0.555  14.484
63669W        W35285  20.492  33.175   0.413
63670W        W35286   9.275  20.259  10.586
63671W        W35287  36.068   4.315   3.630
63672W        W35288  22.043  15.576   1.142
63673W        W35289  31.050  35.313  11.260
63674W        W35290  25.174  22.357   1.395
63675W        W35291  13.217  31.174   0.840
63676W        W35292   5.289  21.964  14.532
63677W        W35293   4.873  36.112   3.134
63678W        W35294  10.426  16.169  13.455
63679W        W35295  36.891  17.385   2.491
63680W        W35296  43.923  11.147  11.942
63681W        W35297  17.663  34.760  12.962
63682W        W35298  31.898   7.651  12.937
63683W        W35299  18.223   9.810  12.819
63684W        W35300  25.418  32.647  14.904
63685W        W35301   8.654  12.803   2.827
63686W        W35302  38.407  29.667   1.172
63687W        W35303  32.888   5.735   1.677
63688W        W35304  40.970  16.271   3.167
63689W        W35305  39.953  21.469  11.057
63690W        W35306  34.443  43.788   4.593
63691W        W35307  16.031  32.014  12.486
63692W        W35308  38.279   0.414  11.948
63693W        W35309  42.859   9.933  12.469
63694W        W35310  27.213  33.010   4.201
63695W        W35311   0.385  22.038   3.381
63696W        W35312  20.856  13.569  11.314
63697W        W35313  31.556   5.606   1.896
63698W        W35314   7.019  21.676  12.045
63699W        W35315   9.739   9.425   3.264
63700W        W35316  17.844  34.446   1.445
63701W        W35317  14.329   4.319  12.864
63702W        W35318  37.515  34.421   3.734
63703W        W35319  30.231  14.909  12.445
63704W        W35320  37.241  22.570   4.506
63705W        W35321  24.112   0.936   5.069
63706W        W35322  23.305   6.720   2.105
63707W        W35323  17.776  20.321  14.598
63708W        W35324   6.787   3.980   2.832
63709W        W35325  30.617  33.643   2.473
63710W        W35326   2.308  33.094  11.467
63711W        W35327   7.960  15.542   4.055
63712W        W35328  21.448  24.243   0.146
63713W        W35329  41.441   4.160   3.160
63714W        W35330  21.880  31.047   0.422
63715W        W35331  23.346  39.369  13.385
63716W        W35332  13.048   1.882   0.442
63717W        W35333  29.414   1.816   1.980
63718W        W35334  34.676  40.915  10.963
63719W        W35335  30.198  23.786   4.063
63720W        W35336  35.074   5.793   0.205
63721W        W35337  19.109  37.381  12.059
63722W        W35338  34.046  34.044  12.671
63723W        W35339  26.276  28.180   0.238
63724W        W35340  36.047  41.618   4.931
63725W        W35341  24.500  32.001   4.400
63726W        W35342  21.178  11.228  14.535
63727W        W35343  24.561   0.239  14.425
63728W        W35344  35.100  26.474   0.426
63729W        W35345   6.264  20.496  14.591
63730W        W35346   8.893  13.333  14.606
63731W        W35347   5.206  34.075   0.500
63732W        W35348  14.866  23.109   3.755
63733W        W35349  19.314   0.440  14.361
63734W        W35350  42.334  30.518  12.945
63735W        W35351  34.908   3.849  14.408
63736W        W35352  28.924  28.080  13.059
63737W        W35353  14.692  25.419  11.200
63738W        W35354  24.695   8.870   1.071
63739W        W35355   7.205  42.682   4.575
63740W        W35356  30.099  15.187   3.175
63741W        W35357  36.299   1.787  14.929
63742W        W35358  40.428  34.993   4.214
63743W        W35359  12.946  28.060   0.772
63744W        W35360   1.287  27.176   4.854
63745W        W35361   9.961  18.698   1.272
63746W        W35362   2.993  15.715   4.686
63747W        W35363  32.492  15.273   4.463
63748W        W35364  17.686  33.079   4.588
63749W        W35365   8.554   1.396  10.541
63750W        W35366  20.728  12.694  11.540
63751W        W35367   5.451  26.000   2.671
63752W        W35368  31.037  21.072  12.612
63753W        W35369  41.081   8.920   2.232
63754W        W35370  14.008  40.423   4.154
63755W        W35371  30.891   3.844  12.678
63756W        W35372   9.198   0.267   0.222
63757W        W35373  10.341   3.600   5.118
63758W        W35374  41.315  36.584  13.450
63759W        W35375  35.599  12.356   3.738
63760W        W35376  14.110  12.563   1.023
63761W        W35377  17.341  39.209   2.546
63762W        W35378   4.917   5.179   4.610
63763W        W35379  28.132  18.233  12.161
63764W        W35380  35.149  24.232  13.154
63765W        W35381   5.960  44.484  13.568
63766W        W35382   6.249  39.705  12.607
63767W        W35383  36.817  15.655   3.095
63768W        W35384  10.588  33.974   2.289
63769W        W35385  16.630  43.223   3.591
63770W        W35386  41.284  21.318   0.692
63771W        W35387  43.367  12.025   2.449
63772W        W35388  19.707  16.166  12.700
63773W        W35389  26.651  14.930  13.355
63774W        W35390  24.533  23.745   3.050
63775W        W35391   8.661  14.209   3.113
63776W        W35392  39.794  28.588  12.419
63777W        W35393  40.415   6.920   0.893
63778W        W35394  14.781  11.862  13.974
63779W        W35395  10.750   8.097  14.459
63780W        W35396   3.731  14.317   0.420
63781W        W35397  30.018  37.975   1.373
63782W        W35398  34.802  41.681   0.941
63783W        W35399   4.764  29.634  14.021
63784W        W35400   7.759   1.170  13.065
63785W        W35401  32.684  15.143  11.827
63786W        W35402  33.070   4.571   1.723
63787W        W35403  23.692  23.685   3.609
63788W        W35404   4.689   1.933  10.652
63789W        W35405  39.829  12.258  12.840
63790W        W35406  16.086  39.474  11.990
63791W        W35407  23.956  27.576   3.699
63792W        W35408  32.327   4.870   1.877
63793W        W35409  40.033  44.275   4.232
63794W        W35410   2.491  44.741   0.731
63795W        W35411  11.001  44.464  14.419
63796W        W35412  22.309  38.975  13.518
63797W        W35413  33.935  31.870  11.981
63798W        W35414  30.527  16.720  10.440
63799W        W35415  40.783  17.066   0.835
63800W        W35416  12.119   5.507  11.382
63801W        W35417   3.402  37.634  12.426
63802W        W35418  43.874  35.989  11.180
63803W        W35419  14.864   3.697  11.985
63804W        W35420  21.989   3.399   4.634
63805W        W35421  24.713  29.615   2.937
63806W        W35422   2.534  13.810   1.721
63807W        W35423  16.285  13.764   4.586
63808W        W35424  31.581  38.008  11.016
63809W        W35425  23.705  10.468  12.053
63810W        W35426   5.836   0.484  12.197
63811W        W35427  18.724  17.071  14.621
63812W        W35428   2.416  24.420  13.331
63813W        W35429  41.516  28.080   4.817
63814W        W35430   6.903  38.573  13.982
63815W        W35431  29.535  19.675  12.878
63816W        W35432  23.071  33.480   3.370
63817W        W35433  11.002   0.219  11.837
63818W        W35434  14.014  11.644   2.265
63819W        W35435  29.771   0.857  10.094
63820W        W35436   4.748  34.335   0.734
63821W        W35437   2.142  21.575   9.871
63822W        W35438  41.735  35.019  12.666
63823W        W35439   9.153  23.563   3.572
63824W        W35440  28.749  38.688   0.323
63825W        W35441   7.843  38.995   0.435
63826W        W35442  32.956  40.369  14.390
63827W        W35443  21.229  35.591   4.268
63828W        W35444  25.625   3.061  12.182
63829W        W35445  24.844   7.578   2.752
63830W        W35446  36.763  43.493   4.212
63831W        W35447   1.446  30.063  13.955
63832W        W35448  11.232  31.692  13.558
63833W        W35449  19.624  44.795   3.822
63834W        W35450  42.779   2.794  10.848
63835W        W35451  10.710  24.569   4.761
63836W        W35452  38.619  20.803   2.725
63837W        W35453  33.975  11.905  13.423
63838W        W35454   3.987   3.766  13.135
63839W        W35455  14.078   2.829  13.450
63840W        W35456   7.175  18.267   3.181
63841W        W35457   7.429  25.572   3.531
63842W        W35458  23.996  18.757   0.879
63843W        W35459  34.428  11.750   2.325
63844W        W35460   3.010  23.054   1.951
63845W        W35461  16.381   6.294   2.817
63846W        W35462  44.266   1.351   1.341
63847W        W35463  36.269   0.629  10.284
63848W        W35464   7.593  31.695   0.731
63849W        W35465  18.590  40.374  14.969
63850W        W35466  21.911   3.484  10.276
63851W        W35467  17.030  37.255  12.886
63852W        W35468  38.339  35.067   3.225
63853W        W35469  44.693  26.767  13.735
63854W        W35470  42.372  27.157   4.773
63855W        W35471  22.283  14.398  11.024
63856W        W35472   7.838  22.841  13.334
63857W        W35473  33.569  16.549   0.809
63858W        W35474   7.422  23.712  12.478
63859W        W35475  35.963  17.831   4.647
63860W        W35476   0.832  10.186   2.147
63861W        W35477  32.921  27.853   2.206
63862W        W35478  11.834   8.821   0.361
63863W        W35479  21.783  32.900   3.183
63864W        W35480  26.414  19.774  14.484
63865W        W35481  31.031   2.145  13.057
63866W        W35482  32.937  10.133  13.925
63867W        W35483  20.986  18.725  11.219
63868W        W35484  27.459  43.272   2.614
63869W        W35485  35.409  18.295   2.308
63870W        W35486   4.901  41.446  13.910
63871W        W35487  24.595  38.382   3.605
63872W        W35488  40.599  39.578   0.493
63873W        W35489  37.058  37.340   4.784
63874W        W35490  39.833  28.639  14.983
63875W        W35491  16.521  32.350   2.931
63876W        W35492  34.351  25.375   2.319
63877W        W35493  44.361  21.207  14.423
63878W        W35494  10.570  33.086   3.225
63879W        W35495  36.445  23.930   1.894
63880W        W35496  15.627   0.209  12.930
63881W        W35497   6.227  30.573  14.703
63882W        W35498  43.933  10.760  11.557
63883W        W35499   0.288   3.018   1.482
63884W        W35500  44.737  21.486  14.649
63885W        W35501  10.338  43.450   0.975
63886W        W35502  25.611  16.748  12.683
63887W        W35503   2.809  31.061  12.980
63888W        W35504   6.795  11.767   4.511
63889W        W35505  19.607  34.865  11.076
63890W        W35506   0.718  24.318   3.364
63891W        W35507   6.657  24.463  14.031
63892W        W35508  36.668  40.307  14.036
63893W        W35509  35.590  15.337   0.232
63894W        W35510  12.913  31.139   4.687
63895W        W35511  15.863  36.430   4.292
63896W        W35512  20.159   8.284  13.272
63897W        W35513   1.262   5.685   4.871
63898W        W35514  12.070  14.285  11.181
63899W        W35515  20.725   0.903   0.371
63900W        W35516   5.547   3.353  10.758
63901W        W35517   2.715  25.032   0.347
63902W        W35518  14.115  44.367   2.777
63903W        W35519  36.917  40.891  11.833
63904W        W35520  26.944   5.562  10.640
63905W        W35521  16.656  19.659   4.802
63906W        W35522   6.504   4.853   2.357
63907W        W35523  31.478   5.872   1.451
63908W        W35524  13.235  17.489  11.894
63909W        W35525  26.635  29.029   4.118
63910W        W35526  16.982  22.143  11.179
63911W        W35527  22.144  21.546   0.263
63912W        W35528  13.789  34.911   4.602
63913W        W35529  11.546  27.038  14.312
63914W        W35530   3.434  14.269  12.415
63915W        W35531   7.182  11.633   2.949
63916W        W35532  26.839   3.506   0.459
63917W        W35533  28.317   0.214  13.273
63918W        W35534  36.816  38.967  13.277
63919W        W35535  38.529   1.939  12.712
63920W        W35536  13.108  14.182  14.859
63921W        W35537  12.463  34.623   0.953
63922W        W35538  20.251  44.353   1.314
63923W        W35539  34.790  44.194  11.158
63924W        W35540  26.904  16.288   3.271
63925W        W35541  28.713  14.763  11.112
63926W        W35542   4.262  13.581  11.474
63927W        W35543  33.413   8.357   3.210
63928W        W35544  13.705  38.001  10.660
63929W        W35545   2.469  42.998   4.227
63930W        W35546  34.242   2.971   0.419
63931W        W35547  21.154  36.056  12.807
63932W        W35548  26.974  22.652  14.390
63933W        W35549  24.720  12.860   0.457
63934W        W35550  37.542  14.170   2.971
63935W        W35551   7.321  41.534   1.639
63936W        W35552  13.748  43.802  13.957
63937W        W35553   3.727  34.760  14.008
63938W        W35554  40.342  40.329   4.139
63939W        W35555   3.336  36.033   0.821
63940W        W35556  34.816   1.122   0.884
63941W        W35557  17.041   0.577   2.443
63942W        W35558  25.675  10.092  12.796
63943W        W35559  39.168   4.113  12.414
63944W        W35560   2.248  28.947  14.261
63945W        W35561  26.396  18.497  14.998
63946W        W35562  19.750  35.009   0.176
63947W        W35563  38.617  28.601  10.540
63948W        W35564  19.029   2.805   4.772
63949W        W35565  15.551  44.305   4.231
63950W        W35566  39.579   4.979   1.080
63951W        W35567  15.202  33.031  13.184
63952W        W35568   2.902  24.497  13.499
63953W        W35569  27.188  37.281   2.443
63954W        W35570  12.312  24.301   4.099
63955W        W35571  22.080  35.797   1.804
63956W        W35572  39.412   9.604  12.986
63957W        W35573  37.446  17.584  10.484
63958W        W35574  36.498  40.389   1.941
63959W        W35575   9.674  42.585   4.207
63960W        W35576   6.136  13.556  12.388
63961W        W35577  32.833  13.724   3.477
63962W        W35578  12.534   0.862  13.584
63963W        W35579  29.469  25.688   1.169
63964W        W35580  13.556  18.469   1.662
63965W        W35581  13.781   4.894   1.688
63966W        W35582   9.172  30.043  12.069
63967W        W35583  11.868  17.717   1.365
63968W        W35584  17.067  39.430  11.996
63969W        W35585   0.849  20.107   4.744
63970W        W35586  20.081  16.606   4.342
63971W        W35587   8.886  44.802  10.672
63972W        W35588  42.437  24.164   4.595
63973W        W35589  12.080   4.972   2.261
63974W        W35590   0.877   7.784   2.804
63975W        W35591  32.290  18.826   1.409
63976W        W35592  30.880  29.224   3.296
63977W        W35593  24.782   4.032   1.123
63978W        W35594   3.006  10.728   2.690
63979W        W35595  12.930  26.170  13.574
63980W        W35596  36.943  27.441  13.900
63981W        W35597  28.057  41.946  14.593
63982W        W35598  23.032  40.120   1.297
63983W        W35599  32.362  35.058  11.422
63984W        W35600  22.076  21.632  14.350
63985W        W35601  15.003  40.079  14.490
63986W        W35602  35.394  15.796   0.371
63987W        W35603  36.964  37.532  14.404
63988W        W35604  14.164  21.148   0.768
63989W        W35605  36.068  34.098  10.741
63990W        W35606  43.982  25.446   2.749
63991W        W35607  37.566  14.736  12.208
63992W        W35608  44.502   1.607   0.819
63993W        W35609  43.611   0.839   4.796
63994W        W35610   9.478  20.516  14.789
63995W        W35611   3.732  41.885  12.629
63996W        W35612  16.500  34.715  13.808
63997W        W35613   3.228  34.521   3.317
63998W        W35614   2.417   7.870   0.484
63999W        W35615  19.684  40.998  10.727
64000W        W35616  14.729  37.876  14.029
64001W        W35617  44.294  26.596  13.997
64002W        W35618  27.647  33.560   2.737
64003W        W35619  16.955  26.581  13.375
64004W        W35620  39.999  15.992   3.632
64005W        W35621  21.709   3.253  14.476
64006W        W35622  25.736  26.714   1.357
64007W        W35623  39.842  24.743   3.084
64008W        W35624  25.681  33.458  11.483
64009W        W35625  22.983  35.040  11.544
64010W        W35626   1.927   1.769  12.460
64011W        W35627   4.188  31.907   0.427
64012W        W35628  13.370   4.927   4.585
64013W        W35629  18.784   3.701  12.786
64014W        W35630   0.087  21.330   1.666
64015W        W35631  29.437  18.105  11.661
64016W        W35632   3.579   6.825  14.010
64017W        W35633  16.353  42.429   3.802
64018W        W35634  39.813  39.685   1.888
64019W        W35635  40.597  23.606   0.356
64020W        W35636  20.214  15.208  14.048
64021W        W35637  24.587  35.089  10.647
64022W        W35638  23.115   7.764  14.977
64023W        W35639   6.778  31.558  10.760
64024W        W35640  29.165  39.417  14.181
64025W        W35641  11.145  35.475   0.345
64026W        W35642  35.830  18.873  12.846
64027W        W35643  35.989  27.962  13.884
64028W        W35644  19.056   7.955   4.643
64029W        W35645  35.043  19.237   4.924
64030W        W35646  23.761  22.561  14.905
64031W        W35647  44.995  36.363  11.951
64032W        W35648  16.538  22.606  12.337
64033W        W35649  43.355  31.842   2.575
64034W        W35650  11.481   0.511  10.660
64035W        W35651  31.559  30.150   3.147
64036W        W35652  23.436  37.733  11.999
64037W        W35653  27.675  24.723  11.999
64038W        W35654   3.370  37.906  13.748
64039W        W35655  41.767   2.950   3.011
64040W        W35656  36.930  20.863  12.593
64041W        W35657  32.077  17.896  14.755
64042W        W35658  21.596  27.934   3.169
64043W        W35659  16.119  14.330   1.829
64044W        W35660  27.086  19.051   1.729
64045W        W35661  28.943  36.874   1.167
64046W        W35662  19.065   6.310   2.240
64047W        W35663  35.938  31.945   0.471
64048W        W35664  37.309  12.748   2.804
64049W        W35665  36.413  30.940  12.641
64050W        W35666  42.821  15.853  14.816
64051W        W35667  26.031  29.985  13.413
64052W        W35668  40.004  32.585   0.023
64053W        W35669  30.461   9.956  14.476
64054W        W35670  11.711  22.760   1.503
64055W        W35671   8.639  20.538  12.573
64056W        W35672  20.276  10.796   4.096
64057W        W35673  37.290  28.596  12.868
64058W        W35674  35.996   9.986   5.087
64059W        W35675  20.123  12.474  15.000
64060W        W35676  41.001  12.663   3.220
64061W        W35677  42.828  23.646  11.578
64062W        W35678  42.598  26.411   2.240
64063W        W35679  39.486  24.148  14.248
64064W        W35680  12.169  31.047   2.318
64065W        W35681  12.232  32.622  11.168
64066W        W35682  23.752  30.091   4.079
64067W        W35683   1.118  32.156   1.991
64068W        W35684  20.734  20.799   4.796
64069W        W35685   3.831   3.053   2.251
64070W        W35686  10.367  37.876  10.616
64071W        W35687  29.727  14.193   2.925
64072W        W35688  40.970  37.403  14.404
64073W        W35689  18.251  27.720  13.786
64074W        W35690  12.258  23.323  11.777
64075W        W35691   1.599  29.201  10.566
64076W        W35692  19.809  37.053  12.011
64077W        W35693  28.069  35.391   1.838
64078W        W35694   8.217  18.786  13.957
64079W        W35695  24.510  29.569   3.859
64080W        W35696   2.238  32.901   4.571
64081W        W35697  29.042   5.731   3.045
64082W        W35698  41.090  28.020  12.011
64083W        W35699   9.331   1.407  12.954
64084W        W35700  22.940  14.170   2.166
64085W        W35701  23.644   8.411   3.760
64086W        W35702  34.249  23.068   1.822
64087W        W35703   7.803   1.939  14.705
64088W        W35704  27.444  18.784   4.440
64089W        W35705  32.138  44.673  10.486
64090W        W35706  31.937   5.845  14.298
64091W        W35707  44.493  17.280  13.954
64092W        W35708  30.989  17.982  12.320
64093W        W35709  42.017  42.370   4.407
64094W        W35710  11.678  12.732  10.773
64095W        W35711  11.220   9.347  10.652
64096W        W35712   2.885  33.744  14.337
64097W        W35713  42.829  30.014   3.121
64098W        W35714  15.201  35.939  13.800
64099W        W35715  41.611  22.945  11.565
64100W        W35716   1.162  21.619  12.142
64101W        W35717   9.880  21.977   2.190
64102W        W35718  11.262  11.280  10.813
64103W        W35719  16.667  10.285   4.654
64104W        W35720  27.895  42.478  11.073
64105W        W35721  24.620  20.104   2.326
64106W        W35722   7.361  20.621   0.764
64107W        W35723  44.634  37.344   4.509
64108W        W35724  32.476   8.774   5.226
64109W        W35725  20.082   1.388   1.399
64110W        W35726   4.299  37.570  11.526
64111W        W35727  17.525  19.127   3.972
64112W        W35728  20.968  28.944  13.470
64113W        W35729  28.983   9.536   1.624
64114W        W35730  40.296   1.031  10.637
64115W        W35731  18.275   4.657  10.795
64116W        W35732  35.942  44.953  11.586
64117W        W35733  31.051  14.530   2.855
64118W        W35734  44.100  43.921   0.283
64119W        W35735  42.987  21.070  14.411
64120W        W35736   9.159  17.104  14.065
64121W        W35737  42.300  41.222  10.345
64122W        W35738  12.758  29.118   3.156
64123W        W35739   8.469  28.326   0.452
64124W        W35740   8.093   0.400  10.652
64125W        W35741  21.189  10.064   4.704
64126W        W35742  24.729  24.517   0.426
64127W        W35743  24.195  11.941  10.359
64128W        W35744  34.650  19.274   3.620
64129W        W35745   9.257  22.806  10.696
64130W        W35746  30.178  35.387  14.640
64131W        W35747  30.001  17.364   2.918
64132W        W35748  14.319   6.732   0.460
64133W        W35749  11.159  11.801  10.699
64134W        W35750   4.653  37.534   3.011
64135W        W35751  24.520  27.146  14.378
64136W        W35752   7.918  10.576  11.142
64137W        W35753   0.198  30.952  10.634
64138W        W35754  27.098  25.065   1.148
64139W        W35755  25.223  31.023  13.912
64140W        W35756  29.499  29.193   4.575
64141W        W35757  15.066   6.233   0.389
64142W        W35758  21.736  13.657  13.505
64143W        W35759  14.623   8.195  13.026
64144W        W35760  33.353  21.520  12.938
64145W        W35761  24.712  21.069   4.608
64146W        W35762  41.399  20.518  12.034
64147W        W35763   0.764  15.873  10.593
64148W        W35764   4.911  36.111  10.568
64149W        W35765  28.089  11.808   2.222
64150W        W35766  20.638  33.809   1.292
64151W        W35767  29.258  35.361   0.583
64152W        W35768  14.750   1.802   3.905
64153W        W35769  44.549  20.255   2.415
64154W        W35770   8.276  22.521   4.490
64155W        W35771  10.112  28.964  14.041
64156W        W35772  38.473   8.182   0.268
64157W        W35773   7.720  27.655   4.275
64158W        W35774  21.990  18.901   1.809
64159W        W35775  32.132  31.867  13.310
64160W        W35776  16.695   9.122   2.787
64161W        W35777  44.379  30.443  14.319
64162W        W35778   6.129  15.751  11.525
64163W        W35779  34.393  26.170  13.914
64164W        W35780  33.548   2.840   2.442
64165W        W35781   8.415  44.956   1.369
64166W        W35782   4.175  24.029   0.216
64167W        W35783  22.754  39.268  11.142
64168W        W35784  37.377  15.547   0.823
64169W        W35785  35.884   8.412   2.543
64170W        W35786   4.396  13.668   0.272
64171W        W35787  26.616  36.873  14.937
64172W        W35788   2.307   5.597   3.784
64173W        W35789  30.240   7.755   1.275
64174W        W35790   1.547  30.997  14.421
64175W        W35791  38.481  42.577  13.606
64176W        W35792  40.929  28.689  14.884
64177W        W35793  39.421  13.710   4.976
64178W        W35794   0.687  37.380  10.218
64179W        W35795  34.366  34.392  14.946
64180W        W35796  23.190   0.546   4.485
64181W        W35797  31.871  19.152   0.347
64182W        W35798   1.269  39.996  11.409
64183W        W35799  30.596  15.325  10.970
64184W        W35800   3.513  40.736   1.352
64185W        W35801  25.907   1.902  12.096
64186W        W35802  27.212   2.950   4.213
64187W        W35803  11.242   8.188  10.576
64188W        W35804  42.433  44.415  13.976
64189W        W35805  36.573  40.023  11.502
64190W        W35806  36.983  10.651   4.610
64191W        W35807  18.959  40.001  13.867
64192W        W35808   3.199  41.016  10.403
64193W        W35809  15.994  30.339   0.443
64194W        W35810   2.541  11.291  12.619
64195W        W35811   1.490  33.531   3.887
64196W        W35812  35.565  35.310  11.590
64197W        W35813  22.342  25.877   2.630
64198W        W35814  17.402  19.969  12.531
64199W        W35815   5.051  13.752  14.416
64200W        W35816   3.086  30.542   3.259
64201W        W35817  17.169  17.900   0.356
64202W        W35818  26.104  29.929  12.569
64203W        W35819  31.452  32.011  14.070
64204W        W35820  23.490   1.519  10.637
64205W        W35821   6.939  15.042   1.811
64206W        W35822   7.636  25.934  12.013
64207W        W35823   0.220   8.358   3.211
64208W        W35824  31.140  27.363  12.939
64209W        W35825  34.298  32.615  11.699
64210W        W35826  43.262   3.449  11.261
64211W        W35827   2.452  22.325  14.306
64212W        W35828  35.910  32.842  11.904
64213W        W35829  36.121  31.445  13.269
64214W        W35830  38.948  16.311  13.329
64215W        W35831  38.977  10.595   2.178
64216W        W35832  24.297  42.876  12.107
64217W        W35833  44.692  39.481  12.034
64218W        W35834  11.094  26.085   0.787
64219W        W35835  44.799  24.254  12.272
64220W        W35836  43.674   1.966  13.775
64221W        W35837   6.316   9.340  13.408
64222W        W35838  31.603  20.131  14.846
64223W        W35839  40.793  30.451  11.325
64224W        W35840  38.709  17.781  13.019
64225W        W35841  34.889  28.894   1.843
64226W        W35842   8.277  41.626   1.730
64227W        W35843  42.762  36.634  10.443
64228W        W35844  12.331  13.749   1.362
64229W        W35845   9.131   7.386  14.801
64230W        W35846   0.917  44.286   4.246
64231W        W35847  16.159  16.231  13.003
64232W        W35848  38.604  21.518  11.122
64233W        W35849  16.222   1.000   2.811
64234W        W35850  37.642  41.544  12.118
64235W        W35851  35.925  25.702   3.604
64236W        W35852  40.094  21.793   0.841
64237W        W35853  32.313  11.936  14.779
64238W        W35854  37.446   7.959   4.562
64239W        W35855  42.878  33.799  11.094
64240W        W35856   4.270  33.626   3.198
64241W        W35857  43.982  27.114   1.656
64242W        W35858   3.166  34.848   4.186
64243W        W35859   3.244  11.144   2.886
64244W        W35860  25.028  31.542  10.849
64245W        W35861  28.066  21.995   3.351
64246W        W35862  28.236  13.497   4.644
64247W        W35863   4.415  25.117   0.255
64248W        W35864   3.491  25.200   2.569
64249W        W35865  10.108  14.265   0.824
64250W        W35866  22.742   1.895  12.512
64251W        W35867  23.188  42.661  14.703
64252W        W35868   9.238  40.112   1.675
64253W        W35869  35.333  19.251   1.185
64254W        W35870  15.006  37.601  12.400
64255W        W35871  33.606   1.242   4.729
64256W        W35872  17.066  25.916  11.904
64257W        W35873  43.944  35.760   0.771
64258W        W35874  12.246  17.152   2.017
64259W        W35875  21.602  29.045  12.780
64260W        W35876  26.848  26.325   4.234
64261W        W35877  14.073  41.077  12.454
64262W        W35878  35.944   4.413   2.187
64263W        W35879  12.124   2.878  14.288
64264W        W35880  14.236   5.392  13.331
64265W        W35881  14.774   5.084  11.975
64266W        W35882  44.702  34.863   3.218
64267W        W35883  17.772  32.023  14.296
64268W        W35884  41.284   1.872   0.838
64269W        W35885  27.402  38.763  11.165
64270W        W35886  29.421  26.609  12.111
64271W        W35887  20.070   5.689   1.682
64272W        W35888   5.977  27.589  13.952
64273W        W35889  34.828  35.655  14.223
64274W        W35890  36.006  11.148   2.006
64275W        W35891  15.115  36.795   1.684
64276W        W35892  38.494  31.001  11.639
64277W        W35893   3.375  43.513  12.631
64278W        W35894  24.557  22.946   4.319
64279W        W35895  17.878  34.291  12.983
64280W        W35896   9.639  30.316   4.993
64281W        W35897  35.098  21.851  11.819
64282W        W35898  41.433  10.483  12.795
64283W        W35899  30.675  28.499   1.084
64284W        W35900  29.471  31.692   4.427
64285W        W35901   3.248  40.217   4.607
64286W        W35902  23.973  32.542  13.523
64287W        W35903  40.835   3.215  11.492
64288W        W35904  35.456  22.997  13.195
64289W        W35905   7.972  39.908  11.008
64290W        W35906   5.584  41.215  11.098
64291W        W35907  18.630  32.420  10.277
64292W        W35908  19.789  25.606  10.695
64293W        W35909  26.582   5.782  12.014
64294W        W35910   1.717  44.105  11.177
64295W        W35911  42.801  10.438  12.490
64296W        W35912   4.961   8.604  14.014
64297W        W35913   5.956  34.096   4.186
64298W        W35914   4.633  21.166   0.551
64299W        W35915  24.517  28.626  12.906
64300W        W35916   4.267  36.034  14.989
64301W        W35917  13.286   2.531  10.634
64302W        W35918  40.215   8.754  10.114
64303W        W35919  36.950  25.022  13.628
64304W        W35920  28.357  10.587  13.038
64305W        W35921  24.940  10.120   3.578
64306W        W35922  40.651  32.126   4.096
64307W        W35923   8.239  13.540   0.959
64308W        W35924  36.388   0.482  11.112
64309W        W35925   9.188  27.229   1.347
64310W        W35926   4.513  23.107  13.935
64311W        W35927  21.505  43.840  13.517
64312W        W35928  37.377  34.198   4.203
64313W        W35929  36.111  14.110   3.136
64314W        W35930  43.714  23.494  12.489
64315W        W35931  11.207  39.389  13.963
64316W        W35932  11.836   9.018   2.797
64317W        W35933  37.986  23.709   3.246
64318W        W35934  13.112   1.899  14.073
64319W        W35935  36.178   1.111  13.444
64320W        W35936   1.841  31.569   4.361
64321W        W35937  43.441  26.126   1.880
64322W        W35938  37.374  18.654   2.810
64323W        W35939  28.640  44.805  13.163
64324W        W35940  21.324  28.187  14.281
64325W        W35941  28.900  19.557  14.565
64326W        W35942  27.156   8.010  14.643
64327W        W35943  40.748  28.550  11.222
64328W        W35944  35.010  16.309  13.428
64329W        W35945  32.943   1.720   2.343
64330W        W35946   0.505  35.110  10.982
64331W        W35947   4.760  35.820  14.845
64332W        W35948  28.826  15.246  10.523
64333W        W35949  27.050  42.268  12.471
64334W        W35950  31.962  36.890   1.809
64335W        W35951  16.348  12.458  12.821
64336W        W35952  39.035  44.753  13.370
64337W        W35953  41.584  38.905   2.302
64338W        W35954  18.308  19.513  14.360
64339W        W35955  43.984  29.447   2.635
64340W        W35956  21.306   0.852   2.254
64341W        W35957   4.850  33.622   4.778
64342W        W35958  40.010  28.528   0.469
64343W        W35959   0.607  14.885  12.930
64344W        W35960  14.731  40.551  12.896
64345W        W35961  17.638  13.820  12.879
64346W        W35962  29.921   1.686   2.831
64347W        W35963   6.160  24.243  13.925
64348W        W35964   4.444  21.091  10.127
64349W        W35965  18.034  18.573   3.235
64350W        W35966  18.554  15.300   4.117
64351W        W35967  36.902   4.383   2.423
64352W        W35968  37.763  19.510   3.761
64353W        W35969   4.711  33.066  10.432
64354W        W35970  33.868  24.254   0.792
64355W        W35971  10.665  40.776  13.789
64356W        W35972  25.921  19.875  11.643
64357W        W35973   6.310  20.947  14.281
64358W        W35974  18.507  25.351   3.281
64359W        W35975  11.145  17.770   3.651
64360W        W35976   8.309  38.439  14.360
64361W        W35977   3.770  23.508  10.282
64362W        W35978   6.340  32.846  10.661
64363W        W35979  18.301   8.243  11.204
64364W        W35980   4.914  34.176   4.117
64365W        W35981  15.326   0.736   2.826
64366W        W35982  25.490  16.098  13.886
64367W        W35983   7.293  36.218  12.040
64368W        W35984   4.534  18.758  13.365
64369W        W35985  30.585  40.165   4.647
64370W        W35986   2.868  39.875   4.612
64371W        W35987  33.710  32.539  14.994
64372W        W35988  41.147  24.908  11.856
64373W        W35989   4.618  43.379  14.358
64374W        W35990  10.602   5.210  14.506
64375W        W35991   5.764  13.146  12.380
64376W        W35992  41.474  40.239   1.806
64377W        W35993   2.316  19.732   1.546
64378W        W35994  19.618  10.631  12.838
64379W        W35995  14.586  15.345  12.826
64380W        W35996  19.271  34.929  11.443
64381W        W35997  30.617   1.773  10.674
64382W        W35998  33.132  21.685   0.406
64383W        W35999  29.456  11.220  12.422
64384W        W36000   8.350  36.140   2.333
64385W        W36001  15.723  42.062   3.240
64386W        W36002   0.681   8.685  13.985
64387W        W36003  20.593  35.088  10.745
64388W        W36004  44.158  17.640  13.006
64389W        W36005  38.049  40.232  13.377
64390W        W36006  40.877  28.904   2.962
64391W        W36007  19.620  11.145   0.799
64392W        W36008  44.765   5.382   0.502
64393W        W36009  22.531   3.647   3.304
64394W        W36010  26.269   1.192   0.586
64395W        W36011  42.290  12.156   1.308
64396W        W36012  22.421  40.322   3.621
64397W        W36013   2.932  23.177  10.635
64398W        W36014   4.283  20.284   1.447
64399W        W36015  24.918  38.590   0.894
64400W        W36016  35.417  38.328  10.778
64401W        W36017  36.462  20.666   1.746
64402W        W36018  13.566  19.111   1.206
64403W        W36019  38.906  24.505   4.347
64404W        W36020   1.725  44.891  13.344
64405W        W36021  19.717  29.030   0.013
64406W        W36022   6.400   1.496   0.487
64407W        W36023  25.425  37.452   3.176
64408W        W36024  16.333   3.666  13.332
64409W        W36025   3.744   7.940   0.477
64410W        W36026  39.646   0.395  12.496
64411W        W36027   5.340  25.007   3.106
64412W        W36028   6.196  42.023  13.484
64413W        W36029  23.252   8.962   0.374
64414W        W36030  18.022  23.102  12.911
64415W        W36031  41.354  24.112   0.350
64416W        W36032  27.290  10.877   3.741
64417W        W36033  37.444   9.178   2.890
64418W        W36034   7.785  34.486  14.808
64419W        W36035  14.731   5.185  13.354
64420W        W36036  10.807  27.460  11.728
64421W        W36037   6.763  12.891  12.421
64422W        W36038  19.407  25.030   2.895
64423W        W36039  38.976   0.818  12.628
64424W        W36040  40.071   3.657  12.493
64425W        W36041  16.144  43.347   3.658
64426W        W36042  21.257  29.472  10.407
64427W        W36043  33.220  16.691   4.106
64428W        W36044   6.726  31.518   4.246
64429W        W36045   2.481  29.985  13.476
64430W        W36046  42.628  40.391   2.570
64431W        W36047  25.139  29.915  12.597
64432W        W36048  20.239   7.349  12.997
64433W        W36049   3.029  24.765   5.141
64434W        W36050  40.462  21.390   3.334
64435W        W36051  44.046   3.603  14.515
64436W        W36052   3.720  40.924  13.417
64437W        W36053   0.294  18.153   3.792
64438W        W36054  13.668  22.199  11.304
64439W        W36055  32.149  13.601   4.166
64440W        W36056  12.098   7.706  12.409
64441W        W36057  40.875  11.140  12.733
64442W        W36058  44.669  38.651  13.952
64443W        W36059  21.233   0.513   2.632
64444W        W36060   3.754  11.325   1.770
64445W        W36061  37.285  21.243  12.646
64446W        W36062  30.518   2.942   0.301
64447W        W36063  34.972  36.971  10.739
64448W        W36064   0.049  42.279  10.902
64449W        W36065  28.437  37.310  11.172
64450W        W36066  22.277  33.283   1.384
64451W        W36067  28.276  14.193   0.369
64452W        W36068  26.643  39.283   1.931
64453W        W36069  34.380   5.994  11.618
64454W        W36070  10.236  28.355   4.889
64455W        W36071  41.209  29.553   2.254
64456W        W36072   8.685  23.523   0.754
64457W        W36073  10.713  21.765  13.588
64458W        W36074  30.399   9.630   1.503
64459W        W36075   0.829  29.325   4.996
64460W        W36076  37.186  24.523  14.194
64461W        W36077   5.621   5.151  13.996
64462W        W36078  41.038   5.676   1.427
64463W        W36079  34.442  29.108   0.434
64464W        W36080  37.711   3.178  13.047
64465W        W36081  28.568   5.986  13.054
64466W        W36082   9.718  11.445  13.428
64467W        W36083  40.050  40.280  11.236
64468W        W36084  31.019  11.789  12.095
64469W        W36085  25.662  34.815  14.417
64470W        W36086   5.801  28.733   2.317
64471W        W36087  25.670  20.318  13.504
64472W        W36088   9.393  29.930  14.996
64473W        W36089   7.858  24.461   0.845
64474W        W36090  30.619  12.775   4.612
64475W        W36091   4.227  24.144  12.484
64476W        W36092  24.971  19.659  10.669
64477W        W36093  35.405   0.351   1.819
64478W        W36094  17.481  27.204  13.164
64479W        W36095  14.367  11.713  13.135
64480W        W36096  40.911  15.149  14.197
64481W        W36097  25.991  12.889  12.022
64482W        W36098  17.458  23.870  11.172
64483W        W36099   7.756  17.704  12.415
64484W        W36100  30.098  11.510  14.659
64485W        W36101  26.948   0.369   4.846
64486W        W36102  37.830   5.149  12.948
64487W        W36103  39.799  13.336   4.126
64488W        W36104  41.894  42.525   4.895
64489W        W36105  22.773  20.162   3.688
64490W        W36106   8.641  31.426   0.731
64491W        W36107  15.810  12.374  10.827
64492W        W36108   0.076  14.084  13.928
64493W        W36109  14.979  10.298   2.239
64494W        W36110  18.732   9.209   4.245
64495W        W36111  26.823   0.680  13.364
64496W        W36112  42.640  41.106  10.834
64497W        W36113   2.939  29.935   2.151
64498W        W36114  37.859  23.002  10.602
64499W        W36115  39.516   2.475   3.117
64500W        W36116  27.675  25.070  13.060
64501W        W36117  26.150  35.524  12.089
64502W        W36118   9.815  36.499   3.686
64503W        W36119   4.353  23.260   3.759
64504W        W36120  25.108  37.299  14.411
64505W        W36121  18.185  23.183  13.399
64506W        W36122  31.437  42.006  14.104
64507W        W36123  12.411   6.205   2.293
64508W        W36124  41.519  24.606  11.648
64509W        W36125  33.018  36.401  14.806
64510W        W36126  15.682  33.622   4.885
64511W        W36127  16.780  37.622   0.883
64512W        W36128  12.888  41.571   2.429
64513W        W36129   6.449  41.604  14.855
64514W        W36130   5.328  39.084   1.675
64515W        W36131  29.198  38.497   1.306
64516W        W36132  21.329  17.235   5.172
64517W        W36133   2.747  23.946  12.058
64518W        W36134  35.436  28.561   4.651
64519W        W36135  31.574  36.544   3.299
64520W        W36136  37.583  22.462  14.011
64521W        W36137  36.257   0.228   4.385
64522W        W36138  21.502  16.822   4.477
64523W        W36139  19.350  20.773   0.277
64524W        W36140  17.811  36.616   2.621
64525W        W36141  38.095  27.566  14.399
64526W        W36142   8.126  25.051   1.426
64527W        W36143  20.825  31.185  11.564
64528W        W36144  19.006  24.647   3.641
64529W        W36145  39.202  24.984  14.258
64530W        W36146  31.550  19.284   1.932
64531W        W36147  18.008  39.999   0.261
64532W        W36148  40.325  40.341   3.346
64533W        W36149  40.592  12.153  14.975
64534W        W36150  20.129  27.380   3.655
64535W        W36151  32.174  43.356   0.167
64536W        W36152  29.964  27.524  12.820
64537W        W36153  15.796  16.769  13.914
64538W        W36154  41.628  20.822   3.875
64539W        W36155  41.051  27.003   3.311
64540W        W36156   5.994  32.946   1.294
64541W        W36157  34.516  28.176   3.636
64542W        W36158  37.353  23.860   1.550
64543W        W36159  23.785  28.072   2.428
64544W        W36160  36.288  33.411  10.777
64545W        W36161  38.414  36.436   3.551
64546W        W36162  25.048  18.216   1.883
64547W        W36163  15.599   9.406   0.640
64548W        W36164  11.472   3.866  11.685
64549W        W36165  37.510   3.698   4.571
64550W        W36166  31.405  19.559  14.501
64551W        W36167  36.083   1.909   4.647
64552W        W36168  31.154  32.110  11.566
64553W        W36169  26.114  32.397  11.140
64554W        W36170  44.242  26.816   4.085
64555W        W36171   9.341  26.073   1.452
64556W        W36172   8.117  11.037   3.397
64557W        W36173   8.192  17.599  13.277
64558W        W36174  22.532   4.532  12.925
64559W        W36175  41.087  15.640  14.278
64560W        W36176  25.677  24.509   3.220
64561W        W36177   7.883  23.759  13.809
64562W        W36178  16.971  25.682  14.160
64563W        W36179   5.357  17.680   3.809
64564W        W36180   8.024  33.936  12.695
64565W        W36181   3.356  22.962  10.947
64566W        W36182   7.575   8.913  14.826
64567W        W36183  28.121  34.818   2.732
64568W        W36184  34.079  38.900  11.042
64569W        W36185   4.656  16.155   5.043
64570W        W36186  31.603  16.838  14.038
64571W        W36187  23.140  28.990   3.385
64572W        W36188  17.048   3.838   4.691
64573W        W36189  12.950   1.830   4.395
64574W        W36190  19.564  40.370  14.791
64575W        W36191  15.779  32.315  13.095
64576W        W36192  41.819  39.801  12.902
64577W        W36193   6.502   3.519  10.978
64578W        W36194  26.283  39.590   2.803
64579W        W36195  41.374  16.593  11.826
64580W        W36196  22.897  21.696   3.802
64581W        W36197  14.328  33.752  12.135
64582W        W36198  38.381  40.596   2.566
64583W        W36199  35.357   9.764   0.346
64584W        W36200  14.865   4.604   3.721
64585W        W36201  38.763  28.404   3.552
64586W        W36202  25.987  40.309   3.271
64587W        W36203  16.717  11.959   0.726
64588W        W36204  34.730  21.650  12.089
64589W        W36205   8.648  17.548  14.557
64590W        W36206  28.493  40.469   4.615
64591W        W36207  38.568  43.814  10.694
64592W        W36208  15.588  29.668   1.795
64593W        W36209  20.309  10.715   3.387
64594W        W36210  40.322  11.683   0.238
64595W        W36211  19.980  24.742   1.755
64596W        W36212  30.366  34.469   2.191
64597W        W36213   3.032  43.190   2.423
64598W        W36214  12.859  21.044   1.233
64599W        W36215  26.146  31.976   4.091
64600W        W36216  23.904  11.577  14.946
64601W        W36217   4.390  37.602   4.211
64602W        W36218  32.187   2.762  12.054
64603W        W36219  11.852   7.184  14.950
64604W        W36220  15.848  27.451  14.780
64605W        W36221  32.519  37.022   4.611
64606W        W36222  14.065  32.947   3.297
64607W        W36223  41.340  34.347  11.196
64608W        W36224  21.090  11.041   2.227
64609W        W36225  32.942  36.889   1.678
64610W        W36226  17.697  36.905  14.352
64611W        W36227  10.120  17.719   1.862
64612W        W36228   6.448   4.197   3.160
64613W        W36229   1.433  29.000  12.862
64614W        W36230  12.336  24.894   0.839
64615W        W36231  37.691  31.577   1.171
64616W        W36232  28.264   4.984   2.752
64617W        W36233  11.095  35.307   3.540
64618W        W36234   5.620  40.274   0.302
64619W        W36235  27.442  12.208   0.954
64620W        W36236  31.616  30.405   3.769
64621W        W36237  35.367  21.009  10.300
64622W        W36238   4.240  23.312   1.849
64623W        W36239  26.618   0.036  11.516
64624W        W36240  43.790  12.246   1.276
64625W        W36241  14.479  26.484  12.853
64626W        W36242  41.278   6.676   0.392
64627W        W36243  30.529  44.802  13.944
64628W        W36244  40.810  44.499  10.663
64629W        W36245  34.125  25.592   1.445
64630W        W36246  18.679   9.298  13.105
64631W        W36247   2.175  12.759   4.010
64632W        W36248  21.475  28.111   1.632
64633W        W36249  35.599   5.371  13.072
64634W        W36250  24.009  39.388  14.842
64635W        W36251   5.927   1.388  13.323
64636W        W36252  13.059  17.130   2.874
64637W        W36253  40.383  24.146  13.290
64638W        W36254   1.553   8.463   3.263
64639W        W36255  34.607  11.139   0.318
64640W        W36256  32.779  43.361   1.165
64641W        W36257  13.000  40.341  14.567
64642W        W36258   2.323  39.552  10.735
64643W        W36259   2.441  19.240  12.420
64644W        W36260  43.741   8.134   0.217
64645W        W36261  13.618  26.082   3.379
64646W        W36262  21.514  18.195  13.951
64647W        W36263   3.242  10.462   4.144
64648W        W36264  42.295   5.760  14.873
64649W        W36265   0.720  31.467   0.744
64650W        W36266  16.227   9.016  11.492
64651W        W36267  11.369  37.119   1.257
64652W        W36268  34.352   4.807  10.394
64653W        W36269  38.299  31.079   3.854
64654W        W36270  12.161   9.350  14.000
64655W        W36271  33.941  10.743   2.374
64656W        W36272  33.863   8.237   1.794
64657W        W36273  17.117  32.984  14.979
64658W        W36274  24.119  31.105   3.227
64659W        W36275  44.387  29.427  10.635
64660W        W36276   5.306  11.225  14.349
64661W        W36277  40.162  14.421   4.149
64662W        W36278  22.538   0.072   0.963
64663W        W36279  37.227   7.061   0.345
64664W        W36280  39.766  40.771  12.907
64665W        W36281  41.183  44.485  13.607
64666W        W36282   2.470  16.754   4.431
64667W        W36283  25.434  11.377   1.183
64668W        W36284  20.582  26.771  11.363
64669W        W36285   8.771  42.884  10.707
64670W        W36286   8.115   6.157  10.762
64671W        W36287  22.290   7.570   1.834
64672W        W36288  22.731   5.947  11.184
64673W        W36289  14.228  41.023   3.618
64674W        W36290  20.654  13.101   2.615
64675W        W36291  11.603  38.430  12.141
64676W        W36292  25.407   0.561   0.687
64677W        W36293  36.096  11.908  13.888
64678W        W36294   1.378   3.815  11.544
64679W        W36295  29.085  23.167   1.189
64680W        W36296  30.536  28.191  11.434
64681W        W36297  28.407  33.597   4.615
64682W        W36298   9.199  24.030   3.812
64683W        W36299  15.748   0.982   2.626
64684W        W36300  11.316  10.949  11.655
64685W        W36301  28.505   4.938  13.917
64686W        W36302  41.698  22.358  14.804
64687W        W36303  18.006  33.011   1.411
64688W        W36304   5.776  41.742  10.425
64689W        W36305  33.437  31.428  14.389
64690W        W36306  20.598  19.278  13.965
64691W        W36307  43.452  40.973   2.622
64692W        W36308  28.705  43.800  10.775
64693W        W36309  24.051   3.800   2.236
64694W        W36310   4.807  11.334   4.492
64695W        W36311   0.650  42.952  11.148
64696W        W36312  11.247  32.562   2.913
64697W        W36313  26.087  10.038  11.573
64698W        W36314  34.154  40.998  13.353
64699W        W36315   6.961  31.106   4.005
64700W        W36316  29.665   2.205  14.862
64701W        W36317  22.844  30.979  14.232
64702W        W36318  38.413  36.875  10.562
64703W        W36319  22.521  20.673   3.686
64704W        W36320   7.260  26.503   1.692
64705W        W36321  10.204   0.887   0.982
64706W        W36322  39.357   8.464   0.525
64707W        W36323  32.337  10.382   0.833
64708W        W36324  15.281   4.415   2.460
64709W        W36325  14.685  16.854   3.313
64710W        W36326  22.923  23.153  11.621
64711W        W36327  25.167   2.029   0.771
64712W        W36328   1.476  25.689   1.860
64713W        W36329  34.596  43.214  11.157
64714W        W36330  33.792  30.945  12.434
64715W        W36331  27.681  39.451  11.056
64716W        W36332  34.381   7.002   0.400
64717W        W36333  24.279  16.227   0.258
64718W        W36334  10.372   9.663  12.471
64719W        W36335  17.719  24.605  12.648
64720W        W36336  17.319  15.417   3.611
64721W        W36337  20.926  44.592   2.774
64722W        W36338  40.104   6.449   3.555
64723W        W36339  20.417  25.592   3.182
64724W        W36340  29.919  36.039  12.028
64725W        W36341  11.196  34.931   1.859
64726W        W36342  41.622  31.996   0.729
64727W        W36343  39.066  28.604   0.327
64728W        W36344  19.204  41.501  11.310
64729W        W36345  15.742  21.454  14.955
64730W        W36346  26.105   3.900  11.297
64731W        W36347   3.559   8.617   4.103
64732W        W36348   6.002   2.475   2.197
64733W        W36349  31.168  29.441   1.425
64734W        W36350  31.490  22.680  12.046
64735W        W36351   8.967  44.450  11.555
64736W        W36352  19.494  27.788   0.968
64737W        W36353  36.552   8.624  13.907
64738W        W36354  20.800   9.727   3.454
64739W        W36355  38.978  34.840   1.364
64740W        W36356   6.659  34.537   1.487
64741W        W36357  32.020  34.863  11.035
64742W        W36358  24.480  28.705   2.898
64743W        W36359  23.571  15.405  11.169
64744W        W36360  36.992  25.614  11.516
64745W        W36361   4.787  21.770  11.219
64746W        W36362  18.275   7.765  10.635
64747W        W36363  16.421  36.962   3.659
64748W        W36364  25.592  26.204   4.320
64749W        W36365  29.297  34.939  13.406
64750W        W36366   9.117  19.828  14.338
64751W        W36367  30.671  22.609  12.046
64752W        W36368  27.063  26.676  14.693
64753W        W36369  34.067  21.479  14.399
64754W        W36370  22.928  35.745   3.272
64755W        W36371   1.276   5.398  11.876
64756W        W36372  40.000  26.433  10.756
64757W        W36373  14.798  41.439  13.599
64758W        W36374  41.631  39.799  14.914
64759W        W36375  21.300  13.686  14.823
64760W        W36376  42.850   7.783   4.168
64761W        W36377  29.607   9.093   2.045
64762W        W36378  33.392  34.675   1.748
64763W        W36379  20.123  19.028  13.032
64764W        W36380  21.192  11.406  12.436
64765W        W36381  28.217  31.997   2.560
64766W        W36382  26.933  31.880  14.552
64767W        W36383  34.902  23.200  11.004
64768W        W36384  41.473  16.738   3.829
64769W        W36385   1.773   4.830   2.404
64770W        W36386  21.218  32.997   2.600
64771W        W36387  40.823  29.741  10.730
64772W        W36388  33.729  43.545   2.204
64773W        W36389  18.535   9.260  11.732
64774W        W36390   8.594  38.326   0.267
64775W        W36391  15.318   8.299   3.740
64776W        W36392  27.587  43.509   3.062
64777W        W36393  13.052  39.092  10.214
64778W        W36394  23.977  11.342   3.197
64779W        W36395  44.859   9.664  10.446
64780W        W36396  18.116   4.191  14.234
64781W        W36397   4.401   5.037  14.108
64782W        W36398  44.936  42.271  11.422
64783W        W36399  31.642  34.085   4.681
64784W        W36400  34.097  24.045  12.433
64785W        W36401  29.000  14.247   0.934
64786W        W36402  20.194  37.835   0.868
64787W        W36403   4.378   4.423   4.829
64788W        W36404  27.966  43.580   4.275
64789W        W36405  36.105  28.119  14.569
64790W        W36406   9.566  19.743   3.310
64791W        W36407  19.159  15.842   2.362
64792W        W36408   1.404   1.300   4.052
64793W        W36409   4.334  40.234  12.061
64794W        W36410  29.184   5.796  10.820
64795W        W36411  15.304  16.762   0.781
64796W        W36412  24.697   9.915  13.778
64797W        W36413  24.980   4.156   3.821
64798W        W36414  14.182  21.111   3.764
64799W        W36415  40.824  20.048  11.971
64800W        W36416  28.616  13.699  11.646
64801W        W36417  18.064  30.435   2.198
64802W        W36418  19.590  44.394   3.525
64803W        W36419  42.725  32.591  13.453
64804W        W36420  16.627  43.065  10.698
64805W        W36421  38.251  37.282   4.558
64806W        W36422   3.192  21.617  11.992
64807W        W36423  19.122  11.699  12.376
64808W        W36424  41.562  12.676   0.818
64809W        W36425  32.416  12.253   3.659
64810W        W36426  20.102  25.636   0.334
64811W        W36427   1.775  24.753  14.095
64812W        W36428  10.662  23.066   4.715
64813W        W36429  29.427  23.284  11.431
64814W        W36430  40.932  34.653  11.424
64815W        W36431  42.483   8.526  13.344
64816W        W36432  15.088  16.671  11.488
64817W        W36433   7.586  16.070   4.894
64818W        W36434  12.708  40.684   4.117
64819W        W36435   3.861   6.184   4.402
64820W        W36436   1.892   6.661   2.268
64821W        W36437  32.087  24.220   4.997
64822W        W36438  28.541  20.751   0.343
64823W        W36439  18.218  10.902  12.104
64824W        W36440  22.923  26.262  13.387
64825W        W36441  16.796  28.713   2.380
64826W        W36442  10.240   0.832   2.394
64827W        W36443  44.526  23.576  11.426
64828W        W36444  39.553  21.482  11.957
64829W        W36445   8.722   4.918   5.266
64830W        W36446  24.047  37.365  13.030
64831W        W36447  34.234  27.040  12.912
64832W        W36448  41.964  25.601  11.176
64833W        W36449   8.073  31.032  13.422
64834W        W36450  30.129   7.147  14.061
64835W        W36451  39.803   2.088   3.303
64836W        W36452  30.368  28.280   3.598
64837W        W36453   7.312   5.400   3.651
64838W        W36454  17.172  33.390   3.295
64839W        W36455  19.587  27.463  14.768
64840W        W36456  38.556  37.468  13.889
64841W        W36457  11.714  38.349   4.142
64842W        W36458  25.991  34.642  10.879
64843W        W36459  14.866  44.461   1.481
64844W        W36460  43.987  13.360  10.958
64845W        W36461  25.919   8.904  12.288
64846W        W36462  13.853  13.750   4.923
64847W        W36463  30.471  29.613  14.631
64848W        W36464  12.694   8.392   0.783
64849W        W36465  13.985  18.824   4.757
64850W        W36466  27.980  11.337   9.718
64851W        W36467   8.276  14.384  14.898
64852W        W36468   2.751  21.559  11.139
64853W        W36469  23.140  17.148   2.712
64854W        W36470  44.260  29.493   0.041
64855W        W36471  29.653  40.993   3.842
64856W        W36472  18.713  14.640   1.307
64857W        W36473   1.076  14.202   3.280
64858W        W36474  15.280  43.434  10.951
64859W        W36475  40.752  17.087   2.785
64860W        W36476  41.893  27.413   1.865
64861W        W36477  40.600  37.356  11.121
64862W        W36478  14.659   3.032   4.550
64863W        W36479  35.069  27.904   4.683
64864W        W36480  28.445  14.389  11.957
64865W        W36481  40.543  23.331  14.511
64866W        W36482   3.420   0.805   5.001
64867W        W36483  43.969  39.402  13.874
64868W        W36484   2.351  36.650  11.640
64869W        W36485  43.304  35.893  10.516
64870W        W36486   1.939  16.654   2.909
64871W        W36487  35.930  22.610  13.255
64872W        W36488   5.408  39.451   4.362
64873W        W36489  42.936  21.089   1.607
64874W        W36490  21.621  24.894  14.477
64875W        W36491  39.479  19.565  12.200
64876W        W36492   4.902  20.352   2.410
64877W        W36493  14.797  19.966   2.718
64878W        W36494  28.730  28.447   2.737
64879W        W36495  17.019  22.182  12.854
64880W        W36496   2.841   1.150  13.310
64881W        W36497  30.171  19.965  12.115
64882W        W36498  28.439  40.648   1.838
64883W        W36499  28.138   2.572  12.069
64884W        W36500  17.731  35.068  13.394
64885W        W36501   4.868  34.172  12.531
64886W        W36502  31.710  14.950   4.217
64887W        W36503  42.000   0.659  12.484
64888W        W36504  31.653  20.960  13.330
64889W        W36505  22.236  20.065  13.456
64890W        W36506  30.597   2.254   3.309
64891W        W36507  37.393  22.184  13.317
64892W        W36508  44.694   7.329  14.691
64893W        W36509  38.560  25.623  14.895
64894W        W36510  43.351   8.244  12.950
64895W        W36511  18.477   3.791  13.983
64896W        W36512  20.998  14.114  14.500
64897W        W36513   7.773  12.357  14.497
64898W        W36514   1.121  24.246   9.711
64899W        W36515  36.350  38.260   4.213
64900W        W36516   3.827  37.417   2.490
64901W        W36517  19.705  18.738  13.078
64902W        W36518  44.805  29.708  11.755
64903W        W36519  19.755  42.318   1.501
64904W        W36520  27.895  12.872   4.939
64905W        W36521  15.107   3.825   5.537
64906W        W36522   2.347   0.022   1.705
64907W        W36523  21.471  13.331  10.711
64908W        W36524  29.239  24.603  11.141
64909W        W36525  39.752   5.616  12.509
64910W        W36526  36.888   7.949   1.928
64911W        W36527  43.798  35.448   2.356
64912W        W36528  16.791  12.418   3.973
64913W        W36529  36.861  12.711   5.490
64914W        W36530   3.309  31.992   2.365
64915W        W36531  30.310  16.822   1.231
64916W        W36532   2.398  17.219   2.369
64917W        W36533  29.100  39.877   2.126
64918W        W36534  20.884  24.726  13.310
64919W        W36535   9.441   6.366   0.375
64920W        W36536  24.552  37.371   4.773
64921W        W36537  41.820  15.290  12.029
64922W        W36538  21.108  16.032   4.543
64923W        W36539  29.911   6.389  12.535
64924W        W36540  10.886  34.048  12.949
64925W        W36541   9.593  27.999  13.629
64926W        W36542  22.065  12.763   0.455
64927W        W36543  16.031   7.251   3.347
64928W        W36544  29.123  27.508  13.796
64929W        W36545   7.416  18.303  14.835
64930W        W36546  20.170  37.876  10.603
64931W        W36547   8.408  28.617   3.553
64932W        W36548  18.688  29.513  12.210
64933W        W36549  26.171  18.284  11.610
64934W        W36550  20.284  24.091  13.074
64935W        W36551  26.654   0.745   0.217
64936W        W36552  21.210  44.770   2.239
64937W        W36553  28.618  29.210  12.871
64938W        W36554  33.008  37.910   1.765
64939W        W36555   8.936  44.493   2.327
64940W        W36556  30.565  11.799   3.288
64941W        W36557  39.371   1.707   4.543
64942W        W36558  34.402   4.513  11.328
64943W        W36559  17.258  42.470  10.373
64944W        W36560  30.588   1.188  14.889
64945W        W36561  31.250  23.577   3.730
64946W        W36562  30.705   5.222  12.393
64947W        W36563  28.204  21.353  11.617
64948W        W36564   6.600  40.515   1.271
64949W        W36565  37.830  23.724  11.735
64950W        W36566  20.462  44.024   1.659
64951W        W36567  17.675  24.445   1.407
64952W        W36568  24.692   2.835  10.722
64953W        W36569  38.563  11.695   1.833
64954W        W36570  26.554  18.908  12.068
64955W        W36571   0.679  27.210   4.158
64956W        W36572  38.875  42.330  13.353
64957W        W36573  30.963   0.712  12.035
64958W        W36574   0.432  11.968   2.284
64959W        W36575  36.334   6.189   1.825
64960W        W36576   2.166   0.928  14.812
64961W        W36577  17.226  15.578  12.946
64962W        W36578  11.676  39.089   3.288
64963W        W36579  10.952  40.018  14.308
64964W        W36580  29.981  17.241   0.426
64965W        W36581  17.027  36.747   0.915
64966W        W36582  37.032  34.369   4.589
64967W        W36583  29.969  42.302   1.519
64968W        W36584  42.316  36.340  13.379
64969W        W36585  28.684  11.361   2.724
64970W        W36586  15.700  37.447  13.909
64971W        W36587  25.791  27.955   0.240
64972W        W36588  23.706  14.853   4.587
64973W        W36589  37.561  41.141   0.892
64974W        W36590  13.832  44.060  11.528
64975W        W36591   0.546  27.221   1.855
64976W        W36592  20.051  36.504   4.018
64977W        W36593  28.919   5.221   4.178
64978W        W36594  39.290   8.841   0.971
64979W        W36595  33.830  35.600  14.584
64980W        W36596  40.583   4.665  14.097
64981W        W36597  35.027  30.564  12.137
64982W        W36598  13.209  33.407  13.462
64983W        W36599  31.256   9.685  11.599
64984W        W36600   0.258  36.921  14.928
64985W        W36601  30.441  27.663  14.431
64986W        W36602  28.585   8.771   2.134
64987W        W36603  11.737   2.271  11.596
64988W        W36604  35.128  40.946  13.269
64989W        W36605  44.235   6.810   4.470
64990W        W36606   3.535  36.493   1.628
64991W        W36607   1.780  36.741  11.170
64992W        W36608  32.186   6.498   3.157
64993W        W36609  17.181   4.329   2.899
64994W        W36610  41.109  28.963   1.696
64995W        W36611  28.350  13.185  10.746
64996W        W36612  32.074  16.886  14.325
64997W        W36613  30.609  10.913  11.642
64998W        W36614  39.236  21.947  12.512
64999W        W36615  39.550  11.754   1.763
65000W        W36616   0.020  26.048   0.948
65001W        W36617  29.591  39.563  14.414
65002W        W36618   5.426  27.172   2.844
65003W        W36619  37.063  20.974   0.736
65004W        W36620  41.091  31.448   1.732
65005W        W36621   9.618  22.491  11.517
65006W        W36622  15.014  38.895   4.730
65007W        W36623  32.394  44.793  14.059
65008W        W36624  31.568   6.044  12.597
65009W        W36625   0.152  25.031   4.075
65010W        W36626  16.832  43.573   1.883
65011W        W36627  44.600  42.746   2.173
65012W        W36628  31.892  10.652   2.331
65013W        W36629  31.423  43.520  11.082
65014W        W36630  21.743   6.000   2.858
65015W        W36631  36.421  24.074   4.357
65016W        W36632  40.492  18.919   2.262
65017W        W36633   9.442  26.217  11.475
65018W        W36634  39.462  33.175  12.639
65019W        W36635  44.371  29.901   2.318
65020W        W36636  42.588  32.461  12.559
65021W        W36637  35.482  40.120  13.925
65022W        W36638  39.312  31.459  11.077
65023W        W36639  14.455   9.647   0.343
65024W        W36640   8.045   7.268   0.868
65025W        W36641  10.203   2.286   3.582
65026W        W36642  15.045  34.495   4.257
65027W        W36643  28.418  19.704   1.862
65028W        W36644  28.498  43.422   2.432
65029W        W36645  32.540  14.719   4.827
65030W        W36646  13.140  24.014   1.501
65031W        W36647   1.968   8.880  14.698
65032W        W36648   1.947  23.054  14.314
65033W        W36649  32.285  22.049   0.648
65034W        W36650  44.373  11.168   3.257
65035W        W36651  36.486  42.609  10.692
65036W        W36652  11.270   6.238  14.498
65037W        W36653  23.594   9.834  12.639
65038W        W36654  40.159   0.398  12.506
65039W        W36655   9.576  21.607   4.305
65040W        W36656  27.824  21.235   0.897
65041W        W36657  35.767  21.531  13.270
65042W        W36658  29.597  31.881   2.039
65043W        W36659   1.749  38.492   1.792
65044W        W36660  21.208  12.109  11.148
65045W        W36661  25.603  30.706   0.263
65046W        W36662  43.832  20.419  14.286
65047W        W36663  14.668   1.801   5.285
65048W        W36664  18.311  18.282   2.304
65049W        W36665  11.083   9.188   3.100
65050W        W36666  25.028  28.112   1.810
65051W        W36667  38.773  29.172  14.467
65052W        W36668  25.258  10.578  14.347
65053W        W36669  32.536  44.060   4.713
65054W        W36670  15.646  34.825   3.141
65055W        W36671  25.605  23.593  14.304
65056W        W36672  24.218   5.566   3.813
65057W        W36673  37.807  25.019   0.081
65058W        W36674   0.057  18.598   1.089
65059W        W36675   2.749  25.759  11.981
65060W        W36676   8.940  25.772   2.213
65061W        W36677  18.348   4.237  13.720
65062W        W36678   6.447   3.822  12.453
65063W        W36679   3.088  15.191   4.212
65064W        W36680  32.568  35.088   0.891
65065W        W36681  23.185  42.531   1.271
65066W        W36682   7.764  37.217  14.692
65067W        W36683  11.738  18.613  14.571
65068W        W36684  43.398  27.312  12.366
65069W        W36685  40.620  16.392   1.521
65070W        W36686   8.967  34.163   4.236
65071W        W36687   8.143  21.255  14.575
65072W        W36688   3.401   8.377  10.694
65073W        W36689  19.028   4.777   3.800
65074W        W36690  12.134   9.254   4.724
65075W        W36691  22.266   2.493   3.121
65076W        W36692  26.348  17.991   0.498
65077W        W36693  30.557   1.330   1.422
65078W        W36694  26.853   6.409  12.833
65079W        W36695  43.472  11.604  10.679
65080W        W36696   5.769   0.052   1.867
65081W        W36697  32.212  19.360   0.004
65082W        W36698  41.443   3.874  12.354
65083W        W36699  36.495  19.236  11.445
65084W        W36700   1.542  31.614  10.637
65085W        W36701  44.516  28.947  12.131
65086W        W36702  24.742  31.416   2.318
65087W        W36703   6.005  28.020  13.316
65088W        W36704  23.017  37.836   4.965
65089W        W36705   1.900  43.782  10.676
65090W        W36706  21.168  38.016   0.049
65091W        W36707  29.020  23.658   1.364
65092W        W36708  31.865  20.792   0.371
65093W        W36709  38.844  43.925  14.487
65094W        W36710  21.489   8.395  14.587
65095W        W36711  18.220  24.668  12.432
65096W        W36712  11.107  26.457   2.915
65097W        W36713  37.546  41.220  10.772
65098W        W36714  40.912   7.864   1.026
65099W        W36715  12.289  18.690   0.888
65100W        W36716  17.028  27.042   4.364
65101W        W36717   2.701  20.544  11.069
65102W        W36718  41.479  38.957  14.674
65103W        W36719   5.336  28.103   1.391
65104W        W36720   3.800   0.231  10.645
65105W        W36721  26.503  28.100   1.668
65106W        W36722  15.037  29.020  12.114
65107W        W36723  36.406  43.329  13.071
65108W        W36724  13.172   4.740   3.265
65109W        W36725  27.739  11.314   0.405
65110W        W36726  42.817  31.733   3.695
65111W        W36727  18.116  43.984   1.455
65112W        W36728  21.499  13.222  12.454
65113W        W36729  25.736  35.574   1.315
65114W        W36730   3.537  19.209   2.836
65115W        W36731  10.109  40.902  11.115
65116W        W36732  16.159  19.502  12.961
65117W        W36733  40.158  12.028   5.119
65118W        W36734   8.244  25.040   3.610
65119W        W36735   8.099  37.059   1.339
65120W        W36736  23.604  18.600  11.680
65121W        W36737  24.612  14.043  14.002
65122W        W36738  22.329  27.069  11.080
65123W        W36739  14.873  37.798   3.848
65124W        W36740  19.423  42.970   0.271
65125W        W36741  42.778  24.092  12.996
65126W        W36742   1.451   5.050   3.734
65127W        W36743  14.115  12.146  10.587
65128W        W36744  18.019  42.481   2.727
65129W        W36745  42.893   1.493  12.851
65130W        W36746  39.120  32.296   4.097
65131W        W36747  36.047  11.797  11.570
65132W        W36748   0.220  25.991   3.323
65133W        W36749  20.050   1.774   3.264
65134W        W36750  13.377  15.273   2.818
65135W        W36751  27.051  33.449   2.385
65136W        W36752  34.893  31.672  14.836
65137W        W36753  21.560  12.231  12.364
65138W        W36754  27.705   8.752  14.698
65139W        W36755  10.339  13.249  10.718
65140W        W36756  34.154  34.450   3.749
65141W        W36757  19.044  24.576  14.861
65142W        W36758   6.741  25.950   4.609
65143W        W36759  24.459  10.067   3.249
65144W        W36760  34.376  11.066   4.055
65145W        W36761  35.627   6.249   2.415
65146W        W36762   6.761  33.889  12.000
65147W        W36763  17.891  23.475   2.691
65148W        W36764  15.394   9.692  12.704
65149W        W36765   5.735  31.556   4.393
65150W        W36766  18.881  25.326  12.448
65151W        W36767  15.387  13.364   2.443
65152W        W36768  14.323   7.208  11.578
65153W        W36769  24.389  35.944  12.112
65154W        W36770  29.503  32.179  14.306
65155W        W36771  38.315  19.446   3.802
65156W        W36772  26.931  16.650   2.226
65157W        W36773  22.745  35.897  10.253
65158W        W36774  38.251  39.778  12.262
65159W        W36775  30.275  30.179  12.818
65160W        W36776  31.403   4.732   1.214
65161W        W36777   3.279  16.432   3.779
65162W        W36778  31.012   7.594  11.897
65163W        W36779   5.147  27.675   0.310
65164W        W36780  14.571  26.405   2.425
65165W        W36781  24.627  24.567   2.784
65166W        W36782   3.074  11.282  12.707
65167W        W36783   6.741  39.818   4.641
65168W        W36784  37.253  26.255   0.875
65169W        W36785  22.870   0.342   2.289
65170W        W36786  44.881  28.154   2.192
65171W        W36787  40.269   5.771  12.439
65172W        W36788  11.160  24.434   1.886
65173W        W36789   2.055  20.097  12.107
65174W        W36790  11.859   2.329   0.805
65175W        W36791   5.366  22.170   2.723
65176W        W36792  31.418  29.764  14.948
65177W        W36793  29.937  29.983   2.507
65178W        W36794  21.210   8.317   3.900
65179W        W36795  35.550  38.862  11.620
65180W        W36796  43.990  11.891   0.675
65181W        W36797  44.705  38.809  12.572
65182W        W36798  43.907   2.752   4.290
65183W        W36799  18.329  36.147   0.929
65184W        W36800  29.040  26.797  13.117
65185W        W36801  37.669  20.578   4.281
65186W        W36802  41.393   9.036  12.458
65187W        W36803  26.073  10.901   2.778
65188W        W36804  39.792  37.092   4.817
65189W        W36805   3.770  34.887  10.689
65190W        W36806  14.015  16.218  13.393
65191W        W36807  42.457  16.014  13.493
65192W        W36808   2.381  30.890   4.308
65193W        W36809  41.388   8.325  12.982
65194W        W36810  29.495  14.740   1.300
65195W        W36811   8.205  37.441  14.887
65196W        W36812  35.165  20.201  11.221
65197W        W36813  39.392  25.999  12.301
65198W        W36814  40.354  42.807   1.866
65199W        W36815  32.616  13.274   4.573
65200W        W36816  28.965  31.080  14.543
65201W        W36817  34.533  19.559   3.148
65202W        W36818  10.667  30.874  10.978
65203W        W36819  31.822  37.475   1.144
65204W        W36820   0.290  24.014   0.586
65205W        W36821   4.370   9.715  12.572
65206W        W36822  22.963  29.001  14.758
65207W        W36823  10.768  23.611   4.046
65208W        W36824  35.007  30.102   3.275
65209W        W36825   2.693  23.414  12.008
65210W        W36826  27.781  41.468   4.531
65211W        W36827  12.859  18.194   3.351
65212W        W36828  28.868  22.612  13.388
65213W        W36829  41.968  19.004   3.875
65214W        W36830   6.894  40.476   0.164
65215W        W36831  22.164  34.073   4.638
65216W        W36832  18.763  11.616   4.101
65217W        W36833   4.829  32.387  12.107
65218W        W36834  29.488  43.980  11.897
65219W        W36835   0.457  41.307  13.788
65220W        W36836   0.401  17.092  13.133
65221W        W36837  38.395  32.164   0.809
65222W        W36838  31.672  28.890   2.210
65223W        W36839  11.690  15.639   4.639
65224W        W36840  11.181  43.458   3.904
65225W        W36841  38.683   8.888  10.704
65226W        W36842  29.652   4.724   3.360
65227W        W36843  11.408   6.368   1.332
65228W        W36844  29.707   0.716  11.097
65229W        W36845  44.756   3.804   1.151
65230W        W36846  10.250  20.026   2.314
65231W        W36847  32.008  27.196  11.663
65232W        W36848  10.281  34.883   3.393
65233W        W36849   0.260  26.244   1.399
65234W        W36850  43.277  14.866   2.246
65235W        W36851  10.674  24.101  10.793
65236W        W36852   9.343  25.918  14.346
65237W        W36853  13.120   2.138   2.228
65238W        W36854   0.817  25.751   0.467
65239W        W36855  40.008  16.293  11.497
65240W        W36856  25.529  17.656  11.419
65241W        W36857  31.053  28.876  11.156
65242W        W36858  34.581  30.184  11.617
65243W        W36859  23.736  17.708   2.239
65244W        W36860   4.795  18.808  10.225
65245W        W36861  30.986  43.817  12.025
65246W        W36862  26.524  27.484   3.212
65247W        W36863  44.143  24.665   4.196
65248W        W36864  41.534  16.994  12.560
65249W        W36865  16.119  17.076  10.238
65250W        W36866  16.320   9.513  11.563
65251W        W36867  16.173  21.693   0.202
65252W        W36868  27.205  17.439   4.993
65253W        W36869   3.294   0.578  12.006
65254W        W36870  37.882  35.923  10.730
65255W        W36871  38.252   4.182   3.573
65256W        W36872  10.640  12.786  12.592
65257W        W36873  20.466  23.081  14.429
65258W        W36874  24.923  17.880   4.255
65259W        W36875  23.541   3.440   2.196
65260W        W36876  33.146   0.271  12.099
65261W        W36877  42.343  11.893   0.781
65262W        W36878  43.039   2.596   1.037
65263W        W36879  13.677  30.914   2.671
65264W        W36880  24.080   1.418   4.870
65265W        W36881  40.497  15.997   1.225
65266W        W36882   9.657   6.804   0.195
65267W        W36883  21.695   0.382   2.820
65268W        W36884  34.395  15.448   0.225
65269W        W36885  44.818   6.444   1.934
65270W        W36886  11.921  27.269   0.700
65271W        W36887  11.870   3.487  14.414
65272W        W36888  36.920  41.264  14.078
65273W        W36889   0.868  30.999  14.771
65274W        W36890   3.456  29.476  12.003
65275W        W36891  23.808  18.066   1.394
65276W        W36892  31.525  23.487  12.415
65277W        W36893  17.807  19.679  14.044
65278W        W36894  27.488  33.301  11.850
65279W        W36895   8.656   6.691  11.503
65280W        W36896  34.074  39.663  13.071
65281W        W36897  12.442   1.486  11.499
65282W        W36898   3.928  10.829   2.765
65283W        W36899   3.944  35.057   3.704
65284W        W36900  17.666  19.572  12.284
65285W        W36901  39.042  22.677  13.908
65286W        W36902  23.648  20.013   1.933
65287W        W36903  36.000  43.796  11.969
65288W        W36904  12.648  18.498   1.827
65289W        W36905  10.922   1.748   0.437
65290W        W36906   1.331  32.221   0.912
65291W        W36907   4.749  37.379  12.987
65292W        W36908  20.881  43.387  14.279
65293W        W36909  33.680  24.006   1.252
65294W        W36910  42.879  35.372   1.411
65295W        W36911  25.948  41.316  12.427
65296W        W36912  31.399  41.469  10.502
65297W        W36913  39.254  40.834  11.185
65298W        W36914  24.214  14.090  14.746
65299W        W36915   4.675  28.629   3.788
65300W        W36916  43.841  35.017   1.260
65301W        W36917  36.079  15.331   0.374
65302W        W36918  35.657  25.624   1.338
65303W        W36919  19.236  25.096  14.842
65304W        W36920   2.906   6.148   1.289
65305W        W36921  13.568   6.365  11.079
65306W        W36922  22.114  15.270  12.627
65307W        W36923  15.245  43.036   2.301
65308W        W36924  37.630  29.370  13.444
65309W        W36925  26.522  15.124   1.356
65310W        W36926  42.066  25.244  10.612
65311W        W36927   3.780  25.272  14.008
65312W        W36928  11.011   6.564  13.453
65313W        W36929  25.469  13.740   4.164
65314W        W36930  38.067  34.940  12.941
65315W        W36931   5.818  39.547   0.833
65316W        W36932   4.277  17.034  12.377
65317W        W36933  32.169  41.397   4.657
65318W        W36934  43.738   6.311   2.634
65319W        W36935  43.749  18.523   2.121
65320W        W36936  35.305   2.210   1.945
65321W        W36937   9.618   0.056   2.314
65322W        W36938  44.908  21.189  10.103
65323W        W36939  37.633  29.692   3.652
65324W        W36940  38.637  14.959  11.437
65325W        W36941  14.605  13.202  13.764
65326W        W36942  20.673  23.556   0.764
65327W        W36943  31.097  23.671  11.223
65328W        W36944  44.363  36.322   4.912
65329W        W36945  35.317   0.295  14.431
65330W        W36946  27.222  22.115   1.692
65331W        W36947  34.512  42.445  10.737
65332W        W36948   4.751  35.068   3.195
65333W        W36949  12.775   6.065  10.676
65334W        W36950   0.240   4.100   4.619
65335W        W36951  17.253  32.084   4.541
65336W        W36952  38.889  44.244  13.525
65337W        W36953  12.830  39.206  13.974
65338W        W36954  25.927   8.693   1.470
65339W        W36955  34.480  25.864  13.279
65340W        W36956   1.330  22.961  11.585
65341W        W36957  26.902  13.209   2.948
65342W        W36958  26.740  30.661   3.659
65343W        W36959  12.815   7.475   0.517
65344W        W36960  36.573  36.057   5.112
65345W        W36961  35.814  43.927  14.763
65346W        W36962  11.211  20.017   4.600
65347W        W36963  10.275   7.235  13.150
65348W        W36964  40.484   4.472  12.726
65349W        W36965  39.356  30.605   2.917
65350W        W36966  17.329  44.985  12.568
65351W        W36967  33.966  28.178  12.029
65352W        W36968  44.682  28.583   0.181
65353W        W36969   6.992  23.467  13.816
65354W        W36970  35.629  29.904  14.736
65355W        W36971  27.124  25.521   3.668
65356W        W36972  36.854   0.448  12.960
65357W        W36973   2.942  40.876   1.504
65358W        W36974  19.987  15.749   4.602
65359W        W36975  10.284   4.142  11.954
65360W        W36976  26.606  18.364   1.844
65361W        W36977  28.052  26.773   1.330
65362W        W36978  38.854  17.283   0.691
65363W        W36979  43.510   0.933   2.929
65364W        W36980  28.688   3.728   1.994
65365W        W36981  16.856   0.821  10.135
65366W        W36982  27.465  39.402  13.101
65367W        W36983  31.422  28.508  12.477
65368W        W36984  36.222   0.393  11.610
65369W        W36985  37.345   7.209   3.777
65370W        W36986  33.157   0.981   0.733
65371W        W36987  25.140  27.511  10.131
65372W        W36988  27.829  38.489   0.278
65373W        W36989   8.412   1.936   1.487
65374W        W36990  44.467  38.280   5.497
65375W        W36991  18.314  30.153   1.809
65376W        W36992   9.437  12.091  11.424
65377W        W36993  43.849   0.703   1.663
65378W        W36994  33.445  43.702  12.068
65379W        W36995  28.280  16.311   3.758
65380W        W36996  42.914  17.774  11.488
65381W        W36997  39.215  30.448  11.202
65382W        W36998   7.713  43.228   0.862
65383W        W36999   7.427  34.777  13.084
65384W        W37000  14.310  12.882   1.474
65385W        W37001  22.483  20.802   0.190
65386W        W37002  16.247  33.056  10.888
65387W        W37003   7.748  28.513   4.632
65388W        W37004  36.585  11.709  13.991
65389W        W37005  29.063  17.891   1.556
65390W        W37006  19.641  13.079  14.556
65391W        W37007  23.580  24.615  12.908
65392W        W37008  35.568  42.872   2.400
65393W        W37009  44.783  27.545  14.371
65394W        W37010  23.388  29.083  11.986
65395W        W37011  40.409  33.599  12.171
65396W        W37012  30.593  31.469  12.820
65397W        W37013  35.121  42.068   2.368
65398W        W37014  17.599  40.009   2.935
65399W        W37015  14.297   9.202  13.829
65400W        W37016  33.984  31.181   2.338
65401W        W37017  41.445  13.751  10.539
65402W        W37018  38.860   1.806   4.283
65403W        W37019  37.092  31.003  11.387
65404W        W37020  20.199  16.955  13.493
65405W        W37021  17.389  34.638  13.435
65406W        W37022  18.151  16.348   2.792
65407W        W37023  42.440  42.431   3.142
65408W        W37024  29.098  37.821   2.757
65409W        W37025  30.250  13.308   3.279
65410W        W37026  44.820  11.103   1.955
65411W        W37027  31.809  30.158   0.683
65412W        W37028  19.031  22.175   3.187
65413W        W37029  35.478  29.180  11.321
65414W        W37030  28.702  20.073   3.662
65415W        W37031  11.586  43.261   2.731
65416W        W37032   6.329  31.672   1.682
65417W        W37033  23.659  11.356  13.252
65418W        W37034   8.619  19.632   3.367
65419W        W37035  17.556  17.775   2.293
65420W        W37036  33.631   7.893  11.653
65421W        W37037  24.175  44.852  14.414
65422W        W37038  13.124  18.152   2.730
65423W        W37039   1.929  21.472   0.342
65424W        W37040  20.020  30.412   4.587
65425W        W37041  13.329  31.210  12.670
65426W        W37042  11.880  34.306   3.805
65427W        W37043  41.932  39.038  10.662
65428W        W37044  16.420   5.296  11.612
65429W        W37045  21.331  10.804  13.026
65430W        W37046   9.242  33.391  12.889
65431W        W37047   4.474  22.276  13.532
65432W        W37048   9.429  26.717   1.410
65433W        W37049  32.710   8.176  10.666
65434W        W37050  44.268  17.247   1.777
65435W        W37051  35.881  34.960   4.117
65436W        W37052  23.979   1.713  13.255
65437W        W37053  40.896  23.740   1.078
65438W        W37054  35.358  20.649  14.456
65439W        W37055   2.725   3.387   2.583
65440W        W37056  29.599  34.852  14.863
65441W        W37057  11.895  15.121  13.551
65442W        W37058   0.624  15.304   4.638
65443W        W37059  27.680  17.271  13.952
65444W        W37060   4.341  43.758   0.406
65445W        W37061   9.138  26.603   4.058
65446W        W37062   4.358  11.631   1.372
65447W        W37063  38.829  32.984  12.212
65448W        W37064  34.814  12.111   1.799
65449W        W37065  23.427  41.879   2.265
65450W        W37066  28.648  31.928   0.990
65451W        W37067  36.413  13.882   1.332
65452W        W37068  44.001   4.241   3.279
65453W        W37069   6.653  17.047  10.930
65454W        W37070   5.208  25.472  13.318
65455W        W37071  10.370   3.375   1.234
65456W        W37072  16.549  17.787   4.930
65457W        W37073  40.236  37.113   2.305
65458W        W37074   1.479  32.432   0.042
65459W        W37075  27.969   1.843   0.403
65460W        W37076  26.772  11.073  11.124
65461W        W37077  37.816  42.006   2.272
65462W        W37078   7.851  24.572  14.935
65463W        W37079  37.314  37.703  11.254
65464W        W37080  34.271  35.436  14.322
65465W        W37081  18.159  27.515  14.766
65466W        W37082  17.621   2.744  11.550
65467W        W37083  14.030  16.687   5.031
65468W        W37084  23.033   7.343   2.808
65469W        W37085  29.787   6.253   1.770
65470W        W37086   7.665  14.086   4.580
65471W        W37087   0.208  44.916  13.151
65472W        W37088   2.529  15.150  14.685
65473W        W37089  18.328  18.579  12.729
65474W        W37090  11.739  28.806  10.296
65475W        W37091  14.206  32.100   9.886
65476W        W37092  32.559  21.766  14.921
65477W        W37093   6.187  22.953  10.388
65478W        W37094  19.571  29.205  13.070
65479W        W37095  23.922  26.500   4.925
65480W        W37096   8.454  21.021   0.986
65481W        W37097  39.532  33.527   4.378
65482W        W37098  21.899  44.878  11.482
65483W        W37099  11.574  27.945   2.637
65484W        W37100   0.534  27.416  12.025
65485W        W37101   4.700  36.302  12.996
65486W        W37102  19.046   9.488  13.506
65487W        W37103   0.419  33.399  12.047
65488W        W37104  15.747  40.841  12.017
65489W        W37105  15.520  35.854  14.785
65490W        W37106  17.624  17.161   4.212
65491W        W37107  27.570  44.566   4.561
65492W        W37108   4.741  37.006   2.322
65493W        W37109  13.675  13.086  10.635
65494W        W37110   0.991  13.770   0.309
65495W        W37111  16.186  22.561   3.856
65496W        W37112  13.195   5.019  14.310
65497W        W37113  20.676  12.825   4.538
65498W        W37114   9.892  25.658  11.649
65499W        W37115  38.805  30.558   0.723
65500W        W37116   2.318  34.317  14.915
65501W        W37117  32.412  24.988  13.835
65502W        W37118  39.889  15.052  13.855
65503W        W37119  15.255   8.403   0.752
65504W        W37120   0.313  24.060   2.462
65505W        W37121  12.558  17.064   2.888
65506W        W37122  26.963   2.057   2.359
65507W        W37123   2.448  22.508   1.427
65508W        W37124  27.986  15.202  12.245
65509W        W37125  29.579  24.721   1.612
65510W        W37126  17.687  16.269   4.591
65511W        W37127  17.745  34.928   2.206
65512W        W37128  42.302  12.661   3.934
65513W        W37129  42.975  27.038  12.903
65514W        W37130  43.979  10.410  12.672
65515W        W37131   0.969   7.278   2.234
65516W        W37132  33.529  33.965   3.980
65517W        W37133  44.560   6.080  10.327
65518W        W37134  38.221  24.559  11.086
65519W        W37135  15.789   9.663   2.675
65520W        W37136  33.916  32.456  14.516
65521W        W37137   7.192   6.751   1.394
65522W        W37138  44.314  35.699   1.291
65523W        W37139  33.767   2.368  10.686
65524W        W37140  26.088  11.504   1.436
65525W        W37141   2.780  41.784   0.865
65526W        W37142  27.661  39.986  11.070
65527W        W37143  25.632  22.517  12.409
65528W        W37144  43.902   1.478  13.813
65529W        W37145  43.331   2.440  11.941
65530W        W37146  20.847  44.302   4.043
65531W        W37147   2.765  42.859  14.988
65532W        W37148   4.606  21.298   4.741
65533W        W37149  16.645  15.758   2.928
65534W        W37150   5.216  27.174   4.594
65535W        W37151  41.616  43.788   0.225
65536W        W37152  12.668   7.793   4.004
65537W        W37153  42.808  19.113  12.080
65538W        W37154  30.925  31.207   0.021
65539W        W37155   0.845   6.653  14.097
65540W        W37156  24.807  41.112   2.785
65541W        W37157  34.657  33.207  13.014
65542W        W37158  33.764  34.472   3.173
65543W        W37159  17.579  34.401  11.573
65544W        W37160  11.042  30.669   3.190
65545W        W37161   8.471  43.902  11.962
65546W        W37162   0.747   0.898   4.584
65547W        W37163  34.549  13.763   0.008
65548W        W37164  24.993  18.198   3.417
65549W        W37165  25.291  19.642  11.069
65550W        W37166  14.964  43.026  12.527
65551W        W37167  27.605  38.819  12.518
65552W        W37168  39.973  37.133   3.627
65553W        W37169   5.389  19.147   3.831
65554W        W37170  23.980  15.238   0.411
65555W        W37171  40.567  42.767   1.025
65556W        W37172   2.587  37.528  13.004
65557W        W37173  41.617  25.249   1.862
65558W        W37174   7.357  33.924  10.895
65559W        W37175   3.788  40.333  14.314
65560W        W37176  30.426  44.796   0.238
65561W        W37177   8.338  26.172   0.474
65562W        W37178  21.000   1.933   9.790
65563W        W37179  12.089  19.460   2.120
65564W        W37180  38.994  39.290  12.944
65565W        W37181   7.896   6.157   1.248
65566W        W37182  26.086   9.599  13.878
65567W        W37183  18.128  35.612   1.729
65568W        W37184  21.769  19.833  13.439
65569W        W37185  16.866  11.972  14.407
65570W        W37186  15.657  26.561  13.908
65571W        W37187  20.762   6.841   2.937
65572W        W37188  16.160  34.439  10.619
65573W        W37189  19.078   0.524   3.631
65574W        W37190  29.727   8.225  13.424
65575W        W37191  20.260   2.647   4.284
65576W        W37192  20.611  39.419   0.291
65577W        W37193   1.270  39.462   4.944
65578W        W37194  37.010  14.838  13.429
65579W        W37195   2.199  40.666   4.653
65580W        W37196  43.328   6.604  11.033
65581W        W37197  28.826   2.152  14.582
65582W        W37198   2.853  44.830   2.650
65583W        W37199  36.988  15.190   3.290
65584W        W37200   6.329   5.032  11.275
65585W        W37201  10.657  29.491  13.618
65586W        W37202  12.086   0.743  13.333
65587W        W37203  21.294  38.530   0.054
65588W        W37204   1.200  25.720   2.303
65589W        W37205  21.534  40.748  12.192
65590W        W37206  35.961  32.459   0.326
65591W        W37207  12.381  11.184   1.666
65592W        W37208  29.174  36.360   2.424
65593W        W37209  21.848  37.585  10.607
65594W        W37210   6.872  30.215   1.344
65595W        W37211  15.317   7.631  12.010
65596W        W37212  21.750  36.826  14.414
65597W        W37213   0.292   6.740  12.172
65598W        W37214   2.988  23.929  14.383
65599W        W37215  44.249  38.018  10.516
65600W        W37216   2.042  37.878  14.345
65601W        W37217  42.065  14.241  13.601
65602W        W37218   6.155   7.873  14.452
65603W        W37219  29.173  36.410  13.712
65604W        W37220   1.987  15.146   3.115
65605W        W37221  33.049  29.413   2.467
65606W        W37222  14.810  11.780  13.458
65607W        W37223  30.767   8.569  12.464
65608W        W37224  17.954  44.343   3.755
65609W        W37225  30.002  44.511  10.545
65610W        W37226  18.724  44.409  14.236
65611W        W37227  39.497  40.989   3.686
65612W        W37228  19.860  23.621   2.711
65613W        W37229  26.375  14.479  10.913
65614W        W37230   3.238  20.074   3.429
65615W        W37231   7.453  15.460   3.370
65616W        W37232  20.783  19.081  10.730
65617W        W37233  28.441  43.173   3.371
65618W        W37234  27.103  28.964   1.918
65619W        W37235   0.100  19.476   3.101
65620W        W37236   4.852  19.114  10.648
65621W        W37237   7.138  16.509  11.602
65622W        W37238  37.833  40.728  10.930
65623W        W37239  12.440   9.165  14.393
65624W        W37240   4.546  19.257  13.241
65625W        W37241  35.790  29.577  12.970
65626W        W37242  22.045   2.403   0.424
65627W        W37243  17.529  18.690  13.379
65628W        W37244   3.996  44.606  11.452
65629W        W37245  39.801  18.853  14.483
65630W        W37246  14.573  18.084   4.089
65631W        W37247  41.470  30.850  14.229
65632W        W37248  23.541  21.309  13.489
65633W        W37249   9.373  44.477  14.743
65634W        W37250  16.075   6.543  14.467
65635W        W37251  44.431  22.970   1.860
65636W        W37252  26.499   6.105   1.588
65637W        W37253   0.288   5.127  12.828
65638W        W37254  30.876  18.781  14.294
65639W        W37255  19.009  10.062   5.038
65640W        W37256  22.073   3.449   3.064
65641W        W37257  26.610  33.674   1.856
65642W        W37258  10.898  44.194  13.956
65643W        W37259  12.749   5.799  10.234
65644W        W37260   9.010  20.969  13.063
65645W        W37261  35.876  39.993   0.754
65646W        W37262   4.523  35.415  13.675
65647W        W37263  32.323   9.301   1.222
65648W        W37264  22.501  31.659   0.293
65649W        W37265  19.648  39.464  12.856
65650W        W37266  37.975  23.694  12.712
65651W        W37267  32.123  35.882  14.825
65652W        W37268  18.120  15.916  11.011
65653W        W37269  13.685   1.807  13.787
65654W        W37270  17.575  40.313   3.848
65655W        W37271   7.934   2.200   3.127
65656W        W37272   6.785  26.636  12.001
65657W        W37273   2.693   7.376  11.199
65658W        W37274  36.658  35.306   2.660
65659W        W37275   0.126  43.051   0.023
65660W        W37276   1.811  13.861   2.374
65661W        W37277  25.571   7.021   4.247
65662W        W37278  14.777  27.096   0.629
65663W        W37279  23.066  43.176  14.556
65664W        W37280  27.036  43.054   0.662
65665W        W37281   5.146  12.570  11.077
65666W        W37282  42.418  23.634   3.661
65667W        W37283  26.574   8.028   0.301
65668W        W37284  29.259  22.309   1.706
65669W        W37285   4.499  10.644  13.938
65670W        W37286  27.464   4.637  12.903
65671W        W37287  16.370  10.310   1.491
65672W        W37288  21.823  36.874  11.204
65673W        W37289   9.881  12.869   2.266
65674W        W37290  35.443  34.101  13.828
65675W        W37291   4.706  14.250  10.627
65676W        W37292  21.175  11.171   3.129
65677W        W37293  36.488  20.607   4.517
65678W        W37294  24.928  10.042   4.898
65679W        W37295  22.227  42.592  11.999
65680W        W37296  24.181   4.275   0.470
65681W        W37297  35.591  33.468   0.888
65682W        W37298   1.404  21.479   2.321
65683W        W37299  28.160  25.532  10.684
65684W        W37300  29.639  27.441   0.892
65685W        W37301  39.759  41.080   1.390
65686W        W37302  21.146  11.659   3.253
65687W        W37303  39.926  34.786  10.659
65688W        W37304   1.787  29.473   0.483
65689W        W37305  22.183  34.416  12.615
65690W        W37306  28.614  11.111   2.258
65691W        W37307   6.698  31.149   1.253
65692W        W37308  29.072   8.265   3.119
65693W        W37309  31.608  24.658  14.288
65694W        W37310   9.220   7.181  14.297
65695W        W37311  17.848  22.890   1.789
65696W        W37312  44.608  42.260   0.244
65697W        W37313  35.101  32.969  13.237
65698W        W37314  34.696  37.336   2.578
65699W        W37315  24.129  35.466   4.928
65700W        W37316  14.417  33.415   4.173
65701W        W37317  37.642   8.206  11.470
65702W        W37318   4.992  20.091   1.971
65703W        W37319   2.660  21.667   9.748
65704W        W37320  15.661  11.740   0.690
65705W        W37321  25.608  22.727  11.122
65706W        W37322  34.907  10.254  11.511
65707W        W37323  32.749  18.079   0.330
65708W        W37324  23.500  14.784   1.910
65709W        W37325  32.423  38.784  11.958
65710W        W37326  29.112  28.953   0.802
65711W        W37327  14.558  43.267   1.627
65712W        W37328   0.676  22.268   4.176
65713W        W37329  12.661   6.932  13.754
65714W        W37330  18.835  40.560   0.933
65715W        W37331  14.254  15.539   1.360
65716W        W37332  27.651  26.542   0.875
65717W        W37333  38.105  27.674   1.508
65718W        W37334  27.865   6.158   4.114
65719W        W37335  36.578   9.295   4.610
65720W        W37336  20.163   6.923   2.783
65721W        W37337  14.071   3.824  14.563
65722W        W37338  18.630  21.332  14.365
65723W        W37339  21.062  12.602  13.928
65724W        W37340   1.378   4.137   0.576
65725W        W37341  27.173  37.538  10.441
65726W        W37342  42.614  39.350   4.588
65727W        W37343  34.276  35.478   3.895
65728W        W37344  18.056   1.930   3.813
65729W        W37345  20.191  35.028  11.422
65730W        W37346  43.119  28.612   3.341
65731W        W37347  11.711   3.054  14.014
65732W        W37348  12.725  30.568   0.395
65733W        W37349   2.738  25.969  14.332
65734W        W37350  35.781  14.295   4.433
65735W        W37351  17.943  25.775   3.229
65736W        W37352  34.585  17.633  14.987
65737W        W37353  37.597  26.377   3.786
65738W        W37354  24.137   0.389   1.368
65739W        W37355  28.922  35.080   1.305
65740W        W37356  27.922  24.180   1.716
65741W        W37357  17.113  25.306  10.312
65742W        W37358   1.949   3.731  13.504
65743W        W37359  13.301  15.493   1.421
65744W        W37360  14.148  29.209   2.834
65745W        W37361  26.726  10.740  13.948
65746W        W37362  13.793   0.555  14.408
65747W        W37363  10.012  21.159  12.763
65748W        W37364  13.405  33.789  12.717
65749W        W37365  17.154  18.313  13.980
65750W        W37366  31.898  18.694   1.731
65751W        W37367  37.865  14.356   4.196
65752W        W37368  20.235  37.121  12.961
65753W        W37369  21.111  24.221  14.729
65754W        W37370  11.636  31.511  12.333
65755W        W37371  23.035  29.088  10.701
65756W        W37372  43.545   2.443   1.721
65757W        W37373  15.850  15.182   2.931
65758W        W37374  31.679  35.344  14.487
65759W        W37375   5.159  42.832  10.456
65760W        W37376  40.368   4.286   0.247
65761W        W37377  17.680  12.174  12.164
65762W        W37378  15.881  18.541   2.462
65763W        W37379   9.273  18.622   3.126
65764W        W37380  29.957  10.378  10.050
65765W        W37381  36.036  20.176  12.053
65766W        W37382   2.484  43.077  11.207
65767W        W37383  29.912  26.225  14.822
65768W        W37384   5.840  16.562  13.407
65769W        W37385  35.966  28.733   2.935
65770W        W37386  10.587  16.099  11.976
65771W        W37387  26.455   9.226  12.603
65772W        W37388  13.182  32.363  13.917
65773W        W37389  28.580  15.813   0.969
65774W        W37390   2.318  41.593  10.723
65775W        W37391  23.861  38.550  11.375
65776W        W37392  38.441  10.823  14.500
65777W        W37393  29.476  19.491  11.969
65778W        W37394  41.070  30.943   0.250
65779W        W37395  43.810  31.546   0.490
65780W        W37396  16.198  32.351  13.376
65781W        W37397  41.790  39.903   4.241
65782W        W37398  11.601  11.370  11.737
65783W        W37399  20.804  44.709   1.899
65784W        W37400   6.400   4.957   3.618
65785W        W37401  13.808  19.750   4.642
65786W        W37402  41.037  34.202  14.856
65787W        W37403  41.367  23.703  11.458
65788W        W37404  15.375  17.316   4.542
65789W        W37405  14.878  12.686   4.543
65790W        W37406  10.806  44.699  13.927
65791W        W37407  33.390  30.225   4.563
65792W        W37408  30.782  11.362   3.574
65793W        W37409  41.932   8.330   0.453
65794W        W37410   3.819   1.413  10.615
65795W        W37411  17.020  23.274  12.841
65796W        W37412  43.915  29.188   3.099
65797W        W37413   2.454  20.742  10.643
65798W        W37414  18.234  18.064  12.572
65799W        W37415  42.845  43.409   2.228
65800W        W37416  35.992  25.125  11.170
65801W        W37417   1.226  17.933   1.334
65802W        W37418   7.199  18.788   0.812
65803W        W37419  14.426  21.140  14.405
65804W        W37420  16.309   1.850  11.439
65805W        W37421  22.050   1.732   1.826
65806W        W37422  23.436  32.520   1.289
65807W        W37423  41.776  27.739  13.777
65808W        W37424  20.097  42.467  10.140
65809W        W37425  23.578  43.766   3.795
65810W        W37426  15.050  35.703  12.570
65811W        W37427  27.034  36.630   3.133
65812W        W37428  12.495  31.397   1.300
65813W        W37429  26.717  20.171   4.300
65814W        W37430  25.910  33.479   4.214
65815W        W37431  21.300  42.014  12.789
65816W        W37432  18.130  24.170   3.700
65817W        W37433  17.624  40.908   0.690
65818W        W37434  14.278  32.408  13.772
65819W        W37435  41.112  14.714  12.376
65820W        W37436  30.153  29.991  14.124
65821W        W37437  33.674  34.306  10.785
65822W        W37438   8.804   7.798   3.608
65823W        W37439   1.918  40.010   1.919
65824W        W37440  14.152  16.763  14.714
65825W        W37441  41.774  24.173   3.169
65826W        W37442  44.498  25.034  12.325
65827W        W37443   6.519  35.407   2.981
65828W        W37444  33.027   4.032   4.541
65829W        W37445   5.596  25.126  11.138
65830W        W37446   8.659  41.083   0.984
65831W        W37447  15.845   9.781  12.458
65832W        W37448   7.310  23.248  14.190
65833W        W37449  24.722   8.925  14.825
65834W        W37450  22.954  26.233  11.599
65835W        W37451   4.698  34.445  13.002
65836W        W37452  31.107  11.299  10.955
65837W        W37453  15.704  25.092  10.309
65838W        W37454  18.090   3.033   1.333
65839W        W37455  22.208  26.779  14.065
65840W        W37456  35.643  25.079  12.841
65841W        W37457  19.157  28.134  11.217
65842W        W37458   8.752  40.892   0.116
65843W        W37459  28.984  34.402  14.063
65844W        W37460   4.282   9.609  13.566
65845W        W37461  37.818  20.007   2.799
65846W        W37462  23.228  33.651  11.571
65847W        W37463  18.136   1.405   0.251
65848W        W37464   4.994  27.546  12.982
65849W        W37465  18.706  44.949   5.631
65850W        W37466  14.850  14.595   0.971
65851W        W37467  21.239  39.300  12.016
65852W        W37468  24.628  21.984  12.466
65853W        W37469  10.798   3.695   0.742
65854W        W37470   8.668  40.523   2.785
65855W        W37471   0.767  21.104   0.229
65856W        W37472   4.448  22.698   0.411
65857W        W37473  24.703  44.227   4.635
65858W        W37474  28.107  25.566  14.824
65859W        W37475  18.049  18.572   1.931
65860W        W37476  12.270  21.206   2.569
65861W        W37477  24.296  34.497   4.259
65862W        W37478  21.487  34.143  11.138
65863W        W37479  18.629  20.118  13.663
65864W        W37480  33.246  32.885   2.241
65865W        W37481  17.701  13.505  14.200
65866W        W37482   4.112   1.863  13.105
65867W        W37483  40.284  12.391  11.149
65868W        W37484  33.198  30.365  14.980
65869W        W37485  22.114  32.907   4.499
65870W        W37486   8.931  21.177  14.941
65871W        W37487  23.585  37.537   3.709
65872W        W37488  38.314  20.166  14.840
65873W        W37489   7.131   8.157   1.593
65874W        W37490  10.020  15.929  11.064
65875W        W37491  44.067  35.907  11.633
65876W        W37492  13.753  19.976  13.049
65877W        W37493   0.427  32.622   1.034
65878W        W37494   9.161  18.808  14.325
65879W        W37495  42.931  16.832   3.625
65880W        W37496  26.234  17.208  13.622
65881W        W37497  25.989   6.640  11.993
65882W        W37498  10.652  19.562   3.277
65883W        W37499   8.005  40.065  14.443
65884W        W37500   7.295  12.401   4.034
65885W        W37501   0.117  12.737  12.524
65886W        W37502  35.224  29.068  13.455
65887W        W37503  20.827  19.506   0.840
65888W        W37504  18.651  40.404  13.594
65889W        W37505  21.186  15.065   1.419
65890W        W37506  39.647   8.556  14.481
65891W        W37507  42.731  38.340   1.735
65892W        W37508  39.438  17.521  10.670
65893W        W37509  23.160  37.804   0.833
65894W        W37510  28.522  13.609  14.024
65895W        W37511   2.747  21.268   2.730
65896W        W37512  20.751  33.622   0.425
65897W        W37513  41.996  44.218  13.786
65898W        W37514  15.557  14.823  11.490
65899W        W37515  13.265  35.855   0.892
65900W        W37516   2.682   9.848   2.400
65901W        W37517   5.742  38.305   0.271
65902W        W37518  24.967  37.885  13.256
65903W        W37519  38.345  23.530  13.864
65904W        W37520  14.770   8.626  14.324
65905W        W37521  10.134  18.799  14.283
65906W        W37522  12.878  21.540  13.407
65907W        W37523  23.097  35.830  12.438
65908W        W37524  30.123  24.223  12.263
65909W        W37525   0.401   1.486  12.720
65910W        W37526  16.667  34.643  10.732
65911W        W37527  27.128  28.119  11.211
65912W        W37528  38.524  19.087  13.405
65913W        W37529  16.041  26.965   4.277
65914W        W37530  23.663  43.416   4.711
65915W        W37531  41.384  42.734   2.762
65916W        W37532  18.108   1.779  13.390
65917W        W37533   7.059  25.884   4.211
65918W        W37534  28.422  13.097  14.947
65919W        W37535  36.461  33.088   0.072
65920W        W37536  36.642  28.131  11.196
65921W        W37537  18.443  17.429  11.056
65922W        W37538  31.159  33.906  14.435
65923W        W37539  12.869   9.749   2.740
65924W        W37540   8.272   2.952  11.733
65925W        W37541   0.358  21.060   1.313
65926W        W37542  39.108  15.134   3.099
65927W        W37543  18.628  23.921   3.124
65928W        W37544  41.014   6.013  11.585
65929W        W37545   6.216  41.575  11.128
65930W        W37546  44.162  26.068  10.006
65931W        W37547   1.805   6.836  14.575
65932W        W37548   1.466  42.173   5.072
65933W        W37549  18.618   7.244  12.112
65934W        W37550  33.453  44.841   3.935
65935W        W37551  11.030  32.550   4.412
65936W        W37552   3.222  37.626  14.577
65937W        W37553  21.693  12.945   1.329
65938W        W37554  11.475  43.774   4.202
65939W        W37555   9.043   4.176   0.247
65940W        W37556  29.658   6.262  13.508
65941W        W37557  26.942  43.085  12.792
65942W        W37558   3.407  37.143   2.734
65943W        W37559  22.113  32.486  14.724
65944W        W37560  37.755  44.702   3.623
65945W        W37561  18.172   6.187  12.464
65946W        W37562  22.702  35.744   1.429
65947W        W37563  17.070  32.128  12.471
65948W        W37564  22.547  31.406   2.256
65949W        W37565  23.141  37.588  12.813
65950W        W37566  39.929  11.092  10.764
65951W        W37567  22.099   0.381  10.518
65952W        W37568  23.694  30.663   1.366
65953W        W37569  21.037   0.420   4.662
65954W        W37570  14.090  21.008   4.282
65955W        W37571   7.913   0.311  12.378
65956W        W37572   8.269  18.767   0.253
65957W        W37573  17.099  37.428  10.044
65958W        W37574   4.277  35.255  11.474
65959W        W37575   7.347  42.027  12.446
65960W        W37576  26.249  18.498  12.066
65961W        W37577  34.028  43.035  14.335
65962W        W37578  17.551  15.080  12.087
65963W        W37579   5.191  22.797   3.176
65964W        W37580   4.177  18.364  12.509
65965W        W37581  27.183  44.809  13.906
65966W        W37582  14.792  20.650  12.900
65967W        W37583  27.408  44.585  14.748
65968W        W37584   4.925   9.280  11.988
65969W        W37585   8.766  39.570  14.580
65970W        W37586  21.633   6.309   1.906
65971W        W37587  24.763   9.756  14.261
65972W        W37588  41.542   3.444   0.068
65973W        W37589  37.289  31.240  12.426
65974W        W37590  44.367  11.861  12.245
65975W        W37591  38.046  14.366  13.259
65976W        W37592  31.426   7.361  14.428
65977W        W37593  24.241  39.522  12.474
65978W        W37594  23.677  26.247  13.951
65979W        W37595  28.409   2.941   0.425
65980W        W37596  23.716  44.952   3.242
65981W        W37597  25.964  27.407   1.363
65982W        W37598   7.956  25.129  14.117
65983W        W37599  14.816  39.470  11.477
65984W        W37600  41.199  40.288   0.382
65985W        W37601  36.991  43.027   2.292
65986W        W37602  42.085   8.189  12.391
65987W        W37603  35.839  37.115  11.183
65988W        W37604  16.784   7.869  11.911
65989W        W37605  29.103   8.371  12.611
65990W        W37606   7.715  24.145   4.603
65991W        W37607  36.342  29.980  14.091
65992W        W37608   6.510   1.238   2.361
65993W        W37609   7.676  10.433  14.543
65994W        W37610  20.575  37.081  12.502
65995W        W37611   4.460   3.296   1.883
65996W        W37612  37.116  15.218   1.789
65997W        W37613   8.699  13.349   1.287
65998W        W37614   2.003  17.186  13.386
65999W        W37615  17.632   3.484  11.029
66000W        W37616  11.685  39.091  14.603
66001W        W37617  37.459  27.954  13.459
66002W        W37618  28.073  15.186   1.926
66003W        W37619  41.826  34.622  12.982
66004W        W37620  42.419  15.963  14.408
66005W        W37621  28.445  15.289  12.025
66006W        W37622  36.349   4.333   4.904
66007W        W37623  17.654  37.584  13.353
66008W        W37624  35.907   3.365   4.086
66009W        W37625  24.618  26.932   4.603
66010W        W37626  36.542  22.462  11.920
66011W        W37627  32.435  43.431  10.630
66012W        W37628  39.648  35.961  14.522
66013W        W37629  26.574  41.494  13.780
66014W        W37630  19.229  14.695  11.731
66015W        W37631  12.328  31.385   0.403
66016W        W37632  43.882  14.277   2.424
66017W        W37633  13.414  24.047   2.399
66018W        W37634   3.788  24.351  14.262
66019W        W37635  27.678  27.371  12.464
66020W        W37636  32.878  12.387  11.526
66021W        W37637   3.821  18.187   5.215
66022W        W37638  33.655  31.899   4.997
66023W        W37639  26.612  37.520   1.331
66024W        W37640  41.715  26.023  11.012
66025W        W37641  32.535  30.450  10.338
66026W        W37642  15.121  37.515  11.911
66027W        W37643  31.385   7.696  13.681
66028W        W37644  16.571   1.243  14.973
66029W        W37645  25.505  28.419   2.743
66030W        W37646  30.055   5.701   0.837
66031W        W37647  35.577  27.874  12.572
66032W        W37648   1.780   1.373  13.153
66033W        W37649   7.626   6.673  11.373
66034W        W37650  32.135  36.088   1.255
66035W        W37651  36.757  29.426   1.806
66036W        W37652   5.147  29.169  13.366
66037W        W37653   4.619   3.096   4.346
66038W        W37654  15.624  11.278  13.877
66039W        W37655  40.992  41.892  13.810
66040W        W37656  26.764   5.739   4.622
66041W        W37657  13.677  35.995  12.277
66042W        W37658  24.512  14.361  12.639
66043W        W37659  24.457   4.910  13.954
66044W        W37660  24.686  30.893   2.305
66045W        W37661  31.551  16.191   3.511
66046W        W37662  36.905   7.377   1.198
66047W        W37663  25.840  16.753  10.860
66048W        W37664   9.607  18.192   4.678
66049W        W37665  23.566  23.130  11.075
66050W        W37666  33.716   4.500  12.423
66051W        W37667  19.610  14.121   1.830
66052W        W37668  22.775  10.213  11.255
66053W        W37669   5.509   5.868   2.656
66054W        W37670   9.006  25.456   4.087
66055W        W37671  12.382  31.845  11.135
66056W        W37672  14.446  36.042  12.029
66057W        W37673  27.704  24.113  10.620
66058W        W37674  15.607  31.128   0.660
66059W        W37675  13.938  32.538   4.607
66060W        W37676   0.851  22.086   2.710
66061W        W37677  20.821  42.973   1.281
66062W        W37678   8.861   2.336  13.384
66063W        W37679  17.286  20.046   3.154
66064W        W37680   4.763  28.664   3.299
66065W        W37681  17.663   9.874  14.338
66066W        W37682   5.646   7.093  11.764
66067W        W37683  32.846   3.286  14.892
66068W        W37684  32.554  28.153   4.833
66069W        W37685  34.532   3.406   3.858
66070W        W37686  32.948  36.588   0.293
66071W        W37687  21.674  27.517   0.485
66072W        W37688  21.436   7.262   1.925
66073W        W37689  21.165  42.406  13.600
66074W        W37690  43.560  29.929   4.723
66075W        W37691  15.253  42.917  12.966
66076W        W37692  31.004   0.843   4.857
66077W        W37693  25.967  17.600  12.900
66078W        W37694  22.047  15.081   1.321
66079W        W37695  15.303  27.935  10.807
66080W        W37696   6.077  38.017  13.102
66081W        W37697  43.176  20.694   4.229
66082W        W37698  36.121  40.012  14.346
66083W        W37699   0.874  10.264   3.679
66084W        W37700  21.105  20.800  13.315
66085W        W37701  39.897  37.847   3.051
66086W        W37702  18.049   8.427  11.615
66087W        W37703  35.152  27.619  14.886
66088W        W37704  28.031   7.113  10.829
66089W        W37705  17.317   0.929   0.346
66090W        W37706  34.851  12.880   1.144
66091W        W37707   4.633  18.388   5.056
66092W        W37708  10.988   7.693   3.533
66093W        W37709   1.163   0.947  11.147
66094W        W37710  13.636  33.556   4.644
66095W        W37711  13.521   2.301  11.044
66096W        W37712  15.239  34.445   2.221
66097W        W37713  27.034  34.441  14.365
66098W        W37714  30.481  44.436  10.728
66099W        W37715  10.667   1.304  11.019
66100W        W37716  10.849  40.485   0.471
66101W        W37717  15.690   9.557  10.736
66102W        W37718  22.974   8.948   2.016
66103W        W37719  10.933  16.868  13.043
66104W        W37720   8.270  12.835  13.767
66105W        W37721  26.774  35.160   0.569
66106W        W37722  19.234  44.494   0.538
66107W        W37723   9.134  24.994   3.873
66108W        W37724  32.014  36.929   4.794
66109W        W37725  19.586  34.433  13.360
66110W        W37726  38.331   0.488  13.334
66111W        W37727  13.710  31.150  11.029
66112W        W37728   1.974  18.016   1.803
66113W        W37729  28.586  42.144   0.479
66114W        W37730  42.089  17.127  10.464
66115W        W37731  37.876   3.881   0.453
66116W        W37732   1.329  26.062  13.824
66117W        W37733  20.094  28.089   0.414
66118W        W37734  18.441  21.001   4.987
66119W        W37735  23.239  41.249  11.704
66120W        W37736  23.007  17.247  12.587
66121W        W37737  41.827  30.394   4.525
66122W        W37738  28.163   8.961  13.890
66123W        W37739  19.503   3.551   2.624
66124W        W37740  41.976  37.460   1.828
66125W        W37741  24.613  42.390   2.212
66126W        W37742   3.208  31.622  14.913
66127W        W37743  10.266   8.363  14.336
66128W        W37744  37.814  35.586  12.394
66129W        W37745   7.181  40.811  12.899
66130W        W37746  28.392  22.585   0.931
66131W        W37747  23.086  33.505   3.878
66132W        W37748  42.394  26.079   0.781
66133W        W37749   1.192  29.446  12.067
66134W        W37750  21.140  44.385  10.862
66135W        W37751   5.783   3.772   0.500
66136W        W37752   6.383  26.468   2.216
66137W        W37753   3.127  20.327   4.303
66138W        W37754  34.822  23.096   4.075
66139W        W37755   4.812  33.847  13.880
66140W        W37756  27.946  41.559   4.056
66141W        W37757  28.453  38.074   4.532
66142W        W37758   8.019  22.511  10.859
66143W        W37759  33.426  35.821   4.749
66144W        W37760   0.796  27.480  14.350
66145W        W37761  15.297  12.858  14.875
66146W        W37762  21.638  20.749   4.644
66147W        W37763   2.987  22.164   5.091
66148W        W37764  10.526  13.030   1.244
66149W        W37765   9.742   7.409   3.239
66150W        W37766   2.717  10.220  13.800
66151W        W37767  34.398  15.847   2.703
66152W        W37768  10.345   6.264  13.051
66153W        W37769   6.839  14.445  12.549
66154W        W37770  20.768   7.838  12.062
66155W        W37771  18.856  25.190   0.209
66156W        W37772  38.426  14.793  10.987
66157W        W37773  25.090  22.656   3.211
66158W        W37774  12.928   6.263   2.334
66159W        W37775  44.570  42.433  11.001
66160W        W37776  37.864  37.065   3.156
66161W        W37777  25.596  29.013   1.901
66162W        W37778   2.559   4.220  12.879
66163W        W37779   4.277   7.297  11.750
66164W        W37780  17.249   3.940   1.793
66165W        W37781   4.066  19.987   4.619
66166W        W37782   1.354  18.828   2.290
66167W        W37783  10.002   1.835  11.198
66168W        W37784   0.714   4.289   4.511
66169W        W37785  42.151  30.022   3.778
66170W        W37786  28.472  20.123  12.388
66171W        W37787  23.041  27.608   2.072
66172W        W37788  29.695  23.030  11.025
66173W        W37789  21.000  41.791   1.663
66174W        W37790   1.887  28.661   4.596
66175W        W37791  15.091  30.123   1.506
66176W        W37792  19.626   7.400  11.250
66177W        W37793  13.843   9.683   3.827
66178W        W37794  28.464  25.640  12.035
66179W        W37795   7.455  43.733   3.277
66180W        W37796  16.177  27.699   3.062
66181W        W37797   2.673  12.602  14.712
66182W        W37798  23.203  30.935   0.216
66183W        W37799  28.035  29.622   4.446
66184W        W37800  34.670  18.530   4.861
66185W        W37801  37.558  16.598  13.962
66186W        W37802   3.045  35.284   0.428
66187W        W37803  40.927  29.230  14.340
66188W        W37804  43.461   5.006  12.011
66189W        W37805  21.187  21.018   4.910
66190W        W37806  41.277  24.146  14.834
66191W        W37807  31.604  11.707  12.044
66192W        W37808  33.277  29.685   3.681
66193W        W37809   4.237  20.984   0.054
66194W        W37810  40.444  30.088  12.978
66195W        W37811  12.835   0.504   3.757
66196W        W37812  31.626  27.558   1.328
66197W        W37813  10.618  16.012  14.793
66198W        W37814  17.928   0.906  13.986
66199W        W37815  11.143   0.489   4.024
66200W        W37816   3.761  33.456  12.754
66201W        W37817  31.041  15.219  13.920
66202W        W37818  26.974  18.746   2.259
66203W        W37819  29.924  19.088   2.242
66204W        W37820   3.854  15.779   3.666
66205W        W37821   8.371  36.527  12.977
66206W        W37822  40.376  41.801   0.026
66207W        W37823  42.735   6.996  14.822
66208W        W37824  36.601  43.020   3.667
66209W        W37825   9.913   6.064   2.557
66210W        W37826  21.597   1.037   0.522
66211W        W37827   6.813  32.536  11.767
66212W        W37828  44.435   8.938   2.763
66213W        W37829  34.501  32.742  10.702
66214W        W37830  15.789  36.464   2.930
66215W        W37831   4.297   6.254  13.802
66216W        W37832   4.254  23.272  10.230
66217W        W37833  10.568  17.373   4.019
66218W        W37834  40.421  42.874   3.295
66219W        W37835  28.955   1.452   1.254
66220W        W37836  36.459   1.773   0.959
66221W        W37837  29.251  33.148  12.802
66222W        W37838  42.978  37.437   2.525
66223W        W37839  21.505  17.818   2.644
66224W        W37840  39.119  17.743  11.532
66225W        W37841  34.333  34.908  14.824
66226W        W37842  15.353  34.653  12.511
66227W        W37843  30.673   3.538   1.317
66228W        W37844  44.729  12.775   4.067
66229W        W37845  26.523   1.027  11.841
66230W        W37846   6.675  27.885  12.483
66231W        W37847  20.566  41.798  13.101
66232W        W37848  14.264  43.977  14.847
66233W        W37849  39.088   3.334   1.431
66234W        W37850  28.376  32.609   4.583
66235W        W37851  29.428  21.213  10.682
66236W        W37852  13.671  16.641   4.519
66237W        W37853   4.412  22.952   2.202
66238W        W37854  13.676  33.593  10.924
66239W        W37855  27.535  12.631   1.294
66240W        W37856  21.921  27.651  14.533
66241W        W37857  14.355  34.519   1.940
66242W        W37858   7.984  12.733   2.217
66243W        W37859  36.606  29.005   4.488
66244W        W37860  44.316  42.491   2.525
66245W        W37861   0.477  39.844   0.310
66246W        W37862  31.468   4.611   0.711
66247W        W37863  43.235  44.042   1.572
66248W        W37864   2.631  37.909   3.249
66249W        W37865  33.688  15.866   1.414
66250W        W37866  14.342   1.985  14.816
66251W        W37867  31.884  41.977  12.001
66252W        W37868   8.685  42.005  13.759
66253W        W37869  42.923  21.694   3.411
66254W        W37870  37.721  37.387  11.185
66255W        W37871  37.808   4.210   0.893
66256W        W37872   1.210  36.624   4.008
66257W        W37873  17.855  35.918   4.095
66258W        W37874   5.356  24.171   1.235
66259W        W37875   1.776  34.006  11.964
66260W        W37876   0.478  36.912  12.568
66261W        W37877  17.156  14.340   2.101
66262W        W37878  27.925  22.746   3.710
66263W        W37879  12.919  25.560   4.167
66264W        W37880  16.043  21.078  12.960
66265W        W37881  12.242  26.887   0.845
66266W        W37882  28.710  15.758  12.000
66267W        W37883  27.668  38.811  14.892
66268W        W37884  37.367  32.811  14.877
66269W        W37885  22.208  40.190  12.854
66270W        W37886   9.187  28.272  11.503
66271W        W37887   6.922   9.848   0.397
66272W        W37888  44.339  33.540   0.431
66273W        W37889   3.234   8.679   1.973
66274W        W37890   3.962  38.808   3.418
66275W        W37891  18.168  10.906   1.902
66276W        W37892   3.479  27.645   1.757
66277W        W37893  43.947  11.845  10.718
66278W        W37894  17.244  14.364  13.896
66279W        W37895  44.401  39.631  11.625
66280W        W37896  43.746  34.774   4.974
66281W        W37897  36.564  10.372   4.538
66282W        W37898  25.727  42.514  12.041
66283W        W37899   5.695  35.854   2.184
66284W        W37900   5.470  13.240   4.859
66285W        W37901   8.406  43.186   1.982
66286W        W37902  37.512  40.629   0.795
66287W        W37903   2.950  10.713   0.861
66288W        W37904  27.625  23.758  13.053
66289W        W37905  12.461  16.776  13.008
66290W        W37906  39.532  21.761  11.014
66291W        W37907   8.657   6.848   4.627
66292W        W37908  37.423  33.621  13.054
66293W        W37909  44.293  12.161  11.258
66294W        W37910  27.399  29.227   0.257
66295W        W37911  37.909  31.935  11.924
66296W        W37912  17.101  36.664   4.620
66297W        W37913  11.786  10.202   1.654
66298W        W37914  29.191  11.210  14.281
66299W        W37915  23.101  13.853  13.252
66300W        W37916  17.137  44.019   1.701
66301W        W37917  30.927  17.670  13.189
66302W        W37918  42.972  35.587  10.022
66303W        W37919  29.163  10.292  10.667
66304W        W37920   2.546  43.381   5.048
66305W        W37921  35.792  35.374   0.942
66306W        W37922  36.022  41.806   1.746
66307W        W37923  40.264  39.943   1.927
66308W        W37924   3.335  41.496  10.722
66309W        W37925  15.239  22.847  12.041
66310W        W37926  30.439  15.567  14.477
66311W        W37927  18.866  14.879   0.834
66312W        W37928  29.878   1.618   9.905
66313W        W37929  29.370  13.412   2.621
66314W        W37930  35.845  37.929  14.780
66315W        W37931  30.508  18.660   3.563
66316W        W37932  43.772   4.031  14.845
66317W        W37933  17.439  13.095   4.972
66318W        W37934  40.628  11.803   1.710
66319W        W37935  19.809  17.739  10.561
66320W        W37936  42.491  24.601  11.971
66321W        W37937  35.777  33.512  10.802
66322W        W37938  22.564   5.359  11.601
66323W        W37939  43.737   3.432   2.698
66324W        W37940  33.465  17.340   4.642
66325W        W37941  13.143  40.368  10.699
66326W        W37942  28.520  26.942   1.488
66327W        W37943  23.794  37.152   4.473
66328W        W37944   8.903  33.905   1.249
66329W        W37945   0.768  15.621  12.173
66330W        W37946   3.874   6.998   1.866
66331W        W37947  28.893  32.499   1.372
66332W        W37948  43.216  43.692   1.995
66333W        W37949  37.637  31.023   0.557
66334W        W37950  17.505  29.862   3.646
66335W        W37951   9.271  27.746   1.379
66336W        W37952  24.969  11.534   1.008
66337W        W37953  42.732  34.274  10.956
66338W        W37954  17.543  16.072  13.057
66339W        W37955  44.876  13.039  12.179
66340W        W37956  41.508   2.945  11.609
66341W        W37957  32.376  21.235  10.234
66342W        W37958   0.080  31.472  14.382
66343W        W37959  18.692  30.401   2.939
66344W        W37960  27.021   5.911   4.199
66345W        W37961  43.933  17.750   1.688
66346W        W37962   4.762  22.121   4.739
66347W        W37963  22.450  11.165  12.520
66348W        W37964  28.197  16.555  12.932
66349W        W37965  24.044  17.286   3.669
66350W        W37966  32.407  12.087  10.636
66351W        W37967   7.127  26.442  13.159
66352W        W37968  11.203  36.868  12.494
66353W        W37969  27.939  37.987   0.361
66354W        W37970  36.610  23.578   1.083
66355W        W37971  23.728   9.240  13.922
66356W        W37972  41.287  25.207  10.839
66357W        W37973   1.911  39.400  12.401
66358W        W37974  34.540  26.363  13.138
66359W        W37975  28.813   3.312   9.920
66360W        W37976  15.811  12.827   4.636
66361W        W37977  12.115  34.441  11.463
66362W        W37978  16.769  38.029   3.800
66363W        W37979  44.800   8.501  12.556
66364W        W37980  29.678  33.398  11.580
66365W        W37981   3.280   6.743  11.120
66366W        W37982  35.590  40.435   4.146
66367W        W37983   7.330  33.445  10.719
66368W        W37984  25.519  40.390   3.028
66369W        W37985  37.952  16.880   0.059
66370W        W37986   0.720   1.289  13.099
66371W        W37987  31.537  38.801   1.132
66372W        W37988  41.461  37.947   2.372
66373W        W37989  30.083  35.527   2.724
66374W        W37990  14.634  20.740   1.611
66375W        W37991  39.368  17.123  14.460
66376W        W37992   6.776  24.583   2.385
66377W        W37993  38.773   7.881  14.969
66378W        W37994  19.063  27.047   1.815
66379W        W37995  26.482  15.783   1.820
66380W        W37996  36.297   8.219  14.910
66381W        W37997  15.283  11.612  10.683
66382W        W37998  11.428  24.256  14.893
66383W        W37999  34.943  13.747   2.107
66384W        W38000  27.115  38.685   2.793
66385W        W38001  35.722  36.519  11.106
66386W        W38002   3.413   9.968  14.023
66387W        W38003  25.645  17.668  11.927
66388W        W38004  44.746  16.400  11.999
66389W        W38005  40.035   7.743  14.833
66390W        W38006   1.371   8.730  12.420
66391W        W38007  31.064  35.059   0.332
66392W        W38008  43.002  25.270   2.732
66393W        W38009  29.514  37.739  14.045
66394W        W38010  13.351  26.013   4.349
66395W        W38011  39.352  39.411  10.444
66396W        W38012  43.241  30.046  13.899
66397W        W38013  27.631  43.891   0.444
66398W        W38014   7.356  34.599   3.245
66399W        W38015  12.700  27.420   1.879
66400W        W38016  22.665  43.576  10.655
66401W        W38017  24.491   6.879  13.858
66402W        W38018  27.701  41.379   2.856
66403W        W38019  30.135  32.190  12.499
66404W        W38020  36.931  30.656   2.736
66405W        W38021  36.024  18.608  13.398
66406W        W38022  30.272  29.959   0.950
66407W        W38023  21.535   6.449  13.501
66408W        W38024  39.584  11.377   2.739
66409W        W38025   5.324  32.390  12.423
66410W        W38026  22.934  26.687   3.040
66411W        W38027  17.893  15.539  12.223
66412W        W38028  27.325  40.862  11.523
66413W        W38029  11.611  35.344  13.389
66414W        W38030  42.276  40.122  13.701
66415W        W38031   9.867  33.521   5.007
66416W        W38032  20.263  19.293  13.456
66417W        W38033   3.906  17.799  11.975
66418W        W38034  39.950  20.939  14.763
66419W        W38035  24.036  19.627  14.869
66420W        W38036   3.970  31.908   5.015
66421W        W38037  14.833   8.858   3.209
66422W        W38038  30.862  16.550  12.095
66423W        W38039  13.572  15.753   0.853
66424W        W38040   4.345  19.262  14.224
66425W        W38041  11.273   4.189  12.020
66426W        W38042  10.851  17.019  12.010
66427W        W38043  24.698   8.329   2.349
66428W        W38044   9.021  23.669   1.674
66429W        W38045  44.289   5.600   5.228
66430W        W38046   8.662  36.875   3.794
66431W        W38047  33.539  20.562   2.343
66432W        W38048  11.159  20.532   0.360
66433W        W38049  14.677   3.723  11.508
66434W        W38050   1.455  36.208   2.706
66435W        W38051   6.564  14.591  11.168
66436W        W38052   2.525   9.034  13.101
66437W        W38053   5.334  23.041   0.297
66438W        W38054  40.207  36.906  14.903
66439W        W38055   9.959  12.917   3.194
66440W        W38056  29.199  13.671  10.422
66441W        W38057  24.626  15.587   0.901
66442W        W38058  10.603  42.814  13.259
66443W        W38059  32.919  42.433   0.396
66444W        W38060  17.605  12.996   2.034
66445W        W38061  16.577  15.627  14.076
66446W        W38062  13.249  16.287  12.472
66447W        W38063  32.489  39.538   2.216
66448W        W38064  35.556   3.705   2.365
66449W        W38065  37.623  10.977  12.534
66450W        W38066  20.605   9.463  14.306
66451W        W38067  43.799   7.771   1.229
66452W        W38068  36.680   8.311   0.299
66453W        W38069  39.850  30.515   0.367
66454W        W38070  31.542  25.831   0.020
66455W        W38071  34.831  25.053  13.362
66456W        W38072  39.443  43.853   3.356
66457W        W38073  10.135  17.123   4.211
66458W        W38074  21.189  44.409   3.200
66459W        W38075  39.529  24.116  13.730
66460W        W38076  27.382   8.520   2.818
66461W        W38077  36.375  27.631  13.117
66462W        W38078  24.796  24.341  11.135
66463W        W38079  33.338  27.437   0.816
66464W        W38080  13.475  32.314  11.404
66465W        W38081  13.558  29.868  14.205
66466W        W38082  43.957  33.259  10.960
66467W        W38083  37.857  36.024   0.482
66468W        W38084   7.652  19.666   3.179
66469W        W38085   0.548   8.538  11.164
66470W        W38086  20.062  39.312   0.047
66471W        W38087   0.644  20.523  11.076
66472W        W38088  35.565  29.130   2.397
66473W        W38089  18.264  21.654  13.488
66474W        W38090  38.279  19.588  11.971
66475W        W38091  13.342   6.651   1.429
66476W        W38092  44.433  31.631   4.829
66477W        W38093  15.662  17.620  14.544
66478W        W38094  27.668   6.053   0.907
66479W        W38095  42.007   7.676   3.122
66480W        W38096  44.012  17.678   2.259
66481W        W38097   3.305  33.438  14.365
66482W        W38098   1.929  42.246   2.179
66483W        W38099  21.811  40.994  14.065
66484W        W38100  21.446  27.056  12.380
66485W        W38101  43.339  35.395  13.605
66486W        W38102  20.179  28.855  14.784
66487W        W38103  31.047  26.771   1.446
66488W        W38104  21.315  30.952  11.343
66489W        W38105  33.313  33.427  12.586
66490W        W38106  19.076  22.219  13.093
66491W        W38107  33.425  40.286   4.486
66492W        W38108  17.867   3.704  11.452
66493W        W38109  36.456  27.552  14.626
66494W        W38110  40.012  20.202   4.744
66495W        W38111  20.082  25.871  12.386
66496W        W38112  27.270   2.181  12.227
66497W        W38113  33.181   5.266   0.466
66498W        W38114   3.679  25.901  12.587
66499W        W38115   1.324   5.193  11.372
66500W        W38116  28.131   9.809  14.037
66501W        W38117  44.867  22.920   4.701
66502W        W38118  31.070  26.105  12.542
66503W        W38119   9.351  14.683   3.366
66504W        W38120  11.293  42.549   4.081
66505W        W38121  31.681   8.663   0.631
66506W        W38122  22.299   2.942   2.787
66507W        W38123  44.979  34.421  14.527
66508W        W38124   7.888  23.154  10.799
66509W        W38125  10.658  23.315  11.904
66510W        W38126  36.051   6.946   4.097
66511W        W38127  16.126  15.862   3.799
66512W        W38128  14.116  38.142  12.712
66513W        W38129   6.231  26.544  13.210
66514W        W38130  25.987  16.122  13.498
66515W        W38131   9.411  39.008   2.400
66516W        W38132  31.272  13.735   1.896
66517W        W38133   3.905  41.399   3.177
66518W        W38134  38.135  41.818   0.819
66519W        W38135   7.758  15.836   3.168
66520W        W38136   7.257   3.311  11.636
66521W        W38137  31.003  32.059  14.344
66522W        W38138   5.242   9.396   1.916
66523W        W38139  44.347  37.085   1.426
66524W        W38140  20.323  23.356  14.009
66525W        W38141  42.687  23.742   0.197
66526W        W38142  21.582  24.654  11.596
66527W        W38143  14.793  28.060  10.780
66528W        W38144  26.629  11.362   2.609
66529W        W38145   3.777  11.346   1.018
66530W        W38146  43.589  32.581   1.883
66531W        W38147  13.810  17.355  10.668
66532W        W38148   3.952  29.196  10.718
66533W        W38149  18.284  22.670  13.042
66534W        W38150  21.474  21.703  11.453
66535W        W38151  39.489  25.104   1.770
66536W        W38152  11.126  33.004   4.078
66537W        W38153  15.538  23.899  13.493
66538W        W38154  28.737   7.165  13.852
66539W        W38155  15.525  40.378  11.882
66540W        W38156  26.128   4.303  12.610
66541W        W38157  14.586  10.168   1.040
66542W        W38158  40.090  11.754   1.782
66543W        W38159  17.277  39.364  11.063
66544W        W38160  29.598  26.478   5.160
66545W        W38161  31.385  19.215  12.051
66546W        W38162  34.079   4.956   2.405
66547W        W38163  10.060  32.042   1.398
66548W        W38164  29.626  29.090   0.843
66549W        W38165   5.540  22.104   2.252
66550W        W38166  34.565  35.981   3.859
66551W        W38167  29.798  18.845   0.970
66552W        W38168  16.289  36.062  13.384
66553W        W38169  26.007  39.681   3.711
66554W        W38170  39.834  35.536   3.760
66555W        W38171  29.160  11.633  12.496
66556W        W38172  41.005   5.747   2.858
66557W        W38173  31.176  43.816   3.282
66558W        W38174  10.179  32.911   4.139
66559W        W38175  14.011   5.201  13.936
66560W        W38176  15.679  16.702  14.827
66561W        W38177  32.986  28.901   4.819
66562W        W38178  24.013  44.775  12.870
66563W        W38179  10.057  40.036  13.064
66564W        W38180  17.383  43.904  10.867
66565W        W38181  38.970   0.514   1.177
66566W        W38182   1.078  27.284  11.628
66567W        W38183  33.311  43.505   1.893
66568W        W38184  21.581   5.944  12.691
66569W        W38185  14.845  44.578   2.461
66570W        W38186  44.023  38.081   0.651
66571W        W38187  31.127  36.386   3.083
66572W        W38188  25.256  17.011   3.235
66573W        W38189  13.029  22.643  13.334
66574W        W38190  35.367  38.483   2.380
66575W        W38191  10.037  43.139  10.995
66576W        W38192  41.131  22.593   0.633
66577W        W38193  17.256  37.510  13.845
66578W        W38194  32.130   8.525   3.536
66579W        W38195  30.681  31.450  13.329
66580W        W38196  20.113  13.657  12.981
66581W        W38197  40.967  27.604  14.773
66582W        W38198  22.067   9.270   1.126
66583W        W38199  23.974  41.236  14.323
66584W        W38200  33.211  34.365   3.334
66585W        W38201  16.465   5.738  12.880
66586W        W38202  26.057  36.467   0.912
66587W        W38203  21.491  35.769  12.556
66588W        W38204   1.484  40.522   3.107
66589W        W38205   3.677   7.763  14.553
66590W        W38206  29.959  27.815  14.327
66591W        W38207  24.463  43.498  11.111
66592W        W38208  29.976  23.508  11.522
66593W        W38209  23.647   3.334   1.406
66594W        W38210  23.932   7.049   0.708
66595W        W38211  41.565   5.721  12.800
66596W        W38212   9.226  23.539  12.299
66597W        W38213  21.451   7.794  13.406
66598W        W38214  19.582  34.029   3.802
66599W        W38215  32.613  40.976   4.955
66600W        W38216  12.013  40.335   4.789
66601W        W38217  32.178  11.133   3.301
66602W        W38218   5.577   8.462   3.666
66603W        W38219  35.761  26.484   4.021
66604W        W38220  44.007  23.712   0.735
66605W        W38221  44.657  12.303  10.932
66606W        W38222   7.203  12.617  12.369
66607W        W38223   5.085   3.528   3.788
66608W        W38224  32.501  17.558   2.938
66609W        W38225  41.573  14.310   1.778
66610W        W38226   7.466  33.604   0.935
66611W        W38227  13.213  42.353  12.460
66612W        W38228  15.796  18.684   5.024
66613W        W38229   8.451   5.335  13.093
66614W        W38230  30.116  40.854  13.596
66615W        W38231   2.954  23.009  12.994
66616W        W38232  32.154  13.329  12.902
66617W        W38233  23.824   7.834   2.778
66618W        W38234  12.181   5.265  14.419
66619W        W38235   5.146  36.509   1.649
66620W        W38236   8.124  31.020   3.995
66621W        W38237  36.975   6.159   3.060
66622W        W38238   8.297  42.387  11.139
66623W        W38239   6.552   3.147  13.364
66624W        W38240  34.626  25.681   1.355
66625W        W38241  38.785   0.905  13.914
66626W        W38242  26.747  18.385  12.144
66627W        W38243  33.866  26.920  10.643
66628W        W38244   0.170  44.728  14.116
66629W        W38245  19.094   7.460  10.987
66630W        W38246  36.916  13.030  12.055
66631W        W38247  44.483   3.395   2.568
66632W        W38248  19.849   6.872   3.668
66633W        W38249  36.308  30.732  10.352
66634W        W38250   4.641  13.854   1.405
66635W        W38251  14.574   6.629  12.285
66636W        W38252   6.869  11.418  10.528
66637W        W38253  41.404  39.006   0.636
66638W        W38254  29.647   3.472   4.244
66639W        W38255  42.553  40.315  14.866
66640W        W38256  32.009  39.337   2.323
66641W        W38257   1.247  40.505  13.338
66642W        W38258   1.964  13.122   0.004
66643W        W38259   7.159  22.161  14.294
66644W        W38260  41.977  20.068  13.416
66645W        W38261  18.347  35.921  10.281
66646W        W38262   9.909  10.438   1.947
66647W        W38263  14.750  41.983  14.599
66648W        W38264   3.255  36.045  13.809
66649W        W38265   9.699  37.941   3.428
66650W        W38266  17.760  34.329   0.337
66651W        W38267  28.236   0.472  11.064
66652W        W38268  17.652  34.529  14.834
66653W        W38269  43.333   7.450  10.696
66654W        W38270  13.054   2.423   2.730
66655W        W38271  36.814  13.886   1.670
66656W        W38272  10.632  11.841  13.373
66657W        W38273  10.322  36.017   4.751
66658W        W38274  33.720  16.899   9.929
66659W        W38275   2.763  19.531  13.343
66660W        W38276  29.041  43.782   1.810
66661W        W38277  19.182  22.615  10.764
66662W        W38278   5.463  38.676   1.298
66663W        W38279  32.523   1.862  11.058
66664W        W38280   7.889  30.689   0.784
66665W        W38281  28.951  22.101   0.218
66666W        W38282  37.819   2.384  14.351
66667W        W38283   5.875  10.703   1.691
66668W        W38284  29.128  10.371  13.361
66669W        W38285  24.259  43.027   0.899
66670W        W38286  33.966  24.643   2.379
66671W        W38287  19.107  40.781  12.684
66672W        W38288  25.516   7.154  11.962
66673W        W38289  11.478   3.777  11.195
66674W        W38290   2.971   4.201  12.502
66675W        W38291  43.213   6.361   2.611
66676W        W38292  41.834  24.972  11.507
66677W        W38293  37.324  29.867  11.185
66678W        W38294  42.516  31.166   1.240
66679W        W38295   3.612  35.944   1.264
66680W        W38296  17.674   2.903   3.239
66681W        W38297  43.747  11.124   4.445
66682W        W38298   8.259  43.005   0.213
66683W        W38299   8.951  43.346  13.304
66684W        W38300  21.055  12.769   0.761
66685W        W38301  27.984  36.916  10.785
66686W        W38302  44.847  19.006   0.300
66687W        W38303  42.565   9.231  10.467
66688W        W38304  26.710  32.934   1.386
66689W        W38305   1.453  16.230  13.314
66690W        W38306   2.300   2.993  11.674
66691W        W38307  40.992  33.942   1.870
66692W        W38308  26.386  35.011   0.915
66693W        W38309  35.613  29.448  13.995
66694W        W38310  44.514  42.153   2.849
66695W        W38311  14.898  27.730  14.468
66696W        W38312  27.735  10.765  14.707
66697W        W38313   0.726  30.967  10.876
66698W        W38314   4.826   1.919   3.149
66699W        W38315  15.367  36.029   0.280
66700W        W38316   6.427  44.325  12.577
66701W        W38317   6.182  25.177   2.231
66702W        W38318   7.452   9.753  14.475
66703W        W38319  10.769   5.912   4.653
66704W        W38320   3.752  14.204  11.991
66705W        W38321   2.481  27.004   0.751
66706W        W38322  30.875  40.422  13.409
66707W        W38323  12.696  26.432  12.874
66708W        W38324  22.005  15.802  13.311
66709W        W38325  44.806  12.877  13.094
66710W        W38326  37.398  33.460  14.069
66711W        W38327   1.381  28.200   1.330
66712W        W38328   3.878  39.773   2.291
66713W        W38329  43.283  12.725   3.810
66714W        W38330   0.415  28.504  13.437
66715W        W38331   5.756   4.901   0.377
66716W        W38332  40.303   8.242   1.351
66717W        W38333  32.805  28.947  13.560
66718W        W38334  26.994   9.610  14.051
66719W        W38335  31.620  17.743   1.808
66720W        W38336  14.047  37.526  13.394
66721W        W38337  39.875  11.255   0.281
66722W        W38338  23.116   8.389  11.227
66723W        W38339  19.841  22.657  13.934
66724W        W38340  10.516   0.001  13.564
66725W        W38341  13.884  17.747  11.036
66726W        W38342  23.031  29.050  13.766
66727W        W38343  28.889   1.172   0.213
66728W        W38344  39.557  40.298   1.182
66729W        W38345  28.680  21.859  11.991
66730W        W38346   8.706  43.308   0.071
66731W        W38347  40.611  29.029   1.687
66732W        W38348  16.196  32.515  13.865
66733W        W38349   5.930  18.260   2.738
66734W        W38350  21.149  31.982  12.617
66735W        W38351  27.264  30.850  14.841
66736W        W38352   2.159  39.711  11.225
66737W        W38353  40.423  44.296   2.201
66738W        W38354  22.468   5.862  10.754
66739W        W38355   3.197  31.149   3.687
66740W        W38356  34.082   5.632   0.390
66741W        W38357  38.769  16.661  14.053
66742W        W38358   3.672  12.114  13.004
66743W        W38359  11.210  26.705  14.518
66744W        W38360  41.973   0.427  14.517
66745W        W38361  13.813  20.697  13.800
66746W        W38362   5.773  27.913   1.860
66747W        W38363   1.837  30.540   1.177
66748W        W38364   0.970  27.028  11.198
66749W        W38365  38.502  34.025  12.137
66750W        W38366  44.826  13.850  13.259
66751W        W38367  28.520  31.710   0.141
66752W        W38368  34.072  23.260  13.536
66753W        W38369  36.643  37.281  12.460
66754W        W38370  37.995  43.998   0.995
66755W        W38371  30.755  32.952   1.363
66756W        W38372  36.628  26.754   4.153
66757W        W38373  36.282  25.681  12.081
66758W        W38374  16.046  14.893   0.368
66759W        W38375   3.735   2.429   2.882
66760W        W38376  24.541  25.379  14.101
66761W        W38377  13.223  36.475  14.278
66762W        W38378  17.355   1.967  12.969
66763W        W38379  36.488  13.723   4.388
66764W        W38380  42.417  41.454   4.595
66765W        W38381  14.759  23.519  13.680
66766W        W38382  12.213  27.320  10.660
66767W        W38383  34.863  25.466  10.725
66768W        W38384  40.782  19.344   2.217
66769W        W38385   6.116  11.177  13.367
66770W        W38386  26.380  12.257  12.431
66771W        W38387  26.466  41.512  10.643
66772W        W38388  29.939  15.544   4.176
66773W        W38389  36.682  41.788   0.725
66774W        W38390  44.538  29.544   3.761
66775W        W38391   4.808  23.740   1.792
66776W        W38392  20.887   1.805   1.320
66777W        W38393   0.804   3.576  10.845
66778W        W38394  17.113  16.013   4.656
66779W        W38395  33.806  26.891  11.644
66780W        W38396  27.581  18.632   4.966
66781W        W38397  42.508  29.915   4.652
66782W        W38398   5.907  14.195  12.127
66783W        W38399  13.126   7.024   4.081
66784W        W38400  35.560  12.751   0.733
66785W        W38401  29.790  34.734   1.539
66786W        W38402   2.738   1.301  10.615
66787W        W38403  41.671   6.811  11.425
66788W        W38404  26.978   1.943   1.129
66789W        W38405  29.411  32.465   4.458
66790W        W38406  14.783  35.884   5.205
66791W        W38407  25.903  18.619   3.375
66792W        W38408  13.494  35.852  11.687
66793W        W38409  35.411   8.919   0.162
66794W        W38410  34.933   5.055  11.557
66795W        W38411  34.972  43.527   0.312
66796W        W38412   5.268   7.645   1.273
66797W        W38413  27.010  26.659  10.760
66798W        W38414  21.993  42.563   4.449
66799W        W38415   0.987  38.410   0.849
66800W        W38416  36.133  18.540   3.210
66801W        W38417  34.644  29.654  13.831
66802W        W38418   3.367  35.077  13.324
66803W        W38419  30.065  22.837   4.384
66804W        W38420  34.286   7.487  12.880
66805W        W38421  30.621   4.004   2.778
66806W        W38422  11.406  16.982  11.994
66807W        W38423  40.026  30.974  11.973
66808W        W38424  26.109  36.122   1.350
66809W        W38425   2.681  31.191  12.494
66810W        W38426  11.395  27.519  14.127
66811W        W38427  33.004   8.400  13.333
66812W        W38428  15.112  20.614  12.489
66813W        W38429  22.222  31.053   1.857
66814W        W38430   9.205  15.866   1.282
66815W        W38431  41.777  19.210   2.199
66816W        W38432  28.611  19.122  14.411
66817W        W38433  19.535   2.433  12.687
66818W        W38434  23.015  33.538   1.911
66819W        W38435  14.289   2.001  10.713
66820W        W38436   1.801  14.604   4.118
66821W        W38437  26.589  15.734   2.718
66822W        W38438  22.810  25.003   1.105
66823W        W38439  22.208  44.318  12.413
66824W        W38440  11.106  39.128  12.256
66825W        W38441   3.999  23.973   5.065
66826W        W38442   2.325  16.270  13.778
66827W        W38443  17.842   7.494   3.064
66828W        W38444  38.967  23.530   0.978
66829W        W38445   3.692  39.003  10.662
66830W        W38446  40.350  28.594  11.572
66831W        W38447  37.468  41.558   0.490
66832W        W38448   0.971  32.375  11.628
66833W        W38449  41.825  30.603   3.263
66834W        W38450  29.519  18.142   1.741
66835W        W38451   5.130   8.718   4.135
66836W        W38452  31.534  25.675   1.434
66837W        W38453  34.486  18.908   4.535
66838W        W38454  11.767  36.140  12.177
66839W        W38455  35.500  34.950   1.023
66840W        W38456  30.062  40.350   0.927
66841W        W38457  28.663  12.788  11.616
66842W        W38458  40.801  18.825  13.617
66843W        W38459  15.672  19.303  13.378
66844W        W38460  30.853  37.441   2.259
66845W        W38461  24.694  37.059   2.723
66846W        W38462  24.580  28.597  14.399
66847W        W38463  18.710  12.630   4.130
66848W        W38464   8.958   9.196   4.549
66849W        W38465  24.909  20.216   0.213
66850W        W38466   3.455  29.343   1.458
66851W        W38467  37.359   0.624  12.852
66852W        W38468  32.423  24.420   2.558
66853W        W38469   7.217  44.559   0.780
66854W        W38470   3.329  40.044  12.591
66855W        W38471   3.679  27.998  13.145
66856W        W38472  17.202  36.887  14.577
66857W        W38473   1.515  18.415   0.767
66858W        W38474  36.863  34.829  11.621
66859W        W38475  29.742  36.367   3.322
66860W        W38476  11.350  14.249   0.422
66861W        W38477  39.234   0.068   3.700
66862W        W38478  40.993  10.172  12.315
66863W        W38479  26.155  26.131   0.198
66864W        W38480  31.686  11.385  13.324
66865W        W38481  17.957  41.396   4.745
66866W        W38482  39.082  25.284  12.943
66867W        W38483  37.483   2.845  12.727
66868W        W38484  13.166   8.347  10.693
66869W        W38485  15.763  13.164   0.921
66870W        W38486  36.418  37.635  13.328
66871W        W38487   8.011   1.163  11.651
66872W        W38488  37.586  12.759  12.042
66873W        W38489  33.556  27.356  12.429
66874W        W38490  14.518  30.894   1.979
66875W        W38491  19.296  34.974  14.813
66876W        W38492  29.561  37.449  14.497
66877W        W38493  27.496  11.449  10.619
66878W        W38494  15.796  40.827   1.976
66879W        W38495  32.588  31.194   3.144
66880W        W38496  43.661   7.300  10.263
66881W        W38497  20.301  26.513  13.849
66882W        W38498   4.344   9.819  14.574
66883W        W38499  41.770  43.213   0.256
66884W        W38500  20.485  26.910   4.589
66885W        W38501   3.826   1.473   3.224
66886W        W38502  35.395  13.956   2.235
66887W        W38503  26.122   8.466   4.708
66888W        W38504  30.687  23.801  14.206
66889W        W38505  37.807  32.228   0.542
66890W        W38506  25.479   6.417  11.189
66891W        W38507  38.040  32.077   3.690
66892W        W38508   5.778   8.678   0.873
66893W        W38509  21.595  27.405  12.023
66894W        W38510   0.803  34.995  11.659
66895W        W38511  34.628  10.388  11.916
66896W        W38512  22.260  14.831   3.715
66897W        W38513  33.640  18.644   0.872
66898W        W38514  26.660  20.023  11.143
66899W        W38515  27.070  17.060   1.850
66900W        W38516  43.686  42.991   0.352
66901W        W38517  36.929  30.225  14.733
66902W        W38518  37.321  35.062  12.934
66903W        W38519   3.589  38.447   3.426
66904W        W38520  25.053  43.408   1.467
66905W        W38521  22.095  18.649  10.936
66906W        W38522  42.275  26.074   2.471
66907W        W38523   8.619   4.835  14.116
66908W        W38524   6.884   2.724   4.529
66909W        W38525  35.575   2.652  13.066
66910W        W38526  40.543  10.215   3.622
66911W        W38527  22.111   9.340  12.048
66912W        W38528  16.158  15.730   2.418
66913W        W38529  39.445  19.591  11.703
66914W        W38530  24.972  23.714   4.398
66915W        W38531  13.372  25.429  12.579
66916W        W38532  40.462  34.597   2.956
66917W        W38533  40.441   0.753   3.301
66918W        W38534  36.911  20.382  11.945
66919W        W38535   9.247   7.109   1.709
66920W        W38536  25.661  11.787  13.830
66921W        W38537  26.037   1.750   4.173
66922W        W38538   6.931  13.205  12.044
66923W        W38539  40.521  44.861   1.310
66924W        W38540  33.424  21.230   4.024
66925W        W38541   7.248  22.230   0.238
66926W        W38542   6.614  25.469  12.414
66927W        W38543  15.217  23.664   2.856
66928W        W38544   4.526  35.466   1.397
66929W        W38545  25.122  37.902   1.407
66930W        W38546  31.172  26.977   9.922
66931W        W38547  11.642   7.208  11.206
66932W        W38548   7.173  15.807  12.540
66933W        W38549  32.708  35.774  13.833
66934W        W38550  37.753  22.515  13.502
66935W        W38551  11.960   0.764  10.735
66936W        W38552  40.465  28.115   4.051
66937W        W38553  41.867   8.484  10.717
66938W        W38554  43.344  20.568   3.329
66939W        W38555  17.039  38.919   2.872
66940W        W38556   0.997  18.715  11.700
66941W        W38557  22.460   2.763  13.502
66942W        W38558  12.216  33.790   9.979
66943W        W38559  32.740   0.430  13.040
66944W        W38560  23.575   4.004   2.168
66945W        W38561  36.571   9.627  10.543
66946W        W38562  39.060  37.058   1.668
66947W        W38563  43.034  39.903  10.890
66948W        W38564   0.379  41.750  14.040
66949W        W38565  38.032   3.500   2.289
66950W        W38566  16.134  35.917   3.612
66951W        W38567  15.345  40.336   0.962
66952W        W38568  24.626  27.523   0.928
66953W        W38569   3.403  25.157   1.293
66954W        W38570  37.379  37.822  14.341
66955W        W38571  25.411   5.963  13.953
66956W        W38572  22.990  32.059   3.182
66957W        W38573   2.329   9.236   1.271
66958W        W38574  27.696  37.021  13.259
66959W        W38575  23.138  22.140  10.704
66960W        W38576   0.431  16.521   1.233
66961W        W38577  39.792  40.488  14.107
66962W        W38578  20.356   0.262   2.376
66963W        W38579  22.229  32.756   2.654
66964W        W38580   6.134  31.337  14.105
66965W        W38581  34.438  23.154  14.474
66966W        W38582  38.606  34.612   3.186
66967W        W38583  38.466  39.028   0.818
66968W        W38584  26.423  33.488  12.786
66969W        W38585   7.640  33.463  13.996
66970W        W38586  39.257  36.579   4.029
66971W        W38587  39.394  34.883   0.407
66972W        W38588  13.188  19.170  12.046
66973W        W38589  31.156  13.498  11.559
66974W        W38590  33.937   9.724   3.357
66975W        W38591  27.934  21.881   2.868
66976W        W38592  24.473  22.991   1.817
66977W        W38593  33.208  39.622   5.128
66978W        W38594   0.986  39.044  14.347
66979W        W38595  30.381  21.119   1.527
66980W        W38596  16.637  11.609   4.406
66981W        W38597  34.110  24.312   3.671
66982W        W38598  25.209  13.292  10.747
66983W        W38599  20.797  30.611   3.328
66984W        W38600  41.078  33.058   0.454
66985W        W38601  33.929   1.505   4.429
66986W        W38602  38.853  38.959   4.599
66987W        W38603   2.488  13.145   4.153
66988W        W38604   3.991  41.021   0.226
66989W        W38605  28.370   3.879  14.559
66990W        W38606   1.402  14.123  11.684
66991W        W38607  25.224   5.829   4.499
66992W        W38608  19.705   4.726   4.793
66993W        W38609   6.613  28.359  12.976
66994W        W38610  40.348  37.336   1.822
66995W        W38611   7.914  28.375  10.979
66996W        W38612  34.393  20.341   4.301
66997W        W38613  21.568  29.420   0.466
66998W        W38614   4.706   3.166   3.858
66999W        W38615  38.910  26.679   3.166
67000W        W38616   5.714   1.838  13.450
67001W        W38617  33.986  16.225   1.830
67002W        W38618  26.421  24.227   1.812
67003W        W38619  35.349  22.978  11.171
67004W        W38620  38.268   9.928  13.382
67005W        W38621  42.493  28.502   2.028
67006W        W38622  18.616  40.914   4.332
67007W        W38623  42.223  15.363  12.340
67008W        W38624  21.695  37.283   0.787
67009W        W38625  37.161   1.789   0.520
67010W        W38626  10.930  12.513  12.921
67011W        W38627   6.288  37.537   1.819
67012W        W38628   5.579  16.345   2.688
67013W        W38629  17.627   2.406  13.840
67014W        W38630   9.317  37.425  11.460
67015W        W38631  35.578  15.114   0.708
67016W        W38632   4.811  29.429   4.849
67017W        W38633  20.938  26.167  10.262
67018W        W38634  38.862   9.525   0.893
67019W        W38635  19.996  12.401   2.612
67020W        W38636  32.518  23.492   4.142
67021W        W38637  10.510  39.194   1.608
67022W        W38638  31.642  42.197  11.586
67023W        W38639  13.923  15.713  13.335
67024W        W38640  39.345   1.818  14.880
67025W        W38641  15.782  23.017  14.401
67026W        W38642  25.759  44.924  13.186
67027W        W38643  24.747  31.111  12.086
67028W        W38644  22.569  14.589   2.250
67029W        W38645  14.511  28.946   3.734
67030W        W38646   0.018   4.083   2.367
67031W        W38647  17.944  33.559  12.763
67032W        W38648  39.834  16.125  13.979
67033W        W38649  27.676   5.252   3.723
67034W        W38650  28.058  41.914  11.073
67035W        W38651  15.902  20.626   4.700
67036W        W38652  25.721  34.785   2.819
67037W        W38653   1.635  22.114   5.628
67038W        W38654  22.831  11.363  13.894
67039W        W38655  41.532   1.720  12.994
67040W        W38656  11.327  40.344  13.489
67041W        W38657  19.580   9.906  13.571
67042W        W38658  29.979  11.332   3.256
67043W        W38659  42.296  31.825  13.951
67044W        W38660  26.943   9.213   0.822
67045W        W38661  39.437  16.072   3.375
67046W        W38662  28.478   4.615   2.420
67047W        W38663   9.725   5.202   2.906
67048W        W38664  26.574  28.601   1.460
67049W        W38665  12.944  22.600   2.965
67050W        W38666  19.154  43.564   5.594
67051W        W38667  24.264  38.606  11.047
67052W        W38668  26.079  33.153   1.318
67053W        W38669   7.211  41.711   0.340
67054W        W38670   7.265  21.972   1.885
67055W        W38671  38.523  20.013   3.337
67056W        W38672  23.113  18.232   1.949
67057W        W38673   5.457  21.807   4.444
67058W        W38674  20.183   3.275   1.467
67059W        W38675  24.952  31.456  13.978
67060W        W38676   2.443  27.582  11.504
67061W        W38677  25.986  40.961  11.682
67062W        W38678   3.273  22.633   1.829
67063W        W38679   9.328  29.578   3.330
67064W        W38680   2.413  39.342   4.178
67065W        W38681  18.524  41.286   1.283
67066W        W38682  30.044  22.536   3.744
67067W        W38683  31.120  41.431   1.351
67068W        W38684   7.360  19.046  10.705
67069W        W38685  40.461  15.948  10.273
67070W        W38686  44.418  27.662  11.435
67071W        W38687  40.930   6.916   1.802
67072W        W38688  37.035  15.518   4.225
67073W        W38689  39.045  19.142  11.093
67074W        W38690  14.160  14.141  14.998
67075W        W38691  22.624  21.593  11.177
67076W        W38692   3.281  44.987  11.134
67077W        W38693   0.364  31.563   2.350
67078W        W38694  38.438  21.022   3.227
67079W        W38695   7.473  16.563  12.030
67080W        W38696  31.232   0.424  13.095
67081W        W38697  36.680  10.807   2.797
67082W        W38698  17.271  12.386   2.744
67083W        W38699  30.285  17.079  14.330
67084W        W38700  22.349  43.290   4.166
67085W        W38701  12.263  44.054  10.938
67086W        W38702  31.985  25.023   2.631
67087W        W38703  15.231  24.648  14.313
67088W        W38704  12.749  41.994   3.709
67089W        W38705  24.468   2.370   0.068
67090W        W38706  23.997   4.942  11.618
67091W        W38707  29.206  37.280   2.648
67092W        W38708  39.957  13.427   0.252
67093W        W38709  20.046  14.836  12.952
67094W        W38710   8.420  10.218   4.149
67095W        W38711   3.204  39.396  14.315
67096W        W38712  24.047   4.416  13.370
67097W        W38713  25.134  42.395   2.923
67098W        W38714   9.076  43.873  13.298
67099W        W38715  28.477  22.445  14.520
67100W        W38716  17.516  11.706   4.738
67101W        W38717  16.036  23.075  12.913
67102W        W38718  14.106  24.708  11.398
67103W        W38719  27.016  17.549  13.112
67104W        W38720  38.577  24.118   0.290
67105W        W38721  17.559  37.017  10.968
67106W        W38722  13.385  20.178  12.732
67107W        W38723  21.551  37.918  14.396
67108W        W38724  24.022  30.702  11.711
67109W        W38725   9.640  38.846  13.653
67110W        W38726  30.619   8.144   2.240
67111W        W38727  41.880  44.373   5.076
67112W        W38728  32.151  36.396   1.887
67113W        W38729  27.723  13.582   0.806
67114W        W38730  17.743  20.264  10.613
67115W        W38731  37.864  19.284   2.279
67116W        W38732   7.451  22.081  13.278
67117W        W38733  39.048  11.915  10.993
67118W        W38734   9.265  29.587  12.858
67119W        W38735   5.483  13.154   4.321
67120W        W38736  14.725  43.824   2.238
67121W        W38737  36.227   6.231   0.802
67122W        W38738  20.133  20.604  13.864
67123W        W38739  36.752  20.600  14.386
67124W        W38740  24.724  32.809  12.828
67125W        W38741  22.829  20.223   0.141
67126W        W38742  22.197  42.829   0.963
67127W        W38743   4.009  43.827  14.112
67128W        W38744  26.014  43.452  14.170
67129W        W38745  39.412  22.803   1.208
67130W        W38746  23.701  35.436   0.918
67131W        W38747  26.101   5.353   2.146
67132W        W38748   9.190  22.570   0.853
67133W        W38749  21.754   7.311   1.300
67134W        W38750  35.939   1.491  11.908
67135W        W38751  38.980   6.366  12.395
67136W        W38752   5.370   9.420  11.444
67137W        W38753  28.386   7.711   1.275
67138W        W38754  33.468   3.356   2.735
67139W        W38755  25.008  34.410  10.639
67140W        W38756   8.670  16.308  12.030
67141W        W38757  10.773  16.326  14.409
67142W        W38758  17.322   0.941  12.604
67143W        W38759  27.223   4.960   4.585
67144W        W38760   4.936   8.013   5.130
67145W        W38761  10.676  38.246   1.871
67146W        W38762  18.239  29.930   2.268
67147W        W38763  13.149  44.865  11.872
67148W        W38764  31.652  22.479   1.274
67149W        W38765  16.965  28.386   2.007
67150W        W38766  29.324  21.509  11.630
67151W        W38767  21.625   7.626   3.290
67152W        W38768  28.769   5.474   2.090
67153W        W38769   1.883  39.397  10.510
67154W        W38770  36.475   1.965  10.821
67155W        W38771  19.006   1.322  11.143
67156W        W38772   7.673  34.116   4.644
67157W        W38773  36.684  34.936  12.392
67158W        W38774  18.589  26.163   4.310
67159W        W38775  14.111  10.293  12.464
67160W        W38776  25.166  40.976   4.669
67161W        W38777   4.210  10.547  10.678
67162W        W38778   1.570  18.649   4.712
67163W        W38779  25.505   5.415   0.953
67164W        W38780  16.074  17.065   2.645
67165W        W38781  16.761  43.423   4.055
67166W        W38782  12.064  28.827  10.704
67167W        W38783  44.715  31.914  13.837
67168W        W38784  34.038  17.630  10.680
67169W        W38785  42.687  20.513   4.151
67170W        W38786  15.614  19.714  11.916
67171W        W38787  35.961  15.764   9.940
67172W        W38788  31.936   3.779  13.396
67173W        W38789  33.020  23.790   2.026
67174W        W38790  13.365  41.979   3.253
67175W        W38791  23.260  20.880  14.615
67176W        W38792  33.240  35.533  14.502
67177W        W38793  16.308  34.973  10.558
67178W        W38794  29.650  15.284   0.402
67179W        W38795  30.970  22.321  10.706
67180W        W38796  13.376  24.946   1.422
67181W        W38797  11.692  42.923   0.846
67182W        W38798  15.630  42.411   5.034
67183W        W38799  26.915  17.125  12.414
67184W        W38800  31.204  36.957  11.176
67185W        W38801  42.418  15.237  12.826
67186W        W38802  34.625  13.796  12.200
67187W        W38803   4.786  30.522  10.172
67188W        W38804   4.231   5.352  13.705
67189W        W38805  15.410  13.240  11.157
67190W        W38806  17.254  34.331  13.871
67191W        W38807   8.221   0.338  11.964
67192W        W38808  22.514  42.447  13.041
67193W        W38809  21.793  20.257  14.947
67194W        W38810   5.156  34.028  12.091
67195W        W38811  21.604  43.561   3.349
67196W        W38812   4.763  39.854  12.512
67197W        W38813  42.892  29.381  12.316
67198W        W38814  18.770  21.151  14.910
67199W        W38815  44.792   8.362   5.008
67200W        W38816   8.951  44.846  12.093
67201W        W38817  42.876   3.378  14.419
67202W        W38818   9.857  43.945   4.288
67203W        W38819  38.305  43.665   4.033
67204W        W38820  27.589  18.243  11.527
67205W        W38821  38.034  12.769  14.419
67206W        W38822  31.426   6.334  12.030
67207W        W38823   4.189  29.082  11.160
67208W        W38824   9.883  44.187  13.429
67209W        W38825   0.010  36.998   0.484
67210W        W38826  24.230  34.980  13.595
67211W        W38827  29.467  27.177   4.311
67212W        W38828  25.916  17.805   1.491
67213W        W38829  10.146   2.324   4.586
67214W        W38830  10.313  25.119  10.955
67215W        W38831  40.766  19.226  11.604
67216W        W38832  16.602  44.811  14.322
67217W        W38833  22.936  11.339  10.807
67218W        W38834  36.555  22.507   2.290
67219W        W38835  30.650   5.746  11.546
67220W        W38836  32.516  10.192  14.481
67221W        W38837  42.532  20.825  14.278
67222W        W38838   4.665  13.130   2.809
67223W        W38839   0.801  13.479   4.669
67224W        W38840  32.426   9.649  10.975
67225W        W38841  22.484  31.029   3.602
67226W        W38842   1.522   9.524   1.788
67227W        W38843   5.850  24.268  11.313
67228W        W38844  38.395  35.446  13.786
67229W        W38845  40.221   3.231   4.066
67230W        W38846  15.665  27.581   1.679
67231W        W38847  31.341  24.482  11.492
67232W        W38848  33.969  44.906  12.133
67233W        W38849  12.132  36.237  13.466
67234W        W38850  10.193   0.708   4.544
67235W        W38851  26.586  40.369   0.817
67236W        W38852  28.945   0.911   4.598
67237W        W38853   0.348  16.038  11.808
67238W        W38854  15.136  44.836   0.489
67239W        W38855  11.668  36.070   4.279
67240W        W38856  25.946   6.650  11.183
67241W        W38857   2.989  19.660   0.301
67242W        W38858  20.150  22.115   1.878
67243W        W38859   0.379  24.028  13.489
67244W        W38860  40.627  44.314   2.716
67245W        W38861  28.457   7.990   0.619
67246W        W38862  20.459  21.140   0.954
67247W        W38863  25.415  33.784   0.887
67248W        W38864  35.657   4.312   0.315
67249W        W38865  24.655   0.847  14.196
67250W        W38866  33.159  40.897  14.427
67251W        W38867  32.992  35.527   4.641
67252W        W38868  20.745   9.045   3.932
67253W        W38869  18.699  41.514   2.616
67254W        W38870  24.198  23.010  13.188
67255W        W38871  24.649  10.515   3.407
67256W        W38872   4.812  42.918   3.283
67257W        W38873   2.322  34.782  14.042
67258W        W38874  10.917  25.071  11.169
67259W        W38875   4.311  32.934  10.748
67260W        W38876   1.785  29.610  10.819
67261W        W38877  13.272  13.063   0.241
67262W        W38878  19.994  18.687   2.155
67263W        W38879  40.889   7.310   2.826
67264W        W38880   8.319  28.047  11.017
67265W        W38881  40.992  39.554  11.649
67266W        W38882   8.214  11.104   0.067
67267W        W38883  19.825  26.138   0.235
67268W        W38884   2.369  19.638  12.006
67269W        W38885  25.678  43.412   3.713
67270W        W38886  28.554  27.702   2.419
67271W        W38887  15.085   8.428  11.602
67272W        W38888  11.495  21.811   1.781
67273W        W38889  43.844  18.321  13.322
67274W        W38890  22.024   1.017   3.130
67275W        W38891  15.775   0.747   4.041
67276W        W38892  40.320   5.382  13.675
67277W        W38893   5.529  25.150   2.653
67278W        W38894  39.869  12.957   3.107
67279W        W38895  20.749  40.808   4.884
67280W        W38896  28.062  15.538  13.997
67281W        W38897  36.459  41.309  14.583
67282W        W38898  13.604  12.260  13.129
67283W        W38899  40.863  28.492  10.692
67284W        W38900  34.480  36.813  10.702
67285W        W38901  24.659   6.900   3.372
67286W        W38902  35.387   9.127  10.750
67287W        W38903  28.998  21.482  10.696
67288W        W38904   0.986  27.992   9.940
67289W        W38905  16.039  24.120   0.550
67290W        W38906  13.412  28.815  10.001
67291W        W38907  39.676  14.593   3.705
67292W        W38908  39.358  32.021  13.361
67293W        W38909  27.900  39.317  10.464
67294W        W38910  34.951   4.804  10.200
67295W        W38911  32.675  25.629  14.005
67296W        W38912  21.510  24.413   3.684
67297W        W38913  36.615  35.856  11.990
67298W        W38914  37.978  43.481   3.213
67299W        W38915  25.980  23.038   0.870
67300W        W38916  14.245   7.170  13.883
67301W        W38917  44.510  38.350   4.528
67302W        W38918  18.854  39.304   1.237
67303W        W38919  17.296  30.901  11.173
67304W        W38920  38.989  12.658  14.669
67305W        W38921  14.000  21.706   4.560
67306W        W38922  31.536  38.736   3.564
67307W        W38923  42.346  22.939   2.389
67308W        W38924  15.092   5.060   0.759
67309W        W38925  24.017  26.432   9.896
67310W        W38926  43.464  29.034   3.617
67311W        W38927  22.841  19.766   2.764
67312W        W38928  39.092  43.444  14.602
67313W        W38929   3.015  28.035  14.795
67314W        W38930  40.517   5.763   1.396
67315W        W38931   8.107  26.093  14.988
67316W        W38932  15.261   1.988  12.310
67317W        W38933  19.541   2.047  11.155
67318W        W38934  15.810  31.806  13.250
67319W        W38935  43.425   1.532   1.673
67320W        W38936   4.208  11.217  12.865
67321W        W38937  28.172   4.036  11.155
67322W        W38938   8.903  10.182   2.652
67323W        W38939  21.135  35.427  10.619
67324W        W38940  11.716  31.047  14.953
67325W        W38941  12.438  11.652   2.449
67326W        W38942  10.061  41.989  13.596
67327W        W38943   3.722  40.006   4.516
67328W        W38944   1.996  19.760  10.623
67329W        W38945   0.257  11.351  12.443
67330W        W38946  33.814  12.133   4.985
67331W        W38947   0.903   6.353   2.582
67332W        W38948   5.434  29.952  13.558
67333W        W38949  35.469  29.065   2.906
67334W        W38950  34.952  22.613  14.800
67335W        W38951  35.934  26.955  14.832
67336W        W38952  41.841   4.004  12.838
67337W        W38953  17.779  28.705  12.449
67338W        W38954  10.586  41.274  13.652
67339W        W38955  25.486  27.364  13.104
67340W        W38956  25.197  41.882   2.806
67341W        W38957  44.851  41.467  12.632
67342W        W38958  19.095   3.245   2.734
67343W        W38959  24.667   8.434   1.440
67344W        W38960  29.005   7.459   3.801
67345W        W38961  37.002  19.217  12.193
67346W        W38962  15.717  24.718  10.669
67347W        W38963  35.931  30.771   4.351
67348W        W38964  35.453  12.587   4.874
67349W        W38965   7.936  14.014  14.978
67350W        W38966  15.536   6.779   5.025
67351W        W38967   6.287   7.665   1.290
67352W        W38968   2.286  21.228  12.257
67353W        W38969  44.918  12.811   0.828
67354W        W38970  44.157  42.594   4.900
67355W        W38971  26.749  36.054  14.755
67356W        W38972  12.346  18.581  13.934
67357W        W38973  37.156  30.495  13.086
67358W        W38974  36.041   1.379   4.651
67359W        W38975  26.386  25.041   2.172
67360W        W38976  16.308  22.278   4.324
67361W        W38977  31.454  29.880  11.509
67362W        W38978  15.801  22.094  13.361
67363W        W38979  26.144  33.126  14.279
67364W        W38980   4.264  15.682  12.378
67365W        W38981  38.389  43.318   2.954
67366W        W38982  27.021  24.550  12.517
67367W        W38983   0.308  30.459  14.549
67368W        W38984  28.970  23.057  13.097
67369W        W38985   5.371  12.374  14.754
67370W        W38986   9.783  28.574  14.226
67371W        W38987  17.099  44.017   2.226
67372W        W38988  37.800  26.212   3.287
67373W        W38989  37.894   8.420  14.475
67374W        W38990   3.013  40.633  14.761
67375W        W38991  34.571  13.282  10.475
67376W        W38992  39.572  34.363   0.363
67377W        W38993  34.928  36.564   1.289
67378W        W38994   4.196  22.492   0.827
67379W        W38995  40.746   6.749  11.152
67380W        W38996  30.613  19.719  10.630
67381W        W38997  14.813  33.014  11.639
67382W        W38998  33.576  35.809   3.285
67383W        W38999  27.577   9.913   2.635
67384W        W39000  31.691  13.089   3.610
67385W        W39001  10.578  18.840   4.217
67386W        W39002   9.649   8.982  13.288
67387W        W39003   5.327  13.620   3.046
67388W        W39004  44.349  32.495   1.406
67389W        W39005  12.566  38.606   1.222
67390W        W39006  28.199  22.069  13.597
67391W        W39007  44.314  22.118  12.094
67392W        W39008  10.771  33.498  14.012
67393W        W39009  24.435  21.647  13.316
67394W        W39010  31.440   2.843  12.790
67395W        W39011  32.450  42.294   0.017
67396W        W39012  38.574   4.368   0.482
67397W        W39013  21.341   7.690  13.891
67398W        W39014  40.559  27.183   3.157
67399W        W39015  40.002  11.132   4.721
67400W        W39016  10.162  35.477  14.954
67401W        W39017  44.892  22.796  11.296
67402W        W39018  20.546   1.404   1.132
67403W        W39019   1.756   2.221   1.778
67404W        W39020  31.828  18.680  14.376
67405W        W39021  44.239  16.374   4.642
67406W        W39022  41.267  11.684   0.227
67407W        W39023   8.740  20.618   4.656
67408W        W39024  43.329   0.727  14.684
67409W        W39025  27.711  10.293  12.188
67410W        W39026  23.169  34.650   2.430
67411W        W39027   1.309  18.111  10.708
67412W        W39028  25.449  33.213   0.586
67413W        W39029  37.842  29.056   0.874
67414W        W39030   5.871  17.536  14.915
67415W        W39031   0.868   9.621  13.809
67416W        W39032  37.848  28.764   1.313
67417W        W39033   0.847  21.483   4.944
67418W        W39034   5.884  15.260   4.815
67419W        W39035  25.671  44.837   2.149
67420W        W39036   1.765  10.424   5.004
67421W        W39037   9.789  28.769  11.681
67422W        W39038  15.080  40.544   1.369
67423W        W39039  24.232   1.457   2.227
67424W        W39040  26.261  29.782   4.379
67425W        W39041  43.205  41.252  12.484
67426W        W39042   1.466  13.264   3.842
67427W        W39043  23.246  43.899  11.212
67428W        W39044  22.779  17.389   4.575
67429W        W39045  30.697  23.964   4.665
67430W        W39046  18.602  22.532   4.605
67431W        W39047  30.616  37.387  14.381
67432W        W39048   1.252  36.114   4.216
67433W        W39049  14.177  39.854   3.141
67434W        W39050  22.753  19.075  11.699
67435W        W39051  27.390  29.860   3.928
67436W        W39052  39.288   5.491  12.319
67437W        W39053  19.697  41.464   4.300
67438W        W39054  32.528  32.969  13.992
67439W        W39055  13.127   6.793   0.035
67440W        W39056  22.062  24.968   4.074
67441W        W39057  37.974  31.808   0.271
67442W        W39058  16.338  19.738   1.301
67443W        W39059  44.860  20.083   3.854
67444W        W39060  15.735  11.331   1.615
67445W        W39061  31.900   5.010   0.531
67446W        W39062  32.002  37.792   3.619
67447W        W39063   3.238  43.787  13.500
67448W        W39064  34.168  38.373   1.335
67449W        W39065  31.224  39.677   1.322
67450W        W39066  42.428  26.379   3.275
67451W        W39067  31.956  39.796   0.907
67452W        W39068  18.940   2.756   1.312
67453W        W39069   3.003  24.078   4.131
67454W        W39070  31.361   4.873  10.703
67455W        W39071  19.321  26.732   2.710
67456W        W39072   4.349  39.270  11.021
67457W        W39073   5.832  25.135  10.690
67458W        W39074  27.524  37.564  11.591
67459W        W39075  27.664  25.739  13.450
67460W        W39076   6.000  40.075   2.617
67461W        W39077  16.743   7.290  14.831
67462W        W39078   9.899  18.391  13.303
67463W        W39079  35.342  40.349  13.464
67464W        W39080  29.988  31.113   4.335
67465W        W39081  44.797  21.596  13.274
67466W        W39082  20.555  39.909  14.365
67467W        W39083  21.081  42.908  11.216
67468W        W39084  30.426   0.123  11.491
67469W        W39085  21.421  20.281  14.561
67470W        W39086  21.016  12.408   4.491
67471W        W39087  32.806  14.519   2.352
67472W        W39088  16.022  22.673  12.218
67473W        W39089  43.725   0.854   0.001
67474W        W39090   8.925  11.346  12.562
67475W        W39091  17.273  30.581  10.736
67476W        W39092   2.664  30.391   2.196
67477W        W39093  35.763  27.640  10.527
67478W        W39094  43.065  40.352  12.706
67479W        W39095  18.702   8.163   1.684
67480W        W39096   2.276  12.177   3.220
67481W        W39097  34.462  30.658   0.051
67482W        W39098   2.955  12.715  12.777
67483W        W39099  10.806  31.597  11.388
67484W        W39100   7.700  18.713   2.841
67485W        W39101  11.709  19.004   3.273
67486W        W39102  25.146  10.159  14.014
67487W        W39103   4.995  41.620   0.732
67488W        W39104   8.646  14.585   4.551
67489W        W39105   2.847  18.476  13.228
67490W        W39106  25.138  42.348  12.094
67491W        W39107  15.535  18.275   3.805
67492W        W39108   5.311  13.886  10.770
67493W        W39109   9.070   9.929  10.208
67494W        W39110   6.416  10.228   3.626
67495W        W39111  42.313   1.971  13.411
67496W        W39112   2.385  44.371   3.276
67497W        W39113  41.548  25.615  12.503
67498W        W39114  11.693   5.256   0.742
67499W        W39115  19.796  41.866   3.580
67500W        W39116  25.471  27.006   5.000
67501W        W39117  36.346  28.505   3.690
67502W        W39118  26.394  37.967   2.288
67503W        W39119   9.412   6.358  11.572
67504W        W39120  34.645  15.584   4.537
67505W        W39121  23.501   1.287   3.229
67506W        W39122   9.310   0.486  10.271
67507W        W39123  40.406  43.825   2.878
67508W        W39124  29.678  42.065   3.742
67509W        W39125  43.354  11.347  11.747
67510W        W39126  25.590   1.561   4.423
67511W        W39127   3.220   8.653  13.070
67512W        W39128  42.794   1.215  11.484
67513W        W39129   0.965  25.655  12.556
67514W        W39130  34.015  12.832   3.174
67515W        W39131  20.100  18.433  14.679
67516W        W39132   0.854   3.935   3.331
67517W        W39133  34.519  14.121   4.630
67518W        W39134  31.885  10.401  11.888
67519W        W39135  32.649   7.695   0.299
67520W        W39136  16.653  11.095  14.787
67521W        W39137  18.836  18.132   3.221
67522W        W39138  41.118   2.306   0.573
67523W        W39139  25.153  18.971  12.342
67524W        W39140  43.251  36.988  11.608
67525W        W39141  20.266   7.876   1.947
67526W        W39142  22.252   1.257   0.076
67527W        W39143  29.235  13.474   0.281
67528W        W39144  43.362  42.448  14.377
67529W        W39145  44.399   3.445  13.783
67530W        W39146  44.704   1.511   2.281
67531W        W39147  15.314  17.595  10.927
67532W        W39148  43.584  19.764  11.123
67533W        W39149  40.168  44.544   2.647
67534W        W39150  34.370   0.469   9.844
67535W        W39151  35.490   3.792   0.458
67536W        W39152   1.420   2.733  11.616
67537W        W39153  19.195   1.493   4.693
67538W        W39154  28.612   6.229   4.648
67539W        W39155  42.341  14.227  11.794
67540W        W39156  34.842   6.427   4.600
67541W        W39157  27.615  31.648   2.463
67542W        W39158  13.532  40.404   4.325
67543W        W39159  22.768  37.811   2.856
67544W        W39160   2.383  38.347   1.232
67545W        W39161  14.005  15.310  11.970
67546W        W39162  42.055   7.287   5.046
67547W        W39163  36.739  13.061   5.125
67548W        W39164  27.018   2.888  11.135
67549W        W39165   7.341  15.270   4.364
67550W        W39166  26.633   4.688   1.339
67551W        W39167  34.266  10.392  13.049
67552W        W39168  33.166  42.943  14.009
67553W        W39169  17.139  10.856  13.832
67554W        W39170   8.866   4.749  13.639
67555W        W39171   2.354  26.890  10.116
67556W        W39172  39.524  14.071   0.873
67557W        W39173  41.074  12.201   4.160
67558W        W39174  19.873  38.853  14.869
67559W        W39175  23.037  38.351   0.407
67560W        W39176  28.492   7.614   3.241
67561W        W39177   2.953  39.042  11.064
67562W        W39178  42.519  35.972  14.915
67563W        W39179  30.361   8.151  11.708
67564W        W39180  42.290  17.687   0.536
67565W        W39181  13.271  23.873   3.302
67566W        W39182   6.922  22.966   2.882
67567W        W39183  17.116  28.190  10.370
67568W        W39184  13.577  18.535  11.767
67569W        W39185   3.052  15.808  14.514
67570W        W39186  15.707  13.891  10.709
67571W        W39187  22.575  31.460   4.349
67572W        W39188   0.677   3.828   4.757
67573W        W39189  13.579  37.265  14.226
67574W        W39190  22.087  39.915   1.743
67575W        W39191  11.581  26.355  11.679
67576W        W39192  27.996  44.576  12.514
67577W        W39193   4.802   0.942  11.631
67578W        W39194  13.738  24.669  13.648
67579W        W39195  12.288  11.585   1.969
67580W        W39196  39.028   9.281  10.781
67581W        W39197  15.771  25.273   4.437
67582W        W39198  12.559   8.253   4.181
67583W        W39199  34.527  44.293   0.452
67584W        W39200   8.390  24.191   1.439
67585W        W39201  44.303  33.993   0.665
67586W        W39202  30.216  30.507  10.871
67587W        W39203  29.218  10.830  14.639
67588W        W39204  39.826  18.243   3.486
67589W        W39205   6.361  15.191  14.901
67590W        W39206  36.395  14.282  12.263
67591W        W39207  34.076  30.561  13.681
67592W        W39208   7.940  25.605   4.132
67593W        W39209   0.955  44.159  14.683
67594W        W39210  23.446  44.324  11.991
67595W        W39211  21.186  19.172   4.193
67596W        W39212   5.277  27.660  14.400
67597W        W39213  19.532   7.419  12.212
67598W        W39214  17.220  22.598   0.518
67599W        W39215  41.900  40.603  10.713
67600W        W39216  27.951  28.183   1.209
67601W        W39217  21.351  44.246  13.845
67602W        W39218  33.533  33.058   4.473
67603W        W39219  11.560  34.024  14.625
67604W        W39220  20.705  21.026  14.280
67605W        W39221   2.415   1.648  13.741
67606W        W39222   6.287  20.002  11.191
67607W        W39223  24.685  23.484  13.806
67608W        W39224  27.002  19.837  13.645
67609W        W39225  37.161  36.393  12.183
67610W        W39226  10.155  38.248   2.703
67611W        W39227  22.460  30.088   2.773
67612W        W39228  17.795   7.733   0.399
67613W        W39229  34.341  14.465  14.304
67614W        W39230   3.898  31.387   0.834
67615W        W39231  36.473  11.894   2.326
67616W        W39232  18.750  17.853   1.676
67617W        W39233   9.549  41.312   4.170
67618W        W39234  35.414  34.552   4.666
67619W        W39235  39.511  41.204   3.172
67620W        W39236  38.053  41.418  12.922
67621W        W39237  20.598  36.868  10.711
67622W        W39238  37.430  12.505   0.917
67623W        W39239  31.479   1.257   9.842
67624W        W39240  28.456  25.026  12.416
67625W        W39241  19.596  32.621  12.099
67626W        W39242   3.381  33.705  12.992
67627W        W39243  19.427  43.898   1.936
67628W        W39244  19.774   3.943  14.445
67629W        W39245  41.797   8.931   4.550
67630W        W39246  17.328  17.385  11.711
67631W        W39247  43.656  39.445   2.701
67632W        W39248   8.794   9.689  11.694
67633W        W39249  11.138  14.283   0.885
67634W        W39250  34.351  20.889   3.017
67635W        W39251  18.590  16.488  11.854
67636W        W39252   7.524  24.772   1.229
67637W        W39253   3.911  35.509  11.744
67638W        W39254  23.909  17.823   4.188
67639W        W39255   4.387  42.902   9.949
67640W        W39256  23.756   5.027   5.129
67641W        W39257   2.268  29.651   0.359
67642W        W39258  14.220   1.274   2.711
67643W        W39259  39.446  42.468  14.640
67644W        W39260   6.650  25.149  14.479
67645W        W39261  14.876  18.798   3.798
67646W        W39262  42.276  41.455  13.988
67647W        W39263  25.981   0.374   4.931
67648W        W39264  28.458   8.807   1.641
67649W        W39265  40.612  31.179   1.934
67650W        W39266  23.038  40.745  14.496
67651W        W39267   3.171  43.964  12.466
67652W        W39268  19.260  24.638   3.196
67653W        W39269  17.719  12.743   4.245
67654W        W39270  19.483  35.103  13.803
67655W        W39271   3.813   3.883  11.694
67656W        W39272  23.026  20.735   4.253
67657W        W39273  29.612  16.542   1.798
67658W        W39274  33.808  37.214  13.839
67659W        W39275  35.008  42.304  13.769
67660W        W39276  13.109  40.883  10.778
67661W        W39277   0.379  32.049  11.216
67662W        W39278  14.102  30.079   2.360
67663W        W39279  21.938  22.590   1.883
67664W        W39280  23.111  34.106   4.559
67665W        W39281   1.416  27.648  11.510
67666W        W39282  43.263  11.928  13.937
67667W        W39283  31.656  16.334  12.171
67668W        W39284  44.336  18.792  14.910
67669W        W39285  35.459  15.101  13.815
67670W        W39286  14.784  38.782   0.284
67671W        W39287  40.371   1.258   3.336
67672W        W39288  38.110  17.552  11.599
67673W        W39289  14.276  31.905  11.174
67674W        W39290   5.243  22.488  13.804
67675W        W39291  44.987  23.757  13.247
67676W        W39292   8.302  43.082  14.712
67677W        W39293  23.069  15.196  10.436
67678W        W39294  32.638  13.070  14.347
67679W        W39295   4.325  11.057  10.788
67680W        W39296  23.590  23.783  14.836
67681W        W39297  24.247  10.404   4.338
67682W        W39298  29.660  27.533   5.172
67683W        W39299  28.878  36.477   4.590
67684W        W39300  16.091   5.713  14.869
67685W        W39301  40.312   8.903   1.812
67686W        W39302  44.264  33.568   3.265
67687W        W39303  40.607  33.373  10.212
67688W        W39304   7.237   0.775  10.570
67689W        W39305  13.371   0.842  12.096
67690W        W39306  34.008   0.889   3.100
67691W        W39307  21.191   1.280   4.676
67692W        W39308  34.120  18.602   3.293
67693W        W39309  32.840  24.684  13.927
67694W        W39310  10.332  42.409   0.656
67695W        W39311  11.343  38.033   1.173
67696W        W39312  23.990  42.814  10.750
67697W        W39313   5.972  41.472   3.539
67698W        W39314  37.562   6.860   1.651
67699W        W39315  37.463   0.804  10.388
67700W        W39316  33.015  37.615  12.377
67701W        W39317  18.125  26.248   3.279
67702W        W39318  20.263  24.545   2.487
67703W        W39319  18.206  37.643   1.212
67704W        W39320  33.022   7.597   1.349
67705W        W39321  18.830  33.606   2.305
67706W        W39322   8.807   8.230   3.876
67707W        W39323  11.732  19.506  14.436
67708W        W39324  29.397  20.319  14.910
67709W        W39325  29.604  37.472   3.907
67710W        W39326  20.501  14.171  12.333
67711W        W39327  36.620   3.811  11.945
67712W        W39328  24.332  22.046  10.758
67713W        W39329  22.188  38.717   2.363
67714W        W39330  33.229   7.580  11.768
67715W        W39331   5.812   0.562   1.855
67716W        W39332  29.562  37.927   1.563
67717W        W39333  32.567   7.181  12.939
67718W        W39334  38.360  21.048  11.152
67719W        W39335  34.446  24.451   4.467
67720W        W39336  38.312  27.852  12.852
67721W        W39337   4.303  37.943   3.824
67722W        W39338  22.761  30.175  12.526
67723W        W39339  35.678  43.907   3.987
67724W        W39340  15.098   2.942   4.775
67725W        W39341  19.809  17.843  13.502
67726W        W39342  14.979  28.460  11.444
67727W        W39343   1.170  33.043   1.916
67728W        W39344  12.863  25.956   4.506
67729W        W39345  13.349   0.887  14.327
67730W        W39346  44.730  22.732   0.714
67731W        W39347   4.353  28.811  14.426
67732W        W39348  37.366  23.209   0.293
67733W        W39349  37.800  39.256   4.396
67734W        W39350  18.254  38.316  14.235
67735W        W39351  11.347  33.650   0.752
67736W        W39352  20.222  15.805  11.641
67737W        W39353   3.431  19.180  14.058
67738W        W39354  14.079   8.725   3.768
67739W        W39355  26.607  28.955  13.891
67740W        W39356  41.989  34.450  12.466
67741W        W39357  31.438  12.639  12.865
67742W        W39358   5.345   2.716   2.770
67743W        W39359  34.967   0.880   5.019
67744W        W39360   4.997  27.410   4.167
67745W        W39361  39.500  33.647  14.064
67746W        W39362  34.376  34.516   2.101
67747W        W39363  32.676  19.390   3.778
67748W        W39364  35.061  41.382  14.988
67749W        W39365  16.558  37.533  10.700
67750W        W39366  21.140   3.395  14.221
67751W        W39367  37.996  30.800  12.821
67752W        W39368  36.556   3.981  11.100
67753W        W39369   7.244  36.329  12.908
67754W        W39370  31.449  23.321   3.299
67755W        W39371  18.602   4.794  14.989
67756W        W39372   2.731  32.989   1.725
67757W        W39373  15.615   6.685  13.283
67758W        W39374  36.046  20.330   4.498
67759W        W39375  33.706   2.912   1.350
67760W        W39376  23.474  38.228  14.954
67761W        W39377  29.146  19.472   2.321
67762W        W39378   7.330   0.570  11.023
67763W        W39379  43.284  38.437   1.438
67764W        W39380   8.264  31.681  14.885
67765W        W39381   7.911  35.071  14.028
67766W        W39382   7.313   5.471  13.842
67767W        W39383   7.128  23.741  11.578
67768W        W39384  19.060  23.034  11.566
67769W        W39385  33.816  10.683  13.035
67770W        W39386  18.838  22.927   2.430
67771W        W39387   6.716  41.976  11.877
67772W        W39388  29.801  21.672  12.507
67773W        W39389  13.361  28.269  12.993
67774W        W39390  38.167  31.704  13.001
67775W        W39391   2.343   2.031   5.185
67776W        W39392  36.391  34.108  12.021
67777W        W39393  19.259  19.085  13.354
67778W        W39394  37.438  32.327   2.633
67779W        W39395  16.024  24.894  14.092
67780W        W39396  25.845  12.770   1.439
67781W        W39397   7.404  25.839  11.145
67782W        W39398  34.389  33.868   3.385
67783W        W39399   4.139   3.308   0.839
67784W        W39400  34.405  11.172  11.473
67785W        W39401  42.214  40.457   1.357
67786W        W39402   3.451   9.786  13.013
67787W        W39403  15.077  10.532  12.840
67788W        W39404  39.479  44.902   2.877
67789W        W39405   8.089  22.463   4.973
67790W        W39406  23.522  38.996  11.243
67791W        W39407  11.868  39.012   4.216
67792W        W39408  17.479  28.742  10.879
67793W        W39409  31.441  29.617   5.106
67794W        W39410  22.056  29.532  14.324
67795W        W39411  34.063  20.484  12.386
67796W        W39412  44.272  30.237   2.714
67797W        W39413  17.094  13.534  11.721
67798W        W39414  13.226  33.870  13.224
67799W        W39415   2.647  14.309   0.028
67800W        W39416  23.550  38.312  12.119
67801W        W39417  19.271   5.420   3.229
67802W        W39418  25.259  40.291   4.135
67803W        W39419  40.007  25.106  13.828
67804W        W39420  37.889  10.805   4.014
67805W        W39421  42.860  20.583   1.789
67806W        W39422  16.337  19.829  11.619
67807W        W39423  20.190  41.485  13.292
67808W        W39424  32.658  27.430   2.382
67809W        W39425  28.408  39.929   0.781
67810W        W39426  11.038  15.407   4.142
67811W        W39427  39.068   2.697  12.028
67812W        W39428  31.368  33.039   0.713
67813W        W39429  35.999  40.828  10.814
67814W        W39430   3.744  26.519  13.434
67815W        W39431  24.851  28.671  14.844
67816W        W39432  42.086  42.065  12.686
67817W        W39433   9.057  31.149   2.279
67818W        W39434   8.305  27.407   4.538
67819W        W39435  36.984  13.190   2.277
67820W        W39436  27.177  22.591  11.522
67821W        W39437  15.642  16.069  12.977
67822W        W39438  34.278  44.637   4.019
67823W        W39439   7.839  36.012  11.228
67824W        W39440   8.188  29.190   0.754
67825W        W39441   9.763  14.797  14.532
67826W        W39442   1.510  18.458  11.076
67827W        W39443  19.451  15.017   0.989
67828W        W39444   5.545  12.424  13.281
67829W        W39445  29.257  34.923   4.524
67830W        W39446   9.360  24.559   2.139
67831W        W39447   3.703  28.638   3.902
67832W        W39448  21.778  44.355  14.166
67833W        W39449  35.297  41.556   0.842
67834W        W39450  32.678  26.731  12.116
67835W        W39451  28.233  39.320   2.182
67836W        W39452  43.877  15.201  10.546
67837W        W39453  38.604   7.607  13.994
67838W        W39454   0.911  37.828  11.390
67839W        W39455  34.371  18.356  12.380
67840W        W39456  12.004  18.938   0.525
67841W        W39457  20.504  12.913  11.948
67842W        W39458   1.287   4.839   4.766
67843W        W39459  43.427  25.552  10.986
67844W        W39460  36.432  41.571  10.613
67845W        W39461   5.929  37.983  11.116
67846W        W39462  14.116  24.917   4.271
67847W        W39463  25.679  17.853  13.432
67848W        W39464  18.991  43.458  11.488
67849W        W39465  32.850  35.041  11.252
67850W        W39466  24.875  43.906   0.173
67851W        W39467  44.630   3.219  11.628
67852W        W39468   1.509   8.913  13.863
67853W        W39469  43.937  30.521   3.386
67854W        W39470  10.693  41.350   1.894
67855W        W39471  22.492  19.054   2.406
67856W        W39472  44.447  40.800  11.124
67857W        W39473   1.274  35.093   2.413
67858W        W39474  19.225  33.106   4.224
67859W        W39475  26.050  22.996   4.123
67860W        W39476   5.176  43.883  12.456
67861W        W39477  39.590  38.469  12.356
67862W        W39478  18.485  35.212   4.212
67863W        W39479  30.364  17.502  14.056
67864W        W39480  18.125  22.294   4.569
67865W        W39481  11.860  28.908  13.367
67866W        W39482  27.978  17.273  10.702
67867W        W39483  28.605   2.333   0.681
67868W        W39484   1.930   9.813  11.187
67869W        W39485  24.442  33.462  14.260
67870W        W39486  17.168  40.797   0.902
67871W        W39487  30.116   7.653  14.173
67872W        W39488  31.932  35.437  12.945
67873W        W39489  18.790  34.727   5.078
67874W        W39490  22.469  43.732   0.222
67875W        W39491  24.501  43.984   1.864
67876W        W39492   0.599  19.811  10.344
67877W        W39493   4.296   9.138   2.289
67878W        W39494  21.566  44.733  12.998
67879W        W39495  16.067  31.083  12.530
67880W        W39496  30.932  21.893   4.166
67881W        W39497  40.300  13.404  13.575
67882W        W39498   3.046   0.380  12.612
67883W        W39499  33.810  18.151   4.069
67884W        W39500  14.702  37.864   1.587
67885W        W39501  31.130  44.536  10.062
67886W        W39502  26.076  16.820   1.367
67887W        W39503  41.990  26.743  14.032
67888W        W39504   6.407   1.746  12.051
67889W        W39505  35.988  32.672   2.788
67890W        W39506  35.594  28.521  14.936
67891W        W39507   1.596  10.747   2.197
67892W        W39508  33.091   5.871   4.566
67893W        W39509   7.693  15.994  14.691
67894W        W39510  32.427  10.781   4.186
67895W        W39511  12.706  41.207   4.156
67896W        W39512   1.427   6.337  13.511
67897W        W39513  16.114  20.722  14.313
67898W        W39514  28.453   9.361   4.208
67899W        W39515   0.198  14.762  14.879
67900W        W39516  35.964   6.993  13.514
67901W        W39517  33.539   1.850  12.625
67902W        W39518  23.210  24.513  11.572
67903W        W39519   3.179  23.494  11.926
67904W        W39520   9.592  28.253  14.653
67905W        W39521  26.148   5.496  14.235
67906W        W39522  25.289  18.674  11.203
67907W        W39523  41.963   6.853   0.959
67908W        W39524  29.432   6.435  11.530
67909W        W39525  33.170   7.838  14.526
67910W        W39526  13.716  20.086   3.306
67911W        W39527  16.998  28.400  12.170
67912W        W39528  31.882  37.853   3.116
67913W        W39529  31.644  13.394   1.705
67914W        W39530   8.665  39.540   2.287
67915W        W39531  16.218  23.288   3.402
67916W        W39532  19.823  41.959   1.873
67917W        W39533   7.798   5.942   0.777
67918W        W39534   0.453   6.346   3.654
67919W        W39535  43.768  17.192   1.650
67920W        W39536  12.745  28.530   2.447
67921W        W39537   1.847  19.773  12.785
67922W        W39538  29.554   2.917  11.151
67923W        W39539  31.637  15.526   1.314
67924W        W39540  29.314  10.287   5.088
67925W        W39541  43.561  25.629   0.832
67926W        W39542  15.068  16.422   3.665
67927W        W39543   2.189  22.611  11.023
67928W        W39544  28.626  33.513  11.637
67929W        W39545  19.045  16.853   3.543
67930W        W39546   3.908  11.357  10.901
67931W        W39547  35.902   3.339   1.356
67932W        W39548  19.987  21.122  12.032
67933W        W39549  32.575  23.315  14.798
67934W        W39550  36.899  20.398   4.221
67935W        W39551  13.591  42.516   3.753
67936W        W39552  32.108  20.419  12.150
67937W        W39553   4.982   3.860   3.347
67938W        W39554  10.048   7.781  12.619
67939W        W39555  39.068  11.798   1.962
67940W        W39556  31.675  23.421  14.761
67941W        W39557  23.558  15.611   3.263
67942W        W39558   5.687  41.589   0.390
67943W        W39559  25.063   5.652   4.042
67944W        W39560  10.083   0.670  13.627
67945W        W39561  31.521  16.105  14.386
67946W        W39562  16.738  43.226   2.273
67947W        W39563  34.962  18.556  11.009
67948W        W39564  31.244  39.291   0.594
67949W        W39565   5.359   8.901   4.605
67950W        W39566  17.241  21.508   2.865
67951W        W39567  29.026   0.344  10.703
67952W        W39568  28.468  25.179  14.783
67953W        W39569   0.906  10.227  11.525
67954W        W39570  40.046  16.207  12.460
67955W        W39571   5.119  44.891   3.764
67956W        W39572   8.201  16.684   4.903
67957W        W39573  15.719  28.531   0.661
67958W        W39574  25.015  31.553   0.457
67959W        W39575  41.236  20.019   2.659
67960W        W39576   5.731   9.174   2.037
67961W        W39577  42.715  40.046  13.440
67962W        W39578   3.263  33.827   1.426
67963W        W39579  20.095  21.222  13.528
67964W        W39580  39.754  24.987   3.552
67965W        W39581   5.467   0.981  12.815
67966W        W39582  19.677  39.621   0.220
67967W        W39583  20.115  42.251   3.695
67968W        W39584  17.090  15.872  13.942
67969W        W39585  11.265  22.966   1.700
67970W        W39586   3.214  16.197   0.734
67971W        W39587  29.246  36.887  10.727
67972W        W39588  19.202  18.153   2.618
67973W        W39589   6.076  38.352   0.654
67974W        W39590  36.522  41.037  13.106
67975W        W39591  31.361  13.805  13.891
67976W        W39592  41.899   5.401  13.190
67977W        W39593  42.401  35.645  14.084
67978W        W39594  33.082  37.995   0.192
67979W        W39595  37.296  22.162  12.482
67980W        W39596  20.483  11.602  13.520
67981W        W39597   5.027  11.176   4.064
67982W        W39598  32.719  14.748  11.334
67983W        W39599  30.454  20.850   0.215
67984W        W39600  18.525  32.897  12.560
67985W        W39601   3.742   0.937  12.493
67986W        W39602   4.724  23.433   2.701
67987W        W39603  26.737  18.624   1.397
67988W        W39604  32.611   2.004  11.859
67989W        W39605  38.525  24.623  14.722
67990W        W39606  12.083   6.167   5.437
67991W        W39607   6.440  25.059  11.537
67992W        W39608   8.423  28.789   2.614
67993W        W39609   2.433  43.066   0.912
67994W        W39610  12.239  15.263   0.297
67995W        W39611  40.109  29.120  13.251
67996W        W39612  42.044  33.388   2.267
67997W        W39613  15.493   7.574  11.002
67998W        W39614  30.571   2.194  14.840
67999W        W39615   0.236  21.084   0.400
68000W        W39616   9.185  19.156   1.312
68001W        W39617  38.612   9.756   4.339
68002W        W39618   9.372  37.889  14.533
68003W        W39619   6.816  13.189   2.892
68004W        W39620  32.905  18.267  12.362
68005W        W39621  29.358  13.334   4.720
68006W        W39622  31.826  17.802   3.640
68007W        W39623   9.510  20.933  12.859
68008W        W39624  32.563  26.082   4.534
68009W        W39625  39.235  18.739   1.376
68010W        W39626  33.858  34.944  11.081
68011W        W39627  43.777   8.607   4.101
68012W        W39628  18.841  26.975   4.603
68013W        W39629  27.657  35.420   1.149
68014W        W39630  16.907   3.810  14.000
68015W        W39631  23.511  34.033  14.756
68016W        W39632   7.172  18.111  12.313
68017W        W39633   7.195  13.165  12.532
68018W        W39634  35.586  29.488   0.091
68019W        W39635  12.596   3.226   3.810
68020W        W39636  28.187  17.959  14.840
68021W        W39637  35.419  36.593  14.747
68022W        W39638   5.425  11.607   0.491
68023W        W39639  27.088  43.767   3.577
68024W        W39640  32.477   6.886  12.087
68025W        W39641  44.086   7.905  14.324
68026W        W39642  42.355  14.756  12.999
68027W        W39643  14.976  31.517   3.709
68028W        W39644   6.656  20.594   4.189
68029W        W39645  43.917  34.483  12.633
68030W        W39646  35.667  38.736   0.744
68031W        W39647  36.887  32.606   3.540
68032W        W39648  11.568  28.055   5.070
68033W        W39649  23.041  11.288   4.704
68034W        W39650  29.559  28.594   0.223
68035W        W39651   7.856  41.469   1.425
68036W        W39652  31.584   9.173   0.678
68037W        W39653  40.323   6.460   4.070
68038W        W39654  32.557  28.977  14.988
68039W        W39655  22.950   2.199   4.667
68040W        W39656   6.079  42.010  14.831
68041W        W39657   6.231   3.815  10.573
68042W        W39658  17.085  33.795  12.940
68043W        W39659  32.921  27.194   3.727
68044W        W39660  27.625  39.203   4.275
68045W        W39661  15.088   4.436  13.942
68046W        W39662   3.985   0.141  11.482
68047W        W39663  40.875  41.105   0.310
68048W        W39664  13.632  18.464   4.902
68049W        W39665  44.360  20.883  13.532
68050W        W39666  12.880  17.185  12.893
68051W        W39667   8.231  34.843   4.547
68052W        W39668   7.267  42.662   0.230
68053W        W39669  14.205  39.541  13.273
68054W        W39670  19.087  38.975   0.340
68055W        W39671  16.172   1.428   4.315
68056W        W39672  14.586  40.427   2.409
68057W        W39673  32.401  42.641   4.818
68058W        W39674   6.119  40.339  10.819
68059W        W39675  17.599  42.783  14.953
68060W        W39676  25.661   1.355  12.428
68061W        W39677   5.675  15.848   4.054
68062W        W39678  43.761  39.098  10.042
68063W        W39679   9.763  33.823  13.524
68064W        W39680  29.547  10.712  13.232
68065W        W39681  12.945  34.870   1.444
68066W        W39682  10.195   2.309  10.563
68067W        W39683   3.704  40.849  10.635
68068W        W39684   5.081   5.106  13.716
68069W        W39685  43.251  35.874  14.445
68070W        W39686   5.416  16.785   4.197
68071W        W39687  13.849  28.612  10.898
68072W        W39688  38.070  40.549  14.236
68073W        W39689  42.535  15.482  11.935
68074W        W39690  31.130  43.398   0.805
68075W        W39691  32.845  26.094  12.421
68076W        W39692  12.085  34.158  13.704
68077W        W39693   9.658  18.702   1.820
68078W        W39694  31.965  32.120  10.463
68079W        W39695  18.388  22.793   1.032
68080W        W39696  17.082  22.711  14.999
68081W        W39697  29.129  39.375  12.294
68082W        W39698   4.893  37.045  12.137
68083W        W39699  18.711  26.943   0.257
68084W        W39700  36.282   3.251   4.453
68085W        W39701  33.376  16.100   4.909
68086W        W39702  40.282  26.498  14.308
68087W        W39703  40.274  15.100   2.657
68088W        W39704  25.404  31.080   1.298
68089W        W39705  15.757  35.768   5.001
68090W        W39706  21.697  37.661  13.977
68091W        W39707  22.085  11.325  12.879
68092W        W39708  19.317   1.466  14.492
68093W        W39709  27.652  30.935   4.236
68094W        W39710  34.155  12.147  14.173
68095W        W39711  32.713   2.372  12.659
68096W        W39712  34.654  11.844   3.654
68097W        W39713  42.923  13.041  13.508
68098W        W39714   9.872  29.672  14.895
68099W        W39715  28.467  39.397  12.978
68100W        W39716  22.173  22.139  12.026
68101W        W39717   8.570  14.550   0.291
68102W        W39718  34.490   4.647   4.086
68103W        W39719   9.192  38.067   2.734
68104W        W39720  35.122  41.979   1.276
68105W        W39721   5.007  31.487   1.726
68106W        W39722   2.854  14.072   0.450
68107W        W39723  12.783  34.309   0.178
68108W        W39724  43.400  34.494  13.047
68109W        W39725   5.241  37.324  13.952
68110W        W39726  21.184   2.264  11.696
68111W        W39727   2.350   7.684   2.927
68112W        W39728  39.939  31.953  12.652
68113W        W39729  16.665  36.471   0.335
68114W        W39730   0.877  25.015  13.730
68115W        W39731   2.902  24.128  13.901
68116W        W39732  13.099  16.060   3.696
68117W        W39733  12.403  18.611   1.378
68118W        W39734  32.133  24.723   4.359
68119W        W39735  35.591  15.744   2.434
68120W        W39736  28.660   6.470  13.019
68121W        W39737   6.654  38.851  14.346
68122W        W39738  28.921   9.827  10.533
68123W        W39739  20.598  32.659  12.892
68124W        W39740  17.566  29.202   0.362
68125W        W39741  40.865  11.456   3.901
68126W        W39742   9.409   2.636   3.359
68127W        W39743  15.276  13.375   1.919
68128W        W39744  40.281  12.642  10.691
68129W        W39745  43.872  11.264   3.057
68130W        W39746   7.175   0.430   0.036
68131W        W39747  15.702  36.684   4.777
68132W        W39748  28.478   1.242   1.417
68133W        W39749   8.165  37.269  11.178
68134W        W39750  44.217  27.657  12.366
68135W        W39751  20.763  34.950  13.468
68136W        W39752  43.944  29.217  14.770
68137W        W39753  24.233   3.941   0.861
68138W        W39754  39.543  19.855   0.823
68139W        W39755  17.222  37.587  11.542
68140W        W39756   7.631  26.606   2.584
68141W        W39757  23.161  35.989  12.920
68142W        W39758  41.325  38.003   3.696
68143W        W39759  22.311  19.865  14.301
68144W        W39760  22.141  34.758   3.335
68145W        W39761  23.446   8.250   4.241
68146W        W39762  17.587   9.649  10.583
68147W        W39763  43.930  36.897  11.187
68148W        W39764  36.519  39.259   0.870
68149W        W39765  36.840  17.931  11.476
68150W        W39766  24.488  19.863  10.747
68151W        W39767  39.147  36.562   1.870
68152W        W39768  33.000  41.606  12.925
68153W        W39769  17.769  32.282   0.358
68154W        W39770  10.195  16.734   3.572
68155W        W39771   6.755  31.426   4.880
68156W        W39772  40.090  35.172  14.480
68157W        W39773  17.080  24.435   3.739
68158W        W39774   6.284  12.373  14.959
68159W        W39775   5.994  29.579  13.540
68160W        W39776  39.960  41.676  13.083
68161W        W39777  24.003  40.793   4.847
68162W        W39778  22.520  44.414   3.148
68163W        W39779  27.708   2.882  13.841
68164W        W39780  18.217  29.528   1.333
68165W        W39781  40.978  31.016   3.476
68166W        W39782   6.418  32.971   3.404
68167W        W39783   0.376  10.434   3.855
68168W        W39784  35.996  22.726   0.020
68169W        W39785  19.980   2.729   2.394
68170W        W39786  38.111  11.740   3.108
68171W        W39787  41.058  42.003  10.696
68172W        W39788  28.056   2.207   0.034
68173W        W39789  16.318  33.938  10.363
68174W        W39790  19.780  25.869  14.366
68175W        W39791   6.810   2.967  11.646
68176W        W39792  37.971  39.741  13.524
68177W        W39793  15.076  10.379   0.858
68178W        W39794  38.789   0.013   0.271
68179W        W39795  10.244  44.184  11.032
68180W        W39796  26.020  30.344   0.034
68181W        W39797  16.202  11.369   4.272
68182W        W39798   5.483  25.611   1.733
68183W        W39799   9.404  37.175   3.712
68184W        W39800  42.256  27.553   0.531
68185W        W39801  10.251  31.701   0.863
68186W        W39802   4.500  11.914  10.064
68187W        W39803   0.824  24.515  10.571
68188W        W39804  18.999  17.814   0.747
68189W        W39805  43.002   8.418  11.605
68190W        W39806  41.944  31.088  14.153
68191W        W39807  18.999  25.086   0.720
68192W        W39808   0.815  21.231  14.319
68193W        W39809   6.842  39.294  12.912
68194W        W39810  43.342  31.584  13.807
68195W        W39811  40.544  41.479   4.253
68196W        W39812  24.109  36.458   1.497
68197W        W39813  34.024  40.756   2.755
68198W        W39814   9.921   6.752   0.650
68199W        W39815   9.786  34.795  12.096
68200W        W39816   0.432  17.104  10.639
68201W        W39817  20.533  41.984  14.093
68202W        W39818  29.670   9.031   2.566
68203W        W39819  33.350  42.607   2.177
68204W        W39820   5.761  33.377   4.516
68205W        W39821  31.145  13.126  14.498
68206W        W39822  37.455  42.698  14.356
68207W        W39823   7.550  16.229   2.927
68208W        W39824  27.883  41.398  11.142
68209W        W39825  22.146  15.620   1.678
68210W        W39826   0.415  37.970   2.653
68211W        W39827   2.229   6.831  13.448
68212W        W39828  38.567  16.679  11.714
68213W        W39829   0.353  24.675   3.718
68214W        W39830  33.914  19.742   2.757
68215W        W39831  10.387  23.277   4.296
68216W        W39832  33.877  38.999   3.303
68217W        W39833   2.158  36.964   1.283
68218W        W39834   7.362  36.087  13.362
68219W        W39835  10.278   2.176   0.989
68220W        W39836  38.575  25.037   2.871
68221W        W39837  17.765   0.770  13.508
68222W        W39838   0.211  28.714  13.867
68223W        W39839   3.435  15.806   1.006
68224W        W39840   3.986  34.101   3.384
68225W        W39841   0.196  28.313   0.981
68226W        W39842   3.256  26.435   3.288
68227W        W39843   3.952  38.533   2.978
68228W        W39844  14.859  32.502  13.814
68229W        W39845  35.691  30.605  12.669
68230W        W39846  14.211  11.909  11.735
68231W        W39847  19.201  12.660  12.111
68232W        W39848  31.278  15.809   3.302
68233W        W39849  26.371  23.441  10.316
68234W        W39850  36.066  13.697  10.645
68235W        W39851   7.181  42.961   1.581
68236W        W39852   6.955  18.092   2.741
68237W        W39853  10.392  22.920  14.764
68238W        W39854  14.653   6.297   4.909
68239W        W39855  12.779  30.878  12.047
68240W        W39856  34.285  24.489   2.760
68241W        W39857  20.691  36.343   1.922
68242W        W39858  20.261  30.671  11.205
68243W        W39859   9.237  44.472   2.871
68244W        W39860  39.950  14.055   4.486
68245W        W39861  37.274  20.799   0.311
68246W        W39862  42.404  39.037  10.980
68247W        W39863   0.921  29.711  14.257
68248W        W39864  26.221   4.897   2.888
68249W        W39865   9.899   1.876  11.742
68250W        W39866  43.668  39.958  13.042
68251W        W39867  19.210  12.275  10.910
68252W        W39868  22.246  22.687   3.264
68253W        W39869  17.518   1.688  14.342
68254W        W39870  29.098  33.042  10.989
68255W        W39871   6.961  14.957  12.654
68256W        W39872  21.925   2.032   3.142
68257W        W39873  15.550  21.285  12.985
68258W        W39874  23.788  23.978  12.295
68259W        W39875   5.715  21.129  10.566
68260W        W39876  15.666   4.206   1.274
68261W        W39877  13.437  33.160  11.046
68262W        W39878  24.036   9.114  11.961
68263W        W39879  12.803  28.659  12.166
68264W        W39880  13.679   8.296   3.837
68265W        W39881  44.912   5.700  13.794
68266W        W39882  18.764  41.956  14.176
68267W        W39883  30.133  26.968  14.484
68268W        W39884  10.112  29.945  11.906
68269W        W39885   5.161  44.410   2.957
68270W        W39886  36.604   1.847  14.504
68271W        W39887  34.179   1.283  11.701
68272W        W39888   2.508  42.820   1.398
68273W        W39889  11.780  11.398   4.722
68274W        W39890  26.309  25.671   3.960
68275W        W39891  12.873   1.366   0.336
68276W        W39892  17.812   7.176   1.281
68277W        W39893   9.327  42.394  13.348
68278W        W39894   5.199  27.762  10.178
68279W        W39895  36.986  29.737  14.880
68280W        W39896   2.911  16.581  14.926
68281W        W39897  19.449  34.606  11.902
68282W        W39898   0.962  41.084   2.628
68283W        W39899  10.256   6.744  11.979
68284W        W39900  21.670   2.494   4.951
68285W        W39901  12.678  36.769   0.240
68286W        W39902  18.126  26.498   1.880
68287W        W39903  20.479  20.992  12.555
68288W        W39904  21.885   6.714  12.688
68289W        W39905   1.431   3.737  12.791
68290W        W39906  12.657  17.036  10.773
68291W        W39907   3.187  37.274   1.298
68292W        W39908   2.911  10.686  14.406
68293W        W39909   9.959  19.103   0.775
68294W        W39910  37.892  30.495   2.701
68295W        W39911   3.248  44.869   1.857
68296W        W39912  13.201  19.957   2.521
68297W        W39913  23.156  28.640   2.163
68298W        W39914  30.957  14.074   2.157
68299W        W39915   5.458  26.227  13.444
68300W        W39916  10.765  24.366   1.196
68301W        W39917  13.269  34.809   4.608
68302W        W39918  37.833  21.976  11.602
68303W        W39919  15.533  17.574   0.079
68304W        W39920  10.815  25.413  12.621
68305W        W39921  23.766   0.845   3.114
68306W        W39922   7.287  28.010   0.977
68307W        W39923  34.452  27.494  13.061
68308W        W39924  31.185  26.523  12.200
68309W        W39925  17.738  21.639   2.834
68310W        W39926  18.558  34.501   2.279
68311W        W39927  43.462  13.640   1.061
68312W        W39928  42.100  38.114  13.885
68313W        W39929   6.651  41.797  10.390
68314W        W39930  17.442  17.113  12.558
68315W        W39931   7.449  17.479  10.247
68316W        W39932  28.730  41.937  13.996
68317W        W39933  44.256  12.928   3.614
68318W        W39934  41.846  40.325  11.152
68319W        W39935  26.431  26.076  14.770
68320W        W39936  17.335  33.405  12.007
68321W        W39937  24.640  30.371   4.472
68322W        W39938  30.393  42.045  11.975
68323W        W39939  12.172   4.965   0.701
68324W        W39940  19.798  33.023  11.173
68325W        W39941  30.701   8.284   3.581
68326W        W39942  21.956  41.896  14.492
68327W        W39943   3.612  30.431   2.296
68328W        W39944  15.957  16.489  14.314
68329W        W39945  30.669  33.665   4.650
68330W        W39946   7.889  27.723  12.321
68331W        W39947  12.765  39.189   2.714
68332W        W39948   2.920  41.937   0.376
68333W        W39949  39.786  44.008   1.871
68334W        W39950  18.682  20.781  10.828
68335W        W39951  13.820  22.096   0.864
68336W        W39952  23.816  27.955  14.410
68337W        W39953  39.229  28.375   4.919
68338W        W39954  28.043  32.553  11.179
68339W        W39955   2.446  41.712   0.281
68340W        W39956  10.286   9.863   4.608
68341W        W39957  22.668  33.482  14.713
68342W        W39958  11.518  13.263   2.801
68343W        W39959  35.197  18.414  11.425
68344W        W39960  39.387  13.624   3.678
68345W        W39961  19.898  36.129   1.724
68346W        W39962  37.263  42.664   4.210
68347W        W39963  22.179  12.016  13.544
68348W        W39964  22.751   6.151  13.816
68349W        W39965  11.083   2.492  12.894
68350W        W39966  19.474  21.920   0.889
68351W        W39967   2.067  41.771   3.693
68352W        W39968  21.572  11.818  14.299
68353W        W39969  11.648  17.123  12.424
68354W        W39970   5.826  20.721  14.442
68355W        W39971  39.875  16.867   2.730
68356W        W39972   1.886  42.308   3.518
68357W        W39973  21.621  25.246   4.128
68358W        W39974   8.821  43.957  11.516
68359W        W39975   6.263   7.462  12.467
68360W        W39976  16.005  11.238  12.923
68361W        W39977  40.336  18.974  12.380
68362W        W39978  23.705  13.523  12.184
68363W        W39979   5.285  32.137  11.980
68364W        W39980   8.399  31.243  14.272
68365W        W39981  11.402  32.267  14.717
68366W        W39982  19.659  36.553  14.432
68367W        W39983  19.751   9.677  14.545
68368W        W39984   3.930  34.891   0.976
68369W        W39985  15.564  35.368   4.146
68370W        W39986  12.065  17.662   1.870
68371W        W39987   5.444   0.517  11.001
68372W        W39988  37.910   8.877   0.747
68373W        W39989  15.308  44.601  14.472
68374W        W39990  11.059  38.009   2.660
68375W        W39991  32.507  34.113  14.282
68376W        W39992  43.329  37.317  13.985
68377W        W39993  27.765   9.837   0.765
68378W        W39994  39.535  23.812   4.147
68379W        W39995  20.667  43.487   2.275
68380W        W39996   5.151  31.607   0.432
68381W        W39997  21.412   1.326   2.010
68382W        W39998  13.127  13.674   2.334
68383W        W39999   5.219  23.648  11.372
68384W        W40000  41.465   9.480   2.397
68385W        W40001  17.611  30.234   2.396
68386W        W40002  32.991  25.646   3.700
68387W        W40003  36.036  40.500   2.168
68388W        W40004  36.061  36.637   0.190
68389W        W40005  35.084  11.129  13.462
68390W        W40006  44.965  11.621  11.634
68391W        W40007  28.663  32.825  14.277
68392W        W40008  15.053  27.952   1.267
68393W        W40009  37.892  29.695  12.128
68394W        W40010  13.566   4.087   0.010
68395W        W40011  25.653   0.833   3.268
68396W        W40012   6.404  20.676  10.497
68397W        W40013  40.250  43.688  11.997
68398W        W40014   8.450  34.093   4.159
68399W        W40015  30.578   3.360  12.580
68400W        W40016  39.836  22.686  10.580
68401W        W40017  23.729  11.750   3.802
68402W        W40018  32.228  14.083   1.758
68403W        W40019   9.556  42.293   0.485
68404W        W40020   9.726  41.373  11.613
68405W        W40021  36.924  20.579   4.807
68406W        W40022  14.571  32.116  14.066
68407W        W40023  22.201   6.593   4.624
68408W        W40024  24.276  36.309  13.537
68409W        W40025  13.573   6.900   1.843
68410W        W40026  18.670  24.378   4.471
68411W        W40027   7.152  35.869   0.842
68412W        W40028  15.255  20.479   1.004
68413W        W40029  36.937  17.079   3.420
68414W        W40030  25.493   3.442  11.395
68415W        W40031  30.101  41.952  12.850
68416W        W40032  36.154   3.466   2.343
68417W        W40033  34.024  37.629   4.804
68418W        W40034   1.479   5.228   0.272
68419W        W40035  11.624   5.361  14.323
68420W        W40036  10.310  34.504   2.461
68421W        W40037  40.286  14.438   1.397
68422W        W40038  41.474  16.354   4.669
68423W        W40039   6.368  26.044  11.571
68424W        W40040  37.143  37.388  12.398
68425W        W40041  14.443   1.975  11.665
68426W        W40042  40.539  18.069  10.694
68427W        W40043  27.442  11.078  13.833
68428W        W40044  10.979   4.503   2.959
68429W        W40045  10.448  42.353   4.561
68430W        W40046  37.752  36.379   0.849
68431W        W40047  44.971  43.399   4.743
68432W        W40048  13.274  15.273   4.209
68433W        W40049  17.532   5.291   2.906
68434W        W40050   1.983  17.764   3.777
68435W        W40051  35.853  29.902   1.737
68436W        W40052  20.281  31.198   4.220
68437W        W40053  31.226  28.555  13.370
68438W        W40054   1.218  13.820   1.640
68439W        W40055  31.015  28.692   3.254
68440W        W40056  27.136   8.752  12.867
68441W        W40057  23.310  30.539  12.037
68442W        W40058  35.487   0.256   2.750
68443W        W40059  17.376  26.099   3.769
68444W        W40060  18.084  27.709  11.599
68445W        W40061  38.352  36.887   2.206
68446W        W40062  11.903   0.298  13.549
68447W        W40063  14.073  23.930   1.170
68448W        W40064  33.716  25.700   2.878
68449W        W40065  33.957   6.554   3.235
68450W        W40066  30.530  21.826  11.153
68451W        W40067  30.628  44.759   3.915
68452W        W40068  27.950   3.240   2.347
68453W        W40069  28.571   0.233  14.100
68454W        W40070  20.577  24.477   0.886
68455W        W40071  43.021  42.264  13.617
68456W        W40072  43.067  18.566   2.808
68457W        W40073  31.170  34.561   3.340
68458W        W40074  21.122   8.919  12.415
68459W        W40075  15.860  27.893  13.780
68460W        W40076   2.470   4.023  12.422
68461W        W40077  12.884  15.941  12.226
68462W        W40078  37.283  30.348   2.392
68463W        W40079  19.511  33.934  13.590
68464W        W40080  20.311  28.967   4.196
68465W        W40081  18.784   5.162   1.329
68466W        W40082  28.028   3.636  13.544
68467W        W40083  26.720  34.629  12.209
68468W        W40084  24.696  43.556  14.820
68469W        W40085   5.240  40.832  11.728
68470W        W40086   0.816  42.022  11.899
68471W        W40087   5.001  10.841   2.762
68472W        W40088  30.185  31.433   1.470
68473W        W40089  13.519  38.331  12.143
68474W        W40090  20.130  36.673  14.220
68475W        W40091  22.127  44.944  14.866
68476W        W40092  10.872  42.696  11.135
68477W        W40093  15.068   2.900   3.325
68478W        W40094  13.452  40.520  13.066
68479W        W40095   1.600   3.339   0.419
68480W        W40096  31.138  14.108   4.619
68481W        W40097  43.731  13.248  13.925
68482W        W40098  30.902  22.430   1.699
68483W        W40099  38.915  15.166   1.417
68484W        W40100  18.063  22.627  14.065
68485W        W40101  19.661  20.521  14.645
68486W        W40102  22.009   5.014   2.711
68487W        W40103  35.275  34.666  11.122
68488W        W40104  11.375  25.443  11.670
68489W        W40105  31.936  32.869   2.384
68490W        W40106  26.135  26.697   1.723
68491W        W40107  12.292  34.388   4.520
68492W        W40108  18.791  13.097   2.683
68493W        W40109  35.624   7.730   1.531
68494W        W40110  32.745   7.627  11.613
68495W        W40111   5.507  14.690   2.151
68496W        W40112  16.751  30.137   2.601
68497W        W40113   3.867   2.827   3.860
68498W        W40114  37.437  17.633   1.798
68499W        W40115   5.107   2.779   4.522
68500W        W40116  11.225  42.381  12.340
68501W        W40117  44.783  20.908  14.426
68502W        W40118  16.329  42.778   0.370
68503W        W40119  22.768   7.708  13.983
68504W        W40120   8.371  38.932  11.858
68505W        W40121   4.664  12.811  11.105
68506W        W40122   2.317  18.963   0.355
68507W        W40123  25.701  27.189   3.414
68508W        W40124   5.738  15.602  12.495
68509W        W40125  28.974  11.284   0.714
68510W        W40126  31.920  21.785   1.187
68511W        W40127  18.022  23.988   4.169
68512W        W40128  35.941   7.579   4.868
68513W        W40129   5.137   2.486   0.484
68514W        W40130  14.528  11.262  12.824
68515W        W40131   6.892  38.599  12.562
68516W        W40132   2.238  25.528  14.910
68517W        W40133  36.127  21.453   3.089
68518W        W40134  42.964   2.718  11.322
68519W        W40135  22.395   7.900   3.678
68520W        W40136  34.088   8.404   3.663
68521W        W40137  23.757  20.194   3.400
68522W        W40138  16.762   8.700  14.106
68523W        W40139  31.657  28.518   1.333
68524W        W40140  20.204  34.108   2.872
68525W        W40141  24.709  35.577  11.634
68526W        W40142   8.726  19.013  14.496
68527W        W40143  35.893  37.025   3.418
68528W        W40144  36.177  34.574   1.237
68529W        W40145  17.625  26.512   2.659
68530W        W40146  16.309  12.291  13.582
68531W        W40147   5.661  30.127   3.583
68532W        W40148  25.223  28.403  11.134
68533W        W40149  36.364  21.591  11.680
68534W        W40150  23.878  35.106   3.741
68535W        W40151  23.516  14.364  11.155
68536W        W40152  37.060  17.905  14.508
68537W        W40153   5.699  40.188   3.420
68538W        W40154  12.245  25.078   1.767
68539W        W40155  37.907  36.637   2.842
68540W        W40156  18.356  28.722   3.659
68541W        W40157  23.091  34.955   0.436
68542W        W40158   5.746  40.115   2.158
68543W        W40159  15.237  18.940  10.403
68544W        W40160  16.319  24.451  12.378
68545W        W40161  26.597  39.857  14.736
68546W        W40162  17.384  37.628   3.247
68547W        W40163  29.649  30.548   1.700
68548W        W40164  42.216  30.519   3.605
68549W        W40165  41.315  35.380  12.979
68550W        W40166   3.148  30.793  10.225
68551W        W40167  28.050  17.218  14.344
68552W        W40168  39.242   4.856  12.958
68553W        W40169  19.261  40.994   1.291
68554W        W40170  12.271  37.592  13.251
68555W        W40171   7.121  15.874  11.557
68556W        W40172   0.166  27.222   4.204
68557W        W40173   7.341  14.552  12.579
68558W        W40174   6.991  15.158  10.936
68559W        W40175   6.710  40.129  11.164
68560W        W40176  32.912   5.788  14.774
68561W        W40177  10.179  44.620  13.473
68562W        W40178  35.745  38.384   0.261
68563W        W40179  26.010  29.082   3.218
68564W        W40180  22.714   6.926   2.796
68565W        W40181  41.508   6.522   4.240
68566W        W40182  23.529   1.280  11.095
68567W        W40183  34.339   7.321   3.713
68568W        W40184  33.006   3.221   1.972
68569W        W40185  10.662  11.672   3.824
68570W        W40186   3.306  33.582   5.151
68571W        W40187  11.142   2.870  13.295
68572W        W40188   0.500  21.577  14.542
68573W        W40189  27.735  37.502   3.605
68574W        W40190   5.728  16.213  11.958
68575W        W40191  37.120  15.600  12.064
68576W        W40192  20.020  32.900   3.810
68577W        W40193  43.048  22.544   1.288
68578W        W40194  21.006  14.788  12.041
68579W        W40195   5.264   2.215  12.562
68580W        W40196  26.461  31.750   3.730
68581W        W40197   1.328  38.804  14.880
68582W        W40198  32.421  39.521  13.399
68583W        W40199  11.826  21.972   4.058
68584W        W40200  25.503  27.754   1.214
68585W        W40201  25.095  38.964   2.643
68586W        W40202  15.024  23.496   0.975
68587W        W40203  26.139  30.930   3.132
68588W        W40204   7.761  12.758   4.050
68589W        W40205  36.999  21.730   4.068
68590W        W40206   2.186   7.577   4.111
68591W        W40207  22.141  11.923   2.093
68592W        W40208  38.695  29.694   4.642
68593W        W40209  24.563  31.745   0.976
68594W        W40210   0.953   7.736  11.589
68595W        W40211   3.807  21.483   4.043
68596W        W40212  23.225   4.832  13.350
68597W        W40213  40.305  10.154  12.944
68598W        W40214   2.854  25.147   4.219
68599W        W40215  26.519   3.759   2.205
68600W        W40216  20.709  40.902  14.403
68601W        W40217  13.161  37.291  12.387
68602W        W40218   9.284  13.090  10.856
68603W        W40219  39.228   5.394   4.215
68604W        W40220  36.384   8.918   4.301
68605W        W40221  25.205  16.768   3.674
68606W        W40222  42.376   4.564  13.330
68607W        W40223  17.576  23.661  13.984
68608W        W40224  44.518  23.173   2.349
68609W        W40225   6.925   8.714  14.387
68610W        W40226  36.526  10.415   3.124
68611W        W40227  31.359  14.529   2.377
68612W        W40228  26.129  13.633  10.589
68613W        W40229  10.594  43.900   0.973
68614W        W40230  35.489  39.525   4.678
68615W        W40231   4.534   5.677  12.967
68616W        W40232   5.569  34.587  13.029
68617W        W40233  40.570  16.302   2.019
68618W        W40234  23.237   2.276   2.069
68619W        W40235   4.025  32.635   1.508
68620W        W40236  23.759  18.184   2.730
68621W        W40237   7.963  29.466   3.618
68622W        W40238   2.029  34.004  12.435
68623W        W40239  20.519  33.155  10.732
68624W        W40240  13.978  44.037   1.314
68625W        W40241  15.694   6.525   1.683
68626W        W40242   4.854  35.595   4.372
68627W        W40243  28.630  26.532  13.878
68628W        W40244  33.387   4.253   1.451
68629W        W40245   6.031   4.446   3.435
68630W        W40246  43.871  33.759   0.530
68631W        W40247   6.732   3.628  13.327
68632W        W40248  26.760  12.697   3.138
68633W        W40249   7.087  38.821   2.813
68634W        W40250  27.777  30.246  10.692
68635W        W40251  37.910  38.417  11.100
68636W        W40252  10.914   5.195  13.500
68637W        W40253  33.911  13.541   0.303
68638W        W40254  38.827  36.135   1.431
68639W        W40255   1.240  39.989  10.903
68640W        W40256  40.083  19.359  11.083
68641W        W40257  17.705  44.251   1.622
68642W        W40258  11.074  31.164  11.477
68643W        W40259   9.210   5.901   1.311
68644W        W40260  30.609  24.070   3.953
68645W        W40261  26.860  12.629  10.631
68646W        W40262  16.655  30.661   1.935
68647W        W40263  10.146  32.404   4.180
68648W        W40264  26.220  39.453   4.186
68649W        W40265  18.101  26.108   1.533
68650W        W40266  20.085  18.610   5.039
68651W        W40267  21.650  37.594  12.634
68652W        W40268  41.309   3.763   2.403
68653W        W40269  11.123   7.887   3.978
68654W        W40270  30.613  38.380  12.911
68655W        W40271  16.663  33.852   0.428
68656W        W40272   4.558  20.721   2.201
68657W        W40273  22.340  26.568   0.364
68658W        W40274   7.377  21.199   0.022
68659W        W40275  40.074  20.116  11.208
68660W        W40276  13.217  25.688   0.212
68661W        W40277  29.704  33.764   2.842
68662W        W40278   0.761   4.618  10.688
68663W        W40279  27.083   1.814  14.306
68664W        W40280  37.637  39.712   1.363
68665W        W40281  18.784  16.749   4.789
68666W        W40282  20.842  35.961  11.088
68667W        W40283  31.609  13.250  14.700
68668W        W40284  30.081  13.734   2.214
68669W        W40285  37.426  44.449  13.792
68670W        W40286   2.660  34.827   0.977
68671W        W40287  35.216  18.358   3.545
68672W        W40288   6.576   4.896  13.901
68673W        W40289   2.794  19.738   1.973
68674W        W40290  19.095  28.665   0.045
68675W        W40291  26.136  24.971   4.138
68676W        W40292  10.382   8.086   0.514
68677W        W40293   8.620  38.495   3.387
68678W        W40294  18.532   6.969   2.937
68679W        W40295  25.092   7.681   1.418
68680W        W40296  16.729  43.464  14.745
68681W        W40297  14.093  16.893  12.327
68682W        W40298  31.957  22.779  12.284
68683W        W40299   4.149  33.921   4.799
68684W        W40300  39.607   1.301   4.325
68685W        W40301  38.192  29.071   5.195
68686W        W40302  12.313  38.844   2.119
68687W        W40303  28.422  11.336   3.182
68688W        W40304  20.649  33.492   4.341
68689W        W40305  37.582  18.218   4.215
68690W        W40306  16.865  34.313   4.127
68691W        W40307   5.331   8.947   0.858
68692W        W40308  23.602  36.288  12.933
68693W        W40309  33.190  13.302   0.802
68694W        W40310  33.932   2.081   0.491
68695W        W40311  35.095  25.972  11.566
68696W        W40312  39.513  35.818   4.679
68697W        W40313   3.944  44.456  10.968
68698W        W40314  26.581   4.266   2.165
68699W        W40315  12.622  10.640   4.549
68700W        W40316   8.235  17.784  12.181
68701W        W40317  33.924  19.204  10.732
68702W        W40318  18.295  14.373  14.228
68703W        W40319  32.677  39.113   4.526
68704W        W40320  14.601   2.857  13.407
68705W        W40321  24.015  11.898  12.071
68706W        W40322  32.403   5.904   0.486
68707W        W40323  21.803  21.167   1.899
68708W        W40324  37.967  43.191   3.785
68709W        W40325  41.255  33.122   4.638
68710W        W40326  39.185   2.179   4.076
68711W        W40327  41.502  10.424   0.210
68712W        W40328  31.289   8.627   0.291
68713W        W40329  15.806   1.365  11.480
68714W        W40330  23.254  28.166  13.426
68715W        W40331  13.116  16.657   0.634
68716W        W40332  38.439   9.858   2.224
68717W        W40333  15.258  42.478  12.046
68718W        W40334  23.468  18.257  13.978
68719W        W40335  20.827  39.470   3.230
68720W        W40336  29.488   9.984  14.387
68721W        W40337  31.128  44.804  11.297
68722W        W40338  21.989  20.767   1.300
68723W        W40339  13.760  39.455  12.348
68724W        W40340  27.388  12.086  12.554
68725W        W40341  19.796  12.466   4.246
68726W        W40342  16.756  40.620  14.850
68727W        W40343  15.827  17.212  14.838
68728W        W40344  17.543  17.706  14.725
68729W        W40345  19.713   0.229  10.778
68730W        W40346  16.086  42.559   2.139
68731W        W40347   8.410  26.971  12.944
68732W        W40348  40.127  19.530  13.821
68733W        W40349  40.942   3.434   2.667
68734W        W40350  28.996   8.643   0.433
68735W        W40351  10.117  15.880  11.571
68736W        W40352  14.031  34.049   4.753
68737W        W40353  10.301   8.158   2.237
68738W        W40354  33.304  38.019  13.859
68739W        W40355  36.598  33.820  14.003
68740W        W40356  29.240  23.778  14.244
68741W        W40357  17.008   4.143  11.088
68742W        W40358   4.871   6.466  11.199
68743W        W40359   4.643   5.247  12.362
68744W        W40360  10.080  21.782   4.239
68745W        W40361  28.851  12.188  14.689
68746W        W40362  11.666   7.791  14.783
68747W        W40363  32.918  10.743  14.988
68748W        W40364  24.574  29.065   1.883
68749W        W40365  17.054  38.485   4.828
68750W        W40366  12.329  25.618   1.396
68751W        W40367  17.596  21.424   3.280
68752W        W40368  14.455   7.767   3.650
68753W        W40369  17.241  14.632   3.439
68754W        W40370  41.481  14.848  10.845
68755W        W40371  16.651  43.904  13.949
68756W        W40372  16.675  23.475   0.383
68757W        W40373  20.240  39.207  10.720
68758W        W40374  28.969  38.835   4.167
68759W        W40375  19.918  34.923   4.537
68760W        W40376  33.358  14.109  12.516
68761W        W40377   3.649  21.047   0.359
68762W        W40378  10.053  22.020  11.434
68763W        W40379   6.961  15.722   0.474
68764W        W40380  24.498  44.406   4.141
68765W        W40381  17.973  18.325   1.438
68766W        W40382  32.966  12.602   1.614
68767W        W40383   0.740   0.464  14.205
68768W        W40384   8.151   1.469   1.384
68769W        W40385  40.070  24.568   0.707
68770W        W40386  20.105  16.980   2.204
68771W        W40387  31.976   0.783   2.813
68772W        W40388  11.378  18.720  14.914
68773W        W40389  32.983   5.637  11.021
68774W        W40390   9.496   5.944   2.298
68775W        W40391   4.054  22.699   1.272
68776W        W40392   0.802   8.171  13.961
68777W        W40393  26.621  44.870   4.184
68778W        W40394   6.093  20.086   2.869
68779W        W40395   7.086   7.375  11.970
68780W        W40396  41.300  11.754  14.202
68781W        W40397  44.695   7.176  10.930
68782W        W40398  39.561  14.679   3.159
68783W        W40399  40.898  11.560   0.805
68784W        W40400  16.624  39.145   0.780
68785W        W40401  41.845   9.186   3.215
68786W        W40402   0.765   8.386  14.453
68787W        W40403  19.608  42.376  12.471
68788W        W40404  12.914  27.412   1.395
68789W        W40405  43.469  11.074  12.161
68790W        W40406  24.587  27.848   1.326
68791W        W40407  28.737  23.431  14.399
68792W        W40408  17.569  23.997   0.898
68793W        W40409  40.455   4.148   4.737
68794W        W40410  42.037  12.705  13.942
68795W        W40411  11.111  24.559  11.570
68796W        W40412  18.234  17.073   0.830
68797W        W40413  37.849  41.860  13.879
68798W        W40414   5.339  25.563   2.392
68799W        W40415  29.845  27.899   3.161
68800W        W40416  12.833  29.862   0.924
68801W        W40417  35.440   8.165   4.997
68802W        W40418  31.746  29.384   2.158
68803W        W40419   2.107   7.197   4.913
68804W        W40420  14.327  15.333   2.943
68805W        W40421   3.446   9.504  14.765
68806W        W40422  40.540   6.521   5.005
68807W        W40423  36.602  14.211   3.720
68808W        W40424  23.790   1.735   3.282
68809W        W40425  16.587  24.065   1.763
68810W        W40426  10.387  23.002  11.596
68811W        W40427  29.566  43.992  11.397
68812W        W40428  18.234  15.390  11.874
68813W        W40429   3.690  33.119   0.319
68814W        W40430  30.041  43.335  13.091
68815W        W40431  38.812  43.230   2.681
68816W        W40432  30.553  21.328  11.195
68817W        W40433   1.262  40.848   4.545
68818W        W40434  26.601  26.960  10.652
68819W        W40435  21.826  19.352  14.943
68820W        W40436  10.276  41.817   1.778
68821W        W40437  19.228  13.591   3.409
68822W        W40438   6.116  39.421  13.629
68823W        W40439   4.066  28.095  14.879
68824W        W40440  34.539  10.910  10.525
68825W        W40441  11.011  20.633   3.641
68826W        W40442  33.526  18.020   0.937
68827W        W40443  21.589  39.109   0.908
68828W        W40444   9.137  34.731   2.733
68829W        W40445   1.779  42.352  11.652
68830W        W40446  38.586  30.733  13.975
68831W        W40447   3.795  15.522  12.245
68832W        W40448  13.226  20.827   3.191
68833W        W40449  21.150  10.000   3.744
68834W        W40450   7.120  33.384  13.930
68835W        W40451  33.945  44.940   4.746
68836W        W40452  29.870  41.323  13.580
68837W        W40453  42.212  17.680  12.748
68838W        W40454  43.334  38.754   0.200
68839W        W40455  20.601  27.502  14.372
68840W        W40456  20.916  39.227   2.747
68841W        W40457  28.540  28.880   4.289
68842W        W40458  26.070  35.268  13.344
68843W        W40459   0.330  12.839  14.410
68844W        W40460   2.938  33.948   0.223
68845W        W40461  13.334   0.513   3.738
68846W        W40462  24.462  25.931   2.916
68847W        W40463  18.162   8.779  14.837
68848W        W40464  35.082  38.387  13.719
68849W        W40465  35.439   0.071  11.487
68850W        W40466  17.184   8.395   3.459
68851W        W40467   1.380  43.371   0.938
68852W        W40468   1.967  30.082   4.801
68853W        W40469   0.996  39.771  12.699
68854W        W40470  15.575  30.587   1.238
68855W        W40471  27.396  10.413   1.917
68856W        W40472   2.373  13.215   3.237
68857W        W40473   9.639   6.737  13.417
68858W        W40474   0.754  23.084  13.532
68859W        W40475  38.038   2.655  13.966
68860W        W40476  25.956  15.346   4.116
68861W        W40477  28.675  35.836   3.234
68862W        W40478   2.359  21.669   0.592
68863W        W40479  19.345  22.698  13.003
68864W        W40480  38.459  13.029   4.037
68865W        W40481  14.057  18.761  11.106
68866W        W40482  29.133  42.004   2.787
68867W        W40483  24.805  41.920   2.106
68868W        W40484  11.137   8.865  11.365
68869W        W40485  42.926  43.487   0.691
68870W        W40486  36.465   0.864   3.702
68871W        W40487  17.462  25.138   3.249
68872W        W40488  30.126  29.117  10.662
68873W        W40489   8.314  33.091  11.382
68874W        W40490  31.170  20.512  14.966
68875W        W40491  20.508  24.492   3.837
68876W        W40492  20.785  17.085  12.893
68877W        W40493   7.152   6.227   3.257
68878W        W40494   6.151  30.421   0.193
68879W        W40495  10.660   8.841   1.693
68880W        W40496   4.244  26.540  13.313
68881W        W40497  15.094  20.660  13.314
68882W        W40498  25.632   9.381  14.019
68883W        W40499  41.870  25.936   3.802
68884W        W40500   6.358   5.461  10.587
68885W        W40501   0.754  14.115  12.347
68886W        W40502  42.440  30.834   0.790
68887W        W40503  29.505   1.931   0.285
68888W        W40504  42.726  43.010   4.684
68889W        W40505  22.850  21.801   2.227
68890W        W40506   2.731   4.111   1.027
68891W        W40507  29.556   4.179  12.446
68892W        W40508   1.757  12.722   0.731
68893W        W40509   6.617   9.352   3.564
68894W        W40510  21.432  41.425  12.776
68895W        W40511  44.945  32.405  13.016
68896W        W40512  36.643  39.711   9.857
68897W        W40513  43.796  24.225  12.989
68898W        W40514  22.929  32.085  11.670
68899W        W40515   2.965   6.592  11.503
68900W        W40516  17.757  20.633  11.342
68901W        W40517  15.142   0.521   3.272
68902W        W40518  23.699  31.441   3.187
68903W        W40519   2.837   8.800   3.191
68904W        W40520  35.559   7.244   2.304
68905W        W40521  19.963   3.386   2.827
68906W        W40522  28.126  39.457  12.540
68907W        W40523   1.377  41.258   0.230
68908W        W40524   1.001   8.800  12.780
68909W        W40525  37.992  14.278   2.699
68910W        W40526   2.685   7.650   1.407
68911W        W40527  16.892  16.587   0.474
68912W        W40528  33.306  16.162   2.733
68913W        W40529  21.538  44.541  11.133
68914W        W40530  19.556   0.942   2.401
68915W        W40531  37.499  42.944   2.705
68916W        W40532  21.622  13.611  12.096
68917W        W40533   8.654   0.087  14.044
68918W        W40534  30.512  28.035  14.791
68919W        W40535  20.225  33.593  10.857
68920W        W40536  14.689  44.159   4.712
68921W        W40537  31.888  19.182  12.779
68922W        W40538  15.312   3.155   0.956
68923W        W40539  22.661  23.645   4.674
68924W        W40540  10.914  30.885   3.639
68925W        W40541  35.549  42.864   1.446
68926W        W40542  34.846  34.143   4.593
68927W        W40543  25.058  13.850  14.284
68928W        W40544  41.846  30.474  11.186
68929W        W40545  21.713   3.793   4.282
68930W        W40546   7.875  38.190  14.445
68931W        W40547  38.085   5.795   3.734
68932W        W40548  13.053  23.654   4.697
68933W        W40549  44.763  12.223   3.342
68934W        W40550  27.060   7.826   1.298
68935W        W40551   3.187  38.883  14.100
68936W        W40552  27.569   3.344   1.861
68937W        W40553   9.918   9.159   3.717
68938W        W40554  39.111  21.301   2.053
68939W        W40555  40.200  37.570  10.904
68940W        W40556  18.213  39.160  12.165
68941W        W40557  34.985  29.071  11.907
68942W        W40558   6.444   3.773   4.217
68943W        W40559  41.379   6.492  12.068
68944W        W40560   8.326  40.653   4.079
68945W        W40561  38.802   6.665  11.056
68946W        W40562  44.203  39.051   4.171
68947W        W40563  26.758  17.522   3.684
68948W        W40564  44.355  42.241  13.829
68949W        W40565  16.639  24.942  10.665
68950W        W40566  10.381  40.603  13.293
68951W        W40567  40.051  32.536   1.496
68952W        W40568  41.743  31.377   3.807
68953W        W40569  26.132  23.035  11.891
68954W        W40570  25.806  31.289  12.068
68955W        W40571  24.502   6.269   4.720
68956W        W40572  11.741   2.726  12.521
68957W        W40573  14.047   5.912   0.791
68958W        W40574   0.451  12.067   2.881
68959W        W40575  12.075  26.539  11.617
68960W        W40576   5.931  31.328   1.754
68961W        W40577  19.573  11.473  11.463
68962W        W40578  24.921  16.544  12.020
68963W        W40579  31.581  24.938  11.463
68964W        W40580  37.315  35.027   2.365
68965W        W40581  39.899   5.554   1.924
68966W        W40582  42.427   7.891  10.804
68967W        W40583  15.148  18.097   2.783
68968W        W40584  43.123  20.951   0.615
68969W        W40585  12.791  25.634  13.481
68970W        W40586  36.879  26.888  10.751
68971W        W40587  37.875  33.366   4.217
68972W        W40588  35.725  16.333  14.974
68973W        W40589  17.471  11.922  11.254
68974W        W40590  28.963  11.823  12.915
68975W        W40591  38.260  28.413  12.574
68976W        W40592   1.153   6.210  11.524
68977W        W40593  33.034  14.204   0.788
68978W        W40594  42.943  16.821  14.439
68979W        W40595  38.859  35.059   3.284
68980W        W40596   1.900   6.207  10.750
68981W        W40597  18.797   5.704  11.142
68982W        W40598  21.527  17.385  11.671
68983W        W40599   4.673  13.054   1.811
68984W        W40600   7.412  44.995  12.054
68985W        W40601  33.511  36.850   0.891
68986W        W40602  27.365  16.184   0.969
68987W        W40603  18.540  10.768  13.512
68988W        W40604  28.996  17.302   4.459
68989W        W40605   3.880  14.667   0.018
68990W        W40606  28.749  21.813   2.740
68991W        W40607  15.674  29.376   0.501
68992W        W40608  12.195  44.243  11.950
68993W        W40609  11.114  19.060   4.548
68994W        W40610  22.982   2.983  14.038
68995W        W40611   1.999  35.803  11.135
68996W        W40612  14.132  42.915  10.520
68997W        W40613  29.483  28.678   4.700
68998W        W40614  11.840  40.651   3.174
68999W        W40615  21.547  13.295  14.315
69000W        W40616  18.555  35.218   1.343
69001W        W40617  25.117  19.115  12.831
69002W        W40618  21.353  33.012   1.276
69003W        W40619  37.446  11.661  11.072
69004W        W40620  20.010  21.707   2.794
69005W        W40621  18.674  10.656  14.017
69006W        W40622  37.838  16.582   0.461
69007W        W40623  12.332  28.074  13.885
69008W        W40624   2.333  10.611  11.473
69009W        W40625  21.328  24.428  13.883
69010W        W40626   2.877  11.763   2.762
69011W        W40627  22.637   5.365  10.735
69012W        W40628   8.191  19.582   2.303
69013W        W40629  11.860  30.767   5.060
69014W        W40630  29.380  44.997   1.930
69015W        W40631  13.854   5.527  12.027
69016W        W40632  17.544   6.897   0.929
69017W        W40633  27.176  44.800   3.682
69018W        W40634  19.281  43.426   1.087
69019W        W40635  21.319   2.313  13.006
69020W        W40636  37.115  33.328   3.546
69021W        W40637  12.816   3.941  11.816
69022W        W40638  22.384  36.815  10.381
69023W        W40639  10.662  11.920  10.757
69024W        W40640   3.817  31.710   4.531
69025W        W40641  38.359   9.656   0.825
69026W        W40642  42.495  19.363  10.511
69027W        W40643   5.295  29.719   4.148
69028W        W40644  22.077  17.194  12.500
69029W        W40645  24.995  35.506  12.526
69030W        W40646  27.207  41.344  13.784
69031W        W40647   8.169  22.640   0.820
69032W        W40648  38.473   2.775  11.511
69033W        W40649  21.294  30.505  14.847
69034W        W40650  22.336  23.625  10.682
69035W        W40651   7.823  31.876  12.087
69036W        W40652  26.506  20.380   1.638
69037W        W40653   7.862  33.694  13.602
69038W        W40654  22.213  27.284  13.816
69039W        W40655  33.956  44.005  13.018
69040W        W40656  14.786   9.201  10.999
69041W        W40657  22.019   2.905   1.337
69042W        W40658   8.835  34.920   2.245
69043W        W40659  39.251  10.644   4.582
69044W        W40660   6.646  38.815   0.904
69045W        W40661  42.243  14.229  14.946
69046W        W40662  12.061  44.530  11.504
69047W        W40663  12.328   6.646  14.413
69048W        W40664  22.474  13.200  10.685
69049W        W40665  23.206   4.837  14.722
69050W        W40666  20.596  25.630  12.314
69051W        W40667   3.938  29.768   0.457
69052W        W40668  41.388  30.757  12.573
69053W        W40669  32.606  34.552  14.029
69054W        W40670   4.254  31.040  14.140
69055W        W40671   4.835  24.442  14.330
69056W        W40672  12.266  14.558   2.782
69057W        W40673  43.132  30.565  13.881
69058W        W40674  41.589  35.610  10.644
69059W        W40675  29.890  42.027  11.931
69060W        W40676  27.549  39.462   4.719
69061W        W40677   7.471   4.676   4.558
69062W        W40678  11.813  42.279   4.172
69063W        W40679  41.616   1.572  11.164
69064W        W40680  33.083  14.264  12.089
69065W        W40681  19.586  15.865   3.294
69066W        W40682  35.899  19.607   0.473
69067W        W40683  31.508   7.051  12.554
69068W        W40684   5.131  41.060  10.867
69069W        W40685  14.942   4.945  12.445
69070W        W40686  18.120   2.250  11.235
69071W        W40687  11.375   3.891   4.615
69072W        W40688  22.596   0.195  12.835
69073W        W40689  39.778  28.927  14.167
69074W        W40690  34.608  30.412   2.317
69075W        W40691  44.726  39.801  14.126
69076W        W40692  29.242  16.284   3.801
69077W        W40693  43.311  14.733  12.978
69078W        W40694   9.209  40.782  14.909
69079W        W40695  39.517  27.351  11.082
69080W        W40696  39.286   1.692  12.311
69081W        W40697   4.418   0.734  12.221
69082W        W40698  18.189  21.053   1.770
69083W        W40699   1.204   3.539   2.057
69084W        W40700  37.130  25.037  10.653
69085W        W40701  41.578   9.280  12.047
69086W        W40702  15.988  33.505  10.216
69087W        W40703  10.244  19.640   0.007
69088W        W40704   3.496   8.778  13.491
69089W        W40705   3.032   0.461  11.160
69090W        W40706  13.970  15.301  11.147
69091W        W40707  28.091  29.135  12.623
69092W        W40708  16.916  18.010  10.484
69093W        W40709  12.282  25.141   4.564
69094W        W40710  32.159  23.503   1.856
69095W        W40711   5.646  34.767  11.373
69096W        W40712  19.218  21.035   3.717
69097W        W40713  12.307  41.176   3.697
69098W        W40714  22.954  34.702  14.988
69099W        W40715   2.374  13.625  13.944
69100W        W40716  17.837  38.521   0.840
69101W        W40717  44.810   4.277   1.349
69102W        W40718  39.716   4.009   2.645
69103W        W40719  24.122  15.777   5.057
69104W        W40720  43.095  43.388   3.604
69105W        W40721  43.216  21.013   3.613
69106W        W40722   4.568  39.645   1.281
69107W        W40723  29.218  35.094   3.059
69108W        W40724  37.445  25.843  11.517
69109W        W40725  38.554   5.872  11.953
69110W        W40726  44.808  43.800   5.029
69111W        W40727  16.539  18.258   4.708
69112W        W40728  37.568   6.268   5.122
69113W        W40729  33.989  39.173   0.965
69114W        W40730  31.955  11.596   3.403
69115W        W40731  22.092  17.170  11.582
69116W        W40732   7.013  24.698   1.222
69117W        W40733   3.528  35.991  14.279
69118W        W40734  24.764   3.662   2.457
69119W        W40735   6.690   8.299   1.339
69120W        W40736  20.808   0.759  13.924
69121W        W40737  10.945  27.027   1.818
69122W        W40738   8.594  25.604  13.151
69123W        W40739  39.740  37.297  11.617
69124W        W40740   0.755  38.032   1.375
69125W        W40741  25.162  10.286   3.112
69126W        W40742  39.649  37.934  11.535
69127W        W40743  43.223   2.468  13.521
69128W        W40744  14.399  12.585  12.924
69129W        W40745  14.769   1.764  10.745
69130W        W40746  39.713   3.992   3.168
69131W        W40747   1.803  14.261  10.971
69132W        W40748   2.026  13.130   0.891
69133W        W40749   8.176  42.085   0.097
69134W        W40750  38.825   3.305  14.143
69135W        W40751  10.424  29.223   1.225
69136W        W40752  31.653  18.759  12.035
69137W        W40753  40.122   8.251   0.849
69138W        W40754  30.909  43.528   1.295
69139W        W40755  36.917  24.128   0.516
69140W        W40756  43.025  36.276  13.871
69141W        W40757   0.404  40.039  11.610
69142W        W40758   3.186  32.297   4.380
69143W        W40759  13.678   6.416  12.478
69144W        W40760  39.459  36.371  14.787
69145W        W40761  40.335  34.511   1.429
69146W        W40762  23.151  37.021  11.121
69147W        W40763  21.937  35.311   3.467
69148W        W40764  20.551  29.187   1.016
69149W        W40765  17.837  17.191   3.234
69150W        W40766   1.448  27.155   3.300
69151W        W40767  14.797  24.042   3.377
69152W        W40768  13.062  34.611   4.182
69153W        W40769  32.065  35.372   0.567
69154W        W40770  19.202  38.304  14.197
69155W        W40771  15.343  43.436  14.482
69156W        W40772  14.149  11.242  13.155
69157W        W40773   8.215   4.819  11.153
69158W        W40774  28.445  23.240   4.840
69159W        W40775  41.711  35.747  11.118
69160W        W40776  18.863  39.371  14.528
69161W        W40777  10.511  17.388  12.945
69162W        W40778  27.156  32.009   1.495
69163W        W40779   8.725   2.241  12.891
69164W        W40780  23.147  20.263   1.890
69165W        W40781  35.382   5.644   0.855
69166W        W40782  32.481  22.484   4.219
69167W        W40783  11.912  11.343  13.393
69168W        W40784  18.998  30.035  12.979
69169W        W40785  30.040  28.867  14.915
69170W        W40786  42.664  39.542  13.249
69171W        W40787  41.322  24.445  12.101
69172W        W40788  37.168  13.964   2.154
69173W        W40789  11.869   3.256  12.531
69174W        W40790  39.108  39.125   3.731
69175W        W40791  41.537  43.519   4.448
69176W        W40792  24.730   8.145  12.356
69177W        W40793  31.456  42.226   0.407
69178W        W40794   9.781   5.466   0.147
69179W        W40795  15.356  37.961   3.747
69180W        W40796  15.770  13.189   3.246
69181W        W40797  13.734  39.968   4.059
69182W        W40798  34.096  18.142   2.724
69183W        W40799   9.271  20.698  10.846
69184W        W40800  36.429  30.882   2.299
69185W        W40801  23.432   0.387  11.037
69186W        W40802  38.144   7.473   4.195
69187W        W40803  21.444  18.703  13.983
69188W        W40804  36.576   7.076  10.422
69189W        W40805   7.920  35.390   2.114
69190W        W40806  39.672  16.406   1.460
69191W        W40807  20.635  29.623  12.943
69192W        W40808  42.599   8.408  14.471
69193W        W40809  40.051  17.121  13.940
69194W        W40810   6.635   6.755   1.644
69195W        W40811   8.010  39.631  13.992
69196W        W40812  30.623  41.246   2.288
69197W        W40813   6.780   7.372  12.437
69198W        W40814  41.912  23.456  13.514
69199W        W40815  11.410  24.215   3.964
69200W        W40816   8.412  37.834   1.749
69201W        W40817   9.970  42.378   2.888
69202W        W40818   0.992  31.847  12.616
69203W        W40819  33.200  15.782  14.611
69204W        W40820  35.939  16.594  14.575
69205W        W40821   9.202  11.404  10.715
69206W        W40822  38.740  11.749   0.977
69207W        W40823  39.274  36.816  14.981
69208W        W40824  27.314  21.591   2.879
69209W        W40825  14.769   5.468   0.736
69210W        W40826  21.921  16.281  10.716
69211W        W40827  21.578  39.751  11.968
69212W        W40828  36.359  32.615  12.801
69213W        W40829   5.347  19.988   4.178
69214W        W40830   2.563  14.115   4.291
69215W        W40831  28.580  25.055   2.288
69216W        W40832   6.800  38.002   3.974
69217W        W40833   7.879  19.157  14.048
69218W        W40834  11.844   2.039   3.683
69219W        W40835  26.760  12.240   4.230
69220W        W40836  43.066  43.514   4.547
69221W        W40837  25.441  33.596   1.416
69222W        W40838  12.168  40.570  12.505
69223W        W40839  35.136  24.995  12.921
69224W        W40840  31.586   0.876   0.661
69225W        W40841  12.877  19.598   3.712
69226W        W40842  35.966  10.096  12.142
69227W        W40843   6.915  14.808   4.477
69228W        W40844  36.643  12.827  14.303
69229W        W40845  40.819  27.567  13.843
69230W        W40846  43.493  30.557   3.616
69231W        W40847  33.998  19.977  14.363
69232W        W40848  28.081  39.943  12.644
69233W        W40849   4.790  15.029   2.326
69234W        W40850   1.889   1.153   0.963
69235W        W40851  13.600  22.308   0.444
69236W        W40852  35.106  40.787   1.879
69237W        W40853  27.976  20.348  11.521
69238W        W40854  27.519   4.834  12.022
69239W        W40855   0.055  36.860   1.853
69240W        W40856  44.009  21.033   2.161
69241W        W40857  41.496  34.864  11.323
69242W        W40858  24.436   6.753   3.843
69243W        W40859  44.876  17.238   0.446
69244W        W40860  15.182  41.967   0.407
69245W        W40861  32.686   9.258   2.122
69246W        W40862  35.040   3.447  13.448
69247W        W40863  20.729  37.009   0.921
69248W        W40864  31.997   8.210   3.152
69249W        W40865  44.890  37.706  12.851
69250W        W40866  34.497  19.313  10.887
69251W        W40867  44.502  21.692  14.226
69252W        W40868  23.259  17.870   3.386
69253W        W40869  20.807  10.243  13.603
69254W        W40870  42.289  41.847   0.023
69255W        W40871  30.371  41.067   4.503
69256W        W40872  14.051  17.085   2.724
69257W        W40873   8.294  37.861  14.542
69258W        W40874  18.110  33.986   3.674
69259W        W40875  21.596  19.669   1.231
69260W        W40876   9.761  17.363  13.534
69261W        W40877  23.735  11.608   2.225
69262W        W40878  40.707  34.010   4.497
69263W        W40879   8.277  30.928  10.604
69264W        W40880  34.948  42.035  10.670
69265W        W40881   7.392  44.440   3.763
69266W        W40882   4.825  34.536   3.767
69267W        W40883  17.684  37.116  13.840
69268W        W40884  42.077  35.882  11.660
69269W        W40885  15.204   7.826  14.749
69270W        W40886  10.090   0.664   3.201
69271W        W40887  39.850  43.528   0.206
69272W        W40888  19.619  34.457   3.252
69273W        W40889  33.112  18.507   4.354
69274W        W40890  38.667  12.011   1.415
69275W        W40891   6.897  21.765   2.217
69276W        W40892  18.371  34.336  13.046
69277W        W40893  21.528  12.551   0.852
69278W        W40894  12.783  11.017   3.622
69279W        W40895  34.041  14.653   1.754
69280W        W40896   1.936  27.667  11.577
69281W        W40897  14.281  42.742   0.892
69282W        W40898  36.930  26.013   2.682
69283W        W40899  41.303  12.170   0.430
69284W        W40900   2.410  34.949   1.808
69285W        W40901  23.981  34.349  13.072
69286W        W40902  34.347  34.534  14.449
69287W        W40903  27.539  43.810  11.820
69288W        W40904  25.701  42.483  11.163
69289W        W40905  30.196   8.425   2.172
69290W        W40906  14.191  36.352   1.708
69291W        W40907   5.715  15.146   0.464
69292W        W40908  20.663  20.290   2.769
69293W        W40909  22.143   8.823  13.911
69294W        W40910  38.152  21.925  12.002
69295W        W40911  21.505  37.472   4.635
69296W        W40912  26.998   9.831   1.220
69297W        W40913  37.022  10.126  13.723
69298W        W40914  31.462  31.613   4.615
69299W        W40915  28.699   3.852  14.030
69300W        W40916  31.401  44.317   5.509
69301W        W40917  19.606   0.485   3.633
69302W        W40918  21.197  32.398  11.716
69303W        W40919  35.471  39.119  13.766
69304W        W40920  38.960  19.994  11.435
69305W        W40921  42.524  43.028  12.337
69306W        W40922  33.598  26.404  13.528
69307W        W40923  43.766   3.491  14.948
69308W        W40924   1.081  19.680   0.280
69309W        W40925  19.111  42.106  12.991
69310W        W40926   8.098  29.502  11.591
69311W        W40927  44.011  31.500  11.623
69312W        W40928  18.711  24.801   4.103
69313W        W40929  41.425  31.511   0.897
69314W        W40930  44.627  27.515  13.348
69315W        W40931  27.142  43.503  11.935
69316W        W40932  40.936  14.714  14.458
69317W        W40933  34.678  38.079  11.150
69318W        W40934   3.569  34.187   1.908
69319W        W40935  11.326  19.154   0.863
69320W        W40936   7.980  32.450   1.817
69321W        W40937  15.296  33.996   3.243
69322W        W40938   6.066  26.039  11.979
69323W        W40939  23.456  21.005   2.262
69324W        W40940  13.522  23.807  14.568
69325W        W40941  16.557  44.317   2.931
69326W        W40942  32.551  19.170  11.746
69327W        W40943  29.972  21.955   0.697
69328W        W40944  24.673   7.911  11.480
69329W        W40945  33.852  33.158   0.705
69330W        W40946  32.895  44.834   4.597
69331W        W40947  37.937  43.515  12.134
69332W        W40948  18.317  35.946  12.034
69333W        W40949  22.591  20.744   0.697
69334W        W40950  39.694  24.173  12.686
69335W        W40951  16.092  26.093   4.246
69336W        W40952  17.395   3.835   4.299
69337W        W40953  13.648  32.142   4.948
69338W        W40954  36.355   0.049  10.391
69339W        W40955   2.873   5.125   1.287
69340W        W40956  20.650  14.069   0.118
69341W        W40957   6.503  21.219  13.505
69342W        W40958   8.065  18.303  13.898
69343W        W40959  26.562  39.576  14.313
69344W        W40960  34.851  15.273   2.437
69345W        W40961  42.964  31.805  13.530
69346W        W40962   9.623  15.259   2.397
69347W        W40963  14.112  19.521   1.962
69348W        W40964  43.547  27.542   3.195
69349W        W40965  32.294  20.257  13.511
69350W        W40966  41.045   6.352  14.629
69351W        W40967   1.900  41.245  12.977
69352W        W40968  18.278  39.856   1.206
69353W        W40969  33.427  40.877   1.519
69354W        W40970   5.892  34.901   2.419
69355W        W40971   3.556  44.009   0.690
69356W        W40972  44.073  13.275   4.558
69357W        W40973  42.687   9.683   4.252
69358W        W40974  10.123  12.141  13.031
69359W        W40975  10.560   3.780  11.649
69360W        W40976   1.376  18.318   2.241
69361W        W40977  17.450   9.312   1.366
69362W        W40978  39.638  36.478  10.701
69363W        W40979  36.510   0.912  10.645
69364W        W40980   0.765   0.819   3.720
69365W        W40981  26.207  31.324   3.977
69366W        W40982  26.731   8.881   3.571
69367W        W40983  22.945  17.296   2.229
69368W        W40984  30.980   8.493  14.892
69369W        W40985  39.076  26.602  10.687
69370W        W40986  35.868  18.569  11.082
69371W        W40987  29.023   7.967   2.054
69372W        W40988  13.928  39.208   1.034
69373W        W40989  10.302  39.947  14.012
69374W        W40990  42.617  17.743  12.415
69375W        W40991  30.600  24.022  10.503
69376W        W40992  13.576  23.641   4.619
69377W        W40993  23.242   9.709   4.653
69378W        W40994  18.687  39.162  12.861
69379W        W40995  34.086  32.734   0.368
69380W        W40996  38.098  32.371  12.163
69381W        W40997  32.057  37.342   2.465
69382W        W40998  14.587  43.262   3.614
69383W        W40999  33.730  25.730  11.632
69384W        W41000  13.700  17.980   4.601
69385W        W41001  30.146  13.671  11.974
69386W        W41002  27.571   6.404  10.452
69387W        W41003   8.660  34.008  13.581
69388W        W41004  34.898  29.267   4.141
69389W        W41005  36.378  24.514  13.805
69390W        W41006  20.824  29.083   2.422
69391W        W41007  34.105  35.960   4.081
69392W        W41008  40.527   9.330   2.784
69393W        W41009  33.929  42.101  12.851
69394W        W41010   3.048  17.226  14.329
69395W        W41011  10.143  18.045   2.388
69396W        W41012  30.668  42.456  11.833
69397W        W41013  37.863  38.449   3.793
69398W        W41014  22.121  28.055   3.239
69399W        W41015  22.403  35.594   2.545
69400W        W41016  30.379  34.476   4.016
69401W        W41017   6.558  28.032   5.120
69402W        W41018  44.150  14.263  11.927
69403W        W41019  43.797  11.764   2.251
69404W        W41020   4.738   8.213  10.745
69405W        W41021  28.553  34.082   3.679
69406W        W41022   3.976  41.854   2.827
69407W        W41023  11.844  22.460   4.277
69408W        W41024  20.540  16.382   2.900
69409W        W41025  10.609  26.194  13.913
69410W        W41026  15.688  28.507   4.569
69411W        W41027  11.804  17.229  14.461
69412W        W41028   5.878  38.309  13.499
69413W        W41029  20.826  21.557   3.171
69414W        W41030  18.087   3.960   1.447
69415W        W41031   0.048   9.730   1.884
69416W        W41032  17.284  29.452   3.234
69417W        W41033  31.650  29.714   0.422
69418W        W41034  17.844  24.254  11.169
69419W        W41035   5.265  33.785  13.016
69420W        W41036  18.864  18.029  13.430
69421W        W41037   0.965  16.304  13.996
69422W        W41038   1.675  31.980   3.209
69423W        W41039  33.825  15.430   4.134
69424W        W41040  13.608  12.376  11.247
69425W        W41041  42.379  38.310  12.489
69426W        W41042  34.899  22.729   1.828
69427W        W41043  34.648  30.447  11.183
69428W        W41044  30.959  37.508  10.079
69429W        W41045  15.175   9.612  11.184
69430W        W41046  27.035  10.417   4.087
69431W        W41047  28.476  10.288  12.570
69432W        W41048   3.943  14.270  12.462
69433W        W41049  16.772  26.662  11.168
69434W        W41050  44.510  15.775  12.595
69435W        W41051  29.363  30.179  14.993
69436W        W41052  43.832   3.686   2.204
69437W        W41053  44.781  14.346  12.063
69438W        W41054  10.170  27.167   1.112
69439W        W41055  34.042   5.215   0.690
69440W        W41056  26.267  23.112   1.753
69441W        W41057  19.675   1.681   0.948
69442W        W41058  14.227  38.758  13.851
69443W        W41059  31.201  30.533  11.066
69444W        W41060  13.855   1.913   3.862
69445W        W41061  25.746  36.786  11.997
69446W        W41062  24.595  36.330   2.786
69447W        W41063  44.626  35.660  13.557
69448W        W41064  40.900  28.003   1.856
69449W        W41065  42.516  12.652  13.668
69450W        W41066  15.910  40.931  13.772
69451W        W41067  26.630  17.129  14.328
69452W        W41068  37.857  12.144   4.376
69453W        W41069   9.594   3.371  12.789
69454W        W41070  15.671  23.614   3.128
69455W        W41071  19.272  19.983   2.738
69456W        W41072   7.018   4.271   0.281
69457W        W41073  44.228  16.796   3.803
69458W        W41074  33.610   9.898   4.561
69459W        W41075  11.189  16.305   3.942
69460W        W41076  41.366  23.173  10.606
69461W        W41077  22.833   4.602  11.250
69462W        W41078   4.891  16.046   2.330
69463W        W41079  35.894  17.341  13.849
69464W        W41080  14.589  44.574  10.658
69465W        W41081  40.972   2.395  11.114
69466W        W41082   3.337  30.459  13.113
69467W        W41083  10.780  18.221  13.476
69468W        W41084  44.011  34.335   0.382
69469W        W41085  26.114  10.564  11.593
69470W        W41086   7.457  36.068   3.637
69471W        W41087  29.355  27.980   5.071
69472W        W41088   1.139  26.569   2.358
69473W        W41089  34.040  29.738   0.641
69474W        W41090  25.708  14.525   3.741
69475W        W41091   8.638  24.305   3.664
69476W        W41092  44.023  17.270   3.828
69477W        W41093  10.231  19.511   2.232
69478W        W41094  43.279   8.263   3.191
69479W        W41095   7.693  32.515   1.406
69480W        W41096  23.752  14.285  14.510
69481W        W41097   8.209  31.997   1.691
69482W        W41098  41.936  20.568  11.680
69483W        W41099  36.015  13.038   0.244
69484W        W41100   6.976  25.138   2.624
69485W        W41101  22.471  18.261  13.941
69486W        W41102   8.866  33.392  13.568
69487W        W41103  39.988  13.065  10.633
69488W        W41104  27.096   9.348   2.887
69489W        W41105  34.434   9.145  11.196
69490W        W41106  16.255   6.524  11.595
69491W        W41107  18.651  36.463   0.641
69492W        W41108  25.410  13.730   2.199
69493W        W41109  35.536  34.244   1.889
69494W        W41110   7.861  41.938   0.480
69495W        W41111   4.504  26.634   4.593
69496W        W41112  33.411  21.250   0.500
69497W        W41113   0.831  27.656  11.414
69498W        W41114  39.851  42.264  14.393
69499W        W41115  35.377  16.147  12.440
69500W        W41116  29.018  26.590  11.450
69501W        W41117   5.864  40.607   0.640
69502W        W41118  35.174  17.329   0.796
69503W        W41119  35.486  18.012   3.821
69504W        W41120  34.882   5.381  13.432
69505W        W41121   7.860  26.671  10.775
69506W        W41122  31.683  15.824  13.973
69507W        W41123  40.543   1.238  12.954
69508W        W41124   1.367  16.627   2.941
69509W        W41125  33.894  17.827  12.890
69510W        W41126  24.156   3.088  11.383
69511W        W41127  40.442   2.033   4.637
69512W        W41128   7.762  40.957   1.449
69513W        W41129  23.565  19.463  10.730
69514W        W41130  43.799  37.148  11.620
69515W        W41131  17.502  40.914  12.835
69516W        W41132  13.845   6.787  11.049
69517W        W41133  14.347  26.592  10.623
69518W        W41134  13.249  43.411   1.412
69519W        W41135   2.978  28.416   2.284
69520W        W41136  24.094   5.017  10.672
69521W        W41137  39.685   3.090   4.210
69522W        W41138  13.095  34.768  13.134
69523W        W41139  32.835  33.336   0.896
69524W        W41140  36.341  22.616  11.454
69525W        W41141  11.208  39.837   1.635
69526W        W41142   2.214  29.530   3.288
69527W        W41143  40.563  36.036  10.569
69528W        W41144  22.607  24.477  14.254
69529W        W41145  11.908  26.089  13.467
69530W        W41146  29.979   4.650   1.170
69531W        W41147  19.469  35.527   4.151
69532W        W41148  22.217  20.235   2.852
69533W        W41149  20.304   3.969  14.546
69534W        W41150  36.166  37.996   1.216
69535W        W41151  31.119  28.139   1.914
69536W        W41152   1.885  19.268  14.262
69537W        W41153  14.090  21.426  12.216
69538W        W41154  21.194   6.827  11.822
69539W        W41155  41.832  42.857   4.480
69540W        W41156   7.337   7.220   0.456
69541W        W41157   9.600   4.955   2.180
69542W        W41158   0.197  39.333  11.177
69543W        W41159   7.152   4.587  12.051
69544W        W41160  11.263  37.528   2.744
69545W        W41161  25.502  12.095   3.170
69546W        W41162   9.770  15.895   3.916
69547W        W41163   8.624   1.058   3.233
69548W        W41164   2.000  38.020  10.593
69549W        W41165  23.156   6.323   2.406
69550W        W41166   7.408  37.590  11.539
69551W        W41167  25.993  28.954  14.389
69552W        W41168   5.243  21.221   0.033
69553W        W41169  25.395  16.333   3.305
69554W        W41170  39.875  22.630   1.004
69555W        W41171  25.619   5.776  13.510
69556W        W41172  11.846   9.801  12.106
69557W        W41173  34.552  35.443  10.881
69558W        W41174  23.265   6.253  13.720
69559W        W41175  11.811  20.127   1.370
69560W        W41176  28.064  13.493  13.872
69561W        W41177  37.754  32.857   4.127
69562W        W41178  20.244  21.766  10.679
69563W        W41179   7.831  39.512  10.668
69564W        W41180  13.142  21.097  13.154
69565W        W41181  39.587  11.861  11.097
69566W        W41182  37.348  44.890  11.360
69567W        W41183   5.258  38.841   3.622
69568W        W41184  43.948  38.413   4.694
69569W        W41185  34.433  17.079   3.894
69570W        W41186  44.926  13.186  12.697
69571W        W41187  23.543  24.307  14.306
69572W        W41188  15.895  10.661  12.007
69573W        W41189   5.932  23.393  12.440
69574W        W41190  12.742  23.509   1.940
69575W        W41191  32.045  32.075   1.242
69576W        W41192  14.069  31.066   3.966
69577W        W41193   0.388  14.403  12.727
69578W        W41194  18.776   2.374   2.407
69579W        W41195  37.769  17.512  11.215
69580W        W41196  16.574   4.444  12.971
69581W        W41197  25.474   1.007   0.930
69582W        W41198   5.796  13.724  11.932
69583W        W41199  16.582  25.969  10.662
69584W        W41200  42.471  22.072  10.909
69585W        W41201  38.437  21.732  14.535
69586W        W41202   3.925  28.486  14.455
69587W        W41203   9.709  17.997   3.820
69588W        W41204  26.246  26.997  13.621
69589W        W41205  21.895  27.401  14.992
69590W        W41206   4.824  21.882  12.846
69591W        W41207  18.215  31.971  13.535
69592W        W41208  20.950  14.143   0.532
69593W        W41209  19.134  37.147   0.259
69594W        W41210  33.446  36.463  12.347
69595W        W41211  44.398  13.073   1.285
69596W        W41212  35.570  21.058  13.448
69597W        W41213  29.651   0.793   1.314
69598W        W41214  33.144  43.985   2.712
69599W        W41215  21.217  16.650   3.199
69600W        W41216  24.514  38.384   3.086
69601W        W41217  42.791  43.884   1.762
69602W        W41218  33.753   3.120   0.448
69603W        W41219  44.072  23.730  12.177
69604W        W41220  22.603  32.696  10.610
69605W        W41221  11.319  19.272  14.269
69606W        W41222  43.297  12.311   1.452
69607W        W41223  21.761  22.031   3.283
69608W        W41224  36.379  20.152   1.635
69609W        W41225  41.360   7.912  11.667
69610W        W41226   6.776  23.224  12.117
69611W        W41227   8.228  38.899  12.410
69612W        W41228  39.307   2.160   1.335
69613W        W41229  43.998  22.759  12.891
69614W        W41230  25.864  25.721   0.392
69615W        W41231  19.729  44.313  10.615
69616W        W41232   3.301  21.995   3.873
69617W        W41233  16.400   9.866  14.519
69618W        W41234  16.351  21.039   2.948
69619W        W41235  29.165  38.821   1.741
69620W        W41236  13.699   3.536  13.081
69621W        W41237  41.483  26.891  13.872
69622W        W41238  28.479  22.979   3.827
69623W        W41239  38.733  25.779   0.364
69624W        W41240  21.191   0.010   1.740
69625W        W41241  26.156  11.028   0.828
69626W        W41242  27.067  30.108  13.353
69627W        W41243  44.721  40.702   0.824
69628W        W41244  19.985   7.458  11.912
69629W        W41245  25.658   7.796   2.956
69630W        W41246   7.150  36.944  11.400
69631W        W41247  30.099  35.963  13.945
69632W        W41248   0.611   0.221   4.148
69633W        W41249   8.217  43.547  10.702
69634W        W41250  40.454   1.009  14.953
69635W        W41251   6.794  43.337  12.036
69636W        W41252  13.548  33.958   4.988
69637W        W41253  44.309  38.137   2.377
69638W        W41254  16.026   2.673  13.517
69639W        W41255  12.630  30.104  10.685
69640W        W41256  27.443  15.607   3.758
69641W        W41257  42.887  12.006   1.976
69642W        W41258  31.440   6.860   2.288
69643W        W41259   0.898   7.264   3.508
69644W        W41260  11.714  13.121   0.951
69645W        W41261   4.347  37.824   4.978
69646W        W41262  41.505  37.844   3.245
69647W        W41263  25.741  32.085   3.370
69648W        W41264   5.462   5.782  14.974
69649W        W41265  14.122  42.960  11.607
69650W        W41266  11.080  18.113  12.532
69651W        W41267  34.659   3.425  12.364
69652W        W41268  10.216  39.321  10.192
69653W        W41269  10.060  41.623   0.657
69654W        W41270  37.452  17.055   1.055
69655W        W41271  32.176  29.653  10.589
69656W        W41272  10.816  23.684   2.766
69657W        W41273  36.844  13.280  11.613
69658W        W41274  20.619  40.760   3.729
69659W        W41275  10.222  38.854   1.872
69660W        W41276   2.963  34.196   1.209
69661W        W41277   3.890  38.272   1.935
69662W        W41278   4.030   9.125   0.305
69663W        W41279  41.476  16.387   1.230
69664W        W41280  24.975  41.764   5.032
69665W        W41281   1.418   6.984   2.155
69666W        W41282  30.377   4.748  12.909
69667W        W41283  28.647   1.035  14.708
69668W        W41284  36.998  10.413  10.943
69669W        W41285  17.549  34.975   4.160
69670W        W41286  15.892   7.837   3.805
69671W        W41287  10.377  42.295  13.341
69672W        W41288   7.985   9.582   3.756
69673W        W41289  26.207  36.810  14.373
69674W        W41290   5.792  24.511   0.525
69675W        W41291  43.185  26.658   5.046
69676W        W41292  13.725   5.614  14.870
69677W        W41293   9.168   6.288   5.069
69678W        W41294  12.130  26.589   2.878
69679W        W41295  12.075   2.850   1.710
69680W        W41296   6.898   6.245  11.471
69681W        W41297  15.061  22.750   1.351
69682W        W41298  18.597   2.020   5.043
69683W        W41299  42.551  30.546  10.642
69684W        W41300  25.443   1.699  11.893
69685W        W41301  41.740   3.383  11.455
69686W        W41302  38.109  21.417   2.331
69687W        W41303   3.498  16.003   2.979
69688W        W41304  43.525  11.887   0.919
69689W        W41305  44.373  12.515  11.617
69690W        W41306  24.455   7.762   0.478
69691W        W41307  43.919  17.912   3.785
69692W        W41308  27.923  36.520  13.300
69693W        W41309  29.337  29.497   0.899
69694W        W41310  31.040  19.152   0.694
69695W        W41311  31.372  36.129  11.244
69696W        W41312  40.484   0.862  14.385
69697W        W41313   3.834  34.863   5.141
69698W        W41314  27.953  34.832   4.039
69699W        W41315  44.888   7.105   0.714
69700W        W41316  25.543  35.761   0.848
69701W        W41317  13.142  16.692   4.583
69702W        W41318  11.262  44.896  14.544
69703W        W41319  20.535  44.792  12.181
69704W        W41320   2.260  31.010  14.768
69705W        W41321  36.036  29.355  13.367
69706W        W41322  37.025  41.250  13.038
69707W        W41323  13.270  33.300   1.969
69708W        W41324   1.505  24.647   2.986
69709W        W41325  33.606  27.936   4.116
69710W        W41326  11.123  41.995   1.240
69711W        W41327  16.143  24.993  10.594
69712W        W41328  31.678  23.658   1.532
69713W        W41329  22.521  19.565   0.019
69714W        W41330  35.176  31.916  13.364
69715W        W41331  29.964  33.862  12.936
69716W        W41332  11.410   5.629  13.442
69717W        W41333  44.787   2.499  11.177
69718W        W41334  42.016   7.941   3.562
69719W        W41335  15.556  30.552  12.720
69720W        W41336  31.086   7.788   4.139
69721W        W41337  41.977  26.971  12.067
69722W        W41338   4.271  42.236   2.083
69723W        W41339   5.743  32.920  10.797
69724W        W41340  31.952  19.484  13.787
69725W        W41341  14.823  10.722   4.238
69726W        W41342  29.345  29.417   5.027
69727W        W41343  25.073  28.556   0.363
69728W        W41344  27.144  25.588   1.830
69729W        W41345  19.826  21.327  14.296
69730W        W41346  16.272  18.897   5.096
69731W        W41347  33.490  18.076  13.104
69732W        W41348  16.046  43.426  11.386
69733W        W41349   9.093  37.440  14.640
69734W        W41350  36.354  26.718   3.234
69735W        W41351  30.712  40.500   5.036
69736W        W41352   8.147   6.771   4.579
69737W        W41353  42.365  16.121  12.993
69738W        W41354  26.489  37.042  10.657
69739W        W41355   7.296  22.537  12.092
69740W        W41356  34.025  43.493   4.570
69741W        W41357   7.907   6.682  14.262
69742W        W41358  24.980  11.288  10.654
69743W        W41359  11.227   6.633   2.293
69744W        W41360  31.718  34.573   3.461
69745W        W41361  18.749  28.452  10.546
69746W        W41362  43.182  37.275  10.224
69747W        W41363  15.097  20.743   1.409
69748W        W41364  24.498   2.055  11.961
69749W        W41365  34.035  13.030   0.405
69750W        W41366  13.598   0.707   0.668
69751W        W41367   4.345  23.800  12.981
69752W        W41368  35.063  34.932   1.304
69753W        W41369  32.578  44.491   1.210
69754W        W41370  26.663  10.309  10.772
69755W        W41371  10.916  30.826  13.694
69756W        W41372  21.269  39.582  11.116
69757W        W41373  40.381  43.355  11.252
69758W        W41374  38.930  32.739   2.370
69759W        W41375  14.277   6.301  13.077
69760W        W41376  27.415   1.953  11.089
69761W        W41377  27.298  26.684  11.192
69762W        W41378  44.929  42.295   3.225
69763W        W41379  22.314  39.492   1.959
69764W        W41380  33.840  27.207   0.947
69765W        W41381   0.753   6.140   1.349
69766W        W41382   6.094  26.080  11.137
69767W        W41383  10.011  36.556   5.085
69768W        W41384  44.461  18.605   1.698
69769W        W41385  36.342  32.000  11.636
69770W        W41386  42.012   6.697  10.990
69771W        W41387  23.238   7.433  12.454
69772W        W41388  30.179  25.033   3.163
69773W        W41389  42.226  40.531   3.163
69774W        W41390  25.889  17.400   1.123
69775W        W41391   7.268  15.037   0.630
69776W        W41392  27.484   4.235   0.865
69777W        W41393  44.640   1.454  10.603
69778W        W41394  21.928   3.838   1.383
69779W        W41395  26.778   2.812  13.311
69780W        W41396   6.180  36.342  14.135
69781W        W41397  35.042  29.739   4.274
69782W        W41398   7.867  29.026  10.153
69783W        W41399   5.258  17.748  11.173
69784W        W41400  11.602  31.148   1.414
69785W        W41401  16.378  40.376   3.165
69786W        W41402  34.894  23.456   2.406
69787W        W41403  36.531   2.317  13.018
69788W        W41404   8.369   9.576  14.450
69789W        W41405  13.630  27.214  14.835
69790W        W41406   3.935  38.585  12.946
69791W        W41407  31.885  42.451   4.831
69792W        W41408   1.013  36.480  14.942
69793W        W41409  42.087  23.057  13.860
69794W        W41410  20.516   3.098  11.133
69795W        W41411   6.538  33.899  12.456
69796W        W41412  17.513   4.891  12.170
69797W        W41413  37.380  41.907  11.415
69798W        W41414  17.806  34.504  13.730
69799W        W41415   4.813   3.898  14.945
69800W        W41416  38.536  24.011  13.869
69801W        W41417  25.687  37.847  11.552
69802W        W41418  37.916  22.199   2.182
69803W        W41419  38.560   2.466  11.930
69804W        W41420  13.154  42.982  10.690
69805W        W41421  17.835   9.804   2.159
69806W        W41422  10.285  41.085  13.126
69807W        W41423  22.280  42.353   0.190
69808W        W41424  18.379  20.005  12.385
69809W        W41425  11.327  38.503   4.750
69810W        W41426  15.604  17.246  13.809
69811W        W41427   5.937   0.002  11.989
69812W        W41428  11.006  32.149   3.174
69813W        W41429  33.131  11.969  13.528
69814W        W41430  15.608  41.406  10.870
69815W        W41431  33.583  17.052  12.874
69816W        W41432  29.014  13.254  11.988
69817W        W41433  28.520  27.686   4.950
69818W        W41434  42.495  13.525   4.170
69819W        W41435  35.194  32.587   4.647
69820W        W41436   1.313  23.078   4.744
69821W        W41437  19.260  36.803   3.551
69822W        W41438   5.609  42.995  10.637
69823W        W41439  42.416  30.280  11.047
69824W        W41440   4.204  13.567  12.006
69825W        W41441  41.343  36.326   4.955
69826W        W41442  25.625  39.192   4.195
69827W        W41443  20.316  42.501   3.257
69828W        W41444  39.045  25.917  11.912
69829W        W41445   7.601  41.520  13.962
69830W        W41446  19.294  23.646  13.272
69831W        W41447  23.609   7.229   3.945
69832W        W41448  44.060  36.459   3.486
69833W        W41449  25.552  26.307   3.818
69834W        W41450  12.273  36.603   3.246
69835W        W41451   1.444  39.348   3.687
69836W        W41452  18.999  11.231  13.576
69837W        W41453  44.073  28.622  12.807
69838W        W41454   5.606  25.067  11.945
69839W        W41455  37.366  35.936  10.896
69840W        W41456  12.492  11.409  11.580
69841W        W41457   1.798  18.866   0.943
69842W        W41458  13.994  15.845   5.086
69843W        W41459  20.700  20.638   2.282
69844W        W41460  11.229  20.284  14.896
69845W        W41461   3.513  19.719  11.560
69846W        W41462  21.308  14.401   3.653
69847W        W41463  13.794  23.083   0.689
69848W        W41464   3.646  25.595  13.519
69849W        W41465  34.384  20.013   0.732
69850W        W41466  21.479   6.190  14.987
69851W        W41467  15.367  15.154  10.273
69852W        W41468   8.390   6.198   1.206
69853W        W41469  29.455  10.840  11.642
69854W        W41470  36.418   2.196  11.785
69855W        W41471  28.039  28.882  10.695
69856W        W41472  24.241  42.541  12.529
69857W        W41473  44.839   6.664   1.315
69858W        W41474   3.362   4.351   3.885
69859W        W41475   2.700   1.453  14.135
69860W        W41476  19.712  18.019  14.711
69861W        W41477  28.447  37.841   0.487
69862W        W41478  15.252  23.990  10.691
69863W        W41479  28.152  10.345   4.031
69864W        W41480   3.178  17.840   4.294
69865W        W41481  14.254  44.309  14.430
69866W        W41482  19.326  19.431  11.606
69867W        W41483   1.412   0.397   1.442
69868W        W41484  34.727   2.251  13.515
69869W        W41485  13.203   8.665   4.104
69870W        W41486  42.468   7.452   0.463
69871W        W41487   9.576  14.861  13.109
69872W        W41488   5.709   9.646  12.101
69873W        W41489  33.874  27.912   0.224
69874W        W41490  19.383  44.037   2.805
69875W        W41491  29.447   0.809   4.550
69876W        W41492  37.893   1.470  13.085
69877W        W41493  14.145   7.115   3.157
69878W        W41494   3.803   3.327   4.379
69879W        W41495  24.621   9.356   1.252
69880W        W41496   6.115  35.189   5.023
69881W        W41497  20.482  32.036   0.202
69882W        W41498  41.520  22.575   4.666
69883W        W41499  39.874  27.724   1.167
69884W        W41500  29.609  12.461   2.879
69885W        W41501  18.084  38.778  14.427
69886W        W41502  34.141  22.098   2.311
69887W        W41503  18.204  21.239  11.627
69888W        W41504  15.175  16.628  12.876
69889W        W41505  39.046  31.234  11.910
69890W        W41506  36.490  34.844   2.855
69891W        W41507  38.694  15.489   3.188
69892W        W41508  43.313  40.459  14.445
69893W        W41509   5.782  28.242  11.840
69894W        W41510  30.660  38.739   2.249
69895W        W41511  22.197  27.009  12.913
69896W        W41512  37.414  24.146  14.696
69897W        W41513  11.673  17.349  13.540
69898W        W41514  24.927  13.814   1.447
69899W        W41515  43.041   5.521  12.830
69900W        W41516  34.437  17.840   3.607
69901W        W41517  33.093   9.751   4.441
69902W        W41518  22.158  22.034   0.468
69903W        W41519  15.581   4.952   0.832
69904W        W41520  44.387  31.579   0.335
69905W        W41521  15.341   9.401  11.638
69906W        W41522  12.539   6.818   3.712
69907W        W41523  11.840  43.999  10.666
69908W        W41524   2.979   8.808  14.653
69909W        W41525   6.458  13.076   0.673
69910W        W41526  22.241  41.905  14.061
69911W        W41527  10.487  43.002   5.037
69912W        W41528  33.900  23.491   2.148
69913W        W41529  27.053  42.915   1.167
69914W        W41530  10.756  26.150   4.556
69915W        W41531  13.630  36.171   3.339
69916W        W41532  14.126  13.877   2.198
69917W        W41533  18.211   0.891   1.328
69918W        W41534  35.345  14.084  11.550
69919W        W41535  41.456  27.164  11.624
69920W        W41536  39.337  25.634   1.748
69921W        W41537  24.181  30.393  10.269
69922W        W41538  42.438  19.255   1.233
69923W        W41539  38.138  41.377  11.971
69924W        W41540  38.897  26.225   3.396
69925W        W41541  11.791  27.175  10.979
69926W        W41542   7.958  15.044  11.161
69927W        W41543  24.219  35.521  11.809
69928W        W41544  25.561   5.354   3.292
69929W        W41545   0.223  33.110   2.406
69930W        W41546   8.894   7.628   1.218
69931W        W41547  38.570  27.555  13.520
69932W        W41548  18.286  44.476   2.348
69933W        W41549  15.201  29.497   4.586
69934W        W41550  20.714  28.335  14.312
69935W        W41551  34.935  15.275  11.659
69936W        W41552  36.138  20.172   2.278
69937W        W41553   1.462   0.338  13.532
69938W        W41554  33.531  27.287  11.862
69939W        W41555  39.534  25.988  12.803
69940W        W41556   7.030   6.936   2.329
69941W        W41557  34.874  10.917   1.175
69942W        W41558  13.243  14.923  12.427
69943W        W41559   0.215  32.481  12.128
69944W        W41560  36.435  11.712  12.650
69945W        W41561   5.886  41.399  11.490
69946W        W41562  32.157   2.153   5.243
69947W        W41563  44.489  43.712  14.055
69948W        W41564  25.202  26.644   3.656
69949W        W41565  42.489  22.350  14.933
69950W        W41566  37.218  35.472  14.791
69951W        W41567  26.608  41.892   5.185
69952W        W41568  24.318  34.597   0.715
69953W        W41569   5.638  31.003   3.567
69954W        W41570  42.994  15.421  13.092
69955W        W41571  29.208  29.547   0.397
69956W        W41572  31.665  23.152   4.236
69957W        W41573  36.573   8.680   1.528
69958W        W41574  38.580   5.826  11.445
69959W        W41575  28.917  32.563   3.734
69960W        W41576  44.673  20.510   4.605
69961W        W41577  11.251  43.471   1.368
69962W        W41578   4.247  29.499  10.412
69963W        W41579  38.495  15.399  11.637
69964W        W41580   5.906   0.367  11.202
69965W        W41581  21.835  11.655   3.678
69966W        W41582  26.456  29.115   3.614
69967W        W41583  16.612  30.210  12.491
69968W        W41584  22.336  34.937  10.128
69969W        W41585  42.295  39.645   2.615
69970W        W41586   5.290  27.578   0.783
69971W        W41587  34.858  22.986   0.632
69972W        W41588  12.889  17.666   4.120
69973W        W41589  19.254  19.204   4.538
69974W        W41590   9.138  22.276  12.627
69975W        W41591  14.842  18.279  10.639
69976W        W41592  14.705  17.252   2.355
69977W        W41593  35.340  10.611   2.525
69978W        W41594  12.047  13.253  14.664
69979W        W41595  33.269  11.831   3.675
69980W        W41596   4.021  30.882   0.983
69981W        W41597  15.307  24.692   2.312
69982W        W41598  22.698  29.286   4.133
69983W        W41599   6.352  14.639  12.538
69984W        W41600   5.138  33.965   4.519
69985W        W41601  41.345  16.708  10.842
69986W        W41602  25.636  15.544   2.872
69987W        W41603  15.861   8.999   0.881
69988W        W41604  24.648  43.970   2.354
69989W        W41605  16.368  18.592   5.496
69990W        W41606  27.648   8.174  11.413
69991W        W41607  33.075  43.776  12.432
69992W        W41608   5.380  26.086   4.885
69993W        W41609  16.043  19.091   4.105
69994W        W41610  14.495   0.384   1.042
69995W        W41611   4.733  42.569  13.957
69996W        W41612   4.343  41.073  12.527
69997W        W41613  16.549   7.461   0.371
69998W        W41614  14.362   2.728   5.586
69999W        W41615  16.591  28.676   4.084
70000W        W41616  14.546  25.573  12.915
70001W        W41617   0.072   4.688   1.509
70002W        W41618  16.924  11.116   3.167
70003W        W41619  40.937  24.680  11.443
70004W        W41620  10.679  38.944   2.063
70005W        W41621  25.975  16.763   1.883
70006W        W41622  24.973  29.754  12.141
70007W        W41623  29.964  30.446   1.291
70008W        W41624  10.863  15.721   0.580
70009W        W41625  36.640   8.144   4.517
70010W        W41626  25.649   7.985   3.842
70011W        W41627  20.318  10.185   3.222
70012W        W41628   9.539  30.100   2.391
70013W        W41629  24.178  26.204   1.350
70014W        W41630   6.904  10.401  12.059
70015W        W41631  31.092   9.385  12.876
70016W        W41632  13.546  39.076  11.652
70017W        W41633  29.230  44.922  14.789
70018W        W41634  21.144  36.645  14.365
70019W        W41635  29.613  18.653  10.654
70020W        W41636  30.466   2.940   4.594
70021W        W41637  15.630  16.312  11.975
70022W        W41638  35.981   6.283  13.433
70023W        W41639  37.630  41.366  11.279
70024W        W41640  13.544  11.194  11.648
70025W        W41641  30.684  43.506   4.789
70026W        W41642  37.328  11.722   4.763
70027W        W41643  30.952  35.290   1.258
70028W        W41644  21.538  43.899  11.693
70029W        W41645  21.073   6.793   1.353
70030W        W41646  37.491  36.590  13.875
70031W        W41647  22.920  32.614  11.007
70032W        W41648   2.875  37.192  12.080
70033W        W41649  24.722   0.211  11.577
70034W        W41650  12.227  42.809   3.760
70035W        W41651   3.823  39.431  11.605
70036W        W41652  20.865  22.140   3.736
70037W        W41653  23.540  27.656   2.225
70038W        W41654   6.730  13.078   0.245
70039W        W41655  35.559   6.337  11.130
70040W        W41656  44.688   7.298  10.420
70041W        W41657  43.869  37.387   0.728
70042W        W41658   6.214  19.810  13.434
70043W        W41659  21.575  42.173   4.510
70044W        W41660  30.406  42.168   2.274
70045W        W41661  33.391  19.288  10.682
70046W        W41662   0.898  35.959  11.192
70047W        W41663  14.525  24.927  11.203
70048W        W41664   8.275  12.651   4.691
70049W        W41665  18.221   3.256   2.697
70050W        W41666  37.974  38.018   2.285
70051W        W41667   6.758  16.865   1.801
70052W        W41668  17.506   3.491   1.777
70053W        W41669  33.112  44.430   2.324
70054W        W41670  24.510  26.509  10.200
70055W        W41671  32.832  22.480  11.436
70056W        W41672  29.517  27.654  14.517
70057W        W41673   1.618  37.429   0.358
70058W        W41674  27.026  22.210  12.521
70059W        W41675  25.434  26.124  11.168
70060W        W41676  39.231  11.831  11.463
70061W        W41677  23.514  30.738  13.492
70062W        W41678  41.998  13.240   3.558
70063W        W41679  13.052   6.319  11.179
70064W        W41680  40.423  25.605   1.992
70065W        W41681  22.413   3.906  12.063
70066W        W41682  32.113  44.920   3.332
70067W        W41683   3.171  15.212  11.519
70068W        W41684  12.141  41.756  12.059
70069W        W41685  14.643  27.846   2.735
70070W        W41686  23.622  29.200  12.449
70071W        W41687  11.867   3.638  12.920
70072W        W41688  27.466   9.242   4.147
70073W        W41689  11.961   2.365  12.936
70074W        W41690  41.365  13.375  12.119
70075W        W41691   8.676  11.694   0.026
70076W        W41692   6.346  24.762  14.297
70077W        W41693  11.729   5.546  12.012
70078W        W41694  15.534  21.066   1.912
70079W        W41695  36.446  19.311   3.440
70080W        W41696  18.670  17.184  13.670
70081W        W41697  43.019   5.085   4.696
70082W        W41698  34.813  38.436   2.380
70083W        W41699   9.867   1.186   3.158
70084W        W41700  24.476   3.425  12.080
70085W        W41701  43.761   1.545   1.271
70086W        W41702  30.073  28.041  12.812
70087W        W41703   2.739  41.811   1.788
70088W        W41704  11.579  14.130   3.144
70089W        W41705  33.956  13.801  10.448
70090W        W41706  16.578  23.954   4.167
70091W        W41707  27.632  44.671  11.657
70092W        W41708   1.770  41.771   0.671
70093W        W41709  39.302   9.513   0.326
70094W        W41710  11.790  14.536   1.340
70095W        W41711  26.670  28.660  11.066
70096W        W41712  35.854  38.999  13.421
70097W        W41713  19.689  38.894   1.175
70098W        W41714  17.311  34.668  12.389
70099W        W41715  30.826  24.773   4.534
70100W        W41716   1.353  25.128  13.474
70101W        W41717   5.908  41.954   3.175
70102W        W41718  30.377  28.167  14.289
70103W        W41719  42.408  32.724  12.143
70104W        W41720  37.022  40.517   2.032
70105W        W41721   3.457  44.334   0.259
70106W        W41722  12.561  15.351  13.021
70107W        W41723   2.349  37.957   2.253
70108W        W41724  21.211   1.977  12.536
70109W        W41725  18.761  39.992  13.283
70110W        W41726  25.800  12.842  14.423
70111W        W41727  12.099  27.022  11.857
70112W        W41728   3.106  32.067  10.550
70113W        W41729  41.661  18.609  13.516
70114W        W41730  30.597   2.374  12.837
70115W        W41731  25.955  11.290   3.174
70116W        W41732  36.354  13.750  13.084
70117W        W41733  39.383  39.850  11.548
70118W        W41734  39.495  25.044   2.806
70119W        W41735  12.615   7.299  12.993
70120W        W41736  18.990  35.954   3.232
70121W        W41737  27.724  14.227   3.745
70122W        W41738  36.081  27.154   4.473
70123W        W41739  44.327   5.669   2.724
70124W        W41740  26.120  35.543  12.911
70125W        W41741  44.918  25.630   0.678
70126W        W41742  12.278  26.617   1.320
70127W        W41743   8.821  30.114  12.915
70128W        W41744  10.269   3.842   1.971
70129W        W41745  31.962  16.752   0.478
70130W        W41746  19.036  22.477  12.635
70131W        W41747  26.755  38.410   3.963
70132W        W41748  30.931  28.989  13.359
70133W        W41749  14.591  38.282  14.349
70134W        W41750  38.074  41.817   1.778
70135W        W41751  22.202  30.264  14.340
70136W        W41752  30.243   6.435   2.712
70137W        W41753   2.267  16.368  12.838
70138W        W41754  30.573   0.881  10.721
70139W        W41755  16.736  29.031  13.285
70140W        W41756  25.766   8.384  13.923
70141W        W41757  24.761  31.115   0.337
70142W        W41758   8.104  36.458  12.538
70143W        W41759   3.770  12.844   3.665
70144W        W41760  19.076   6.647  14.445
70145W        W41761  14.353  25.367   2.103
70146W        W41762  37.882   2.373   4.383
70147W        W41763  23.100  10.168  10.434
70148W        W41764   6.998   3.987  13.068
70149W        W41765  12.353  41.134  13.353
70150W        W41766   3.140   4.837   2.146
70151W        W41767   4.815  27.192  10.536
70152W        W41768  35.140  19.352  14.889
70153W        W41769  21.022  23.974  11.228
70154W        W41770  27.196  13.750   9.876
70155W        W41771   3.345  28.138  10.964
70156W        W41772  38.446   2.994   0.372
70157W        W41773   2.441   9.279  10.825
70158W        W41774  12.054  27.989   2.820
70159W        W41775  25.356  44.896   3.032
70160W        W41776  28.382  39.813   3.905
70161W        W41777  14.407  29.469  12.482
70162W        W41778  12.049  15.605  13.531
70163W        W41779  15.565  24.094  12.420
70164W        W41780  18.727  22.857   5.015
70165W        W41781  11.937  30.587   2.562
70166W        W41782  13.090   5.889  11.466
70167W        W41783  42.066  22.747  13.086
70168W        W41784  37.772  26.661   0.170
70169W        W41785  43.850   0.750  14.512
70170W        W41786   4.369   9.769  14.061
70171W        W41787   4.607   6.900   3.185
70172W        W41788  20.479  44.915   3.664
70173W        W41789  43.104   6.784   0.412
70174W        W41790  42.978   8.759   3.877
70175W        W41791  11.600   8.137   1.766
70176W        W41792  29.913  17.634  13.105
70177W        W41793   5.740  32.287   2.039
70178W        W41794   6.159   3.718  11.499
70179W        W41795  28.999  37.141  13.459
70180W        W41796  23.665  38.380   4.202
70181W        W41797  29.959  30.360  13.276
70182W        W41798  44.328  22.543   3.709
70183W        W41799   5.255  12.674  13.954
70184W        W41800  39.183  28.205   3.236
70185W        W41801  17.193  32.171   2.710
70186W        W41802  15.536  28.907  12.144
70187W        W41803  19.207  23.743  14.054
70188W        W41804  37.822  36.498  12.554
70189W        W41805  42.079  29.157  12.400
70190W        W41806   1.849  11.313  14.907
70191W        W41807  29.142   5.989   0.334
70192W        W41808  11.551  40.384   4.568
70193W        W41809  41.609  33.970  10.375
70194W        W41810   3.016   1.416  13.737
70195W        W41811  11.490  16.001   0.253
70196W        W41812  22.333  16.720   0.842
70197W        W41813  30.589  27.222  12.965
70198W        W41814  44.001  28.427   1.592
70199W        W41815  42.718   0.835   0.190
70200W        W41816  16.319  21.151   1.444
70201W        W41817   4.627  36.697  11.751
70202W        W41818  31.392  30.912   4.013
70203W        W41819  22.578   4.186   3.269
70204W        W41820  31.270  42.540  13.044
70205W        W41821  28.214  24.116  10.556
70206W        W41822  15.619  35.531   1.462
70207W        W41823  43.269  34.394   4.604
70208W        W41824   4.728   1.478  12.464
70209W        W41825   9.734  15.111  11.309
70210W        W41826  34.949  43.742  14.719
70211W        W41827  27.466  22.550  13.549
70212W        W41828  28.610   3.645   3.719
70213W        W41829  18.824  19.662   5.198
70214W        W41830  36.903  25.422   0.832
70215W        W41831  43.104  19.787  14.041
70216W        W41832  23.366  35.091   3.700
70217W        W41833  28.937   2.339  14.124
70218W        W41834  39.756   3.434   3.825
70219W        W41835  30.557  38.884  12.890
70220W        W41836   3.318  34.692   2.807
70221W        W41837  43.981  43.860  10.877
70222W        W41838  15.195  28.600  11.890
70223W        W41839  35.963  32.797   1.204
70224W        W41840  41.564  41.428  14.829
70225W        W41841  41.950  19.505  11.639
70226W        W41842  23.098  33.546  10.084
70227W        W41843  11.115  14.241  10.541
70228W        W41844  39.960  24.966   1.524
70229W        W41845  17.319  20.497  14.290
70230W        W41846  22.224  24.948  14.835
70231W        W41847   8.518  22.729  13.807
70232W        W41848   5.150  13.409   2.009
70233W        W41849   1.805  21.498  13.732
70234W        W41850   3.643   4.012   1.251
70235W        W41851  21.799  24.532  13.348
70236W        W41852  12.013   1.475   3.396
70237W        W41853  44.932  43.972  14.170
70238W        W41854   4.166   3.460   2.284
70239W        W41855  20.247   7.830  14.471
70240W        W41856  22.659  43.339   3.742
70241W        W41857  17.607  14.244  14.510
70242W        W41858  38.181  43.003  14.640
70243W        W41859  12.377  22.729   2.262
70244W        W41860   1.818  13.617  12.428
70245W        W41861   6.179  28.574   0.506
70246W        W41862  25.653  35.154   3.688
70247W        W41863  37.109  29.074   3.347
70248W        W41864  23.328  30.589   0.987
70249W        W41865   6.446  27.192   3.019
70250W        W41866   7.486  35.644   3.919
70251W        W41867  31.201   3.705  11.897
70252W        W41868  40.044  41.406  14.827
70253W        W41869  22.143   8.592   4.902
70254W        W41870  13.393  40.813  13.488
70255W        W41871   9.461  41.829  11.636
70256W        W41872  44.488  14.162  11.122
70257W        W41873  33.850  37.443   1.487
70258W        W41874   9.303   1.510   1.751
70259W        W41875  14.245  35.505  11.190
70260W        W41876  23.943  30.582   4.094
70261W        W41877  26.386  14.635  11.429
70262W        W41878  35.057  34.451   4.086
70263W        W41879  37.508  19.012   0.902
70264W        W41880  17.391   8.280  12.574
70265W        W41881  33.831  15.744  12.891
70266W        W41882  35.877  34.420  14.510
70267W        W41883  36.436  13.803   2.808
70268W        W41884  25.493  22.673  14.344
70269W        W41885   4.845   2.516  12.582
70270W        W41886  24.634  10.180   2.766
70271W        W41887  21.466  20.165   2.368
70272W        W41888  20.138  35.344  14.673
70273W        W41889   8.897  38.925  13.366
70274W        W41890  25.013  29.575  11.184
70275W        W41891   2.425  29.716   2.823
70276W        W41892   7.820  31.962   5.055
70277W        W41893  17.667  32.182  10.789
70278W        W41894  17.841  16.734   5.460
70279W        W41895  24.634  11.299   1.383
70280W        W41896  33.537  36.324   3.372
70281W        W41897  23.598  43.816   2.559
70282W        W41898  13.167  29.902   1.358
70283W        W41899   2.657  30.769   0.932
70284W        W41900  25.036   6.884  11.163
70285W        W41901  34.141  21.870  11.506
70286W        W41902   9.295  15.662   3.971
70287W        W41903  34.713  41.895  12.421
70288W        W41904  22.552  21.242   2.403
70289W        W41905  17.064   0.364  11.913
70290W        W41906  24.558  33.813  14.674
70291W        W41907  43.965   1.696  11.111
70292W        W41908  23.536  36.926   0.000
70293W        W41909   8.089  32.594  13.793
70294W        W41910  41.995  11.898  13.455
70295W        W41911  16.169  25.024   0.056
70296W        W41912   8.745  41.871   3.694
70297W        W41913  33.435  34.413  14.773
70298W        W41914  31.568  32.258   3.828
70299W        W41915   9.164  31.080  11.125
70300W        W41916   3.806   1.287   3.723
70301W        W41917  16.239   3.233   0.368
70302W        W41918  28.968   6.125  13.417
70303W        W41919   8.346  34.559   2.582
70304W        W41920  32.914   0.651  12.405
70305W        W41921   9.439  15.256  12.072
70306W        W41922  26.330  38.150  13.617
70307W        W41923  21.954   6.623   0.328
70308W        W41924   1.895  12.013  12.765
70309W        W41925  31.666  19.985  14.321
70310W        W41926  27.488  22.289  14.010
70311W        W41927  39.138   8.990   3.815
70312W        W41928  40.931  41.332  12.040
70313W        W41929  14.741  28.498   4.936
70314W        W41930  29.411  23.550   3.158
70315W        W41931   8.611  27.954   1.888
70316W        W41932   2.166  20.703   2.255
70317W        W41933  39.975  21.078  10.703
70318W        W41934  35.700  22.159  12.970
70319W        W41935  14.590  26.252   3.796
70320W        W41936  18.946  34.610  11.101
70321W        W41937  21.544  24.642  12.915
70322W        W41938  33.083  32.950  12.432
70323W        W41939  38.751  44.427   3.751
70324W        W41940  19.797  42.340  14.783
70325W        W41941  42.532  12.443  11.200
70326W        W41942  40.491  11.553  13.682
70327W        W41943  44.097  37.630   4.146
70328W        W41944  34.263  40.276  11.592
70329W        W41945  34.914  18.293  13.509
70330W        W41946  40.966  40.256   3.324
70331W        W41947   5.604  22.211  12.524
70332W        W41948  14.692   6.668  14.408
70333W        W41949  41.601  32.201   3.783
70334W        W41950  38.436  25.694  14.396
70335W        W41951  24.025  35.611  10.423
70336W        W41952  30.662  36.876   1.420
70337W        W41953  14.684  39.991   4.330
70338W        W41954  12.290  28.936   2.920
70339W        W41955  39.331  31.797  14.447
70340W        W41956  30.851  12.328   1.096
70341W        W41957  13.208  42.435   0.480
70342W        W41958  13.424   8.034   1.503
70343W        W41959  44.618  34.413  13.779
70344W        W41960  33.004  29.242  10.922
70345W        W41961   2.337   3.766  11.966
70346W        W41962  33.040  20.464   0.928
70347W        W41963  11.675  44.775  13.343
70348W        W41964  18.021  25.769   4.487
70349W        W41965  23.492   7.466   4.943
70350W        W41966   2.792  40.454   4.463
70351W        W41967  11.503  38.130   3.264
70352W        W41968  34.878  14.409  11.447
70353W        W41969   8.615  30.921   3.198
70354W        W41970  10.867  27.042  14.923
70355W        W41971   8.960  36.928  14.648
70356W        W41972  23.443   3.414   4.118
70357W        W41973   8.925   5.388  11.583
70358W        W41974   2.935  23.155  13.503
70359W        W41975  27.492   4.777   0.189
70360W        W41976  24.944  30.961  13.490
70361W        W41977  21.191  24.607  14.358
70362W        W41978  27.431   3.518   3.234
70363W        W41979  43.514  25.720  11.941
70364W        W41980  33.650  12.415  11.974
70365W        W41981  17.581   0.832   1.798
70366W        W41982  17.708   0.254  13.548
70367W        W41983  17.802  21.643   4.144
70368W        W41984  40.372   3.420  11.439
70369W        W41985  32.023   4.651   3.734
70370W        W41986  39.898  38.524  10.642
70371W        W41987  25.246  22.711  11.495
70372W        W41988   5.651  10.125  14.982
70373W        W41989   3.042  37.861  10.709
70374W        W41990  43.340  28.517  14.296
70375W        W41991  28.141   4.972   3.696
70376W        W41992  20.081   9.374  11.542
70377W        W41993  22.926  41.023  14.928
70378W        W41994  26.201  12.304  13.618
70379W        W41995  13.157  18.982  11.047
70380W        W41996  19.259   1.979   0.825
70381W        W41997  41.059  41.076  13.315
70382W        W41998  35.919  39.274  13.974
70383W        W41999  19.270  22.124  11.507
70384W        W42000  13.445  30.634  11.584
70385W        W42001  10.757  42.463  11.585
70386W        W42002   2.160  43.339  12.041
70387W        W42003  34.942  11.941  12.897
70388W        W42004  34.084   8.861  11.450
70389W        W42005   7.390   3.420   1.434
70390W        W42006  42.717  35.261  14.314
70391W        W42007   7.370  34.373  11.666
70392W        W42008  43.822  19.679  13.579
70393W        W42009  30.890  23.162  14.003
70394W        W42010  18.668  42.355   0.988
70395W        W42011  21.272  40.374   0.252
70396W        W42012  21.147  22.380   4.074
70397W        W42013  31.643   9.324   2.242
70398W        W42014  28.406  20.742   2.145
70399W        W42015  34.478   1.372   0.269
70400W        W42016   5.423  32.022   0.242
70401W        W42017  25.954  39.108   5.083
70402W        W42018   1.324  44.065   5.085
70403W        W42019  13.860  15.810  12.050
70404W        W42020  29.543  37.274  11.611
70405W        W42021   3.714  38.833   4.701
70406W        W42022  36.139  36.604   1.449
70407W        W42023  11.849  16.986   4.124
70408W        W42024  20.160   0.727   2.553
70409W        W42025  28.016   9.174   1.735
70410W        W42026  16.042  44.043  11.109
70411W        W42027  33.432  38.963   2.735
70412W        W42028  12.268  33.468  13.421
70413W        W42029   8.541  37.026  13.070
70414W        W42030  20.782   6.496   4.617
70415W        W42031  44.605  44.743  13.108
70416W        W42032   1.341  23.730   1.723
70417W        W42033  30.628  37.661  10.779
70418W        W42034   7.095  40.755  11.924
70419W        W42035  39.845  27.652  12.113
70420W        W42036  24.498  44.199  12.836
70421W        W42037  33.258  40.978   1.027
70422W        W42038   5.315  26.574  14.797
70423W        W42039  17.729  33.180  14.314
70424W        W42040  24.747  11.268   1.908
70425W        W42041   6.783  39.601   0.763
70426W        W42042  40.809  20.634  11.666
70427W        W42043  17.190  38.901  13.722
70428W        W42044  26.466  30.607   1.828
70429W        W42045  19.194   8.437   4.506
70430W        W42046   3.501  25.404   0.302
70431W        W42047   4.981   8.142  13.007
70432W        W42048  10.358  13.193   4.635
70433W        W42049  14.843  42.460  13.418
70434W        W42050  22.524   6.328  10.497
70435W        W42051  44.325   1.982  12.105
70436W        W42052  33.969  38.132   0.944
70437W        W42053   6.137  19.708  11.594
70438W        W42054  20.318  38.309  11.933
70439W        W42055  30.401  16.591   2.271
70440W        W42056  35.399  41.943  13.781
70441W        W42057  23.995  10.348   3.315
70442W        W42058   6.366  42.593  11.155
70443W        W42059  18.715  40.839  11.815
70444W        W42060   9.702  12.666   2.766
70445W        W42061  31.997  37.303  11.433
70446W        W42062  11.567  40.964  10.188
70447W        W42063  42.454  26.076   0.249
70448W        W42064   1.471  11.150   4.770
70449W        W42065  10.697  15.724  13.361
70450W        W42066   2.929  28.678   4.496
70451W        W42067  44.825  25.665   1.241
70452W        W42068  27.500  26.251   1.687
70453W        W42069   0.324   1.949  11.614
70454W        W42070  12.128  28.950   4.312
70455W        W42071   3.382  44.458   1.059
70456W        W42072   4.301  21.350  11.002
70457W        W42073  21.014   2.946  14.870
70458W        W42074  11.685  12.277  14.961
70459W        W42075  33.641   1.844   1.002
70460W        W42076  13.141  30.632   4.859
70461W        W42077  36.254   2.580   0.715
70462W        W42078  16.248  41.773   4.828
70463W        W42079  24.222  11.623  12.541
70464W        W42080  32.634  37.046   2.098
70465W        W42081   1.992  26.074  10.559
70466W        W42082  14.141  22.072   2.712
70467W        W42083   8.795  19.414   2.894
70468W        W42084  27.698  11.466   2.272
70469W        W42085  30.615  13.692   2.159
70470W        W42086  10.781  37.973  10.306
70471W        W42087  31.619  17.147  11.641
70472W        W42088  30.368  39.974   2.914
70473W        W42089  33.852  14.874  12.827
70474W        W42090  17.224  11.347   1.898
70475W        W42091  35.576  37.603   1.348
70476W        W42092  15.299  22.694  13.031
70477W        W42093   2.286  41.303   1.292
70478W        W42094  31.889  23.342  11.571
70479W        W42095  16.099   8.191  10.719
70480W        W42096  21.994  41.985   3.873
70481W        W42097  19.771  19.140  13.418
70482W        W42098  18.151  39.021   1.536
70483W        W42099  40.589  20.612   3.590
70484W        W42100  37.935  19.220  12.074
70485W        W42101  13.411  29.432  14.523
70486W        W42102   4.606  43.817   4.597
70487W        W42103  13.835  13.888  14.082
70488W        W42104  42.115  39.948  14.993
70489W        W42105  16.704  20.110  10.535
70490W        W42106   3.346   2.412  13.107
70491W        W42107  35.939  21.039   1.424
70492W        W42108  38.048  36.840   0.886
70493W        W42109  40.283  26.130   2.871
70494W        W42110  40.894  25.627   1.275
70495W        W42111  34.968  44.563  13.651
70496W        W42112  38.809  29.421  14.936
70497W        W42113  21.588  23.949  10.708
70498W        W42114  34.570  35.003  14.381
70499W        W42115  12.790  24.582   0.838
70500W        W42116  28.118  27.085  12.340
70501W        W42117   0.420  15.366  12.480
70502W        W42118  38.834   0.497  14.786
70503W        W42119  38.355  11.325  10.741
70504W        W42120  25.614  10.222  14.418
70505W        W42121  16.662  38.501   4.063
70506W        W42122  34.103   3.815   0.909
70507W        W42123  30.180   4.791   3.259
70508W        W42124  36.173  37.880   5.014
70509W        W42125  20.043  36.394  10.860
70510W        W42126   6.906   4.730  12.547
70511W        W42127   4.275  21.573   2.219
70512W        W42128   4.053  36.548  14.166
70513W        W42129  36.456  39.558   1.312
70514W        W42130  36.810  30.389   3.564
70515W        W42131   9.174   8.758   2.671
70516W        W42132  43.332  28.540   3.781
70517W        W42133  13.258  38.142   1.959
70518W        W42134   1.520  16.510   0.006
70519W        W42135  36.525   0.759  13.273
70520W        W42136   8.256   2.351   3.898
70521W        W42137   9.111  31.331   3.590
70522W        W42138  27.214   8.824  14.930
70523W        W42139  31.598  32.635  12.416
70524W        W42140   5.857  27.983   3.210
70525W        W42141  11.907  11.957   0.333
70526W        W42142  15.715   9.634   4.288
70527W        W42143  14.042  36.020  13.790
70528W        W42144  29.362  24.619   1.145
70529W        W42145  12.135  37.602   0.417
70530W        W42146  43.525  44.668   3.766
70531W        W42147   7.733  21.453   1.398
70532W        W42148   9.745  37.949   2.882
70533W        W42149   8.901  20.407  13.021
70534W        W42150  19.796   8.380  11.472
70535W        W42151   7.406  35.284  11.677
70536W        W42152  35.125  24.077   0.522
70537W        W42153   3.433  27.141  10.729
70538W        W42154  21.519  16.201   2.750
70539W        W42155  16.196  43.549  10.907
70540W        W42156  21.060  26.049   0.349
70541W        W42157  40.979  17.813   3.220
70542W        W42158  35.194  20.138  11.707
70543W        W42159  39.887  42.425  13.376
70544W        W42160  32.177   6.353   0.338
70545W        W42161  17.441  19.631   3.753
70546W        W42162   1.181   4.025  12.001
70547W        W42163  25.647  42.115   4.436
70548W        W42164  15.180  42.393  11.104
70549W        W42165  14.117  31.918  13.840
70550W        W42166   4.721  42.536   1.859
70551W        W42167  18.966  13.028  12.369
70552W        W42168  14.918  25.572   0.673
70553W        W42169  20.768  38.337  13.573
70554W        W42170  23.655  25.482  11.624
70555W        W42171   8.783  28.567  10.350
70556W        W42172  25.582  23.253   4.449
70557W        W42173  37.064  14.422   2.405
70558W        W42174  27.977  41.169   4.981
70559W        W42175  39.595  23.621  13.541
70560W        W42176  22.395  33.328   4.675
70561W        W42177   2.512  27.577   5.142
70562W        W42178   9.304  31.908   4.201
70563W        W42179  33.542  24.528  14.520
70564W        W42180  35.892  13.288  14.314
70565W        W42181  36.064  13.515   0.436
70566W        W42182  32.431  24.053  10.493
70567W        W42183  23.028  43.069  11.496
70568W        W42184  18.697  44.868   4.325
70569W        W42185  19.195  43.333   2.796
70570W        W42186  21.028   5.838   1.504
70571W        W42187  38.354  33.883   2.743
70572W        W42188  34.501   0.879   5.500
70573W        W42189  32.513   9.429  14.952
70574W        W42190   1.750   4.851   4.536
70575W        W42191  44.416  24.783  14.868
70576W        W42192   6.270  35.512   0.776
70577W        W42193  40.435  11.258   0.881
70578W        W42194  21.001  15.430  10.855
70579W        W42195  36.157  24.945   0.752
70580W        W42196  34.486   7.808   3.552
70581W        W42197  16.174  44.008   1.746
70582W        W42198  17.740  29.167  14.319
70583W        W42199  21.734  10.312   1.864
70584W        W42200  19.546  26.486   3.592
70585W        W42201  13.853  19.012  10.545
70586W        W42202  39.027  32.940   0.298
70587W        W42203  35.930  19.826   4.623
70588W        W42204  41.901   5.406   1.497
70589W        W42205  44.895  39.522   3.263
70590W        W42206   6.393  13.815   3.759
70591W        W42207   8.638  12.759  11.538
70592W        W42208   3.336  18.841  12.562
70593W        W42209  13.418  28.046   2.923
70594W        W42210  33.834  41.069   2.383
70595W        W42211  28.527  15.144   4.111
70596W        W42212  43.509  21.258  12.008
70597W        W42213  38.900   1.177   2.663
70598W        W42214  36.075  22.245  12.007
70599W        W42215  24.560  41.025   0.279
70600W        W42216   8.304   0.780   4.325
70601W        W42217  43.644  38.912  14.720
70602W        W42218  17.328  26.515   0.718
70603W        W42219  35.025  13.638   4.140
70604W        W42220  23.021  27.646   4.105
70605W        W42221   9.597  22.233  13.470
70606W        W42222   1.898  24.682  10.584
70607W        W42223  39.856  14.207   2.364
70608W        W42224  39.380  27.274  14.356
70609W        W42225  38.606   0.030   2.914
70610W        W42226  29.696  32.040   4.726
70611W        W42227  31.632  41.522   1.481
70612W        W42228   6.705  39.118  11.190
70613W        W42229  16.548  12.806   2.300
70614W        W42230  26.488  23.355   2.380
70615W        W42231   0.800   2.372  14.824
70616W        W42232   8.796  19.325   0.046
70617W        W42233   3.739  17.329  12.904
70618W        W42234  24.056  35.989   4.569
70619W        W42235  26.101  43.056   3.686
70620W        W42236  20.662  22.776   4.652
70621W        W42237  13.352  19.191   0.147
70622W        W42238   4.817  11.716   1.629
70623W        W42239  35.278  21.331   2.194
70624W        W42240  38.309   5.378  11.390
70625W        W42241  28.430   6.162  11.409
70626W        W42242   6.731   5.524  12.540
70627W        W42243  37.299  17.272  11.410
70628W        W42244  14.741  38.371   2.457
70629W        W42245  37.053  13.343  10.716
70630W        W42246  12.224  34.061   4.104
70631W        W42247  28.992  15.795  14.244
70632W        W42248  41.807  35.038   1.848
70633W        W42249   0.230  41.290  14.248
70634W        W42250  11.741  19.150  13.391
70635W        W42251  28.017  29.848  13.718
70636W        W42252  17.393   5.633  13.768
70637W        W42253  10.933  36.095  10.615
70638W        W42254   6.243  16.985   3.834
70639W        W42255  10.358  44.912   3.576
70640W        W42256  27.027  20.557   4.118
70641W        W42257   5.167  30.985   3.788
70642W        W42258  14.732  30.972  14.697
70643W        W42259   5.304  21.494   4.815
70644W        W42260   8.190  39.819   1.215
70645W        W42261  11.437  11.648  11.109
70646W        W42262  37.680  23.110  12.422
70647W        W42263  40.973  11.712   1.314
70648W        W42264  28.531   2.370   2.275
70649W        W42265  39.045   5.425   3.458
70650W        W42266  42.514   5.723   0.821
70651W        W42267   7.447  32.855  11.493
70652W        W42268   7.679  42.568   2.831
70653W        W42269  24.269  17.537   0.987
70654W        W42270  21.976  33.285  13.995
70655W        W42271  28.193  36.966  13.352
70656W        W42272  41.921  39.519   3.240
70657W        W42273  19.098  40.419   2.318
70658W        W42274   4.425   3.239   4.906
70659W        W42275  24.733   7.709  13.439
70660W        W42276   3.999  23.771   1.481
70661W        W42277  25.971  39.553  13.758
70662W        W42278  33.885  41.604  12.687
70663W        W42279  43.514  41.418   1.807
70664W        W42280  27.583   3.820   2.054
70665W        W42281  39.500  11.754  14.236
70666W        W42282   8.314  43.933   2.390
70667W        W42283  17.250  10.853   2.827
70668W        W42284  43.263  11.120   4.194
70669W        W42285  28.425   9.631  14.951
70670W        W42286  31.065  11.228  14.485
70671W        W42287  36.700  12.935   1.598
70672W        W42288  29.696   1.170  13.979
70673W        W42289   7.216   4.404  11.103
70674W        W42290  29.194   3.896   2.902
70675W        W42291  27.538  19.567  12.448
70676W        W42292  30.648  35.155   2.270
70677W        W42293  16.038  16.733   0.233
70678W        W42294  30.942  13.172   1.439
70679W        W42295   9.587  38.513  10.789
70680W        W42296   9.005   3.532  13.765
70681W        W42297   9.680   0.382   0.016
70682W        W42298  24.057  20.160  11.223
70683W        W42299  32.699  38.370   0.738
70684W        W42300   4.858  32.020   4.575
70685W        W42301  24.996  36.471  12.621
70686W        W42302   8.217  43.738   3.355
70687W        W42303   7.569  31.961  14.265
70688W        W42304  21.807  20.599  14.427
70689W        W42305  33.544   9.295   0.373
70690W        W42306  27.223  12.851   4.597
70691W        W42307  15.369  10.341   4.732
70692W        W42308  19.231   4.701  11.483
70693W        W42309   1.977  37.559   0.727
70694W        W42310  20.149  18.770  12.578
70695W        W42311  29.048  36.889   3.869
70696W        W42312  30.631  12.783   1.299
70697W        W42313  22.236  23.122   0.003
70698W        W42314  12.187  37.651  11.376
70699W        W42315  38.914  20.178  13.848
70700W        W42316  44.501  24.498   2.767
70701W        W42317  27.867  38.988  11.217
70702W        W42318  34.338  26.105  12.290
70703W        W42319  30.818   9.869  14.910
70704W        W42320  31.628   4.918  11.164
70705W        W42321  20.851  19.208   0.365
70706W        W42322  32.683  12.858  13.613
70707W        W42323  33.542  28.547   1.911
70708W        W42324  30.812  29.998   2.698
70709W        W42325  14.684  39.709   3.878
70710W        W42326  20.781  28.125  11.318
70711W        W42327  28.142   7.157   1.828
70712W        W42328   2.832  12.719   3.195
70713W        W42329  35.804   3.247   2.644
70714W        W42330  38.375  11.223  13.756
70715W        W42331  36.772  26.255   4.274
70716W        W42332  10.305   4.160  10.783
70717W        W42333  21.355  11.824  13.315
70718W        W42334  44.386   1.469   3.338
70719W        W42335  38.463  25.554   2.336
70720W        W42336  24.985  37.277   0.461
70721W        W42337   5.439  10.952  12.884
70722W        W42338  11.779   9.904   2.547
70723W        W42339  31.678   3.223  11.206
70724W        W42340  35.340  38.614  11.200
70725W        W42341   7.525  27.055   3.842
70726W        W42342   9.798  30.953   3.667
70727W        W42343  17.308  40.070  11.720
70728W        W42344  40.934  13.837   1.442
70729W        W42345  23.250  32.064   1.820
70730W        W42346  25.551  30.182   1.659
70731W        W42347  29.711  29.655  12.116
70732W        W42348  31.153   4.048   4.365
70733W        W42349  16.837  39.890   1.301
70734W        W42350  27.190  37.541  10.946
70735W        W42351  38.568  32.982  14.357
70736W        W42352   3.705   1.604   4.633
70737W        W42353  33.819   8.878   5.031
70738W        W42354  18.840  10.166   3.085
70739W        W42355  32.541  37.891   1.475
70740W        W42356  20.380  24.959  14.894
70741W        W42357  29.288  10.989   0.992
70742W        W42358   3.076  23.059   5.022
70743W        W42359  13.202  30.219  12.892
70744W        W42360  28.405  14.981   2.672
70745W        W42361  11.391   0.579   4.878
70746W        W42362  21.527  41.484   0.025
70747W        W42363  33.641  16.736  13.983
70748W        W42364  27.529   0.425   2.176
70749W        W42365  18.468  43.430   3.843
70750W        W42366   8.617  18.711  11.029
70751W        W42367  26.118  27.471   4.002
70752W        W42368  29.237   2.868  12.872
70753W        W42369   6.804  29.189   3.303
70754W        W42370  16.116   0.467  11.689
70755W        W42371   2.558  41.409  14.761
70756W        W42372  11.114  30.589  14.476
70757W        W42373  16.341  40.842  10.907
70758W        W42374   5.830   2.203   2.651
70759W        W42375  32.528  25.893   2.273
70760W        W42376  17.870   2.941  12.990
70761W        W42377  24.519  22.718  12.025
70762W        W42378  11.661  26.864  11.601
70763W        W42379  22.997   5.033  11.490
70764W        W42380  29.887  22.589  14.440
70765W        W42381   7.644  20.229   3.843
70766W        W42382   2.948  37.843   2.284
70767W        W42383  32.465  40.535  10.640
70768W        W42384   4.370  34.206  12.414
70769W        W42385  39.945  39.967   0.962
70770W        W42386   4.646  42.837  10.384
70771W        W42387  25.281  26.993  13.578
70772W        W42388  21.048  41.920   4.546
70773W        W42389  40.563  26.079   3.314
70774W        W42390  29.987  40.904   2.855
70775W        W42391  12.600  11.952  10.675
70776W        W42392   1.886  40.453   1.128
70777W        W42393  18.700  18.214   2.713
70778W        W42394  39.452  13.164   4.688
70779W        W42395   1.819  40.549  13.399
70780W        W42396  15.630   8.444  12.904
70781W        W42397   0.432  27.465  12.535
70782W        W42398   3.786  36.053  13.834
70783W        W42399  30.995  22.935   1.727
70784W        W42400   1.788  41.542   1.140
70785W        W42401  33.928  40.297  11.991
70786W        W42402  15.881  28.623  14.302
70787W        W42403  34.422  25.984  12.777
70788W        W42404  23.308   0.643   2.307
70789W        W42405  22.078  26.229  10.840
70790W        W42406  13.983  18.219  11.962
70791W        W42407   0.777   1.950  14.485
70792W        W42408  12.235  15.078  14.806
70793W        W42409  34.714  43.808   3.642
70794W        W42410  41.122   1.495  10.976
70795W        W42411  37.579  44.352   4.277
70796W        W42412  34.242  29.543  14.787
70797W        W42413  15.318  24.161   2.631
70798W        W42414  16.900  41.864  12.586
70799W        W42415  21.193  19.226   1.734
70800W        W42416  19.151  26.321  12.919
70801W        W42417   4.248  33.578  11.015
70802W        W42418   5.399  35.860   4.776
70803W        W42419  11.180  16.234  12.789
70804W        W42420  10.196  38.670  11.485
70805W        W42421   6.195  42.537   2.880
70806W        W42422   5.780   9.061  12.342
70807W        W42423   1.929  26.651   4.559
70808W        W42424  23.814  31.566  12.478
70809W        W42425  21.187   8.309   1.304
70810W        W42426  35.175  24.169  12.581
70811W        W42427  25.690  29.273   1.474
70812W        W42428  43.314  16.215  13.935
70813W        W42429  16.012  17.645  13.046
70814W        W42430   0.736  40.790   2.275
70815W        W42431  29.889   2.257   4.863
70816W        W42432  37.880  26.991   1.397
70817W        W42433  40.463  12.776   0.713
70818W        W42434  28.054  29.189   1.407
70819W        W42435  22.774  38.512  12.553
70820W        W42436  16.548  30.182  10.465
70821W        W42437  11.561  17.583  13.067
70822W        W42438  11.309  42.814   4.568
70823W        W42439   2.996  26.101   0.864
70824W        W42440  31.035  26.779   4.614
70825W        W42441  28.477   3.765  10.604
70826W        W42442   2.986  37.449  13.822
70827W        W42443  26.454   6.290  11.949
70828W        W42444   2.857  26.682  13.830
70829W        W42445  37.965   1.515   1.385
70830W        W42446  34.771   8.385   0.216
70831W        W42447  33.452  20.704   0.699
70832W        W42448  31.007  32.025  10.706
70833W        W42449   6.863   6.592  14.944
70834W        W42450  18.098  33.456   3.610
70835W        W42451  16.140  21.379  13.876
70836W        W42452  42.999  40.042  13.946
70837W        W42453  22.357  12.354  13.888
70838W        W42454   5.189  36.114  11.855
70839W        W42455  24.991  32.380  14.802
70840W        W42456   9.879  35.020  14.975
70841W        W42457  20.147  17.369  10.592
70842W        W42458  25.027   7.209   2.318
70843W        W42459  27.026  26.031  12.593
70844W        W42460  22.730  10.441   2.712
70845W        W42461   6.014  14.453  12.899
70846W        W42462  12.284  12.513  11.515
70847W        W42463  27.823  36.055   5.097
70848W        W42464  44.851  40.779   1.310
70849W        W42465  20.560  33.395   0.903
70850W        W42466  14.577  22.763  14.815
70851W        W42467  31.066  27.083   4.159
70852W        W42468  11.989   7.188  11.598
70853W        W42469  31.667   1.522  11.166
70854W        W42470  31.443  44.641   4.164
70855W        W42471  13.686  18.788   0.827
70856W        W42472  12.921  10.678  13.800
70857W        W42473   1.350  27.893  12.829
70858W        W42474   4.857  12.611  14.727
70859W        W42475  35.036  41.055   2.305
70860W        W42476   4.331  34.412  13.371
70861W        W42477  29.529  31.223   4.574
70862W        W42478  13.661  34.430   4.784
70863W        W42479  41.729   3.750   4.294
70864W        W42480  44.869  26.913   0.788
70865W        W42481  36.618  15.913  14.215
70866W        W42482  28.190  35.605   2.307
70867W        W42483   6.171  18.097   0.421
70868W        W42484  13.411  22.530   3.196
70869W        W42485  12.725  36.135  12.255
70870W        W42486  28.474   9.681   3.227
70871W        W42487  17.556  44.292   4.938
70872W        W42488  19.781   8.092  14.040
70873W        W42489  41.457  12.186   4.662
70874W        W42490  44.208  17.480  14.388
70875W        W42491   8.697  26.542   0.353
70876W        W42492  40.487  43.559   1.463
70877W        W42493   2.812  20.746  12.835
70878W        W42494   5.869  36.472   4.373
70879W        W42495   8.634  12.865  13.363
70880W        W42496  30.182  44.655  11.638
70881W        W42497   6.112  35.595  14.843
70882W        W42498  37.756  31.020  12.429
70883W        W42499   8.677  35.373  14.907
70884W        W42500  43.755  36.513  12.371
70885W        W42501  36.385  27.714  13.648
70886W        W42502  28.312  38.374   3.771
70887W        W42503  34.141   4.847  12.561
70888W        W42504   9.384  12.551  13.869
70889W        W42505  10.219   8.557   0.356
70890W        W42506  44.866  29.973   1.777
70891W        W42507  20.717  35.712  14.909
70892W        W42508  14.343   3.244   1.203
70893W        W42509   5.297  31.669   4.148
70894W        W42510  33.157   4.398   3.295
70895W        W42511  25.450  30.629   3.349
70896W        W42512  42.916  10.191  12.018
70897W        W42513   1.422  20.731   0.817
70898W        W42514  27.900  42.912  14.357
70899W        W42515  19.377  44.020   0.456
70900W        W42516  20.329  30.639  14.544
70901W        W42517   4.271   0.988   3.749
70902W        W42518  36.072   5.621   1.677
70903W        W42519  25.311  15.245  14.239
70904W        W42520   8.785   8.940  13.598
70905W        W42521  16.115  26.502   1.433
70906W        W42522  37.407  41.411   4.061
70907W        W42523   2.576  28.517   0.972
70908W        W42524   4.304  24.298   3.735
70909W        W42525   2.271  18.576  11.080
70910W        W42526  27.376  17.468  10.974
70911W        W42527  34.236  10.766   4.486
70912W        W42528  25.343  17.784   3.289
70913W        W42529   2.407  17.154  13.782
70914W        W42530  35.267  31.604  11.999
70915W        W42531  29.980  19.311   2.730
70916W        W42532  16.279   6.486   3.739
70917W        W42533  18.315  28.111   0.167
70918W        W42534  40.058  18.376  10.730
70919W        W42535  39.825  39.094  13.935
70920W        W42536  37.468  23.457  10.909
70921W        W42537  11.195  36.802   3.643
70922W        W42538   5.335  19.695   0.218
70923W        W42539  44.196  40.967   3.472
70924W        W42540  21.291  11.068   1.745
70925W        W42541  30.151  24.719  12.067
70926W        W42542   7.178  10.217  14.675
70927W        W42543  26.704  10.219  12.064
70928W        W42544  26.290  40.464   2.875
70929W        W42545  16.789  44.822   4.067
70930W        W42546  10.877   3.410   4.499
70931W        W42547   1.887   2.219  13.392
70932W        W42548   1.588  28.890   0.990
70933W        W42549   7.084  25.163   4.169
70934W        W42550  42.513  43.401  10.720
70935W        W42551   4.452  16.702  14.967
70936W        W42552  26.945  24.106   4.178
70937W        W42553  23.496  32.888   2.287
70938W        W42554  30.659   4.965  13.282
70939W        W42555  44.184  22.150   4.695
70940W        W42556  14.018  36.466   3.166
70941W        W42557   8.451  42.388   4.718
70942W        W42558  16.510   9.362   0.449
70943W        W42559  22.500  18.647  12.528
70944W        W42560  24.773   4.756  12.469
70945W        W42561  41.749  26.436  12.485
70946W        W42562  13.010  28.203  11.114
70947W        W42563  34.452  10.274   4.565
70948W        W42564   5.658  15.695  13.535
70949W        W42565  34.743  41.329  13.042
70950W        W42566  25.675  33.618  10.236
70951W        W42567   6.416   8.469  13.221
70952W        W42568   0.646   7.632  12.515
70953W        W42569   4.959  10.630  11.145
70954W        W42570  12.298  22.086  11.876
70955W        W42571  39.099   1.891  14.430
70956W        W42572  12.847  12.284  12.397
70957W        W42573   3.820   9.506  13.317
70958W        W42574  21.517  24.155  11.184
70959W        W42575  14.336  41.856  12.840
70960W        W42576  24.180  18.291   1.712
70961W        W42577  30.501  39.604   1.894
70962W        W42578  14.644   9.666  11.081
70963W        W42579   0.473  40.394  10.410
70964W        W42580  24.192  26.475   3.579
70965W        W42581  11.587  18.247  14.901
70966W        W42582   5.815   2.762   0.943
70967W        W42583  43.900  33.319   1.339
70968W        W42584  36.466  19.895  14.810
70969W        W42585  22.880  40.366   1.871
70970W        W42586  36.652  36.706  14.424
70971W        W42587  10.314  29.146   3.241
70972W        W42588  18.541   0.921   3.082
70973W        W42589  36.089  20.264  14.128
70974W        W42590   3.647   2.195  13.541
70975W        W42591  17.691  38.508  13.120
70976W        W42592  15.831  25.285   4.981
70977W        W42593   4.384  34.002   0.913
70978W        W42594  30.802  12.881  14.857
70979W        W42595  30.556  17.575   0.816
70980W        W42596   4.146  16.337   0.345
70981W        W42597   5.572   4.093   0.156
70982W        W42598  11.665  17.858  13.503
70983W        W42599  30.613   0.786  11.218
70984W        W42600  41.205  44.893   4.182
70985W        W42601  34.243  19.234  13.266
70986W        W42602  39.931  10.360   2.435
70987W        W42603  39.413  39.558   3.665
70988W        W42604  40.461  21.066   2.507
70989W        W42605  41.506  13.329  13.441
70990W        W42606  13.871   3.688   3.712
70991W        W42607  33.478  19.626   0.767
70992W        W42608   4.355   8.896  10.380
70993W        W42609   6.952  36.526  13.756
70994W        W42610  30.977  30.462   1.311
70995W        W42611  41.093  17.826  12.515
70996W        W42612  11.421  11.700  13.809
70997W        W42613  23.725   3.827   4.210
70998W        W42614  42.410  10.719   2.853
70999W        W42615  42.959  30.132  14.331
71000W        W42616   3.338  35.078  14.246
71001W        W42617  11.193   5.233   0.445
71002W        W42618  19.804  13.347   3.430
71003W        W42619  15.574  39.080  11.618
71004W        W42620  30.913  32.091   0.275
71005W        W42621  31.078  41.805  12.320
71006W        W42622   6.566  41.794  13.164
71007W        W42623  10.471  15.720   0.225
71008W        W42624  44.586  10.247   2.158
71009W        W42625   4.367  29.512   2.635
71010W        W42626  23.426  26.481  13.371
71011W        W42627  14.696  32.529  10.943
71012W        W42628  14.779   9.448  13.379
71013W        W42629  12.736   0.223  11.925
71014W        W42630  11.234  36.172   1.710
71015W        W42631  42.840  35.252   3.743
71016W        W42632   4.432  13.427   0.768
71017W        W42633  22.310  17.579  14.738
71018W        W42634  33.877  33.400  13.459
71019W        W42635   5.904  31.967   4.674
71020W        W42636  32.480  36.069   4.489
71021W        W42637  40.093  11.376  11.171
71022W        W42638  16.182  12.166   4.803
71023W        W42639  24.800  14.267   4.488
71024W        W42640  17.005  16.005  13.164
71025W        W42641  10.119  44.799   4.502
71026W        W42642  44.705  26.439   0.860
71027W        W42643  16.836  36.346  10.638
71028W        W42644  43.757  33.532  14.920
71029W        W42645   7.685   4.446   1.847
71030W        W42646  44.791  31.620   4.055
71031W        W42647  28.387   3.479  14.225
71032W        W42648  34.164  14.845  10.467
71033W        W42649  31.596  25.510  11.469
71034W        W42650  31.959  30.189   4.153
71035W        W42651   0.939  36.979  12.849
71036W        W42652   0.957  23.504  11.404
71037W        W42653  25.797  12.834  11.301
71038W        W42654   6.527  14.280  12.906
71039W        W42655  33.894   3.757  12.845
71040W        W42656  20.083  21.740  11.209
71041W        W42657  37.827  17.772  12.957
71042W        W42658  18.377  43.555   4.320
71043W        W42659  36.845  43.858   2.711
71044W        W42660  22.941  12.471  12.662
71045W        W42661  30.445  32.111   0.551
71046W        W42662   5.930  35.587  12.005
71047W        W42663  14.151   1.045  14.828
71048W        W42664  31.189  32.512  10.735
71049W        W42665  36.569  44.910   4.114
71050W        W42666  44.546  35.662  11.578
71051W        W42667   4.468  39.446   4.826
71052W        W42668  27.612  43.557  13.378
71053W        W42669  41.205  25.346  14.423
71054W        W42670  24.070   7.838   3.232
71055W        W42671   2.232  23.750  10.953
71056W        W42672  39.225  10.918  11.239
71057W        W42673   9.726  42.827   2.774
71058W        W42674  33.460  33.538  12.102
71059W        W42675  27.418  18.696   0.027
71060W        W42676  31.220   9.289   3.195
71061W        W42677  17.724  43.742  10.503
71062W        W42678  23.223   3.359  14.468
71063W        W42679  31.014   7.660  11.040
71064W        W42680  31.501  15.777  12.079
71065W        W42681   7.181  24.462   1.663
71066W        W42682  14.150  25.982   1.690
71067W        W42683  25.709  31.878   4.379
71068W        W42684  14.348  28.558  10.782
71069W        W42685  20.549   8.919   3.453
71070W        W42686  15.893  12.834  12.850
71071W        W42687  30.921  29.618  12.614
71072W        W42688  19.132  33.287   1.105
71073W        W42689   4.780   4.716  13.902
71074W        W42690  24.508   1.367   1.316
71075W        W42691  30.419  16.599   4.726
71076W        W42692  26.083  18.200  13.405
71077W        W42693   2.877  21.725   0.460
71078W        W42694   1.467  14.540  12.980
71079W        W42695  14.809  23.037  13.469
71080W        W42696  28.841  26.137   1.254
71081W        W42697  12.447  34.848  14.866
71082W        W42698  17.178   8.829  13.815
71083W        W42699  24.638  39.912   2.111
71084W        W42700  10.937  15.067   3.282
71085W        W42701   0.266  40.385  10.878
71086W        W42702  15.759  23.909  14.260
71087W        W42703  34.570   2.294  11.169
71088W        W42704  33.532  44.560  12.473
71089W        W42705  22.181  35.266  14.003
71090W        W42706  37.301  13.074  12.960
71091W        W42707  34.575  10.827   0.757
71092W        W42708  38.521  28.583  11.564
71093W        W42709  23.889  32.807  14.242
71094W        W42710   1.059  41.940   3.630
71095W        W42711  25.668   6.675  13.323
71096W        W42712  17.098  30.685  13.859
71097W        W42713  28.061  19.739  12.312
71098W        W42714   0.066  36.735  12.869
71099W        W42715  18.777  40.441   4.543
71100W        W42716  22.454  10.683   2.346
71101W        W42717  19.252   1.396  13.529
71102W        W42718  23.508  22.118  11.087
71103W        W42719  22.283   1.858   1.317
71104W        W42720  21.775   3.739  13.315
71105W        W42721  27.461   0.440   4.827
71106W        W42722  11.390  13.264  10.810
71107W        W42723   7.458  43.300  13.007
71108W        W42724  13.525  20.411  10.925
71109W        W42725  25.064  12.265   4.570
71110W        W42726  36.114  22.121  13.965
71111W        W42727  22.254  13.599  13.560
71112W        W42728  21.177  14.641   3.227
71113W        W42729   0.743  11.882   1.757
71114W        W42730   8.664  29.104  11.107
71115W        W42731  15.476  18.321   9.852
71116W        W42732  15.091  37.331  13.534
71117W        W42733  17.221  38.003  11.189
71118W        W42734   6.453  19.178   4.145
71119W        W42735   5.827  15.568  13.018
71120W        W42736  29.322  10.057   4.588
71121W        W42737  40.055   0.694  11.664
71122W        W42738  25.148   7.704  14.931
71123W        W42739  25.941   7.179  10.650
71124W        W42740  35.059  20.277  12.159
71125W        W42741  30.201  26.492  12.540
71126W        W42742   8.272  31.635  13.365
71127W        W42743  33.405  23.957   0.773
71128W        W42744  34.590  14.681  10.691
71129W        W42745  27.063  14.127  13.303
71130W        W42746  18.680  43.800   5.385
71131W        W42747  31.141  44.948   0.015
71132W        W42748  40.988  32.488   3.775
71133W        W42749  36.781  17.816   3.203
71134W        W42750  29.907  34.641  14.494
71135W        W42751  24.624  18.559   1.744
71136W        W42752  42.338  34.002  12.459
71137W        W42753  27.937  43.897  12.122
71138W        W42754  35.919   3.493  13.931
71139W        W42755  23.209  41.430  14.026
71140W        W42756  32.640  15.354   2.653
71141W        W42757  41.451  16.607   0.714
71142W        W42758  26.645   7.896  10.726
71143W        W42759  24.611  43.435   3.260
71144W        W42760   3.511  42.273  13.530
71145W        W42761  38.272  20.463   3.606
71146W        W42762  24.131  14.664   4.337
71147W        W42763   5.803  24.264  10.769
71148W        W42764  19.720   8.865  13.467
71149W        W42765  41.225  44.174  10.730
71150W        W42766  17.060   9.276  12.983
71151W        W42767  17.628  29.993  14.788
71152W        W42768  44.617   8.517  11.157
71153W        W42769  26.503   4.382  13.883
71154W        W42770   6.453   3.253  11.990
71155W        W42771  21.023  36.248  14.780
71156W        W42772  40.534  22.585   4.362
71157W        W42773   8.471   9.245  13.188
71158W        W42774  33.025  30.178  13.223
71159W        W42775  42.370  16.710  11.463
71160W        W42776  23.204  29.543  13.863
71161W        W42777  26.517   1.644   0.381
71162W        W42778   9.673  21.920  13.066
71163W        W42779  42.244   0.829   0.804
71164W        W42780  16.199  34.591  14.415
71165W        W42781  30.993   9.209  14.359
71166W        W42782   3.902  35.441   3.194
71167W        W42783  24.416   9.677  12.929
71168W        W42784  16.515  39.070  11.116
71169W        W42785  11.560   6.440  11.029
71170W        W42786  13.445   5.689   1.857
71171W        W42787   6.592   3.370   3.750
71172W        W42788   6.023   3.836   2.264
71173W        W42789  38.334  11.504   4.245
71174W        W42790  35.201  32.355   1.730
71175W        W42791  21.734  28.408   3.307
71176W        W42792  38.069  43.747  11.636
71177W        W42793  29.767  29.532  11.609
71178W        W42794  24.655  27.765  12.895
71179W        W42795  27.080   0.306   2.454
71180W        W42796   9.319  17.510   1.576
71181W        W42797  23.082   7.452   4.134
71182W        W42798  37.852  29.659   1.182
71183W        W42799  35.096  25.965  14.571
71184W        W42800   7.706  30.667  14.845
71185W        W42801  10.395  12.774   2.387
71186W        W42802  44.829   5.646   1.455
71187W        W42803  14.258  39.255  13.679
71188W        W42804  26.997  37.452   4.539
71189W        W42805  17.395   6.979  13.363
71190W        W42806   6.308  35.952  11.929
71191W        W42807  15.420  17.846   2.445
71192W        W42808  35.207  35.070   4.735
71193W        W42809  10.176  19.274   1.210
71194W        W42810  17.142  27.673   0.132
71195W        W42811   2.478   0.092  14.884
71196W        W42812  16.575  40.836  12.555
71197W        W42813  14.351  41.451   3.350
71198W        W42814  28.592  28.937   1.741
71199W        W42815  30.502  39.294  14.742
71200W        W42816  40.901  31.963   3.595
71201W        W42817  35.134  17.385   3.259
71202W        W42818  36.341  22.330   4.584
71203W        W42819  23.685   3.186  10.789
71204W        W42820   5.835   5.664  11.205
71205W        W42821   8.710  18.497  10.544
71206W        W42822  41.090  33.455   4.992
71207W        W42823  40.896  39.762  12.105
71208W        W42824  21.104  38.177   3.252
71209W        W42825  24.404  30.978   2.753
71210W        W42826  30.577   0.943   0.352
71211W        W42827   6.102  20.502  11.154
71212W        W42828  41.268  34.831  13.848
71213W        W42829  32.026  27.271  12.553
71214W        W42830  24.523  15.291   3.294
71215W        W42831  33.784  16.312   1.203
71216W        W42832  42.888   2.004   4.561
71217W        W42833   7.655  11.673   4.657
71218W        W42834  21.735  29.696   0.905
71219W        W42835  13.799  23.249   3.673
71220W        W42836  21.970  33.542   1.728
71221W        W42837  44.133  20.507  11.174
71222W        W42838   2.535   4.758   4.048
71223W        W42839  29.639  20.041   2.231
71224W        W42840  37.535  42.066  10.566
71225W        W42841  43.488  32.294   2.760
71226W        W42842  30.060  17.511   2.391
71227W        W42843  35.148  41.556  14.041
71228W        W42844  20.713  42.776  12.083
71229W        W42845  10.571  28.338   1.208
71230W        W42846  35.769  41.309   0.738
71231W        W42847  24.041  33.048  13.391
71232W        W42848  39.319   3.698  11.065
71233W        W42849  25.667  12.300  13.546
71234W        W42850  32.400  15.966   4.907
71235W        W42851   0.569  43.728   2.142
71236W        W42852  20.452  33.310   2.939
71237W        W42853  33.952  31.946   3.676
71238W        W42854   5.395  16.181   0.883
71239W        W42855  32.136   0.888   0.837
71240W        W42856  17.217  39.057  12.494
71241W        W42857  21.986  17.714   3.474
71242W        W42858  15.737   6.893   4.543
71243W        W42859  23.562  10.363  14.370
71244W        W42860  43.195   7.422  13.319
71245W        W42861  18.886  14.815   4.898
71246W        W42862  16.795  34.053  11.653
71247W        W42863  24.193  21.292   3.716
71248W        W42864  18.095  16.873   1.287
71249W        W42865   5.813  12.145  14.964
71250W        W42866  22.784  37.154  10.434
71251W        W42867  15.818  11.508   0.219
71252W        W42868  15.670  44.243   2.399
71253W        W42869  27.631  16.986  10.960
71254W        W42870  40.306  28.093   1.140
71255W        W42871  30.979  41.251  12.178
71256W        W42872  38.949  44.270   1.889
71257W        W42873  23.011  25.515   1.925
71258W        W42874  28.456  43.385  10.952
71259W        W42875  30.414   7.994  13.945
71260W        W42876   8.432   3.977   3.753
71261W        W42877  32.911   8.710  13.945
71262W        W42878  23.236  32.675  12.374
71263W        W42879   4.105  14.798   2.233
71264W        W42880  44.671  18.924   5.140
71265W        W42881  18.833  29.873   0.072
71266W        W42882   6.435  27.371  12.937
71267W        W42883   7.808   0.250  13.788
71268W        W42884  27.194  25.480  13.509
71269W        W42885  44.846  39.883  10.910
71270W        W42886   0.914  44.584  11.087
71271W        W42887  31.911  23.042   1.914
71272W        W42888  20.503  13.281  11.566
71273W        W42889  41.168  31.757   2.670
71274W        W42890  37.029  22.086  12.027
71275W        W42891  32.499   0.036  10.411
71276W        W42892  17.582  34.029   1.644
71277W        W42893  15.320  15.139  11.105
71278W        W42894  44.689  42.799  10.167
71279W        W42895  31.582  41.603   2.521
71280W        W42896   7.810  28.098  13.952
71281W        W42897   2.183  39.638  14.479
71282W        W42898  10.244  33.422   4.169
71283W        W42899  23.051   0.002   0.966
71284W        W42900  14.272  38.935  12.097
71285W        W42901  15.654   6.539  12.778
71286W        W42902  20.715  26.037   3.117
71287W        W42903  22.639  33.381  12.868
71288W        W42904  17.316  28.126   0.355
71289W        W42905  24.080   2.339  14.413
71290W        W42906   1.833  14.196   4.646
71291W        W42907  13.631  30.635  13.592
71292W        W42908  37.687  25.822   0.290
71293W        W42909  29.524  41.040   4.369
71294W        W42910  32.918  41.857   3.668
71295W        W42911  24.812  27.635   1.768
71296W        W42912  44.571  35.794   2.897
71297W        W42913  36.780  30.813  12.291
71298W        W42914  43.388  34.623  14.785
71299W        W42915  33.506   1.754  14.592
71300W        W42916   7.484  10.057  12.419
71301W        W42917   5.674  30.000  12.576
71302W        W42918  39.251  33.480  11.873
71303W        W42919   9.579  22.304   2.427
71304W        W42920  28.943   6.986  11.969
71305W        W42921  37.909  10.435   0.930
71306W        W42922  12.089  12.974   1.702
71307W        W42923  30.379  43.025  12.456
71308W        W42924  13.536  26.997  14.372
71309W        W42925   7.829  15.762   2.188
71310W        W42926  28.048   8.718   1.965
71311W        W42927  20.163  32.044   1.849
71312W        W42928  23.777   0.425  14.518
71313W        W42929  35.157  35.991   1.352
71314W        W42930  28.389  16.795  14.278
71315W        W42931  20.337   3.520  10.459
71316W        W42932  37.828   1.017   4.261
71317W        W42933  12.219  22.000   4.579
71318W        W42934  29.105  37.740   0.826
71319W        W42935  31.926  26.684  11.516
71320W        W42936  37.302   5.340   0.810
71321W        W42937  23.639  24.696  14.669
71322W        W42938   3.377  25.583  10.399
71323W        W42939  14.304  43.366  10.702
71324W        W42940  23.378   6.619  11.410
71325W        W42941  17.933  33.767  13.550
71326W        W42942   7.736  23.812   1.647
71327W        W42943  35.085   6.782  11.752
71328W        W42944  26.231   2.898   3.074
71329W        W42945  23.256  26.653  11.502
71330W        W42946  43.432  10.680  10.525
71331W        W42947  32.175   5.926  11.467
71332W        W42948  32.154  10.738   2.789
71333W        W42949  22.159  10.265  13.910
71334W        W42950  32.205  28.246   1.884
71335W        W42951  13.485  41.050   0.747
71336W        W42952  41.666  43.918   2.177
71337W        W42953  31.910  25.056   3.909
71338W        W42954  12.229   1.828  10.730
71339W        W42955  36.306  23.701   0.704
71340W        W42956  18.296  28.401   2.412
71341W        W42957  27.185  44.975   4.340
71342W        W42958   3.574  27.144  14.856
71343W        W42959  17.404  14.662  14.269
71344W        W42960  40.130  13.831  10.983
71345W        W42961   7.468  23.398   0.004
71346W        W42962   3.033  36.821   2.399
71347W        W42963   3.346   8.731  12.140
71348W        W42964  23.229   1.330   0.723
71349W        W42965   1.197  32.530   3.807
71350W        W42966  33.099  13.534   2.598
71351W        W42967  11.188  37.831  11.093
71352W        W42968  11.810  12.342   2.349
71353W        W42969  42.510  34.366   2.264
71354W        W42970  11.817  39.840   2.754
71355W        W42971  36.401  13.738   3.852
71356W        W42972  41.987  35.934  10.696
71357W        W42973  20.179   6.679  10.756
71358W        W42974  32.725  16.676  12.915
71359W        W42975  27.955  10.288  14.521
71360W        W42976  43.045  18.202   3.752
71361W        W42977  25.009  35.950   4.882
71362W        W42978  27.070  39.199   0.235
71363W        W42979  28.951   9.818   1.192
71364W        W42980  21.158   3.778   0.346
71365W        W42981  26.023  26.012  12.462
71366W        W42982   7.863  10.811   4.498
71367W        W42983   0.847  23.649   0.746
71368W        W42984  27.953  44.851  14.513
71369W        W42985  10.242  22.652   0.199
71370W        W42986  25.651  43.927  14.059
71371W        W42987  36.381  27.881   0.024
71372W        W42988  24.842  21.194  11.581
71373W        W42989  33.035  28.630   2.003
71374W        W42990  29.973  44.623   0.379
71375W        W42991  44.499  39.490   0.798
71376W        W42992  27.988  44.302  12.960
71377W        W42993  13.307  19.083  13.832
71378W        W42994  18.989   8.762  11.236
71379W        W42995  37.302   4.813  14.851
71380W        W42996  36.823  33.665   1.678
71381W        W42997  34.388   9.380  13.011
71382W        W42998  14.274  44.866   1.742
71383W        W42999  15.047  16.171  10.925
71384W        W43000  23.578  26.094   2.453
71385W        W43001  12.953  28.570   3.934
71386W        W43002  13.034   5.882   2.815
71387W        W43003  27.226  20.786  11.193
71388W        W43004  23.085  20.939  11.268
71389W        W43005  22.350  32.697  14.245
71390W        W43006  33.105  22.234   1.223
71391W        W43007  42.237   5.237  14.955
71392W        W43008  32.896  42.418  13.952
71393W        W43009  26.649  43.120  10.704
71394W        W43010  25.969  42.273   1.307
71395W        W43011  32.733  13.172   2.669
71396W        W43012  12.867  19.168  10.402
71397W        W43013   7.316  41.426   3.813
71398W        W43014  25.466   4.181   3.643
71399W        W43015   3.574  43.329  12.189
71400W        W43016  20.199  38.421   2.874
71401W        W43017  34.030  21.639   4.246
71402W        W43018  41.350  44.815  13.976
71403W        W43019  31.889  12.191   1.985
71404W        W43020  38.091  23.989   0.479
71405W        W43021  42.043  44.850   0.298
71406W        W43022  20.999  29.090   5.010
71407W        W43023  44.690   0.226  14.803
71408W        W43024  33.927  42.952  14.873
71409W        W43025  21.468  40.941   0.022
71410W        W43026  17.279  31.448   1.203
71411W        W43027  44.745  26.024  13.014
71412W        W43028  41.337  33.110   3.350
71413W        W43029   4.889  19.745   4.957
71414W        W43030  17.075  25.979   3.360
71415W        W43031   2.419   0.145  11.972
71416W        W43032  11.337  36.035  10.961
71417W        W43033  25.695  15.639  14.057
71418W        W43034  29.986  18.085  12.851
71419W        W43035   5.195   9.899  13.365
71420W        W43036  36.358  39.102  13.479
71421W        W43037   7.235  14.188   4.900
71422W        W43038  40.043  21.582  13.009
71423W        W43039  21.484  30.211  13.016
71424W        W43040  44.272   5.910  12.972
71425W        W43041  39.829  37.086   1.409
71426W        W43042  23.167  44.706   4.436
71427W        W43043   0.558  34.039   1.720
71428W        W43044  37.351  38.564   3.899
71429W        W43045   9.520  43.601  14.724
71430W        W43046  10.182  17.821   0.763
71431W        W43047   0.618  39.096   2.908
71432W        W43048  39.889   3.624   2.349
71433W        W43049  44.725  17.050  10.900
71434W        W43050  33.372  15.249   3.944
71435W        W43051  32.510  12.291   0.823
71436W        W43052   8.998  44.407   3.847
71437W        W43053  13.236  26.978   4.114
71438W        W43054   7.402   8.828   4.973
71439W        W43055  37.058  33.052   0.716
71440W        W43056  10.859  31.312  13.444
71441W        W43057  42.475   6.891  14.383
71442W        W43058   2.109  42.710   3.770
71443W        W43059  41.751   5.096  14.777
71444W        W43060  38.268  30.080   0.022
71445W        W43061  16.297   6.070  14.561
71446W        W43062   0.572  31.786  10.372
71447W        W43063   2.448  22.587   5.459
71448W        W43064  10.431  16.881  13.049
71449W        W43065  37.489  12.331   3.084
71450W        W43066  33.047   0.380  14.051
71451W        W43067  31.053  18.350  11.036
71452W        W43068  21.585  33.105   0.809
71453W        W43069  35.477  33.234   0.405
71454W        W43070  20.199  18.739  11.695
71455W        W43071  34.201  37.449   2.710
71456W        W43072   1.780  22.577  14.266
71457W        W43073  13.605   0.459   4.158
71458W        W43074  18.041  28.505  12.050
71459W        W43075  24.127   0.288  14.146
71460W        W43076   4.250  43.347   9.736
71461W        W43077  11.856  31.506   3.101
71462W        W43078   8.811  17.009  13.658
71463W        W43079   3.857  16.033  12.298
71464W        W43080  24.825   1.448  12.760
71465W        W43081  42.039   9.287  10.458
71466W        W43082  14.555  43.921   0.281
71467W        W43083  25.147  15.667  12.370
71468W        W43084   4.468   5.465  11.523
71469W        W43085  12.705   8.974   0.254
71470W        W43086  45.000  38.655   3.186
71471W        W43087  24.689  36.711   3.130
71472W        W43088  18.630  12.182   1.006
71473W        W43089  41.358  23.021   4.397
71474W        W43090  28.510  11.083   1.419
71475W        W43091   4.324   7.949  10.947
71476W        W43092   1.085  23.429   3.690
71477W        W43093  11.762  16.304   2.925
71478W        W43094  27.162  36.101   3.201
71479W        W43095  35.395  26.161   3.891
71480W        W43096   5.625  17.741  10.805
71481W        W43097  25.211   4.881   0.886
71482W        W43098  33.059  34.886  13.542
71483W        W43099  26.285  21.509  10.647
71484W        W43100  44.665  29.857   3.350
71485W        W43101  11.701  37.547   5.188
71486W        W43102   0.238  10.549  13.020
71487W        W43103   1.517   8.809   1.535
71488W        W43104   5.869   9.816   4.736
71489W        W43105  37.091  40.434   1.537
71490W        W43106  13.043  35.925  13.520
71491W        W43107  31.994   1.757  13.574
71492W        W43108   1.344  19.348   4.386
71493W        W43109  36.361   7.600   3.692
71494W        W43110  30.979   7.151   0.290
71495W        W43111  20.684  43.575  13.820
71496W        W43112  20.749  22.626   3.600
71497W        W43113  30.534  35.449   1.495
71498W        W43114  15.027   7.199   3.289
71499W        W43115  34.596  10.172  12.510
71500W        W43116  11.521  33.099  14.976
71501W        W43117  14.061  35.965   2.750
71502W        W43118  29.732   0.913   4.955
71503W        W43119  12.570  19.367  13.413
71504W        W43120   8.915  42.923  12.056
71505W        W43121   7.812   2.737   4.810
71506W        W43122  34.785   7.670  12.828
71507W        W43123  44.413  17.740   1.928
71508W        W43124  41.916   0.701  11.095
71509W        W43125  25.166  35.314  14.826
71510W        W43126  39.498   0.254   3.307
71511W        W43127   8.101  25.709  13.348
71512W        W43128  25.350   2.413  10.696
71513W        W43129  23.408  42.888  13.472
71514W        W43130  32.706  12.638  11.107
71515W        W43131  31.224  17.633   0.043
71516W        W43132  15.252  37.315  11.042
71517W        W43133  25.011  24.959   0.329
71518W        W43134   3.649  13.315   0.225
71519W        W43135  19.665  44.989  14.906
71520W        W43136  18.216   6.353  10.633
71521W        W43137  39.114   2.070   0.455
71522W        W43138  31.495  13.517  12.913
71523W        W43139  10.662  35.442  14.784
71524W        W43140  19.494   3.750  14.889
71525W        W43141  27.453  35.893   1.097
71526W        W43142  22.995   4.351  14.450
71527W        W43143  16.069  35.401   1.752
71528W        W43144  23.807  24.638  13.366
71529W        W43145  36.927  38.488   2.446
71530W        W43146  19.385  24.796  13.548
71531W        W43147  33.934  29.068   3.859
71532W        W43148  42.832  18.643  11.886
71533W        W43149  21.990  20.864  13.093
71534W        W43150  13.857  14.115   3.274
71535W        W43151  13.362   6.406  14.369
71536W        W43152  25.005   1.936  12.660
71537W        W43153  35.250   2.375  13.376
71538W        W43154  12.893  38.407  11.176
71539W        W43155  25.665   6.614   0.302
71540W        W43156   6.472  18.748  12.768
71541W        W43157  13.766  17.428  14.100
71542W        W43158  18.213  44.455  10.683
71543W        W43159  40.506   4.926  13.493
71544W        W43160  26.276  42.761   2.844
71545W        W43161  42.207   0.863   0.289
71546W        W43162  14.016   5.143  12.342
71547W        W43163  24.025  18.146   0.231
71548W        W43164  28.629  14.339   4.629
71549W        W43165  29.489  37.683   2.453
71550W        W43166   4.305  32.445  10.598
71551W        W43167  36.037  25.060  14.079
71552W        W43168  24.615  38.494  12.508
71553W        W43169  41.296  21.560  11.503
71554W        W43170  37.846  11.942  11.700
71555W        W43171  13.716   5.919  10.830
71556W        W43172  13.294  34.890   3.176
71557W        W43173  13.650  22.125   2.511
71558W        W43174  32.915  12.409  13.328
71559W        W43175  29.870  11.174   3.762
71560W        W43176  42.693  20.172   2.060
71561W        W43177  21.987  28.503  13.307
71562W        W43178   3.946  20.531   4.529
71563W        W43179  34.378   1.824   4.541
71564W        W43180   6.127  42.743   4.607
71565W        W43181  24.491  44.718   0.073
71566W        W43182  38.316  22.699   1.867
71567W        W43183  30.053  17.736   3.835
71568W        W43184  15.640  41.401  14.334
71569W        W43185  16.188   9.588   3.165
71570W        W43186  39.653  42.910   2.176
71571W        W43187  18.671   4.906  10.535
71572W        W43188  38.798   9.250  11.664
71573W        W43189   7.992  40.633   5.133
71574W        W43190  40.285  44.717  11.499
71575W        W43191  23.654  41.385  11.425
71576W        W43192   2.343   5.911  10.630
71577W        W43193  41.514  10.919  11.341
71578W        W43194  10.577  27.994  13.857
71579W        W43195  34.654  16.724   0.737
71580W        W43196   5.641   5.397  12.543
71581W        W43197  31.554  39.576   3.190
71582W        W43198  20.369  30.802  14.058
71583W        W43199  36.059   2.388   4.879
71584W        W43200   3.401  21.242   4.342
71585W        W43201  31.689  44.499   3.313
71586W        W43202  33.352  32.154   2.716
71587W        W43203  30.481  34.546   4.518
71588W        W43204  12.362  11.673   3.715
71589W        W43205  20.602  27.973   3.208
71590W        W43206  43.180  34.354   1.713
71591W        W43207  44.069   3.592  11.522
71592W        W43208  33.561  22.815  13.748
71593W        W43209  29.876  12.782  10.529
71594W        W43210  30.128  20.767   1.878
71595W        W43211  37.464  27.264   3.924
71596W        W43212  14.425   0.361   4.686
71597W        W43213   7.963  28.917   3.584
71598W        W43214  37.406  35.947  13.056
71599W        W43215  18.807  12.361   0.006
71600W        W43216  13.740   5.859  10.322
71601W        W43217  27.582  35.853   3.436
71602W        W43218  29.057  17.134  14.316
71603W        W43219  38.997   7.902   2.040
71604W        W43220  30.149  21.479   0.755
71605W        W43221   6.794   0.613   1.288
71606W        W43222  14.819  31.534  11.684
71607W        W43223  35.813  32.614  12.790
71608W        W43224  18.304  11.785   2.295
71609W        W43225  30.891  25.028  10.817
71610W        W43226  26.115  16.674  13.442
71611W        W43227  39.188   0.123  11.620
71612W        W43228  16.498  42.822   5.531
71613W        W43229  22.866  26.168  14.516
71614W        W43230  44.624   0.728   1.771
71615W        W43231  39.289  14.896   3.541
71616W        W43232  32.152  27.490  12.092
71617W        W43233  25.073  18.816   4.582
71618W        W43234  33.895   4.362  13.364
71619W        W43235   3.309  13.049  13.010
71620W        W43236   5.694  31.868  12.073
71621W        W43237  19.789  11.241   2.250
71622W        W43238  21.206  33.702  11.196
71623W        W43239  25.690  22.534  14.811
71624W        W43240  15.295  26.025   2.660
71625W        W43241   6.253  36.582  13.124
71626W        W43242  30.849  41.373  13.542
71627W        W43243  34.021  41.441   3.316
71628W        W43244  18.116  35.501  14.341
71629W        W43245   3.434  22.637  12.189
71630W        W43246  34.857  11.774   4.454
71631W        W43247   2.348   3.711  12.914
71632W        W43248   7.128  38.500   0.043
71633W        W43249   9.700  10.902   0.352
71634W        W43250   3.463   1.338   2.283
71635W        W43251  25.056  17.193  14.693
71636W        W43252  25.576  42.393   1.627
71637W        W43253  31.098  42.069   3.585
71638W        W43254  11.774  24.929   4.516
71639W        W43255  31.174  38.319   2.660
71640W        W43256  29.753  10.815   1.223
71641W        W43257  36.882  16.580  11.115
71642W        W43258  36.567  13.718  11.581
71643W        W43259  11.373  36.844  13.387
71644W        W43260  23.720   8.281  14.883
71645W        W43261  30.072  12.589   3.912
71646W        W43262  38.424  15.379  14.395
71647W        W43263  29.134  35.327   3.609
71648W        W43264  32.997  42.118  12.855
71649W        W43265  39.662  44.549  11.099
71650W        W43266  30.116   2.450  14.852
71651W        W43267  32.643  25.096   3.237
71652W        W43268  21.574   4.008   0.598
71653W        W43269  21.257  39.604   2.861
71654W        W43270  19.021  15.280  12.162
71655W        W43271  37.538  43.430   2.949
71656W        W43272  42.287   6.419  12.487
71657W        W43273   9.240  39.848  11.899
71658W        W43274   8.180  37.533  13.839
71659W        W43275  43.429  35.808  13.958
71660W        W43276  34.940  42.025  14.196
71661W        W43277  40.448  21.070  10.497
71662W        W43278   4.774  21.747  12.073
71663W        W43279  44.225  41.359   0.416
71664W        W43280  19.055  16.384  12.125
71665W        W43281  28.207   6.323  12.169
71666W        W43282  10.604  32.768   1.439
71667W        W43283  34.033  20.866   2.120
71668W        W43284  17.209  20.610   1.000
71669W        W43285  44.727  22.610   4.289
71670W        W43286   8.896  21.702   3.691
71671W        W43287  26.733   3.119  11.589
71672W        W43288  19.582  36.663  13.501
71673W        W43289  15.779  34.688  13.295
71674W        W43290   1.430  21.442  14.484
71675W        W43291  27.408   9.246  12.507
71676W        W43292  10.212   9.157  10.350
71677W        W43293  35.996  23.788  11.943
71678W        W43294  12.187   9.880   4.144
71679W        W43295  21.978   9.172  12.525
71680W        W43296  25.435   6.832  13.747
71681W        W43297   4.579  34.589   3.303
71682W        W43298  18.106   7.351   3.506
71683W        W43299  20.731  37.862   3.702
71684W        W43300  29.525  26.857   3.034
71685W        W43301   3.213  32.066   2.884
71686W        W43302  39.912   7.171   2.601
71687W        W43303  22.241  17.199  11.054
71688W        W43304   2.115  35.725   3.775
71689W        W43305  25.091   3.409  10.311
71690W        W43306   5.688  27.886  11.446
71691W        W43307  11.441  30.874   3.461
71692W        W43308  44.832   7.879   2.309
71693W        W43309   5.204  28.595  12.974
71694W        W43310  36.625  32.472   1.419
71695W        W43311  35.136  21.853   2.306
71696W        W43312  15.384  13.126  13.301
71697W        W43313  43.753  41.028   3.201
71698W        W43314   1.684  41.961   4.575
71699W        W43315  10.860  23.200  10.676
71700W        W43316  42.549   1.932   2.393
71701W        W43317  37.488  13.154   3.053
71702W        W43318  21.250  20.719   0.840
71703W        W43319  29.095  23.138   3.143
71704W        W43320   4.197   8.785  11.943
71705W        W43321   4.737  13.293   3.778
71706W        W43322  39.283  24.057   4.530
71707W        W43323  41.882  19.807   1.568
71708W        W43324  38.090  34.384  14.499
71709W        W43325  38.118  31.549   3.700
71710W        W43326  31.986  35.381   2.737
71711W        W43327  44.408  14.355   3.595
71712W        W43328   4.720  37.866  14.422
71713W        W43329   6.236   6.445  10.704
71714W        W43330  32.493  31.872   1.410
71715W        W43331   4.951  28.447  13.902
71716W        W43332  26.013  26.953  12.171
71717W        W43333  42.438   7.337  12.116
71718W        W43334  19.394  25.188   0.326
71719W        W43335  13.264   2.205   3.159
71720W        W43336  15.012  20.060  13.928
71721W        W43337  30.441   0.817  13.068
71722W        W43338  13.780   2.872  13.870
71723W        W43339  28.502  28.859   1.233
71724W        W43340  18.444  32.914  14.881
71725W        W43341   9.795  19.447  10.560
71726W        W43342  31.964  43.773   4.114
71727W        W43343  40.400  12.618   0.222
71728W        W43344  14.564  39.537  12.850
71729W        W43345  44.864  27.858  14.763
71730W        W43346  34.764   2.920  12.366
71731W        W43347  24.178  21.433   5.309
71732W        W43348   1.737  21.807   4.778
71733W        W43349   9.006   2.882   0.029
71734W        W43350  25.163  35.611  11.137
71735W        W43351  21.432  39.088   2.777
71736W        W43352   9.425  14.360   2.272
71737W        W43353   4.108  11.566   3.251
71738W        W43354  40.581  21.667  12.881
71739W        W43355  16.607  42.461   5.143
71740W        W43356   5.346  36.826   1.075
71741W        W43357   5.414  42.465   0.354
71742W        W43358  40.093  12.159  14.996
71743W        W43359  30.417  18.295  12.635
71744W        W43360  10.806  20.600   1.853
71745W        W43361  15.989   4.318  11.443
71746W        W43362  32.913  38.585  11.095
71747W        W43363  30.612  25.754   1.922
71748W        W43364  43.424   1.949  11.734
71749W        W43365  34.380  35.590  11.801
71750W        W43366   0.247   5.209   4.043
71751W        W43367  12.320  19.675   4.848
71752W        W43368  42.404  26.751  13.578
71753W        W43369  16.194  20.255   4.891
71754W        W43370   1.581  40.001  12.377
71755W        W43371  34.316   9.758   0.248
71756W        W43372  17.630  12.248   4.001
71757W        W43373  25.549  22.028  12.528
71758W        W43374  32.364  21.240  11.936
71759W        W43375  11.135  16.825   2.838
71760W        W43376  34.057  34.789  11.984
71761W        W43377   8.595   2.714   1.795
71762W        W43378  17.423   8.930  12.990
71763W        W43379  10.720  21.780   2.134
71764W        W43380  28.144  33.774   1.020
71765W        W43381  14.254  39.949  11.195
71766W        W43382  32.355  44.768   2.010
71767W        W43383  23.898  28.943   0.800
71768W        W43384  19.553  17.116  11.185
71769W        W43385   7.395   7.570  10.753
71770W        W43386   7.318  12.643  10.941
71771W        W43387  35.031  16.537   1.872
71772W        W43388  20.708  43.695  13.285
71773W        W43389   9.717   9.576   4.279
71774W        W43390  39.451  31.876   3.278
71775W        W43391   0.277  33.030  11.428
71776W        W43392  40.928   8.142  12.538
71777W        W43393  34.040   7.839   4.705
71778W        W43394  11.147  17.345  14.696
71779W        W43395  18.752  39.339  11.123
71780W        W43396   5.142  24.538   2.873
71781W        W43397  10.879  32.374  12.983
71782W        W43398   6.315   7.394  11.262
71783W        W43399  44.492  22.195   2.307
71784W        W43400  21.635  35.282  12.372
71785W        W43401  32.524   7.778   1.404
71786W        W43402  33.864   6.143   1.772
71787W        W43403  27.422  27.978   1.606
71788W        W43404  37.954  12.146  10.802
71789W        W43405  44.972  39.734   0.446
71790W        W43406  39.775   4.708  10.190
71791W        W43407  26.630   9.606   2.917
71792W        W43408   8.654  12.927   4.247
71793W        W43409   8.394   7.662   3.330
71794W        W43410  13.596  37.558  10.981
71795W        W43411  43.787  38.447   2.749
71796W        W43412  14.068  14.949  11.510
71797W        W43413  38.999  44.469   4.212
71798W        W43414   3.957  18.651  10.619
71799W        W43415   6.849   7.986   0.699
71800W        W43416  31.871  28.186  11.114
71801W        W43417  32.318  44.572  13.304
71802W        W43418  21.060  32.955   2.108
71803W        W43419  36.528  12.220  14.025
71804W        W43420   6.725   4.741  11.453
71805W        W43421  10.101  17.296   0.004
71806W        W43422  44.940   8.168  11.402
71807W        W43423  44.862  23.621  14.223
71808W        W43424  44.753  34.115  13.363
71809W        W43425  23.772  19.249   4.715
71810W        W43426  41.911  33.045   0.661
71811W        W43427  38.244  16.836   3.216
71812W        W43428  28.209  16.804   0.613
71813W        W43429  13.660  27.215  12.421
71814W        W43430   6.456   1.940   0.802
71815W        W43431   1.072  17.999  13.334
71816W        W43432  37.054   5.978  11.541
71817W        W43433  32.994  15.771  10.649
71818W        W43434  28.224  41.932  14.091
71819W        W43435  41.787  40.331  11.998
71820W        W43436  14.381  41.506  11.905
71821W        W43437  38.982   3.419  13.639
71822W        W43438   9.257   0.454   2.973
71823W        W43439  14.794  35.662   4.709
71824W        W43440  37.306  24.973  14.939
71825W        W43441  34.973   8.398   4.810
71826W        W43442  21.555  25.533  10.645
71827W        W43443  28.705  25.499   1.926
71828W        W43444  29.667  15.094   5.017
71829W        W43445   7.339  39.396   4.786
71830W        W43446  27.693   6.160  12.915
71831W        W43447  26.160  24.542   4.415
71832W        W43448  14.511  33.832   1.177
71833W        W43449  15.128  30.032  13.083
71834W        W43450  28.995   8.276  11.594
71835W        W43451  39.866  28.306   0.935
71836W        W43452  20.998  33.354   2.897
71837W        W43453  28.511   4.914   0.979
71838W        W43454  31.124  40.183   0.020
71839W        W43455  42.905   5.742  13.301
71840W        W43456   4.363   7.680   4.080
71841W        W43457   3.213  43.804  10.315
71842W        W43458  29.202  11.677   4.051
71843W        W43459  41.042  32.943  11.629
71844W        W43460   8.755   6.709   0.009
71845W        W43461  31.910  24.260  12.135
71846W        W43462  37.501  13.188   3.567
71847W        W43463   7.625  44.722   1.494
71848W        W43464  12.151  23.023   0.190
71849W        W43465  22.942  15.150  13.010
71850W        W43466  14.189  27.211   2.556
71851W        W43467  24.982  43.698   1.970
71852W        W43468   0.847  30.152  11.980
71853W        W43469  18.820  22.126  14.822
71854W        W43470  30.176  17.586   0.050
71855W        W43471  42.544  36.055   4.357
71856W        W43472  44.311   4.420   2.394
71857W        W43473   7.348  19.163   2.149
71858W        W43474  28.660  25.595  10.644
71859W        W43475  31.510  18.036   2.259
71860W        W43476   5.299  29.983  11.170
71861W        W43477  12.779   6.588  10.614
71862W        W43478  38.670  26.563  11.971
71863W        W43479  31.076   1.407  14.782
71864W        W43480  39.471   3.914   2.164
71865W        W43481   7.018  41.782  13.402
71866W        W43482  33.694  40.281  14.873
71867W        W43483  40.335  35.630  14.316
71868W        W43484   8.870  37.980  12.760
71869W        W43485   1.374  21.697  14.971
71870W        W43486   3.055  13.143   0.788
71871W        W43487  42.070  39.565  13.811
71872W        W43488  30.560   2.873  13.020
71873W        W43489   2.355  14.156  11.745
71874W        W43490   1.392  19.082   0.004
71875W        W43491  18.081   2.779  11.268
71876W        W43492  15.115   5.988  14.914
71877W        W43493   8.939  10.853  11.130
71878W        W43494  11.633  31.344   0.866
71879W        W43495  13.143  25.861   1.713
71880W        W43496   3.896  21.014   4.244
71881W        W43497  13.472  17.262  13.022
71882W        W43498  19.355  19.145  12.016
71883W        W43499  21.792  41.860  12.147
71884W        W43500  29.082  31.004   4.396
71885W        W43501   6.733  40.854  13.150
71886W        W43502  26.683  44.766  11.069
71887W        W43503   3.458  29.530   4.741
71888W        W43504   5.923  18.312   3.642
71889W        W43505   7.682   4.670   4.081
71890W        W43506  28.455  22.715   2.916
71891W        W43507  32.026   7.227   0.227
71892W        W43508  40.793  34.553  14.036
71893W        W43509  33.376   6.463  11.026
71894W        W43510   7.724   0.961   2.294
71895W        W43511   2.393  43.590  14.732
71896W        W43512   7.060   0.443   1.708
71897W        W43513  28.132  21.038  12.021
71898W        W43514  37.134  44.941   1.091
71899W        W43515  43.241  40.955   0.735
71900W        W43516   7.771  42.545   0.097
71901W        W43517  38.528   3.957  12.914
71902W        W43518  38.075  18.535   3.739
71903W        W43519  21.628  42.869  14.778
71904W        W43520  15.149  34.623   1.234
71905W        W43521  21.912  18.363   1.823
71906W        W43522  23.582  31.887   0.481
71907W        W43523  36.103  16.042  11.285
71908W        W43524  39.107  11.390   0.964
71909W        W43525  11.249   3.241   2.450
71910W        W43526  12.765  33.958   2.475
71911W        W43527  19.516  12.324   3.800
71912W        W43528  33.451   4.928   3.679
71913W        W43529  37.616  17.599  13.849
71914W        W43530  38.418  27.022  11.856
71915W        W43531  33.994   2.551  14.158
71916W        W43532  31.404   5.293   2.365
71917W        W43533  25.057  21.617   4.164
71918W        W43534  16.775   5.366   1.189
71919W        W43535   0.236  14.220   1.213
71920W        W43536  30.732  13.591  11.268
71921W        W43537   8.786  18.623   2.394
71922W        W43538  20.593  30.136  12.876
71923W        W43539   4.436  13.264  14.929
71924W        W43540  30.889  10.834   3.144
71925W        W43541   2.915  28.996  12.587
71926W        W43542  43.525  32.389   0.750
71927W        W43543  36.121  20.802  12.458
71928W        W43544  15.378  28.459  12.369
71929W        W43545   5.178  18.063   3.198
71930W        W43546  32.005   6.781   1.460
71931W        W43547  15.706  10.456  11.073
71932W        W43548   4.083   0.414  11.059
71933W        W43549  28.841  16.836  10.624
71934W        W43550   4.563  10.868   1.116
71935W        W43551  17.004  11.763  13.902
71936W        W43552  29.042  17.417   0.746
71937W        W43553  28.367  31.610   5.023
71938W        W43554  30.251  18.660   2.206
71939W        W43555   4.128  38.783  13.871
71940W        W43556  23.555  16.707  10.679
71941W        W43557  15.035   4.201   3.470
71942W        W43558   8.285  16.500  13.322
71943W        W43559  14.866   0.763  13.101
71944W        W43560   1.279  17.118  14.396
71945W        W43561  23.458   5.824  13.922
71946W        W43562   5.235  28.849   3.208
71947W        W43563  28.876  37.503   1.229
71948W        W43564   7.729   5.792  14.566
71949W        W43565   5.588  34.714   4.257
71950W        W43566  14.640   3.848  10.508
71951W        W43567  24.659  15.712   4.582
71952W        W43568  38.056  15.013   0.348
71953W        W43569   9.718  27.240  14.412
71954W        W43570  15.503   5.735   1.928
71955W        W43571  41.517  17.796  14.764
71956W        W43572  33.122   8.999   3.242
71957W        W43573  44.393  38.420   1.436
71958W        W43574  36.912  36.298  14.698
71959W        W43575   5.084  36.540  11.557
71960W        W43576  23.934  34.895   2.479
71961W        W43577  40.837  26.094  14.986
71962W        W43578  10.719  26.449  12.588
71963W        W43579  32.049  32.804  12.234
71964W        W43580  13.276  18.074  14.498
71965W        W43581  21.759  25.027   0.637
71966W        W43582  11.604  14.552   3.914
71967W        W43583   5.200  36.424   0.782
71968W        W43584  28.355  26.989  14.829
71969W        W43585   5.241  27.693  11.635
71970W        W43586   0.239  37.709   3.065
71971W        W43587  30.507   7.534  11.820
71972W        W43588  34.659  44.380   3.399
71973W        W43589  39.708  21.736  12.635
71974W        W43590   7.836  41.468   2.367
71975W        W43591  29.421  40.857  11.858
71976W        W43592  37.708  16.584   3.771
71977W        W43593   7.614  39.439   0.284
71978W        W43594  32.963  32.076  11.054
71979W        W43595  26.118  41.797   2.651
71980W        W43596   0.273   3.115  12.868
71981W        W43597  15.224  14.241  12.427
71982W        W43598  21.479  42.105  14.526
71983W        W43599  12.404  16.055  12.407
71984W        W43600  40.465   7.742   0.261
71985W        W43601  42.831  44.971   3.175
71986W        W43602  37.507  16.585  10.695
71987W        W43603  18.122  37.997  10.659
71988W        W43604  24.472  39.664   4.306
71989W        W43605  22.670  10.293  11.750
71990W        W43606  22.595   7.758   0.529
71991W        W43607  16.630   1.797   4.441
71992W        W43608  16.390  27.761   0.403
71993W        W43609  25.008  35.937  13.403
71994W        W43610   3.344   6.272  10.746
71995W        W43611   2.773  16.501  12.490
71996W        W43612  43.873  23.917   3.690
71997W        W43613  25.528  16.328   5.029
71998W        W43614  30.708  12.244   4.616
71999W        W43615  10.904   8.890   4.184
72000W        W43616  22.205  26.889  14.673
72001W        W43617  38.563  30.617   3.124
72002W        W43618   2.346   8.168   4.809
72003W        W43619   7.628  31.715  10.321
72004W        W43620  23.028   7.867   1.021
72005W        W43621  17.076  26.193  10.550
72006W        W43622  20.166  26.766  12.161
72007W        W43623   6.800  32.496   4.721
72008W        W43624  37.424   9.728   0.877
72009W        W43625  38.451  10.562   2.753
72010W        W43626   5.723  43.317  13.330
72011W        W43627   6.947   1.315  12.554
72012W        W43628  19.727   2.290  13.714
72013W        W43629  44.344  26.257  11.061
72014W        W43630  20.753  28.629  13.025
72015W        W43631   9.745   2.246  10.984
72016W        W43632   2.513  11.633  13.866
72017W        W43633  24.761  19.254  13.813
72018W        W43634   5.223  24.499   3.871
72019W        W43635  37.395  14.843  14.353
72020W        W43636  21.170  44.130   2.753
72021W        W43637  26.980  21.170  12.509
72022W        W43638  35.059  10.171   3.849
72023W        W43639  32.646  24.129  11.448
72024W        W43640  43.892  41.617  11.117
72025W        W43641  26.462   4.909  13.889
72026W        W43642  23.036   6.000  14.228
72027W        W43643   1.761  38.064  14.773
72028W        W43644  26.007  16.257   0.228
72029W        W43645   0.310   9.320   1.789
72030W        W43646  40.097  36.087   3.753
72031W        W43647  44.842   5.196   2.387
72032W        W43648  28.241   9.146   2.249
72033W        W43649  13.248   6.277   3.583
72034W        W43650  15.182  41.584   3.738
72035W        W43651   9.251   2.099  12.541
72036W        W43652  31.983  23.741  12.387
72037W        W43653  33.938   9.704   3.892
72038W        W43654   8.013  18.000   4.129
72039W        W43655  18.709  36.746   1.498
72040W        W43656   5.283  36.873   0.555
72041W        W43657   2.294  24.048  11.611
72042W        W43658  23.837  38.579  12.525
72043W        W43659   0.274   4.374  13.370
72044W        W43660  32.468  44.699  10.001
72045W        W43661  21.484  40.539  10.314
72046W        W43662   3.740  44.610  14.416
72047W        W43663  37.555  30.803   2.445
72048W        W43664   5.474  18.218   1.832
72049W        W43665  41.071   0.480  12.754
72050W        W43666  26.611  17.662  14.112
72051W        W43667  23.998  16.004  14.868
72052W        W43668  28.663  18.624  13.955
72053W        W43669  40.463  23.660  13.486
72054W        W43670  12.908  36.720   2.991
72055W        W43671  28.881  27.922  14.844
72056W        W43672   6.752  18.521  10.688
72057W        W43673  28.682  35.537   1.435
72058W        W43674  19.525  13.510  10.738
72059W        W43675  13.194  35.629   1.354
72060W        W43676  35.263   1.030  13.886
72061W        W43677   9.715  37.841  11.527
72062W        W43678  34.170  25.501  13.965
72063W        W43679  31.429  30.107  10.547
72064W        W43680   5.844  36.307  13.313
72065W        W43681  15.541  25.692  13.713
72066W        W43682  32.759  31.137   3.669
72067W        W43683   3.198  35.660  14.491
72068W        W43684   7.381  32.550   1.979
72069W        W43685  36.349   6.237   3.800
72070W        W43686  24.709  10.503   2.354
72071W        W43687   2.332  11.950  11.143
72072W        W43688  33.646  24.080  13.983
72073W        W43689  27.115   6.959   4.743
72074W        W43690   8.087  20.237   2.652
72075W        W43691  14.122  35.689   2.291
72076W        W43692  22.992  23.494  12.481
72077W        W43693  30.044  14.785  11.996
72078W        W43694   5.122  17.030   0.245
72079W        W43695  31.992  19.680  11.615
72080W        W43696  13.786  34.339   1.275
72081W        W43697   4.914  17.557  14.890
72082W        W43698  15.248  42.843  11.635
72083W        W43699  30.509  30.163  11.977
72084W        W43700  42.301   9.306  10.932
72085W        W43701  41.966  34.992  11.186
72086W        W43702  24.777  38.852  14.044
72087W        W43703  28.471  14.260   4.160
72088W        W43704  40.970   2.546   1.007
72089W        W43705  42.855   7.831  14.005
72090W        W43706  41.536  20.589  14.099
72091W        W43707   0.391  37.423   2.580
72092W        W43708   0.475  14.159   4.127
72093W        W43709  24.534  32.051   3.228
72094W        W43710  10.125  12.201  12.080
72095W        W43711  39.094  34.614  14.524
72096W        W43712  17.479  19.058   1.405
72097W        W43713   3.337  29.221  12.824
72098W        W43714  13.028  44.506  13.819
72099W        W43715   9.955  35.285   1.788
72100W        W43716  18.232  20.726  11.520
72101W        W43717  26.852  22.743   9.851
72102W        W43718   0.526  25.909  10.524
72103W        W43719   0.471  28.556   1.355
72104W        W43720  43.335   0.749  11.632
72105W        W43721  38.520  35.097  12.093
72106W        W43722  37.008  43.128   1.436
72107W        W43723  16.775  26.176   1.900
72108W        W43724  10.392  33.976  13.060
72109W        W43725  27.252  43.396  13.040
72110W        W43726  14.859  25.448   2.152
72111W        W43727   8.811   8.253  14.935
72112W        W43728  38.966  10.056  13.034
72113W        W43729  42.075  32.498  14.434
72114W        W43730   6.735  38.595  11.244
72115W        W43731  41.712   1.883   1.203
72116W        W43732   3.695  31.859   1.807
72117W        W43733  38.302  16.022   0.055
72118W        W43734  11.125   3.354   3.711
72119W        W43735   2.265  29.605  13.887
72120W        W43736   3.538  44.476   2.068
72121W        W43737  42.489  24.778  14.385
72122W        W43738  24.561   1.377  14.290
72123W        W43739   3.259  13.666  13.929
72124W        W43740  36.762  31.498  14.866
72125W        W43741  14.361  32.882   4.465
72126W        W43742  34.336  23.697  13.348
72127W        W43743  32.553  21.310   4.846
72128W        W43744  30.878  28.523   2.232
72129W        W43745  23.256   8.697   1.622
72130W        W43746  21.678   4.215   1.646
72131W        W43747  28.193  19.294   4.932
72132W        W43748  25.651  43.261  10.618
72133W        W43749  14.323  16.313  14.567
72134W        W43750  34.534  20.293  12.292
72135W        W43751  35.083  26.783  11.960
72136W        W43752   6.663  41.357   0.608
72137W        W43753  24.612  14.220   1.355
72138W        W43754  15.082   5.421   4.575
72139W        W43755  25.453  21.485  14.036
72140W        W43756   6.968  38.478  14.535
72141W        W43757  34.168  36.408   1.783
72142W        W43758  29.576  35.294   0.138
72143W        W43759  39.509  38.018  13.135
72144W        W43760  34.925  16.663  12.086
72145W        W43761  44.010  24.142   1.237
72146W        W43762  33.083  39.046   4.867
72147W        W43763   1.238   6.789  12.547
72148W        W43764  37.275  22.677  13.435
72149W        W43765  41.497  23.310   2.795
72150W        W43766  27.687  16.313   3.624
72151W        W43767  12.447  28.626   3.756
72152W        W43768  38.551  10.382  13.168
72153W        W43769  25.955  26.934   4.819
72154W        W43770  10.348  29.954   1.828
72155W        W43771  36.752  12.573   1.207
72156W        W43772  41.278  21.677  13.368
72157W        W43773  40.981   9.330  11.550
72158W        W43774  19.237  17.692  11.664
72159W        W43775   8.409  11.419  12.045
72160W        W43776  17.990  39.930  11.196
72161W        W43777   1.293   2.465  13.293
72162W        W43778  27.185  11.098   4.583
72163W        W43779  13.385   1.978   3.625
72164W        W43780  12.304   1.396  14.500
72165W        W43781  38.442   9.905  13.918
72166W        W43782  10.909  24.761  14.093
72167W        W43783  33.389   2.309   0.848
72168W        W43784  42.215   7.012  13.824
72169W        W43785  43.408  13.884  12.544
72170W        W43786   5.692  17.273  14.491
72171W        W43787  36.920  22.214   3.930
72172W        W43788   8.717  16.942   1.705
72173W        W43789  21.048  18.733   0.364
72174W        W43790  44.734  11.234  10.624
72175W        W43791  29.673   3.249  14.936
72176W        W43792  43.572  11.646   2.846
72177W        W43793   2.460   0.105   3.635
72178W        W43794   7.750  34.459   1.836
72179W        W43795   5.797  10.836  14.521
72180W        W43796   1.732  17.098  12.936
72181W        W43797  38.822  11.059   5.330
72182W        W43798   9.388  38.627  12.509
72183W        W43799  26.411   4.870  10.981
72184W        W43800  33.656  18.540  13.881
72185W        W43801  22.341  35.138   0.476
72186W        W43802  38.051  21.057   3.602
72187W        W43803   2.910  30.690  13.342
72188W        W43804  44.687  15.629   4.382
72189W        W43805   0.724  32.146  12.935
72190W        W43806   8.295   7.255   4.840
72191W        W43807  24.047  23.669  12.623
72192W        W43808   7.478  11.166   4.612
72193W        W43809  36.816  39.514  11.565
72194W        W43810   6.613  28.564  11.047
72195W        W43811   9.985  27.391   3.119
72196W        W43812  14.118  41.926  13.298
72197W        W43813   4.907   7.451   3.824
72198W        W43814  20.581  39.798  13.351
72199W        W43815   5.491  40.948   1.418
72200W        W43816  19.166   6.305   3.804
72201W        W43817  20.249  35.055   2.924
72202W        W43818  32.407  24.297   3.463
72203W        W43819  10.865  19.650   4.668
72204W        W43820  10.719  24.857   3.643
72205W        W43821  33.796  34.771  11.552
72206W        W43822  30.902  39.545   0.892
72207W        W43823   2.290   2.198   3.634
72208W        W43824  12.564   6.672   2.697
72209W        W43825  40.501  35.259   1.316
72210W        W43826  36.060  31.019  11.163
72211W        W43827   6.155   1.381   3.640
72212W        W43828   6.543   6.314  12.996
72213W        W43829  38.341   2.275  11.480
72214W        W43830   1.943  18.554   3.352
72215W        W43831  36.055  20.401  11.568
72216W        W43832   2.512   5.996  12.538
72217W        W43833  30.671  20.036  11.595
72218W        W43834  36.709  44.965   4.607
72219W        W43835  29.561  19.333   4.820
72220W        W43836  33.336  25.606  10.898
72221W        W43837  15.644  42.277   2.217
72222W        W43838  39.092   0.771  14.379
72223W        W43839  13.589  25.699   1.475
72224W        W43840  22.728   5.291  14.853
72225W        W43841  11.593  37.615  10.024
72226W        W43842   3.304  41.766   2.207
72227W        W43843  38.311  32.409  13.157
72228W        W43844  24.660  16.841  12.355
72229W        W43845  14.230  44.045  12.220
72230W        W43846  38.091  11.733  10.479
72231W        W43847  18.686  17.058   4.076
72232W        W43848  18.291  10.224   2.665
72233W        W43849  35.617  32.457   3.841
72234W        W43850  34.406  22.773  14.808
72235W        W43851  35.088  12.533   0.219
72236W        W43852  11.069   2.349   4.040
72237W        W43853  28.629  16.727   1.937
72238W        W43854  22.984  27.106   1.881
72239W        W43855  11.647  28.427  11.590
72240W        W43856  32.599   3.505   4.275
72241W        W43857  28.033  16.867   1.136
72242W        W43858  13.988  11.301   0.528
72243W        W43859  12.784   6.218  13.581
72244W        W43860  11.840  31.447  10.638
72245W        W43861   4.986   4.753   3.230
72246W        W43862  16.138   9.675   3.669
72247W        W43863  36.590  20.420  12.379
72248W        W43864  23.619  21.619   0.280
72249W        W43865  10.488   1.277   2.218
72250W        W43866  21.098  15.206   2.298
72251W        W43867  24.240   0.438  11.575
72252W        W43868  23.524   2.683   4.538
72253W        W43869  14.063  30.642   1.574
72254W        W43870   9.731  31.498   5.032
72255W        W43871  30.759   0.048  10.093
72256W        W43872  29.184  12.156   2.853
72257W        W43873  37.439  38.576  13.855
72258W        W43874   7.370  31.882   4.834
72259W        W43875  14.728   6.197   2.451
72260W        W43876  36.511   9.887   0.903
72261W        W43877   8.420  32.329   2.062
72262W        W43878  30.628  22.845  14.653
72263W        W43879  37.084  21.886   1.893
72264W        W43880  11.101  37.097   4.507
72265W        W43881  24.083  42.247   2.197
72266W        W43882  12.006  25.612  10.422
72267W        W43883  32.658  31.010   2.140
72268W        W43884  32.002  28.668   0.494
72269W        W43885  31.176  23.628  12.042
72270W        W43886  36.121  10.182  13.439
72271W        W43887  32.401  13.643  14.772
72272W        W43888   6.666   3.976  10.779
72273W        W43889  35.622  42.268  12.717
72274W        W43890  32.106   6.703  12.484
72275W        W43891   4.894  19.285   2.722
72276W        W43892  34.898  37.532  11.996
72277W        W43893  21.742  20.679   1.754
72278W        W43894  33.925  26.724   2.334
72279W        W43895  19.054  21.587  14.810
72280W        W43896  12.284  29.649   0.979
72281W        W43897  33.803   1.172   3.520
72282W        W43898  34.001  27.410   0.264
72283W        W43899  42.521  22.706   1.958
72284W        W43900   7.404  15.529   0.685
72285W        W43901  36.593   1.458   3.607
72286W        W43902  12.149  43.046  10.663
72287W        W43903   7.795  10.295   4.564
72288W        W43904  38.625  43.720   3.183
72289W        W43905  30.531  17.309   1.278
72290W        W43906  10.770  25.090  10.691
72291W        W43907  30.542  19.242  14.566
72292W        W43908  14.687   8.859  12.474
72293W        W43909  16.170  39.085   0.436
72294W        W43910  35.361  28.592  14.402
72295W        W43911   5.968   3.522   5.044
72296W        W43912  13.393  33.700  12.182
72297W        W43913   7.093  21.640   2.711
72298W        W43914  33.929  10.815   3.207
72299W        W43915  38.765   4.746  13.016
72300W        W43916  20.755  44.482   1.403
72301W        W43917  11.204   7.131   2.231
72302W        W43918  10.421  37.360  14.681
72303W        W43919  28.377  41.941   0.009
72304W        W43920  44.699  16.853   2.379
72305W        W43921  25.707   4.848  14.968
72306W        W43922  17.525   2.375   2.000
72307W        W43923  13.062   0.336  13.146
72308W        W43924  41.253  29.102  14.937
72309W        W43925  26.105  25.214   3.216
72310W        W43926  21.798  27.990  14.163
72311W        W43927  16.308  26.190   1.064
72312W        W43928  12.836  16.790  14.880
72313W        W43929  35.192   7.224  11.067
72314W        W43930   7.702  30.668  13.940
72315W        W43931  32.166  38.043   0.256
72316W        W43932   3.740   2.683  13.389
72317W        W43933   2.438  17.996  14.352
72318W        W43934  31.418  15.899   4.243
72319W        W43935  29.672   0.851  12.419
72320W        W43936   7.973  42.467  12.054
72321W        W43937   6.977  12.815  10.557
72322W        W43938   3.523  24.023   4.222
72323W        W43939   8.798  40.861   3.186
72324W        W43940  28.495  17.395   3.742
72325W        W43941  35.507  44.546   0.025
72326W        W43942  23.765  39.529  14.416
72327W        W43943  29.847  35.915   1.947
72328W        W43944  44.967  27.156   0.342
72329W        W43945  14.918  44.944  14.428
72330W        W43946  34.391  18.764   3.707
72331W        W43947  19.334  33.981   3.140
72332W        W43948  22.002  38.600   1.904
72333W        W43949  30.197  14.781  14.897
72334W        W43950  23.697  41.686  11.833
72335W        W43951  40.999  20.511   2.835
72336W        W43952  40.093  37.074  11.930
72337W        W43953  39.357  36.395  13.838
72338W        W43954  19.586   1.020   3.703
72339W        W43955  22.660   8.340   1.407
72340W        W43956  21.013   0.029  12.127
72341W        W43957  20.009  36.098   3.373
72342W        W43958   0.888   7.161  13.345
72343W        W43959  13.372  10.832   1.861
72344W        W43960  11.369  40.869  11.165
72345W        W43961  42.081  35.240   1.414
72346W        W43962   9.336  11.640   2.359
72347W        W43963  32.571  43.582  13.480
72348W        W43964  33.537  22.510  12.875
72349W        W43965   8.417  34.030   1.360
72350W        W43966  34.845  32.888  11.054
72351W        W43967   3.251   9.137   3.189
72352W        W43968  33.825  44.290  11.148
72353W        W43969  34.588  22.732   5.146
72354W        W43970   3.953  30.041  11.574
72355W        W43971   3.549  42.768   4.239
72356W        W43972  18.239  14.819   1.401
72357W        W43973  40.759  12.867  14.859
72358W        W43974  44.046  42.331   1.578
72359W        W43975  24.438   0.432  13.420
72360W        W43976   0.846  38.746  10.682
72361W        W43977  26.262  34.219  11.620
72362W        W43978  18.615   3.407   0.996
72363W        W43979   1.952  12.771  12.003
72364W        W43980  27.442  20.553   4.724
72365W        W43981  21.287   1.032  11.016
72366W        W43982  17.511  38.611   0.423
72367W        W43983   7.450   2.458   1.311
72368W        W43984  17.584  39.926   1.697
72369W        W43985  19.805  39.330  10.421
72370W        W43986  41.366  20.030   3.387
72371W        W43987  31.913  10.696   3.235
72372W        W43988  42.957   3.843   0.321
72373W        W43989  12.711  22.064   1.592
72374W        W43990  44.479  27.744   4.228
72375W        W43991   5.386   2.741  12.609
72376W        W43992  24.252  30.628  11.261
72377W        W43993  24.907  40.492  12.402
72378W        W43994  27.891  14.289   2.254
72379W        W43995   0.932  28.876  12.884
72380W        W43996   2.633  21.208  14.093
72381W        W43997   2.737   1.822  10.997
72382W        W43998  11.287   8.268   3.671
72383W        W43999  24.030  35.032  10.596
72384W        W44000  44.570   3.862   0.681
72385W        W44001   9.392  13.913   1.587
72386W        W44002  14.582  37.392  12.593
72387W        W44003  32.443   8.314   4.475
72388W        W44004  33.738  37.040   2.198
72389W        W44005   7.669  40.037  14.018
72390W        W44006  36.632   4.171  12.879
72391W        W44007   3.796   3.823   4.507
72392W        W44008  14.150  33.559   4.586
72393W        W44009  42.784  14.964   1.829
72394W        W44010   2.296  30.841   2.344
72395W        W44011  28.180  38.457  10.911
72396W        W44012  26.588   6.203   4.801
72397W        W44013  26.569  29.176  11.091
72398W        W44014  28.971  42.967   0.347
72399W        W44015  17.366   0.899   2.796
72400W        W44016  33.639  15.758   2.285
72401W        W44017  20.265  33.193   2.490
72402W        W44018  41.748  34.877   4.545
72403W        W44019  23.308   6.451  10.667
72404W        W44020  13.218  18.597  12.773
72405W        W44021  41.011  40.334   3.828
72406W        W44022  43.549  35.017  14.454
72407W        W44023  29.499  24.731  11.579
72408W        W44024  16.039  32.390   4.873
72409W        W44025  29.031  27.982  11.610
72410W        W44026  12.928  21.211  11.873
72411W        W44027  34.855  40.102  13.424
72412W        W44028  33.117  22.787   3.785
72413W        W44029  24.927   0.169  14.836
72414W        W44030  35.109   3.849   1.360
72415W        W44031  35.801  35.174  12.633
72416W        W44032  33.360  41.360   3.807
72417W        W44033  35.320  10.330  12.983
72418W        W44034  42.983   9.386  10.803
72419W        W44035   6.920  20.737  11.973
72420W        W44036  17.546  41.443  14.401
72421W        W44037  20.960  31.061   3.132
72422W        W44038  18.134  13.366   1.489
72423W        W44039   3.969  19.227   3.113
72424W        W44040  19.345  13.199   2.182
72425W        W44041  10.294  24.277  13.421
72426W        W44042   4.828  36.593   3.514
72427W        W44043  33.323  23.131   0.395
72428W        W44044   2.981   5.708  13.817
72429W        W44045   6.697  28.821  12.769
72430W        W44046  29.793  25.735   2.882
72431W        W44047   4.050   4.696   1.839
72432W        W44048  42.490  40.841   2.797
72433W        W44049  26.340   3.344   0.439
72434W        W44050   8.471  30.497  13.576
72435W        W44051  42.833  15.229  14.034
72436W        W44052  36.659   7.639  12.001
72437W        W44053  18.299  22.301  14.768
72438W        W44054  34.487  16.709   0.208
72439W        W44055  29.651  20.569   1.859
72440W        W44056   7.931  29.603   0.992
72441W        W44057   8.243  30.989  11.178
72442W        W44058  32.323  21.684  10.525
72443W        W44059  43.698  42.273   1.935
72444W        W44060  27.881  38.436  11.863
72445W        W44061  42.496  27.876  12.008
72446W        W44062   1.258  23.496  14.099
72447W        W44063  35.476  18.553  14.065
72448W        W44064  25.929  28.065   3.330
72449W        W44065  16.796   1.479  12.239
72450W        W44066   7.115  28.381   0.131
72451W        W44067  30.375  20.332   1.039
72452W        W44068  13.018  37.544   5.315
72453W        W44069  16.735  26.980  14.522
72454W        W44070  17.768   1.234  14.325
72455W        W44071  40.385  43.869   4.306
72456W        W44072  13.644  20.205   3.823
72457W        W44073  18.557  27.537   2.418
72458W        W44074  44.457  25.794   2.834
72459W        W44075  21.954  27.044  11.880
72460W        W44076  42.791  22.521   4.980
72461W        W44077  29.690  43.330  11.972
72462W        W44078  35.681  36.028   1.495
72463W        W44079  14.278  31.477  10.834
72464W        W44080  35.325   0.282  12.792
72465W        W44081  34.326  21.239   1.796
72466W        W44082  28.197   7.862  14.897
72467W        W44083  18.132   7.853   3.352
72468W        W44084   0.789  29.140   4.159
72469W        W44085  33.570  34.770  12.940
72470W        W44086  24.067  42.409   2.705
72471W        W44087   7.673   0.454  11.954
72472W        W44088  28.580  41.278   1.466
72473W        W44089  13.066  26.901   0.898
72474W        W44090   8.920  32.024  11.474
72475W        W44091   9.107  44.381   0.302
72476W        W44092  27.144  36.311   0.896
72477W        W44093  36.049   1.534   4.133
72478W        W44094  42.004  15.120  13.220
72479W        W44095  14.180  24.353  14.530
72480W        W44096   0.200  22.147   2.891
72481W        W44097  17.765   8.860  14.515
72482W        W44098  16.253  21.192   0.398
72483W        W44099  14.914  19.709  10.132
72484W        W44100  26.753  22.353  12.953
72485W        W44101  31.494  37.616  14.739
72486W        W44102   7.635  18.033   2.111
72487W        W44103  25.392  11.741   0.780
72488W        W44104  25.169  32.935   0.247
72489W        W44105  19.294  41.626   0.923
72490W        W44106  23.294   3.005  10.461
72491W        W44107  12.065   8.380  13.841
72492W        W44108  41.798  13.726   3.409
72493W        W44109  41.902  15.181   1.680
72494W        W44110   2.741  21.141  13.582
72495W        W44111   1.459  25.616  10.880
72496W        W44112  23.097  28.521   2.651
72497W        W44113  44.747  37.655   2.944
72498W        W44114  12.605  44.309   0.083
72499W        W44115  14.129  21.923  12.044
72500W        W44116  31.675  30.552  10.513
72501W        W44117   6.614  33.509  13.057
72502W        W44118   7.792  18.510   3.308
72503W        W44119  14.736   8.615   2.256
72504W        W44120  18.151  15.129  11.002
72505W        W44121  36.394  13.269  14.479
72506W        W44122  44.497  36.414   1.811
72507W        W44123  34.496  10.626  10.951
72508W        W44124  24.653  30.186  14.107
72509W        W44125  26.692  36.559   0.353
72510W        W44126  38.146   7.786   2.269
72511W        W44127  43.523  32.417   4.162
72512W        W44128   8.318  22.879   2.432
72513W        W44129   9.107   0.009   2.241
72514W        W44130  29.161  16.835   3.294
72515W        W44131  22.011  25.079   2.607
72516W        W44132   4.125  34.000   2.287
72517W        W44133  43.739  20.250  11.344
72518W        W44134   7.131  30.560   2.637
72519W        W44135  35.010  30.058   2.346
72520W        W44136  37.455   8.891   1.992
72521W        W44137  21.954  11.863   0.392
72522W        W44138  33.033   7.476   0.004
72523W        W44139  36.972   3.374  14.182
72524W        W44140  20.361  11.181   3.617
72525W        W44141  25.173  13.242   2.321
72526W        W44142  10.172  25.519  11.245
72527W        W44143   1.485   4.436  14.201
72528W        W44144   5.388   8.787  12.564
72529W        W44145  31.177  34.585  10.703
72530W        W44146  13.232  37.641  10.610
72531W        W44147  36.397   7.617   2.857
72532W        W44148   7.727   7.811   1.542
72533W        W44149  19.722  13.280  12.870
72534W        W44150  29.031  39.529  14.674
72535W        W44151  40.049  23.447  13.760
72536W        W44152  20.092  29.152   2.268
72537W        W44153  36.157  36.584  13.009
72538W        W44154  25.272  19.201  13.890
72539W        W44155  32.191  31.489   0.035
72540W        W44156  43.829  19.788  12.669
72541W        W44157  15.592  15.561  13.072
72542W        W44158  10.569  10.409   3.547
72543W        W44159  11.653  26.424   4.230
72544W        W44160  40.807  38.639   3.784
72545W        W44161  14.072  36.825  11.630
72546W        W44162  23.049  18.716  12.585
72547W        W44163  19.170  15.778  10.660
72548W        W44164  34.605  33.901  11.014
72549W        W44165   9.395   5.123  12.858
72550W        W44166  37.040  18.203  11.859
72551W        W44167   8.393  10.162   2.736
72552W        W44168  41.973  30.688   1.767
72553W        W44169   1.894   4.788   3.886
72554W        W44170   1.452  17.647   3.813
72555W        W44171  20.537  30.736  11.659
72556W        W44172  24.239   5.924  14.480
72557W        W44173  19.572  31.539   0.311
72558W        W44174   9.667   6.706   4.424
72559W        W44175  29.683   9.249   1.160
72560W        W44176  27.704  11.225  11.031
72561W        W44177  13.196  36.958  14.026
72562W        W44178  29.037  11.203   3.877
72563W        W44179  19.733  20.180   2.806
72564W        W44180  42.262  44.481   2.432
72565W        W44181   8.916  14.583   2.235
72566W        W44182  41.717   4.403   4.047
72567W        W44183   7.409  22.263   0.732
72568W        W44184  43.408   5.876  13.321
72569W        W44185  38.932  23.049   1.183
72570W        W44186   7.457  43.364  13.875
72571W        W44187  35.924  41.699  10.761
72572W        W44188  15.662  34.129   2.268
72573W        W44189  29.893   8.616  13.053
72574W        W44190  28.508  34.401  14.779
72575W        W44191  14.922  20.019   4.159
72576W        W44192  32.873  12.515   4.170
72577W        W44193  21.743  33.669   0.379
72578W        W44194  37.815  43.081  14.196
72579W        W44195  41.905   9.184  11.264
72580W        W44196  13.709  27.737   1.329
72581W        W44197  42.982  26.725  10.570
72582W        W44198   1.326  30.714   1.880
72583W        W44199  13.353  26.588  10.685
72584W        W44200  10.180  15.176  13.989
72585W        W44201  26.089   8.224   0.304
72586W        W44202  44.059  19.670   4.613
72587W        W44203   9.096  11.805   2.795
72588W        W44204   9.630   6.195  10.369
72589W        W44205  38.985  15.955   9.698
72590W        W44206  13.067  32.190   1.095
72591W        W44207  41.482   3.941  13.442
72592W        W44208  31.010  20.676  12.987
72593W        W44209  31.227  20.237  14.214
72594W        W44210  25.557  40.698  13.354
72595W        W44211   2.192   2.356  13.007
72596W        W44212  14.389   8.426  13.451
72597W        W44213  31.901   3.710  11.124
72598W        W44214  10.597  36.036  11.965
72599W        W44215  29.779   1.187   4.520
72600W        W44216  36.195   5.882  12.131
72601W        W44217   5.346  41.834   2.384
72602W        W44218  27.098  30.778   5.103
72603W        W44219  41.072   3.429  12.414
72604W        W44220   3.492  11.647  11.001
72605W        W44221  29.505  16.856  13.624
72606W        W44222  37.056  41.501   2.576
72607W        W44223  41.786  34.128  12.864
72608W        W44224  35.022  43.919  11.923
72609W        W44225  10.790   5.195   0.865
72610W        W44226  39.043  20.947   1.359
72611W        W44227  18.794  36.198  11.958
72612W        W44228  34.896  29.407   1.921
72613W        W44229   9.381  29.107   1.717
72614W        W44230  23.536  37.447   0.754
72615W        W44231   3.266  31.025  10.686
72616W        W44232   6.730  19.827  10.991
72617W        W44233  17.161  32.982  10.673
72618W        W44234  19.579  36.417  14.917
72619W        W44235  43.320  21.221   4.078
72620W        W44236  27.106  33.034  13.235
72621W        W44237  42.386  38.787   3.191
72622W        W44238  24.211  38.625   1.409
72623W        W44239  44.081   1.458   5.019
72624W        W44240  17.820  24.987  11.930
72625W        W44241   5.803   6.004   0.303
72626W        W44242  33.349  35.024   2.718
72627W        W44243  44.173  40.100  13.324
72628W        W44244   9.599  16.532  12.038
72629W        W44245  16.546   0.792  11.021
72630W        W44246  25.259  25.983   2.716
72631W        W44247  24.096  10.656  12.783
72632W        W44248  25.611  15.608  10.115
72633W        W44249  16.307   1.384  11.664
72634W        W44250   4.146  30.018  11.101
72635W        W44251  33.550   5.647  12.202
72636W        W44252   5.830  17.741   2.590
72637W        W44253   6.062  35.189   2.802
72638W        W44254  23.243   0.417  11.521
72639W        W44255  23.021  43.395  11.933
72640W        W44256  12.699  31.931  11.601
72641W        W44257  38.073  30.571  14.985
72642W        W44258  24.759  40.892  10.811
72643W        W44259  41.861   1.177  13.439
72644W        W44260  25.646   2.954   3.325
72645W        W44261  36.394  32.328   2.770
72646W        W44262  38.453  29.000  12.343
72647W        W44263  10.371  14.378   0.382
72648W        W44264  37.860  37.427  13.099
72649W        W44265  30.699  13.198   3.461
72650W        W44266  30.249  38.817  14.533
72651W        W44267  27.592   1.967   4.901
72652W        W44268  28.958  42.841   4.078
72653W        W44269  24.048  37.771   3.670
72654W        W44270  20.274  20.997   1.855
72655W        W44271  10.503  34.898   2.911
72656W        W44272  18.729   8.309  11.479
72657W        W44273  44.905  29.265  11.412
72658W        W44274  23.720  34.054   3.650
72659W        W44275  23.623  24.194   4.747
72660W        W44276  12.238   6.801  11.862
72661W        W44277  13.668  10.456  11.191
72662W        W44278   6.402   8.616  11.375
72663W        W44279  42.778  32.821  11.504
72664W        W44280   7.888  37.066  12.003
72665W        W44281   7.477  13.567  11.029
72666W        W44282  22.183   5.746   0.343
72667W        W44283  27.081  20.537  11.653
72668W        W44284   3.257  21.997  13.374
72669W        W44285   6.345   9.269  14.437
72670W        W44286  13.380  32.786   2.825
72671W        W44287  24.239   8.126  12.156
72672W        W44288  27.962  35.170  11.333
72673W        W44289  22.111  26.052  12.553
72674W        W44290  15.255  39.351   1.942
72675W        W44291  14.274  25.156   4.990
72676W        W44292   8.856  21.226   2.388
72677W        W44293   6.239  13.630   4.616
72678W        W44294  31.148   0.194  14.413
72679W        W44295  34.415  11.668  12.659
72680W        W44296   9.910   2.993   1.497
72681W        W44297  37.064  33.699  11.024
72682W        W44298   3.352   0.114  14.876
72683W        W44299  32.012  35.007  14.740
72684W        W44300  14.580   3.280   1.672
72685W        W44301  32.649   3.890  10.632
72686W        W44302  20.600  40.147   1.338
72687W        W44303   6.208  11.740  12.869
72688W        W44304  36.201   3.731   4.293
72689W        W44305   8.210   8.706   2.856
72690W        W44306   3.935  28.456  13.850
72691W        W44307   2.733  28.106   0.256
72692W        W44308  41.259   9.796   4.298
72693W        W44309  24.598  33.084   0.382
72694W        W44310  31.748  18.009   3.141
72695W        W44311  26.178  31.454   1.985
72696W        W44312  35.932  19.394  14.500
72697W        W44313  15.604  10.304  14.349
72698W        W44314   0.874  16.226   1.061
72699W        W44315  44.929  36.063   5.175
72700W        W44316  29.518  30.397  11.557
72701W        W44317  22.682   2.504   0.001
72702W        W44318  44.835  19.604   4.111
72703W        W44319  19.816  10.283  13.303
72704W        W44320  27.124  38.594  13.893
72705W        W44321  31.799  21.481   4.960
72706W        W44322  36.450   4.688  15.000
72707W        W44323  15.366  19.903  14.816
72708W        W44324  29.663  15.845   4.572
72709W        W44325  32.572  22.095   1.099
72710W        W44326  23.630   0.525   4.006
72711W        W44327  17.738  26.896  14.798
72712W        W44328   1.320  42.568  14.742
72713W        W44329  12.640  44.778   0.349
72714ION    NA+44330  11.237  20.802  14.447
72715ION    NA+44331  21.336  28.045   4.646
72716ION    NA+44332   6.300  18.156  13.337
72717ION    NA+44333  18.610  34.483  13.490
72718ION    NA+44334  14.343  44.941  13.366
72719ION    NA+44335  43.391  19.287   2.468
72720ION    NA+44336  16.243  41.491  13.115
72721ION    NA+44337  39.682  20.640  10.748
72722ION    NA+44338   7.516  12.225  11.191
72723ION    NA+44339  15.550  31.128  14.364
72724ION    NA+44340  19.769  34.807  11.573
72725ION    NA+44341   2.880  17.701  11.102
72726ION    NA+44342  14.672  20.039   0.286
72727ION    NA+44343   5.448  41.144   3.263
72728ION    NA+44344  39.626  12.762  11.975
72729ION    NA+44345  14.856  35.942   1.605
72730ION    NA+44346   9.618  29.673   0.381
72731ION    NA+44347  39.610  33.642  12.818
72732ION    NA+44348   2.431  35.277   0.875
72733ION    NA+44349  11.919  11.793   1.197
72734ION    NA+44350   6.301   4.736   4.982
72735ION    NA+44351  24.790  36.183  13.848
72736ION    NA+44352  42.518  40.052  14.171
72737ION    NA+44353  33.913  34.988  13.370
72738ION    NA+44354  22.608   3.196  12.642
72739ION    NA+44355   4.385  17.709  13.880
72740ION    NA+44356  35.571  15.747  12.972
72741ION    NA+44357  27.156   7.173   2.686
72742ION    NA+44358  26.377  36.394  14.948
72743ION    NA+44359  26.484  22.532   0.329
72744ION    NA+44360  33.808   6.314  11.764
72745ION    NA+44361  26.562  33.004  14.579
72746ION    NA+44362   6.383  11.446  10.690
72747ION    NA+44363  27.117  31.403  14.773
72748ION    NA+44364  30.936   8.657  13.335
72749ION    NA+44365  22.549  21.304  10.532
72750ION    NA+44366  34.698  44.132  12.577
72751ION    NA+44367  25.494  13.199   4.124
72752ION    NA+44368  36.291  18.839  11.166
72753ION    NA+44369  15.991   8.102  11.533
72754ION    NA+44370  13.839  37.778  12.980
72755ION    NA+44371   1.800   9.706   4.093
72756ION    NA+44372   6.253  26.673  13.707
72757ION    NA+44373  26.436  27.772  10.851
72758ION    NA+44374  13.813  26.420  11.521
72759ION    NA+44375  21.931  36.111  10.683
72760ION    NA+44376  39.402   8.582  14.998
72761ION    NA+44377  36.485  28.202  13.565
72762ION    NA+44378  23.621  34.813   4.079
72763ION    NA+44379  18.285   3.161   4.298
72764ION    NA+44380   7.338  31.937  10.724
72765ION    NA+44381  10.972  38.919  13.847
72766ION    NA+44382  18.991  20.014  14.490
72767ION    NA+44383  35.073   7.698  13.294
72768ION    NA+44384   9.815   5.834   3.034
72769ION    NA+44385  38.406   8.400  12.467
72770ION    NA+44386  43.755   1.725   1.989
72771ION    NA+44387  20.489  14.388   0.514
72772ION    NA+44388   9.950   2.293  11.440
72773ION    NA+44389  40.145  30.923  14.221
72774ION    NA+44390  23.308  40.197  13.057
72775ION    NA+44391  40.477  38.050  11.597
72776ION    NA+44392  37.831  38.537  13.041
72777ION    NA+44393  18.267  32.675   1.753
72778ION    NA+44394  27.379  42.552   0.948
72779ION    NA+44395  28.303  25.774  10.047
72780ION    NA+44396  10.363  29.604  13.196
72781ION    NA+44397  21.514  35.042  11.247
72782ION    NA+44398  41.238  36.390   3.315
72783ION    NA+44399  21.360  25.748   2.339
72784ION    NA+44400  20.913  39.584   0.699
72785ION    NA+44401   7.240  13.682  13.190
72786ION    NA+44402   5.785  13.837  10.541
72787ION    NA+44403  30.290  40.504   3.375
72788ION    NA+44404  30.981  44.551   2.586
72789ION    NA+44405  26.185  12.576   1.862
72790ION    NA+44406  15.448  26.610   4.584
72791ION    NA+44407   1.726  16.867  14.376
72792ION    NA+44408  17.242  12.597   4.140
72793ION    NA+44409  33.185   4.683  12.319
72794ION    NA+44410  28.578  13.918  12.107
72795ION    NA+44411  42.088  38.328   2.834
72796ION    NA+44412  44.280  18.733   3.179
72797ION    NA+44413  26.052  25.696  14.917
72798ION    NA+44414   2.752   7.445   1.869
72799ION    NA+44415  28.060  31.688  12.605
72800ION    NA+44416  23.905  19.012  11.872
72801ION    NA+44417  38.639  35.508   3.143
72802ION    NA+44418  43.934  29.576  14.208
72803ION    NA+44419  35.871   4.970  10.916
72804ION    NA+44420  43.729  35.133   5.468
72805ION    NA+44421   0.188   5.389  13.312
72806ION    NA+44422  28.310   4.290  10.750
72807ION    NA+44423  32.752  43.712   2.518
72808ION    NA+44424  40.072  15.091   2.188
72809ION    NA+44425  15.156  33.337  14.953
72810ION    NA+44426  11.222  16.390  14.764
72811ION    NA+44427  29.445  29.962  10.921
72812ION    NA+44428  39.074   5.295   1.226
72813ION    NA+44429  10.597   7.698   3.858
72814ION    NA+44430  34.054  16.464   3.852
72815ION    NA+44431  30.046  31.958   3.351
72816ION    NA+44432   2.988  25.485   0.322
72817ION    NA+44433  28.395  10.231  11.670
72818ION    NA+44434  35.866  21.863  14.649
72819ION    NA+44435  43.433   0.428   0.657
72820ION    NA+44436  38.431  22.571  12.734
72821ION    NA+44437  19.646  42.732  10.185
72822ION    NA+44438  40.282  19.386   2.313
72823ION    NA+44439  42.250  25.641   2.192
72824ION    NA+44440  42.155  24.427  13.614
72825ION    NA+44441  36.790  38.797   0.093
72826ION    NA+44442   4.658  23.076  11.445
72827ION    NA+44443  32.015  23.367   3.338
72828ION    NA+44444  28.096   1.325  13.787
72829ION    NA+44445   1.071  22.281   5.326
72830ION    NA+44446  18.654   2.964   2.783
72831ION    NA+44447  43.177   2.195   1.466
72832ION    NA+44448  22.463  44.627   0.095
72833ION    NA+44449  43.854   2.713   1.990
72834ION    NA+44450  14.420  41.656   2.567
72835ION    NA+44451   0.301   1.084   4.747
72836ION    NA+44452  44.773  40.410  12.148
72837ION    NA+44453   0.833   4.303  12.565
72838ION    NA+44454  27.884  23.429   0.680
72839ION    NA+44455  18.591   2.003  11.147
72840ION    NA+44456  39.144  24.563   0.978
72841ION    NA+44457  32.797  10.026  10.877
72842ION    NA+44458  19.514  32.634  12.983
72843ION    NA+44459  32.511   1.643   2.049
72844ION    NA+44460  17.559   4.447  12.930
72845ION    NA+44461   2.051  34.369   1.051
72846ION    NA+44462  39.646  40.577   2.834
72847ION    NA+44463  18.264  39.476  11.244
72848ION    NA+44464   3.324  14.078  12.979
72849ION    NA+44465  22.851  28.211   4.116
72850ION    NA+44466  28.924  14.886  12.878
72851ION    NA+44467  26.619  15.761  11.043
72852ION    NA+44468  23.792  40.446   2.261
72853ION    NA+44469  39.354  28.158  14.479
72854ION    NA+44470  17.179   2.985   1.191
72855ION    NA+44471  39.060   0.653   0.691
72856ION    NA+44472  19.272  11.083  14.437
72857ION    NA+44473  13.397  20.279   4.260
72858ION    NA+44474   1.430  14.388  13.495
72859ION    NA+44475  36.449  40.830  12.094
72860ION    NA+44476  33.072  36.571   3.376
72861ION    NA+44477   1.531  33.715   0.684
72862ION    NA+44478  27.705  19.356   3.695
72863ION    NA+44479  16.607  28.139   3.734
72864ION    NA+44480  36.789  23.264  11.967
72865ION    NA+44481  13.908  27.672  12.317
72866ION    NA+44482  12.482  20.511  11.161
72867ION    NA+44483   6.007  41.108   2.111
72868ION    NA+44484   6.828  39.336  14.295
72869ION    NA+44485   5.892  36.986   1.225
72870ION    NA+44486   2.117  44.561   1.086
72871ION    NA+44487  30.543  26.699   1.189
72872ION    NA+44488  14.552   5.744  14.439
72873ION    NA+44489  24.350   6.714  14.376
72874ION    NA+44490  26.998  28.261   1.413
72875ION    NA+44491  23.968   2.666   0.248
72876ION    NA+44492  44.947  13.676   2.562
72877ION    NA+44493   9.516  32.674  11.516
72878ION    NA+44494  22.526  41.331  11.947
72879ION    NA+44495  13.781   3.644  11.301
72880ION    NA+44496  28.747  28.560   0.853
72881ION    NA+44497  21.550   2.870   3.049
72882ION    NA+44498  39.840  35.088  12.095
72883ION    NA+44499  31.694  39.394   1.889
72884ION    NA+44500  42.099  28.592  11.798
72885ION    NA+44501  22.073  21.724   5.081
72886ION    NA+44502  30.047  15.814   9.672
72887ION    NA+44503  44.081   7.426  11.340
72888ION    NA+44504  26.881  26.272  13.443
72889ION    NA+44505  10.933  11.592   1.373
72890ION    NA+44506  24.099  29.016  10.768
72891ION    NA+44507  19.817  28.672  13.187
72892ION    NA+44508  37.750  35.611   3.588
72893ION    NA+44509  13.247  33.802   3.030
72894ION    NA+44510   2.287   4.673   9.659
72895ION    NA+44511  21.605   5.385  14.294
72896ION    NA+44512  38.405  26.613  12.827
72897ION    NA+44513  41.497  34.311   2.408
72898ION    NA+44514   0.755  18.786  13.012
72899ION    NA+44515  44.634  44.131  10.955
72900ION    NA+44516  43.953  25.482  12.719
72901ION    NA+44517   3.198  21.094  12.639
72902ION    NA+44518   4.653   2.833   1.712
72903ION    NA+44519  42.225   8.436   0.028
72904ION    NA+44520  39.297  44.555   3.809
72905ION    NA+44521  37.591  22.241   0.419
72906ION    NA+44522  24.812  42.867   4.073
72907ION    NA+44523  34.171  11.456  13.617
72908ION    NA+44524  11.410  31.999   0.299
72909ION    NA+44525  16.420   5.896   4.628
72910ION    NA+44526   8.889  24.275  14.530
72911ION    NA+44527   1.873  16.598  12.556
72912ION    NA+44528  11.348  13.133  13.863
72913ION    NA+44529  19.071  36.078  10.731
72914ION    NA+44530  17.519   6.068   4.010
72915ION    NA+44531  34.876  13.903  11.552
72916ION    NA+44532  22.770   8.941  11.682
72917ION    NA+44533  41.795  12.781   1.291
72918ION    NA+44534  34.257   1.408  13.688
72919ION    NA+44535  25.552   7.386  10.914
72920ION    NA+44536  41.010   1.469   1.697
72921ION    NA+44537  29.509  37.879   3.071
72922ION    NA+44538  13.311  27.755  13.115
72923ION    NA+44539  37.183  40.565   2.531
72924ION    NA+44540  18.297  35.449   3.228
72925ION    NA+44541  35.324  38.325   0.532
72926ION    NA+44542  12.111  44.688  13.092
72927ION    NA+44543  17.923  37.316  11.159
72928ION    NA+44544  28.552   7.194  14.326
72929ION    NA+44545  20.816   5.327  10.641
72930ION    NA+44546  36.235  14.415  13.700
72931ION    NA+44547  11.126  39.333   0.978
72932ION    NA+44548   5.121   0.931   0.215
72933ION    NA+44549  10.043  42.820  14.893
72934ION    NA+44550  37.491  28.153  14.362
72935ION    NA+44551  24.099  24.990  14.459
72936ION    NA+44552   3.367  24.435  11.068
72937ION    NA+44553  21.664  17.316   2.801
72938ION    NA+44554  41.337  40.991   3.966
72939ION    NA+44555  26.521  42.934  13.039
72940ION    NA+44556  16.674  36.177   1.773
72941ION    NA+44557  35.540   4.702   4.292
72942ION    NA+44558  32.557  33.887   0.110
72943ION    NA+44559  18.826  12.766  13.348
72944ION    NA+44560   0.358  38.811   0.341
72945ION    NA+44561  35.876  10.541   9.912
72946ION    NA+44562  12.343  13.998   1.871
72947ION    NA+44563   7.022  23.226   4.159
72948ION    NA+44564   4.607   0.228   0.302
72949ION    NA+44565  27.742   0.382  11.841
72950ION    NA+44566  37.468   8.669  11.707
72951ION    NA+44567  13.704   3.979  13.379
72952ION    NA+44568  22.423  39.327  14.596
72953ION    NA+44569   9.600  20.253  13.480
72954ION    NA+44570  12.142  10.289  13.964
72955ION    NA+44571  15.639   3.195   5.050
72956ION    NA+44572   5.072   8.347   3.706
72957ION    NA+44573  31.539   5.744   4.910
72958ION    NA+44574  22.436  21.203  12.408
72959ION    NA+44575  25.499  18.655   3.012
72960ION    NA+44576  28.051   3.173  13.341
72961ION    NA+44577  28.551  25.887   1.578
72962ION    NA+44578   6.606  21.437  12.398
72963ION    NA+44579  21.615  12.623   3.684
72964ION    NA+44580  33.525  43.162  11.407
72965ION    NA+44581  43.835  24.219  13.870
72966ION    NA+44582  18.887  28.240  14.837
72967ION    NA+44583   4.267  21.092  12.577
72968ION    NA+44584  38.509   8.472   4.058
72969ION    NA+44585  32.586  34.895   0.389
72970ION    NA+44586  25.626  25.411   0.778
72971ION    NA+44587  18.630  39.099   3.018
72972ION    NA+44588  40.934  23.656   1.594
72973ION    NA+44589  18.702  23.336   4.756
72974ION    NA+44590   6.784  34.266  14.481
72975ION    NA+44591  37.558  16.558   1.759
72976ION    NA+44592  39.794   6.424  10.937
72977ION    NA+44593   2.250  40.552   1.859
72978ION    NA+44594  19.594  19.805   2.321
72979ION    NA+44595  39.953  37.283  14.637
72980ION    NA+44596  41.536  23.579   3.648
72981ION    NA+44597  11.054  39.032  11.741
72982ION    NA+44598  37.202  19.622  10.848
72983ION    NA+44599   8.888  15.812  14.270
72984ION    NA+44600  31.380  14.389   3.237
72985ION    NA+44601  12.251   1.458   0.948
72986ION    NA+44602  26.210  35.854  12.477
72987ION    NA+44603   3.875  34.518   1.624
72988ION    NA+44604  19.631  10.430  13.771
72989ION    NA+44605  12.199  33.932  10.627
72990ION    NA+44606  30.072  18.801   2.674
72991ION    NA+44607  24.129  38.295   3.829
72992ION    NA+44608   6.740   6.661  13.515
72993ION    NA+44609  40.975  12.616  11.139
72994ION    NA+44610  33.153  24.767  10.605
72995ION    NA+44611  22.543  11.036  10.693
72996ION    NA+44612   1.677   3.070  12.419
72997ION    NA+44613   6.593  17.468   4.133
72998ION    NA+44614  42.219   0.280   0.022
72999ION    NA+44615  24.254  41.900  12.976
73000ION    NA+44616   2.697  43.129  10.679
73001ION    NA+44617  26.436   9.269  11.673
73002ION    NA+44618  19.785   7.351   0.249
73003ION    NA+44619  33.275   1.253  13.799
73004ION    NA+44620  14.340  24.668   3.304
73005ION    NA+44621  43.364  19.171   3.522
73006ION    NA+44622  20.000   0.635   3.963
73007ION    NA+44623  26.115  38.737  10.660
73008ION    NA+44624  22.872   3.959   1.658
73009ION    NA+44625  33.649  35.902   1.227
73010ION    NA+44626  16.440   5.212   0.827
73011ION    NA+44627  36.008  16.970  14.230
73012ION    NA+44628  30.839   6.880  13.339
73013ION    NA+44629  33.303  26.928  12.572
73014ION    NA+44630  32.413   7.970  11.920
73015ION    NA+44631  15.805  36.499  12.487
73016ION    NA+44632  34.935   1.894  14.299
73017ION    NA+44633  19.256  19.174   3.533
73018ION    NA+44634  18.466  31.713  12.159
73019ION    NA+44635  19.526  30.173   1.845
73020ION    NA+44636   1.699  28.688  13.988
73021ION    NA+44637  30.957  34.615  13.058
73022ION    NA+44638  39.447  15.613   0.930
73023ION    NA+44639   1.025  32.796   4.601
73024ION    NA+44640  24.383  36.381   4.577
73025ION    NA+44641   3.901  30.682   0.091
73026ION    NA+44642   2.003  34.845   3.569
73027ION    NA+44643   4.231  12.560  12.852
73028ION    NA+44644   1.666   0.519  14.558
73029ION    NA+44645  38.408  43.249   0.042
73030ION    NA+44646   9.313   0.768  13.781
73031ION    NA+44647  26.427  17.287  10.433
73032ION    NA+44648  39.884  35.172   5.080
73033ION    NA+44649  19.263  43.230   4.745
73034ION    NA+44650  37.203  10.411  12.686
73035ION    NA+44651  30.157  20.654   1.370
73036ION    NA+44652  16.972  43.142  12.421
73037ION    NA+44653  11.702  34.894  13.773
73038ION    NA+44654   2.112   7.888  12.355
73039ION    NA+44655  22.134  17.512   1.354
73040ION    NA+44656  13.578  11.171  14.987
73041ION    NA+44657   9.376  18.583  14.752
73042ION    NA+44658  18.769  29.167  14.480
73043ION    NA+44659  33.402  21.677  11.528
73044ION    NA+44660  18.168   4.135   4.081
73045ION    NA+44661  33.541  21.280  14.964
73046ION    NA+44662  26.963  28.922   0.202
73047ION    NA+44663  17.586  28.977   4.083
73048ION    NA+44664  39.910   3.133   0.077
73049ION    NA+44665  33.060  11.052  10.568
73050ION    NA+44666  31.794  41.217  11.772
73051ION    NA+44667  12.450  31.074   4.915
73052ION    NA+44668   0.884  34.620   2.705
73053ION    NA+44669   4.869   6.316   4.404
73054ION    NA+44670  26.121  33.922   0.330
73055ION    NA+44671  41.615  35.952  13.878
73056ION    NA+44672  25.519  16.702  12.188
73057ION    NA+44673  37.945   9.769  14.783
73058ION    NA+44674  29.068  28.835   1.933
73059ION    NA+44675  37.929  29.389  11.729
73060ION    NA+44676  12.042  43.648  14.944
73061ION    NA+44677  28.119  38.566  14.843
73062ION    NA+44678  25.958   4.426   0.872
73063ION    NA+44679  37.149   7.508  12.610
73064ION    NA+44680  16.594  41.790  14.433
73065ION    NA+44681   0.029   8.836   0.477
73066ION    NA+44682  35.645  44.730  13.888
73067ION    NA+44683  14.156   3.584   0.447
73068ION    NA+44684  30.469   2.221  10.932
73069ION    NA+44685  42.699  22.500  11.189
73070ION    NA+44686   4.518  20.236  11.993
73071ION    NA+44687  36.966   0.555  11.949
73072ION    NA+44688  28.398  27.152   2.103
73073ION    NA+44689  16.290  26.075  14.299
73074ION    NA+44690  33.263  33.152  11.289
73075ION    NA+44691   1.232  21.511  11.130
73076ION    NA+44692  22.559   4.816  11.665
73077ION    NA+44693  22.003  36.163   3.244
73078ION    NA+44694   3.849   1.962  12.666
73079ION    NA+44695  40.812  44.520  11.529
73080ION    NA+44696  38.804  29.191  11.020
73081ION    NA+44697  14.158   0.127   0.382
73082ION    NA+44698  18.621  36.290   3.424
73083ION    NA+44699  40.774  31.915  11.577
73084ION    NA+44700  14.473  10.318   2.427
73085ION    NA+44701  20.352  30.040  13.855
73086ION    NA+44702  26.026  21.325  12.364
73087ION    NA+44703  12.733  24.687   3.616
73088ION    NA+44704   9.846  21.056   1.674
73089ION    NA+44705  34.283   6.661  14.621
73090ION    NA+44706   6.673   9.127  11.201
73091ION    NA+44707  28.762   5.436   3.388
73092ION    NA+44708  16.528  19.612  11.155
73093ION    NA+44709   1.570   1.084   2.342
73094ION    NA+44710  14.756   4.048  12.336
73095ION    NA+44711   8.801   7.768   4.107
73096ION    NA+44712   9.933  31.433   3.033
73097ION    NA+44713  14.317  28.954  12.410
73098ION    NA+44714  10.403  16.535   0.629
73099ION    NA+44715  30.664  11.012   1.716
73100ION    NA+44716  14.090  30.707   0.050
73101ION    NA+44717  33.955  25.667   2.428
73102ION    NA+44718  15.982  39.506  13.721
73103ION    NA+44719  39.834  36.088  12.945
73104ION    NA+44720  25.636  31.046   3.113
73105ION    NA+44721  17.667  41.857  12.690
73106ION    NA+44722  36.807  12.903   4.627
73107ION    NA+44723   8.642  11.708   3.722
73108ION    NA+44724  36.021   9.931  12.614
73109ION    NA+44725  16.893   2.028   1.250
73110ION    NA+44726  39.255  27.689   2.340
73111ION    NA+44727  14.249  20.009  12.848
73112ION    NA+44728  33.758  23.254   1.691
73113ION    NA+44729  32.754  40.708   4.046
73114ION    NA+44730  18.057  30.862  12.488
73115ION    NA+44731  34.905  19.570   1.396
73116ION    NA+44732  43.792  15.826   1.984
73117ION    NA+44733  36.845  22.437  12.346
73118ION    NA+44734   0.407  15.443  14.657
73119ION    NA+44735   2.558  38.433   3.097
73120ION    NA+44736  26.839   3.046  12.550
73121ION    NA+44737  27.442  22.847   4.159
73122ION    NA+44738   2.985  31.600  12.646
73123ION    NA+44739  25.289   3.541  10.768
73124ION    NA+44740  10.443   5.961   1.095
73125ION    NA+44741  33.618  25.040   3.130
73126ION    NA+44742   2.987  32.679   3.560
73127ION    NA+44743  19.463  10.402   3.574
73128ION    NA+44744   1.311  23.420   3.222
73129ION    NA+44745  34.548   8.373   2.820
73130ION    NA+44746   6.849   5.059  12.112
73131ION    NA+44747  37.467   9.505  12.255
73132ION    NA+44748   8.345  29.941  11.597
73133ION    NA+44749  22.129  40.769  12.672
73134ION    NA+44750  19.599  35.184   0.625
73135ION    NA+44751  23.924  27.576  11.732
73136ION    NA+44752  35.128  19.822   0.094
73137ION    NA+44753  11.022  37.706  13.395
73138ION    NA+44754  16.986  41.545   4.795
73139ION    NA+44755  35.810  14.858   1.555
73140ION    NA+44756  12.095  23.801  13.324
73141ION    NA+44757  25.724  19.336   5.023
73142ION    NA+44758   5.192  23.710  14.035
73143ION    NA+44759  10.366  26.099   0.463
73144ION    NA+44760   0.303  27.803  12.910
73145ION    NA+44761  24.502  37.138  13.920
73146ION    NA+44762  30.564   6.766   2.246
73147ION    NA+44763  20.167  16.038   0.658
73148ION    NA+44764  34.989   5.940   4.249
73149ION    NA+44765   3.302   9.917   4.969
73150ION    NA+44766  40.168  41.991  11.719
73151ION    NA+44767  28.857  38.163   0.388
73152ION    NA+44768   2.203   2.189  10.682
73153ION    NA+44769  23.180  11.740  13.934
73154ION    NA+44770  38.073  12.580  12.973
73155ION    NA+44771  17.329  24.640  11.308
73156ION    NA+44772   5.752  39.098  11.539
73157ION    NA+44773   7.995  18.504  14.377
73158ION    NA+44774  14.993   6.030   4.177
73159ION    NA+44775  12.429  12.214  13.344
73160ION    NA+44776   2.073  34.313   4.190
73161ION    NA+44777   1.056  41.776   4.906
73162ION    NA+44778   4.480  37.064   1.083
73163ION    NA+44779  38.757   4.392  10.663
73164ION    NA+44780  34.808   0.678  11.677
73165ION    NA+44781   2.814  24.498   2.554
73166ION    NA+44782  31.072  19.284   2.149
73167ION    NA+44783   1.792   1.711   2.938
73168ION    NA+44784  39.008  33.467   0.971
73169ION    NA+44785  35.130  41.580  10.864
73170ION    NA+44786  13.918  40.916   2.419
73171ION    NA+44787   4.879  29.478  12.121
73172ION    NA+44788  10.026  34.438   3.454
73173ION    NA+44789  39.265  30.802  14.693
73174ION    NA+44790  23.431   4.340   0.868
73175ION    NA+44791   5.720  17.424  11.208
73176ION    NA+44792  32.885   8.464  14.823
73177ION    NA+44793  30.081  38.667   3.298
73178ION    NA+44794   7.616  19.169  12.925
73179ION    NA+44795   6.727  21.758  11.095
73180ION    NA+44796  32.545  14.197  12.025
73181ION    NA+44797   1.916  35.084   4.351
73182ION    NA+44798   3.494   8.739  11.072
73183ION    NA+44799  24.128  16.487   0.691
73184ION    NA+44800   6.401  21.725   1.475
73185ION    NA+44801  19.992  21.321   4.664
73186ION    NA+44802  16.574   6.149   0.505
73187ION    NA+44803  36.556  34.385  11.576
73188ION    NA+44804  17.578  44.972   0.483
73189ION    NA+44805   4.857  35.047   1.408
73190ION    NA+44806  40.369   6.705  12.436
73191ION    NA+44807  28.708   0.843   2.988
73192ION    NA+44808  40.518  41.355   3.314
73193ION    NA+44809  34.106  42.338   1.511
73194ION    NA+44810   2.818  14.624   3.353
73195ION    NA+44811  38.611  10.193   4.038
73196ION    NA+44812  13.125  13.625  10.575
73197ION    NA+44813  29.314  20.932  13.386
73198ION    NA+44814  12.004  37.782   2.339
73199ION    NA+44815  38.745   1.780   9.815
73200ION    NA+44816  33.984   1.597  11.079
73201ION    NA+44817   2.527  16.165   1.753
73202ION    NA+44818  21.685  12.216   1.195
73203ION    NA+44819  25.849   1.773  14.786
73204ION    NA+44820  42.369  20.747  11.950
73205ION    NA+44821  42.978  42.725  12.392
73206ION    NA+44822  10.645  25.238   0.889
73207ION    NA+44823   6.191  25.567   4.413
73208ION    NA+44824  20.196  26.237  14.863
73209ION    NA+44825  41.101  39.482   5.012
73210ION    NA+44826  14.753  42.949   2.441
73211ION    NA+44827  11.042  29.297  11.270
73212ION    NA+44828  15.674  32.491   0.630
73213ION    NA+44829   8.698   3.566   3.060
73214ION    NA+44830   4.438  21.829  10.858
73215ION    NA+44831   6.987   4.985   3.060
73216ION    NA+44832  27.413  44.133  13.304
73217ION    NA+44833   0.572  12.968  13.807
73218ION    NA+44834  34.450  44.740  14.502
73219ION    NA+44835  30.908   9.900   4.191
73220ION    NA+44836  13.376  19.450   1.891
73221ION    NA+44837  28.899  12.424   2.185
73222ION    NA+44838  37.694  20.601  13.738
73223ION    NA+44839  31.135  32.900  12.360
73224ION    NA+44840   9.371  11.115  14.961
73225ION    NA+44841  20.525  13.912   1.290
73226ION    NA+44842  34.094  25.657  12.479
73227ION    NA+44843  33.253  39.225  13.239
73228ION    NA+44844  24.269  11.091  12.456
73229ION    NA+44845  31.819  24.263  14.563
73230ION    NA+44846  41.836   3.028  13.826
73231ION    NA+44847  34.552  40.748   0.223
73232ION    NA+44848  19.814  33.628  13.871
73233ION    NA+44849  11.561  23.357  14.051
73234ION    NA+44850  35.883  32.723  14.463
73235ION    NA+44851  44.543  29.531  12.800
73236ION    NA+44852  19.086  12.329   3.044
73237ION    NA+44853  38.847  19.351  12.833
73238ION    NA+44854  35.760  15.012  14.347
73239ION    NA+44855  32.071  18.499   0.703
73240ION    NA+44856  12.918  26.045   4.012
73241ION    NA+44857  24.712  30.868  11.261
73242ION    NA+44858  36.586  24.733  13.376
73243ION    NA+44859  16.759  33.397  12.808
73244ION    NA+44860   1.498   3.838   2.358
73245ION    NA+44861   8.275  26.996  10.730
73246ION    NA+44862  24.888  10.571   4.800
73247ION    NA+44863  30.813  24.876  14.565
73248ION    NA+44864   9.033   1.960  11.222
73249ION    NA+44865  34.090  16.353  12.880
73250ION    NA+44866  14.302  40.731  13.591
73251ION    NA+44867  22.867  29.564  13.074
73252ION    NA+44868  44.952  37.328  11.898
73253ION    NA+44869  40.196  44.076   3.806
73254ION    NA+44870  20.037   7.421  12.464
73255ION    NA+44871  37.367  32.043  13.025
73256ION    NA+44872  17.836   5.254   1.496
73257ION    NA+44873  23.707  12.806  12.809
73258ION    NA+44874   0.682  22.629   0.805
73259ION    NA+44875  21.162  35.194   2.799
73260ION    NA+44876  29.374  21.780  13.059
73261ION    NA+44877  10.753  21.272  11.663
73262ION    NA+44878  27.266  18.465   3.583
73263ION    NA+44879  14.834   3.385  14.561
73264ION    NA+44880   4.898  42.991   4.141
73265ION    NA+44881  32.123   2.868   4.195
73266ION    NA+44882   1.348  36.963  10.995
73267ION    NA+44883  18.541  40.528   2.739
73268ION    NA+44884  31.141  38.868  14.982
73269ION    NA+44885  25.543  20.090  12.594
73270ION    NA+44886  18.693  31.222   1.629
73271ION    NA+44887  33.419  22.385  13.980
73272ION    NA+44888   3.183  12.793   2.817
73273ION    NA+44889  21.129  14.678   2.327
73274ION    NA+44890  44.410  28.625   5.185
73275ION    NA+44891  30.853  15.171  10.532
73276ION    NA+44892  20.104  43.530   0.937
73277ION    NA+44893  39.897   1.897   3.771
73278ION    NA+44894  40.654  37.751   1.824
73279ION    NA+44895  39.075  39.937  12.484
73280ION    NA+44896  28.087   0.099  12.502
73281ION    NA+44897  34.349  10.378  14.871
73282ION    NA+44898  28.714  17.766  13.383
73283ION    NA+44899  44.608  43.250   5.128
73284ION    NA+44900  23.060  40.018   2.792
73285ION    NA+44901  14.804   9.952   3.729
73286ION    NA+44902  14.175  26.107  10.768
73287ION    NA+44903  33.515  42.531   4.237
73288ION    NA+44904  42.265  38.225   1.518
73289ION    NA+44905   1.857   3.890  11.745
73290ION    NA+44906  27.720  30.087   1.513
73291ION    NA+44907   2.849  43.115   0.439
73292ION    NA+44908  24.148  33.947  13.393
73293ION    NA+44909  10.365  39.331   2.102
73294ION    NA+44910  32.960  40.112  14.890
73295ION    NA+44911  21.573   6.819   1.159
73296ION    NA+44912  32.839  32.171   2.748
73297ION    NA+44913   8.871  23.724  13.808
73298ION    NA+44914  19.708  41.556  13.097
73299ION    NA+44915  26.605  41.242  11.084
73300ION    NA+44916  44.931  16.386  14.539
73301ION    NA+44917  28.949  33.767  12.069
73302ION    NA+44918   4.906  14.568  14.983
73303ION    NA+44919  23.086  33.010   3.601
73304ION    NA+44920  25.470  19.386   3.694
73305ION    NA+44921  41.860  16.151  12.876
73306ION    NA+44922  36.382  27.244  11.590
73307ION    NA+44923  40.154  18.162   1.953
73308ION    NA+44924  26.180   5.770  13.496
73309ION    NA+44925  20.530  43.326  12.035
73310ION    NA+44926   5.185  14.846  13.216
73311ION    NA+44927  11.367  10.654   2.238
73312ION    NA+44928  37.647  11.765  13.956
73313ION    NA+44929  27.682  26.226   0.258
73314ION    NA+44930   1.496  27.954   3.249
73315ION    NA+44931  40.458  15.890   1.727
73316ION    NA+44932  31.588  14.446   4.364
73317ION    NA+44933  21.824  16.679   0.845
73318ION    NA+44934  17.138  11.560   4.052
73319ION    NA+44935  16.478   5.783   2.840
73320ION    NA+44936  29.951  37.948  11.898
73321ION    NA+44937  12.433  27.825  12.641
73322ION    NA+44938  41.731  31.077   2.964
73323ION    NA+44939  21.232  25.626  13.541
73324ION    NA+44940  17.768  44.592   3.178
73325ION    NA+44941  23.213   1.242   3.787
73326ION    NA+44942  20.860  42.594   0.355
73327ION    NA+44943  17.093  16.701   1.822
73328ION    NA+44944   5.805   3.132  10.397
73329ION    NA+44945  31.690  29.126  10.505
73330ION    NA+44946   3.532  31.701  11.180
73331ION    NA+44947  10.409  41.261   0.936
73332ION    NA+44948   3.333  17.184   1.798
73333ION    NA+44949  33.786  36.195   2.199
73334ION    NA+44950  14.581   7.793   2.341
73335ION    NA+44951  20.555  36.723  12.901
73336ION    NA+44952   1.640   4.488  10.973
73337ION    NA+44953  42.166  24.871   1.548
73338ION    NA+44954  27.822   9.980  13.222
73339ION    NA+44955  10.104  29.888   2.733
73340ION    NA+44956  32.667   1.656   2.907
73341ION    NA+44957  31.782  40.244  13.014
73342ION    NA+44958   9.526   4.140   0.396
73343ION    NA+44959  37.894   2.400   3.875
73344ION    NA+44960  43.289  20.821   1.960
73345ION    NA+44961  16.835  20.332  14.359
73346ION    NA+44962  13.219  34.109   4.093
73347ION    NA+44963  33.247   0.237   3.352
73348ION    NA+44964   6.807   7.812   1.183
73349ION    NA+44965  17.363  35.523  13.016
73350ION    NA+44966  20.786  16.644  13.544
73351ION    NA+44967  31.839  36.307   0.897
73352ION    NA+44968  41.455  13.301   0.341
73353ION    NA+44969   7.676  33.250  13.376
73354ION    NA+44970   1.936  33.468   2.892
73355ION    NA+44971   1.454  24.318  11.426
73356ION    NA+44972   0.756  39.717   4.912
73357ION    NA+44973  33.141  39.579   3.681
73358ION    NA+44974  44.919   6.157   4.542
73359ION    NA+44975   1.098  28.009  13.270
73360ION    NA+44976  39.060  19.649   0.856
73361ION    NA+44977  38.440  20.961   0.755
73362ION    NA+44978  22.960  35.795  10.709
73363ION    NA+44979   9.644  43.750   2.935
73364ION    NA+44980  31.994   8.857   1.760
73365ION    NA+44981  15.010  12.140   1.311
73366ION    NA+44982  19.184  29.964  11.598
73367ION    NA+44983  37.006  30.188   4.545
73368ION    NA+44984   3.904   2.955   0.060
73369ION    NA+44985  25.267  31.187  12.054
73370ION    NA+44986  20.741  23.502   4.087
73371ION    NA+44987  36.722  44.486   4.373
73372ION    NA+44988   8.901  36.053  12.613
73373ION    NA+44989  27.032   8.867   2.635
73374ION    NA+44990  14.584  11.387   1.040
73375ION    NA+44991  41.053  30.694   4.160
73376ION    NA+44992   0.025   1.353   1.904
73377ION    NA+44993  41.348  30.118   1.402
73378ION    NA+44994  38.519  42.187   3.654
73379ION    NA+44995  33.803   0.620  10.963
73380ION    NA+44996  18.953  21.298  12.040
73381ION    NA+44997  41.858  42.400  12.382
73382ION    NA+44998   8.245  12.238   0.941
73383ION    NA+44999  39.976  15.531  12.938
73384ION    NA+45000  44.357   1.873  10.694
73385ION    NA+45001  10.644  13.649   2.415
73386ION    NA+45002  10.355  37.593   2.292
73387ION    NA+45003  41.658  17.371   9.839
73388ION    NA+45004   6.925  24.666   4.369
73389ION    NA+45005  35.683   1.163   3.485
73390ION    NA+45006   8.248  15.576   2.460
73391ION    NA+45007  28.436  35.807  13.245
73392ION    NA+45008   7.933  28.685  11.385
73393ION    NA+45009  36.650  18.705   5.390
73394ION    NA+45010  31.570  20.430   1.975
73395ION    NA+45011  25.982  24.932  10.773
73396ION    NA+45012  27.874  27.992   4.309
73397ION    NA+45013  41.250  34.910   0.507
73398ION    NA+45014  31.421  42.294   4.091
73399ION    NA+45015   4.429  25.114   3.321
73400ION    NA+45016  21.375  36.924  13.592
73401ION    NA+45017   1.300   1.751  11.622
73402ION    NA+45018  42.400  42.379   2.637
73403ION    NA+45019  15.457   1.386  11.069
73404ION    NA+45020  31.840  29.524  12.992
73405ION    NA+45021   9.733   9.036   0.268
73406ION    NA+45022  16.796  16.613  13.890
73407ION    NA+45023  32.350  15.602   4.050
73408ION    NA+45024  37.657  44.321   2.876
73409ION    NA+45025  31.139  40.421   2.158
73410ION    NA+45026  30.484  17.241  13.355
73411ION    NA+45027  25.071  41.478   2.034
73412ION    NA+45028  17.334  13.097   3.278
73413ION    NA+45029   8.348  33.723   1.868
73414ION    NA+45030   9.773  27.987   0.812
73415ION    NA+45031  43.658  24.957  11.495
73416ION    NA+45032  22.987  21.491  13.454
73417ION    NA+45033  28.124  23.386  13.595
73418ION    NA+45034  22.585  26.234   4.801
73419ION    NA+45035  35.347  29.479   3.213
73420ION    NA+45036  34.400  44.037   2.726
73421ION    NA+45037   8.768  16.496  13.550
73422ION    NA+45038  40.920  25.925  13.129
73423ION    NA+45039  30.323  42.461   0.467
73424ION    NA+45040  15.675  17.717  13.503
73425ION    NA+45041  25.357   4.459  14.912
73426ION    NA+45042   3.443  37.798   0.444
73427ION    NA+45043  33.122   8.847  11.119
73428ION    NA+45044  32.878  19.540   4.238
73429ION    NA+45045   5.338   9.547  13.735
73430ION    NA+45046  19.038  32.482   2.827
73431ION    NA+45047  22.459   5.466   1.891
73432ION    NA+45048   5.737  10.964   4.500
73433ION    NA+45049   0.200  38.685  11.865
73434ION    NA+45050  44.237  35.286  10.838
73435ION    NA+45051  37.406  18.295  11.135
73436ION    NA+45052   6.825  15.490  12.792
73437ION    NA+45053  14.056   4.478   0.665
73438ION    NA+45054  28.402  36.131   1.702
73439ION    NA+45055  27.315   0.427  12.548
73440ION    NA+45056  19.498  44.069  13.747
73441ION    NA+45057  30.010  16.807   3.797
73442ION    NA+45058  35.059   4.683  12.972
73443ION    NA+45059  42.208  10.653   5.031
73444ION    NA+45060  43.731  43.820  13.308
73445ION    NA+45061  11.799  18.354  13.598
73446ION    NA+45062  18.327  41.901   3.532
73447ION    NA+45063  43.851  21.909  12.324
73448ION    NA+45064   7.007  36.033  13.941
73449ION    NA+45065  14.716  38.589   0.952
73450ION    NA+45066  38.952  17.268   1.949
73451ION    NA+45067  35.039  20.034   2.290
73452ION    NA+45068  31.049   3.671   2.887
73453ION    NA+45069  34.442  26.526   5.263
73454ION    NA+45070  41.934   3.219  12.442
73455ION    NA+45071  14.120  26.608   0.004
73456ION    NA+45072  36.760  18.744   2.195
73457ION    NA+45073   1.060  39.969  12.227
73458ION    NA+45074   9.736  40.015   1.732
73459ION    NA+45075  26.550   7.164   1.816
73460ION    NA+45076  36.907  23.535  14.795
73461ION    NA+45077  17.115  28.171   2.846
73462ION    NA+45078  19.139  11.221  10.650
73463ION    NA+45079  37.714   3.465  11.825
73464ION    NA+45080  12.725   9.559   1.454
73465ION    NA+45081  10.316  23.247   2.014
73466ION    NA+45082  17.649  26.614  10.656
73467ION    NA+45083  22.291   9.152   0.163
73468ION    NA+45084  16.030  20.326  11.216
73469ION    NA+45085  11.934  29.721  11.110
73470ION    NA+45086  23.636  36.575  10.699
73471ION    NA+45087  33.912  43.910  12.000
73472ION    NA+45088  39.242  38.462  11.882
73473ION    NA+45089  43.765  40.011   0.096
73474ION    NA+45090  30.423   2.730   1.272
73475ION    NA+45091  12.768  31.809   4.010
73476ION    NA+45092  31.123  31.578  13.596
73477ION    NA+45093  25.038  22.585   4.974
73478ION    NA+45094   9.141  41.630  12.015
73479ION    NA+45095  29.077  37.123  11.870
73480ION    NA+45096  35.971  44.449  14.791
73481ION    NA+45097  39.270  40.926   4.150
73482ION    NA+45098  39.846   0.820   4.200
73483ION    NA+45099  44.796  35.453   1.307
73484ION    NA+45100  11.613  15.122   2.495
73485ION    NA+45101   6.491  18.169   1.813
73486ION    NA+45102   9.885  44.960  13.919
73487ION    NA+45103  18.664   7.533  12.522
73488ION    NA+45104  43.134  29.444  11.560
73489ION    NA+45105  17.212   0.183  13.768
73490ION    NA+45106  35.461  43.629  12.983
73491ION    NA+45107  10.266  40.825  14.113
73492ION    NA+45108  13.195   2.647   2.270
73493ION    NA+45109  38.113  13.984  10.972
73494ION    NA+45110  29.187  26.874   4.600
73495ION    NA+45111  22.663  44.892   4.980
73496ION    NA+45112  13.816  23.582   0.483
73497ION    NA+45113   8.891   4.186   3.696
73498ION    NA+45114  13.973  26.054   2.523
73499ION    NA+45115  15.926  22.892   1.625
73500ION    NA+45116  11.985   3.918  11.124
73501ION    NA+45117  25.417   0.324  13.528
73502ION    NA+45118  41.309  16.471  14.421
73503ION    NA+45119  24.159  24.248   1.656
73504ION    NA+45120  26.695  11.850   3.209
73505ION    NA+45121  32.765  36.667   0.786
73506ION    NA+45122  38.894  24.455  10.672
73507ION    NA+45123   6.169  25.525  10.692
73508ION    NA+45124  43.292  31.974   4.482
73509ION    NA+45125   3.716  31.615  14.781
73510ION    NA+45126  21.191  36.184   2.661
73511ION    NA+45127  39.549   0.488  13.740
73512ION    NA+45128   1.716  16.151  11.168
73513ION    NA+45129  32.214  15.957  11.536
73514ION    NA+45130  37.090  25.219   2.925
73515ION    NA+45131  35.196  28.060  10.998
73516ION    NA+45132  29.114   9.060  14.458
73517ION    NA+45133  26.567  31.852   4.821
73518ION    NA+45134  37.664  42.284  14.621
73519ION    NA+45135  22.522  14.896  14.804
73520ION    NA+45136  23.797   1.896   1.400
73521ION    NA+45137  29.947   8.432  11.051
73522ION    NA+45138  30.424  35.893  12.079
73523ION    NA+45139  19.687  26.295   2.662
73524ION    NA+45140  37.389  18.984  11.895
73525ION    NA+45141  27.897  42.171  13.787
73526ION    NA+45142  38.360  35.103  11.602
73527ION    NA+45143   7.721  41.276   3.425
73528ION    NA+45144  13.360  35.432   3.603
73529ION    NA+45145   2.985  33.711  12.241
73530ION    NA+45146  10.675   3.332  11.375
73531ION    NA+45147  33.332   4.056   0.297
73532ION    NA+45148   3.484  25.967  14.762
73533ION    NA+45149   4.381   9.096  13.496
73534ION    NA+45150  30.126  28.193  10.659
73535ION    NA+45151  18.926  41.076  10.376
73536ION    NA+45152   8.581  32.919   5.076
73537ION    NA+45153  27.209  30.943  10.770
73538ION    NA+45154  31.685  13.073  12.821
73539ION    NA+45155  35.897  44.372   4.089
73540ION    NA+45156   1.548   0.857   1.237
73541ION    NA+45157  39.495  20.542  14.128
73542ION    NA+45158  36.183  41.760   3.073
73543ION    NA+45159  32.265  23.966   0.871
73544ION    NA+45160  10.452  21.968   2.841
73545ION    NA+45161  38.587  11.677   3.319
73546ION    NA+45162   9.817   0.547  13.113
73547ION    NA+45163   5.444  24.352   4.689
73548ION    NA+45164  15.054  15.954  10.432
73549ION    NA+45165  22.995  20.725   0.058
73550ION    NA+45166  38.628   8.923  14.103
73551ION    NA+45167  31.059   5.927  12.535
73552ION    NA+45168  25.269  41.767  12.848
73553ION    NA+45169   5.762  32.709   0.825
73554ION    NA+45170   3.510   6.635  12.612
73555ION    NA+45171   9.825  19.939   0.316
73556ION    NA+45172  39.105  13.402  12.541
73557ION    NA+45173  43.289  25.956   3.329
73558ION    NA+45174  39.773  32.092   1.654
73559ION    NA+45175  24.636  25.439   2.930
73560ION    NA+45176  12.933   5.724  12.430
73561ION    NA+45177  37.415  35.189   4.527
73562ION    NA+45178   2.373   4.433   1.388
73563ION    NA+45179   7.462  36.367   2.514
73564ION    NA+45180  42.125   4.931   4.834
73565ION    NA+45181   9.216  27.300  12.559
73566ION    NA+45182  11.360   9.593  13.763
73567ION    NA+45183  13.154  13.105   3.506
73568ION    NA+45184  42.855  21.006  10.723
73569ION    NA+45185  21.800   3.880   3.776
73570ION    NA+45186  44.104   7.904  14.882
73571ION    NA+45187  16.335  16.410   0.573
73572ION    NA+45188   7.147  37.363   0.944
73573ION    NA+45189  25.863  42.524  12.574
73574ION    NA+45190  36.610   3.191  14.549
73575ION    NA+45191  30.433  26.721  12.975
73576ION    NA+45192  40.417  23.586  11.545
73577ION    NA+45193  17.739  22.666  12.899
73578ION    NA+45194  16.447   1.809  11.962
73579ION    NA+45195   0.119  30.942   1.213
73580ION    NA+45196   5.275   5.124   9.823
73581ION    NA+45197  10.775  35.835   2.522
73582ION    NA+45198  27.679  28.385   0.173
73583ION    NA+45199  16.930  15.099   4.858
73584ION    NA+45200  39.416  26.759   3.304
73585ION    NA+45201  17.038  16.448   5.443
73586ION    NA+45202  30.905  22.111  12.779
73587ION    NA+45203  23.655  13.591   1.636
73588ION    NA+45204  35.443   7.929  11.104
73589ION    NA+45205  23.287  11.265  12.385
73590ION    NA+45206  29.870  23.750   3.288
73591ION    NA+45207  36.405   3.388   3.936
73592ION    NA+45208  39.610  13.337   3.318
73593ION    NA+45209   7.233  25.913  13.811
73594ION    NA+45210  44.445  17.377   4.595
73595ION    NA+45211  29.694  40.838   0.523
73596ION    NA+45212   8.690  19.682  12.087
73597ION    NA+45213  34.897   2.500  11.587
73598ION    NA+45214   2.908  44.017   0.487
73599ION    NA+45215  33.212  16.610  14.889
73600ION    NA+45216  40.565  26.542  13.883
73601ION    NA+45217  22.880   4.839  14.287
73602ION    NA+45218   2.308   0.278  12.579
73603ION    NA+45219   7.029  12.753  12.849
73604ION    NA+45220  32.150  11.952  12.739
73605ION    NA+45221  13.506   0.591   1.945
73606ION    NA+45222   9.701   5.781  13.476
73607ION    NA+45223  24.429  34.551  12.142
73608ION    NA+45224  14.357  39.321  14.170
73609ION    NA+45225  33.121  11.105   0.798
73610ION    NA+45226  14.532  13.360   1.476
73611ION    NA+45227  40.502  37.892   4.203
73612ION    NA+45228  31.430  25.922  13.294
73613ION    NA+45229  14.364  16.720  14.026
73614ION    NA+45230  19.420  39.188   2.603
73615ION    NA+45231  40.910  25.250   3.010
73616ION    NA+45232  11.145  31.528   4.122
73617ION    NA+45233  44.635  39.838  14.635
73618ION    NA+45234   9.578  10.336  11.515
73619ION    NA+45235  40.831   1.269  11.829
73620ION    NA+45236   0.021   2.767   4.326
73621ION    NA+45237  21.146  18.118   4.197
73622ION    NA+45238  15.266  15.739   2.321
73623ION    NA+45239  33.134  30.157  14.152
73624ION    NA+45240  22.186  18.249   0.607
73625ION    NA+45241  31.969  35.935   4.575
73626ION    NA+45242   8.047   8.854  11.050
73627ION    NA+45243  29.698  35.610   0.541
73628ION    NA+45244  10.127   4.537  14.363
73629ION    NA+45245  34.123   9.138   4.110
73630ION    NA+45246  15.904  35.068   1.390
73631ION    NA+45247  29.152  12.047  12.117
73632ION    NA+45248   9.153  39.448   2.149
73633ION    NA+45249  30.189  30.868  12.280
73634ION    NA+45250  22.370   0.386   0.604
73635ION    NA+45251  34.625  17.833  12.328
73636ION    NA+45252  12.868  34.666  10.868
73637ION    NA+45253  12.420  18.910   4.731
73638ION    NA+45254  16.684  28.050  13.300
73639ION    NA+45255  26.963   2.188   3.284
73640ION    NA+45256  21.715  33.530   9.672
73641ION    NA+45257  10.552  30.477   3.281
73642ION    NA+45258  26.945  22.200   1.277
73643ION    NA+45259  40.500  11.559   2.149
73644ION    NA+45260  34.714  29.008  13.355
73645ION    NA+45261  24.412   1.977   0.615
73646ION    NA+45262  15.344  10.275   0.379
73647ION    NA+45263  18.705  14.458   4.520
73648ION    NA+45264   3.427   6.251   4.140
73649ION    NA+45265  28.971   6.104   2.452
73650ION    NA+45266  27.321   2.613  13.312
73651ION    NA+45267   7.148   2.708  13.223
73652ION    NA+45268  42.866   9.422  12.429
73653ION    NA+45269  35.641   1.665   4.405
73654ION    NA+45270  29.829  11.479  10.671
73655ION    NA+45271  41.676  31.147  14.624
73656ION    NA+45272   2.454  25.695   2.423
73657ION    NA+45273  33.016  27.563  14.541
73658ION    NA+45274  23.569  11.611   0.435
73659ION    NA+45275  27.447  33.254  10.272
73660ION    NA+45276  39.097  17.955   4.224
73661ION    NA+45277  41.287  24.919   2.064
73662ION    NA+45278  12.088  36.542  13.028
73663ION    NA+45279  13.598  29.359  11.587
73664ION    NA+45280  27.170  36.987  14.803
73665ION    NA+45281  30.919   4.682  12.923
73666ION    NA+45282  19.952  21.230  11.224
73667ION    NA+45283  21.788  14.730   4.762
73668ION    NA+45284  38.914  14.633  13.160
73669ION    NA+45285  14.049   1.554  14.896
73670ION    NA+45286  33.977  28.415   1.650
73671ION    NA+45287  29.452  12.965   1.551
73672ION    NA+45288  13.726   9.526  10.911
73673ION    NA+45289   1.721  27.492  11.118
73674ION    NA+45290  43.712  36.000  12.013
73675ION    NA+45291  13.555   3.642  10.426
73676ION    NA+45292  14.795  12.740  13.610
73677ION    NA+45293   6.403  28.099   4.263
73678ION    NA+45294   6.211  43.056  10.994
73679ION    NA+45295   7.584  31.157  14.995
73680ION    NA+45296  12.947   3.868   2.798
73681ION    NA+45297   3.824  30.505  13.752
73682ION    NA+45298   0.717  25.490   2.959
73683ION    NA+45299  28.492  44.796   4.682
73684ION    NA+45300   5.992   1.009  14.730
73685ION    NA+45301  37.934  42.664   3.750
73686ION    NA+45302  26.436  42.639  14.911
73687ION    NA+45303  22.102   9.544  12.872
73688ION    NA+45304  43.679  11.959  14.290
73689ION    NA+45305  41.488  26.386  11.440
73690ION    NA+45306  42.259  43.700  12.098
73691ION    NA+45307  18.821  17.977  11.700
73692ION    NA+45308  10.364  10.168   1.273
73693ION    NA+45309  37.486  32.295  14.795
73694ION    NA+45310  20.767  26.270   1.225
73695ION    NA+45311  17.316  23.800  11.667
73696ION    NA+45312  16.304  30.811   1.612
73697ION    NA+45313  10.126   4.421   3.772
73698ION    NA+45314  33.357  31.971  12.967
73699ION    NA+45315  42.252  31.862  10.699
73700ION    NA+45316   2.950   3.833   2.382
73701ION    NA+45317  22.104  12.236   2.512
73702ION    NA+45318  16.852  23.955   1.146
73703ION    NA+45319  33.895   0.747   0.937
73704ION    NA+45320  15.634  36.883   1.605
73705ION    NA+45321  31.946  26.984  12.979
73706ION    NA+45322  40.760  14.288   1.228
73707ION    NA+45323  20.664  23.107  12.115
73708ION    NA+45324  41.447  42.866  10.898
73709ION    NA+45325  26.803  16.149  13.980
73710ION    NA+45326   3.814  32.850   3.812
73711ION    NA+45327  33.265  14.404  10.847
73712ION    NA+45328   3.620  42.996   5.218
73713ION    NA+45329  24.291  31.371  12.167
73714ION    NA+45330  29.119   2.436  13.149
73715ION    NA+45331  27.960   2.872   0.675
73716ION    NA+45332   8.407  44.462   2.450
73717ION    NA+45333  22.439   6.780   0.362
73718ION    NA+45334  43.037   2.028   2.223
73719ION    NA+45335  10.182  27.446  14.934
73720ION    NA+45336  32.674  29.668  10.738
73721ION    NA+45337   2.207  19.200   0.821
73722ION    NA+45338  36.921  40.314  10.684
73723ION    NA+45339   8.100  38.816  11.257
73724ION    NA+45340  23.701   9.700  11.375
73725ION    NA+45341  40.991  28.536  12.117
73726ION    NA+45342  17.498  43.171   4.751
73727ION    NA+45343   5.276   0.863   2.364
73728ION    NA+45344  30.169  41.290   1.719
73729ION    NA+45345  10.959  26.668  11.109
73730ION    NA+45346  25.659   0.289  10.622
73731ION    NA+45347   7.613  42.447   0.595
73732ION    NA+45348  29.413  12.963   0.164
73733ION    NA+45349  40.367   3.266   5.366
73734ION    NA+45350  27.187  12.842   3.725
73735ION    NA+45351  11.954  19.358  12.527
73736ION    NA+45352  21.818  11.099   1.905
73737ION    NA+45353  41.834   3.016  10.530
73738ION    NA+45354  16.998  39.493   4.183
73739ION    NA+45355  41.989  34.422   4.828
73740ION    NA+45356  39.594   9.356   5.013
73741ION    NA+45357  38.562  12.855  11.740
73742ION    NA+45358  27.085  24.039   3.197
73743ION    NA+45359  34.237   6.993   1.022
73744ION    NA+45360  18.286   7.917   2.862
73745ION    NA+45361  36.903   3.126   2.422
73746ION    NA+45362  33.475  20.967   1.506
73747ION    NA+45363  10.128  28.740   9.460
73748ION    NA+45364  14.305  26.031  14.341
73749ION    NA+45365  33.533  11.946  14.893
73750ION    NA+45366  34.433  39.665   0.830
73751ION    NA+45367  40.784   7.139   3.873
73752ION    NA+45368   3.709  10.295  13.773
73753ION    NA+45369  28.556  26.020  13.021
73754ION    NA+45370   8.216  11.239  11.575
73755ION    NA+45371  33.304  29.480   5.379
73756ION    NA+45372  12.246   0.837   3.238
73757ION    NA+45373   1.038  16.299   0.028
73758ION    NA+45374  22.984  21.411   3.328
73759ION    NA+45375   5.434  42.180   1.105
73760ION    NA+45376  37.118  19.014  13.713
73761ION    NA+45377  38.744  37.960   1.752
73762ION    NA+45378  13.898  22.422   3.355
73763ION    NA+45379  35.393  24.476   4.665
73764ION    NA+45380  25.104   8.508  12.353
73765ION    NA+45381  40.394  20.439  12.045
73766ION    NA+45382  34.482  43.218   5.158
73767ION    NA+45383  38.698   7.203   1.902
73768ION    NA+45384  31.720  30.642  14.475
73769ION    NA+45385  41.843  26.904   1.792
73770ION    NA+45386  36.145  33.569  12.978
73771ION    NA+45387  13.674   1.265   3.279
73772ION    NA+45388  26.092  16.317   2.713
73773ION    NA+45389  16.688   7.106   2.806
73774ION    NA+45390  27.478  18.569  12.476
73775ION    NA+45391  20.610  37.327   3.235
73776ION    NA+45392   0.885  20.459  11.539
73777ION    NA+45393  31.569  21.813   4.628
73778ION    NA+45394  34.192  39.402  13.533
73779ION    NA+45395   6.669  42.072  14.858
73780ION    NA+45396  19.123   0.200  11.969
73781ION    NA+45397  35.095  43.039   2.146
73782ION    NA+45398  12.595   9.450   3.582
73783ION    NA+45399  40.577  28.925   2.551
73784ION    NA+45400  28.271  19.987  14.030
73785ION    NA+45401  44.774  33.510  10.711
73786ION    NA+45402   5.827  39.253   1.727
73787ION    NA+45403  27.986  32.308  14.806
73788ION    NA+45404  39.707  32.840  11.291
73789ION    NA+45405   3.002  14.451  14.583
73790ION    NA+45406  12.761  26.880  12.636
73791ION    NA+45407  28.176  14.156   2.749
73792ION    NA+45408  21.718  13.554   2.170
73793ION    NA+45409  26.667  41.569   4.643
73794ION    NA+45410  28.260  42.516   2.862
73795ION    NA+45411  40.539  11.266  14.918
73796ION    NA+45412  18.779  18.828  12.636
73797ION    NA+45413  25.512   1.541  11.003
73798ION    NA+45414  15.918   0.188   4.599
73799ION    NA+45415  20.089  42.807   2.450
73800ION    NA+45416  11.728  40.284  11.825
73801ION    NA+45417  23.246  24.267   4.066
73802ION    NA+45418  10.044  41.348   4.222
73803ION    NA+45419  27.452  42.115   3.345
73804ION    NA+45420  10.633  15.039  12.916
73805ION    NA+45421   1.250   6.607   2.880
73806ION    NA+45422  32.705  17.293   0.058
73807ION    NA+45423   1.945   3.651   0.887
73808ION    NA+45424  19.028  33.556  14.572
73809ION    NA+45425  20.374   3.596  11.001
73810ION    NA+45426  31.916  23.160  13.489
73811ION    NA+45427   0.294  23.074   3.225
73812ION    NA+45428  23.521  38.647   1.811
73813ION    NA+45429  12.204   2.321  13.489
73814ION    NA+45430  39.093  11.926  12.110
73815ION    NA+45431  18.750  31.357  11.268
73816ION    NA+45432  15.407  42.952   3.065
73817ION    NA+45433  18.010  28.491  14.427
73818ION    NA+45434  26.741  14.738   4.052
73819ION    NA+45435  40.514  10.993  13.354
73820ION    NA+45436  20.272  40.448   0.463
73821ION    NA+45437  27.680  29.463  12.016
73822ION    NA+45438  15.193   2.492   4.497
73823ION    NA+45439   9.638  29.252  11.141
73824ION    NA+45440  20.780  30.941  13.128
73825ION    NA+45441  28.390  33.001   0.226
73826ION    NA+45442  15.870   6.837   3.737
73827ION    NA+45443  17.365   5.559   0.668
73828ION    NA+45444  25.078  31.514   0.983
73829ION    NA+45445  30.556  26.732  11.495
73830ION    NA+45446  24.753  44.870   4.140
73831ION    NA+45447   7.257  42.882   2.086
73832ION    NA+45448  38.324  37.942   4.103
73833ION    NA+45449  25.936  35.812   4.284
73834ION    NA+45450  32.006  44.050   0.254
73835ION    NA+45451  32.406   2.981   2.663
73836ION    NA+45452  19.640  12.652  14.839
73837ION    NA+45453  29.809  13.781   1.736
73838ION    NA+45454  10.189  39.195  11.572
73839ION    NA+45455  33.446  13.026  13.226
73840ION    NA+45456   2.574  14.079   1.312
73841ION    NA+45457   9.918   1.333   0.959
73842ION    NA+45458  14.046  20.865   0.316
73843ION    NA+45459  43.755  30.122  12.980
73844ION    NA+45460  11.089   5.653   3.477
73845ION    NA+45461  27.728  35.546   2.599
73846ION    NA+45462  28.491  22.772  11.149
73847ION    NA+45463  28.131   0.566   3.074
73848ION    NA+45464  35.016  34.990   3.885
73849ION    NA+45465  14.380  23.620  10.305
73850ION    NA+45466  19.170  28.591  13.945
73851ION    NA+45467   7.825   0.522  11.078
73852ION    NA+45468   5.286  10.683  12.447
73853ION    NA+45469  38.968  36.078  12.760
73854ION    NA+45470  39.392  12.763   5.013
73855ION    NA+45471  12.250  27.512   4.713
73856ION    NA+45472  12.844  22.688  12.365
73857ION    NA+45473  44.711  28.204   4.062
73858ION    NA+45474  41.900   5.740  13.598
73859ION    NA+45475  21.415  40.356  11.302
73860ION    NA+45476  39.273   5.348   2.570
73861ION    NA+45477  39.158  33.308  11.396
73862ION    NA+45478  28.715   5.064   2.461
73863ION    NA+45479  27.067  20.130   2.350
73864ION    NA+45480  35.023  42.308   4.382
73865ION    NA+45481  40.799  10.194   3.102
73866ION    NA+45482   0.084   9.882   0.974
73867ION    NA+45483  44.526  41.829   2.410
73868ION    NA+45484  24.103  12.981  11.306
73869ION    NA+45485  33.839  32.378  11.917
73870ION    NA+45486  27.326  13.281   0.100
73871ION    NA+45487  16.410  18.839  10.753
73872ION    NA+45488  11.281  39.830  13.575
73873ION    NA+45489  20.302  40.556  14.399
73874ION    NA+45490   6.753  21.180   4.255
73875ION    NA+45491  23.231  38.497   4.467
73876ION    NA+45492  10.471   7.791  10.842
73877ION    NA+45493   6.464  44.459   4.249
73878ION    NA+45494  37.854  19.311  12.717
73879ION    NA+45495   6.138  40.505   4.501
73880ION    NA+45496   3.176  14.566   1.703
73881ION    NA+45497  44.370  27.916   3.167
73882ION    NA+45498  20.731  24.959   2.261
73883ION    NA+45499  13.653  24.529  11.150
73884ION    NA+45500   3.846   0.727   1.042
73885ION    NA+45501  39.896   1.752  11.052
73886ION    NA+45502  17.788  14.292  11.504
73887ION    NA+45503  39.858  33.701  11.114
73888ION    NA+45504  34.679  15.414  14.307
73889ION    NA+45505  31.384  37.194   0.981
73890ION    NA+45506  19.729  35.626   1.832
73891ION    NA+45507   8.657   8.783   2.642
73892ION    NA+45508   5.389   4.631  13.243
73893ION    NA+45509  24.399   6.653   2.993
73894ION    NA+45510  25.201  42.050   4.098
73895ION    NA+45511  33.302  33.543  14.538
73896ION    NA+45512  13.469  40.162  14.458
73897ION    NA+45513  38.636  30.184   2.310
73898ION    NA+45514  26.936  36.833   1.764
73899ION    NA+45515   1.871  17.828   0.004
73900ION    NA+45516  16.734  25.929  11.465
73901ION    NA+45517  41.243  14.004  14.598
73902ION    NA+45518  42.886   3.932   2.944
73903ION    NA+45519  29.826  39.796   3.537
73904ION    NA+45520  17.109   7.895  13.818
73905ION    NA+45521  27.871  36.848  12.778
73906ION    NA+45522  14.693   6.434   2.928
73907ION    NA+45523   1.720  43.241   2.703
73908ION    NA+45524  44.244   6.546  10.999
73909ION    NA+45525  21.780  39.645  13.900
73910ION    NA+45526  39.168   3.815   3.191
73911ION    NA+45527  14.830  32.117   1.455
73912ION    NA+45528  28.672  27.243   0.423
73913ION    NA+45529  34.431  20.787   2.513
73914ION    NA+45530  20.070  10.991   1.033
73915ION    NA+45531  25.210  29.228  13.068
73916ION    NA+45532   5.835   0.837   0.912
73917ION    NA+45533  24.807  38.815   0.460
73918ION    NA+45534  29.709   8.745   0.852
73919ION    NA+45535  37.417   9.406   3.340
73920ION    NA+45536   2.887  10.782  11.451
73921ION    NA+45537  35.496  32.086   2.133
73922ION    NA+45538  41.873  40.657  14.122
73923ION    NA+45539   8.078  30.447  12.417
73924ION    NA+45540  27.059  24.385  11.070
73925ION    NA+45541  23.288  17.698   0.744
73926ION    NA+45542   5.897  21.952  12.160
73927ION    NA+45543  36.117  38.553  12.387
73928ION    NA+45544  10.649  13.769  14.446
73929ION    NA+45545  23.636  36.267   1.359
73930ION    NA+45546  13.576  14.341   4.233
73931ION    NA+45547  39.548  36.014   5.500
73932ION    NA+45548   5.250   4.796  14.120
73933ION    NA+45549   8.758  25.590   3.154
73934ION    NA+45550  15.948   6.446  13.601
73935ION    NA+45551  44.376  19.262  13.828
73936ION    NA+45552  30.524  19.873   4.652
73937ION    NA+45553   8.315  22.608  12.117
73938ION    NA+45554  43.938  14.446  14.236
73939ION    NA+45555  39.825  28.067   4.336
73940ION    NA+45556   0.379  13.078   3.089
73941ION    NA+45557  31.671  21.311   2.216
73942ION    NA+45558   1.926   4.657  14.422
73943ION    NA+45559  12.119  26.584  12.174
73944ION    NA+45560  14.344  37.795   0.899
73945ION    NA+45561  20.433  25.801   2.710
73946ION    NA+45562  40.925   9.643   3.927
73947ION    NA+45563  19.029  12.959  10.214
73948ION    NA+45564  41.386   4.389  14.243
73949ION    NA+45565  33.063  33.069  10.395
73950ION    NA+45566  21.170   8.345   4.513
73951ION    NA+45567   1.668  34.191   2.256
73952ION    NA+45568  36.480  44.686  11.817
73953ION    NA+45569   9.354  31.458  12.344
73954ION    NA+45570  43.475  16.077  11.885
73955ION    NA+45571  38.261   1.163   1.008
73956ION    NA+45572  27.093  37.670   3.833
73957ION    NA+45573   3.835   0.015  13.705
73958ION    NA+45574  21.525   4.513  12.832
73959ION    NA+45575   7.415  28.884  10.680
73960ION    NA+45576  42.336  29.904   3.294
73961ION    NA+45577  11.787  14.394  11.586
73962ION    NA+45578  17.442  28.397  11.245
73963ION    NA+45579  22.811  26.587  10.651
73964ION    NA+45580  30.576   4.122  13.678
73965ION    NA+45581  36.093   1.790  14.457
73966ION    NA+45582  31.728   6.110   1.845
73967ION    NA+45583  43.388  38.068   2.802
73968ION    NA+45584  38.870  39.953  10.749
73969ION    NA+45585  23.638  42.518   4.194
73970ION    NA+45586  43.485   1.218  13.031
73971ION    NA+45587   0.841  42.422  14.635
73972ION    NA+45588  23.604   0.365   3.508
73973ION    NA+45589  15.307  35.795   3.934
73974ION    NA+45590  32.368  33.647   4.205
73975ION    NA+45591  42.516   2.929   2.308
73976ION    NA+45592  16.585  12.416  11.231
73977ION    NA+45593  31.012  14.981   2.037
73978ION    NA+45594   8.402   5.786   4.439
73979ION    NA+45595  27.381  14.625   0.257
73980ION    NA+45596  21.113  30.689  10.965
73981ION    NA+45597   5.912  27.088   4.236
73982ION    NA+45598  27.427  30.668   3.841
73983ION    NA+45599  38.255  19.024   2.457
73984ION    NA+45600   9.529  18.687  11.110
73985ION    NA+45601  38.174   7.043  12.463
73986ION    NA+45602  30.115  37.528  14.599
73987ION    NA+45603  44.970  22.610   1.508
73988ION    NA+45604  40.897  40.317  11.159
73989ION    NA+45605  15.616   0.368   3.118
73990ION    NA+45606  38.043  44.791   0.892
73991ION    NA+45607  44.256  11.452  10.585
73992ION    NA+45608   7.556  35.748   3.293
73993ION    NA+45609  21.151  38.998   1.906
73994ION    NA+45610  44.100   3.308   5.019
73995ION    NA+45611  34.647  13.573  13.552
73996ION    NA+45612  37.375  19.979  14.641
73997ION    NA+45613   7.285  29.731   4.955
73998ION    NA+45614   7.253  11.585  12.503
73999ION    NA+45615  40.737  22.338   3.930
74000ION    NA+45616  14.108  44.402  11.890
74001ION    NA+45617   2.685  31.571  14.928
74002ION    NA+45618  40.561   9.215   4.759
74003ION    NA+45619  36.900  33.965   3.280
74004ION    NA+45620  20.109  41.278   4.040
74005ION    NA+45621  37.973  26.247   0.427
74006ION    NA+45622  31.030   1.895   0.233
74007ION    NA+45623  34.321  23.455  11.661
74008ION    NA+45624  11.964  34.897   1.253
74009ION    NA+45625  16.524   6.296  10.869
74010ION    NA+45626  32.185  30.564   0.958
74011ION    NA+45627  13.893  28.007   3.191
74012ION    NA+45628  39.992  33.920   3.846
74013ION    NA+45629  12.830  19.330  13.873
74014ION    NA+45630   8.751  32.099   4.196
74015ION    NA+45631  13.786  40.748  12.735
74016ION    NA+45632  20.691  34.760  14.645
74017ION    NA+45633  22.017  10.308  12.417
74018ION    NA+45634  35.107  40.463   2.297
74019ION    NA+45635   9.962  23.540   0.679
74020ION    NA+45636  29.024  24.245   0.528
74021ION    NA+45637  15.245  26.429   1.717
74022ION    NA+45638  39.982  10.604  11.602
74023ION    NA+45639   5.698   3.749  11.265
74024ION    NA+45640  21.492  12.741  12.116
74025ION    NA+45641   4.358  10.163  11.056
74026ION    NA+45642   9.370   5.849   3.929
74027ION    NA+45643   4.643   5.418  14.933
74028ION    NA+45644  11.077  27.513  12.630
74029ION    NA+45645  28.531  40.251   2.605
74030ION    NA+45646  41.322  35.327  14.602
74031ION    NA+45647  25.247  42.770   1.749
74032ION    NA+45648   5.372   9.189   4.174
74033ION    NA+45649  10.665  20.582  12.382
74034ION    NA+45650  36.138  36.499  14.122
74035ION    NA+45651  34.102  37.942  13.489
74036ION    NA+45652  44.246  31.887  10.644
74037ION    NA+45653   9.721  34.947  14.451
74038ION    NA+45654  33.901   2.840  11.271
74039ION    NA+45655  13.180  41.245   3.922
74040ION    NA+45656   1.503  10.690   1.014
74041ION    NA+45657  28.737  43.047   2.160
74042ION    NA+45658  24.273  10.946   3.020
74043ION    NA+45659   1.819  32.945  11.605
74044ION    NA+45660  36.287  14.512   4.488
74045ION    NA+45661  41.137  40.710   0.020
74046ION    NA+45662  40.506  17.152  12.539
74047ION    NA+45663  11.422  10.966   3.659
74048ION    NA+45664  34.676  37.185  11.658
74049ION    NA+45665   6.201  29.400   1.734
74050ION    NA+45666  43.091  27.881   1.379
74051ION    NA+45667  39.381  29.061   3.913
74052ION    NA+45668  42.667  16.942   5.073
74053ION    NA+45669  17.281  40.555   3.310
74054ION    NA+45670  12.717  24.365  14.577
74055ION    NA+45671  24.142  28.346  14.495
74056ION    NA+45672  39.397  30.406  11.668
74057ION    NA+45673  29.086   7.675   0.199
74058ION    NA+45674  34.206  31.502  13.212
74059ION    NA+45675  29.311   2.565   5.099
74060ION    NA+45676  14.427  21.088   2.872
74061ION    NA+45677  16.362   4.805  12.386
74062ION    NA+45678  19.666  16.145   3.733
74063ION    NA+45679  27.476  10.797  13.263
74064ION    NA+45680  14.397  33.217   9.873
74065ION    NA+45681   1.307  34.397  14.948
74066ION    NA+45682  28.521  10.551   3.668
74067ION    NA+45683  44.245  23.783   4.048
74068ION    NA+45684   5.616  19.542   4.113
74069ION    NA+45685   5.072  17.128  13.967
74070ION    NA+45686   2.715  11.260   1.975
74071ION    NA+45687  37.433  25.334  11.474
74072ION    NA+45688  13.749  22.855  10.491
74073ION    NA+45689  17.127  42.040   2.167
74074ION    NA+45690  23.961   2.614  11.457
74075ION    NA+45691  22.234  24.429  11.681
74076ION    NA+45692   5.029  33.099   2.364
74077ION    NA+45693  29.748   4.434   5.159
74078ION    NA+45694  41.201   1.724   2.576
74079ION    NA+45695  23.144  13.408  11.171
74080ION    NA+45696  23.547  33.636  14.401
74081ION    NA+45697  10.478  27.780   2.195
74082ION    NA+45698  23.420   8.868  10.645
74083ION    NA+45699  29.647  34.579  11.062
74084ION    NA+45700  37.437   0.230   0.211
74085ION    NA+45701  41.426  24.571  13.099
74086ION    NA+45702  19.557  10.132  14.723
74087ION    NA+45703  27.283  43.198  13.632
74088ION    NA+45704  14.212  13.934  11.660
74089ION    NA+45705  26.784  28.573  10.566
74090ION    NA+45706  11.678  42.053  14.350
74091ION    NA+45707  12.510  39.117  12.724
74092ION    NA+45708   2.387  41.228   5.373
74093ION    NA+45709  21.159  31.994  13.119
74094ION    NA+45710  34.965  40.379   3.643
74095ION    NA+45711   7.281  35.421   2.533
74096ION    NA+45712  15.770  17.735   0.946
74097ION    NA+45713   5.636  40.229   1.621
74098ION    NA+45714  35.710  26.446  13.908
74099ION    NA+45715   3.433  20.009  14.530
74100ION    NA+45716  38.047  27.659  13.572
74101ION    NA+45717  18.281  27.022   1.401
74102ION    NA+45718   7.107  37.563   4.548
74103ION    NA+45719  25.580  10.998  14.452
74104ION    NA+45720   7.865  40.846  11.250
74105ION    NA+45721  42.077  42.355  14.862
74106ION    NA+45722  34.691  32.619  12.485
74107ION    NA+45723   7.217  27.369   4.147
74108ION    NA+45724   6.162   8.795   2.383
74109ION    NA+45725  24.699  31.925  14.133
74110ION    NA+45726  18.488   1.720  14.232
74111ION    NA+45727   5.192   6.756  14.471
74112ION    NA+45728  10.258   4.644  12.034
74113ION    NA+45729   7.175  21.546   5.084
74114ION    NA+45730   6.936  32.141  13.245
74115ION    NA+45731   2.859  39.231  13.508
74116ION    NA+45732  37.136  43.022   0.042
74117ION    NA+45733  24.796  23.008  10.859
74118ION    NA+45734  13.583  29.912  14.715
74119ION    NA+45735  40.405  28.649  10.876
74120ION    NA+45736  18.734  44.007  10.648
74121ION    NA+45737  18.608  31.889   4.415
74122ION    NA+45738   6.923   5.641   0.576
74123ION    NA+45739  38.000  17.989  14.315
74124ION    NA+45740  24.810  44.623   0.934
74125ION    NA+45741  43.522  28.054  12.816
74126ION    NA+45742  38.712  42.939   4.283
74127ION    NA+45743  26.661  24.484  14.570
74128ION    NA+45744  44.790  12.333  14.046
74129ION    NA+45745  35.613  25.009   3.236
74130ION    NA+45746  40.024  12.184   0.929
74131ION    NA+45747  33.842   9.071   2.698
74132ION    NA+45748  21.872   2.510   3.924
74133ION    NA+45749   1.003  26.622  10.297
74134ION    NA+45750  30.228  36.153   3.303
74135ION    NA+45751  38.744  24.113   3.548
74136ION    NA+45752  10.851  33.208   3.635
74137ION    NA+45753  11.225  43.006  10.266
74138ION    NA+45754   2.804  15.291  11.133
74139ION    NA+45755   2.130  26.483  12.863
74140ION    NA+45756  31.881  44.589   3.793
74141ION    NA+45757   0.597   7.527   3.186
74142ION    NA+45758  18.682  21.285  10.783
74143ION    NA+45759  35.673  36.948  11.972
74144ION    NA+45760  27.261  27.757  13.754
74145ION    NA+45761   0.722  39.307  11.093
74146ION    NA+45762  41.644   0.711   1.426
74147ION    NA+45763   4.905  33.644   1.456
74148ION    NA+45764  44.256  35.915  14.286
74149ION    NA+45765   7.663  17.847   1.067
74150ION    NA+45766  16.064  16.072   5.475
74151ION    NA+45767  43.451  15.377   0.251
74152ION    NA+45768  39.674  21.025  11.671
74153ION    NA+45769  11.927   1.282   5.048
74154ION    NA+45770   8.860  23.852   2.601
74155ION    NA+45771   0.718  14.640   0.045
74156ION    NA+45772   7.870  37.378  11.602
74157ION    NA+45773  22.076  29.377  11.960
74158ION    NA+45774  34.306   2.428  13.196
74159ION    NA+45775   5.861  42.344  12.964
74160ION    NA+45776  41.597  41.051   3.097
74161ION    NA+45777  21.004  28.656  11.786
74162ION    NA+45778  12.835  11.891   3.576
74163ION    NA+45779  23.617   1.272   4.701
74164ION    NA+45780  14.040  22.349   5.227
74165ION    NA+45781  28.846  39.387  13.794
74166ION    NA+45782  13.796  35.603   0.077
74167ION    NA+45783  39.699  37.501   5.125
74168ION    NA+45784  23.536  26.835   2.639
74169ION    NA+45785   1.255  14.623   4.123
74170ION    NA+45786   0.795  22.036   3.717
74171ION    NA+45787  15.116  11.587   3.106
74172ION    NA+45788  42.660  30.909   2.634
74173ION    NA+45789  18.387   3.237  10.582
74174ION    NA+45790  38.000  12.798   4.185
74175ION    NA+45791   5.602   4.113   4.384
74176ION    NA+45792   4.156  37.614   2.834
74177ION    NA+45793   1.791  15.714   1.248
74178ION    NA+45794  38.922  12.618   3.227
74179ION    NA+45795  25.204  23.668   0.769
74180ION    NA+45796  32.545  41.373  11.250
74181ION    NA+45797   9.616  27.451   4.154
74182ION    NA+45798  29.970  22.451   0.876
74183ION    NA+45799  11.324  18.016  11.492
74184ION    NA+45800  38.915   3.024   0.143
74185ION    NA+45801  39.584  23.017  12.495
74186ION    NA+45802  30.667  17.751  11.299
74187ION    NA+45803   8.949  24.761   1.366
74188ION    NA+45804  40.377  32.180  10.063
74189ION    NA+45805  44.390   5.774  10.771
74190ION    NA+45806  22.277   1.539   4.566
74191ION    NA+45807  39.112  22.628   3.248
74192ION    NA+45808  37.730   8.940  11.003
74193ION    NA+45809   6.894  20.965  14.936
74194ION    NA+45810  10.877   0.279  12.758
74195ION    NA+45811  37.072  26.414   0.411
74196ION    NA+45812  34.871   4.165   3.778
74197ION    NA+45813  17.756  42.151   5.021
74198ION    NA+45814  32.861  13.049   4.152
74199ION    NA+45815  17.313  10.034   4.030
74200ION    NA+45816  37.307  16.863   3.080
74201ION    NA+45817   6.386  16.787  12.836
74202ION    NA+45818  43.169  23.481  12.319
74203ION    NA+45819  27.743  14.720   3.972
74204ION    NA+45820   0.782  28.463   4.795
74205ION    NA+45821   0.887  21.711   1.365
74206ION    NA+45822  44.497  31.912   2.558
74207ION    NA+45823  35.304   6.931   2.975
74208ION    NA+45824  14.930  19.058   4.230
74209ION    NA+45825  12.265   0.137   1.373
74210ION    NA+45826  31.815  21.755   3.006
74211ION    NA+45827  10.389  30.434  11.160
74212ION    NA+45828  22.782  11.674   3.512
74213ION    NA+45829  19.610  24.787   4.449
74214ION    NA+45830  19.004  37.847  11.363
74215ION    NA+45831  11.101  29.528   0.162
74216ION    NA+45832  23.162  17.356  14.438
74217ION    NA+45833  36.768  28.210   3.231
74218ION    NA+45834  25.930  29.436   4.122
74219ION    NA+45835  24.764  28.872   1.400
74220ION    NA+45836  33.542  14.259   3.164
74221ION    NA+45837  40.119  12.689  13.047
74222ION    NA+45838  36.826  19.465   0.385
74223ION    NA+45839  33.994  38.006   0.453
74224ION    NA+45840   0.377  31.478  13.002
74225ION    NA+45841   8.990  26.020  11.207
74226ION    NA+45842  39.738  43.692  11.929
74227ION    NA+45843  10.409   2.770  12.190
74228ION    NA+45844  15.133  27.432  13.596
74229ION    NA+45845  24.368  28.226   3.251
74230ION    NA+45846  13.068  10.447   0.235
74231ION    NA+45847   8.929  43.465   0.575
74232ION    NA+45848  23.512  19.254  13.287
74233ION    NA+45849  28.156  44.284   0.831
74234ION    NA+45850   1.560  39.660  11.146
74235ION    NA+45851  30.387  33.935   1.702
74236ION    NA+45852  41.200  28.307   4.472
74237ION    NA+45853  24.651  21.442  14.306
74238ION    NA+45854  20.865  27.377  12.366
74239ION    NA+45855   0.841  23.798  12.822
74240ION    NA+45856  34.431  20.455   0.478
74241ION    NA+45857  31.023   5.240  14.633
74242ION    NA+45858  38.119  26.772  10.600
74243ION    NA+45859  27.538  14.227  12.927
74244ION    NA+45860  29.903  10.061   3.756
74245ION    NA+45861  36.188  11.152   2.790
74246ION    NA+45862  38.873  14.283   1.370
74247ION    NA+45863   7.196  41.435  14.258
74248ION    NA+45864  27.434  39.207  11.929
74249ION    NA+45865  31.623  23.270   2.402
74250ION    NA+45866  37.503  38.298   4.317
74251ION    NA+45867  19.780   5.652   4.600
74252ION    NA+45868  27.220  17.314   4.210
74253ION    NA+45869  31.156  25.594  14.126
74254ION    NA+45870   0.937  12.098   0.357
74255ION    NA+45871  26.058   6.296   3.352
74256ION    NA+45872  16.046  25.030   1.882
74257ION    NA+45873  21.755  44.372  14.670
74258ION    NA+45874  23.826  31.613   1.318
74259ION    NA+45875  27.588  10.719   3.349
74260ION    NA+45876   9.169  21.694  14.608
74261ION    NA+45877  23.772  22.789   2.336
74262ION    NA+45878  42.751  32.151   1.788
74263ION    NA+45879  13.250  41.224   5.202
74264ION    NA+45880   8.220  11.485   5.193
74265ION    NA+45881   6.501  34.225  11.699
74266ION    NA+45882  23.600  29.380   4.873
74267ION    NA+45883  13.599  21.626   2.710
74268ION    NA+45884  31.262  22.042  11.522
74269ION    NA+45885  23.665  17.928   3.733
74270ION    NA+45886  35.335   7.888  14.914
74271ION    NA+45887  15.855  36.975  11.425
74272ION    NA+45888   6.307  26.934   2.598
74273ION    NA+45889  31.261  30.254   0.084
74274ION    NA+45890  14.324  15.894  13.663
74275ION    NA+45891   5.214   8.180  13.786
74276ION    NA+45892  40.303  19.658   0.509
74277ION    NA+45893   3.666  30.415   1.025
74278ION    NA+45894   7.385  28.408   4.976
74279ION    NA+45895  28.455  27.238   3.942
74280ION    NA+45896   7.599  39.518  13.628
74281ION    NA+45897   2.092  37.500  12.946
74282ION    NA+45898  29.054  44.364   0.399
74283ION    NA+45899  17.872   6.179  14.272
74284ION    NA+45900   6.492   6.566   5.081
74285ION    NA+45901  38.378  25.307   4.095
74286ION    NA+45902  41.686   3.471   2.118
74287ION    NA+45903  40.010  42.054   0.371
74288ION    NA+45904  28.993  18.759  11.945
74289ION    NA+45905  36.215   8.105   2.769
74290ION    NA+45906  20.280  10.165   0.413
74291ION    NA+45907  39.283  32.146   0.730
74292ION    NA+45908  20.299  12.541  13.563
74293ION    NA+45909  21.467   6.417  10.950
74294ION    NA+45910  40.229   9.690  13.419
74295ION    NA+45911  44.666  41.280   4.011
74296ION    NA+45912  10.739  24.336   3.582
74297ION    NA+45913  12.906  26.145  12.323
74298ION    NA+45914   9.580  16.918   0.817
74299ION    NA+45915  43.140  37.885  12.720
74300ION    NA+45916  33.948  44.021   4.643
74301ION    NA+45917  26.558   7.112   0.450
74302ION    NA+45918   9.641  36.354  10.971
74303ION    NA+45919  38.445  19.078  10.535
74304ION    NA+45920  38.488  24.468  11.513
74305ION    NA+45921   7.125   9.062   0.042
74306ION    NA+45922  43.215  37.870   4.518
74307ION    NA+45923  20.111  18.708   0.651
74308ION    NA+45924  23.218  37.695   3.134
74309ION    NA+45925   8.580  37.282  14.525
74310ION    NA+45926  19.238   6.788  13.105
74311ION    NA+45927  16.857  34.052   0.880
74312ION    NA+45928  44.771   4.167  13.496
74313ION    NA+45929  12.678   7.070   4.331
74314ION    NA+45930  38.227   8.251   1.468
74315ION    NA+45931  17.481   3.410   3.600
74316ION    NA+45932   5.333  24.543   3.349
74317ION    NA+45933   1.450  21.262   0.330
74318ION    NA+45934  22.799  14.753  11.564
74319ION    NA+45935   2.375   4.713  12.003
74320ION    NA+45936  20.015  17.126  12.454
74321ION    NA+45937  34.941  38.951  11.018
74322ION    NA+45938  24.161  39.112   1.163
74323ION    NA+45939   7.876  34.773   9.824
74324ION    NA+45940  21.885  29.385  13.026
74325ION    NA+45941   0.165  41.755  11.009
74326ION    NA+45942  12.920  15.395   3.384
74327ION    NA+45943   6.885  23.650  12.915
74328ION    NA+45944  12.550  27.062  13.596
74329ION    NA+45945   0.201  23.006  13.538
74330ION    NA+45946   2.619  40.889   4.895
74331ION    NA+45947   1.235  42.785   3.468
74332ION    NA+45948  35.773   6.143  14.112
74333ION    NA+45949  19.886  28.558   0.653
74334ION    NA+45950  14.389  22.979   9.728
74335ION    NA+45951  10.588  18.801  12.946
74336ION    NA+45952  41.525   5.198   3.948
74337ION    NA+45953  11.294  44.255   2.211
74338ION    NA+45954  11.007   1.000  13.242
74339ION    NA+45955  22.896  18.310   4.045
74340ION    NA+45956  13.874  10.584   1.327
74341ION    NA+45957  17.464  35.827   4.677
74342ION    NA+45958   5.783  37.577  13.008
74343ION    NA+45959  44.009  25.847  11.787
74344ION    NA+45960   8.690  13.784   0.990
74345ION    NA+45961  33.477  19.503  13.648
74346ION    NA+45962  12.801  36.212  10.674
74347ION    NA+45963  30.272  12.446   4.961
74348ION    NA+45964   6.454  35.146  14.891
74349ION    NA+45965  10.264  26.204  12.496
74350ION    NA+45966   3.611   5.450  14.769
74351ION    NA+45967  17.991  29.964   0.570
74352ION    NA+45968  17.920  33.312   3.022
74353ION    NA+45969  44.225  31.822   1.692
74354ION    NA+45970  10.754  26.877  14.342
74355ION    NA+45971  43.963   5.192   3.565
74356ION    NA+45972  37.146  10.999  13.381
74357ION    NA+45973   5.011  18.720   1.775
74358ION    NA+45974  41.493  12.867  12.068
74359ION    NA+45975  21.923  26.912  11.402
74360ION    NA+45976  40.509  20.670  12.927
74361ION    NA+45977   5.854   9.803  10.671
74362ION    NA+45978  16.994  11.617  11.187
74363ION    NA+45979  30.638  18.420  10.691
74364ION    NA+45980   5.621  27.774   2.706
74365ION    NA+45981  36.108  39.281   4.381
74366ION    NA+45982   1.943  44.183   3.050
74367ION    NA+45983  37.080   6.764   3.847
74368ION    NA+45984  27.449  27.130   1.791
74369ION    NA+45985  31.400  26.052   2.333
74370ION    NA+45986  26.033  29.956  10.753
74371ION    NA+45987  41.940  12.596   3.073
74372ION    NA+45988   2.734  28.925  13.467
74373ION    NA+45989  10.137  24.005   2.716
74374ION    NA+45990  12.822  38.058   2.845
74375ION    NA+45991  11.411  34.101   1.009
74376ION    NA+45992   8.263  32.097  13.617
74377ION    NA+45993   5.594   8.043  11.883
74378ION    NA+45994  28.079  33.092  11.047
74379ION    NA+45995   8.676  12.178  12.730
74380ION    NA+45996  15.581  28.599  10.957
74381ION    NA+45997  34.801  11.877  11.956
74382ION    NA+45998  16.215   0.458  13.976
74383ION    NA+45999  34.420  17.283   0.359
74384ION    NA+46000   3.116  35.730   1.257
74385ION    NA+46001  38.546   1.849  13.610
74386ION    NA+46002  16.206  40.212   2.698
74387ION    NA+46003  37.186   5.850  12.078
74388ION    NA+46004  38.963  26.104   3.909
74389ION    NA+46005  38.803  35.146  13.708
74390ION    NA+46006  28.826   8.604   3.953
74391ION    NA+46007  23.334  28.080   3.251
74392ION    NA+46008  13.682  24.926   4.012
74393ION    NA+46009   4.762   1.058   9.660
74394ION    NA+46010  10.318   1.242  14.894
74395ION    NA+46011  39.764  37.934   1.791
74396ION    NA+46012  35.748  23.109  10.895
74397ION    NA+46013  11.731  34.030  14.067
74398ION    NA+46014  29.726  24.804   0.827
74399ION    NA+46015  17.437   4.635   1.043
74400ION    NA+46016  39.335  30.829   4.183
74401ION    NA+46017  39.849  39.486  14.348
74402ION    NA+46018   0.754   5.600  14.144
74403ION    NA+46019  40.943  23.406   2.465
74404ION    NA+46020   6.925   7.697   2.169
74405ION    NA+46021  36.317  29.007  10.873
74406ION    NA+46022   5.115  14.966   4.626
74407ION    NA+46023  40.451  12.087  13.808
74408ION    NA+46024  17.959  35.009  14.037
74409ION    NA+46025   5.549   0.391   2.665
74410ION    NA+46026  14.225  12.677   0.492
74411ION    NA+46027  44.745  20.301  11.646
74412ION    NA+46028   1.446  26.118   0.874
74413ION    NA+46029  37.538  19.973  11.722
74414ION    NA+46030  42.890  16.498   4.027
74415ION    NA+46031  40.763   4.967   3.260
74416ION    NA+46032  13.202  41.485  12.397
74417ION    NA+46033  14.427   8.353   0.722
74418ION    NA+46034  23.992  18.850  10.966
74419ION    NA+46035  38.905  29.515  12.706
74420ION    NA+46036  44.883  43.549   0.005
74421ION    NA+46037  41.402  42.998   0.570
74422ION    NA+46038  42.991  35.619  12.393
74423ION    NA+46039  20.631  36.478  14.231
74424ION    NA+46040   6.923   1.763   1.003
74425ION    NA+46041  30.350  24.866   5.059
74426ION    NA+46042  24.710  13.704  10.365
74427ION    NA+46043   4.549  32.162   0.069
74428ION    NA+46044  30.463  33.958  13.626
74429ION    NA+46045  32.626   6.549   1.807
74430ION    NA+46046  30.572   5.986   0.135
74431ION    NA+46047  34.479   9.870   0.724
74432ION    NA+46048  24.860  36.392   1.119
74433ION    NA+46049  28.087  33.934  11.592
74434ION    NA+46050  20.256  38.308  12.798
74435ION    NA+46051   4.589  25.602  12.668
74436ION    NA+46052  13.174  21.246  14.581
74437ION    NA+46053  36.471   4.746  11.772
74438ION    NA+46054   0.318  15.313   0.504
74439ION    NA+46055   1.674  39.102   1.119
74440ION    NA+46056  33.341  28.591   5.344
74441ION    NA+46057   8.242  32.856   2.439
74442ION    NA+46058  42.797  28.775   1.717
74443ION    NA+46059  12.684   5.901   1.437
74444ION    NA+46060  40.068  28.491   3.367
74445ION    NA+46061  18.174  43.679   3.176
74446ION    NA+46062  38.229   6.408   4.309
74447ION    NA+46063  34.012  29.189   0.712
74448ION    NA+46064  17.569  27.162   4.429
74449ION    NA+46065  43.320  21.825  11.059
74450ION    NA+46066  25.749  21.200  13.393
74451ION    NA+46067   3.790  27.294  13.692
74452ION    NA+46068  10.265   9.135  12.466
74453ION    NA+46069  14.142   5.139   4.136
74454ION    NA+46070  20.928  32.599   3.967
74455ION    NA+46071  23.345   3.198  11.258
74456ION    NA+46072  43.609  26.150   0.961
74457ION    NA+46073  23.718   3.215  14.056
74458ION    NA+46074  20.354  18.723   4.116
74459ION    NA+46075  25.338   2.304   1.792
74460ION    NA+46076  20.708  29.118   3.860
74461ION    NA+46077   3.292   6.418   2.430
74462ION    NA+46078  26.557  32.535  10.272
74463ION    NA+46079  31.463   2.355  12.044
74464ION    NA+46080  22.277   6.433  11.536
74465ION    NA+46081  15.177  32.677  12.420
74466ION    NA+46082  10.706  40.832  12.347
74467ION    NA+46083  16.523   8.075   1.849
74468ION    NA+46084  18.481  33.075  13.568
74469ION    NA+46085  42.033  20.504   3.857
74470ION    NA+46086   7.682  24.968  12.013
74471ION    NA+46087  43.772  33.275   3.679
74472ION    NA+46088   1.271  12.120  12.676
74473ION    NA+46089  20.417  34.557   2.998
74474ION    NA+46090   6.634  30.531   0.037
74475ION    NA+46091  16.892  21.606  11.314
74476ION    NA+46092  26.291   2.610   2.014
74477ION    NA+46093  33.529   3.075  13.530
74478ION    NA+46094  11.488  15.835   9.872
74479ION    NA+46095  30.556   8.198   5.042
74480ION    NA+46096  42.081  41.922   3.852
74481ION    NA+46097  30.333  28.365  13.814
74482ION    NA+46098   5.582   2.756   3.522
74483ION    NA+46099  20.774  30.503  14.790
74484ION    NA+46100   1.189   0.130   4.012
74485ION    NA+46101  11.138  24.034  11.631
74486ION    NA+46102  23.931  10.462   3.909
74487ION    NA+46103  34.801  38.710   3.148
74488ION    NA+46104   1.419  32.408   2.435
74489ION    NA+46105  21.296   5.540  11.912
74490ION    NA+46106  19.070  38.714   4.436
74491ION    NA+46107  35.481   7.931   3.241
74492ION    NA+46108   9.582  41.519   0.827
74493ION    NA+46109  11.443  22.733   0.732
74494ION    NA+46110   0.462  27.134   0.164
74495ION    NA+46111   6.352  20.324   3.332
74496ION    NA+46112  13.105  37.375  11.036
74497ION    NA+46113   6.154  24.915   3.782
74498ION    NA+46114  11.358  10.141   1.379
74499ION    NA+46115  19.727   2.943  11.484
74500ION    NA+46116  29.371  36.771   2.699
74501ION    NA+46117  39.442  11.860   2.833
74502ION    NA+46118  16.591  28.695  11.050
74503ION    NA+46119  12.617  11.998   4.456
74504ION    NA+46120  13.641   7.178  10.774
74505ION    NA+46121  36.830   8.019  11.293
74506ION    NA+46122   8.765  40.020  14.852
74507ION    NA+46123  27.614  19.104   0.440
74508ION    NA+46124  10.905  10.637  14.873
74509ION    NA+46125  21.758  36.566  14.885
74510ION    NA+46126  25.084  28.610   4.637
74511ION    NA+46127  36.883  11.530   2.391
74512ION    NA+46128  38.102  10.845  11.612
74513ION    NA+46129  26.522  42.329  11.109
74514ION    NA+46130  30.103  21.185  11.395
74515ION    NA+46131  16.765  14.801   3.657
74516ION    NA+46132  15.633  31.288   2.921
74517ION    NA+46133  10.596  16.572   3.285
74518ION    NA+46134  29.566  13.939   5.538
74519ION    NA+46135  44.765   2.934   1.182
74520ION    NA+46136  23.403   2.088   3.290
74521ION    NA+46137  19.880  19.845   3.492
74522ION    NA+46138  28.332  30.512   2.006
74523ION    NA+46139  28.949  29.207  12.104
74524ION    NA+46140  23.817   7.359  11.740
74525ION    NA+46141  37.017  23.946   1.007
74526ION    NA+46142  15.158  20.136  12.219
74527ION    NA+46143  37.284  41.387  10.079
74528ION    NA+46144  29.135  32.018   4.599
74529ION    NA+46145  14.222  14.218  12.510
74530ION    NA+46146   7.705  15.563   5.105
74531ION    NA+46147  30.196  23.356  12.025
74532ION    NA+46148  12.274   2.953   1.207
74533ION    NA+46149  25.627  29.689   0.208
74534ION    NA+46150  12.610  31.399   2.686
74535ION    NA+46151   0.820  37.805  10.879
74536ION    NA+46152  14.604  11.408  11.107
74537ION    NA+46153  27.132  32.127   3.964
74538ION    NA+46154   0.164  23.103   5.492
74539ION    NA+46155  10.865   7.276  13.884
74540ION    NA+46156  11.329  41.735  13.471
74541ION    NA+46157  16.210  18.408   9.873
74542ION    NA+46158   4.913  18.856  14.544
74543ION    NA+46159  34.166  42.087  13.332
74544ION    NA+46160  35.654  13.602   4.972
74545ION    NA+46161  36.254  29.283   1.875
74546ION    NA+46162  21.131   7.628   2.308
74547ION    CL-46163  40.437  20.522  12.495
74548ION    CL-46164  42.887  32.621  12.942
74549ION    CL-46165  28.464  16.550  10.451
74550ION    CL-46166   4.709  17.393  13.829
74551ION    CL-46167  25.752  29.685  10.973
74552ION    CL-46168   6.610  29.368   1.553
74553ION    CL-46169   4.303  19.980  10.423
74554ION    CL-46170  34.209   7.406   1.212
74555ION    CL-46171  13.241  33.743   2.587
74556ION    CL-46172  24.054  30.481   5.139
74557ION    CL-46173  38.196  24.500  11.862
74558ION    CL-46174  34.860  29.428  13.401
74559ION    CL-46175  19.472  42.878   4.947
74560ION    CL-46176  44.399  35.638  11.073
74561ION    CL-46177  36.480  27.608   0.514
74562ION    CL-46178  13.300  30.229  14.579
74563ION    CL-46179  11.258  23.034   3.107
74564ION    CL-46180   1.331  13.779   3.125
74565ION    CL-46181  33.198  19.113  14.735
74566ION    CL-46182  19.335  10.702   3.892
74567ION    CL-46183  41.134   1.542   2.167
74568ION    CL-46184  40.663  34.935   2.634
74569ION    CL-46185  24.018  12.728  13.890
74570ION    CL-46186  21.372  32.598   3.913
74571ION    CL-46187  21.229  19.776  14.361
74572ION    CL-46188   4.247  32.850   3.951
74573ION    CL-46189  40.508  17.938   2.116
74574ION    CL-46190  12.835   9.691   1.874
74575ION    CL-46191   0.716   8.002   4.247
74576ION    CL-46192  16.161  12.434   2.313
74577ION    CL-46193  32.999  15.246   1.312
74578ION    CL-46194  39.511  29.105  14.901
74579ION    CL-46195  33.857  22.388  13.884
74580ION    CL-46196   1.689  37.397  13.101
74581ION    CL-46197  36.646   3.060   1.314
74582ION    CL-46198  36.804  22.841  12.135
74583ION    CL-46199  17.586   5.078   1.148
74584ION    CL-46200   3.955  31.879  12.140
74585ION    CL-46201  35.064  21.659   1.822
74586ION    CL-46202  26.415  14.188  14.986
74587ION    CL-46203  34.144  37.588  13.757
74588ION    CL-46204  22.008   2.008   2.272
74589ION    CL-46205  17.560   4.887  12.845
74590ION    CL-46206   7.416  11.695  12.100
74591ION    CL-46207  30.224  23.814   3.558
74592ION    CL-46208  21.889  27.306  11.194
74593ION    CL-46209   2.604   0.413  13.740
74594ION    CL-46210   7.177  41.979  10.674
74595ION    CL-46211  30.017   4.852   5.009
74596ION    CL-46212   7.311  26.718   2.162
74597ION    CL-46213  18.118  24.404  13.878
74598ION    CL-46214  30.720  39.288   2.753
74599ION    CL-46215  14.948   2.746   4.225
74600ION    CL-46216  24.863  43.300   4.200
74601ION    CL-46217  37.730  20.164  13.837
74602ION    CL-46218  32.067   6.134  10.978
74603ION    CL-46219  35.682  42.388   1.260
74604ION    CL-46220  43.730  21.089   3.746
74605ION    CL-46221  17.058  41.210   1.279
74606ION    CL-46222  28.447  43.205  13.679
74607ION    CL-46223  32.139   3.332   2.589
74608ION    CL-46224  11.950  19.721  12.252
74609ION    CL-46225  21.950  27.155   4.895
74610ION    CL-46226   3.990  27.132  13.315
74611ION    CL-46227  38.008  22.659  12.612
74612ION    CL-46228  16.699  18.201   0.292
74613ION    CL-46229  40.625  43.023   2.341
74614ION    CL-46230   9.501  16.091   5.113
74615ION    CL-46231  37.728  37.676  11.596
74616ION    CL-46232  18.098  32.946   0.398
74617ION    CL-46233  25.894   1.326  14.761
74618ION    CL-46234  43.780   9.180  13.030
74619ION    CL-46235  20.046  10.875  12.085
74620ION    CL-46236  44.782  42.601  14.106
74621ION    CL-46237  33.049  12.863  13.098
74622ION    CL-46238  12.133  29.182   3.848
74623ION    CL-46239  37.123  28.279  12.069
74624ION    CL-46240   1.128   7.377   4.910
74625ION    CL-46241  31.879  13.220  12.447
74626ION    CL-46242  28.103  22.993  11.153
74627ION    CL-46243  35.992  18.856   3.624
74628ION    CL-46244  31.774  13.233   2.733
74629ION    CL-46245  21.472  44.649  14.445
74630ION    CL-46246   0.976   5.725   2.321
74631ION    CL-46247   0.994  32.800   3.374
74632ION    CL-46248   4.781  44.707   2.759
74633ION    CL-46249  12.527  33.867  14.990
74634ION    CL-46250  20.625  30.373   1.938
74635ION    CL-46251  38.952  24.410  10.199
74636ION    CL-46252   4.633   8.420   3.663
74637ION    CL-46253  36.952   3.441  14.694
74638ION    CL-46254  37.365  40.858  12.581
74639ION    CL-46255  33.606   3.463  13.304
74640ION    CL-46256   9.446  28.872  11.279
74641ION    CL-46257  21.059  24.448  12.916
74642ION    CL-46258  13.210   6.832   9.586
74643ION    CL-46259  25.661  24.629  10.723
74644ION    CL-46260  10.717  32.889   0.459
74645ION    CL-46261  42.700  23.036   4.905
74646ION    CL-46262  38.532  42.616   3.992
74647ION    CL-46263   8.906  39.080   2.258
74648ION    CL-46264  37.156  10.710  13.029
74649ION    CL-46265   2.511   0.473  11.112
74650ION    CL-46266  32.493   1.563   2.498
74651ION    CL-46267  34.375  43.016   3.238
74652ION    CL-46268  14.178  38.922   1.409
74653ION    CL-46269   3.524  24.719  10.748
74654ION    CL-46270  25.728  38.680   3.774
74655ION    CL-46271  15.632  16.861   3.380
74656ION    CL-46272  10.360  36.551   4.722
74657ION    CL-46273  12.629  26.517  12.374
74658ION    CL-46274   8.153  43.167  11.619
74659ION    CL-46275  30.910  39.189   0.212
74660ION    CL-46276  28.239  32.624   0.014
74661ION    CL-46277  44.182   6.174  10.672
74662ION    CL-46278  42.862   0.545   3.197
74663ION    CL-46279  28.420   8.334  12.921
74664ION    CL-46280  17.086  13.903   5.083
74665ION    CL-46281  31.889  26.297  14.522
74666ION    CL-46282  11.831  21.200   1.125
74667ION    CL-46283  30.751  40.186   2.113
74668ION    CL-46284  37.768  24.984   5.019
74669ION    CL-46285  34.833   5.149   0.065
74670ION    CL-46286  40.323  33.622   3.893
74671ION    CL-46287   2.402  23.204  14.511
74672ION    CL-46288  34.241  42.559  14.222
74673ION    CL-46289  12.318   7.126   4.062
74674ION    CL-46290  36.590  19.107   1.995
74675ION    CL-46291  30.081  30.500  12.055
74676ION    CL-46292  14.127  25.186  12.218
74677ION    CL-46293  10.118  17.617  11.209
74678ION    CL-46294  12.627  31.349  11.096
74679ION    CL-46295  41.299  20.807   0.764
74680ION    CL-46296  23.305  29.542   3.362
74681ION    CL-46297  43.881  15.753  13.477
74682ION    CL-46298  35.146  12.102  11.015
74683ION    CL-46299  37.307  13.671   3.640
74684ION    CL-46300  18.581  43.762  10.305
74685ION    CL-46301  15.391   3.464   9.979
74686ION    CL-46302  32.496  22.554  10.033
74687ION    CL-46303   4.872  19.047   3.186
74688ION    CL-46304  38.833  43.144   0.139
74689ION    CL-46305  40.249   4.839  11.990
74690ION    CL-46306   4.834  23.425   3.737
74691ION    CL-46307  29.313  24.580   0.632
74692ION    CL-46308  43.507  31.103   1.258
74693ION    CL-46309  44.154  35.521  14.473
74694ION    CL-46310  20.595  37.151  11.649
74695ION    CL-46311  39.381  44.434   1.623
74696ION    CL-46312  20.746  40.507   1.696
74697ION    CL-46313  41.303   5.431  11.913
74698ION    CL-46314  42.983  22.151  11.059
74699ION    CL-46315  25.430  29.529  12.824
74700ION    CL-46316  16.673  30.660   1.414
74701ION    CL-46317  39.965  39.343  12.996
74702ION    CL-46318   9.075  22.728   3.174
74703ION    CL-46319  16.581  28.084  12.868
74704ION    CL-46320  27.905   4.403  10.907
74705ION    CL-46321  44.418  37.426   1.829
74706ION    CL-46322  44.127   1.492  10.669
74707ION    CL-46323  19.920   9.502   4.423
74708ION    CL-46324  27.288  28.615   0.112
74709ION    CL-46325   3.521  30.831   1.092
74710ION    CL-46326  39.418  36.141  12.773
74711ION    CL-46327  17.046  13.776   1.074
74712ION    CL-46328   0.954  15.818   3.768
74713ION    CL-46329  35.935  23.659  12.827
74714ION    CL-46330  16.621  12.909  14.592
74715ION    CL-46331   5.096  22.055   0.990
74716ION    CL-46332  30.759  24.441  14.693
74717ION    CL-46333   0.176  37.495   0.477
74718ION    CL-46334  27.155  15.878   0.586
74719ION    CL-46335  22.381  37.247   5.081
74720ION    CL-46336  21.724   3.344   0.003
74721ION    CL-46337  11.837   6.455  10.579
74722ION    CL-46338  16.075   3.904   1.345
74723ION    CL-46339   7.480  42.744  14.308
74724ION    CL-46340  16.185  30.085  14.983
74725ION    CL-46341  37.064   0.648   2.762
74726ION    CL-46342  38.529  43.219  11.126
74727ION    CL-46343  12.743  24.927   1.708
74728ION    CL-46344  13.573  26.901   1.617
74729ION    CL-46345  37.200   2.865   2.653
74730ION    CL-46346   8.217  36.140   3.306
74731ION    CL-46347   2.300  31.481   9.979
74732ION    CL-46348   0.742  27.874  13.017
74733ION    CL-46349  26.688  25.305   3.776
74734ION    CL-46350   0.163   3.000   0.985
74735ION    CL-46351  16.435  19.737   3.667
74736ION    CL-46352   3.485  27.460  13.988
74737ION    CL-46353   2.716   2.778   0.849
74738ION    CL-46354  32.143  33.703  11.059
74739ION    CL-46355   1.249   9.658  13.430
74740ION    CL-46356  35.328  10.462  11.809
74741ION    CL-46357  18.793  18.355  11.446
74742ION    CL-46358  13.660  11.537  14.728
74743ION    CL-46359  15.661   4.414   3.183
74744ION    CL-46360  38.549  17.278   3.134
74745ION    CL-46361  21.956   9.955  12.695
74746ION    CL-46362  39.017   4.071   3.525
74747ION    CL-46363  20.745  41.070  11.619
74748ION    CL-46364   0.452  18.508  14.846
74749ION    CL-46365   3.065  15.601  12.895
74750ION    CL-46366   6.196  21.623  12.298
74751ION    CL-46367  21.810  36.397  11.003
74752ION    CL-46368  13.891  25.322   3.984
74753ION    CL-46369  14.224  26.242  14.738
74754ION    CL-46370   8.058  40.089   9.969
74755ION    CL-46371  40.973  23.530   2.028
74756ION    CL-46372  25.089  23.711   2.219
74757ION    CL-46373  24.531  14.020  10.634
74758ION    CL-46374   9.145  17.055   0.859
74759ION    CL-46375  36.013  37.467   3.684
74760ION    CL-46376  28.241  27.253   2.510
74761ION    CL-46377  37.565  22.642   3.263
74762ION    CL-46378  26.805   9.072  14.449
74763ION    CL-46379   4.887  30.323   2.565
74764ION    CL-46380  16.406  10.327   5.104
74765ION    CL-46381  26.591  41.081   1.385
74766ION    CL-46382  44.099  35.941   3.641
74767ION    CL-46383  11.876  29.982   0.863
74768ION    CL-46384  10.175   4.511   3.339
74769ION    CL-46385  35.215  17.665  12.945
74770ION    CL-46386   3.908   9.771   3.127
74771ION    CL-46387   5.442   0.464   2.219
74772ION    CL-46388  36.396  20.666   3.712
74773ION    CL-46389  35.532   0.713  14.220
74774ION    CL-46390  32.987  30.110  14.580
74775ION    CL-46391  18.745  36.698   3.588
74776ION    CL-46392  31.818  38.057   5.155
74777ION    CL-46393  13.561  25.578  13.034
74778ION    CL-46394  37.697  16.782   3.300
74779ION    CL-46395  23.720   5.817   4.442
74780ION    CL-46396  10.008  16.747   0.719
74781ION    CL-46397  26.406  33.449   5.040
74782ION    CL-46398  28.941  15.668   3.748
74783ION    CL-46399   8.791   3.907   3.349
74784ION    CL-46400  25.580  37.798   2.823
74785ION    CL-46401   2.211  38.890   9.611
74786ION    CL-46402  16.618  43.920  14.509
74787ION    CL-46403   7.118  29.081  12.977
74788ION    CL-46404  13.648   7.102  10.328
74789ION    CL-46405  12.253  32.186  11.497
74790ION    CL-46406  43.469  17.281  11.708
74791ION    CL-46407  35.834  22.958   3.757
74792ION    CL-46408  37.571  10.002  14.847
74793ION    CL-46409  38.703   0.975   0.899
74794ION    CL-46410   7.333  36.056  14.245
74795ION    CL-46411  34.132   6.664   0.725
74796ION    CL-46412  41.958  32.379  11.968
74797ION    CL-46413   9.717  34.304   3.159
74798ION    CL-46414  35.739  29.797   4.104
74799ION    CL-46415  33.829  33.631  10.016
74800ION    CL-46416  18.798  17.566  11.906
74801ION    CL-46417   9.939  41.289   0.998
74802ION    CL-46418   1.123  39.525  11.128
74803ION    CL-46419   3.101  39.589  13.371
74804ION    CL-46420  16.169  37.285  11.511
74805ION    CL-46421  33.353  11.353  10.720
74806ION    CL-46422  11.174   9.489  14.159
74807ION    CL-46423  32.416  33.088   2.441
74808ION    CL-46424  21.147   4.425   1.317
74809ION    CL-46425  37.286   7.757   4.084
74810ION    CL-46426  28.224   2.571  11.102
74811ION    CL-46427   5.214  29.874  14.026
74812ION    CL-46428  11.756  23.162  14.402
74813ION    CL-46429  34.836  12.161   0.893
74814ION    CL-46430  26.507  30.509  13.819
74815ION    CL-46431   6.015  21.918   1.358
74816ION    CL-46432  22.089  13.330   2.282
74817ION    CL-46433  13.798  26.403   2.757
74818ION    CL-46434  12.241   8.126   2.300
74819ION    CL-46435  38.969  43.725   2.702
74820ION    CL-46436  33.891  36.338   2.610
74821ION    CL-46437   8.919  34.249  13.959
74822ION    CL-46438  19.994  33.920   1.861
74823ION    CL-46439  23.849  16.159   0.569
74824ION    CL-46440  11.533  23.957  11.829
74825ION    CL-46441   2.264  37.002  13.841
74826ION    CL-46442  38.241  14.877   3.925
74827ION    CL-46443  34.408  38.733   2.918
74828ION    CL-46444  34.405   5.705   0.795
74829ION    CL-46445  29.993  40.861  12.117
74830ION    CL-46446   9.641   2.832  13.506
74831ION    CL-46447  43.684  35.327   4.313
74832ION    CL-46448  17.985  19.140  11.540
74833ION    CL-46449  16.690  43.724   2.368
74834ION    CL-46450  23.762  43.603  13.548
74835ION    CL-46451  28.434   5.421   1.099
74836ION    CL-46452  18.719  20.917   3.743
74837ION    CL-46453  40.821  15.669   0.472
74838ION    CL-46454  23.076   6.350  12.415
74839ION    CL-46455  20.736  29.471   0.174
74840ION    CL-46456  31.590  40.646  13.041
74841ION    CL-46457  31.805  21.565   2.592
74842ION    CL-46458  14.122  22.391  14.790
74843ION    CL-46459  41.819  37.663  14.016
74844ION    CL-46460  28.206  25.877   1.285
74845ION    CL-46461  22.881  44.960  11.873
74846ION    CL-46462  18.214  33.643   3.132
74847ION    CL-46463   0.684  10.744   0.969
74848ION    CL-46464  31.802   4.668   4.974
74849ION    CL-46465   4.627  26.319  11.921
74850ION    CL-46466  10.615  27.613   1.801
74851ION    CL-46467  16.074  15.620  14.336
74852ION    CL-46468  22.980  29.766  11.444
74853ION    CL-46469  29.619  44.936  13.397
74854ION    CL-46470  34.496  20.364   2.367
74855ION    CL-46471  44.860  40.840  14.333
74856ION    CL-46472  39.714  39.583  13.933
74857ION    CL-46473   9.885  15.548   3.298
74858ION    CL-46474  40.815  39.876  12.945
74859ION    CL-46475  15.529   5.835  12.478
74860ION    CL-46476  23.272  18.133   3.841
74861ION    CL-46477  31.293  25.774  13.704
74862ION    CL-46478  33.241   5.100  12.165
74863ION    CL-46479  33.084  12.289   2.256
74864ION    CL-46480   0.894   5.846  12.321
74865ION    CL-46481  13.743  35.991  12.779
74866ION    CL-46482  27.109   4.025  14.719
74867ION    CL-46483  18.486  39.822  11.047
74868ION    CL-46484  16.308  20.673   2.136
74869ION    CL-46485  30.996  13.987  10.362
74870ION    CL-46486   1.644   1.463   2.585
74871ION    CL-46487  36.618   4.427  14.322
74872ION    CL-46488   9.847   3.482   4.805
74873ION    CL-46489  22.574  24.537   1.266
74874ION    CL-46490  31.428  22.577  14.554
74875ION    CL-46491  29.253   8.741   4.036
74876ION    CL-46492  38.074   9.240  11.051
74877ION    CL-46493  42.825  27.254   5.005
74878ION    CL-46494  14.084  26.289  11.174
74879ION    CL-46495   9.877   2.891   3.973
74880ION    CL-46496   7.986  28.599  14.014
74881ION    CL-46497  17.526  33.087   3.098
74882ION    CL-46498  26.336  26.082  11.507
74883ION    CL-46499  36.713  42.530   1.528
74884ION    CL-46500  19.185  38.434   4.110
74885ION    CL-46501   5.639  36.733   1.509
74886ION    CL-46502  41.788  17.196   2.711
74887ION    CL-46503  34.215  36.764  12.803
74888ION    CL-46504   7.140   8.642  14.871
74889ION    CL-46505  17.004  28.877  11.057
74890ION    CL-46506  36.081  28.391  13.586
74891ION    CL-46507  17.916  15.767   5.429
74892ION    CL-46508   7.971   0.094  12.834
74893ION    CL-46509  29.318  40.949   0.755
74894ION    CL-46510   4.802  30.705   3.485
74895ION    CL-46511  30.714  43.401  12.296
74896ION    CL-46512  23.211  14.599   2.382
74897ION    CL-46513  26.722  16.162   4.564
74898ION    CL-46514  38.732  24.505  11.110
74899ION    CL-46515  32.743  20.672   4.243
74900ION    CL-46516  36.319  18.127  13.627
74901ION    CL-46517   0.230   1.061   2.173
74902ION    CL-46518  14.617  20.749   3.093
74903ION    CL-46519  11.291  16.346  14.313
74904ION    CL-46520  33.946  21.996   0.911
74905ION    CL-46521  16.968  39.380   1.484
74906ION    CL-46522  38.593  13.669   2.413
74907ION    CL-46523  43.531   6.400  11.979
74908ION    CL-46524  18.724   0.844   0.085
74909ION    CL-46525  40.023  19.701   2.495
74910ION    CL-46526  17.779  18.780   3.625
74911ION    CL-46527  13.719  32.042   1.682
74912ION    CL-46528  43.494   0.519   4.189
74913ION    CL-46529  37.385  30.979   1.538
74914ION    CL-46530  40.568  11.118   2.175
74915ION    CL-46531   9.473  37.882  10.776
74916ION    CL-46532   5.159  36.020  14.574
74917ION    CL-46533  39.868  32.436  11.438
74918ION    CL-46534  30.352  40.929   3.221
74919ION    CL-46535   7.245  32.757   1.517
74920ION    CL-46536  38.365  38.099  14.942
74921ION    CL-46537  19.619  21.534  14.744
74922ION    CL-46538   5.587   8.405  11.610
74923ION    CL-46539  20.064  35.047  13.099
74924ION    CL-46540  26.883  36.398   3.569
74925ION    CL-46541  32.738  26.444   1.465
74926ION    CL-46542  18.032   6.523  14.508
74927ION    CL-46543  28.576  31.948   3.364
74928ION    CL-46544  10.509  36.196   2.438
74929ION    CL-46545   9.145  10.295   2.190
74930ION    CL-46546  36.527  17.570  10.668
74931ION    CL-46547  25.345   8.582  12.724
74932ION    CL-46548  12.249  16.580   0.736
74933ION    CL-46549  11.682  26.662  12.088
74934ION    CL-46550   4.410  24.412   0.905
74935ION    CL-46551  17.255  34.825  11.581
74936ION    CL-46552  27.551  24.053  14.347
74937ION    CL-46553  39.461   0.520   0.503
74938ION    CL-46554   1.188  40.250  12.551
74939ION    CL-46555  11.964  19.016  12.827
74940ION    CL-46556  25.139  19.042  14.783
74941ION    CL-46557  43.045   4.063  13.004
74942ION    CL-46558  33.262  30.208  13.719
74943ION    CL-46559  43.946  37.943  11.193
74944ION    CL-46560   6.756  44.589   4.581
74945ION    CL-46561  20.586  35.232   3.834
74946ION    CL-46562   1.171  37.581   0.525
74947ION    CL-46563  11.712  42.773   2.883
74948ION    CL-46564  14.768   1.613   3.393
74949ION    CL-46565  14.886  43.740  11.055
74950ION    CL-46566  33.688  28.131   1.464
74951ION    CL-46567  30.099  28.703  13.995
74952ION    CL-46568  37.516  26.295   0.432
74953ION    CL-46569  18.818   7.644   1.992
74954ION    CL-46570  20.749  30.889  11.127
74955ION    CL-46571  26.296  34.534  12.850
74956ION    CL-46572  44.347  44.238  11.294
74957ION    CL-46573  19.268  17.647   4.371
74958ION    CL-46574   7.885  27.623  13.770
74959ION    CL-46575  19.995  22.466   0.037
74960ION    CL-46576  43.572  10.596  12.972
74961ION    CL-46577  30.447  36.215   3.687
74962ION    CL-46578  24.463   3.183  12.958
74963ION    CL-46579  24.374  28.689   1.579
74964ION    CL-46580   7.269   7.838  12.814
74965ION    CL-46581  17.898  28.474  11.206
74966ION    CL-46582  23.442  11.583   0.891
74967ION    CL-46583  39.185  33.636  12.677
74968ION    CL-46584  17.133  28.056  11.184
74969ION    CL-46585   3.094   6.484  12.537
74970ION    CL-46586  24.200  26.247  12.996
74971ION    CL-46587  38.974  33.561   3.276
74972ION    CL-46588   5.640   7.609  12.013
74973ION    CL-46589  18.252  13.571   3.840
74974ION    CL-46590  43.279   0.634   5.159
74975ION    CL-46591  12.688  10.704   2.689
74976ION    CL-46592  29.079   8.116   2.560
74977ION    CL-46593  25.028   8.175  13.580
74978ION    CL-46594  42.845  10.853  10.846
74979ION    CL-46595  18.978  28.803  14.303
74980ION    CL-46596  17.111  26.131  13.568
74981ION    CL-46597  43.519  39.431   1.790
74982ION    CL-46598  32.918   4.440  11.487
74983ION    CL-46599  39.043  31.715  11.648
74984ION    CL-46600  35.740  11.189   2.720
74985ION    CL-46601  14.334  38.579   3.651
74986ION    CL-46602   2.146  37.143  11.577
74987ION    CL-46603  20.196   2.005  10.733
74988ION    CL-46604   9.039  35.504   3.715
74989ION    CL-46605  27.547   2.811  10.316
74990ION    CL-46606  19.044   9.000   1.543
74991ION    CL-46607   2.716  27.874   2.804
74992ION    CL-46608  18.979  22.751   3.231
74993ION    CL-46609  18.554  39.205   3.456
74994ION    CL-46610  42.490  25.570   4.382
74995ION    CL-46611  32.266  15.527  11.436
74996ION    CL-46612   5.250   6.372  10.722
74997ION    CL-46613  35.253  38.756   3.173
74998ION    CL-46614  37.025  36.904  12.261
74999ION    CL-46615  22.163  36.900  12.940
75000ION    CL-46616  18.225  41.495   3.357
75001ION    CL-46617  16.013  24.658  14.662
75002ION    CL-46618  14.572  42.788  14.264
75003ION    CL-46619  20.286  34.887  14.478
75004ION    CL-46620  24.153   6.827  14.758
75005ION    CL-46621  39.266  19.124  13.749
75006ION    CL-46622  20.949  27.522  14.753
75007ION    CL-46623  44.685  40.428   2.096
75008ION    CL-46624  38.707  24.691   1.031
75009ION    CL-46625  14.007  44.928  13.071
75010ION    CL-46626  39.357  28.542  13.294
75011ION    CL-46627   8.388  17.088  14.590
75012ION    CL-46628  28.493  23.756  11.668
75013ION    CL-46629  41.450  41.041   3.527
75014ION    CL-46630   8.644  15.091  13.195
75015ION    CL-46631   3.288   7.148   0.353
75016ION    CL-46632  36.105  16.744  13.859
75017ION    CL-46633   1.382  13.903   2.113
75018ION    CL-46634  22.259   6.896  14.969
75019ION    CL-46635  24.722  23.019  12.382
75020ION    CL-46636  33.411  19.265  12.118
75021ION    CL-46637   5.847  25.493  14.040
75022ION    CL-46638   6.025  28.692  11.628
75023ION    CL-46639  12.167  11.684  12.487
75024ION    CL-46640   9.007  27.660   3.273
75025ION    CL-46641   6.426   6.972  12.503
75026ION    CL-46642  41.051   0.726   3.670
75027ION    CL-46643  26.238  41.418   0.432
75028ION    CL-46644  27.120  24.646   1.450
75029ION    CL-46645  15.957  38.151   2.284
75030ION    CL-46646  26.011  42.590   0.052
75031ION    CL-46647  42.210   9.239   0.789
75032ION    CL-46648  27.111  24.826  11.090
75033ION    CL-46649   0.190  13.375   2.801
75034ION    CL-46650  34.845   8.798   1.486
75035ION    CL-46651  30.730   9.086   3.243
75036ION    CL-46652  34.239   0.459   0.905
75037ION    CL-46653  23.236  22.680   3.934
75038ION    CL-46654  23.984  28.860  12.580
75039ION    CL-46655  25.746   3.295  12.609
75040ION    CL-46656  31.963  10.614  14.808
75041ION    CL-46657  26.986   5.283   1.736
75042ION    CL-46658  26.694  15.726  13.841
75043ION    CL-46659  24.469  28.186  14.756
75044ION    CL-46660  26.633  22.525  13.808
75045ION    CL-46661  44.327  26.954   4.591
75046ION    CL-46662  37.997  34.160   3.701
75047ION    CL-46663   8.263   2.030  14.958
75048ION    CL-46664   5.535  11.141   4.143
75049ION    CL-46665  33.258  28.284   4.988
75050ION    CL-46666   0.703   4.710   2.347
75051ION    CL-46667   5.633  43.352   0.584
75052ION    CL-46668   8.154  26.439   1.700
75053ION    CL-46669  40.587  36.409  10.911
75054ION    CL-46670  15.291  44.264   1.183
75055ION    CL-46671  16.514  41.352  14.409
75056ION    CL-46672  40.029  10.795   5.107
75057ION    CL-46673   8.087   6.389  13.024
75058ION    CL-46674   4.659  21.224   1.334
75059ION    CL-46675  24.505  20.517   3.587
75060ION    CL-46676  42.778  44.401   9.904
75061ION    CL-46677  10.586  23.182   3.833
75062ION    CL-46678   3.192  19.200   0.495
75063ION    CL-46679  26.073   2.406  12.022
75064ION    CL-46680  21.001  38.042   4.161
75065ION    CL-46681  16.327  23.451  13.836
75066ION    CL-46682  31.685   6.839   4.156
75067ION    CL-46683  27.382  37.992  10.710
75068ION    CL-46684  24.703  26.456   3.694
75069ION    CL-46685  16.189   7.806   1.725
75070ION    CL-46686  11.279  12.075   4.654
75071ION    CL-46687  25.085   8.531   4.627
75072ION    CL-46688   1.341  38.431   4.019
75073ION    CL-46689  42.607  25.702  11.614
75074ION    CL-46690   2.023  34.755   4.037
75075ION    CL-46691   0.567  19.151   3.653
75076ION    CL-46692  16.252  18.084   2.923
75077ION    CL-46693   9.657  20.048   0.715
75078ION    CL-46694  42.407  17.471  12.029
75079ION    CL-46695  14.705  12.384  13.866
75080ION    CL-46696  38.480  14.351   0.315
75081ION    CL-46697  34.376  37.912   0.671
75082ION    CL-46698   6.921  38.094   2.237
75083ION    CL-46699  38.599  25.980   2.099
75084ION    CL-46700   9.830  39.248  11.300
75085ION    CL-46701   1.442  36.780  14.862
75086ION    CL-46702  32.828  41.318  10.897
75087ION    CL-46703  41.787  24.442  13.347
75088ION    CL-46704  13.021  31.561   3.719
75089ION    CL-46705  43.377   2.014   1.902
75090ION    CL-46706  41.419  28.476   4.121
75091ION    CL-46707   5.964  31.291   0.739
75092ION    CL-46708  22.378  15.326  14.828
75093ION    CL-46709   5.157  20.734   3.231
75094ION    CL-46710  17.701  33.459  10.316
75095ION    CL-46711  11.379   6.152   2.215
75096ION    CL-46712  35.651  11.320  12.208
75097ION    CL-46713  10.231  12.258  13.527
75098ION    CL-46714   4.363  30.650  11.932
75099ION    CL-46715   5.293  23.476   2.402
75100ION    CL-46716  28.010   4.608   1.500
75101ION    CL-46717   2.665  23.090   3.715
75102ION    CL-46718  39.475  31.123  12.850
75103ION    CL-46719  30.742  43.385  10.579
75104ION    CL-46720  42.067  18.928   1.352
75105ION    CL-46721  42.531  11.399  12.024
75106ION    CL-46722  14.627  23.424   1.589
75107ION    CL-46723  43.095  23.348  11.897
75108ION    CL-46724  22.566  18.357   4.351
75109ION    CL-46725  41.053   9.375   1.619
75110ION    CL-46726   0.283   0.645   4.602
75111ION    CL-46727  38.819  41.881   3.455
75112ION    CL-46728  32.514  15.385  13.812
75113ION    CL-46729  25.183  23.033  11.081
75114ION    CL-46730  22.476   0.055   0.286
75115ION    CL-46731  35.876   9.808   1.959
75116ION    CL-46732   2.519  36.544   0.396
75117ION    CL-46733  14.479  38.226   0.757
75118ION    CL-46734  12.397   6.223   3.231
75119ION    CL-46735   2.934  37.741  12.136
75120ION    CL-46736  38.301   3.516   1.843
75121ION    CL-46737  19.159  37.387   4.885
75122ION    CL-46738  28.763  44.438  13.536
75123ION    CL-46739  43.224  25.078  14.016
75124ION    CL-46740  40.985  26.681  13.818
75125ION    CL-46741   6.784  29.761   2.464
75126ION    CL-46742  30.050  16.960   1.999
75127ION    CL-46743   2.336  43.375  10.767
75128ION    CL-46744   7.170   3.563   3.139
75129ION    CL-46745  36.592  26.398   2.866
75130ION    CL-46746  34.362   8.791   3.959
75131ION    CL-46747  29.099   1.322   1.764
75132ION    CL-46748  27.057  19.108   4.929
75133ION    CL-46749  29.392  39.719  13.005
75134ION    CL-46750  12.863   7.181   4.761
75135ION    CL-46751  23.746   4.910  12.479
75136ION    CL-46752  12.341   4.091   1.976
75137ION    CL-46753   5.154   4.285   3.115
75138ION    CL-46754  23.405  35.846  12.035
75139ION    CL-46755   6.129  25.241   4.099
75140ION    CL-46756   4.325  40.280   4.429
75141ION    CL-46757  36.816  20.536  11.104
75142ION    CL-46758  24.524  15.951  14.861
75143ION    CL-46759  37.406   3.792  13.721
75144ION    CL-46760  18.113  31.873  12.381
75145ION    CL-46761  37.391  38.493   1.622
75146ION    CL-46762   5.794  13.409  10.671
75147ION    CL-46763  13.605   0.662  12.524
75148ION    CL-46764  36.461  34.931  14.767
75149ION    CL-46765  37.102  16.818  13.845
75150ION    CL-46766  19.321   5.478   9.880
75151ION    CL-46767   4.740  15.466  12.076
75152ION    CL-46768  14.566   3.738  14.458
75153ION    CL-46769  43.340  16.075  10.375
75154ION    CL-46770  39.892   9.437  13.565
75155ION    CL-46771  14.235  32.164  10.725
75156ION    CL-46772  35.610  27.132  13.117
75157ION    CL-46773  42.334  35.048   3.699
75158ION    CL-46774  22.716   6.385  11.483
75159ION    CL-46775  24.006  22.014  11.157
75160ION    CL-46776  28.382   3.457  13.205
75161ION    CL-46777  23.303  28.049  12.908
75162ION    CL-46778  29.691  25.148   1.150
75163ION    CL-46779  15.446  40.975  11.625
75164ION    CL-46780  37.916  31.607  11.247
75165ION    CL-46781   4.802  25.378  12.344
75166ION    CL-46782  23.648   7.279  12.148
75167ION    CL-46783   9.701   8.584   0.280
75168ION    CL-46784  38.305  17.107   4.936
75169ION    CL-46785   3.246  14.875   2.031
75170ION    CL-46786  35.621  10.216   0.265
75171ION    CL-46787   5.543  35.987  13.651
75172ION    CL-46788  17.698   0.010   4.492
75173ION    CL-46789   4.797  38.285  14.819
75174ION    CL-46790  38.051  42.257   3.588
75175ION    CL-46791  27.909  13.212  11.441
75176ION    CL-46792   1.217   8.868   3.234
75177ION    CL-46793   0.677  37.719  14.567
75178ION    CL-46794  24.076   7.398   9.956
75179ION    CL-46795  27.706  23.053   0.844
75180ION    CL-46796   1.997  12.290  13.693
75181ION    CL-46797  26.359  29.438   4.001
75182ION    CL-46798  29.871  14.620   4.814
75183ION    CL-46799  25.099  28.633   1.181
75184ION    CL-46800   3.492  19.757  12.877
75185ION    CL-46801  31.978  36.609  12.087
75186ION    CL-46802  22.540  35.595   1.933
75187ION    CL-46803  16.424  20.068  11.178
75188ION    CL-46804  36.352  11.201   4.028
75189ION    CL-46805  26.602   1.456   2.615
75190ION    CL-46806   6.889  37.576  14.204
75191ION    CL-46807  43.432  43.520  13.455
75192ION    CL-46808  33.043  19.749   3.870
75193ION    CL-46809  27.641  29.923   1.096
75194ION    CL-46810  19.402  32.220   2.850
75195ION    CL-46811  33.222  14.569   3.153
75196ION    CL-46812   1.846  38.350  14.306
75197ION    CL-46813  42.820   6.741  10.870
75198ION    CL-46814  35.641  25.109  10.794
75199ION    CL-46815  32.049  42.289  14.250
75200ION    CL-46816  34.292  28.111   2.820
75201ION    CL-46817  24.111  20.417  12.051
75202ION    CL-46818   2.906  43.564   0.474
75203ION    CL-46819  10.385   5.559   0.902
75204ION    CL-46820  38.762  24.012  12.585
75205ION    CL-46821   6.094   7.654   9.651
75206ION    CL-46822  40.878  36.202   3.496
75207ION    CL-46823  10.283  31.846   1.836
75208ION    CL-46824  26.779  37.342   3.884
75209ION    CL-46825   9.788  11.098   5.003
75210ION    CL-46826  14.935   9.681  12.938
75211ION    CL-46827  15.640  17.974  13.140
75212ION    CL-46828  24.784  27.038  13.444
75213ION    CL-46829  15.938   8.413  11.192
75214ION    CL-46830  24.133   2.291   0.441
75215ION    CL-46831  25.369  28.587  14.944
75216ION    CL-46832  16.203  38.038   1.308
75217ION    CL-46833   8.247  37.262   0.815
75218ION    CL-46834   1.606  10.739   0.581
75219ION    CL-46835  43.540  23.273  10.977
75220ION    CL-46836  41.609  25.953  11.511
75221ION    CL-46837  40.545  32.883   2.610
75222ION    CL-46838   2.510   6.658  13.831
75223ION    CL-46839   4.882  11.631  14.846
75224ION    CL-46840  10.452   3.655  11.159
75225ION    CL-46841   4.763   1.442   4.634
75226ION    CL-46842  29.886  10.115   1.683
75227ION    CL-46843  41.327  39.345   3.372
75228ION    CL-46844  39.116  12.881  10.138
75229ION    CL-46845  28.576  21.283   1.370
75230ION    CL-46846  44.332  34.155   1.165
75231ION    CL-46847  30.157  24.623   0.766
75232ION    CL-46848   6.803  33.883  14.715
75233ION    CL-46849  43.817  14.776   2.301
75234ION    CL-46850  30.885   6.220  11.380
75235ION    CL-46851  16.446  43.976  10.725
75236ION    CL-46852  13.036  25.735   2.219
75237ION    CL-46853   0.753  39.977   1.171
75238ION    CL-46854   4.200  22.049  13.144
75239ION    CL-46855   1.112   8.402  13.100
75240ION    CL-46856  22.679   8.140   2.352
75241ION    CL-46857   2.035  30.052  13.968
75242ION    CL-46858   3.873  12.418  12.625
75243ION    CL-46859  22.084  32.201   5.133
75244ION    CL-46860  19.794   4.888  11.251
75245ION    CL-46861  35.083  10.254  13.441
75246ION    CL-46862  38.242  29.954  14.532
75247ION    CL-46863  10.877   4.687  13.279
75248ION    CL-46864   5.298   2.521   3.775
75249ION    CL-46865  14.049  27.047   0.082
75250ION    CL-46866  20.083  43.912   4.300
75251ION    CL-46867  17.124  43.053  12.831
75252ION    CL-46868  15.612  38.620   9.914
75253ION    CL-46869  34.851  39.787   0.933
75254ION    CL-46870   7.163  38.795   0.923
75255ION    CL-46871   0.393  15.831  11.344
75256ION    CL-46872  14.138   4.031   0.551
75257ION    CL-46873  25.135  27.185  12.133
75258ION    CL-46874  30.660  18.535   5.065
75259ION    CL-46875  41.307   9.375  12.878
75260ION    CL-46876  27.244  21.367   0.005
75261ION    CL-46877   2.660  25.802   2.804
75262ION    CL-46878   9.851  23.427  12.920
75263ION    CL-46879  42.889  27.934   5.010
75264ION    CL-46880   4.932  28.110   1.926
75265ION    CL-46881  17.305  24.228  11.501
75266ION    CL-46882   5.862  22.272  11.839
75267ION    CL-46883  25.878  11.242  14.681
75268ION    CL-46884   3.499   1.138   4.636
75269ION    CL-46885   5.661   8.737  14.945
75270ION    CL-46886   6.004  30.359   3.238
75271ION    CL-46887  21.316  22.198  10.717
75272ION    CL-46888  28.852   6.036   2.028
75273ION    CL-46889   5.808  39.309  13.224
75274ION    CL-46890  12.716  13.094   0.363
75275ION    CL-46891  15.948   4.640  12.342
75276ION    CL-46892  38.482  29.309   0.344
75277ION    CL-46893  32.437  24.210  12.151
75278ION    CL-46894  30.727   3.057   1.180
75279ION    CL-46895   8.841  23.948  14.208
75280ION    CL-46896  41.965  32.881   2.236
75281ION    CL-46897  43.104  26.215   3.643
75282ION    CL-46898  28.255  31.481   4.189
75283ION    CL-46899  16.539  19.157  11.049
75284ION    CL-46900   7.622  18.258  14.372
75285ION    CL-46901   4.863  38.069   4.874
75286ION    CL-46902  14.785   2.496  10.372
75287ION    CL-46903   1.980   5.262   2.623
75288ION    CL-46904  27.310  21.306  11.155
75289ION    CL-46905  40.668   1.171   1.593
75290ION    CL-46906   4.422  21.023  12.990
75291ION    CL-46907  42.844  13.766  10.324
75292ION    CL-46908  10.124  39.260   0.269
75293ION    CL-46909  42.048  28.058   1.320
75294ION    CL-46910  18.588   8.160   1.167
75295ION    CL-46911  29.759  11.113  10.918
75296ION    CL-46912  27.265   7.852  13.454
75297ION    CL-46913  21.063  24.005   0.421
75298ION    CL-46914  44.499  43.421   2.395
75299ION    CL-46915  37.729  16.782   1.403
75300ION    CL-46916  19.663   1.789   0.431
75301ION    CL-46917   0.246  16.420  12.138
75302ION    CL-46918  11.787  26.097  11.094
75303ION    CL-46919   2.490  22.061  13.851
75304ION    CL-46920  20.236  15.331  12.616
75305ION    CL-46921   2.978  25.280   5.294
75306ION    CL-46922   7.744  11.852   5.140
75307ION    CL-46923  19.774  26.848   9.617
75308ION    CL-46924  43.376  40.380  10.902
75309ION    CL-46925  37.446   8.653  11.253
75310ION    CL-46926  13.872  11.894   4.451
75311ION    CL-46927  19.075  12.773   2.986
75312ION    CL-46928  43.368  31.045  13.723
75313ION    CL-46929  17.878  25.051  14.918
75314ION    CL-46930  26.424   2.736   0.762
75315ION    CL-46931   6.467  34.296  12.140
75316ION    CL-46932  24.952  42.425   4.048
75317ION    CL-46933  36.334  16.800   0.419
75318ION    CL-46934  39.608  33.317  11.219
75319ION    CL-46935  43.400  44.341   2.797
75320ION    CL-46936  26.319  24.504   2.242
75321ION    CL-46937   7.047  19.560  14.141
75322ION    CL-46938   6.219  28.913   9.836
75323ION    CL-46939   0.509  26.716   0.009
75324ION    CL-46940   8.167  32.634  11.207
75325ION    CL-46941  20.080  37.325   0.962
75326ION    CL-46942   6.847  12.195   4.250
75327ION    CL-46943  36.422  16.788  12.522
75328ION    CL-46944  38.901  43.184   4.628
75329ION    CL-46945  21.135  27.108   2.283
75330ION    CL-46946  37.427   1.435  13.406
75331ION    CL-46947  26.351  27.330  10.917
75332ION    CL-46948  11.814  34.409   4.891
75333ION    CL-46949  26.192  42.739  12.799
75334ION    CL-46950   0.595  26.679  13.630
75335ION    CL-46951  43.732   7.509  11.066
75336ION    CL-46952  42.442  22.864  11.315
75337ION    CL-46953  40.887   6.753   4.077
75338ION    CL-46954  31.474  41.029  13.957
75339ION    CL-46955  27.549  34.613  14.383
75340ION    CL-46956  39.065  39.455   0.439
75341ION    CL-46957  37.798  30.599   3.810
75342ION    CL-46958  24.453  25.183  14.651
75343ION    CL-46959  41.363  37.376   5.105
75344ION    CL-46960  44.158  38.512  14.051
75345ION    CL-46961  19.517  11.457  14.446
75346ION    CL-46962  17.610  22.708  14.850
75347ION    CL-46963  29.827  13.014   0.003
75348ION    CL-46964  25.209  38.747   0.277
75349ION    CL-46965  20.509  32.389   1.518
75350ION    CL-46966   8.418  38.945  10.959
75351ION    CL-46967  34.520  18.218  14.330
75352ION    CL-46968  43.375  26.001  13.529
75353ION    CL-46969  37.192  38.621   0.015
75354ION    CL-46970  28.461   4.441   4.157
75355ION    CL-46971  19.212   4.853  13.096
75356ION    CL-46972  39.501  21.310  12.956
75357ION    CL-46973  36.924  16.940   2.846
75358ION    CL-46974  10.415  15.015  10.005
75359ION    CL-46975  38.779  20.839   0.490
75360ION    CL-46976  11.024  13.703  14.680
75361ION    CL-46977   3.536   2.277  12.645
75362ION    CL-46978  27.909  17.938   1.626
75363ION    CL-46979  11.800  36.203  11.247
75364ION    CL-46980  20.793  18.272   2.190
75365ION    CL-46981  13.150  17.492   0.922
75366ION    CL-46982  25.581  25.850   0.839
75367ION    CL-46983   7.877   0.725  13.943
75368ION    CL-46984  39.142   7.243   1.856
75369ION    CL-46985  10.292  44.786  13.969
75370ION    CL-46986  31.582  43.033  11.960
75371ION    CL-46987   0.520  37.744  10.541
75372ION    CL-46988  35.028  15.274  14.061
75373ION    CL-46989  33.040  27.286  12.517
75374ION    CL-46990  33.856  28.939  10.463
75375ION    CL-46991  20.490  14.197   0.931
75376ION    CL-46992  35.294   6.703   3.357
75377ION    CL-46993   1.392   9.626  14.975
75378ION    CL-46994  20.015  15.634   0.536
75379ION    CL-46995  41.984  14.791  10.691
75380ION    CL-46996  26.567  18.206   4.965
75381ION    CL-46997   4.825   0.594   0.150
75382ION    CL-46998  23.374  43.713  11.681
75383ION    CL-46999  27.179  16.569   5.354
75384ION    CL-47000  14.785   9.327   4.519
75385ION    CL-47001  37.793   1.125   1.167
75386ION    CL-47002  20.413  40.975   4.160
75387ION    CL-47003   4.233  21.422   3.725
75388ION    CL-47004  19.846  25.896   4.989
75389ION    CL-47005  42.006  28.225  12.031
75390ION    CL-47006  31.163  42.130  10.254
75391ION    CL-47007  24.217  23.512  13.091
75392ION    CL-47008   6.950  10.371  13.912
75393ION    CL-47009  14.662  32.356   1.796
75394ION    CL-47010  14.785  11.750   1.232
75395ION    CL-47011  29.624  36.447  13.434
75396ION    CL-47012   0.522  12.176   4.326
75397ION    CL-47013   8.789  17.605  11.395
75398ION    CL-47014  33.390   4.392  14.994
75399ION    CL-47015   5.917  40.586   4.915
75400ION    CL-47016  16.785  31.017  14.825
75401ION    CL-47017  38.761  37.656   3.488
75402ION    CL-47018   2.964  17.627  14.877
75403ION    CL-47019   6.245  41.791  11.633
75404ION    CL-47020  23.698  29.678   1.226
75405ION    CL-47021   4.683  29.284   2.186
75406ION    CL-47022  22.919  21.013   0.393
75407ION    CL-47023   4.893  20.683  10.868
75408ION    CL-47024  17.581  10.575  12.515
75409ION    CL-47025  43.612  21.599  11.328
75410ION    CL-47026   4.543  21.658  14.759
75411ION    CL-47027  17.340  24.506  13.015
75412ION    CL-47028  20.124  24.866  12.410
75413ION    CL-47029  29.378  24.349  10.332
75414ION    CL-47030   1.863  44.415   4.720
75415ION    CL-47031  34.422  17.026   4.873
75416ION    CL-47032  21.452   5.285  14.702
75417ION    CL-47033  34.251   1.332  13.246
75418ION    CL-47034  24.413  44.759   1.093
75419ION    CL-47035  22.501  21.013  10.173
75420ION    CL-47036   8.846  36.455   4.086
75421ION    CL-47037  19.613  25.125   4.155
75422ION    CL-47038  10.376   2.352   0.499
75423ION    CL-47039  13.833  37.109   0.682
75424ION    CL-47040  36.818  31.140   2.889
75425ION    CL-47041  25.985  17.653   0.254
75426ION    CL-47042  43.141   0.366   0.992
75427ION    CL-47043  39.033  41.362   1.950
75428ION    CL-47044  43.017  11.820  10.522
75429ION    CL-47045   9.640  36.452   1.818
75430ION    CL-47046  23.306   2.230  13.048
75431ION    CL-47047  41.441  33.389  14.613
75432ION    CL-47048  44.940   0.351  11.444
75433ION    CL-47049  14.660  27.542   1.866
75434ION    CL-47050  30.236  38.807   1.824
75435ION    CL-47051  23.414  21.388   3.211
75436ION    CL-47052  15.261   3.242  14.508
75437ION    CL-47053   4.865  10.445  14.399
75438ION    CL-47054   3.822  32.042  11.162
75439ION    CL-47055  27.516  13.138   3.657
75440ION    CL-47056  15.579  20.318  11.287
75441ION    CL-47057  41.068  18.692  12.732
75442ION    CL-47058  15.594  27.575   4.295
75443ION    CL-47059   6.953  16.743  11.189
75444ION    CL-47060  16.411  16.845   0.629
75445ION    CL-47061   3.426  10.514   3.646
75446ION    CL-47062  11.024  25.315  12.143
75447ION    CL-47063  14.332  16.778  11.918
75448ION    CL-47064  15.811  39.408  14.123
75449ION    CL-47065  14.336  14.174   2.571
75450ION    CL-47066  22.994  28.450  14.764
75451ION    CL-47067   6.890   5.640   0.122
75452ION    CL-47068  33.360   3.798   0.673
75453ION    CL-47069   5.380  17.285  10.949
75454ION    CL-47070  42.549  42.725   2.394
75455ION    CL-47071  16.242  39.721  11.121
75456ION    CL-47072  11.804  41.754   4.135
75457ION    CL-47073  44.413  24.246  10.458
75458ION    CL-47074  25.285  24.905  14.064
75459ION    CL-47075  28.151   9.858  11.645
75460ION    CL-47076  34.990  17.322  14.051
75461ION    CL-47077  11.904  32.466  13.025
75462ION    CL-47078  17.110  10.395  10.752
75463ION    CL-47079  15.469   1.783   5.210
75464ION    CL-47080  29.716  10.150   3.360
75465ION    CL-47081  14.419  36.949  14.843
75466ION    CL-47082   7.703   4.884  14.807
75467ION    CL-47083  25.494  42.679   3.154
75468ION    CL-47084  37.833  13.537   1.721
75469ION    CL-47085  41.867  14.733   4.416
75470ION    CL-47086  40.284  27.575   2.890
75471ION    CL-47087  42.760  36.836   1.400
75472ION    CL-47088  19.566  24.267  12.984
75473ION    CL-47089  20.604  27.042  12.199
75474ION    CL-47090  26.337   2.969   1.750
75475ION    CL-47091   4.330  36.478  10.799
75476ION    CL-47092  28.431  28.627   3.718
75477ION    CL-47093   0.714  37.158   4.914
75478ION    CL-47094  12.997  12.135   0.326
75479ION    CL-47095  15.062  42.968   2.771
75480ION    CL-47096  24.119  20.542  13.406
75481ION    CL-47097  37.909  44.382   3.242
75482ION    CL-47098  37.942  28.597   3.555
75483ION    CL-47099   6.657  15.678   3.763
75484ION    CL-47100  10.768   3.613   0.226
75485ION    CL-47101   2.403  23.091   0.841
75486ION    CL-47102  39.817   6.239  11.343
75487ION    CL-47103   2.537  17.743  12.633
75488ION    CL-47104  17.718  10.925  14.170
75489ION    CL-47105  16.862   1.959  12.045
75490ION    CL-47106   2.097   8.307  12.180
75491ION    CL-47107  15.026  38.048   1.935
75492ION    CL-47108  39.316   7.791  12.912
75493ION    CL-47109   1.951  43.302  12.514
75494ION    CL-47110  44.834   4.242   4.967
75495ION    CL-47111  17.870  17.169   4.997
75496ION    CL-47112   3.024  34.153  12.296
75497ION    CL-47113   0.620  40.312   2.430
75498ION    CL-47114  35.914  31.139   2.303
75499ION    CL-47115  28.762  17.598   1.229
75500ION    CL-47116  43.441  22.085  12.314
75501ION    CL-47117  38.550   2.840  10.774
75502ION    CL-47118  42.069  28.004  13.005
75503ION    CL-47119  23.094   7.816   4.924
75504ION    CL-47120  25.134  21.319   3.702
75505ION    CL-47121  33.782  42.055   1.388
75506ION    CL-47122  15.353  39.545  11.544
75507ION    CL-47123  15.396   1.769  10.847
75508ION    CL-47124  32.579  36.125  14.752
75509ION    CL-47125  32.472  23.131  12.486
75510ION    CL-47126   1.812  34.028   0.864
75511ION    CL-47127  27.513  40.075   1.894
75512ION    CL-47128  38.413  18.538   0.753
75513ION    CL-47129  27.977  24.552  10.672
75514ION    CL-47130  13.632   9.607  11.343
75515ION    CL-47131   0.195  43.690   0.293
75516ION    CL-47132  31.503  40.654   2.299
75517ION    CL-47133   1.888  13.355  13.828
75518ION    CL-47134   9.859  29.691   2.407
75519ION    CL-47135  30.183  40.048   3.405
75520ION    CL-47136   9.441  39.786   1.998
75521ION    CL-47137  11.903   0.731   5.002
75522ION    CL-47138  16.195   9.341   4.349
75523ION    CL-47139  13.669   3.608  10.864
75524ION    CL-47140  24.443  25.165   4.193
75525ION    CL-47141  10.982  39.000   0.715
75526ION    CL-47142  28.144   7.286   4.260
75527ION    CL-47143   5.664  28.529  12.676
75528ION    CL-47144  13.792  23.245   0.191
75529ION    CL-47145  41.015  16.418  14.088
75530ION    CL-47146  26.678  27.131  12.337
75531ION    CL-47147   7.425  10.592   4.316
75532ION    CL-47148  14.328  14.601   0.872
75533ION    CL-47149  32.678  44.150   2.415
75534ION    CL-47150  14.085  39.532   0.621
75535ION    CL-47151  31.637  10.855  13.482
75536ION    CL-47152   4.221   3.043   0.361
75537ION    CL-47153  39.309  14.555  13.354
75538ION    CL-47154  31.353  30.501  14.710
75539ION    CL-47155  38.899   0.093  11.155
75540ION    CL-47156  33.553   8.163   4.602
75541ION    CL-47157  16.180  26.350  10.721
75542ION    CL-47158  30.627  18.072  10.982
75543ION    CL-47159  24.688  18.150  11.534
75544ION    CL-47160  42.210  20.280   4.197
75545ION    CL-47161  27.441  39.618  11.749
75546ION    CL-47162  15.951   3.847  10.525
75547ION    CL-47163  30.132   6.110  13.362
75548ION    CL-47164  30.113  43.054   3.678
75549ION    CL-47165  20.833  17.488   1.163
75550ION    CL-47166  37.581  42.033   2.724
75551ION    CL-47167   3.856  23.091  13.559
75552ION    CL-47168  15.302  16.104  10.085
75553ION    CL-47169  39.079  32.987  11.709
75554ION    CL-47170  16.736   3.024   1.124
75555ION    CL-47171  42.017   4.834  12.444
75556ION    CL-47172  30.086  21.545  11.132
75557ION    CL-47173  33.439  27.700  10.729
75558ION    CL-47174  38.339   1.377   3.690
75559ION    CL-47175  18.810   8.351  10.321
75560ION    CL-47176  20.320  34.556   2.561
75561ION    CL-47177   2.522  41.832  13.474
75562ION    CL-47178  32.740  36.875  11.126
75563ION    CL-47179  32.026  34.846   2.692
75564ION    CL-47180  21.309  23.114  13.962
75565ION    CL-47181  40.996  20.027   1.321
75566ION    CL-47182  34.045  31.451  14.967
75567ION    CL-47183  12.840  14.274  13.874
75568ION    CL-47184  37.108  18.906  14.146
75569ION    CL-47185   7.417  23.004   1.794
75570ION    CL-47186  12.844  15.791   2.293
75571ION    CL-47187  28.475  15.486   0.582
75572ION    CL-47188  24.635  32.200   1.923
75573ION    CL-47189   5.345  14.917  13.627
75574ION    CL-47190   3.325  24.711  12.931
75575ION    CL-47191  34.267  31.489  13.655
75576ION    CL-47192  13.272  33.185   1.324
75577ION    CL-47193  32.140   4.354   1.938
75578ION    CL-47194  31.574  20.872   2.079
75579ION    CL-47195  22.868  33.045  10.336
75580ION    CL-47196  43.884  19.372   0.942
75581ION    CL-47197  35.406  30.553   1.217
75582ION    CL-47198  34.364  34.884   1.712
75583ION    CL-47199   6.639  35.548  14.825
75584ION    CL-47200  30.809  22.228  13.202
75585ION    CL-47201  40.275  14.671  13.815
75586ION    CL-47202  29.178   8.610  14.444
75587ION    CL-47203   3.927  36.104   2.844
75588ION    CL-47204  14.443  43.499  14.956
75589ION    CL-47205  11.778   8.341  14.568
75590ION    CL-47206  15.235  19.918  12.601
75591ION    CL-47207  24.960  41.558   2.461
75592ION    CL-47208  18.473   0.276  10.084
75593ION    CL-47209   0.403  24.778  14.811
75594ION    CL-47210  39.553  10.929   1.393
75595ION    CL-47211  28.823  20.472   2.379
75596ION    CL-47212  29.203  34.516  11.056
75597ION    CL-47213  16.247   1.354   3.175
75598ION    CL-47214  25.473  12.766  14.818
75599ION    CL-47215  43.678  18.042  11.091
75600ION    CL-47216  23.071  23.901  14.718
75601ION    CL-47217  37.654  36.436  13.025
75602ION    CL-47218  24.140  18.996  10.560
75603ION    CL-47219  40.702  40.767  14.933
75604ION    CL-47220  36.177  36.883  14.350
75605ION    CL-47221  35.909  21.418  14.605
75606ION    CL-47222   7.972   9.265  10.891
75607ION    CL-47223  16.952  16.371  13.545
75608ION    CL-47224  36.319  14.988  11.736
75609ION    CL-47225  30.183  27.937  11.708
75610ION    CL-47226  25.135  42.440  14.465
75611ION    CL-47227   1.138  35.242   1.922
75612ION    CL-47228  32.352   8.974   3.677
75613ION    CL-47229  19.336  42.572  10.470
75614ION    CL-47230  31.476  32.595   4.215
75615ION    CL-47231  44.514  31.151   3.279
75616ION    CL-47232   5.406   0.810   2.798
75617ION    CL-47233  10.183  20.933   0.336
75618ION    CL-47234  30.101  40.761   0.330
75619ION    CL-47235  23.027  30.743  11.656
75620ION    CL-47236  20.178  40.415   3.335
75621ION    CL-47237  13.056   7.070  12.120
75622ION    CL-47238  41.166  32.061   4.018
75623ION    CL-47239  31.652  37.377   3.704
75624ION    CL-47240  14.078   4.891   0.854
75625ION    CL-47241  12.164  37.110  14.582
75626ION    CL-47242   3.138  12.584  13.844
75627ION    CL-47243  16.960  24.843  14.374
75628ION    CL-47244  43.011  11.607   4.226
75629ION    CL-47245  38.324   9.362   2.376
75630ION    CL-47246  36.623  37.190   4.443
75631ION    CL-47247  37.877  17.510  12.506
75632ION    CL-47248   5.154  32.856  14.206
75633ION    CL-47249  40.959  21.025  13.379
75634ION    CL-47250  35.706  38.232   0.749
75635ION    CL-47251  23.234  35.156  13.508
75636ION    CL-47252  41.981  25.865   0.209
75637ION    CL-47253  14.605  42.073   0.950
75638ION    CL-47254   6.134  37.297   3.221
75639ION    CL-47255   8.835  38.791   5.087
75640ION    CL-47256  15.250  41.028   4.493
75641ION    CL-47257  32.065  29.548   2.895
75642ION    CL-47258   1.777   7.795  14.234
75643ION    CL-47259  41.497  18.737   3.782
75644ION    CL-47260  43.888  38.988   4.917
75645ION    CL-47261  35.309  32.769   4.109
75646ION    CL-47262  19.106  18.097   1.154
75647ION    CL-47263  36.741  29.989   4.245
75648ION    CL-47264  30.932  17.181   0.028
75649ION    CL-47265  42.496  15.542   0.637
75650ION    CL-47266  42.486   7.339   2.347
75651ION    CL-47267  44.125  41.949   2.571
75652ION    CL-47268  44.349   6.896  11.295
75653ION    CL-47269   8.648  26.736   3.409
75654ION    CL-47270  29.467  27.187  11.106
75655ION    CL-47271   9.769   9.485   0.323
75656ION    CL-47272  23.651  12.031   0.230
75657ION    CL-47273   4.569   1.524   9.681
75658ION    CL-47274  23.361  42.546   4.546
75659ION    CL-47275  22.296  21.288   1.946
75660ION    CL-47276  28.576  13.472  12.139
75661ION    CL-47277   9.087  25.840   2.979
75662ION    CL-47278  39.988   1.609   3.431
75663ION    CL-47279   1.483  31.968  13.388
75664ION    CL-47280   7.929  44.434   3.768
75665ION    CL-47281   7.431  35.728   2.846
75666ION    CL-47282  18.038   1.689  14.289
75667ION    CL-47283   5.109  34.589   3.336
75668ION    CL-47284  27.659   2.917  13.336
75669ION    CL-47285  21.721  31.862  11.971
75670ION    CL-47286  19.566  19.513   3.522
75671ION    CL-47287  11.685  34.444  13.852
75672ION    CL-47288  18.557  42.180   3.805
75673ION    CL-47289  31.493  32.611   2.339
75674ION    CL-47290  23.692   2.908  11.219
75675ION    CL-47291  17.510  19.695   2.773
75676ION    CL-47292  39.182  32.439   0.405
75677ION    CL-47293   4.752   6.586   4.053
75678ION    CL-47294  36.148  26.424  13.993
75679ION    CL-47295  39.053  11.413  11.125
75680ION    CL-47296  14.202  41.266   2.478
75681ION    CL-47297   0.075  39.910  14.630
75682ION    CL-47298  24.202  14.190   5.086
75683ION    CL-47299  22.400  44.835  13.606
75684ION    CL-47300  11.647  44.187  11.984
75685ION    CL-47301   8.325   3.361  13.447
75686ION    CL-47302  12.561  32.195   4.145
75687ION    CL-47303  40.031  28.603  10.639
75688ION    CL-47304   1.633   6.712   3.089
75689ION    CL-47305  17.780  30.079   0.944
75690ION    CL-47306  12.660   9.445   1.020
75691ION    CL-47307   7.556   2.642   3.195
75692ION    CL-47308  33.068  17.019   0.065
75693ION    CL-47309  40.822  34.559  12.966
75694ION    CL-47310  41.376  26.788  11.254
75695ION    CL-47311   0.688  36.193   1.769
75696ION    CL-47312  38.885   2.132  13.691
75697ION    CL-47313  39.294   0.992  11.445
75698ION    CL-47314  11.833   7.823  11.985
75699ION    CL-47315  13.023   2.252  10.977
75700ION    CL-47316   7.741  38.680  11.502
75701ION    CL-47317   1.793  15.832  13.483
75702ION    CL-47318  31.151   4.094   2.793
75703ION    CL-47319  19.866   0.900   4.298
75704ION    CL-47320  32.869  19.839   0.494
75705ION    CL-47321  34.046  16.774  12.732
75706ION    CL-47322   3.028  17.289   3.193
75707ION    CL-47323  37.429  16.901   4.878
75708ION    CL-47324  35.591   1.781   4.849
75709ION    CL-47325  10.557  14.124   9.889
75710ION    CL-47326  28.247  40.696  11.579
75711ION    CL-47327   8.720  39.303   3.329
75712ION    CL-47328  14.337  16.334  13.786
75713ION    CL-47329   7.453  11.549  14.459
75714ION    CL-47330  11.253  34.748   2.921
75715ION    CL-47331  10.339  30.162   3.033
75716ION    CL-47332  36.026   5.942  13.798
75717ION    CL-47333  41.369  43.164   0.986
75718ION    CL-47334  28.362  20.544  12.078
75719ION    CL-47335  27.638  14.739  14.910
75720ION    CL-47336   4.805  31.216  10.862
75721ION    CL-47337  24.571  25.981   1.019
75722ION    CL-47338  19.586  43.837   3.261
75723ION    CL-47339  13.306  16.039   1.388
75724ION    CL-47340  36.084   0.895  12.947
75725ION    CL-47341  18.185  29.990   3.150
75726ION    CL-47342  35.132  20.708   4.056
75727ION    CL-47343  12.478  36.235  10.350
75728ION    CL-47344  27.177  23.541   1.758
75729ION    CL-47345  37.904  38.106   4.214
75730ION    CL-47346  24.202  24.249   1.210
75731ION    CL-47347   2.519  31.394  14.553
75732ION    CL-47348  33.005  16.260  14.680
75733ION    CL-47349   1.277  35.705   2.798
75734ION    CL-47350  31.334  19.023   2.395
75735ION    CL-47351  39.943   2.852   0.437
75736ION    CL-47352  23.320  20.393   3.215
75737ION    CL-47353  30.604   4.580   1.846
75738ION    CL-47354  38.194  43.366  12.584
75739ION    CL-47355  23.633  42.754  14.954
75740ION    CL-47356  29.149  33.407  13.772
75741ION    CL-47357  43.866   8.197  12.871
75742ION    CL-47358  10.265  14.132   4.231
75743ION    CL-47359   8.990  38.085   3.341
75744ION    CL-47360  34.089  19.969   3.191
75745ION    CL-47361  28.447  24.477   1.590
75746ION    CL-47362   6.678  44.230  14.337
75747ION    CL-47363  24.554  15.229  11.616
75748ION    CL-47364  35.495  41.611  11.118
75749ION    CL-47365   9.478  39.554   4.016
75750ION    CL-47366  43.098  36.523   3.796
75751ION    CL-47367  12.636  26.301   2.941
75752ION    CL-47368  24.445  12.871   4.719
75753ION    CL-47369  34.236  27.929  13.803
75754ION    CL-47370  34.549  34.279  10.645
75755ION    CL-47371  25.532  20.809  13.393
75756ION    CL-47372  18.562   1.751  11.514
75757ION    CL-47373   5.303   4.658  13.688
75758ION    CL-47374  33.116  35.176  12.037
75759ION    CL-47375   2.177  15.107  12.912
75760ION    CL-47376  19.733  28.784   2.394
75761ION    CL-47377  39.024  18.308   3.959
75762ION    CL-47378  32.852   2.996   0.355
75763ION    CL-47379  23.026   7.001   4.854
75764ION    CL-47380  23.665  42.398   1.476
75765ION    CL-47381   0.515  25.577   3.347
75766ION    CL-47382  20.437   2.493  12.533
75767ION    CL-47383   5.733  32.264   0.810
75768ION    CL-47384  35.910  18.601   1.464
75769ION    CL-47385  34.426  31.505   1.287
75770ION    CL-47386  11.448  12.780   2.626
75771ION    CL-47387   7.691  28.840  11.037
75772ION    CL-47388  43.270   1.283  11.670
75773ION    CL-47389  42.474  40.945   4.658
75774ION    CL-47390  39.207   0.754  13.601
75775ION    CL-47391  36.620  40.271   0.840
75776ION    CL-47392  44.362  40.801   3.001
75777ION    CL-47393  10.905  20.581  14.254
75778ION    CL-47394  11.142  41.924  13.833
75779ION    CL-47395  17.829  26.624   3.118
75780ION    CL-47396  35.823   5.231  14.942
75781ION    CL-47397  11.149  17.900  11.096
75782ION    CL-47398  32.172  41.359  11.557
75783ION    CL-47399  21.751  36.151   3.616
75784ION    CL-47400   9.659  34.391  11.226
75785ION    CL-47401   0.014  23.453  12.023
75786ION    CL-47402   6.157   8.607   9.902
75787ION    CL-47403  14.691  40.317  11.557
75788ION    CL-47404  28.678  39.149  13.458
75789ION    CL-47405  23.582  18.220  10.856
75790ION    CL-47406  33.641  42.764  11.240
75791ION    CL-47407  14.496  30.705   3.235
75792ION    CL-47408  18.988  39.103   2.718
75793ION    CL-47409  36.642  21.611   0.880
75794ION    CL-47410   2.365  18.930   1.139
75795ION    CL-47411  31.234  31.581   3.238
75796ION    CL-47412   7.975  29.593  12.935
75797ION    CL-47413  30.319   8.630  10.902
75798ION    CL-47414  28.697  40.406   4.150
75799ION    CL-47415  43.814  33.820   5.054
75800ION    CL-47416  44.642   5.964   4.237
75801ION    CL-47417  37.892  33.417   9.995
75802ION    CL-47418   7.703  35.583   0.716
75803ION    CL-47419  29.014   1.490  14.752
75804ION    CL-47420  41.492   2.399  14.792
75805ION    CL-47421   0.453  15.210   0.069
75806ION    CL-47422   9.317  27.119   4.127
75807ION    CL-47423  37.363  20.910   2.879
75808ION    CL-47424   8.011  31.140  14.863
75809ION    CL-47425  37.674   7.237   2.003
75810ION    CL-47426  13.524  35.340   3.194
75811ION    CL-47427   6.729  19.138  11.462
75812ION    CL-47428  23.614  42.852  12.904
75813ION    CL-47429  39.821   0.197  13.958
75814ION    CL-47430   0.816  11.098  10.748
75815ION    CL-47431  36.919  44.567   4.836
75816ION    CL-47432  16.913   1.885   1.671
75817ION    CL-47433  10.895  37.277  13.395
75818ION    CL-47434  28.923   7.507   0.580
75819ION    CL-47435  18.075   8.765   1.777
75820ION    CL-47436  33.848  28.431   4.406
75821ION    CL-47437  17.580  25.246  13.701
75822ION    CL-47438  15.686  26.375  11.590
75823ION    CL-47439   2.806  35.492   1.018
75824ION    CL-47440  15.338  21.133  14.698
75825ION    CL-47441  10.337  41.261  14.206
75826ION    CL-47442  27.754  29.881   2.754
75827ION    CL-47443  32.187  33.834   3.841
75828ION    CL-47444  37.152   6.128  12.428
75829ION    CL-47445   7.072  11.995  13.649
75830ION    CL-47446   6.874  23.010  14.115
75831ION    CL-47447  34.228  33.637   5.307
75832ION    CL-47448  36.659  33.334   0.976
75833ION    CL-47449  17.916  20.791  12.390
75834ION    CL-47450  36.216   8.941   4.817
75835ION    CL-47451  33.446   2.692  13.765
75836ION    CL-47452  23.946   2.382  11.851
75837ION    CL-47453  32.678  16.247  13.332
75838ION    CL-47454  16.595   7.740  10.423
75839ION    CL-47455   7.351   0.421   2.133
75840ION    CL-47456  16.902   8.655   4.180
75841ION    CL-47457  12.140   1.188   2.968
75842ION    CL-47458  17.081   9.070  14.303
75843ION    CL-47459  40.824  25.655   3.179
75844ION    CL-47460  31.622  23.458   1.997
75845ION    CL-47461  40.451  30.600  14.220
75846ION    CL-47462  32.012  40.834   0.551
75847ION    CL-47463  23.721  34.741   4.513
75848ION    CL-47464  21.997  17.550   2.984
75849ION    CL-47465  17.965  30.765  12.912
75850ION    CL-47466   1.875  32.709   1.457
75851ION    CL-47467  10.830  41.245   0.746
75852ION    CL-47468  14.134  31.351  11.299
75853ION    CL-47469  36.104  23.280  10.689
75854ION    CL-47470  32.345  12.075   5.133
75855ION    CL-47471  44.736   3.162   2.187
75856ION    CL-47472  31.062   1.417   2.269
75857ION    CL-47473  24.028  26.086   4.358
75858ION    CL-47474  43.310  35.866  12.178
75859ION    CL-47475  37.200  30.533   9.696
75860ION    CL-47476  42.234  33.653  12.079
75861ION    CL-47477  33.529  33.939  14.485
75862ION    CL-47478   1.489   0.120  14.664
75863ION    CL-47479  12.419   0.480   3.462
75864ION    CL-47480  22.292  21.552  12.166
75865ION    CL-47481  36.036  29.032   2.176
75866ION    CL-47482  18.277  33.429  13.754
75867ION    CL-47483  13.130  15.552   3.744
75868ION    CL-47484  14.554  35.651   1.450
75869ION    CL-47485   0.598  21.462   1.599
75870ION    CL-47486   1.976  31.951   5.139
75871ION    CL-47487  33.177  33.488   1.903
75872ION    CL-47488  22.850   4.120   2.076
75873ION    CL-47489  39.376   0.200   2.424
75874ION    CL-47490  36.960  34.925   1.283
75875ION    CL-47491  38.528  34.703  11.715
75876ION    CL-47492  32.050  39.108   3.878
75877ION    CL-47493  26.081  42.301   2.125
75878ION    CL-47494   6.700  13.955  12.363
75879ION    CL-47495  17.320  20.239  12.972
75880ION    CL-47496  35.511  21.612   4.797
75881ION    CL-47497  31.626  38.154  12.606
75882ION    CL-47498   6.286   1.158   0.032
75883ION    CL-47499  17.682  37.366  11.531
75884ION    CL-47500  41.436  39.292  12.420
75885ION    CL-47501  11.901  37.568  12.605
75886ION    CL-47502  18.588  13.571   1.383
75887ION    CL-47503   0.249   1.791  14.005
75888ION    CL-47504  37.721   6.202   1.125
75889ION    CL-47505  18.929   1.826  14.187
75890ION    CL-47506  38.957   2.940   0.580
75891ION    CL-47507  34.287  37.117  11.870
75892ION    CL-47508   7.396  24.867  12.343
75893ION    CL-47509  16.494  26.453  12.455
75894ION    CL-47510  23.597  33.469  12.428
75895ION    CL-47511  18.548  41.979  14.978
75896ION    CL-47512  39.516  36.986   3.845
75897ION    CL-47513  38.326  40.859  12.859
75898ION    CL-47514  10.205   2.072   2.553
75899ION    CL-47515  36.103  43.089  14.195
75900ION    CL-47516  30.714  38.842  11.614
75901ION    CL-47517  15.896  21.277   2.924
75902ION    CL-47518  21.046  36.418   4.994
75903ION    CL-47519  11.743  33.647  14.312
75904ION    CL-47520   1.337  34.859  10.732
75905ION    CL-47521  30.710  42.310  11.340
75906ION    CL-47522  17.808  16.549   4.164
75907ION    CL-47523  11.788  44.400  12.974
75908ION    CL-47524  25.076  35.960   2.475
75909ION    CL-47525   5.171   0.519  13.556
75910ION    CL-47526  26.025  10.332   4.985
75911ION    CL-47527  36.669   3.475   2.239
75912ION    CL-47528   5.195  43.742  10.006
75913ION    CL-47529   8.320  39.903   1.757
75914ION    CL-47530   3.205  24.153  11.383
75915ION    CL-47531  43.044  37.412  11.207
75916ION    CL-47532  40.208  37.841   1.787
75917ION    CL-47533  23.552  11.215   0.176
75918ION    CL-47534  37.440   3.537  12.170
75919ION    CL-47535  32.329  40.824   4.126
75920ION    CL-47536   9.336   3.223   2.276
75921ION    CL-47537  31.947  44.804   4.178
75922ION    CL-47538  13.128  35.412  13.315
75923ION    CL-47539  19.127  36.655   5.085
75924ION    CL-47540  38.359  13.774   5.500
75925ION    CL-47541  11.327  40.016   2.093
75926ION    CL-47542  10.359   2.933   3.038
75927ION    CL-47543   9.529   1.411   4.637
75928ION    CL-47544  38.525   7.687  14.512
75929ION    CL-47545   3.232  40.553  11.169
75930ION    CL-47546  44.414  24.204   0.517
75931ION    CL-47547  41.930   8.764  14.955
75932ION    CL-47548  41.063  30.050  11.580
75933ION    CL-47549   1.975  38.111   1.465
75934ION    CL-47550  11.538  31.060  13.034
75935ION    CL-47551   3.641  13.906  12.715
75936ION    CL-47552  23.696   2.179   3.614
75937ION    CL-47553  22.151  44.332  14.910
75938ION    CL-47554  35.613  30.155  13.408
75939ION    CL-47555  27.719   0.327  12.304
75940ION    CL-47556  33.873  39.906  12.369
75941ION    CL-47557  24.323   6.504   3.406
75942ION    CL-47558  25.302  15.343   1.950
75943ION    CL-47559  38.965   2.476   2.315
75944ION    CL-47560   5.894   9.117   2.542
75945ION    CL-47561  40.670  22.527   3.529
75946ION    CL-47562   9.821  22.286   3.672
75947ION    CL-47563  32.948  14.718  10.860
75948ION    CL-47564  10.923  29.153   0.349
75949ION    CL-47565   1.379   5.007   1.667
75950ION    CL-47566  25.509  43.490  11.914
75951ION    CL-47567  14.034  25.772   2.168
75952ION    CL-47568  26.629  10.432  14.956
75953ION    CL-47569  42.190  37.793   1.422
75954ION    CL-47570  33.733  16.596   3.557
75955ION    CL-47571   0.850  42.516  14.195
75956ION    CL-47572   3.295   7.940  12.560
75957ION    CL-47573   4.723  42.319   2.340
75958ION    CL-47574  25.189   7.300   3.659
75959ION    CL-47575  29.672  38.238  11.696
75960ION    CL-47576  31.839  31.905  12.881
75961ION    CL-47577  22.460  14.443  14.817
75962ION    CL-47578  25.057  40.866  14.028
75963ION    CL-47579  44.844   0.200   1.127
75964ION    CL-47580  14.102   7.126   4.114
75965ION    CL-47581  34.350  16.316   4.162
75966ION    CL-47582  17.912  39.768  12.888
75967ION    CL-47583  12.353   6.867  11.352
75968ION    CL-47584  26.714  16.563  14.159
75969ION    CL-47585  29.056   9.509  14.411
75970ION    CL-47586  27.047  17.576   4.534
75971ION    CL-47587  35.932  29.014  10.649
75972ION    CL-47588   0.719  29.513  13.673
75973ION    CL-47589  44.497  30.169   0.493
75974ION    CL-47590   8.593  13.352   3.117
75975ION    CL-47591  27.439  13.252  14.666
75976ION    CL-47592  27.954  30.355   1.814
75977ION    CL-47593  20.315   3.506  14.838
75978ION    CL-47594  15.070  13.562   4.041
75979ION    CL-47595  21.276  27.557  12.434
75980ION    CL-47596   1.208  33.630  13.433
75981ION    CL-47597  32.743   2.403  10.959
75982ION    CL-47598  39.637  22.092   1.650
75983ION    CL-47599  18.482  35.850   3.341
75984ION    CL-47600  29.648  13.369   1.624
75985ION    CL-47601  27.808  19.503   0.382
75986ION    CL-47602  20.652  15.254   4.349
75987ION    CL-47603  29.252  42.373   3.690
75988ION    CL-47604   1.735   3.118   4.590
75989ION    CL-47605  30.957  25.315  14.448
75990ION    CL-47606  13.531  44.152   5.352
75991ION    CL-47607   5.564   3.324  11.251
75992ION    CL-47608  38.521  16.149  13.040
75993ION    CL-47609  39.933  43.376  11.678
75994ION    CL-47610  13.102   8.285  14.892
75995ION    CL-47611  28.541   0.419   2.934
75996ION    CL-47612  36.965  30.501  13.557
75997ION    CL-47613  10.788  22.047   2.557
75998ION    CL-47614  11.660  28.002  10.645
75999ION    CL-47615  36.697  22.528   4.250
76000ION    CL-47616  43.342  42.428   0.312
76001ION    CL-47617  37.062  39.248   2.414
76002ION    CL-47618  34.158  30.436  14.690
76003ION    CL-47619  15.116  38.700   1.144
76004ION    CL-47620  32.565  33.760  14.679
76005ION    CL-47621  39.211  38.815  11.610
76006ION    CL-47622   5.060   6.190   4.800
76007ION    CL-47623  34.387  11.838  13.711
76008ION    CL-47624  43.278  38.278   4.350
76009ION    CL-47625  37.390   4.004   3.692
76010ION    CL-47626  20.870  14.511  11.589
76011ION    CL-47627   5.766  27.197   3.829
76012ION    CL-47628  42.256  40.420  14.106
76013ION    CL-47629  25.435  35.343   1.688
76014ION    CL-47630  23.690  32.805   1.645
76015ION    CL-47631  16.757  11.997  11.283
76016ION    CL-47632  24.638  14.056   2.740
76017ION    CL-47633  44.362  31.860   2.127
76018ION    CL-47634  11.311  29.907   0.025
76019ION    CL-47635  26.214  42.589  11.300
76020ION    CL-47636  10.641  33.118   4.029
76021ION    CL-47637  39.632  14.316  11.738
76022ION    CL-47638  31.982  44.065   0.701
76023ION    CL-47639  39.489  24.304   0.823
76024ION    CL-47640  43.782  26.905  14.355
76025ION    CL-47641   7.863  39.871  13.553
76026ION    CL-47642  40.562  23.860  14.483
76027ION    CL-47643  17.363  38.342  14.410
76028ION    CL-47644   6.619  23.037   4.125
76029ION    CL-47645  20.244  43.438   1.351
76030ION    CL-47646  33.768  19.451  13.985
76031ION    CL-47647  40.727  23.327  11.731
76032ION    CL-47648  10.630   8.370   1.902
76033ION    CL-47649  35.155  42.312  14.570
76034ION    CL-47650  14.782  22.439   1.663
76035ION    CL-47651   0.150   7.512   3.209
76036ION    CL-47652  22.568  31.164   0.961
76037ION    CL-47653  37.363  16.353   2.117
76038ION    CL-47654  33.159  33.043  10.855
76039ION    CL-47655  18.568  40.264   1.392
76040ION    CL-47656   8.402   6.919   1.787
76041ION    CL-47657  41.268  42.296  13.582
76042ION    CL-47658  35.872  43.267  10.640
76043ION    CL-47659  32.512  32.642   0.842
76044ION    CL-47660   2.053  44.579   2.876
76045ION    CL-47661  38.168  13.752  11.350
76046ION    CL-47662  30.265  11.116   1.889
76047ION    CL-47663   1.329   4.020   1.984
76048ION    CL-47664  41.163   6.882  13.867
76049ION    CL-47665  23.521  40.364  12.702
76050ION    CL-47666   8.909  21.216   0.804
76051ION    CL-47667  12.338  12.832  14.476
76052ION    CL-47668  44.010  26.256   0.792
76053ION    CL-47669  26.573  28.140  12.536
76054ION    CL-47670  41.692  38.317   5.183
76055ION    CL-47671  22.784  36.876   1.362
76056ION    CL-47672  32.838  19.347   4.663
76057ION    CL-47673   4.510   4.432  11.611
76058ION    CL-47674  19.786  26.289  14.692
76059ION    CL-47675   4.324  12.313   4.253
76060ION    CL-47676  41.330  30.868  14.725
76061ION    CL-47677  29.332  21.387  13.288
76062ION    CL-47678  11.074   0.609  13.015
76063ION    CL-47679   2.916   9.696   3.277
76064ION    CL-47680   8.850  10.082   0.336
76065ION    CL-47681  33.275  33.093  14.454
76066ION    CL-47682  27.701  10.416  13.152
76067ION    CL-47683  37.428  21.512   2.083
76068ION    CL-47684  33.450  24.048   4.220
76069ION    CL-47685  22.995  25.123  11.583
76070ION    CL-47686  29.395  20.495  13.293
76071ION    CL-47687  41.854   2.007  13.845
76072ION    CL-47688  23.666  42.223  14.022
76073ION    CL-47689   8.252   8.773   4.365
76074ION    CL-47690  22.630  28.797   9.681
76075ION    CL-47691  37.336  41.484  11.708
76076ION    CL-47692  22.369   9.233  13.069
76077ION    CL-47693  43.509  35.366  10.707
76078ION    CL-47694  16.143   5.487   2.838
76079ION    CL-47695  36.113  17.784   2.685
76080ION    CL-47696  42.798  17.815  10.630
76081ION    CL-47697  42.893  36.513   2.336
76082ION    CL-47698  34.739  29.554  14.789
76083ION    CL-47699  13.276  30.716  12.775
76084ION    CL-47700  18.046  39.091  11.359
76085ION    CL-47701  14.791   8.363   0.978
76086ION    CL-47702  28.459  20.772  14.794
76087ION    CL-47703  38.250  44.404   0.812
76088ION    CL-47704   4.145  39.334   1.317
76089ION    CL-47705   0.725  36.781   3.988
76090ION    CL-47706   8.669   5.356   2.325
76091ION    CL-47707  29.739  12.743  13.889
76092ION    CL-47708  42.111  31.281  14.639
76093ION    CL-47709  27.069  39.722  10.413
76094ION    CL-47710   7.767  15.835   0.897
76095ION    CL-47711   1.146  43.946   0.115
76096ION    CL-47712  30.845  44.670   2.999
76097ION    CL-47713  35.787   8.019   2.913
76098ION    CL-47714  22.638   2.348  13.782
76099ION    CL-47715  37.700  26.711  10.739
76100ION    CL-47716  12.637  24.583  14.193
76101ION    CL-47717   9.707   7.406  12.061
76102ION    CL-47718   5.432  12.223  13.746
76103ION    CL-47719  34.904  13.164   3.909
76104ION    CL-47720  25.355  20.856   5.165
76105ION    CL-47721  21.191   9.302  13.415
76106ION    CL-47722   4.142  36.873   0.861
76107ION    CL-47723  39.608  40.838  11.551
76108ION    CL-47724  15.806   7.894  11.896
76109ION    CL-47725  43.588  37.940  12.659
76110ION    CL-47726  39.258  39.988  12.079
76111ION    CL-47727  35.969   6.169   0.350
76112ION    CL-47728  44.699  36.941  13.187
76113ION    CL-47729  21.958  24.620  11.976
76114ION    CL-47730   6.581  23.950  13.940
76115ION    CL-47731  27.440  37.949   3.731
76116ION    CL-47732  17.841   2.869  13.949
76117ION    CL-47733  27.475   9.854  14.803
76118ION    CL-47734  18.713   7.840   2.968
76119ION    CL-47735   0.410  42.882   9.915
76120ION    CL-47736  32.463  16.035   4.035
76121ION    CL-47737  26.429  34.913   3.220
76122ION    CL-47738  19.978  38.137   1.917
76123ION    CL-47739  22.296  21.599  10.760
76124ION    CL-47740   3.430  32.784   3.538
76125ION    CL-47741  39.833   3.543  14.883
76126ION    CL-47742  40.030   0.880  14.658
76127ION    CL-47743   5.475  28.441  13.979
76128ION    CL-47744   4.304  23.329  11.536
76129ION    CL-47745  36.352  44.410   4.091
76130ION    CL-47746  43.271  39.354  12.434
76131ION    CL-47747  12.643  39.447  14.414
76132ION    CL-47748   9.966  10.531  11.614
76133ION    CL-47749  29.677   5.233  11.572
76134ION    CL-47750  38.635  13.973   3.759
76135ION    CL-47751  12.579   8.763  12.458
76136ION    CL-47752  35.727  24.606   3.081
76137ION    CL-47753  14.759  15.775  10.723
76138ION    CL-47754  14.465  37.552   1.267
76139ION    CL-47755   3.225  25.805   0.102
76140ION    CL-47756  25.654  23.055   2.901
76141ION    CL-47757  35.602  36.020  10.578
76142ION    CL-47758  19.580  14.669   1.751
76143ION    CL-47759  25.590  24.043  14.567
76144ION    CL-47760  15.293  30.844  11.938
76145ION    CL-47761  37.999   8.370   0.019
76146ION    CL-47762  11.087  16.396   0.204
76147ION    CL-47763  29.586   4.484   3.807
76148ION    CL-47764  14.763  22.999   0.259
76149ION    CL-47765  11.583   7.250   9.839
76150ION    CL-47766  21.142  40.294   4.230
76151ION    CL-47767   4.672  10.366   3.377
76152ION    CL-47768  28.704  15.888  14.696
76153ION    CL-47769  18.048   6.839   3.361
76154ION    CL-47770   0.019  39.061   9.993
76155ION    CL-47771  10.514   4.735  14.261
76156ION    CL-47772  33.885  14.674  14.353
76157ION    CL-47773   1.427  12.488  12.881
76158ION    CL-47774   6.462  30.490   9.731
76159ION    CL-47775  35.683   0.871   3.145
76160ION    CL-47776  44.364  44.029   0.735
76161ION    CL-47777  19.182  10.895  10.951
76162ION    CL-47778  42.168  42.083  14.518
76163ION    CL-47779   1.958   7.469  12.272
76164ION    CL-47780   0.021   6.481   4.868
76165ION    CL-47781  40.071  42.347  11.991
76166ION    CL-47782  23.958  18.914  11.432
76167ION    CL-47783  34.253  12.830  10.420
76168ION    CL-47784  13.599  21.366  14.523
76169ION    CL-47785  38.643  41.801  13.119
76170ION    CL-47786  31.032  15.428   2.021
76171ION    CL-47787  23.117  32.679   5.112
76172ION    CL-47788   7.986  30.588  12.833
76173ION    CL-47789  11.760  10.903   4.775
76174ION    CL-47790  32.412  37.110  14.933
76175ION    CL-47791  35.137  12.162  12.013
76176ION    CL-47792  37.271  39.619  12.485
76177ION    CL-47793   8.468  36.977  14.831
76178ION    CL-47794  41.793  33.933   3.773
76179ION    CL-47795   6.379  40.402   4.134
76180ION    CL-47796  25.216   4.193   2.885
76181ION    CL-47797  12.245  39.170  13.082
76182ION    CL-47798  26.628  35.892  12.630
76183ION    CL-47799  41.820   3.078  10.049
76184ION    CL-47800  26.500  26.693   4.110
76185ION    CL-47801   9.612   0.537  13.521
76186ION    CL-47802  41.708  13.094  13.986
76187ION    CL-47803  17.945  30.599   3.937
76188ION    CL-47804  26.020  35.392   4.155
76189ION    CL-47805   0.368  42.072  11.250
76190ION    CL-47806   2.735   1.473   4.790
76191ION    CL-47807   5.692  42.461  12.567
76192ION    CL-47808  24.541  17.570  13.686
76193ION    CL-47809  30.191  27.494   3.196
76194ION    CL-47810  37.247   7.408  13.034
76195ION    CL-47811  33.665   0.168   3.492
76196ION    CL-47812  39.288  31.268   4.118
76197ION    CL-47813   1.219  37.150  13.948
76198ION    CL-47814  11.201  35.678   2.557
76199ION    CL-47815   4.050  19.052   5.208
76200ION    CL-47816  31.608  36.104   4.799
76201ION    CL-47817  18.527   2.889   1.009
76202ION    CL-47818  22.976  16.014  14.135
76203ION    CL-47819  20.130  37.848  11.102
76204ION    CL-47820   7.445  36.509   3.824
76205ION    CL-47821   8.865   1.708  13.765
76206ION    CL-47822  24.809  29.548   1.422
76207ION    CL-47823   8.170  10.585  12.412
76208ION    CL-47824  39.735  40.809   2.460
76209ION    CL-47825   7.769  41.788  12.227
76210ION    CL-47826  36.617  11.309   2.685
76211ION    CL-47827  14.036   2.218  11.873
76212ION    CL-47828   3.490  15.023  14.782
76213ION    CL-47829  28.952  25.959   1.780
76214ION    CL-47830  19.206   6.923   4.535
76215ION    CL-47831  28.292   0.999   3.122
76216ION    CL-47832  17.100   4.384   4.953
76217ION    CL-47833  12.003  22.292  10.374
76218ION    CL-47834  35.394  11.675  14.847
76219ION    CL-47835  22.336  19.450  10.406
76220ION    CL-47836  33.427  44.030  13.349
76221ION    CL-47837  21.101  34.568  14.583
76222ION    CL-47838  18.137  24.932   4.186
76223ION    CL-47839  26.663  17.144  13.292
76224ION    CL-47840   0.586  32.763   4.454
76225ION    CL-47841  29.980  42.439   2.862
76226ION    CL-47842  42.765  37.634  12.655
76227ION    CL-47843  42.427  44.674   2.970
76228ION    CL-47844   8.274  16.874  12.342
76229ION    CL-47845  37.849  41.938  14.834
76230ION    CL-47846  41.259   1.668   1.349
76231ION    CL-47847  25.278  36.550   1.142
76232ION    CL-47848  37.066  21.535   3.602
76233ION    CL-47849   6.942  21.982   3.621
76234ION    CL-47850  22.296   0.562   1.021
76235ION    CL-47851  44.462  15.909  10.830
76236ION    CL-47852   5.856  42.246   1.235
76237ION    CL-47853  23.810  37.370  12.031
76238ION    CL-47854  35.841  26.475   2.210
76239ION    CL-47855   2.840   2.464   4.084
76240ION    CL-47856   6.971   9.346   0.362
76241ION    CL-47857   1.580  39.454   1.381
76242ION    CL-47858  23.955   0.272  11.085
76243ION    CL-47859   8.053  13.103  11.399
76244ION    CL-47860   1.776  13.391   4.816
76245ION    CL-47861   9.097  27.671  12.777
76246ION    CL-47862   3.372  26.976   2.764
76247ION    CL-47863  44.975  43.853  10.842
76248ION    CL-47864  30.403   2.280   1.314
76249ION    CL-47865  27.058  33.891   3.653
76250ION    CL-47866  24.990   4.620   0.111
76251ION    CL-47867   6.898   5.656   1.029
76252ION    CL-47868   3.422   5.819  14.597
76253ION    CL-47869  38.750  26.287   4.928
76254ION    CL-47870  43.205  35.355  14.120
76255ION    CL-47871   7.435   2.746  14.909
76256ION    CL-47872  10.021   1.680   1.224
76257ION    CL-47873  14.188  14.021  12.102
76258ION    CL-47874  34.291  24.593   0.773
76259ION    CL-47875  17.853   1.854  12.946
76260ION    CL-47876  12.769  13.818   1.112
76261ION    CL-47877  28.455   8.584   3.690
76262ION    CL-47878   9.032   4.653  10.254
76263ION    CL-47879   0.743  30.160  14.526
76264ION    CL-47880   7.700   1.158   1.436
76265ION    CL-47881  23.593  20.501   1.823
76266ION    CL-47882  11.024  33.504   3.333
76267ION    CL-47883  16.752  31.879  11.101
76268ION    CL-47884  35.821  14.349  13.540
76269ION    CL-47885   2.522  41.797   4.007
76270ION    CL-47886  21.515  41.292   3.870
76271ION    CL-47887  27.427  16.015  11.939
76272ION    CL-47888  17.381   4.191   0.969
76273ION    CL-47889  10.168  40.408  14.258
76274ION    CL-47890   4.001  34.407  10.617
76275ION    CL-47891   2.756  38.807  13.631
76276ION    CL-47892   1.160  26.631   4.663
76277ION    CL-47893  19.350  10.032   3.331
76278ION    CL-47894   4.249  16.014  14.358
76279ION    CL-47895  35.354  17.770   1.453
76280ION    CL-47896  44.934  23.119  13.878
76281ION    CL-47897  32.778  43.258   2.540
76282ION    CL-47898  25.904  26.503  12.421
76283ION    CL-47899  42.506  16.632   3.816
76284ION    CL-47900   0.570  22.183   4.749
76285ION    CL-47901  14.352   2.509   3.237
76286ION    CL-47902   5.451  16.957  14.158
76287ION    CL-47903   1.207  31.108  11.459
76288ION    CL-47904  18.856   9.720   2.211
76289ION    CL-47905  28.125   8.439  13.889
76290ION    CL-47906  27.646  38.795   2.781
76291ION    CL-47907  26.870  27.695  13.542
76292ION    CL-47908  26.612  28.193  10.744
76293ION    CL-47909   8.174  42.457   2.868
76294ION    CL-47910   0.384  24.238   1.455
76295ION    CL-47911   3.535   1.374  11.079
76296ION    CL-47912  21.038  20.556  13.765
76297ION    CL-47913  39.427  23.540   2.466
76298ION    CL-47914   1.244  22.259  14.864
76299ION    CL-47915  13.370  10.774   0.131
76300ION    CL-47916  10.615  39.136  11.740
76301ION    CL-47917   6.189   2.466  13.877
76302ION    CL-47918  32.544   8.524   0.105
76303ION    CL-47919  44.770  36.832  14.178
76304ION    CL-47920  21.637   3.713   1.819
76305ION    CL-47921   6.064  37.344   0.999
76306ION    CL-47922  11.933  21.232   9.775
76307ION    CL-47923   3.481  43.927  13.951
76308ION    CL-47924  33.875  23.419  11.662
76309ION    CL-47925  29.390  42.898  11.621
76310ION    CL-47926  38.059  36.746  11.756
76311ION    CL-47927  39.513  16.850   5.077
76312ION    CL-47928   6.805   6.320   2.394
76313ION    CL-47929  20.067  26.047   2.601
76314ION    CL-47930  18.314  43.310  13.950
76315ION    CL-47931   3.138  41.482  12.111
76316ION    CL-47932   2.933  25.627  12.845
76317ION    CL-47933  41.643  34.656   2.164
76318ION    CL-47934  14.228  22.288   3.623
76319ION    CL-47935  14.134  38.008  14.796
76320ION    CL-47936  40.152  37.400   0.021
76321ION    CL-47937   6.139  18.924   9.791
76322ION    CL-47938  42.295  41.576   3.665
76323ION    CL-47939  25.470  13.261  12.161
76324ION    CL-47940  21.293  13.270   0.446
76325ION    CL-47941  18.160  12.229  12.487
76326ION    CL-47942   4.522  44.287  11.370
76327ION    CL-47943  15.988  42.713  10.217
76328ION    CL-47944  21.257  40.383   3.241
76329ION    CL-47945  27.977  21.402  14.012
76330ION    CL-47946   7.919   0.779  14.940
76331ION    CL-47947   7.741  12.870  14.476
76332ION    CL-47948  33.779   6.220  12.201
76333ION    CL-47949  31.264  38.654  14.596
76334ION    CL-47950   7.190  25.023  14.552
76335ION    CL-47951   2.971  14.185   1.519
76336ION    CL-47952  44.770  34.102   4.972
76337ION    CL-47953  37.419  26.866  12.190
76338ION    CL-47954  31.632  28.013   3.669
76339ION    CL-47955  14.659   1.026   2.591
76340ION    CL-47956  29.285  38.076   0.484
76341ION    CL-47957  37.209  20.794   4.440
76342ION    CL-47958  43.994  15.082   4.908
76343ION    CL-47959  15.544  37.255   1.371
76344ION    CL-47960  22.078  10.736   1.877
76345ION    CL-47961  28.729   1.402  11.928
76346ION    CL-47962  26.307   9.236  12.100
76347ION    CL-47963  40.926  35.190   4.212
76348ION    CL-47964  40.957  22.435  14.059
76349ION    CL-47965  25.157   7.197   0.474
76350ION    CL-47966  29.438  23.413  10.720
76351ION    CL-47967   5.220  20.468   1.673
76352ION    CL-47968  20.196  39.249  12.101
76353ION    CL-47969   5.428  16.311   0.009
76354ION    CL-47970  41.588   6.365   1.834
76355ION    CL-47971   4.847   1.214   3.664
76356ION    CL-47972   2.493  44.973  12.849
76357ION    CL-47973  43.270  16.505   4.282
76358ION    CL-47974  15.730  14.027   2.929
76359ION    CL-47975  15.403  40.324  10.662
76360ION    CL-47976   6.118  44.521   3.955
76361ION    CL-47977   0.622  10.805   2.691
76362ION    CL-47978   7.648   0.308   0.905
76363ION    CL-47979  12.722  11.949   4.013
76364ION    CL-47980   3.791  35.959  10.017
76365ION    CL-47981  27.784  36.519   4.044
76366ION    CL-47982  38.552  37.169  10.996
76367ION    CL-47983  25.425  22.658   4.458
76368ION    CL-47984   0.361  35.577   3.407
76369ION    CL-47985  39.708   2.170   4.082
76370ION    CL-47986   9.924  42.459  14.662
76371ION    CL-47987  40.253  41.624  11.453
76372ION    CL-47988  18.689  21.106   2.762
76373ION    CL-47989  15.672  25.424   3.175
76374ION    CL-47990   7.214  19.775   0.329
76375ION    CL-47991  25.543  38.097   1.146
76376ION    CL-47992  28.098  42.990  14.835
76377ION    CL-47993  32.653  11.391   2.166
76378ION    CL-47994  20.260  12.971  13.456
76379ION    CL-47995   3.868  27.533  12.386
  45.00000  45.00000  15.00000
